/*--------------------------------*- C++ -*----------------------------------*\
  =========                 |
  \\      /  F ield         | OpenFOAM: The Open Source CFD Toolbox
   \\    /   O peration     | Website:  https://openfoam.org
    \\  /    A nd           | Version:  7
     \\/     M anipulation  |
\*---------------------------------------------------------------------------*/
FoamFile
{
    version     2.0;
    format      ascii;
    class       volScalarField;
    location    "51.9";
    object      p;
}
// * * * * * * * * * * * * * * * * * * * * * * * * * * * * * * * * * * * * * //

dimensions      [0 2 -2 0 0 0 0];

internalField   nonuniform List<scalar> 
2000
(
0.0363585
0.0362847
0.0365064
0.0368167
0.0371892
0.0376117
0.0380794
0.0385932
0.0391479
0.0397782
0.0366997
0.0366471
0.0369151
0.0372852
0.0377191
0.0381932
0.0386922
0.039207
0.0397215
0.0402571
0.0369442
0.0369444
0.0372671
0.0377027
0.0382028
0.038735
0.039275
0.0398065
0.0403051
0.0407646
0.037083
0.0371705
0.037554
0.0380567
0.0386214
0.0392104
0.0397939
0.0403509
0.0408554
0.0412621
0.0371142
0.0373233
0.0377701
0.0383361
0.0389573
0.0395939
0.0402138
0.0407953
0.0413198
0.0417003
0.0370422
0.0374056
0.0379155
0.0385349
0.0391979
0.0398642
0.0405029
0.0410951
0.0416377
0.0420151
0.0368782
0.0374246
0.0379926
0.038652
0.0393356
0.0400059
0.0406363
0.0412122
0.0417505
0.0421338
0.0366439
0.0373878
0.0380073
0.0386888
0.0393667
0.0400089
0.0405965
0.0411208
0.0416178
0.0419974
0.0363603
0.0373084
0.0379674
0.0386484
0.0392898
0.0398662
0.0403692
0.0408012
0.0412215
0.0415911
0.0360536
0.0371996
0.0378814
0.0385362
0.0391067
0.039574
0.0399387
0.0402122
0.0404744
0.0407768
0.0417545
0.0458758
0.0504198
0.0551579
0.0595432
0.0638805
0.0672315
0.0709001
0.0722554
0.0742191
0.0419494
0.0455013
0.0494907
0.0538237
0.0578967
0.0619699
0.065073
0.0685264
0.0698658
0.0716522
0.0421059
0.0452212
0.0485917
0.0525145
0.0562919
0.0601201
0.0630033
0.0662766
0.067547
0.0692191
0.0421771
0.045037
0.0477267
0.0512404
0.0547329
0.0583265
0.0610194
0.0641277
0.0653197
0.0669182
0.0421225
0.0449154
0.0469012
0.0500139
0.0532269
0.0565976
0.0591258
0.0620852
0.0632127
0.0647525
0.0419151
0.0447775
0.046123
0.0488395
0.0517678
0.0549208
0.0572967
0.0601179
0.0612015
0.0627024
0.0415467
0.0445192
0.0454005
0.0477264
0.0503756
0.0533239
0.0555649
0.0582611
0.05931
0.060768
0.0410146
0.0440529
0.0447243
0.0466452
0.0490054
0.0517445
0.0538581
0.0564368
0.0574717
0.0589161
0.0403265
0.0433074
0.0440732
0.0456701
0.0477722
0.0503028
0.0522988
0.0547497
0.0557579
0.0571562
0.0397135
0.0423795
0.043265
0.0445584
0.0464061
0.048729
0.0506339
0.0529727
0.0540261
0.0554252
0.0395402
0.0421666
0.043432
0.0440379
0.0449499
0.0464108
0.0478756
0.0495649
0.0505142
0.0514412
0.0328406
0.0355298
0.0375606
0.0390172
0.0402148
0.0414949
0.0426611
0.0438151
0.0444952
0.045041
0.0256288
0.0282733
0.0305481
0.0324402
0.0340157
0.0355629
0.0368514
0.0379276
0.0384529
0.0388064
0.0182347
0.02075
0.0232235
0.0254797
0.0273994
0.0291789
0.0306115
0.0317875
0.0324002
0.0327753
0.0112215
0.0134469
0.0159227
0.0183694
0.0206316
0.0227558
0.0244027
0.0256644
0.0263522
0.0267931
0.00521495
0.00708122
0.00938968
0.0118261
0.0142171
0.0165278
0.018373
0.0197794
0.0205559
0.0210146
0.00072928
0.00209705
0.00396912
0.00620116
0.00863033
0.0109982
0.0128492
0.0142498
0.0150607
0.0155366
-0.00191098
-0.0010344
0.00025431
0.00197961
0.00412027
0.00635596
0.00809366
0.00936916
0.0100907
0.0105213
-0.00277914
-0.00235587
-0.00158902
-0.000413465
0.0011487
0.0028359
0.0041445
0.00512151
0.00564578
0.00598573
-0.00181092
-0.00178808
-0.00159533
-0.00107938
-0.000289997
0.000562911
0.00115031
0.00161451
0.00180063
0.00197753
0.0363408
0.02999
0.023287
0.0164419
0.00999268
0.00447042
0.000373768
-0.0019985
-0.00267862
-0.00171606
0.0348241
0.0284177
0.0218499
0.0152425
0.00910414
0.00389743
9.11468e-05
-0.00207034
-0.00261918
-0.00167836
0.033198
0.0270182
0.0206387
0.0142636
0.00840033
0.00346145
-9.98375e-05
-0.00208483
-0.00252505
-0.00163755
0.0317149
0.0258295
0.019643
0.0134972
0.00789734
0.0031993
-0.000159184
-0.00201279
-0.0023893
-0.00154879
0.0304606
0.0248522
0.0188542
0.012921
0.00756381
0.00307844
-0.00010705
-0.00186522
-0.00221271
-0.00140274
0.0294858
0.024096
0.0182769
0.0125355
0.00739504
0.00309189
4.48464e-05
-0.00164851
-0.00199704
-0.00124002
0.0288062
0.0235623
0.0179047
0.0123367
0.00738366
0.00323114
0.000290041
-0.00136807
-0.0017457
-0.00106745
0.028412
0.0232414
0.0177382
0.0123118
0.00751749
0.00348532
0.000619389
-0.00103078
-0.00146323
-0.000887126
0.0282936
0.023127
0.017758
0.0124465
0.00778207
0.0038414
0.00102177
-0.000644931
-0.0011553
-0.000703112
0.0284138
0.0232036
0.017946
0.0127217
0.00815917
0.00428377
0.00148444
-0.000219964
-0.000828405
-0.00051978
0.028717
0.0234318
0.0182677
0.0131079
0.00862402
0.00479325
0.00199294
0.000233851
-0.000489325
-0.000340898
0.0291657
0.0237811
0.0186974
0.0135834
0.00915712
0.00535412
0.00253433
0.000706692
-0.000144579
-0.000169474
0.0297389
0.0242358
0.0192195
0.0141355
0.00974489
0.00595416
0.00309769
0.00118981
0.00020018
-7.6165e-06
0.0304132
0.0247795
0.0198161
0.0147504
0.0103735
0.00658142
0.00367318
0.0016757
0.000540539
0.0001436
0.0311688
0.0254003
0.0204708
0.0154156
0.0110309
0.00722543
0.00425265
0.00215834
0.000873448
0.000284037
0.0319864
0.0260876
0.021167
0.0161191
0.0117067
0.00787708
0.00482958
0.00263321
0.0011971
0.000414224
0.0328335
0.026823
0.0218855
0.0168475
0.0123916
0.00852866
0.00539915
0.00309724
0.0015108
0.000535178
0.0337009
0.0276219
0.0226396
0.0176093
0.0130918
0.00918243
0.00596218
0.00355048
0.0018154
0.000648377
0.0347077
0.0286137
0.0235142
0.0184624
0.0138459
0.00985978
0.0065294
0.00399773
0.00211401
0.000754615
0.0355553
0.0296026
0.0243435
0.0192839
0.014577
0.0105096
0.00707487
0.00442634
0.00240338
0.000849207
0.0347163
0.0301658
0.0251427
0.020371
0.0157846
0.0117189
0.00820201
0.00535353
0.00304109
0.00105542
0.0339589
0.029604
0.0249172
0.0205352
0.0162745
0.012456
0.00904947
0.00617546
0.00367059
0.00132921
0.0344023
0.0300668
0.0254446
0.0211785
0.016986
0.0132191
0.00979963
0.00685201
0.00418272
0.00157207
0.0351905
0.0307339
0.0261012
0.0218658
0.0176865
0.0139156
0.0104445
0.00742928
0.0046447
0.00182413
0.0364773
0.031737
0.0269743
0.0226527
0.0184054
0.0145715
0.0110301
0.00796056
0.00509677
0.00209447
0.0381849
0.0330673
0.0280785
0.0235573
0.0191791
0.0152336
0.01161
0.00847847
0.00554067
0.00236261
0.0401611
0.0346413
0.0293352
0.0245382
0.0199996
0.0159187
0.0122058
0.00897813
0.00591396
0.00252138
0.0421915
0.0360361
0.0304948
0.0254919
0.0208261
0.0166154
0.012795
0.00939554
0.00610511
0.00248528
0.0435558
0.0374514
0.0316566
0.0263651
0.0215344
0.0172007
0.0132631
0.00964858
0.00608798
0.00229545
0.0448583
0.0379852
0.032009
0.0266938
0.0218834
0.0175343
0.0135358
0.00977587
0.00604124
0.00215869
0.0376549
0.0371121
0.0375514
0.0383205
0.0397832
0.041679
0.0438208
0.0464771
0.0477745
0.0497329
0.038362
0.0382475
0.0388633
0.0397657
0.0414113
0.0434555
0.0457368
0.0483736
0.0499254
0.0516172
0.0387154
0.0389937
0.0399308
0.0411809
0.0431578
0.0454763
0.0480038
0.0505482
0.0523914
0.0535656
0.0392487
0.0397616
0.0409262
0.0425077
0.0447856
0.0473738
0.0501617
0.0527763
0.0548252
0.055793
0.0399225
0.0406969
0.0420463
0.0438885
0.0463927
0.0491916
0.0521996
0.0549907
0.0571942
0.0582383
0.0406232
0.0417246
0.0433066
0.0453967
0.048097
0.0510734
0.054261
0.0572406
0.0595791
0.060796
0.0413394
0.0427818
0.0446511
0.0470123
0.0499224
0.0530858
0.056444
0.0595903
0.0620515
0.063416
0.0420988
0.0438678
0.0460523
0.0486994
0.0518422
0.0552196
0.0587638
0.0620662
0.0646403
0.0660985
0.0429167
0.0449952
0.047512
0.050442
0.0538323
0.0574448
0.0611965
0.0646614
0.0673445
0.068861
0.0437951
0.0461618
0.049034
0.0522352
0.0558833
0.0597415
0.0637177
0.0673587
0.0701537
0.0717161
0.0447354
0.0473518
0.0506149
0.0540702
0.0579915
0.0621004
0.0663154
0.0701464
0.0730603
0.0746684
0.0457365
0.0485426
0.0522424
0.0559317
0.0601478
0.0645133
0.0689828
0.0730174
0.076061
0.0777181
0.0467763
0.0497198
0.0538888
0.0578044
0.0623377
0.0669783
0.0717192
0.0759714
0.0791613
0.0808702
0.0478143
0.0508786
0.0555161
0.0596774
0.0645454
0.069489
0.0745176
0.0790051
0.0823703
0.0841368
0.0487981
0.0520237
0.0570797
0.0615295
0.0667815
0.0720487
0.0773807
0.0821226
0.0856749
0.0875093
0.0496688
0.0531512
0.0585749
0.063382
0.0689846
0.0746059
0.0802736
0.085301
0.0890606
0.0909797
0.0503384
0.0543144
0.0599856
0.0651794
0.071135
0.0771499
0.0831939
0.0885406
0.0925312
0.0945562
0.0508178
0.0553936
0.0612512
0.0668471
0.0731728
0.0796155
0.0860798
0.0917976
0.0960665
0.0982328
0.0511261
0.0563744
0.0624129
0.0684372
0.0751612
0.0820639
0.0889777
0.0950999
0.0996822
0.102031
0.0510264
0.0569848
0.0631865
0.0696166
0.0767379
0.0841436
0.0916
0.0982638
0.103294
0.10592
0.0526498
0.0602943
0.0668896
0.0741253
0.0820191
0.0903696
0.0988219
0.106513
0.112427
0.115649
0.0612067
0.0686541
0.0757312
0.0842702
0.093565
0.103487
0.113511
0.1226
0.129562
0.133293
0.0704575
0.0784605
0.0865602
0.0965955
0.107423
0.11908
0.130685
0.141055
0.148905
0.153126
0.0800848
0.0890697
0.0987
0.110454
0.12305
0.136678
0.149869
0.161469
0.170085
0.17458
0.090076
0.100371
0.111796
0.125408
0.139969
0.155664
0.170384
0.183159
0.19241
0.197316
0.10072
0.11241
0.125796
0.141344
0.157981
0.175684
0.191836
0.205674
0.215238
0.219879
0.111466
0.124688
0.139945
0.157353
0.176019
0.19546
0.212944
0.2276
0.237141
0.241939
0.122078
0.136581
0.153556
0.172726
0.193302
0.214212
0.233145
0.248619
0.257674
0.260383
0.129793
0.145497
0.163776
0.184283
0.206291
0.228317
0.248619
0.264706
0.273145
0.276975
0.13546
0.151676
0.170857
0.192328
0.215366
0.238438
0.260492
0.279425
0.290811
0.278031
0.0503748
0.0582713
0.066441
0.0753388
0.0844094
0.0944745
0.104273
0.114527
0.121472
0.127069
0.0499156
0.0581616
0.0660566
0.0746985
0.083439
0.0931936
0.102545
0.112436
0.118716
0.124124
0.0499789
0.0587235
0.0665613
0.075129
0.0837055
0.0931705
0.102096
0.11139
0.11686
0.121815
0.0498552
0.0587827
0.0665419
0.0750775
0.0835254
0.0927687
0.101338
0.11016
0.115126
0.119638
0.049657
0.0585475
0.066208
0.0746232
0.0828863
0.0918837
0.100115
0.108586
0.113298
0.117492
0.0494601
0.0582353
0.0659254
0.0741449
0.0822007
0.0909143
0.098803
0.106959
0.1115
0.115475
0.0492505
0.057961
0.065671
0.0737633
0.0816577
0.0901032
0.097686
0.105534
0.109914
0.113707
0.0490245
0.0577118
0.0654339
0.0734313
0.081259
0.0894775
0.0968457
0.104381
0.108651
0.11225
0.0488002
0.0574854
0.0652298
0.0731649
0.0809445
0.0889964
0.0962684
0.10345
0.10774
0.111103
0.0486022
0.0572991
0.0650793
0.0729844
0.0807183
0.0886629
0.0958692
0.102784
0.107106
0.110253
0.0484539
0.057169
0.0649984
0.072902
0.0806061
0.088486
0.0956349
0.102388
0.106709
0.109702
0.0483476
0.0570836
0.0649834
0.0729136
0.0806166
0.0884706
0.0955828
0.102247
0.106551
0.109448
0.048254
0.0570164
0.0650194
0.0730073
0.0807447
0.0886177
0.0957284
0.102352
0.106647
0.109482
0.0481573
0.0569621
0.0651012
0.0731759
0.0809853
0.0889233
0.0960718
0.102696
0.106998
0.109798
0.0480424
0.0569253
0.0652258
0.0734156
0.0813381
0.0893849
0.0966136
0.103283
0.107607
0.110388
0.0478794
0.056902
0.065378
0.0737135
0.0817908
0.0899848
0.0973371
0.104093
0.108456
0.111246
0.0476313
0.0568882
0.0655447
0.0740637
0.0823427
0.0907279
0.0982557
0.105132
0.109553
0.112372
0.0472272
0.0568381
0.0656736
0.074414
0.0829347
0.0915499
0.0993091
0.106349
0.110857
0.113762
0.046704
0.0568107
0.0658198
0.0748181
0.0836257
0.0925123
0.100554
0.107783
0.112407
0.115422
0.0456461
0.0564055
0.0656351
0.0749231
0.0840502
0.0932599
0.101687
0.109228
0.114076
0.117345
0.0465083
0.0578761
0.0673708
0.077142
0.0869141
0.0966825
0.105818
0.113835
0.119213
0.122724
0.055338
0.0657523
0.0749479
0.085393
0.0960625
0.106948
0.117333
0.126368
0.132537
0.136053
0.0645765
0.0751498
0.085028
0.0966447
0.108546
0.121022
0.132995
0.143413
0.150496
0.154206
0.0735943
0.084895
0.0962402
0.109593
0.123379
0.138199
0.152372
0.164862
0.173531
0.177906
0.0823703
0.094889
0.108158
0.123581
0.139838
0.157663
0.174767
0.190393
0.201825
0.207826
0.0911625
0.105165
0.120694
0.138434
0.157714
0.179053
0.199946
0.22013
0.23638
0.246432
0.0994159
0.115169
0.13285
0.153101
0.175728
0.20076
0.226519
0.253172
0.277331
0.296419
0.107437
0.124674
0.144468
0.167323
0.193277
0.222286
0.254247
0.289612
0.326704
0.36492
0.111798
0.130215
0.151591
0.17639
0.205252
0.238618
0.277944
0.324941
0.383287
0.455698
0.115302
0.135747
0.158786
0.185729
0.217902
0.256517
0.304338
0.366311
0.454925
0.574937
0.0433705
0.051475
0.0591807
0.0673731
0.0751235
0.0834508
0.0903441
0.0980375
0.1019
0.103797
0.0425232
0.0506404
0.0582075
0.0659987
0.0733049
0.0813087
0.0876302
0.095095
0.0985021
0.100864
0.0422599
0.0505067
0.0580889
0.065624
0.0725979
0.0801663
0.0859989
0.0929838
0.0958333
0.0993777
0.0419576
0.0500529
0.0574511
0.0647714
0.071454
0.0786168
0.0840416
0.0905444
0.0929563
0.0971123
0.0416889
0.0493915
0.0564162
0.0635041
0.069821
0.0765572
0.0815838
0.0876501
0.0896971
0.093793
0.0415102
0.0487188
0.0553598
0.0620885
0.0680665
0.0743273
0.078946
0.0845867
0.0862907
0.0899768
0.0414105
0.0480731
0.0543564
0.0606599
0.0663443
0.0721408
0.0763895
0.0816069
0.0830042
0.0862349
0.0413866
0.0474516
0.0533632
0.0592629
0.0646307
0.0700017
0.0739934
0.078781
0.0799741
0.0828321
0.0414427
0.0468655
0.0523658
0.057883
0.0629213
0.0679003
0.0717098
0.0760489
0.0772215
0.079765
0.0415723
0.0463342
0.0513793
0.0565123
0.0612221
0.0658561
0.0694542
0.0734074
0.0746905
0.0769163
0.0357535
0.0370758
0.0377605
0.0383619
0.0388285
0.0391467
0.0393209
0.0393507
0.0392413
0.0388451
0.0354967
0.0369568
0.0376206
0.0381429
0.03848
0.0386267
0.0385971
0.0383984
0.0380561
0.0375282
0.0353155
0.0368613
0.0374815
0.0379043
0.0380963
0.0380638
0.0378348
0.0374314
0.0369052
0.0362586
0.035244
0.0368132
0.0373698
0.0376794
0.0377209
0.0375134
0.0370988
0.0365132
0.0358227
0.0350318
0.0353166
0.0368406
0.0373177
0.0375074
0.0374014
0.0370318
0.0364522
0.0357093
0.0348753
0.0339398
0.0355645
0.036973
0.0373592
0.0374278
0.0371829
0.0366683
0.0359463
0.0350708
0.0341127
0.0330466
0.0360132
0.0372389
0.0375261
0.0374753
0.0371018
0.0364592
0.0356155
0.0346291
0.0335645
0.0323897
0.0366801
0.0376621
0.0378435
0.0376748
0.0371814
0.0364248
0.0354766
0.0343966
0.033242
0.0319828
0.0375699
0.0382575
0.0383255
0.0380382
0.0374301
0.0365698
0.0355301
0.0343699
0.0331389
0.0318106
0.0386595
0.039021
0.0389701
0.0385618
0.0378413
0.0368841
0.0357624
0.0345338
0.0332391
0.0318576
0.0398915
0.0399264
0.0397593
0.0392273
0.0383967
0.0373473
0.0361511
0.0348625
0.0335169
0.0321028
0.0413022
0.0409811
0.0406768
0.0400123
0.0390688
0.0379303
0.0366657
0.0353257
0.0339417
0.0325102
0.0428277
0.0421374
0.0416838
0.0408798
0.039823
0.0385995
0.0372735
0.0358906
0.0344809
0.0330451
0.0444022
0.0433448
0.0427348
0.0417881
0.0406205
0.0393183
0.0379391
0.0365231
0.0351008
0.0336745
0.0459604
0.0445496
0.0437803
0.0426928
0.0414211
0.0400493
0.0386274
0.0371895
0.0357685
0.0343676
0.047434
0.0456942
0.0447702
0.0435503
0.0421858
0.0407571
0.039305
0.0378579
0.0364533
0.0350956
0.0487551
0.0467214
0.0456562
0.04432
0.0428794
0.0414099
0.0399427
0.0385001
0.0371255
0.0358266
0.0498604
0.0475784
0.0463953
0.0449671
0.0434727
0.0419819
0.0405171
0.039092
0.0377542
0.0365214
0.0506946
0.0482196
0.0469518
0.0454643
0.043944
0.042455
0.0410104
0.0396098
0.0382999
0.0371456
0.0512134
0.0486086
0.0472986
0.0457929
0.0442819
0.0428235
0.0414201
0.0400493
0.0387571
0.0377058
0.0513844
0.0487196
0.0474165
0.0459405
0.0444827
0.0430994
0.0417942
0.0405451
0.0394127
0.0386648
0.0511847
0.0485348
0.0472922
0.0458954
0.0445318
0.043255
0.042069
0.0409524
0.0399458
0.0392595
0.050609
0.0480511
0.0469224
0.0456523
0.0444202
0.0432762
0.0422244
0.041246
0.0403606
0.0397029
0.0496699
0.0472783
0.046314
0.0452159
0.0441512
0.043168
0.0422723
0.0414495
0.0407078
0.0401396
0.0483964
0.0462381
0.0454841
0.0445999
0.043737
0.042943
0.0422271
0.041579
0.041
0.0405611
0.0468308
0.044963
0.0444584
0.0438258
0.0431966
0.0426183
0.0421045
0.0416493
0.041249
0.0409588
0.0450262
0.0434936
0.0432695
0.0429204
0.0425529
0.042214
0.0419221
0.0416766
0.0414718
0.041348
0.0430424
0.041876
0.0419539
0.0419131
0.0418306
0.0417512
0.0416981
0.0416769
0.0416829
0.0417446
0.0409426
0.0401575
0.0405493
0.040834
0.0410541
0.0412498
0.041449
0.0416636
0.0418927
0.0421572
0.0388048
0.0383904
0.0390943
0.0397123
0.0402458
0.0407274
0.0411885
0.0416471
0.042108
0.0425892
0.0367329
0.0366406
0.0376334
0.038579
0.0394282
0.0402004
0.0409283
0.0416355
0.0423327
0.0430407
0.0346744
0.0349084
0.0361825
0.03745
0.0386139
0.0396776
0.0406738
0.0416304
0.0425641
0.0435049
0.0326926
0.033236
0.0347707
0.0363451
0.0378159
0.0391667
0.0404282
0.0416309
0.042795
0.0439665
0.0308356
0.0316614
0.0334227
0.0352806
0.0370436
0.0386717
0.0401909
0.0416319
0.0430143
0.044403
0.0291367
0.0302111
0.0321513
0.0342682
0.0363028
0.0381936
0.0399588
0.0416273
0.0432108
0.0447884
0.0276141
0.0288981
0.0309789
0.0333145
0.0355969
0.0377317
0.0397276
0.041611
0.0433796
0.0450975
0.0262795
0.027732
0.0299152
0.0324293
0.0349271
0.0372846
0.0394934
0.0415793
0.0435268
0.0453206
0.0251388
0.026721
0.0289653
0.0316149
0.0342946
0.0368503
0.0392557
0.0415253
0.0436277
0.0455419
0.0241925
0.025868
0.0281329
0.0308733
0.0336982
0.0364257
0.0390113
0.0414638
0.0437346
0.0457554
0.0234371
0.0251723
0.0274196
0.0302053
0.0331352
0.0360038
0.0387465
0.0413707
0.0438463
0.0460428
0.0228625
0.0246285
0.0268237
0.0296098
0.0326021
0.0355787
0.0384574
0.0412544
0.0440656
0.0468261
0.0224366
0.0242211
0.0263397
0.0290852
0.0320935
0.0351307
0.0380894
0.0409512
0.0437951
0.046556
0.0221669
0.0239505
0.0259681
0.0286332
0.0316109
0.034659
0.0376461
0.0405201
0.0433254
0.046018
0.022046
0.0238093
0.0257067
0.0282578
0.0311646
0.0341853
0.0371727
0.0400567
0.0428597
0.0455266
0.0220593
0.0237868
0.0255516
0.0279629
0.0307668
0.0337306
0.0366982
0.0395868
0.0424003
0.0450683
0.0221917
0.0238712
0.0254975
0.027751
0.030426
0.0333076
0.0362355
0.0391146
0.0419311
0.0446097
0.0224285
0.0240509
0.0255379
0.027622
0.030148
0.0329253
0.0357947
0.03865
0.0414602
0.04415
0.0227552
0.0243133
0.0256645
0.0275741
0.0299367
0.0325912
0.0353853
0.0382045
0.0410003
0.0436988
0.0231577
0.0246458
0.0258677
0.0276031
0.0297933
0.0323109
0.0350151
0.0377866
0.0405608
0.0432659
0.0236296
0.0250408
0.0261402
0.0277046
0.0297178
0.0320873
0.0346888
0.0374018
0.0401478
0.0428584
0.024175
0.0255029
0.0264854
0.0278826
0.0297153
0.0319268
0.0344128
0.037056
0.039766
0.0424804
0.024742
0.0259907
0.0268705
0.0281135
0.0297716
0.0318224
0.0341846
0.0367484
0.0394139
0.042126
0.0253322
0.0265045
0.0272924
0.0283932
0.0298835
0.0317723
0.0340031
0.0364774
0.0390875
0.0417849
0.0259433
0.0270405
0.0277457
0.0287158
0.030046
0.0317732
0.0338659
0.03624
0.0387822
0.0414488
0.0265691
0.0275921
0.0282228
0.0290739
0.0302533
0.0318213
0.033771
0.0360345
0.0384941
0.0411097
0.0272044
0.0281537
0.0287172
0.0294608
0.0304997
0.0319133
0.0337169
0.0358602
0.0382207
0.0407581
0.0278452
0.0287213
0.0292241
0.0298711
0.0307806
0.0320462
0.0337032
0.0357188
0.0379638
0.040388
0.0284892
0.0292921
0.0297396
0.0303003
0.031092
0.0322179
0.0337305
0.0356154
0.0377329
0.0400016
0.0291347
0.0298642
0.0302612
0.0307452
0.0314308
0.0324268
0.0338003
0.0355583
0.0375553
0.0396404
0.0297809
0.0304363
0.0307873
0.0312036
0.0317947
0.0326715
0.0339108
0.0355435
0.0374525
0.0393784
0.030428
0.0310079
0.0313164
0.0316732
0.0321813
0.032952
0.0340709
0.035606
0.0376094
0.0398844
0.0310771
0.0315774
0.031847
0.0321528
0.0325886
0.0332607
0.0342533
0.035629
0.0374571
0.0395781
0.0317273
0.0321456
0.0323802
0.032643
0.0330163
0.0335964
0.0344615
0.035664
0.0372619
0.039151
0.0323772
0.0327117
0.0329158
0.0331442
0.0334666
0.0339675
0.0347183
0.0357701
0.0371758
0.0388531
0.0330237
0.033274
0.033453
0.0336566
0.0339415
0.034379
0.0350332
0.0359541
0.0371907
0.0386779
0.0336619
0.0338294
0.0339902
0.0341796
0.0344411
0.0348323
0.0354077
0.0362136
0.0372939
0.038607
0.0342841
0.0343733
0.0345243
0.0347114
0.0349646
0.0353268
0.0358421
0.0365502
0.0374883
0.03864
0.0348796
0.0348998
0.0350507
0.0352484
0.0355086
0.0358599
0.0363345
0.0369638
0.0377764
0.038779
0.0354353
0.0354005
0.0355622
0.035784
0.0360671
0.0364255
0.0368791
0.0374496
0.0381553
0.0390212
0.0359347
0.0358657
0.0360505
0.03631
0.036631
0.0370138
0.0374656
0.0379977
0.038617
0.0393584
)
;

boundaryField
{
    inlet
    {
        type            zeroGradient;
    }
    outlet
    {
        type            fixedValue;
        value           uniform 0;
    }
    cylinder
    {
        type            zeroGradient;
    }
    top
    {
        type            symmetryPlane;
    }
    bottom
    {
        type            symmetryPlane;
    }
    defaultFaces
    {
        type            empty;
    }
}


// ************************************************************************* //
