/*--------------------------------*- C++ -*----------------------------------*\
  =========                 |
  \\      /  F ield         | OpenFOAM: The Open Source CFD Toolbox
   \\    /   O peration     | Website:  https://openfoam.org
    \\  /    A nd           | Version:  7
     \\/     M anipulation  |
\*---------------------------------------------------------------------------*/
FoamFile
{
    version     2.0;
    format      ascii;
    class       volVectorField;
    location    "51.9";
    object      U;
}
// * * * * * * * * * * * * * * * * * * * * * * * * * * * * * * * * * * * * * //

dimensions      [0 1 -1 0 0 0 0];

internalField   nonuniform List<vector> 
2000
(
(-0.00112925 -0.00564403 -8.82766e-22)
(-0.00307591 -0.00773133 0)
(-0.00423222 -0.00479935 0)
(-0.00359177 0.00172257 -4.36124e-21)
(-0.00121191 0.0112431 1.36918e-21)
(0.00277254 0.0235031 2.98821e-23)
(0.00815909 0.0383123 -2.36255e-21)
(0.0146632 0.0554103 0)
(0.0218451 0.0743947 0)
(0.0292211 0.0946591 0)
(-0.00094731 -0.004605 0)
(-0.00290319 -0.0067909 -3.3929e-21)
(-0.00435807 -0.00472114 3.12896e-21)
(-0.00429359 0.000538415 5.81175e-21)
(-0.00274942 0.00853013 0)
(0.000183302 0.0190848 5.16103e-21)
(0.00437681 0.0321181 -4.79929e-21)
(0.00964201 0.0475114 0)
(0.01562 0.0650423 8.7272e-21)
(0.0218211 0.0843452 -1.6838e-20)
(-0.000836688 -0.00351191 0)
(-0.00251283 -0.00578574 2.7348e-20)
(-0.00377829 -0.00451309 0)
(-0.00378736 -0.000427136 2.37657e-20)
(-0.0026105 0.00611661 0)
(-0.000333179 0.0149943 -2.09297e-20)
(0.00296258 0.026186 0)
(0.00716901 0.0396911 1.86673e-20)
(0.0120292 0.0554764 -1.74826e-20)
(0.017018 0.0734663 -1.71335e-20)
(-0.000758045 -0.00247152 -7.2092e-21)
(-0.001795 -0.00484872 -1.36056e-20)
(-0.00231639 -0.0042513 -6.35598e-21)
(-0.0018271 -0.00115391 -1.17399e-20)
(-0.000468262 0.00415464 -1.11078e-20)
(0.00164516 0.0115471 1.03234e-20)
(0.00444581 0.0210153 9.8621e-21)
(0.00788346 0.0326288 -1.251e-23)
(0.0118212 0.0465251 1.77209e-20)
(0.0156886 0.0629312 1.71321e-20)
(-0.000643545 -0.00159573 -7.20692e-21)
(-0.000612205 -0.00411631 -1.38518e-20)
(0.000206567 -0.00402366 -2.59256e-20)
(0.00180092 -0.00164353 1.19345e-20)
(0.00393766 0.00275669 0)
(0.00644469 0.00901163 0)
(0.00924357 0.0170705 -2.02242e-20)
(0.012312 0.0270075 -1.91158e-20)
(0.0156438 0.0390802 1.81039e-20)
(0.0186652 0.0537761 5.23843e-20)
(-0.000399841 -0.000984571 7.2273e-21)
(0.00118925 -0.00370756 7.02715e-21)
(0.00395065 -0.00391179 -3.87171e-20)
(0.00724603 -0.00192933 6.06117e-20)
(0.0107415 0.00196577 -1.12596e-20)
(0.0142044 0.00754494 0)
(0.0175275 0.0146718 0)
(0.0206911 0.0233585 9.59905e-20)
(0.0238159 0.0339046 -9.07175e-20)
(0.0264323 0.046965 1.73689e-20)
(8.76653e-05 -0.000713793 5.7109e-20)
(0.00376921 -0.00370188 0)
(0.00903453 -0.0039798 5.16579e-20)
(0.0145577 -0.00206481 -4.8422e-20)
(0.0199079 0.00174846 0)
(0.0248014 0.00714947 2.16484e-20)
(0.0291068 0.0138992 -6.0693e-20)
(0.0327956 0.0218983 -7.70143e-20)
(0.0360925 0.0313982 3.62053e-20)
(0.0387864 0.0431085 3.5074e-20)
(0.000942576 -0.000814909 -1.13821e-19)
(0.00727871 -0.00412579 -1.39075e-20)
(0.0155228 -0.00425816 -2.58329e-20)
(0.0236672 -0.00209959 -6.05429e-20)
(0.0312042 0.00200691 -2.29952e-20)
(0.037821 0.00767027 -2.15817e-20)
(0.0433827 0.0145579 1.33348e-22)
(0.0478585 0.0224446 0)
(0.0515449 0.0314567 0)
(0.054646 0.0422532 2.83024e-23)
(0.00228058 -0.00127173 5.67134e-20)
(0.011836 -0.00493858 -5.49892e-20)
(0.0234062 -0.00471999 3.8673e-20)
(0.0343775 -0.00206532 8.49754e-20)
(0.0442048 0.00260439 -2.25787e-20)
(0.0525874 0.00882674 2.17731e-20)
(0.0594205 0.01621 2.03982e-20)
(0.0646819 0.0244455 0)
(0.0686788 0.0335331 0)
(0.0721104 0.0439921 -4.29712e-22)
(0.00420227 -0.00202389 -7.00348e-21)
(0.0175033 -0.00602416 6.88493e-20)
(0.0325781 -0.00527821 -1.2773e-20)
(0.0463517 -0.00196394 0)
(0.0583078 0.00338735 0)
(0.0682303 0.0102504 4.26578e-20)
(0.0761173 0.0182196 0)
(0.082021 0.0270032 -3.75995e-20)
(0.0861771 0.0366148 -2.46313e-22)
(0.0893475 0.0474463 3.37458e-20)
(0.0476432 0.141308 6.72027e-22)
(0.0690041 0.218911 -6.80195e-22)
(0.072396 0.279442 -7.82281e-22)
(0.0680419 0.335175 -8.60879e-22)
(0.0579635 0.394897 -9.83756e-22)
(0.0504187 0.46324 -1.94375e-23)
(0.0352532 0.542704 5.13119e-22)
(0.0304884 0.636019 1.70728e-21)
(0.00661085 0.75565 0)
(0.00980917 0.893372 -1.21794e-21)
(0.037755 0.130668 2.50129e-21)
(0.0622718 0.212318 -2.95794e-21)
(0.0684825 0.277771 5.30594e-21)
(0.0654163 0.335879 8.62375e-22)
(0.0559604 0.396548 1.82213e-21)
(0.0487783 0.465354 2.977e-21)
(0.0341144 0.545225 -1.07337e-21)
(0.0294962 0.638976 -1.14068e-21)
(0.0064921 0.758576 2.26741e-21)
(0.00933247 0.895317 1.21504e-21)
(0.0293071 0.118762 0)
(0.0557462 0.203292 -2.82626e-21)
(0.0649453 0.274356 -1.54641e-21)
(0.0632245 0.335347 0)
(0.054332 0.397171 -5.54872e-21)
(0.0474567 0.466549 1.78335e-21)
(0.0331952 0.546926 1.92576e-21)
(0.0286632 0.641257 6.3708e-21)
(0.00645124 0.761165 -2.26008e-21)
(0.00890767 0.897126 4.51491e-21)
(0.0233125 0.106359 0)
(0.0494959 0.191846 2.85025e-21)
(0.0617574 0.269081 0)
(0.0614366 0.333499 6.76304e-21)
(0.0530681 0.396709 -6.79783e-21)
(0.0464481 0.466716 -3.84748e-21)
(0.0324998 0.547565 -1.51304e-22)
(0.028005 0.642459 -6.24975e-21)
(0.00648962 0.762846 -1.03659e-21)
(0.00850772 0.898486 -5.57312e-21)
(0.0210805 0.0944069 4.3755e-22)
(0.0437677 0.178281 -8.11931e-21)
(0.0588889 0.261838 3.26619e-22)
(0.0600109 0.33028 -6.22431e-21)
(0.0521479 0.39528 0)
(0.0457161 0.466134 -3.73548e-21)
(0.0319814 0.547644 -1.77606e-22)
(0.0274798 0.643336 8.02802e-21)
(0.0065776 0.764449 1.04067e-21)
(0.00815416 0.899855 -1.04438e-21)
(0.0238272 0.0839073 -2.20415e-20)
(0.039093 0.163318 1.41411e-20)
(0.0563256 0.252565 6.151e-21)
(0.0589188 0.325533 -6.14771e-21)
(0.0515672 0.392611 -3.30395e-21)
(0.0452872 0.464317 0)
(0.0316854 0.546362 -7.44069e-21)
(0.0271212 0.642734 3.69683e-21)
(0.00673526 0.764729 3.91584e-21)
(0.00780656 0.900625 3.98705e-21)
(0.0320864 0.0757273 -2.72168e-21)
(0.0363428 0.14807 0)
(0.0540884 0.241297 0)
(0.0581111 0.31945 0)
(0.0512884 0.389334 -3.42515e-21)
(0.0450753 0.462345 6.71868e-21)
(0.0315094 0.545292 7.31162e-21)
(0.0268432 0.64266 -1.11416e-20)
(0.00690253 0.765661 1.92024e-21)
(0.00751557 0.901708 -5.85053e-21)
(0.0452701 0.0702693 1.68349e-20)
(0.0365898 0.133855 1.1954e-20)
(0.0523535 0.228185 -1.18468e-20)
(0.0575989 0.311253 1.26486e-20)
(0.0513226 0.383954 -1.57051e-20)
(0.0452152 0.458139 0)
(0.0316045 0.541698 -3.41708e-21)
(0.0267561 0.639904 1.12093e-22)
(0.00716094 0.764331 -3.58401e-21)
(0.00720369 0.901884 -3.64742e-21)
(0.0616114 0.0669338 -1.43323e-20)
(0.0407396 0.121202 0)
(0.0512925 0.21429 -1.36864e-20)
(0.0573476 0.303244 2.45486e-20)
(0.0515789 0.379965 -9.14792e-21)
(0.0453939 0.456075 -1.61228e-21)
(0.0316878 0.540728 3.40988e-21)
(0.0266512 0.639933 2.14053e-23)
(0.00735124 0.765274 5.23429e-21)
(0.00697298 0.902921 5.33533e-21)
(0.0782819 0.0652663 -1.19596e-20)
(0.0494037 0.109307 1.17016e-20)
(0.0518534 0.195889 1.50477e-21)
(0.0573442 0.288249 0)
(0.0522047 0.368986 0)
(0.0462477 0.447308 1.5538e-21)
(0.0322496 0.533117 6.31797e-21)
(0.0268699 0.633862 -6.13359e-21)
(0.00773511 0.761718 -1.5694e-21)
(0.00667733 0.902445 1.5214e-21)
(0.102196 0.0771717 0)
(0.0703392 0.110885 0)
(0.0589002 0.185183 0)
(0.0602583 0.282946 0)
(0.0535509 0.370635 0)
(0.0465029 0.452416 0)
(0.0326345 0.538955 0)
(0.0266722 0.639804 0)
(0.00800132 0.766791 0)
(0.0062969 0.905666 0)
(0.114827 0.102361 0)
(0.0928435 0.142031 0)
(0.0721559 0.199624 0)
(0.0661114 0.288367 0)
(0.0574169 0.378114 0)
(0.0473168 0.461617 0)
(0.0317759 0.549172 0)
(0.0247474 0.652032 0)
(0.0075982 0.778874 0)
(0.00566004 0.913391 0)
(0.114504 0.111313 0)
(0.102757 0.162331 0)
(0.0826089 0.217592 0)
(0.070987 0.299902 0)
(0.0607937 0.390131 0)
(0.0505882 0.47487 0)
(0.0349475 0.561119 0)
(0.0260681 0.661705 0)
(0.0086761 0.787196 0)
(0.00554577 0.918723 0)
(0.106457 0.114455 0)
(0.10201 0.174842 0)
(0.0873253 0.233189 0)
(0.0745692 0.312865 0)
(0.0618785 0.402737 0)
(0.0491367 0.487853 0)
(0.0333366 0.574797 0)
(0.0247055 0.675938 0)
(0.00873743 0.800012 0)
(0.00522201 0.927049 0)
(0.0939656 0.114416 0)
(0.0938691 0.181793 0)
(0.0846737 0.244839 0)
(0.0744513 0.32466 0)
(0.0638197 0.41604 0)
(0.0520683 0.502283 0)
(0.0356334 0.587269 0)
(0.0253126 0.685811 0)
(0.00925047 0.808101 0)
(0.00507009 0.932221 0)
(0.0779003 0.11251 0)
(0.0810312 0.18465 0)
(0.0771264 0.253913 0)
(0.0691007 0.335993 0)
(0.0580918 0.427686 0)
(0.0468678 0.515286 0)
(0.0327511 0.601917 0)
(0.0236107 0.700923 0)
(0.00894023 0.82166 0)
(0.00466268 0.941526 0)
(0.0601958 0.108355 0)
(0.0651206 0.182053 0)
(0.0662669 0.256182 0)
(0.0643584 0.343173 0)
(0.0575098 0.438958 0)
(0.0471348 0.52767 0)
(0.0327133 0.612432 0)
(0.0231938 0.709216 0)
(0.00896374 0.828217 0)
(0.00448777 0.945745 0)
(0.0428043 0.103702 0)
(0.0483733 0.179452 0)
(0.0506158 0.257711 0)
(0.0498865 0.347281 0)
(0.045697 0.44513 0)
(0.0393962 0.5379 0)
(0.0286407 0.62605 0)
(0.0207164 0.724168 0)
(0.00819358 0.842025 0)
(0.00398244 0.955378 0)
(0.0267454 0.0955733 0)
(0.0344491 0.171204 0)
(0.0416828 0.254359 0)
(0.0456916 0.350415 0)
(0.0436117 0.452257 0)
(0.0376254 0.545185 0)
(0.0274444 0.632052 0)
(0.0199981 0.728761 0)
(0.00798328 0.845615 0)
(0.00382738 0.957579 0)
(0.00920072 0.0893605 0)
(0.0128249 0.162525 0)
(0.0191856 0.244138 0)
(0.0264176 0.342552 0)
(0.0303464 0.451008 0)
(0.0295796 0.55199 0)
(0.0230464 0.644083 0)
(0.0173778 0.743216 0)
(0.00722665 0.859361 0)
(0.00333099 0.967132 0)
(0.12181 0.0614216 9.58644e-21)
(0.125542 0.0713186 -9.44164e-21)
(0.120488 0.0725875 7.87313e-22)
(0.1097 0.0712386 0)
(0.0949794 0.0680749 0)
(0.0768149 0.0645803 1.38403e-22)
(0.0573291 0.0600935 1.05191e-22)
(0.0386426 0.055434 -1.03544e-22)
(0.0221992 0.0489111 -6.9313e-23)
(0.00696579 0.0435301 6.82744e-23)
(0.12599 0.0544265 -1.2634e-20)
(0.124187 0.0588365 0)
(0.117076 0.0567942 4.27425e-21)
(0.105563 0.0534527 -8.22582e-21)
(0.0908786 0.048843 3.79029e-21)
(0.0731537 0.0445026 -1.36123e-22)
(0.0543253 0.039658 -2.40482e-25)
(0.036232 0.0349248 -2.80058e-22)
(0.0203422 0.0289584 -8.15164e-23)
(0.0061281 0.0237006 -3.61011e-23)
(0.127554 0.046272 1.40922e-20)
(0.122606 0.0461508 -6.41754e-21)
(0.114471 0.0414237 6.35525e-21)
(0.102396 0.0362205 -2.99428e-21)
(0.0875866 0.0300487 2.39394e-21)
(0.0700504 0.0246484 0)
(0.0516536 0.019164 2.4103e-25)
(0.0340425 0.0141959 1.82663e-24)
(0.0186757 0.00865279 1.62793e-22)
(0.00541601 0.00349093 1.04446e-22)
(0.127401 0.0361816 -2.13906e-21)
(0.12007 0.0321988 0)
(0.111338 0.025292 0)
(0.0989779 0.0185711 0)
(0.0842788 0.0110566 1.22393e-21)
(0.0670892 0.00474821 -7.18244e-22)
(0.0491901 -0.00136463 6.13579e-23)
(0.0320634 -0.00659541 1.86321e-22)
(0.0171668 -0.0118733 6.29717e-23)
(0.00458215 -0.0169007 3.12511e-23)
(0.125696 0.0244228 -1.41419e-21)
(0.116704 0.0172491 -5.58053e-21)
(0.107708 0.00848538 -2.0566e-21)
(0.0952369 0.000516377 2.05498e-21)
(0.0807841 -0.00815079 -4.99714e-22)
(0.0640547 -0.0151933 0)
(0.046736 -0.0218574 8.60269e-24)
(0.0301678 -0.0273284 -2.56787e-22)
(0.0157666 -0.0324738 1.31601e-22)
(0.00397761 -0.0372729 -9.50747e-23)
(0.122748 0.0113858 -1.49784e-20)
(0.112713 0.00168304 2.57403e-21)
(0.103709 -0.00872945 7.40004e-22)
(0.0912785 -0.0177231 1.97698e-21)
(0.0771816 -0.0273974 0)
(0.060982 -0.0350321 0)
(0.0442781 -0.0421775 0)
(0.0283182 -0.0478617 -9.78418e-23)
(0.0144392 -0.0529417 0)
(0.00340308 -0.0574292 0)
(0.118776 -0.0025515 0)
(0.108215 -0.0141423 4.09545e-21)
(0.0994142 -0.0260704 -2.63087e-21)
(0.0871378 -0.0358874 -1.25731e-21)
(0.0734997 -0.0464549 1.26371e-21)
(0.0578857 -0.054576 1.13333e-22)
(0.041824 -0.0621488 -1.78321e-22)
(0.0264958 -0.0680163 2.62184e-22)
(0.0131623 -0.0730442 -2.79531e-23)
(0.00287223 -0.077137 4.10725e-23)
(0.113958 -0.0170521 0)
(0.10331 -0.0299115 -1.46527e-21)
(0.0948583 -0.0432633 -5.5944e-22)
(0.0828415 -0.0537151 0)
(0.0697492 -0.0650869 1.07004e-22)
(0.0547675 -0.073615 -4.71893e-22)
(0.0393649 -0.0815664 2.27514e-23)
(0.024688 -0.0875808 -7.15898e-23)
(0.0119283 -0.0925267 4.30648e-23)
(0.00239523 -0.0961472 -6.45545e-23)
(0.108399 -0.0318257 1.91369e-21)
(0.0980727 -0.0453458 1.27253e-21)
(0.0900613 -0.0600559 -4.45748e-22)
(0.0784187 -0.0709741 1.99095e-22)
(0.0659355 -0.0830632 2.44055e-22)
(0.0516274 -0.091937 1.8319e-22)
(0.0368958 -0.10021 -2.03242e-23)
(0.0228939 -0.106324 7.07604e-24)
(0.0107413 -0.111126 -4.32056e-23)
(0.00197196 -0.114219 -1.01391e-23)
(0.102221 -0.0465837 -3.96775e-22)
(0.0925558 -0.0602271 4.00526e-22)
(0.0850737 -0.0762263 -2.79526e-22)
(0.0739017 -0.087462 -1.98786e-22)
(0.0620682 -0.100173 9.91043e-23)
(0.0484739 -0.109342 -1.65324e-22)
(0.0344239 -0.11786 2.54492e-23)
(0.0211256 -0.124017 -1.22475e-23)
(0.00961304 -0.128598 0)
(0.00160283 -0.131141 1.01584e-23)
(0.0956812 -0.0610759 4.01129e-22)
(0.0868883 -0.0743978 -4.04613e-22)
(0.0799953 -0.0915939 -2.89388e-22)
(0.0693753 -0.103021 -2.10815e-22)
(0.0581938 -0.116233 -1.06865e-22)
(0.0453423 -0.125658 2.62334e-23)
(0.0319746 -0.134318 2.77145e-23)
(0.0194061 -0.14046 1.68062e-23)
(0.00855832 -0.14474 0)
(0.00128743 -0.146753 4.23867e-24)
(0.089071 -0.0751393 0)
(0.0812594 -0.0877561 -1.32179e-21)
(0.0749614 -0.106012 2.21753e-21)
(0.0649542 -0.117539 2.11119e-22)
(0.0543827 -0.131096 3.01527e-22)
(0.0422849 -0.140748 2.63524e-22)
(0.0295862 -0.149425 -3.6721e-23)
(0.0177629 -0.155505 -7.69482e-24)
(0.00759081 -0.159418 9.18466e-25)
(0.00102286 -0.160957 -4.22778e-24)
(0.0825779 -0.0886691 0)
(0.0757921 -0.100263 -1.53386e-21)
(0.0700485 -0.119369 -5.97404e-22)
(0.0607097 -0.130956 0)
(0.0506863 -0.144656 -8.03562e-22)
(0.0393439 -0.154528 3.23101e-22)
(0.027297 -0.163083 1.50083e-22)
(0.0162217 -0.169075 1.63539e-22)
(0.00672078 -0.172575 -9.15469e-25)
(0.000804256 -0.173724 4.48014e-24)
(0.0763156 -0.101594 0)
(0.0705565 -0.111958 1.54651e-21)
(0.0652907 -0.131597 0)
(0.0566768 -0.143278 1.60131e-21)
(0.0471396 -0.156872 -1.60966e-21)
(0.0365479 -0.166979 -3.30192e-22)
(0.0251398 -0.175269 1.12661e-22)
(0.0148009 -0.18117 -1.82096e-22)
(0.00595381 -0.184232 -3.0656e-23)
(0.00062563 -0.185093 -1.00466e-23)
(0.0703772 -0.113863 1.58008e-20)
(0.0656239 -0.122954 -5.9344e-21)
(0.0607296 -0.142673 -6.387e-22)
(0.0528873 -0.154571 -2.30144e-21)
(0.0437811 -0.167768 0)
(0.0339203 -0.178144 -3.70032e-22)
(0.0231412 -0.186035 1.63823e-22)
(0.0135107 -0.191862 3.32209e-22)
(0.00529064 -0.194481 9.40856e-24)
(0.000480113 -0.19516 -9.38836e-24)
(0.0648268 -0.125423 1.38698e-21)
(0.0610728 -0.133441 9.18215e-21)
(0.0564282 -0.152622 2.41124e-21)
(0.0493759 -0.164947 -2.40987e-21)
(0.0406574 -0.177431 -7.78585e-22)
(0.0314815 -0.188122 0)
(0.0213224 -0.195496 -5.71142e-22)
(0.0123544 -0.201283 3.02207e-22)
(0.00472813 -0.203466 1.23606e-22)
(0.000360554 -0.204062 3.04719e-23)
(0.0597549 -0.13618 -2.20775e-21)
(0.0570365 -0.143661 0)
(0.0525039 -0.161515 0)
(0.0461968 -0.174544 0)
(0.0378318 -0.186003 -5.76233e-22)
(0.0292559 -0.197049 1.35348e-21)
(0.019701 -0.203814 6.03373e-22)
(0.0113313 -0.209598 -6.70055e-22)
(0.00426095 -0.211365 3.27218e-23)
(0.000259831 -0.211968 -6.25197e-23)
(0.0551808 -0.14597 -5.1647e-21)
(0.0535548 -0.153873 6.75747e-21)
(0.0490007 -0.169464 -6.69416e-21)
(0.0433335 -0.183498 4.05191e-21)
(0.0353219 -0.193666 -4.89705e-21)
(0.0272383 -0.205082 0)
(0.0182747 -0.211177 -4.01675e-22)
(0.0104316 -0.216991 -2.87226e-23)
(0.00387984 -0.218373 -1.24359e-22)
(0.000169686 -0.219059 -4.3826e-23)
(0.0503313 -0.154447 -2.40044e-21)
(0.0499297 -0.164286 0)
(0.0454888 -0.17664 -6.50809e-21)
(0.040416 -0.191944 9.93381e-21)
(0.0329082 -0.200638 -3.37175e-21)
(0.0252815 -0.212398 -3.31114e-22)
(0.0169617 -0.217786 4.00763e-22)
(0.00960945 -0.223648 4.54054e-23)
(0.00356031 -0.22468 2.69349e-22)
(8.24554e-05 -0.225521 8.72827e-23)
(0.0454487 -0.16086 -9.76819e-21)
(0.0460892 -0.175079 9.52868e-21)
(0.0421743 -0.18336 8.55732e-22)
(0.037507 -0.200065 0)
(0.0306193 -0.207204 0)
(0.0234009 -0.219227 3.41706e-22)
(0.0157486 -0.223874 7.5665e-22)
(0.00885242 -0.229763 -7.42054e-22)
(0.00328306 -0.23047 -5.15307e-23)
(2.11732e-05 -0.231535 5.03312e-23)
(0.0491039 -0.169141 0)
(0.0467873 -0.20037 0)
(0.0423207 -0.198654 0)
(0.0362351 -0.218746 0)
(0.0290915 -0.222503 0)
(0.0213945 -0.235033 0)
(0.0142099 -0.237858 0)
(0.00772287 -0.243661 0)
(0.00292167 -0.243519 0)
(5.41254e-05 -0.245097 0)
(0.0359272 -0.211945 0)
(0.0301982 -0.241327 0)
(0.0282416 -0.234962 0)
(0.0229521 -0.252836 0)
(0.0190074 -0.252349 0)
(0.0137034 -0.263059 0)
(0.00940999 -0.262886 0)
(0.00511583 -0.267789 0)
(0.00212594 -0.266222 0)
(0.000117464 -0.268075 0)
(0.0328248 -0.254434 0)
(0.0260317 -0.282604 0)
(0.0233324 -0.272373 0)
(0.0178625 -0.289436 0)
(0.0146064 -0.285415 0)
(0.0100934 -0.295471 0)
(0.00707885 -0.292855 0)
(0.00381191 -0.297573 0)
(0.00177598 -0.294774 0)
(0.000120024 -0.297061 0)
(0.0282299 -0.302287 0)
(0.0212962 -0.32997 0)
(0.0189363 -0.31644 0)
(0.0138368 -0.333427 0)
(0.0114788 -0.326359 0)
(0.00766127 -0.33655 0)
(0.00565188 -0.33185 0)
(0.00303666 -0.336946 0)
(0.00162666 -0.332939 0)
(0.00010912 -0.33588 0)
(0.0244756 -0.359151 0)
(0.0180499 -0.386526 0)
(0.0156319 -0.370983 0)
(0.011061 -0.388283 0)
(0.00924919 -0.379082 0)
(0.00600226 -0.389886 0)
(0.00466116 -0.383579 0)
(0.00244786 -0.389407 0)
(0.00147569 -0.384346 0)
(6.11414e-05 -0.388177 0)
(0.0211318 -0.427056 0)
(0.0151896 -0.452584 0)
(0.0129238 -0.43757 0)
(0.00885518 -0.454446 0)
(0.00745635 -0.444794 0)
(0.00463176 -0.455831 0)
(0.00370809 -0.448879 0)
(0.00174959 -0.455283 0)
(0.00113616 -0.449714 0)
(-6.50816e-05 -0.454339 0)
(0.01699 -0.50153 0)
(0.0121053 -0.522452 0)
(0.0101542 -0.511308 0)
(0.00681867 -0.525812 0)
(0.00564786 -0.517969 0)
(0.00327056 -0.527789 0)
(0.002529 -0.521666 0)
(0.000858381 -0.527667 0)
(0.00055639 -0.522604 0)
(-0.000220657 -0.527328 0)
(0.0128631 -0.570164 0)
(0.00905615 -0.585149 0)
(0.00739182 -0.579504 0)
(0.00471284 -0.589737 0)
(0.00378644 -0.585196 0)
(0.00187445 -0.592146 0)
(0.00130369 -0.588063 0)
(-8.4418e-06 -0.592321 0)
(2.5392e-07 -0.588712 0)
(-0.000312481 -0.592311 0)
(0.00776431 -0.620592 0)
(0.00522543 -0.628767 0)
(0.00428407 -0.62852 0)
(0.00263154 -0.634309 0)
(0.00210813 -0.63333 0)
(0.000853177 -0.63687 0)
(0.000487718 -0.6351 0)
(-0.000356552 -0.637007 0)
(-0.000214574 -0.63513 0)
(-0.000260333 -0.636892 0)
(0.00223487 -0.645316 0)
(0.00141626 -0.651495 0)
(0.00126652 -0.653847 0)
(0.000822337 -0.657296 0)
(0.000676403 -0.657837 0)
(0.000262801 -0.659565 0)
(0.000118411 -0.658929 0)
(-0.000162163 -0.659601 0)
(-0.000105652 -0.658664 0)
(-9.15142e-05 -0.659386 0)
(0.0445459 -0.181797 1.14586e-20)
(0.0357531 -0.225329 -1.12451e-20)
(0.0343143 -0.269253 1.41443e-21)
(0.0300239 -0.318757 0)
(0.0268318 -0.376078 0)
(0.0233901 -0.442319 1.51848e-21)
(0.0192684 -0.512493 -6.37931e-21)
(0.014438 -0.574779 6.3129e-21)
(0.00902407 -0.620506 1.68163e-21)
(0.0030433 -0.64211 -1.65694e-21)
(0.0433673 -0.188307 -1.36352e-20)
(0.0361942 -0.23109 0)
(0.0350771 -0.274694 9.35186e-21)
(0.0308931 -0.324224 -2.13178e-20)
(0.027902 -0.381358 1.34567e-20)
(0.0244004 -0.446823 -1.38059e-21)
(0.0202684 -0.515362 3.00161e-21)
(0.015172 -0.575916 6.23923e-21)
(0.00959244 -0.619624 1.7135e-21)
(0.00337411 -0.640937 1.68488e-21)
(0.042694 -0.195105 1.59981e-20)
(0.0372271 -0.237613 -1.05921e-20)
(0.0362172 -0.280512 1.04917e-20)
(0.0321042 -0.329505 -1.11084e-20)
(0.02923 -0.386092 8.25079e-21)
(0.0255997 -0.450532 0)
(0.0213235 -0.517353 -3.00905e-21)
(0.0159674 -0.576386 1.40313e-22)
(0.0101023 -0.618234 -3.2371e-21)
(0.0035703 -0.639554 -3.30901e-21)
(0.0425511 -0.200807 -2.58248e-21)
(0.0386844 -0.243449 0)
(0.0377071 -0.285947 0)
(0.0336738 -0.334491 0)
(0.0308358 -0.390568 8.9344e-21)
(0.0270205 -0.453983 -5.95353e-21)
(0.0225007 -0.519141 -1.88133e-23)
(0.0168506 -0.576512 -3.46813e-21)
(0.0106019 -0.616794 -1.76827e-21)
(0.00368954 -0.6377 -1.87414e-21)
(0.0430786 -0.205763 -2.69587e-23)
(0.0405132 -0.248238 -7.75911e-21)
(0.0394863 -0.290429 -5.5508e-21)
(0.0355429 -0.33872 5.54737e-21)
(0.0326761 -0.394439 -2.94108e-21)
(0.0286441 -0.456973 0)
(0.0238394 -0.520651 -3.30074e-21)
(0.0178503 -0.576366 7.09413e-21)
(0.0111636 -0.615317 -3.6198e-21)
(0.00381446 -0.63549 3.68551e-21)
(0.0443503 -0.210226 -2.09177e-20)
(0.042759 -0.252172 2.4518e-21)
(0.0415728 -0.293909 -2.34695e-22)
(0.0376883 -0.341976 5.68368e-21)
(0.034723 -0.397402 0)
(0.0304481 -0.45918 0)
(0.0253423 -0.5216 0)
(0.0189776 -0.575845 3.78665e-21)
(0.0118254 -0.613663 0)
(0.00398813 -0.633076 0)
(0.0463705 -0.214054 0)
(0.0454545 -0.255311 8.2452e-21)
(0.0440193 -0.29647 -5.54134e-21)
(0.0401297 -0.344257 -6.1751e-21)
(0.0369872 -0.399373 6.20729e-21)
(0.0324351 -0.460464 3.52557e-21)
(0.0270049 -0.521815 -3.51773e-21)
(0.020231 -0.574844 -1.35165e-20)
(0.0125894 -0.611725 9.64052e-22)
(0.0042156 -0.630522 -3.23473e-21)
(0.0491342 -0.217026 0)
(0.0486013 -0.257549 -2.70992e-21)
(0.0468615 -0.298094 -1.47328e-21)
(0.0428923 -0.345579 0)
(0.0394969 -0.400367 1.73218e-21)
(0.0346271 -0.460824 -5.25637e-21)
(0.0288343 -0.521266 5.69079e-21)
(0.0216123 -0.573316 1.99899e-21)
(0.0134473 -0.609458 -2.17047e-21)
(0.00448898 -0.627817 4.29707e-21)
(0.0526463 -0.218991 2.61502e-21)
(0.0521954 -0.258776 2.87845e-21)
(0.0501155 -0.2987 -6.77462e-22)
(0.045988 -0.345914 8.11854e-22)
(0.0422756 -0.400389 1.68499e-21)
(0.0370474 -0.460299 2.75376e-21)
(0.0308443 -0.519992 -1.01286e-21)
(0.0231255 -0.571279 -1.0797e-21)
(0.0143904 -0.606868 2.17764e-21)
(0.00480022 -0.624935 1.17124e-21)
(0.0569128 -0.219841 -6.92331e-22)
(0.0562381 -0.258948 6.9805e-22)
(0.0537923 -0.298219 -7.5572e-22)
(0.0494193 -0.345224 -8.10849e-22)
(0.0453376 -0.399419 9.21349e-22)
(0.0397131 -0.458894 -1.87181e-21)
(0.0330527 -0.518012 1.54516e-21)
(0.0247844 -0.56874 5.44289e-22)
(0.0154241 -0.603958 0)
(0.00515025 -0.621848 -1.17383e-21)
(0.0619339 -0.219482 7.08596e-22)
(0.0607309 -0.258075 -7.14761e-22)
(0.0579029 -0.296612 -8.05378e-22)
(0.0531871 -0.343492 -8.68962e-22)
(0.0486948 -0.397441 -9.57174e-22)
(0.0426327 -0.456628 -5.24101e-23)
(0.035467 -0.51536 5.44203e-22)
(0.0265909 -0.565738 1.73103e-21)
(0.0165455 -0.60075 0)
(0.00553717 -0.618556 -1.27234e-21)
(0.0677032 -0.21788 0)
(0.0656681 -0.256185 -3.13842e-21)
(0.0624592 -0.293888 5.63742e-21)
(0.0572888 -0.340732 8.70476e-22)
(0.0523555 -0.394447 1.95465e-21)
(0.0458155 -0.453473 3.13453e-21)
(0.038106 -0.511995 -1.09765e-21)
(0.0285676 -0.562233 -1.17124e-21)
(0.0177738 -0.597219 2.56126e-21)
(0.00596939 -0.61504 1.26936e-21)
(0.0742097 -0.215096 0)
(0.0710397 -0.253295 -3.15067e-21)
(0.0674646 -0.290116 -1.6735e-21)
(0.061727 -0.336956 0)
(0.0563332 -0.390487 -6.09407e-21)
(0.0492621 -0.449486 2.04734e-21)
(0.0409607 -0.507999 2.34791e-21)
(0.030696 -0.558303 7.47395e-21)
(0.0190898 -0.593392 -2.55296e-21)
(0.00643638 -0.611309 5.47262e-21)
(0.0814394 -0.211267 0)
(0.0768362 -0.249388 3.17769e-21)
(0.0729156 -0.285417 0)
(0.0664976 -0.33224 7.92756e-21)
(0.0606275 -0.385562 -7.96819e-21)
(0.0529916 -0.444593 -4.64232e-21)
(0.0440624 -0.503252 -7.23004e-23)
(0.0330249 -0.553822 -7.66725e-21)
(0.0205369 -0.589183 -1.27873e-21)
(0.00695521 -0.607301 -6.80684e-21)
(0.0893759 -0.206564 2.44672e-20)
(0.083044 -0.244496 -9.27375e-21)
(0.0787753 -0.279908 6.08899e-22)
(0.0716359 -0.326557 -7.61744e-21)
(0.0652645 -0.379723 0)
(0.0569872 -0.438936 -4.8232e-21)
(0.0473697 -0.497957 -3.25985e-22)
(0.0354982 -0.548975 1.04028e-20)
(0.0220636 -0.584725 1.40836e-21)
(0.00749709 -0.603099 -1.41363e-21)
(0.097972 -0.201267 -1.36148e-21)
(0.0896756 -0.238474 1.67408e-20)
(0.0850515 -0.273506 7.9004e-21)
(0.0771573 -0.319796 -7.89508e-21)
(0.0702397 -0.372913 -4.53317e-21)
(0.0613009 -0.432301 0)
(0.0509697 -0.491784 -1.06317e-20)
(0.0382242 -0.543458 5.33021e-21)
(0.0237634 -0.579835 5.62764e-21)
(0.0081096 -0.598584 5.99197e-21)
(0.107192 -0.19548 -3.34648e-21)
(0.0967892 -0.231413 0)
(0.0916509 -0.26648 0)
(0.0830124 -0.312445 0)
(0.0754823 -0.365681 -5.08937e-21)
(0.0658306 -0.425417 9.60625e-21)
(0.0547021 -0.485515 1.08111e-20)
(0.0410093 -0.537891 -1.689e-20)
(0.0254734 -0.574852 2.99167e-21)
(0.00870375 -0.59395 -8.89895e-21)
(0.116834 -0.189059 -5.81714e-21)
(0.104407 -0.223335 1.57187e-20)
(0.0985708 -0.258507 -1.55689e-20)
(0.0892795 -0.303908 1.85151e-20)
(0.081142 -0.357023 -2.3207e-20)
(0.0708219 -0.416952 0)
(0.0589066 -0.477764 -5.63519e-21)
(0.0442273 -0.531215 -2.09387e-22)
(0.0274948 -0.569194 -6.19577e-21)
(0.00943472 -0.588835 -6.29412e-21)
(0.1266 -0.183018 -3.5664e-21)
(0.112293 -0.21564 0)
(0.105515 -0.25126 -1.99334e-20)
(0.0955953 -0.296388 3.67768e-20)
(0.0867731 -0.349721 -1.40667e-20)
(0.0756975 -0.410061 -2.70629e-21)
(0.0628955 -0.471469 5.62318e-21)
(0.0471848 -0.525493 -2.49199e-22)
(0.0292964 -0.563913 9.06344e-21)
(0.0100193 -0.583832 9.31397e-21)
(0.136972 -0.17432 -1.55021e-20)
(0.121772 -0.204389 1.51597e-20)
(0.113649 -0.240122 2.14821e-21)
(0.103111 -0.284528 0)
(0.0935737 -0.337701 0)
(0.081796 -0.398504 2.62601e-21)
(0.0681013 -0.461281 1.16896e-20)
(0.0512275 -0.517192 -1.14117e-20)
(0.0318736 -0.557254 -3.07773e-21)
(0.010973 -0.577885 3.02462e-21)
(0.148227 -0.175709 0)
(0.141991 -0.200277 0)
(0.12953 -0.237494 0)
(0.117437 -0.281005 0)
(0.106332 -0.333199 0)
(0.0926888 -0.392196 0)
(0.0768807 -0.452729 0)
(0.0576448 -0.506408 0)
(0.0357024 -0.545085 0)
(0.0119061 -0.565511 0)
(0.171402 -0.159318 0)
(0.177024 -0.188507 0)
(0.157135 -0.229029 0)
(0.145267 -0.271696 0)
(0.131363 -0.323128 0)
(0.114511 -0.379623 0)
(0.0949226 -0.436352 0)
(0.0712401 -0.485575 0)
(0.0444108 -0.520015 0)
(0.0156098 -0.536872 0)
(0.203605 -0.142852 0)
(0.214356 -0.172981 0)
(0.186799 -0.21299 0)
(0.176917 -0.25391 0)
(0.158669 -0.304054 0)
(0.138064 -0.357134 0)
(0.113815 -0.409981 0)
(0.0849092 -0.455922 0)
(0.0523495 -0.488994 0)
(0.0171269 -0.507083 0)
(0.244589 -0.131399 0)
(0.256939 -0.160182 0)
(0.222894 -0.198956 0)
(0.215952 -0.238656 0)
(0.19135 -0.287156 0)
(0.16699 -0.335631 0)
(0.137124 -0.38381 0)
(0.102111 -0.424455 0)
(0.0633585 -0.452297 0)
(0.0224732 -0.465012 0)
(0.293613 -0.116606 0)
(0.304214 -0.143028 0)
(0.265052 -0.179139 0)
(0.2591 -0.215724 0)
(0.224833 -0.259281 0)
(0.196374 -0.301094 0)
(0.158898 -0.344188 0)
(0.117154 -0.380514 0)
(0.0713231 -0.407522 0)
(0.0223858 -0.423998 0)
(0.353007 -0.107251 0)
(0.359479 -0.13077 0)
(0.316643 -0.164011 0)
(0.308398 -0.195896 0)
(0.263573 -0.233898 0)
(0.232628 -0.269932 0)
(0.186197 -0.308216 0)
(0.137275 -0.338068 0)
(0.0844543 -0.358927 0)
(0.0312434 -0.366077 0)
(0.416213 -0.0870869 0)
(0.414157 -0.105914 0)
(0.368497 -0.133665 0)
(0.353387 -0.158449 0)
(0.298742 -0.189594 0)
(0.264316 -0.218408 0)
(0.204028 -0.249049 0)
(0.148399 -0.272845 0)
(0.086946 -0.295723 0)
(0.0231806 -0.31582 0)
(0.484511 -0.0741571 0)
(0.472583 -0.0880594 0)
(0.427971 -0.110506 0)
(0.403081 -0.12875 0)
(0.344749 -0.154138 0)
(0.303602 -0.175694 0)
(0.232684 -0.200422 0)
(0.173419 -0.221153 0)
(0.104479 -0.241783 0)
(0.046779 -0.241375 0)
(0.534213 -0.0398731 0)
(0.513909 -0.0468093 0)
(0.462043 -0.0603714 0)
(0.426449 -0.0695493 0)
(0.359615 -0.0848217 0)
(0.306968 -0.0950828 0)
(0.222829 -0.109796 0)
(0.154261 -0.12162 0)
(0.0691933 -0.144414 0)
(-0.0168784 -0.191735 0)
(0.737374 -0.0200591 0)
(0.712198 -0.023679 0)
(0.667059 -0.0291756 0)
(0.626523 -0.0340657 0)
(0.565577 -0.0414215 0)
(0.507232 -0.0483354 0)
(0.425884 -0.0592062 0)
(0.342788 -0.0731372 0)
(0.231631 -0.101536 0)
(0.160433 -0.157345 0)
(0.176769 -0.154583 1.6497e-20)
(0.203156 -0.136407 -1.62481e-20)
(0.236468 -0.120926 2.43684e-21)
(0.276799 -0.110425 0)
(0.325092 -0.0975187 0)
(0.381819 -0.0893324 3.31332e-21)
(0.44287 -0.0718683 -1.52783e-20)
(0.506896 -0.0617155 1.51207e-20)
(0.561008 -0.0321717 4.24518e-21)
(0.758444 -0.0171252 -4.27155e-21)
(0.185271 -0.145671 -1.66753e-20)
(0.210838 -0.126892 0)
(0.244066 -0.11218 1.68156e-20)
(0.284439 -0.102137 -3.98802e-20)
(0.332855 -0.0899775 2.63005e-20)
(0.389385 -0.0822569 -3.04494e-21)
(0.450296 -0.065808 6.55495e-21)
(0.513703 -0.0567508 1.43954e-20)
(0.570401 -0.0290978 3.93607e-21)
(0.766251 -0.0158798 3.84105e-21)
(0.19268 -0.135621 1.94446e-20)
(0.217015 -0.116921 -1.68164e-20)
(0.24952 -0.103303 1.66576e-20)
(0.289578 -0.0938114 -2.09249e-20)
(0.337913 -0.0824895 1.52833e-20)
(0.394403 -0.0753459 0)
(0.455369 -0.0600095 -6.57101e-21)
(0.518783 -0.0521613 -7.25292e-23)
(0.578221 -0.0263556 -7.4534e-21)
(0.773144 -0.0147054 -7.7068e-21)
(0.20035 -0.124868 -3.28856e-21)
(0.224274 -0.106687 0)
(0.256048 -0.0942709 0)
(0.295661 -0.0853996 0)
(0.343743 -0.0750044 1.68356e-20)
(0.399978 -0.0685545 -1.13905e-20)
(0.460826 -0.0544287 -3.22934e-22)
(0.524065 -0.0478543 -7.33845e-21)
(0.58563 -0.0238961 -3.75279e-21)
(0.779682 -0.0136187 -3.80624e-21)
(0.207484 -0.113718 2.05735e-21)
(0.231452 -0.0963968 -1.02157e-20)
(0.262449 -0.0851876 -9.09829e-21)
(0.301938 -0.076997 9.09275e-21)
(0.349892 -0.0675766 -5.36975e-21)
(0.405948 -0.0618984 0)
(0.466675 -0.0490245 -6.49752e-21)
(0.529634 -0.0437197 1.42129e-20)
(0.592867 -0.0216168 -7.15945e-21)
(0.785942 -0.0126032 7.63225e-21)
(0.213802 -0.102255 -2.52457e-20)
(0.237689 -0.0860751 2.0939e-21)
(0.267862 -0.0760871 -1.01692e-21)
(0.307342 -0.0687156 8.97649e-21)
(0.355299 -0.0602821 0)
(0.411366 -0.0554353 0)
(0.472096 -0.0438079 0)
(0.534915 -0.0397278 6.88779e-21)
(0.59967 -0.0194651 0)
(0.791782 -0.0116404 0)
(0.219296 -0.0904716 0)
(0.242791 -0.0757086 1.14445e-20)
(0.272335 -0.0669652 -7.8367e-21)
(0.311685 -0.0605336 -9.90218e-21)
(0.359571 -0.0531347 9.95376e-21)
(0.415745 -0.0491789 6.0452e-21)
(0.476581 -0.0387923 -5.79657e-21)
(0.539459 -0.0358919 -2.38669e-20)
(0.605729 -0.0174307 1.69607e-21)
(0.797048 -0.0107276 -5.58022e-21)
(0.223887 -0.0783837 0)
(0.24684 -0.0652831 -3.61819e-21)
(0.275867 -0.0578269 -2.05775e-21)
(0.315031 -0.0524007 0)
(0.36276 -0.0460871 2.86351e-21)
(0.419075 -0.0431047 -8.36415e-21)
(0.479965 -0.0339527 9.56459e-21)
(0.543183 -0.0322063 3.56802e-21)
(0.610866 -0.01551 -3.55855e-21)
(0.801666 -0.00986109 7.46383e-21)