/*--------------------------------*- C++ -*----------------------------------*\
  =========                 |
  \\      /  F ield         | OpenFOAM: The Open Source CFD Toolbox
   \\    /   O peration     | Website:  https://openfoam.org
    \\  /    A nd           | Version:  7
     \\/     M anipulation  |
\*---------------------------------------------------------------------------*/
FoamFile
{
    version     2.0;
    format      ascii;
    class       volScalarField;
    location    "8.4";
    object      p;
}
// * * * * * * * * * * * * * * * * * * * * * * * * * * * * * * * * * * * * * //

dimensions      [0 2 -2 0 0 0 0];

internalField   nonuniform List<scalar> 
32000
(
0.261237
0.2619
0.26227
0.262631
0.262958
0.263264
0.263543
0.263801
0.264059
0.264338
0.264657
0.265027
0.265457
0.265958
0.266543
0.267225
0.268016
0.268927
0.269974
0.271168
0.272518
0.274027
0.275696
0.277522
0.279502
0.281631
0.283903
0.286308
0.288835
0.291472
0.294209
0.297034
0.299934
0.302894
0.3059
0.308938
0.311998
0.31507
0.318129
0.321112
0.261442
0.26208
0.262425
0.262754
0.26305
0.263326
0.263576
0.263806
0.264037
0.264288
0.264575
0.264911
0.265306
0.265771
0.266318
0.266959
0.267705
0.268567
0.26956
0.270696
0.271984
0.273427
0.275025
0.276775
0.278672
0.280716
0.2829
0.285217
0.287656
0.290206
0.292856
0.295594
0.298408
0.301286
0.304212
0.307174
0.310159
0.31316
0.316145
0.319066
0.261655
0.262263
0.262582
0.262881
0.263146
0.263391
0.263612
0.263815
0.264021
0.264246
0.264505
0.26481
0.265171
0.265603
0.266114
0.266718
0.267423
0.268242
0.269187
0.270271
0.271503
0.272885
0.274416
0.276092
0.277912
0.279874
0.281975
0.284206
0.286559
0.289023
0.291587
0.29424
0.296969
0.299763
0.302608
0.30549
0.3084
0.311328
0.314236
0.317092
0.261863
0.262436
0.262733
0.263004
0.26324
0.263456
0.26365
0.26383
0.264013
0.264216
0.26445
0.264726
0.265057
0.265457
0.265937
0.266506
0.267175
0.267955
0.268858
0.269895
0.271076
0.272401
0.273869
0.275477
0.277223
0.279107
0.281127
0.283276
0.285546
0.287926
0.290405
0.292974
0.295619
0.298328
0.30109
0.303892
0.306724
0.309576
0.312404
0.315193
0.262079
0.262616
0.26289
0.263135
0.263343
0.26353
0.263698
0.263856
0.26402
0.264201
0.264411
0.264661
0.264965
0.265337
0.265787
0.266326
0.266963
0.267708
0.268573
0.269569
0.270703
0.271976
0.273384
0.274927
0.276603
0.278415
0.280358
0.282428
0.284617
0.286915
0.289312
0.291796
0.294357
0.296982
0.299661
0.302381
0.305134
0.307908
0.310655
0.313372
0.2623
0.262796
0.263048
0.263267
0.263448
0.263608
0.263753
0.263892
0.264037
0.264199
0.264388
0.264615
0.264895
0.265242
0.265666
0.266178
0.266787
0.267503
0.268335
0.269294
0.270386
0.271609
0.272962
0.274443
0.276055
0.277797
0.279668
0.281664
0.283775
0.285993
0.288308
0.290709
0.293187
0.295728
0.298323
0.300961
0.303633
0.306327
0.30899
0.311633
0.262527
0.262981
0.26321
0.263405
0.26356
0.263696
0.263819
0.26394
0.264068
0.264213
0.264383
0.264591
0.264851
0.265175
0.265577
0.266066
0.266651
0.267342
0.268146
0.269073
0.270125
0.271302
0.272603
0.274028
0.275579
0.277257
0.27906
0.280984
0.28302
0.285159
0.287394
0.289715
0.29211
0.294568
0.29708
0.299634
0.302223
0.304836
0.307412
0.309979
0.26276
0.26317
0.263376
0.263547
0.26368
0.263793
0.263897
0.264
0.264113
0.264243
0.264397
0.264589
0.264832
0.265138
0.26552
0.26599
0.266556
0.267225
0.268006
0.268904
0.269921
0.271056
0.272309
0.273683
0.275178
0.276796
0.278534
0.280389
0.282352
0.284417
0.286574
0.288815
0.291128
0.293504
0.295932
0.298402
0.300908
0.303437
0.305924
0.308413
0.262999
0.263362
0.263545
0.263694
0.263806
0.263899
0.263985
0.264072
0.264171
0.264288
0.26443
0.26461
0.264839
0.26513
0.265497
0.265951
0.266502
0.267155
0.267916
0.268789
0.269774
0.270871
0.272081
0.273407
0.274851
0.276413
0.278091
0.279881
0.281775
0.283766
0.285848
0.288011
0.290244
0.292537
0.294881
0.297267
0.299688
0.302132
0.304529
0.306938
0.263242
0.263556
0.263718
0.263846
0.263938
0.264014
0.264084
0.264157
0.264244
0.26435
0.264483
0.264653
0.264872
0.265152
0.265507
0.26595
0.26649
0.267131
0.267877
0.268728
0.269684
0.270747
0.271919
0.273202
0.274599
0.276109
0.277731
0.279459
0.281286
0.283208
0.285216
0.287303
0.289457
0.291669
0.293929
0.29623
0.298567
0.300924
0.30323
0.305555
0.263488
0.263753
0.263893
0.264001
0.264076
0.264137
0.264192
0.264253
0.26433
0.264428
0.264554
0.264719
0.264931
0.265203
0.265552
0.265988
0.266521
0.267153
0.267886
0.268719
0.269652
0.270686
0.271824
0.273069
0.274423
0.275886
0.277454
0.279123
0.280888
0.282742
0.28468
0.286692
0.288768
0.2909
0.293078
0.295294
0.297544
0.299814
0.302028
0.304268
0.263739
0.263951
0.26407
0.264159
0.264219
0.264266
0.26431
0.264361
0.264429
0.264522
0.264645
0.264806
0.265015
0.265285
0.265631
0.266065
0.266595
0.267222
0.267945
0.268763
0.269676
0.270685
0.271794
0.273006
0.274322
0.275741
0.27726
0.278874
0.280579
0.282369
0.284239
0.286179
0.288179
0.290231
0.292326
0.294458
0.296622
0.298804
0.300925
0.303078
0.263992
0.264151
0.264249
0.26432
0.264367
0.264402
0.264436
0.264479
0.264542
0.264632
0.264754
0.264916
0.265126
0.265397
0.265745
0.26618
0.26671
0.267334
0.268051
0.268858
0.269756
0.270746
0.27183
0.273013
0.274295
0.275675
0.277148
0.27871
0.280359
0.282088
0.283892
0.285762
0.287689
0.289663
0.291677
0.293724
0.295801
0.297895
0.299922
0.301988
0.264249
0.264353
0.264429
0.264483
0.264517
0.264543
0.264569
0.264607
0.264667
0.264757
0.264881
0.265046
0.265261
0.265538
0.265892
0.266333
0.266866
0.26749
0.268203
0.269004
0.269891
0.270865
0.271931
0.273089
0.274342
0.275685
0.277116
0.278631
0.280226
0.281898
0.28364
0.285443
0.287297
0.289195
0.291128
0.293091
0.295082
0.297089
0.299022
0.300998
0.264508
0.264556
0.26461
0.264647
0.26467
0.264688
0.264709
0.264744
0.264804
0.264895
0.265024
0.265196
0.26542
0.265707
0.266072
0.266522
0.267061
0.267688
0.268401
0.269198
0.270078
0.271043
0.272094
0.273233
0.27446
0.275771
0.277164
0.278634
0.280181
0.281799
0.283482
0.285219
0.287004
0.288826
0.290681
0.292561
0.294467
0.296385
0.298226
0.300111
0.26477
0.264759
0.264792
0.264811
0.264824
0.264836
0.264855
0.264889
0.264951
0.265047
0.265183
0.265365
0.265601
0.265904
0.266283
0.266745
0.267293
0.267925
0.268641
0.269439
0.270318
0.271277
0.272318
0.273441
0.274647
0.27593
0.277288
0.278719
0.280221
0.281789
0.283415
0.285091
0.286807
0.288557
0.290334
0.292133
0.293955
0.295786
0.297536
0.299328
0.265033
0.264963
0.264973
0.264975
0.264978
0.264986
0.265004
0.265041
0.265107
0.26521
0.265356
0.265552
0.265805
0.266126
0.266523
0.267
0.267559
0.268201
0.268924
0.269726
0.270607
0.271565
0.2726
0.273713
0.274901
0.27616
0.277489
0.278884
0.280345
0.281865
0.283438
0.285054
0.286706
0.288385
0.290088
0.291807
0.293546
0.295292
0.296951
0.29865
0.265298
0.265166
0.265154
0.265137
0.265132
0.265137
0.265157
0.265199
0.265272
0.265384
0.265543
0.265756
0.26603
0.266372
0.266789
0.267284
0.267859
0.268513
0.269246
0.270058
0.270945
0.271906
0.272939
0.274045
0.275219
0.276459
0.277762
0.279126
0.280549
0.282026
0.283549
0.285109
0.286698
0.288311
0.28994
0.291583
0.293241
0.294903
0.296474
0.298079
0.265561
0.265368
0.265332
0.265297
0.265283
0.265288
0.265312
0.265361
0.265444
0.265569
0.265744
0.265977
0.266274
0.26664
0.267081
0.267597
0.268189
0.26886
0.269608
0.270432
0.271329
0.272296
0.273332
0.274434
0.275599
0.276824
0.278105
0.279442
0.280832
0.282269
0.283745
0.285252
0.286782
0.288331
0.289891
0.291459
0.293039
0.294619
0.296103
0.297614
0.265822
0.265567
0.265506
0.265453
0.265432
0.265437
0.265467
0.265526
0.265621
0.265762
0.265956
0.266212
0.266535
0.266928
0.267394
0.267934
0.268549
0.269239
0.270005
0.270845
0.271756
0.272733
0.273775
0.274877
0.276037
0.27725
0.278515
0.279829
0.281189
0.282589
0.284022
0.28548
0.286956
0.288443
0.289937
0.291435
0.292939
0.294439
0.295838
0.297256
0.266078
0.26576
0.265675
0.265604
0.265576
0.265583
0.265621
0.265693
0.265803
0.265962
0.266178
0.266459
0.266811
0.267234
0.267728
0.268295
0.268934
0.269648
0.270436
0.271295
0.272223
0.273213
0.274264
0.275371
0.276529
0.277735
0.278987
0.280282
0.281616
0.282983
0.284378
0.285791
0.287215
0.288646
0.290078
0.291508
0.292939
0.294361
0.29568
0.297004
0.266327
0.265945
0.265836
0.265747
0.265713
0.265724
0.265772
0.265859
0.265987
0.266167
0.266408
0.266717
0.267099
0.267553
0.268078
0.268675
0.269343
0.270083
0.270896
0.271778
0.272725
0.273733
0.274796
0.27591
0.277071
0.278274
0.279516
0.280796
0.282108
0.283448
0.284807
0.28618
0.287558
0.288936
0.290309
0.291675
0.293037
0.294386
0.295627
0.296859
0.266564
0.266118
0.265986
0.265882
0.265843
0.265858
0.265919
0.266022
0.266171
0.266374
0.266642
0.266982
0.267397
0.267884
0.268442
0.269071
0.26977
0.270541
0.271381
0.272289
0.273259
0.274286
0.275366
0.276491
0.277657
0.278861
0.280098
0.281366
0.282661
0.283977
0.285307
0.286643
0.287978
0.289308
0.290628
0.291934
0.29323
0.294509
0.295677
0.296819
0.266787
0.266278
0.266124
0.266004
0.265962
0.265984
0.266059
0.266181
0.266352
0.266581
0.266879
0.267252
0.2677
0.268223
0.268816
0.26948
0.270213
0.271016
0.271887
0.272823
0.273819
0.27487
0.275968
0.277108
0.278283
0.279491
0.280726
0.281987
0.283269
0.284565
0.285869
0.287174
0.288472
0.289758
0.291029
0.292281
0.293515
0.294728
0.295828
0.296881
0.266991
0.266422
0.266246
0.266113
0.26607
0.266099
0.266189
0.266332
0.266528
0.266786
0.267115
0.267522
0.268007
0.268566
0.269197
0.269897
0.270667
0.271505
0.272409
0.273376
0.274401
0.275478
0.276598
0.277755
0.278943
0.280157
0.281395
0.282653
0.283925
0.285206
0.286489
0.287766
0.289031
0.29028
0.291507
0.292709
0.293888
0.295039
0.296076
0.297044
0.267174
0.266546
0.266351
0.266206
0.266163
0.266202
0.266309
0.266473
0.266696
0.266985
0.267348
0.267791
0.268313
0.268911
0.26958
0.27032
0.271128
0.272003
0.272943
0.273943
0.275
0.276104
0.277249
0.278426
0.279629
0.280854
0.282097
0.283355
0.284622
0.285892
0.287158
0.288413
0.28965
0.290865
0.292054
0.293212
0.294341
0.295437
0.296418
0.297304
0.267334
0.266649
0.266436
0.266281
0.26624
0.26629
0.266414
0.266602
0.266854
0.267175
0.267574
0.268054
0.268615
0.269253
0.269963
0.270744
0.271592
0.272506
0.273483
0.274519
0.275609
0.276744
0.277916
0.279115
0.280336
0.281574
0.282826
0.284088
0.285353
0.286616
0.287869
0.289105
0.290319
0.291507
0.292663
0.293784
0.294868
0.295916
0.296847
0.297656
0.267466
0.266728
0.266499
0.266336
0.266299
0.26636
0.266503
0.266716
0.266998
0.267354
0.26779
0.268309
0.268911
0.269589
0.270341
0.271164
0.272054
0.273008
0.274024
0.275098
0.276222
0.27739
0.27859
0.279815
0.281056
0.28231
0.283573
0.284841
0.286108
0.287367
0.288611
0.289834
0.29103
0.292196
0.293326
0.294414
0.295461
0.296467
0.297357
0.298094
0.267569
0.26678
0.266538
0.26637
0.266337
0.266412
0.266574
0.266813
0.267127
0.267518
0.267993
0.268553
0.269195
0.269916
0.270711
0.271576
0.272509
0.273506
0.274562
0.275673
0.276834
0.278036
0.279266
0.280517
0.281781
0.283053
0.284331
0.285608
0.286879
0.288137
0.289376
0.290589
0.291773
0.292922
0.294031
0.295095
0.296111
0.297083
0.297941
0.298611
0.267639
0.266803
0.26655
0.266379
0.266354
0.266442
0.266624
0.26689
0.267236
0.267665
0.26818
0.268781
0.269465
0.270228
0.271066
0.271976
0.272953
0.273992
0.275089
0.27624
0.277438
0.278674
0.279936
0.281215
0.282503
0.283796
0.285089
0.286378
0.287656
0.288916
0.290153
0.291361
0.292536
0.293673
0.294768
0.295813
0.296807
0.297753
0.298587
0.299201
0.267673
0.266794
0.266533
0.266363
0.266345
0.266448
0.266651
0.266944
0.267323
0.26779
0.268346
0.268989
0.269716
0.270522
0.271404
0.272359
0.27338
0.274463
0.275601
0.276792
0.278028
0.279299
0.280593
0.2819
0.283214
0.284528
0.28584
0.287142
0.288428
0.289694
0.290931
0.292137
0.293308
0.294438
0.295524
0.296557
0.297536
0.298465
0.299287
0.299852
0.267669
0.266751
0.266485
0.266317
0.26631
0.266428
0.266652
0.266973
0.267386
0.267891
0.268488
0.269173
0.269943
0.270793
0.27172
0.272719
0.273785
0.274911
0.276092
0.277322
0.278596
0.279902
0.281228
0.282565
0.283905
0.285242
0.286572
0.287889
0.289186
0.290457
0.291698
0.292905
0.294074
0.295202
0.296283
0.297312
0.298283
0.299206
0.300026
0.300553
0.267623
0.266672
0.266403
0.26624
0.266244
0.266379
0.266626
0.266974
0.267421
0.267964
0.268602
0.26933
0.270142
0.271036
0.272008
0.273052
0.274163
0.275332
0.276555
0.277825
0.279136
0.280477
0.281836
0.283202
0.284568
0.285928
0.287277
0.288608
0.289916
0.291195
0.292441
0.293651
0.294821
0.295949
0.297031
0.298061
0.299033
0.299958
0.30079
0.301292
0.267533
0.266553
0.266285
0.266129
0.266146
0.266299
0.266569
0.266945
0.267426
0.268007
0.268686
0.269456
0.270311
0.271248
0.272264
0.273354
0.274509
0.275721
0.276984
0.278294
0.279642
0.281017
0.282407
0.283802
0.285194
0.286577
0.287944
0.28929
0.290608
0.291895
0.293146
0.29436
0.295532
0.296663
0.297749
0.298784
0.299765
0.300704
0.301562
0.302055
0.267396
0.266394
0.266129
0.265981
0.266014
0.266186
0.266479
0.266884
0.267398
0.268017
0.268736
0.269547
0.270445
0.271425
0.272485
0.273619
0.274817
0.276071
0.277375
0.278724
0.280107
0.281515
0.282935
0.284357
0.285774
0.287178
0.288562
0.289921
0.29125
0.292544
0.2938
0.295017
0.296192
0.297325
0.298416
0.299461
0.300456
0.30142
0.30232
0.302826
0.267211
0.266191
0.265932
0.265796
0.265845
0.266038
0.266356
0.266789
0.267336
0.267991
0.268749
0.269601
0.270541
0.271563
0.272667
0.273843
0.275083
0.276378
0.277722
0.279107
0.280525
0.281964
0.283412
0.28486
0.286299
0.287722
0.289122
0.290492
0.291829
0.293128
0.294388
0.295606
0.296782
0.297916
0.299012
0.300067
0.301081
0.302079
0.30304
0.303585
0.266975
0.265944
0.265692
0.26557
0.265637
0.265853
0.266195
0.266657
0.267236
0.267928
0.268724
0.269616
0.270595
0.27166
0.272805
0.274023
0.275303
0.276637
0.278018
0.279438
0.280888
0.282356
0.283831
0.285302
0.286761
0.288201
0.289613
0.290992
0.292334
0.293636
0.294896
0.296112
0.297284
0.298415
0.29951
0.300572
0.301605
0.302644
0.303686
0.30431
0.266687
0.265651
0.265409
0.265302
0.26539
0.265628
0.265996
0.266487
0.267098
0.267825
0.268658
0.269587
0.270606
0.271711
0.272896
0.274153
0.275472
0.276843
0.278259
0.279711
0.28119
0.282685
0.284183
0.285675
0.287151
0.288604
0.290025
0.29141
0.292754
0.294054
0.295309
0.296517
0.297679
0.298799
0.299885
0.300944
0.301988
0.303066
0.304216
0.304994
0.266346
0.26531
0.26508
0.264992
0.2651
0.265362
0.265756
0.266275
0.266918
0.267679
0.268548
0.269514
0.27057
0.271713
0.272936
0.27423
0.275585
0.27699
0.278438
0.27992
0.281426
0.282943
0.284462
0.28597
0.28746
0.288923
0.29035
0.291735
0.293076
0.29437
0.295614
0.296806
0.297948
0.299045
0.300105
0.301144
0.302182
0.3033
0.304624
0.30575
0.265951
0.264922
0.264706
0.264637
0.264768
0.265053
0.265474
0.266022
0.266695
0.267489
0.268392
0.269392
0.270484
0.271663
0.272921
0.27425
0.275638
0.277074
0.278551
0.280059
0.281587
0.283125
0.28466
0.286181
0.287681
0.289148
0.290576
0.291958
0.293291
0.294572
0.295797
0.296964
0.298073
0.299127
0.300134
0.301109
0.302083
0.30317
0.30458
0.306087
0.331363
0.345984
0.358718
0.369182
0.377465
0.384108
0.389338
0.393567
0.397021
0.399936
0.40243
0.404588
0.406485
0.408191
0.409717
0.411086
0.412313
0.413421
0.414404
0.415269
0.416024
0.416684
0.417238
0.417693
0.418046
0.418293
0.41845
0.418512
0.418473
0.41834
0.418101
0.417774
0.417344
0.416814
0.416181
0.415448
0.414636
0.413707
0.412875
0.411674
0.329409
0.343855
0.356733
0.367254
0.375632
0.38233
0.387612
0.391889
0.395385
0.398329
0.400849
0.403046
0.404982
0.406714
0.408268
0.409676
0.410939
0.412069
0.413075
0.413971
0.414756
0.415436
0.416014
0.416484
0.416854
0.417124
0.417298
0.417372
0.417348
0.417225
0.417005
0.416684
0.416268
0.415751
0.415131
0.414406
0.413603
0.412685
0.411861
0.410668
0.327514
0.341753
0.354764
0.365331
0.3738
0.38055
0.385883
0.390208
0.393747
0.39672
0.399266
0.401502
0.403478
0.405235
0.406818
0.408265
0.409563
0.410717
0.411745
0.412672
0.413487
0.414186
0.414787
0.415274
0.415661
0.415954
0.416145
0.416232
0.416225
0.416113
0.415912
0.415599
0.415197
0.414693
0.414085
0.41337
0.412578
0.411672
0.410856
0.409672
0.325676
0.339681
0.352817
0.363416
0.371967
0.378769
0.384154
0.388521
0.3921
0.395108
0.397687
0.399955
0.401968
0.403758
0.405373
0.406851
0.40818
0.409364
0.410421
0.411373
0.412214
0.412935
0.413558
0.414066
0.414471
0.414783
0.41499
0.415093
0.415102
0.415006
0.41482
0.414522
0.414133
0.413639
0.413043
0.41234
0.41156
0.410666
0.40986
0.408687
0.323899
0.337642
0.350889
0.361508
0.370131
0.376986
0.382422
0.386831
0.390447
0.393494
0.396109
0.398408
0.400454
0.40228
0.40393
0.405435
0.406794
0.408011
0.4091
0.410076
0.41094
0.411684
0.412327
0.412859
0.413283
0.413612
0.413835
0.413957
0.413981
0.413903
0.413731
0.413451
0.413074
0.412591
0.412007
0.411318
0.41055
0.409668
0.408874
0.407713
0.322185
0.33564
0.34898
0.359607
0.368296
0.375201
0.380687
0.385137
0.388792
0.391877
0.394528
0.396861
0.39894
0.400802
0.402487
0.404022
0.405411
0.40666
0.40778
0.40878
0.409667
0.410435
0.411099
0.411653
0.412097
0.412443
0.412684
0.412823
0.412864
0.412804
0.412647
0.412383
0.412021
0.41155
0.410978
0.410302
0.409548
0.408678
0.407895
0.406746
0.320537
0.33368
0.347091
0.357711
0.366461
0.373411
0.378948
0.383441
0.387135
0.390258
0.392946
0.395312
0.397426
0.399324
0.401044
0.402609
0.40403
0.40531
0.406461
0.407485
0.408397
0.409188
0.409872
0.410449
0.410912
0.411277
0.411536
0.411693
0.411751
0.411709
0.411567
0.41132
0.410973
0.410515
0.409957
0.409294
0.408554
0.407697
0.406925
0.405786
0.318955
0.331762
0.345224
0.355824
0.364626
0.371619
0.377204
0.381741
0.385474
0.388636
0.391361
0.393764
0.395912
0.397847
0.399601
0.401198
0.402651
0.403961
0.405142
0.406192
0.407128
0.407944
0.408648
0.409247
0.409731
0.410113
0.410391
0.410567
0.410643
0.410617
0.410492
0.410262
0.40993
0.409487
0.408943
0.408294
0.407569
0.406725
0.405964
0.404835
0.317442
0.329892
0.343378
0.353945
0.362791
0.369823
0.375456
0.380037
0.383811
0.387013
0.389776
0.392215
0.394399
0.39637
0.39816
0.399789
0.401275
0.402614
0.403825
0.404901
0.405861
0.406702
0.407427
0.408047
0.408552
0.408953
0.40925
0.409444
0.409538
0.409531
0.409422
0.409209
0.408892
0.408464
0.407936
0.407301
0.406591
0.405761
0.405011
0.403892
0.315996
0.328071
0.341556
0.352075
0.360955
0.368023
0.373703
0.378328
0.382144
0.385387
0.388189
0.390666
0.392887
0.394894
0.396721
0.398383
0.3999
0.401269
0.402509
0.403613
0.404596
0.405463
0.406208
0.406851
0.407376
0.407796
0.408113
0.408325
0.408438
0.408449
0.408357
0.408161
0.40786
0.407449
0.406937
0.406317
0.405622
0.404805
0.404066
0.402957
0.314621
0.326303
0.339759
0.350215
0.35912
0.366218
0.371944
0.376615
0.380475
0.38376
0.386602
0.389117
0.391376
0.393421
0.395283
0.396979
0.398528
0.399927
0.401196
0.402327
0.403334
0.404225
0.404993
0.405657
0.406203
0.406643
0.40698
0.407211
0.407342
0.407371
0.407296
0.407118
0.406834
0.40644
0.405944
0.40534
0.404661
0.403857
0.40313
0.402029
0.313316
0.324592
0.337989
0.348367
0.357285
0.364409
0.37018
0.374896
0.378801
0.38213
0.385014
0.387569
0.389868
0.39195
0.393849
0.395578
0.397159
0.398589
0.399885
0.401044
0.402075
0.402991
0.403781
0.404466
0.405034
0.405494
0.40585
0.4061
0.40625
0.406298
0.40624
0.40608
0.405813
0.405437
0.404958
0.404371
0.403708
0.402917
0.402201
0.401109
0.312083
0.32294
0.336246
0.346532
0.35545
0.362595
0.368408
0.373172
0.377124
0.380498
0.383426
0.386023
0.388362
0.390482
0.392418
0.394181
0.395794
0.397254
0.398577
0.399764
0.400818
0.401759
0.402571
0.403278
0.403869
0.404347
0.404724
0.404994
0.405162
0.405228
0.405189
0.405047
0.404797
0.40444
0.40398
0.40341
0.402762
0.401985
0.401281
0.400197
0.310922
0.321351
0.334533
0.34471
0.353614
0.360776
0.36663
0.371441
0.375442
0.378863
0.381838
0.384478
0.386858
0.389017
0.390991
0.392787
0.394433
0.395923
0.397274
0.398487
0.399566
0.40053
0.401365
0.402093
0.402706
0.403204
0.403602
0.403891
0.404078
0.404162
0.404142
0.404019
0.403787
0.40345
0.403008
0.402456
0.401824
0.401061
0.400368
0.399293
0.309836
0.319829
0.332851
0.342903
0.351779
0.358952
0.364843
0.369704
0.373755
0.377227
0.380249
0.382935
0.385358
0.387556
0.389567
0.391398
0.393076
0.394596
0.395974
0.397214
0.398317
0.399305
0.400163
0.400911
0.401547
0.402065
0.402482
0.402792
0.402998
0.4031
0.403099
0.402997
0.402783
0.402465
0.402043
0.40151
0.400893
0.400144
0.399463
0.398398
0.308823
0.318377
0.331203
0.341113
0.349944
0.357122
0.363049
0.36796
0.372063
0.375588
0.37866
0.381395
0.38386
0.386099
0.388147
0.390013
0.391723
0.393274
0.394679
0.395945
0.397072
0.398083
0.398964
0.399732
0.40039
0.40093
0.401366
0.401695
0.401921
0.402042
0.40206
0.401978
0.401783
0.401487
0.401085
0.40057
0.39997
0.399236
0.398566
0.39751
0.307887
0.316999
0.32959
0.339342
0.34811
0.355286
0.361245
0.366207
0.370365
0.373946
0.377071
0.379856
0.382366
0.384646
0.386732
0.388632
0.390374
0.391956
0.393388
0.394681
0.395832
0.396865
0.39777
0.398558
0.399237
0.399798
0.400253
0.400602
0.400848
0.400987
0.401025
0.400964
0.40079
0.400514
0.400132
0.399636
0.399054
0.398335
0.397677
0.396629
0.307027
0.315698
0.328015
0.33759
0.346278
0.353445
0.359433
0.364446
0.368662
0.372301
0.375482
0.378319
0.380874
0.383196
0.38532
0.387256
0.389031
0.390643
0.392103
0.393421
0.394597
0.395651
0.39658
0.397387
0.398087
0.398669
0.399143
0.399511
0.399778
0.399936
0.399994
0.399954
0.399801
0.399546
0.399185
0.398709
0.398145
0.397441
0.396795
0.395757
0.306244
0.314477
0.326481
0.335861
0.344449
0.351598
0.357611
0.362675
0.366951
0.370652
0.373892
0.376783
0.379386
0.381751
0.383914
0.385886
0.387694
0.389336
0.390823
0.392167
0.393367
0.394442
0.395394
0.396222
0.396941
0.397545
0.398038
0.398424
0.398711
0.398889
0.398966
0.398949
0.398817
0.398584
0.398244
0.397789
0.397243
0.396556
0.395921
0.394893
0.305539
0.31334
0.324991
0.334155
0.342625
0.349745
0.35578
0.360894
0.365233
0.368999
0.372301
0.375249
0.377901
0.38031
0.382513
0.384522
0.386362
0.388035
0.38955
0.390918
0.392144
0.393239
0.394213
0.395062
0.395799
0.396424
0.396936
0.397341
0.397647
0.397845
0.397943
0.397947
0.397837
0.397626
0.397308
0.396875
0.396348
0.395678
0.395054
0.394037
0.304913
0.312288
0.323547
0.332476
0.340806
0.347888
0.353939
0.359103
0.363507
0.367342
0.370708
0.373715
0.376419
0.378874
0.381119
0.383165
0.385037
0.38674
0.388282
0.389675
0.390925
0.392041
0.393036
0.393907
0.394662
0.395306
0.395837
0.396261
0.396587
0.396805
0.396923
0.396949
0.396862
0.396673
0.396378
0.395967
0.39546
0.394808
0.394196
0.393189
0.304366
0.311325
0.322155
0.330827
0.338995
0.346027
0.352088
0.357301
0.361773
0.365679
0.369114
0.372183
0.37494
0.377443
0.37973
0.381813
0.383718
0.385452
0.38702
0.388438
0.389713
0.390849
0.391865
0.392757
0.393529
0.394193
0.394742
0.395184
0.39553
0.395768
0.395907
0.395955
0.395891
0.395725
0.395454
0.395066
0.394579
0.393946
0.393347
0.392351
0.3039
0.310453
0.320816
0.329209
0.337194
0.344164
0.350228
0.355489
0.36003
0.36401
0.367518
0.370652
0.373466
0.376018
0.378347
0.380468
0.382406
0.38417
0.385765
0.387207
0.388505
0.389663
0.390698
0.391612
0.3924
0.393083
0.393651
0.394111
0.394476
0.394735
0.394895
0.394965
0.394925
0.394782
0.394535
0.394171
0.393705
0.393092
0.392507
0.391522
0.303513
0.309674
0.319536
0.327627
0.335405
0.342299
0.348358
0.353665
0.358277
0.362336
0.365919
0.369121
0.371994
0.374599
0.376971
0.37913
0.381101
0.382895
0.384517
0.385983
0.387303
0.388482
0.389537
0.390471
0.391276
0.391978
0.392563
0.393041
0.393425
0.393705
0.393886
0.393978
0.393962
0.393843
0.393621
0.393283
0.392839
0.392247
0.391678
0.390704
0.303207
0.308989
0.318317
0.326084
0.333632
0.340435
0.346481
0.35183
0.356515
0.360654
0.364317
0.367592
0.370527
0.373185
0.375602
0.3778
0.379803
0.381628
0.383275
0.384765
0.386107
0.387307
0.38838
0.389334
0.390156
0.390876
0.39148
0.391974
0.392378
0.392678
0.392881
0.392994
0.393002
0.392907
0.392711
0.392399
0.391979
0.39141
0.390859
0.389895
0.302981
0.308399
0.317164
0.324582
0.331878
0.338574
0.344597
0.349984
0.354742
0.358964
0.362712
0.366063
0.369064
0.371778
0.37424
0.376477
0.378513
0.380367
0.382039
0.383553
0.384916
0.386138
0.387229
0.388202
0.389041
0.389777
0.3904
0.390911
0.391333
0.391654
0.391878
0.392012
0.392045
0.391975
0.391804
0.39152
0.391126
0.390581
0.39005
0.389099
0.302835
0.307902
0.316079
0.323125
0.330147
0.336717
0.342708
0.348127
0.352958
0.357266
0.361102
0.364534
0.367605
0.370376
0.372885
0.375162
0.377231
0.379113
0.380811
0.382347
0.383732
0.384973
0.386083
0.387074
0.38793
0.388682
0.389323
0.389851
0.390291
0.390632
0.390877
0.391032
0.39109
0.391045
0.390901
0.390645
0.39028
0.389761
0.389252
0.388315
0.302768
0.307497
0.315066
0.321715
0.328442
0.334869
0.340814
0.34626
0.351162
0.355559
0.359489
0.363005
0.366148
0.368981
0.371538
0.373855
0.375956
0.377867
0.379589
0.381148
0.382553
0.383814
0.384941
0.38595
0.386823
0.38759
0.388249
0.388794
0.389252
0.389612
0.389878
0.390054
0.390137
0.390118
0.390001
0.389775
0.38944
0.38895
0.388466
0.387544
0.302778
0.307182
0.314127
0.320358
0.326768
0.333032
0.338917
0.344383
0.349355
0.353843
0.35787
0.361475
0.364695
0.367591
0.370198
0.372556
0.37469
0.376629
0.378374
0.379955
0.38138
0.38266
0.383804
0.384829
0.385721
0.386501
0.387178
0.38774
0.388215
0.388594
0.38888
0.389078
0.389184
0.389191
0.389102
0.388907
0.388606
0.388148
0.387692
0.386788
0.302865
0.306951
0.313264
0.319057
0.32513
0.33121
0.337021
0.342497
0.347537
0.352118
0.356245
0.359945
0.363245
0.366207
0.368866
0.371266
0.373432
0.375398
0.377167
0.378768
0.380213
0.381511
0.382672
0.383712
0.384621
0.385415
0.386109
0.386688
0.387179
0.387577
0.387883
0.388102
0.388232
0.388266
0.388206
0.388043
0.387778
0.387356
0.386931
0.386049
0.303026
0.306801
0.312477
0.317816
0.323532
0.329408
0.335128
0.340605
0.345709
0.350385
0.354616
0.358414
0.361798
0.36483
0.367543
0.369984
0.372183
0.374175
0.375967
0.377588
0.379052
0.380367
0.381545
0.3826
0.383525
0.384333
0.385041
0.385638
0.386145
0.386561
0.386887
0.387126
0.38728
0.387341
0.38731
0.387181
0.386954
0.386572
0.386184
0.385327
0.303259
0.306723
0.311768
0.316639
0.321981
0.327629
0.333242
0.338709
0.343873
0.348643
0.352981
0.356882
0.360355
0.363458
0.366227
0.368711
0.370942
0.37296
0.374775
0.376415
0.377897
0.379229
0.380422
0.381491
0.382432
0.383254
0.383977
0.38459
0.385111
0.385547
0.385891
0.386151
0.386328
0.386415
0.386415
0.38632
0.386133
0.385797
0.385451
0.384625
0.303563
0.30671
0.311135
0.31553
0.320482
0.32588
0.331368
0.336812
0.342029
0.346893
0.35134
0.355348
0.358914
0.362092
0.364919
0.367446
0.369711
0.371753
0.373591
0.37525
0.376748
0.378097
0.379305
0.380386
0.381342
0.382178
0.382914
0.383544
0.38408
0.384533
0.384896
0.385176
0.385375
0.385489
0.385519
0.385459
0.385316
0.38503
0.384733
0.383946
0.303933
0.306753
0.310579
0.314492
0.319041
0.324166
0.32951
0.334916
0.340178
0.345135
0.349693
0.353813
0.357475
0.360732
0.363618
0.366189
0.368488
0.370555
0.372414
0.374092
0.375606
0.37697
0.378192
0.379286
0.380256
0.381105
0.381854
0.3825
0.38305
0.38352
0.383901
0.3842
0.384421
0.384561
0.384621
0.384598
0.3845
0.38427
0.384031
0.383293
0.304369
0.306841
0.310099
0.313532
0.317663
0.322495
0.327672
0.333027
0.338324
0.34337
0.348042
0.352276
0.356039
0.359377
0.362325
0.36494
0.367274
0.369366
0.371246
0.372942
0.374471
0.375849
0.377085
0.378191
0.379173
0.380036
0.380797
0.381458
0.382023
0.382508
0.382906
0.383224
0.383466
0.38363
0.383721
0.383736
0.383684
0.383515
0.383346
0.382671
0.30487
0.306965
0.309693
0.312654
0.316357
0.320873
0.325862
0.331147
0.336468
0.341599
0.346385
0.350736
0.354605
0.358028
0.36104
0.363701
0.366069
0.368187
0.370087
0.3718
0.373343
0.374735
0.375983
0.377101
0.378095
0.378971
0.379743
0.380419
0.380998
0.381498
0.381912
0.382247
0.382509
0.382698
0.382818
0.38287
0.382868
0.382765
0.382676
0.382084
0.305432
0.307118
0.309363
0.311864
0.315129
0.319308
0.324088
0.329284
0.334617
0.339828
0.344728
0.349199
0.353176
0.356685
0.359764
0.362473
0.364875
0.367018
0.368937
0.370667
0.372223
0.373628
0.374887
0.376016
0.377021
0.377909
0.378693
0.379383
0.379975
0.380488
0.380917
0.381269
0.381551
0.381763
0.381912
0.382001
0.382049
0.382017
0.382021
0.381541
0.306015
0.307275
0.309096
0.31116
0.313983
0.317807
0.322358
0.327446
0.332776
0.33806
0.343068
0.347656
0.351742
0.355339
0.358485
0.361243
0.36368
0.365848
0.367787
0.369533
0.371103
0.372519
0.37379
0.374929
0.375945
0.376846
0.37764
0.378343
0.378948
0.379474
0.379918
0.380286
0.380586
0.38082
0.380998
0.381125
0.381224
0.381267
0.381377
0.381049
0.306611
0.307388
0.308836
0.310494
0.312879
0.316334
0.320632
0.325589
0.330896
0.336237
0.341348
0.346051
0.35025
0.35394
0.35716
0.359974
0.362452
0.364649
0.366612
0.368377
0.369963
0.371393
0.372677
0.373828
0.374855
0.375769
0.376576
0.377291
0.37791
0.378449
0.378907
0.379292
0.37961
0.379867
0.380073
0.380236
0.380386
0.380509
0.38074
0.38062
0.307924
0.30777
0.308765
0.30995
0.311816
0.314832
0.318814
0.323591
0.32885
0.334251
0.339487
0.344341
0.348688
0.352505
0.355825
0.358713
0.361242
0.363477
0.365467
0.36725
0.368851
0.370293
0.371587
0.372747
0.373785
0.374708
0.375526
0.376251
0.376881
0.37743
0.377901
0.378299
0.378633
0.37891
0.379141
0.379338
0.379534
0.379734
0.380093
0.380254
0.315441
0.311671
0.310909
0.310002
0.30959
0.31068
0.313283
0.317326
0.322462
0.328206
0.334047
0.339582
0.344556
0.348872
0.352542
0.355645
0.358286
0.360565
0.362561
0.364332
0.365918
0.367344
0.368627
0.369779
0.370812
0.371736
0.372558
0.373288
0.37393
0.374492
0.374981
0.375404
0.375769
0.376087
0.376372
0.376644
0.376943
0.377324
0.378018
0.379133
0.309889
0.307171
0.305791
0.304324
0.303056
0.303089
0.304908
0.308591
0.313786
0.319885
0.326228
0.33228
0.33771
0.342384
0.346313
0.349594
0.352352
0.354705
0.35675
0.358554
0.360164
0.361608
0.362908
0.364079
0.365132
0.366076
0.36692
0.367672
0.368339
0.368925
0.36944
0.369889
0.370282
0.370631
0.370953
0.371271
0.371637
0.372141
0.373066
0.374623
0.300623
0.299156
0.297857
0.296624
0.295329
0.295078
0.29665
0.300268
0.305614
0.312035
0.318785
0.32525
0.331043
0.336005
0.340147
0.343573