/*--------------------------------*- C++ -*----------------------------------*\
  =========                 |
  \\      /  F ield         | OpenFOAM: The Open Source CFD Toolbox
   \\    /   O peration     | Website:  https://openfoam.org
    \\  /    A nd           | Version:  7
     \\/     M anipulation  |
\*---------------------------------------------------------------------------*/
FoamFile
{
    version     2.0;
    format      ascii;
    class       surfaceScalarField;
    location    "8.4";
    object      phi;
}
// * * * * * * * * * * * * * * * * * * * * * * * * * * * * * * * * * * * * * //

dimensions      [0 3 -1 0 0 0 0];

internalField   nonuniform List<scalar> 
63520
(
6.64736e-06
-0.000119662
0.000113014
2.48228e-05
-0.000244445
0.000226269
5.36258e-05
-0.000267539
0.000238736
9.2553e-05
-0.000209789
0.000170862
0.000141359
-8.6277e-05
3.74707e-05
0.000199944
9.15104e-05
-0.000150095
0.000268293
0.000314319
-0.000382669
0.000346433
0.000574561
-0.000652702
0.000434402
0.000866066
-0.000954035
0.000532214
0.00118366
-0.00128148
0.000639853
0.00152305
-0.00163069
0.000757255
0.00188052
-0.00199792
0.000884293
0.00225287
-0.0023799
0.00102076
0.0026372
-0.00277367
0.00116639
0.00303088
-0.00317651
0.00132083
0.00343143
-0.00358587
0.00148362
0.00383655
-0.00399934
0.00165424
0.00424397
-0.00441459
0.00183207
0.00465155
-0.00482938
0.00201641
0.00505721
-0.00524155
0.00220651
0.0054589
-0.005649
0.00240154
0.00585469
-0.00604971
0.00260061
0.00624269
-0.00644176
0.00280282
0.00662114
-0.00682334
0.00300722
0.00698837
-0.00719277
0.00321287
0.00734286
-0.00754851
0.00341882
0.00768325
-0.0078892
0.00362415
0.00800832
-0.00821364
0.00382797
0.00831701
-0.00852083
0.00402944
0.00860848
-0.00880995
0.00422778
0.00888203
-0.00908037
0.00442229
0.00913715
-0.00933166
0.00461233
0.00937353
-0.00956357
0.00479738
0.00959097
-0.00977602
0.00497701
0.0097894
-0.00996902
0.00515089
0.00996879
-0.0101427
0.00531883
0.0101291
-0.010297
0.00548079
0.0102698
-0.0104318
0.00563685
0.0103904
-0.0105465
0.0104894
0.00578722
-0.0106397
6.30268e-06
-0.000125965
2.35726e-05
-0.000261715
5.08699e-05
-0.000294836
8.76879e-05
-0.000246607
0.000133816
-0.000132406
0.000189194
3.6132e-05
0.000253843
0.000249671
0.000327815
0.000500589
0.000411183
0.000782697
0.000503995
0.00109085
0.000606269
0.00142077
0.00071797
0.00176882
0.00083901
0.00213183
0.00096923
0.00250698
0.0011084
0.00289171
0.00125621
0.00328362
0.00141227
0.00368049
0.0015761
0.00408014
0.00174715
0.0044805
0.00192479
0.00487957
0.00210833
0.00527537
0.00229699
0.00566603
0.00248997
0.00604971
0.00268641
0.00642469
0.00288543
0.00678935
0.00308612
0.00714217
0.0032876
0.00748178
0.00348897
0.00780695
0.00368937
0.00811661
0.00388798
0.00840987
0.00408404
0.00868597
0.00427683
0.00894436
0.00446573
0.00918463
0.00465019
0.00940651
0.00482975
0.00960983
0.00500408
0.00979446
0.00517296
0.00996018
0.00533628
0.0101065
0.00549408
0.0102326
0.010337
0.00564644
5.95528e-06
-0.00013192
2.22737e-05
-0.000278033
4.79956e-05
-0.000320558
8.2639e-05
-0.00028125
0.00012603
-0.000175796
0.000178143
-1.59818e-05
0.000239046
0.000188768
0.000308825
0.00043081
0.000387589
0.000703933
0.000475414
0.00100303
0.000572348
0.00132384
0.000678392
0.00166278
0.000793488
0.00201673
0.000917517
0.00238295
0.00105029
0.00275893
0.00119154
0.00314237
0.00134092
0.0035311
0.00149802
0.00392305
0.00166232
0.0043162
0.00183327
0.00470862
0.00201021
0.00509843
0.00219245
0.00548378
0.00237925
0.00586291
0.0025698
0.00623415
0.00276326
0.00659588
0.0029588
0.00694663
0.00315556
0.00728502
0.00335269
0.00760982
0.00354935
0.00791995
0.00374475
0.00821446
0.00393814
0.00849258
0.00412881
0.00875369
0.00431614
0.00899731
0.00449956
0.00922309
0.00467862
0.00943077
0.00485295
0.00962013
0.0050223
0.00979083
0.00518654
0.00994223
0.00534561
0.0100736
0.0101831
0.00549951
5.61315e-06
-0.000137533
2.091e-05
-0.00029333
4.49717e-05
-0.00034462
7.73525e-05
-0.000313631
0.000117924
-0.000216368
0.000166708
-6.47665e-05
0.000223812
0.000131664
0.000289359
0.000365263
0.000363495
0.000629797
0.000446331
0.00092019
0.000537944
0.00123223
0.000638364
0.00156236
0.000747568
0.00190753
0.000865474
0.00226505
0.000991924
0.00263248
0.00112669
0.00300761
0.00126947
0.00338832
0.0014199
0.00377262
0.00157751
0.00415859
0.00174179
0.00454434
0.00191217
0.00492805
0.00208799
0.00530796
0.00226855
0.00568235
0.00245313
0.00604957
0.00264093
0.00640808
0.00283117
0.00675639
0.00302302
0.00709317
0.00321567
0.00741717
0.00340833
0.00772729
0.00360023
0.00802257
0.00379062
0.00830219
0.00397882
0.00856549
0.00416419
0.00881193
0.00434619
0.00904109
0.00452434
0.00925263
0.00469825
0.00944622
0.00486766
0.00962143
0.00503236
0.00977752
0.00519227
0.00991367
0.0100281
0.00534726
5.24785e-06
-0.000142781
1.94659e-05
-0.000307548
4.17857e-05
-0.00036694
7.18223e-05
-0.000343668
0.000109495
-0.000254041
0.000154876
-0.000110147
0.000208117
7.84226e-05
0.000269393
0.000303987
0.000338876
0.000560314
0.000416714
0.000842352
0.000503018
0.00114592
0.000597847
0.00146753
0.000701206
0.00180417
0.000813044
0.00215321
0.000933238
0.00251229
0.0010616
0.00287925
0.00119785
0.00325206
0.00134168
0.0036288
0.00149267
0.0040076
0.00165035
0.00438666
0.00181419
0.00476421
0.0019836
0.00513855
0.00215793
0.00550801
0.0023365
0.00587101
0.00251856
0.00622601
0.00270338
0.00657157
0.00289018
0.00690637
0.00307819
0.00722916
0.00326665
0.00753884
0.00345479
0.00783442
0.00364191
0.00811507
0.00382734
0.00838007
0.00401045
0.00862882
0.00419067
0.00886086
0.00436755
0.00907575
0.00454066
0.0092731
0.00470972
0.00945237
0.0048745
0.00961274
0.00503483
0.00975334
0.00987246
0.00519051
4.8647e-06
-0.000147646
1.7939e-05
-0.000320622
3.84337e-05
-0.000387435
6.60332e-05
-0.000371268
0.000100719
-0.000288727
0.000142619
-0.000152047
0.000191933
2.9108e-05
0.000248883
0.000247037
0.000313679
0.000495517
0.000386508
0.000769523
0.000467506
0.00106492
0.000556763
0.00137827
0.000654318
0.00170661
0.000760144
0.00204738
0.000874148
0.00239828
0.000996171
0.00275723
0.00112598
0.00312225
0.00126329
0.00349149
0.00140773
0.00386316
0.00155888
0.00423551
0.00171625
0.00460685
0.00187929
0.00497551
0.0020474
0.0053399
0.00221995
0.00569846
0.00239626
0.0060497
0.0025756
0.00639223
0.00275726
0.00672471
0.0029405
0.00704592
0.00312459
0.00735475
0.0033088
0.00765021
0.00349244
0.00793143
0.00367484
0.00819766
0.00385541
0.00844826
0.00403358
0.00868269
0.00420886
0.00890047
0.00438086
0.00910111
0.00454923
0.009284
0.00471373
0.00944825
0.00487411
0.00959296
0.00971649
0.00503008
4.45472e-06
-0.000152101
1.63203e-05
-0.000332488
3.49045e-05
-0.000406019
5.99768e-05
-0.00039634
9.15866e-05
-0.000320337
0.000129923
-0.000190384
0.000175243
-1.62114e-05
0.000227815
0.000194465
0.000287891
0.000435441
0.00035569
0.000701724
0.000431385
0.00098923
0.000515093
0.00129456
0.00060688
0.00161483
0.000706746
0.00194752
0.000814626
0.0022904
0.000930391
0.00264146
0.00105385
0.00299879
0.00118473
0.00336061
0.00132271
0.00372518
0.0014674
0.00409081
0.00161837
0.00445588
0.00177511
0.00481877
0.00193706
0.00517795
0.00210362
0.00553189
0.00227416
0.00587916
0.00244801
0.00621838
0.00262448
0.00654824
0.00280287
0.00686753
0.00298249
0.00717514
0.00316263
0.00747007
0.00334263
0.00775143
0.00352183
0.00801845
0.00369964
0.00827044
0.00387552
0.00850682
0.00404896
0.00872703
0.00421955
0.00893052
0.00438694
0.00911661
0.00455083
0.00928435
0.00471093
0.00943286
0.00956056
0.00486686
4.01257e-06
-0.000156114
1.46036e-05
-0.000343079
3.11932e-05
-0.000422609
5.36457e-05
-0.000418792
8.20894e-05
-0.000348781
0.000116784
-0.000225078
0.000158041
-5.74689e-05
0.000206183
0.000146323
0.000261503
0.00038012
0.000324258
0.000638969
0.00039465
0.000918837
0.000472829
0.00121638
0.000558886
0.00152877
0.000652845
0.00185356
0.000754669
0.00218858
0.000864256
0.00253187
0.000981439
0.00288161
0.00110599
0.00323606
0.00123761
0.00359356
0.00137595
0.00395247
0.00152062
0.00431122
0.00167113
0.00466826
0.00182698
0.00502209
0.00198762
0.00537126
0.00215244
0.00571435
0.00232081
0.00605
0.00249209
0.00637696
0.00266561
0.00669401
0.0028407
0.00700005
0.00301669
0.00729408
0.00319293
0.00757519
0.0033688
0.00784258
0.0035437
0.00809554
0.0037171
0.00833342
0.0038885
0.00855563
0.00405746
0.00876155
0.00422362
0.00895045
0.00438664
0.00912133
0.00454618
0.00927333
0.00940499
0.00470175
3.53609e-06
-0.00015965
1.27854e-05
-0.000352328
2.72955e-05
-0.000437119
4.70374e-05
-0.000438534
7.22272e-05
-0.00037397
0.0001032
-0.000256052
0.000140331
-9.45997e-05
0.000183993
0.000102661
0.000234526
0.000329588
0.000292221
0.000581273
0.000357315
0.000853743
0.000429987
0.00114371
0.000510352
0.0014484
0.00059846
0.00176545
0.000694298
0.00209274
0.00079779
0.00242838
0.000908795
0.00277061
0.00102711
0.00311774
0.00115248
0.00346818
0.00128459
0.00382036
0.00142306
0.00417275
0.00156745
0.00452386
0.00171731
0.00487224
0.0018721
0.00521647
0.00203127
0.00555518
0.00219422
0.00588705
0.00236034
0.00621084
0.002529
0.00652535
0.00269955
0.00682949
0.00287137
0.00712227
0.0030438
0.00740275
0.00321626
0.00767013
0.00338815
0.00792364
0.00355895
0.00816263
0.00372815
0.00838643
0.00389532
0.00859438
0.00406006
0.00878571
0.004222
0.00895939
0.00438074
0.0091146
0.00925001
0.00453571
3.02473e-06
-0.000162674
1.08645e-05
-0.000360168
2.32105e-05
-0.000449465
4.01531e-05
-0.000455477
6.20052e-05
-0.000395823
8.91828e-05
-0.000283229
0.000122126
-0.000127543
0.000161264
6.3523e-05
0.000206981
0.00028387
0.000259606
0.000528648
0.00031941
0.000793939
0.0003866
0.00107652
0.000461316
0.00137369
0.000543633
0.00168313
0.000633559
0.00200282
0.000731044
0.0023309
0.000835972
0.00266568
0.00094817
0.00300555
0.00106741
0.00334895
0.0011934
0.00369437
0.00132579
0.00404036
0.0014642
0.00438545
0.00160817
0.00472826
0.00175723
0.00506741
0.00191085
0.00540156
0.00206847
0.00572943
0.0022295
0.0060498
0.00239336
0.00636149
0.00255942
0.00666343
0.00272707
0.00695462
0.0028957
0.00723412
0.00306472
0.00750111
0.00323356
0.0077548
0.0034017
0.0079945
0.00356862
0.0082195
0.00373389
0.00842912
0.00389707
0.00862252
0.00405777
0.00879869
0.00421552
0.00895685
0.00909584
0.00436968
2.47735e-06
-0.000165152
8.84063e-06
-0.000366532
1.89412e-05
-0.000459566
3.29997e-05
-0.000469536
5.14345e-05
-0.000414257
7.47478e-05
-0.000306543
0.000103449
-0.000156245
0.000138024
2.89481e-05
0.000178903
0.000242992
0.000226455
0.000481096
0.000280983
0.00073941
0.000342723
0.00101478
0.000411839
0.00130457
0.000488428
0.00160654
0.000572523
0.00191872
0.000664096
0.00223933
0.000763054
0.00256672
0.000869251
0.00289935
0.000982483
0.00323572
0.00110249
0.00357437
0.00122895
0.0039139
0.0013615
0.0042529
0.00149974
0.00459003
0.0016432
0.00492395
0.0017914
0.00525337
0.0019438
0.00557703
0.00209986
0.00589373
0.00225901
0.00620234
0.00242066
0.00650179
0.00258422
0.00679106
0.00274909
0.00706925
0.00291471
0.00733549
0.00308051
0.007589
0.00324597
0.00782904
0.00341059
0.00805489
0.0035739
0.00826581
0.00373545
0.00846097
0.00389481
0.00863934
0.00405144
0.00880022
0.00894263
0.00420466
1.89512e-06
-0.000167047
6.71694e-06
-0.000371354
1.44933e-05
-0.000467342
2.55881e-05
-0.000480631
4.05333e-05
-0.000429203
5.99215e-05
-0.000325931
8.43349e-05
-0.000180658
0.000114317
-1.03374e-06
0.000150345
0.000206963
0.000192828
0.000438612
0.000242102
0.000690136
0.000298431
0.000958452
0.000362002
0.001241
0.000432936
0.00153561
0.000511287
0.00184037
0.000597048
0.00215356
0.000690154
0.00247361
0.000790478
0.00279902
0.000897841
0.00312835
0.00101201
0.00346021
0.00113269
0.00379322
0.00125954
0.00412604
0.0013922
0.00445738
0.00153022
0.00478592
0.00167315
0.00511044
0.00182049
0.00542968
0.00197173
0.0057425
0.0021263
0.00604777
0.00228366
0.00634443
0.00244323
0.00663149
0.00260444
0.00690803
0.00276674
0.00717319
0.00292957
0.00742617
0.00309241
0.0076662
0.00325475
0.00789255
0.00341611
0.00810445
0.00357602
0.00830105
0.00373399
0.00848136
0.00388945
0.00864476
0.00879045
0.00404163
1.27903e-06
-0.000168326
4.49679e-06
-0.000374571
9.87593e-06
-0.000472721
1.79348e-05
-0.00048869
2.93257e-05
-0.000440594
4.47365e-05
-0.000341342
6.48255e-05
-0.000200747
9.01944e-05
-2.64027e-05
0.000121369
0.000175788
0.000158799
0.000401183
0.000202851
0.000646083
0.000253817
0.000907487
0.000311908
0.00118291
0.000377267
0.00147025
0.000449971
0.00176766
0.000530034
0.0020735
0.000617411
0.00238624
0.000712
0.00270443
0.000813643
0.00302671
0.000922127
0.00335172
0.00103719
0.00367815
0.00115852
0.00400471
0.00128577
0.00433013
0.00141853
0.00465316
0.00155638
0.00497259
0.00169883
0.00528723
0.00184541
0.00559593
0.00199558
0.0058976
0.00214881
0.0061912
0.00230455
0.00647575
0.00246225
0.00675033
0.00262136
0.00701408
0.00278134
0.00726619
0.00294165
0.00750588
0.0031018
0.0077324
0.00326129
0.00794496
0.0034196
0.00814274
0.00357622
0.00832475
0.0037305
0.00849048
0.00863934
0.00388161
6.31001e-07
-0.000168957
2.1865e-06
-0.000376127
5.10148e-06
-0.000475636
1.006e-05
-0.000493648
1.78418e-05
-0.000448376
2.92342e-05
-0.000352735
4.49736e-05
-0.000216486
6.57216e-05
-4.71508e-05
9.2053e-05
0.000149456
0.000124456
0.00036878
0.00016333
0.000607209
0.000208993
0.000861824
0.000261681
0.00113022
0.000321558
0.00141037
0.000388722
0.0017005
0.000463208
0.00199902
0.000544993
0.00230445
0.000633994
0.00261543
0.000730077
0.00293063
0.000833051
0.00324875
0.000942679
0.00356852
0.00105867
0.00388872
0.00118071
0.0042081
0.0013084
0.00452546
0.00144136
0.00483963
0.00157914
0.00514945
0.00172126
0.00545381
0.00186723
0.00575163
0.00201653
0.0060419
0.00216863
0.00632365
0.00232301
0.00659596
0.00247911
0.00685798
0.0026364
0.0071089
0.00279436
0.00734792
0.00295246
0.00757429
0.00311019
0.00778723
0.00326702
0.00798592
0.00342236
0.0081694
0.00357553
0.00833731
0.00848924
0.00372563
-4.70545e-08
-0.00016891
-2.06655e-07
-0.000375967
1.85053e-07
-0.000476028
1.98828e-06
-0.000495451
6.11725e-06
-0.000452505
1.34625e-05
-0.00036008
2.48403e-05
-0.000227864
4.09731e-05
-6.32836e-05
6.24845e-05
0.000127945
8.99015e-05
0.000341363
0.000123656
0.000573454
0.00016409
0.00082139
0.000211463
0.00108285
0.000265963
0.00135587
0.000327708
0.00163876
0.000396752
0.00192997
0.000473092
0.00222811
0.000556667
0.00253186
0.000647361
0.00283993
0.000745009
0.0031511
0.000849394
0.00346414
0.000960254
0.00377786
0.00107728
0.00409107
0.00120014
0.00440261
0.00132843
0.00471134
0.00146175
0.00501613
0.00159965
0.00531591
0.00174164
0.00560963
0.00188725
0.00589629
0.00203594
0.00617495
0.00218722
0.00644469
0.00234053
0.00670467
0.00249536
0.00695407
0.00265117
0.00719211
0.00280743
0.00741803
0.00296359
0.00763107
0.0031191
0.00783041
0.00327332
0.00801518
0.00342551
0.00818511
0.00834004
0.00357471
-7.51484e-07
-0.000168159
-2.67377e-06
-0.000374045
-4.85581e-06
-0.000473846
-6.25189e-06
-0.000494055
-5.80692e-06
-0.00045295
-2.52393e-06
-0.000363363
4.49469e-06
-0.000234883
1.60331e-05
-7.48221e-05
3.27635e-05
0.000111214
5.52508e-05
0.000318875
8.39574e-05
0.000544748
0.000119251
0.000786096
0.000161416
0.00104068
0.000210659
0.00130663
0.000267118
0.0015823
0.000330869
0.00186622
0.000401926
0.00215706
0.000480249
0.00245354
0.000565741
0.00275444
0.00065826
0.00305858
0.00075761
0.00336479
0.000863553
0.00367191
0.000975806
0.00397881
0.00109405
0.00428437
0.00121792
0.00458746
0.00134703
0.00488702
0.00148096
0.00518199
0.00161924
0.00547135
0.00176141
0.00575413
0.00190696
0.00602939
0.0020554
0.00629625
0.0022062
0.00655387
0.00235882
0.00680144
0.00251274
0.00703819
0.00266741
0.00726337
0.00282225
0.00747622
0.00297667
0.00767599
0.00312999
0.00786186
0.0032814
0.0080337
0.00819156
0.00342988
-1.47965e-06
-0.000166679
-5.20465e-06
-0.00037032
-1.00012e-05
-0.00046905
-1.46287e-05
-0.000489428
-1.7885e-05
-0.000449694
-1.86642e-05
-0.000362584
-1.59864e-05
-0.000237561
-9.00518e-06
-8.18033e-05
2.99981e-06
9.92092e-05
2.06304e-05
0.000301245
4.43789e-05
0.000520999
7.46385e-05
0.000755836
0.000111715
0.00100361
0.000155837
0.00126251
0.000207162
0.00153097
0.000265784
0.0018076
0.000331735
0.00209111
0.000404995
0.00238028
0.000485488
0.00267395
0.00057309
0.00297098
0.000667629
0.00327025
0.000768888
0.00357065
0.000876609
0.00387109
0.000990494
0.00417048
0.00111021
0.00446775
0.00123538
0.00476185
0.00136561
0.00505176
0.00150046
0.0053365
0.00163948
0.00561511
0.00178219
0.00588668
0.00192809
0.00615035
0.00207667
0.00640529
0.0022274
0.00665071
0.00237973
0.00688586
0.00253311
0.00710999
0.00268693
0.0073224
0.00284055
0.00752237
0.00299325
0.00770916
0.00314416
0.00788279
0.00804354
0.00329218
-2.22783e-06
-0.000164451
-7.78807e-06
-0.00036476
-1.52292e-05
-0.000461609
-2.31068e-05
-0.00048155
-3.00668e-05
-0.000442734
-3.4892e-05
-0.000357759
-3.65196e-05
-0.000235933
-3.40408e-05
-8.42822e-05
-2.66878e-05
9.18561e-05
-1.38231e-05
0.00028838
5.07502e-06
0.000502101
3.04243e-05
0.000730487
6.25526e-05
0.00097148
0.000101708
0.00122335
0.000148066
0.00148461
0.00020174
0.00175393
0.00026278
0.00203007
0.000331183
0.00231187
0.000406894
0.00259824
0.000489809
0.00288806
0.000579777
0.00318028
0.000676603
0.00347383
0.000780052
0.00376764
0.000889849
0.00406069
0.00100568
0.00435192
0.0011272
0.00464033
0.00125403
0.00492493
0.00138576
0.00520477
0.00152195
0.00547892
0.00166213
0.0057465
0.00180583
0.00600666
0.00195253
0.00625859
0.0021017
0.00650154
0.0022528
0.00673476
0.00240523
0.00695756
0.00255838
0.00716926
0.00271155
0.0073692
0.00286398
0.00755674
0.00301472
0.00773205
0.00789563
0.00316262
-2.99223e-06
-0.000161459
-1.04118e-05
-0.000357341
-2.05159e-05
-0.000451505
-3.16481e-05
-0.000470418
-4.22981e-05
-0.000432084
-5.11359e-05
-0.000348921
-5.70153e-05
-0.000230054
-5.89656e-05
-8.23319e-05
-5.61724e-05
8.90629e-05
-4.79635e-05
0.000280171
-3.37887e-05
0.000487926
-1.32064e-05
0.000709905
1.41323e-05
0.000944141
4.84939e-05
0.00118899
9.00733e-05
0.00144303
0.000138999
0.001705
0.000195341
0.00197372
0.000259111
0.0022481
0.000330276
0.00252707
0.000408751
0.00280959
0.000494406
0.00309463
0.000587066
0.00338117
0.000686521
0.00366819
0.000792517
0.00395469
0.000904767
0.00423967
0.00102294
0.00452215
0.00114669
0.00480118
0.00127562
0.00507584
0.00140931
0.00534523
0.00154731
0.00560849
0.00168916
0.00586481
0.00183435
0.00611341
0.00198234
0.00635354
0.00213258
0.00658452
0.00228447
0.00680567
0.00243735
0.00701638
0.00259048
0.00721607
0.00274304
0.00740418
0.00289403
0.00758106
0.00774744
0.00304222
-3.76882e-06
-0.000157691
-1.30629e-05
-0.000348046
-2.58359e-05
-0.000438732
-4.02117e-05
-0.000456043
-5.45211e-05
-0.000417775
-6.73199e-05
-0.000336123
-7.73787e-05
-0.000219995
-8.36653e-05
-7.60453e-05
-8.53202e-05
9.07177e-05
-8.16366e-05
0.000276487
-7.20377e-05
0.000478327
-5.60585e-05
0.000693925
-3.33301e-05
0.000921413
-3.568e-06
0.00115923
3.34394e-05
0.00140603
7.78377e-05
0.0016606
0.000129712
0.00192185
0.000189096
0.00218872
0.00025597
0.0024602
0.000330271
0.00273529
0.000411887
0.00301301
0.000500669
0.00329238
0.000596424
0.00357243
0.000698925
0.00385219
0.000807904
0.00413069
0.000923061
0.00440699
0.00104406
0.00468018
0.00117053
0.00494937
0.00130208
0.00521368
0.00143827
0.0054723
0.00157865
0.00572443
0.00172271
0.00596934
0.00186993
0.00620632
0.00201974
0.00643471
0.00217152
0.0066539
0.00232457
0.00686333
0.00247812
0.00706251
0.00263129
0.00725101
0.00278301
0.00742934
0.00759847
0.00293198
-4.55345e-06
-0.000153137
-1.57276e-05
-0.000336872
-3.11621e-05
-0.000423298
-4.87544e-05
-0.00043845
-6.66748e-05
-0.000399854
-8.33642e-05
-0.000319433
-9.75102e-05
-0.00020585
-0.00010802
-6.55355e-05
-0.000113991
9.66881e-05
-0.000114681
0.000277178
-0.000109489
0.000473135
-9.79281e-05
0.000682364
-7.96094e-05
0.000903094
-5.42315e-05
0.00113385
-2.15673e-05
0.00137336
1.85449e-05
0.00162049
6.62069e-05
0.00187419
0.000121468
0.00213346
0.000184328
0.00239734
0.00025474
0.00266488
0.000332616
0.00293513
0.000417823
0.00320718
0.000510194
0.00348006
0.000609521
0.00375286
0.000715562
0.00402465
0.000828039
0.00429452
0.000946639
0.00456158
0.00107102
0.00482499
0.00120079
0.00508391
0.00133555
0.00533754
0.00147486
0.00558513
0.00161821
0.00582599
0.00176509
0.00605944
0.00191492
0.00628488
0.00206705
0.00650177
0.00222076
0.00670961
0.00237525
0.00690803
0.00252955
0.00709671
0.00268255
0.00727634
0.00744816
0.00283286
-5.34181e-06
-0.000147795
-1.83917e-05
-0.000323823
-3.64657e-05
-0.000405224
-5.72307e-05
-0.000417685
-7.86953e-05
-0.00037839
-9.91852e-05
-0.000298943
-0.000117306
-0.000187729
-0.000131905
-5.09362e-05
-0.000142038
0.00010682
-0.00014693
0.00028207
-0.000145955
0.00047216
-0.000138604
0.000675013
-0.000124472
0.000888962
-0.000103241
0.00111262
-7.46685e-05
0.00134479
-3.85782e-05
0.0015844
5.14799e-06
0.00183046
5.65745e-05
0.00208203
0.000115718
0.00233819
0.000182551
0.00259804
0.000257002
0.00286068
0.000338962
0.00312522
0.000428281
0.00339074
0.000524778
0.00365636
0.00062823
0.00392119
0.000738384
0.00418436
0.00085495
0.00444502
0.000977607
0.00470233
0.001106
0.00495551
0.00123973
0.00520381
0.00137837
0.00544649
0.00152144
0.00568291
0.00166843
0.00591246
0.00181874
0.00613457
0.00197172
0.00634879
0.00212663
0.00655471
0.00228259
0.00675206
0.00243862
0.00694068
0.00259351
0.00712146
0.00729587
0.0027458
-6.12944e-06
-0.000141666
-2.104e-05
-0.000308912
-4.1717e-05
-0.000384547
-6.55934e-05
-0.000393809
-9.05161e-05
-0.000353467
-0.000114696
-0.000274763
-0.000136658
-0.000165767
-0.000155192
-3.24025e-05
-0.000169311
0.000120939
-0.000178211
0.00029097
-0.000181239
0.000475188
-0.000177869
0.000671643
-0.000167678
0.000878771
-0.000150333
0.00109527
-0.000125578
0.00132003
-9.32211e-05
0.00155204
-5.31311e-05
0.00179037
-5.22698e-06
0.00203413
5.05232e-05
0.00228244
0.000114108
0.00253446
0.000185475
0.00278932
0.000264535
0.00304616
0.000351159
0.00330412
0.000445185
0.00356234
0.000546417
0.00381996
0.000654622
0.00407616
0.000769537
0.0043301
0.000890862
0.00458101
0.00101826
0.00482811
0.00115137
0.0050707
0.00128977
0.00530809
0.00143301
0.00553968
0.00158056
0.0057649
0.00173185
0.00598329
0.0018862
0.00619443
0.00204284
0.00639806
0.00220089
0.00659402
0.00235926
0.0067823
0.00251671
0.00696401
0.00714089
0.0026717
-6.91178e-06
-0.000134754
-2.36569e-05
-0.000292167
-4.68848e-05
-0.000361319
-7.37936e-05
-0.0003669
-0.000102069
-0.000325192
-0.000129808
-0.000247024
-0.000155457
-0.000140118
-0.000177749
-1.01111e-05
-0.000195656
0.000138847
-0.000208346
0.00030366
-0.000215142
0.000481984
-0.0002155
0.000672001
-0.000208982
0.000872253
-0.000195239
0.00108153
-0.000174001
0.0012988
-0.000145066
0.00152311
-0.000108286
0.00175359
-6.35684e-05
0.00198941
-1.0865e-05
0.00222974
4.98283e-05
0.00247376
0.000118477
0.00272067
0.000195008
0.00296963
0.000279315
0.00321981
0.000371255
0.0034704
0.000470654
0.00372056
0.000577303
0.00396951
0.000690962
0.00421644
0.000811358
0.00446061
0.000938181
0.00470129
0.00107108
0.00493779
0.00120968
0.0051695
0.00135352
0.00539584
0.00150211
0.00561632
0.00165486
0.00583053
0.00181111
0.00603818
0.00197007
0.0062391
0.00213081
0.00643329
0.00229221
0.0066209
0.00245294
0.00680327
0.00698245
0.00261138
-7.68416e-06
-0.00012707
-2.62262e-05
-0.000273625
-5.19372e-05
-0.000335608
-8.17811e-05
-0.000337056
-0.000113284
-0.00029369
-0.00014443
-0.000215877
-0.000173589
-0.000110959
-0.00019944
1.57393e-05
-0.000220916
0.000160323
-0.000237156
0.0003199
-0.000247463
0.000492291
-0.000251272
0.000675811
-0.000248132
0.000869113
-0.000237682
0.00107108
-0.000219639
0.00128075
-0.000193787
0.00149726
-0.000159968
0.00171977
-0.000118074
0.00194752
-6.80437e-05
0.00217971
-9.85904e-06
0.00241558
5.64611e-05
0.00265435
0.000130862
0.00289523
0.000213254
0.00313742
0.000303516
0.00338013
0.000401492
0.00362259
0.000506997
0.003864
0.000619815
0.00410363
0.000739697
0.00434073
0.00086636
0.00457463
0.000999483
0.00480467
0.0011387
0.00503028
0.0012836
0.00525094
0.00143369
0.00546623
0.00158841
0.00567581
0.00174709
0.0058795
0.00190895
0.00607725
0.00207301
0.00626922
0.00223813
0.00645578
0.00240291
0.00663849
0.00681972
0.00256563
-8.44172e-06
-0.000118628
-2.87311e-05
-0.000253336
-5.68416e-05
-0.000307498
-8.95049e-05
-0.000304393
-0.000124088
-0.000259106
-0.000158469
-0.000181497
-0.00019094
-7.84885e-05
-0.000220128
4.49278e-05
-0.000244931
0.000185126
-0.000264458
0.000339428
-0.000277993
0.000505825
-0.000284954
0.000682772
-0.000284876
0.000869035
-0.000277386
0.00106359
-0.000262188
0.00126555
-0.000239056
0.00147412
-0.000207819
0.00168854
-0.000168359
0.00190806
-0.000120602
0.00213195
-6.45159e-05
0.00235949
-1.04952e-07
0.00258994
7.25906e-05
0.00282253
0.000153498
0.00305651
0.000242514
0.00329112
0.000339502
0.0035256
0.000444297
0.00375921
0.000556707
0.00399122
0.000676506
0.00422093
0.00080344
0.00444769
0.000937215
0.0046709
0.00107749
0.00489
0.00122389
0.00510454
0.00137595
0.00531417
0.00153312
0.00551864
0.00169477
0.00571786
0.00186009
0.00591193
0.00202812
0.00610119
0.00219767
0.00628623
0.00236728
0.00646888
0.00665186
0.00253514
-9.1794e-06
-0.000109449
-3.11549e-05
-0.00023136
-6.15652e-05
-0.000277087
-9.6913e-05
-0.000269045
-0.000134411
-0.000221609
-0.00017183
-0.000144077
-0.000207392
-4.2926e-05
-0.000239675
7.72105e-05
-0.000267538
0.000212988
-0.000290067
0.000361957
-0.000306524
0.000522282
-0.000316313
0.000692561
-0.000318956
0.000871677
-0.000314066
0.0010587
-0.00030134
0.00125283
-0.000280538
0.00145332
-0.00025148
0.00165948
-0.000214037
0.00187061
-0.000168123
0.00208604
-0.000113695
0.00230507
-5.07454e-05
0.00252699
2.07e-05
0.00275108
0.000100583
0.00297663
0.000188814
0.00320289
0.000285275
0.00342914
0.000389819
0.00365466
0.000502275
0.00387876
0.000622442
0.00410076
0.000750089
0.00432004
0.000884954
0.00453603
0.00102673
0.00474822
0.00117507
0.00495621
0.00132954
0.0051597
0.00148964
0.00535853
0.00165475
0.00555275
0.0018241
0.00574259
0.00199671
0.00592858
0.00217139
0.00611155
0.00234662
0.00629365
0.00647797
0.00252052
-9.89189e-06
-9.95573e-05
-3.34801e-05
-0.000207772
-6.60745e-05
-0.000244493
-0.000103953
-0.000231167
-0.000144177
-0.000181384
-0.000184419
-0.000103836
-0.00022283
-4.51513e-06
-0.00025794
0.00011232
-0.000288574
0.000243623
-0.000313794
0.000387177
-0.000332845
0.000541333
-0.000345114
0.00070483
-0.00035011
0.000876673
-0.000347438
0.00105603
-0.000336782
0.00124217
-0.000317893
0.00143443
-0.000290582
0.00163217
-0.00025471
0.00183474
-0.000210181
0.00204151
-0.000156942
0.00225183
-9.49738e-05
0.00246502
-2.42919e-05
0.0026804
5.50571e-05
0.00289728
0.000142997
0.00311495
0.000239422
0.00333271
0.000344204
0.00354988
0.000457188
0.00376578
0.000578193
0.00397976
0.000707014
0.00419122
0.000843417
0.00439963
0.000987131
0.00460451
0.00113784
0.0048055
0.00129516
0.00500238
0.00145863
0.00519506
0.00162768
0.0053837
0.00180156
0.0055687
0.00197935
0.00575079
0.00215982
0.00593107
0.00234145
0.00611202
0.00629717
0.00252225
-1.05738e-05
-8.89836e-05
-3.56896e-05
-0.000182657
-7.03359e-05
-0.000209847
-0.000110572
-0.000190931
-0.000153315
-0.000138641
-0.00019614
-6.10112e-05
-0.000237133
3.64784e-05
-0.00027478
0.000149967
-0.000307874
0.000276717
-0.000335451
0.000414755
-0.000356741
0.000562622
-0.000371117
0.000719207
-0.000378075
0.000883631
-0.00037721
0.00105516
-0.000368197
0.00123316
-0.000350778
0.00141701
-0.000324754
0.00160614
-0.000289977
0.00179996
-0.000246344
0.00199788
-0.000193792
0.00219927
-0.000132294
0.00240352
-6.18552e-05
0.00260996
1.74856e-05
0.00281794
0.000105662
0.00302677
0.000202579
0.0032358
0.00030812
0.00344434
0.000422143
0.00365175
0.000544485
0.00385742
0.000674962
0.00406075
0.000813365
0.00426123
0.000959455
0.00445842
0.00111295
0.004652
0.00127353
0.0048418
0.00144078
0.00502781
0.00161419
0.0052103
0.00179307
0.00538981
0.00197655
0.00556732
0.00216343
0.00574419
0.00235217
0.00592329
0.00610862
0.00254072
-1.12196e-05
-7.7764e-05
-3.7766e-05
-0.00015611
-7.43154e-05
-0.000173298
-0.000116716
-0.00014853
-0.000161749
-9.36091e-05
-0.000206897
-1.58634e-05
-0.000250184
7.97656e-05
-0.000290054
0.000189836
-0.000325269
0.000311933
-0.000354847
0.000444332
-0.000377996
0.000585771
-0.00039408
0.000735291
-0.000402583
0.000892134
-0.000403089
0.00105567
-0.000395264
0.00122533
-0.000378842
0.00140059
-0.000353616
0.00158092
-0.000319429
0.00176578
-0.000276171
0.00195462
-0.000223772
0.00214687
-0.000162197
0.00234195
-9.14466e-05
0.00253921
-1.15514e-05
0.00273804
7.74271e-05
0.00293779
0.000175402
0.00313782
0.000282261
0.00333748
0.000397873
0.00353614
0.000522085
0.0037332
0.000654729
0.0039281
0.000795614
0.00412034
0.000944531
0.0043095
0.00110124
0.00449529
0.00126546
0.00467758
0.00143686
0.00485642
0.00161498
0.00503217
0.00179924
0.00520555
0.00198883
0.00537773
0.00218263
0.00555039
0.0023791
0.00572681
0.00591155
0.00257617
-1.1824e-05
-6.59402e-05
-3.9692e-05
-0.000128242
-7.79794e-05
-0.00013501
-0.000122334
-0.000104175
-0.000169406
-4.65372e-05
-0.000216594
3.13243e-05
-0.000261863
0.000125035
-0.000303617
0.00023159
-0.000340594
0.000348909
-0.000371787
0.000475525
-0.000396391
0.000610375
-0.000413757
0.000752657
-0.00042336
0.000901737
-0.000424773
0.00105708
-0.000417654
0.00121821
-0.000401728
0.00138467
-0.00037678
0.00155597
-0.000342647
0.00173164
-0.000299211
0.00191118
-0.000246397
0.00209406
-0.000184164
0.00227971
-0.000112508
0.00246756
-3.14561e-05
0.00265699
5.89323e-05
0.00284741
0.000158573
0.00303818
0.000267355
0.0032287
0.00038515
0.00341835
0.000511808
0.00360654
0.000647167
0.00379274
0.000791048
0.00397646
0.000943262
0.00415729
0.0011036
0.00433495
0.00127184
0.00450934
0.00144769
0.00468057
0.00163081
0.00484905
0.00182071
0.00501565
0.00201671
0.00518173
0.00221779
0.00534931
0.0024225
0.0055221
0.00570531
0.00262874
-1.23817e-05
-5.35586e-05
-4.14502e-05
-9.9174e-05
-8.12943e-05
-9.51663e-05
-0.000127373
-5.80961e-05
-0.000176214
2.30375e-06
-0.000225137
8.02464e-05
-0.000272052
0.00017195
-0.000315328
0.000274866
-0.000353677
0.000387258
-0.000386076
0.000507923
-0.000411703
0.000636003
-0.0004299