/*--------------------------------*- C++ -*----------------------------------*\
  =========                 |
  \\      /  F ield         | OpenFOAM: The Open Source CFD Toolbox
   \\    /   O peration     | Website:  https://openfoam.org
    \\  /    A nd           | Version:  7
     \\/     M anipulation  |
\*---------------------------------------------------------------------------*/
FoamFile
{
    version     2.0;
    format      ascii;
    class       volVectorField;
    location    "8.4";
    object      U;
}
// * * * * * * * * * * * * * * * * * * * * * * * * * * * * * * * * * * * * * //

dimensions      [0 1 -1 0 0 0 0];

internalField   nonuniform List<vector> 
32000
(
(0.000218222 -0.00465927 -2.26698e-22)
(0.00133581 -0.00942091 0)
(0.00347817 -0.010116 -2.03162e-21)
(0.00625035 -0.00758087 0)
(0.00959859 -0.00241383 2.12003e-21)
(0.0134365 0.00492782 0)
(0.0177077 0.0140748 2.19311e-21)
(0.0223696 0.0247242 -1.66794e-21)
(0.0273857 0.0366286 5.72095e-25)
(0.0327232 0.0495808 6.43918e-25)
(0.0383512 0.0634072 -5.74689e-22)
(0.0442403 0.077959 2.32e-21)
(0.0503615 0.0931057 0)
(0.056685 0.10873 -5.89477e-22)
(0.0631802 0.124726 5.91922e-22)
(0.0698153 0.140991 0)
(0.076557 0.15743 2.99545e-21)
(0.0833714 0.173953 -6.01106e-22)
(0.0902237 0.190471 0)
(0.0970777 0.206898 1.21842e-21)
(0.103897 0.223152 1.22147e-21)
(0.110646 0.239153 0)
(0.11729 0.254825 0)
(0.123794 0.270095 0)
(0.130127 0.284896 0)
(0.136259 0.299167 0)
(0.142161 0.312854 0)
(0.147809 0.325906 0)
(0.15318 0.338283 -2.52619e-21)
(0.158257 0.349952 0)
(0.163025 0.360885 2.54879e-21)
(0.167473 0.371063 0)
(0.171595 0.380476 0)
(0.175385 0.389117 0)
(0.178846 0.396985 -2.59218e-21)
(0.18198 0.404082 -1.31126e-21)
(0.184798 0.410407 3.93553e-21)
(0.187318 0.415945 4.88793e-24)
(0.18955 0.420678 2.64948e-21)
(0.191383 0.424542 4.37744e-24)
(0.000308461 -0.00490399 0)
(0.00147889 -0.0100838 3.96435e-21)
(0.00353906 -0.0111549 1.01458e-21)
(0.00612356 -0.00896476 -1.23689e-24)
(0.00919515 -0.00412372 -1.06017e-21)
(0.0126847 0.00290342 0)
(0.0165492 0.0117434 2.19324e-21)
(0.0207568 0.0220908 -2.22396e-21)
(0.02528 0.0336981 0)
(0.0300931 0.0463575 -4.55305e-21)
(0.0351724 0.0598963 0)
(0.0404944 0.0741674 -6.95716e-21)
(0.0460346 0.0890423 0)
(0.0517682 0.104406 0)
(0.0576693 0.120154 2.37089e-21)
(0.0637098 0.136188 -2.37852e-21)
(0.0698606 0.152416 -2.39505e-21)
(0.0760924 0.168749 0)
(0.0823738 0.185102 7.24956e-21)
(0.0886726 0.20139 -2.42131e-21)
(0.0949569 0.217535 4.04835e-24)
(0.101194 0.233457 -7.32949e-21)
(0.107351 0.249083 -4.90893e-21)
(0.113398 0.26434 -2.47592e-21)
(0.119306 0.279163 7.41851e-21)
(0.125046 0.293489 -7.4676e-21)
(0.130592 0.307264 7.50826e-21)
(0.135919 0.320437 -1.00108e-20)
(0.141007 0.332965 -2.50618e-21)
(0.145838 0.344812 3.33618e-23)
(0.150397 0.35595 -7.57666e-21)
(0.154673 0.366357 -5.0837e-21)
(0.158657 0.376017 1.02699e-20)
(0.162344 0.384921 -1.02618e-20)
(0.165734 0.393064 -2.56419e-21)
(0.168828 0.400444 -1.03898e-20)
(0.171634 0.407053 -1.03725e-23)
(0.174172 0.412875 2.62957e-21)
(0.176436 0.417883 -1.04422e-20)
(0.178313 0.422008 -1.48015e-20)
(0.000408786 -0.00515026 -9.08975e-22)
(0.00164671 -0.010743 -1.98201e-21)
(0.0036328 -0.0121653 -9.14936e-21)
(0.00603687 -0.0102989 0)
(0.00883999 -0.00576692 1.0608e-21)
(0.0119898 0.000959053 -1.07884e-21)
(0.0154568 0.00950211 -1.31587e-20)
(0.0192211 0.0195552 4.44775e-21)
(0.0232641 0.0308693 -2.25252e-21)
(0.027567 0.0432382 1.36557e-20)
(0.0321125 0.0564903 4.59712e-21)
(0.0368827 0.0704795 2.3205e-21)
(0.0418583 0.085079 -9.34194e-21)
(0.0470184 0.100177 0)
(0.0523408 0.11567 0)
(0.0578021 0.131464 4.76472e-21)
(0.0633768 0.147469 1.36205e-23)
(0.0690386 0.163599 -4.79699e-21)
(0.0747605 0.17977 -4.82853e-21)
(0.080514 0.195903 -9.68369e-21)
(0.0862696 0.211919 1.45991e-20)
(0.0919983 0.227742 1.72745e-23)
(0.0976712 0.243298 -9.47501e-24)
(0.10326 0.258519 4.90782e-21)
(0.108738 0.273337 -9.90877e-21)
(0.114079 0.287692 1.98245e-20)
(0.119259 0.301527 0)
(0.124254 0.314792 5.01117e-21)
(0.129044 0.327443 5.03232e-21)
(0.133612 0.339442 1.01191e-20)
(0.137944 0.350758 3.33539e-23)
(0.142027 0.361367 0)
(0.145852 0.371249 5.13961e-21)
(0.149413 0.380393 -5.06281e-21)
(0.152709 0.388789 -5.10332e-21)
(0.155739 0.396432 1.55463e-20)
(0.158512 0.403308 -1.54433e-20)
(0.161045 0.409398 1.04381e-20)
(0.16332 0.414669 -1.55348e-20)
(0.16522 0.419047 5.80671e-21)
(0.000518265 -0.00536858 7.27211e-21)
(0.00183464 -0.0113353 -7.93917e-21)
(0.00375169 -0.0130897 1.62717e-20)
(0.00598029 -0.0115323 0)
(0.00851997 -0.00729853 6.36486e-21)
(0.011337 -0.000866122 1.07963e-20)
(0.0144155 0.00738432 2.19267e-21)
(0.0177463 0.0171457 1.52934e-24)
(0.02132 0.0281671 6.75532e-21)
(0.0251255 0.040244 -2.27781e-21)
(0.0291515 0.0532056 1.14881e-20)
(0.0333853 0.0669078 -1.39069e-20)
(0.037812 0.0812262 1.40089e-20)
(0.0424151 0.0960503 -4.7054e-21)
(0.047176 0.11128 4.72497e-21)
(0.0520743 0.126824 -9.50609e-21)
(0.0570882 0.142594 -1.43366e-20)
(0.0621949 0.158507 4.79219e-21)
(0.0673703 0.174483 -4.82853e-21)
(0.0725892 0.190443 1.45128e-20)
(0.0778257 0.206312 -9.72193e-21)
(0.0830534 0.222015 -9.74342e-21)
(0.088246 0.237481 0)
(0.0933784 0.252641 0)
(0.0984262 0.26743 -9.84911e-21)
(0.103365 0.281788 -9.91048e-21)
(0.108172 0.295658 -9.92054e-21)
(0.112826 0.308989 0)
(0.117307 0.321736 0)
(0.1216 0.33386 -2.01219e-20)
(0.125688 0.345328 -8.76574e-23)
(0.129561 0.356112 1.01458e-20)
(0.133208 0.366192 -1.01162e-20)
(0.136624 0.375552 -1.02455e-20)
(0.139805 0.38418 1.02369e-20)
(0.142752 0.392064 0)
(0.14547 0.399189 1.03287e-20)
(0.147977 0.40553 -2.06818e-20)
(0.150241 0.411051 2.07011e-20)
(0.152142 0.415675 -2.3418e-20)
(0.00063505 -0.00557598 -3.63266e-21)
(0.00203954 -0.0118952 5.95565e-21)
(0.00389209 -0.0139594 -8.1381e-21)
(0.00594922 -0.012693 0)
(0.00823041 -0.00874306 -1.06099e-20)
(0.01072 -0.00259361 -6.4789e-21)
(0.0134169 0.00537175 8.77413e-21)
(0.0163231 0.0148453 0)
(0.0194381 0.0255764 -1.35105e-20)
(0.0227581 0.0373614 -4.55362e-21)
(0.0262779 0.0500312 -4.59374e-21)
(0.02999 0.0634436 9.27372e-21)
(0.0338836 0.0774765 -9.33713e-21)
(0.0379456 0.0920214 4.69571e-21)
(0.0421608 0.106981 0)
(0.0465125 0.122265 1.42631e-20)
(0.0509815 0.13779 4.78353e-21)
(0.0555478 0.153475 -9.60498e-21)
(0.0601906 0.169241 1.92589e-20)
(0.0648877 0.185014 -1.93328e-20)
(0.0696156 0.200719 1.93758e-20)
(0.0743507 0.216284 9.74342e-21)
(0.0790697 0.231638 0)
(0.08375 0.246717 9.83391e-21)
(0.0883692 0.261455 4.09479e-23)
(0.092905 0.275792 0)
(0.0973363 0.289671 9.92057e-21)
(0.101643 0.303043 -9.98043e-21)
(0.105808 0.31586 9.93892e-21)
(0.109814 0.328083 2.00853e-20)
(0.113647 0.339676 -2.00982e-20)
(0.117295 0.350611 2.01448e-20)
(0.12075 0.360864 0)
(0.124004 0.370417 0)
(0.127053 0.379253 2.03724e-20)
(0.129897 0.387358 0)
(0.132541 0.394714 0)
(0.135002 0.401289 -2.05886e-20)
(0.137236 0.407046 2.05105e-20)
(0.13912 0.411905 1.16886e-20)
(0.00075796 -0.00576377 1.82026e-21)
(0.00225757 -0.0124028 0)
(0.00404858 -0.0147535 1.62956e-20)
(0.00593653 -0.0137607 2.08242e-21)
(0.00796188 -0.0100824 2.12499e-21)
(0.0101286 -0.00420737 1.29666e-20)
(0.0124501 0.00347849 1.75555e-20)
(0.0149394 0.012667 0)
(0.0176052 0.0231084 4.50465e-21)
(0.020451 0.0346003 1.3657e-20)
(0.0234775 0.0469756 1.8379e-20)
(0.0266819 0.0600942 -4.63548e-21)
(0.0300574 0.0738359 -1.4002e-20)
(0.0335941 0.0880946 0)
(0.0372802 0.102776 1.88944e-20)
(0.0411014 0.117792 0)
(0.0450415 0.133061 2.8633e-20)
(0.0490831 0.148506 -9.56931e-21)
(0.0532081 0.16405 0)
(0.0573968 0.179621 -9.67488e-21)
(0.0616281 0.195146 -2.53235e-23)
(0.0658812 0.210555 -9.68761e-21)
(0.0701353 0.22578 -9.73078e-21)
(0.07437 0.240756 9.81555e-21)
(0.0785648 0.255421 -9.78987e-21)
(0.0826997 0.269714 0)
(0.0867549 0.28358 -9.91778e-21)
(0.0907123 0.296968 9.87992e-21)
(0.0945549 0.309831 0)
(0.0982673 0.322127 0)
(0.101836 0.333821 0)
(0.10525 0.344881 -2.01778e-20)
(0.108499 0.355283 2.00712e-20)
(0.111577 0.365005 0)
(0.114479 0.374028 -1.01627e-20)
(0.117204 0.382333 0)
(0.119758 0.389899 2.0484e-20)
(0.122156 0.396692 -1.01064e-20)
(0.124342 0.402672 -2.05789e-20)
(0.12619 0.407755 2.31104e-20)
(0.000885696 -0.0059341 1.27592e-20)
(0.00248542 -0.0128612 -1.78999e-20)
(0.00421607 -0.0154751 -3.05643e-20)
(0.00593598 -0.0147387 -1.66667e-20)
(0.00770769 -0.0113192 -4.24881e-21)
(0.00955491 -0.00570984 -8.64163e-21)
(0.011506 0.00170165 -3.95039e-20)
(0.0135857 0.0106076 -1.33502e-20)
(0.0158115 0.0207598 -2.25193e-20)
(0.018194 0.0319573 -2.27606e-20)
(0.0207396 0.0440352 -3.21649e-20)
(0.0234501 0.0568559 -1.85303e-20)
(0.0263223 0.0703011 2.24032e-24)
(0.0293494 0.0842674 -1.87832e-20)
(0.0325224 0.0986625 -1.88944e-20)
(0.0358297 0.113402 -2.84882e-20)
(0.0392574 0.128406 1.90672e-20)
(0.0427904 0.1436 -9.56398e-21)
(0.046413 0.15891 0)
(0.0501076 0.174265 1.92889e-20)
(0.0538558 0.189595 0)
(0.0576389 0.204832 3.88491e-20)
(0.0614384 0.21991 0)
(0.0652359 0.234765 -9.7997e-21)
(0.069013 0.249337 9.84781e-21)
(0.0727512 0.263565 -1.9603e-20)
(0.0764328 0.277395 0)
(0.0800407 0.290776 -1.9854e-20)
(0.0835593 0.30366 1.97714e-20)
(0.0869743 0.316006 0)
(0.0902731 0.327777 0)
(0.0934443 0.33894 0)
(0.0964786 0.349467 -2.0049e-20)
(0.0993693 0.359335 0)
(0.102112 0.368522 -2.02822e-20)
(0.104704 0.377006 4.04981e-20)
(0.107153 0.384764 -4.05987e-20)
(0.109472 0.391759 2.01267e-20)
(0.111594 0.397946 4.07732e-20)
(0.113391 0.403244 -2.30194e-20)
(0.00101671 -0.00608471 -1.64043e-20)
(0.00271919 -0.013267 -1.15176e-23)
(0.00438938 -0.0161203 1.63054e-20)
(0.00594108 -0.0156226 3.33421e-20)
(0.00746001 -0.0124497 -4.25051e-21)
(0.00899047 -0.00709827 -1.73003e-20)
(0.0105761 4.37735e-05 1.75583e-20)
(0.0122529 0.00866943 2.67024e-20)
(0.0140473 0.0185321 9.00734e-21)
(0.0159772 0.0294332 2.27625e-20)
(0.0180543 0.0412106 1.83791e-20)
(0.0202845 0.0537288 2.77918e-20)
(0.022668 0.0668719 5.59924e-20)
(0.0252011 0.0805392 2.81792e-20)
(0.0278775 0.094641 0)
(0.0306876 0.109095 9.48345e-21)
(0.0336195 0.123825 9.51789e-21)
(0.0366605 0.138757 9.55578e-21)
(0.0397968 0.153821 1.9218e-20)
(0.0430129 0.168948 -9.63541e-21)
(0.0462923 0.184069 0)
(0.0496187 0.199118 -1.54466e-23)
(0.0529756 0.214033 -1.94554e-20)
(0.0563463 0.22875 1.95099e-20)
(0.0597141 0.243209 3.91527e-20)
(0.0630623 0.257353 3.93081e-20)
(0.0663748 0.271126 4.6001e-23)
(0.0696359 0.284478 1.97229e-20)
(0.0728313 0.297362 1.97761e-20)
(0.0759477 0.309735 -1.98292e-20)
(0.0789731 0.321559 1.98819e-20)
(0.0818967 0.332801 1.9934e-20)
(0.0847094 0.343431 4.00341e-20)
(0.0874047 0.353423 -1.15791e-22)
(0.0899781 0.362753 6.03183e-20)
(0.0924273 0.371397 4.53704e-23)
(0.0947587 0.379327 -2.01701e-20)
(0.0969862 0.386507 -2.03e-20)
(0.0990298 0.392888 2.02422e-20)
(0.10076 0.39839 2.29732e-20)
(0.00114964 -0.00621465 1.46072e-20)
(0.0029552 -0.0136179 1.99054e-20)
(0.00456317 -0.0166861 1.22475e-20)
(0.00594538 -0.0164099 -1.25046e-20)
(0.00721161 -0.0134719 -2.12613e-20)
(0.00842744 -0.00837053 1.72983e-20)
(0.0096518 -0.0014938 0)
(0.0109324 0.00685283 1.78105e-20)
(0.0123042 0.0164253 0)
(0.013792 0.027028 -3.64258e-20)
(0.0154128 0.0385012 9.19401e-21)
(0.0171763 0.050712 -4.63264e-20)
(0.019086 0.0635472 -1.86637e-20)
(0.0211409 0.076909 9.39753e-21)
(0.023337 0.0907102 1.45937e-23)
(0.0256667 0.104871 -9.48125e-21)
(0.0281201 0.119317 -1.90649e-20)
(0.0306862 0.133978 -3.82805e-20)
(0.0333529 0.148785 0)
(0.0361065 0.16367 3.1041e-23)
(0.0389327 0.178569 -1.93e-20)
(0.041817 0.193418 -1.93993e-20)
(0.0447445 0.208153 1.94555e-20)
(0.0477002 0.222715 -1.95686e-20)
(0.0506691 0.237044 1.9544e-20)
(0.0536361 0.251084 -3.91641e-20)
(0.0565864 0.264781 4.73446e-23)
(0.0595059 0.278084 -3.93648e-20)
(0.0623813 0.290946 -1.97762e-20)
(0.0652005 0.303325 -4.96986e-23)
(0.0679521 0.315181 -9.77711e-23)
(0.0706258 0.32648 -1.99341e-20)
(0.0732131 0.337191 -1.99851e-20)
(0.0757076 0.347286 -6.27422e-23)
(0.078105 0.356738 -2.00821e-20)
(0.0804026 0.365522 -7.33723e-23)
(0.0826069 0.373608 -2.02519e-20)
(0.0847315 0.380956 6.02952e-20)
(0.086685 0.387518 -2.02423e-20)
(0.0883356 0.393213 -2.30032e-20)
(0.0012831 -0.00632251 -1.46092e-20)
(0.00318987 -0.0139116 3.98247e-21)
(0.00473214 -0.0171701 -1.22423e-20)
(0.00594242 -0.0170983 -4.17138e-21)
(0.00695544 -0.0143835 1.70105e-20)
(0.00785842 -0.00952531 -4.32787e-21)
(0.00872563 -0.00291039 4.39311e-21)
(0.0096164 0.00515824 -2.67185e-20)
(0.0105743 0.0144397 9.01188e-21)
(0.0116308 0.0247411 1.82147e-20)
(0.0128076 0.035906 0)
(0.0141181 0.0478044 3.70698e-20)
(0.015569 0.0603259 0)
(0.0171617 0.0733756 -3.75664e-20)
(0.0188942 0.0868688 -1.88878e-20)
(0.0207607 0.100728 0)
(0.0227529 0.114882 0)
(0.0248617 0.129262 3.82771e-20)
(0.0270761 0.1438 1.92372e-20)
(0.0293843 0.158434 -3.85441e-20)
(0.0317737 0.173098 1.92946e-20)
(0.0342314 0.187732 0)
(0.0367441 0.202274 -1.94815e-20)
(0.0392982 0.216665 3.89628e-20)
(0.0418802 0.230848 -1.94842e-20)
(0.0444765 0.244766 -1.96389e-20)
(0.0470736 0.258368 1.95712e-20)
(0.0496588 0.271603 0)
(0.05222 0.284424 3.94968e-20)
(0.0547458 0.296788 -1.97004e-20)
(0.0572258 0.308656 -1.98853e-20)
(0.0596501 0.319991 -1.46539e-22)
(0.0620108 0.330762 7.96565e-20)
(0.0643019 0.34094 -5.97048e-20)
(0.0665189 0.350496 0)
(0.0686591 0.359401 -2.00541e-20)
(0.0707291 0.367624 -4.02659e-20)
(0.0727419 0.375126 1.98877e-20)
(0.0745952 0.381855 2.00702e-20)
(0.0761549 0.387735 0)
(0.00141555 -0.00640698 -2.92668e-20)
(0.00341936 -0.0141459 -3.9858e-21)
(0.00489099 -0.0175702 3.26953e-20)
(0.00592609 -0.0176856 -3.34086e-20)
(0.00668475 -0.015183 0)
(0.00727628 -0.0105616 0)
(0.00779049 -0.00420539 -8.79196e-21)
(0.00829811 0.00358579 -2.31589e-24)
(0.00885099 0.0125746 9.01496e-21)
(0.00948694 0.0225717 0)
(0.0102323 0.0334241 0)
(0.011104 0.0450048 -9.26354e-21)
(0.0121112 0.0572067 8.53813e-24)
(0.013258 0.0699376 9.3962e-21)
(0.0145439 0.0831154 1.88878e-20)
(0.0159648 0.0966655 0)
(0.0175138 0.110518 1.90869e-20)
(0.0191831 0.124607 -1.90897e-20)
(0.0209633 0.138868 -3.84184e-20)
(0.0228439 0.153238 3.85428e-20)
(0.0248137 0.167656 7.04585e-23)
(0.0268613 0.182062 -1.93424e-20)
(0.0289749 0.196397 1.94734e-20)
(0.0311421 0.210603 -3.89125e-20)
(0.0333508 0.224624 0)
(0.0355886 0.238405 1.96213e-20)
(0.0378434 0.251895 -3.92217e-20)
(0.0401037 0.265043 1.9593e-20)
(0.0423585 0.277804 -1.9708e-20)
(0.0445972 0.290135 -1.98028e-20)
(0.0468102 0.301994 -1.99828e-20)
(0.0489882 0.313347 7.92653e-20)
(0.0511238 0.32416 -5.9441e-20)
(0.0532112 0.334401 -3.99281e-20)
(0.0552461 0.344041 3.96996e-20)
(0.0572255 0.353049 0)
(0.0591563 0.361394 4.0123e-20)
(0.0610506 0.369036 -3.98719e-20)
(0.0627958 0.375921 -2.00703e-20)
(0.064255 0.381977 0)
(0.00154542 -0.00646696 6.22266e-20)
(0.00363996 -0.014319 2.79492e-20)
(0.00503459 -0.0178841 -3.2695e-20)
(0.00589027 -0.0181701 2.92306e-20)
(0.00639306 -0.0158693 -4.25942e-21)
(0.00667463 -0.0114788 8.66202e-21)
(0.00684005 -0.00537857 0)
(0.00697128 0.0021351 -8.9146e-21)
(0.00712837 0.0108293 9.01847e-21)
(0.00735508 0.0205189 9.11641e-21)
(0.00768197 0.0310543 -9.19616e-21)
(0.00812911 0.042312 -9.27624e-21)
(0.00870854 0.0541881 9.33446e-21)
(0.009426 0.0665935 0)
(0.0102827 0.0794488 0)
(0.0112759 0.0926817 -1.90058e-20)
(0.0124001 0.106225 1.90507e-20)
(0.0136485 0.120014 -1.91701e-20)
(0.0150129 0.133987 1.91858e-20)
(0.0164843 0.148084 1.93055e-20)
(0.0180526 0.162244 -3.86603e-20)
(0.0197077 0.176411 3.87626e-20)
(0.0214388 0.190525 8.29185e-23)
(0.0232351 0.204533 -1.94284e-20)
(0.0250855 0.218377 0)
(0.0269786 0.232006 1.96094e-20)
(0.0289037 0.245367 1.10715e-22)
(0.0308504 0.258413 -1.95776e-20)
(0.0328087 0.271096 0)
(0.0347688 0.283375 3.9549e-20)
(0.0367217 0.295209 -3.93605e-20)
(0.0386587 0.306561 0)
(0.0405731 0.317396 3.97669e-20)
(0.0424592 0.327683 -3.95478e-20)
(0.0443126 0.33739 0)
(0.0461304 0.346486 0)
(0.0479192 0.354938 0)
(0.0496905 0.362706 -4.00304e-20)
(0.0513217 0.369736 3.97739e-20)
(0.0526727 0.375959 4.57336e-20)
(0.00167111 -0.00650131 -2.92962e-20)
(0.00384778 -0.0144292 -3.19382e-20)
(0.00515772 -0.0181104 -4.09154e-21)
(0.00582916 -0.0185507 1.25396e-20)
(0.00607434 -0.0164416 -1.70419e-20)
(0.00604738 -0.0122764 1.73344e-20)
(0.00586855 -0.00643024 -1.75981e-20)
(0.00563069 0.000805574 -2.67616e-20)
(0.00540165 0.00920302 0)
(0.0052308 0.0185814 -9.12017e-21)
(0.00515273 0.028795 9.19996e-21)
(0.00519041 0.0397243 0)
(0.00535812 0.0512688 1.86936e-20)
(0.00566341 0.063342 -1.87904e-20)
(0.00610879 0.0758676 -5.67353e-20)
(0.00669282 0.0887756 -3.44436e-23)
(0.00741099 0.102001 3.81592e-20)
(0.00825755 0.115482 -1.913e-20)
(0.00922552 0.129158 0)
(0.0103068 0.142971 0)
(0.0114924 0.156863 3.86785e-20)
(0.0127732 0.170779 1.94227e-20)
(0.0141397 0.184662 -1.93909e-20)
(0.0155821 0.198457 -1.9518e-20)
(0.0170903 0.212112 3.90286e-20)
(0.018654 0.225573 -1.9502e-20)
(0.0202636 0.238792 3.92858e-20)
(0.0219097 0.251719 -7.8498e-20)
(0.0235833 0.264309 7.86336e-20)
(0.0252752 0.276519 -7.87643e-20)
(0.026977 0.28831 7.88897e-20)
(0.0286808 0.299644 -7.90089e-20)
(0.0303801 0.310485 3.94263e-20)
(0.0320695 0.3208 3.97484e-20)
(0.0337446 0.330559 2.76067e-22)
(0.0354021 0.339727 2.78728e-22)
(0.0370485 0.348272 -3.95974e-20)
(0.0386942 0.356155 1.88757e-22)
(0.0402077 0.36332 -3.96474e-20)
(0.0414445 0.369703 0)
(0.00179096 -0.00650912 3.66733e-21)
(0.00403903 -0.014475 -3.99738e-21)
(0.00525536 -0.0182477 1.22815e-20)
(0.00573711 -0.0188263 -1.67292e-20)
(0.00572287 -0.0168994 8.52532e-21)
(0.00538912 -0.0129546 0)
(0.00487097 -0.0073609 0)
(0.00427178 -0.00040374 3.56782e-20)
(0.00366692 0.0076944 4.51495e-20)
(0.00311092 0.0167577 -9.12082e-21)
(0.00264201 0.026645 4.60453e-20)
(0.00228582 0.0372403 -9.2781e-21)
(0.00205865 0.0484471 0)
(0.00196952 0.0601818 0)
(0.00202206 0.0723708 3.78169e-20)
(0.00221587 0.0849465 0)
(0.00254746 0.0978462 1.90809e-20)
(0.00301196 0.11101 -1.92003e-20)
(0.00360326 0.12438 0)
(0.00431412 0.1379 -3.85947e-20)
(0.00513653 0.151515 -1.92997e-20)
(0.00606229 0.165169 -5.81559e-20)
(0.00708291 0.178808 -1.94783e-20)
(0.00818948 0.19238 1.94365e-20)
(0.00937276 0.205832 3.90408e-20)
(0.0106236 0.219113 0)
(0.0119334 0.232174 3.91749e-20)
(0.0132936 0.244968 7.8583e-20)
(0.0146959 0.257449 2.29097e-22)
(0.016132 0.269576 -3.92366e-20)
(0.0175938 0.281308 -3.95331e-20)
(0.019074 0.292608 3.93341e-20)
(0.0205665 0.303439 3.96357e-20)
(0.0220661 0.313768 -7.90964e-20)
(0.0235681 0.323563 7.91691e-20)
(0.025069 0.33279 -3.9652e-20)
(0.0265746 0.341415 3.9507e-20)
(0.0280943 0.349403 7.93286e-20)
(0.0294883 0.356695 3.96103e-20)
(0.0306067 0.363232 4.52299e-20)
(0.00190322 -0.00648953 -2.93822e-20)
(0.00420985 -0.0144553 2.80102e-20)
(0.00532255 -0.0182951 -2.45914e-20)
(0.00560879 -0.0189966 2.51198e-20)
(0.00533337 -0.0172429 4.26635e-20)
(0.0046949 -0.013514 -3.47159e-20)
(0.00384294 -0.00817162 4.40506e-20)
(0.0028909 -0.00149417 2.67894e-20)
(0.00192122 0.006302 -6.32258e-20)
(0.000993204 0.0150464 1.82641e-20)
(0.000148355 0.0246025 9.2302e-21)
(-0.000585329 0.0348587 1.85803e-20)
(-0.00118987 0.0457219 1.87256e-20)
(-0.00165502 0.0571118 -3.76583e-20)
(-0.0019762 0.0689574 3.78681e-20)
(-0.00215294 0.0811938 5.70944e-20)
(-0.00218784 0.0937603 -5.72765e-20)
(-0.00208504 0.106599 7.67147e-20)
(-0.00184992 0.119655 3.85067e-20)
(-0.00148901 0.132874 5.79307e-20)
(-0.00100954 0.146201 1.94066e-20)
(-0.000418853 0.159583 3.87984e-20)
(0.000275422 0.172969 -3.89137e-20)
(0.0010652 0.186305 0)
(0.00194209 0.199543 -1.17246e-19)
(0.00289786 0.21263 7.8238e-20)
(0.00392475 0.225521 -3.89729e-20)
(0.00501516 0.238168 -3.90235e-20)
(0.00616133 0.250527 1.1163e-22)
(0.00735545 0.262556 0)
(0.00859006 0.274214 0)
(0.00985835 0.285465 3.94196e-20)
(0.0111544 0.296271 -3.95905e-20)
(0.0124731 0.3066 3.93723e-20)
(0.0138095 0.316418 -3.96508e-20)
(0.0151593 0.325691 -3.96781e-20)
(0.0165279 0.334386 0)
(0.0179232 0.342469 -3.94517e-20)
(0.0191978 0.349882 -3.93636e-20)
(0.0201955 0.356568 -1.35805e-19)
(0.00200617 -0.00644195 2.93819e-20)
(0.0043564 -0.0143694 -2.80081e-20)
(0.00535447 -0.0182524 3.27836e-20)
(0.00543909 -0.0190618 -5.86255e-20)
(0.00490097 -0.0174727 -4.26686e-20)
(0.00396034 -0.0139557 3.47158e-20)
(0.00278077 -0.00886375 -7.05035e-20)
(0.00148519 -0.0024673 -3.57151e-20)
(0.000162524 0.00502407 4.51786e-20)
(-0.00112353 0.0134456 -8.21906e-20)
(-0.00232855 0.0226659 -5.52974e-20)
(-0.00342254 0.0325779 -1.86039e-20)
(-0.00438616 0.0430919 -5.6151e-20)
(-0.00520814 0.054131 5.64838e-20)
(-0.00588316 0.0656269 -3.78682e-20)
(-0.00641006 0.0775171 -3.80556e-20)
(-0.00679069 0.0897434 0)
(-0.00702852 0.10225 -3.83731e-20)
(-0.00712841 0.114984 -5.77975e-20)
(-0.00709632 0.127893 1.92931e-20)
(-0.00693879 0.140923 -3.87328e-20)
(-0.00666242 0.154024 0)
(-0.00627407 0.167146 3.89139e-20)
(-0.0057811 0.180237 3.90924e-20)
(-0.00519115 0.193248 -3.90216e-20)
(-0.00451158 0.206131 0)
(-0.00374934 0.218839 0)
(-0.00291136 0.231326 0)
(-0.00200487 0.24355 1.1489e-23)
(-0.00103714 0.255467 0)
(-1.51656e-05 0.267038 -7.88727e-20)
(0.00105463 0.278226 -1.25111e-22)
(0.00216649 0.288995 -7.89906e-20)
(0.00331509 0.29931 7.89226e-20)
(0.00449504 0.309138 -3.93554e-20)
(0.00570146 0.318446 3.95151e-20)
(0.00693866 0.327202 0)
(0.00821304 0.335372 7.91315e-20)
(0.00937032 0.3429 -3.93502e-20)
(0.0102469 0.349731 0)
(0.00209806 -0.00636593 3.6782e-21)
(0.0044749 -0.014217 0)
(0.00534649 -0.0181195 -4.10329e-20)
(0.00522322 -0.0190222 5.02713e-20)
(0.00442122 -0.0175898 2.56321e-20)
(0.00318164 -0.0142812 -3.47551e-20)
(0.0016815 -0.00943903 3.52616e-20)
(5.25456e-05 -0.00332504 -3.57561e-20)
(-0.0016103 0.00385866 0)
(-0.00323944 0.0119536 3.65408e-20)
(-0.00478793 0.0208338 -3.69053e-20)
(-0.00622415 0.0303965 -2.74093e-23)
(-0.00752768 0.0405561 0)
(-0.0086865 0.0512387 3.77214e-20)
(-0.00969466 0.0623789 -1.89608e-20)
(-0.0105505 0.0739167 3.81654e-20)
(-0.0112553 0.0857962 1.91806e-20)
(-0.011812 0.0979641 -3.84522e-20)
(-0.012225 0.110369 0)
(-0.0124999 0.122959 5.80828e-20)
(-0.0126426 0.135685 1.94518e-20)
(-0.012659 0.148496 0)
(-0.0125553 0.161344 0)
(-0.0123383 0.17418 0)
(-0.0120149 0.186955 3.90947e-20)
(-0.0115916 0.199622 0)
(-0.0110747 0.212136 -3.93234e-20)
(-0.0104706 0.224452 7.85478e-20)
(-0.00978593 0.236526 -7.85157e-20)
(-0.00902762 0.248319 0)
(-0.00820221 0.259791 3.93795e-20)
(-0.00731585 0.270903 -3.941e-20)
(-0.00637432 0.281622 3.94321e-20)
(-0.00538322 0.291911 0)
(-0.00434851 0.301739 0)
(-0.00327599 0.311072 3.95596e-20)
(-0.00216267 0.31988 -3.93185e-20)
(-0.00100395 0.328131 7.90646e-20)
(4.00354e-05 0.33577 -7.85578e-20)
(0.000796732 0.342745 0)
(0.0021771 -0.00626122 2.57895e-20)
(0.00456161 -0.013998 8.02015e-21)
(0.00529414 -0.017897 3.28285e-20)
(0.00495672 -0.0188791 3.35518e-20)
(0.00389012 -0.0175958 -3.41728e-20)
(0.00235558 -0.0144923 3.47552e-20)
(0.00054281 -0.0098996 3.53022e-20)
(-0.0014083 -0.00406961 3.57562e-20)
(-0.00339749 0.0028036 0)
(-0.00535375 0.0105683 3.65889e-20)
(-0.00722801 0.0191042 3.69054e-20)
(-0.00898741 0.0283132 3.72095e-20)
(-0.0106108 0.0381134 0)
(-0.0120855 0.0484344 3.64318e-23)
(-0.0134053 0.0592134 3.79367e-20)
(-0.014568 0.0703932 -1.90338e-20)
(-0.0155746 0.0819199 -1.90949e-20)
(-0.0164277 0.0937425 5.7716e-20)
(-0.0171312 0.105811 5.53918e-23)
(-0.0176904 0.118076 -1.92866e-20)
(-0.0181108 0.13049 -3.88162e-20)
(-0.0183976 0.143003 0)
(-0.0185566 0.155569 0)
(-0.0185938 0.16814 0)
(-0.0185155 0.180669 0)
(-0.0183276 0.193111 0)
(-0.0180358 0.205419 0)
(-0.0176458 0.217552 3.94062e-20)
(-0.0171641 0.229467 -3.92425e-20)
(-0.016597 0.241124 0)
(-0.0159506 0.252483 0)
(-0.0152312 0.263509 3.94103e-20)
(-0.0144446 0.274166 0)
(-0.0135967 0.284419 3.95388e-20)
(-0.0126944 0.294237 -3.93125e-20)
(-0.0117445 0.303586 0)
(-0.0107458 0.312439 7.90125e-20)
(-0.00969568 0.320766 -7.85179e-20)
(-0.00875915 0.328512 0)
(-0.00811931 0.335629 0)
(0.00224156 -0.00612777 -2.94695e-20)
(0.0046129 -0.0137128 -8.02372e-21)
(0.0051932 -0.0175859 8.21601e-21)
(0.00463549 -0.018634 -3.35518e-20)
(0.00330418 -0.0174928 0)
(0.00147956 -0.0145915 0)
(-0.000636872 -0.010248 -2.64734e-20)
(-0.00289786 -0.00470355 -8.94635e-21)
(-0.00519844 0.00185651 -1.81128e-20)
(-0.00746474 0.0092877 -1.82925e-20)
(-0.00964601 0.0174755 -1.84813e-20)
(-0.0117085 0.0263266 1.86193e-20)
(-0.0136306 0.0357631 1.87709e-20)
(-0.0153994 0.0457178 -1.88827e-20)
(-0.0170083 0.0561309 0)
(-0.018455 0.0669475 0)
(-0.0197402 0.0781162 -3.83452e-20)
(-0.0208662 0.0895879 0)
(-0.0218369 0.101314 0)
(-0.022657 0.113248 3.89073e-20)
(-0.0233318 0.125342 1.33605e-22)
(-0.0238659 0.137551 1.0083e-22)
(-0.0242647 0.149827 -3.91543e-20)
(-0.0245336 0.162125 3.90703e-20)
(-0.0246784 0.174399 3.92439e-20)
(-0.0247041 0.186605 -3.92973e-20)
(-0.024616 0.198698 0)
(-0.0244196 0.210638 3.94487e-20)
(-0.0241207 0.222383 1.98167e-22)
(-0.0237253 0.233892 -3.93063e-20)
(-0.0232393 0.245129 0)
(-0.022669 0.256056 0)
(-0.0220204 0.266641 3.95424e-20)
(-0.0213001 0.276848 -3.93245e-20)
(-0.0205157 0.286646 -3.95235e-20)
(-0.0196756 0.296004 3.92896e-20)
(-0.0187805 0.304895 0)
(-0.0178301 0.313294 0)
(-0.0169933 0.321146 0)
(-0.0164655 0.328406 -4.50051e-20)
(0.0022897 -0.00596578 3.69022e-20)
(0.00462527 -0.0133625 -1.60635e-20)
(0.00503973 -0.0171878 8.2218e-21)
(0.00425587 -0.0182892 0)
(0.00266044 -0.0172834 4.27862e-20)
(0.000551583 -0.0145815 5.75311e-25)
(-0.00185842 -0.0104871 3.53451e-20)
(-0.00441583 -0.00522969 -2.68606e-20)
(-0.00701167 0.00101482 3.62431e-20)
(-0.00956979 0.0081095 -1.83094e-20)
(-0.0120382 0.0159458 0)
(-0.0143827 0.0244355 1.86553e-20)
(-0.0165814 0.0335045 -5.63218e-20)
(-0.0186214 0.0430891 0)
(-0.0204959 0.0531321 5.71062e-20)
(-0.0222028 0.0635813 -3.82267e-20)
(-0.0237425 0.0743875 -3.8423e-20)
(-0.0251173 0.0855033 1.92649e-20)
(-0.0263308 0.0968824 0)
(-0.0273877 0.108479 -3.88167e-20)
(-0.0282927 0.120248 -3.9027e-20)
(-0.0290503 0.132145 -3.89649e-23)
(-0.0296652 0.144124 3.91744e-20)
(-0.0301426 0.156141 3.92952e-20)
(-0.0304873 0.168152 -7.84367e-20)
(-0.0307041 0.180114 3.92976e-20)
(-0.0307977 0.191984 0)
(-0.0307733 0.20372 -3.94379e-20)
(-0.0306361 0.215284 3.94628e-20)
(-0.0303919 0.226636 3.94795e-20)
(-0.0300466 0.23774 -3.94878e-20)
(-0.0296064 0.248559 3.94875e-20)
(-0.0290777 0.259061 0)
(-0.0284678 0.269212 3.95482e-20)
(-0.0277853 0.278983 7.9162e-20)
(-0.0270406 0.288342 -7.85828e-20)
(-0.0262365 0.297267 7.89106e-20)
(-0.0253753 0.305734 3.87151e-22)
(-0.0246287 0.313693 -3.90667e-20)
(-0.0242062 0.321096 9.00438e-20)
(0.00231984 -0.00577569 -2.21465e-20)
(0.00459539 -0.0129483 -4.82316e-20)
(0.00483012 -0.0167049 3.29168e-20)
(0.00381463 -0.0178474 -2.52087e-20)
(0.00195651 -0.0169708 -8.542e-21)
(-0.000429667 -0.0144658 8.70584e-21)
(-0.00312198 -0.0106203 -1.76644e-20)
(-0.00596113 -0.00565108 -1.79145e-20)
(-0.0088349 0.000275795 1.81387e-20)
(-0.0116654 0.00703144 -3.66583e-20)
(-0.0144 0.0145136 -1.72865e-23)
(-0.0170042 0.0226388 1.86516e-20)
(-0.0194563 0.0313373 0)
(-0.0217435 0.0405485 -1.89483e-20)
(-0.0238594 0.0502181 -1.90389e-20)
(-0.0258016 0.0602965 3.82682e-20)
(-0.0275708 0.0707364 0)
(-0.0291693 0.0814924 0)
(-0.0306006 0.0925199 3.88443e-20)
(-0.0318693 0.103775 -3.88494e-20)
(-0.0329797 0.115214 0)
(-0.033936 0.126793 3.91986e-20)
(-0.0347426 0.138469 -3.90205e-20)
(-0.0354042 0.150199 -7.857e-20)
(-0.0359252 0.161939 -1.682e-22)
(-0.0363097 0.173649 3.93613e-20)
(-0.0365622 0.185286 -7.8825e-20)
(-0.0366872 0.196811 3.94382e-20)
(-0.0366899 0.208185 -3.94631e-20)
(-0.0365757 0.21937 1.24536e-22)
(-0.0363502 0.230331 7.24757e-23)
(-0.03602 0.241032 -3.94878e-20)
(-0.035592 0.251442 -3.952e-20)
(-0.0350742 0.261529 -3.94942e-20)
(-0.0344764 0.271264 2.52817e-23)
(-0.033811 0.280619 0)
(-0.0330838 0.289572 -3.93617e-20)
(-0.0322994 0.298105 7.87728e-20)
(-0.0316317 0.30617 -1.175e-19)
(-0.0313059 0.31372 3.77218e-22)
(0.00233036 -0.00555816 -7.39236e-21)
(0.00452016 -0.0124722 6.43334e-20)
(0.00456111 -0.0161398 -3.29145e-20)
(0.00330906 -0.0173119 2.52059e-20)
(0.00119059 -0.0165585 -6.85153e-20)
(-0.00146484 -0.0142481 8.71046e-21)
(-0.00442695 -0.0106511 -3.53842e-20)
(-0.00753191 -0.00597103 0)
(-0.010665 -0.000363395 0)
(-0.0137473 0.00605123 -3.66992e-20)
(-0.0167259 0.013177 1.85304e-20)
(-0.0195664 0.0209356 1.61703e-23)
(-0.0222477 0.0292613 1.88104e-20)
(-0.0247572 0.0380967 0)
(-0.0270889 0.0473906 -5.72571e-20)
(-0.0292407 0.0570955 1.91528e-20)
(-0.0312135 0.0671664 -3.85653e-20)
(-0.0330097 0.0775596 0)
(-0.0346329 0.0882322 0)
(-0.0360874 0.0991418 3.10143e-23)
(-0.0373774 0.110246 -3.90287e-20)
(-0.038507 0.121503 3.9238e-20)
(-0.0394802 0.132871 -3.93654e-20)
(-0.0403012 0.144308 3.9281e-20)
(-0.0409739 0.155772 4.35292e-23)
(-0.0415021 0.167222 4.7438e-23)
(-0.0418897 0.178619 3.94759e-20)
(-0.0421412 0.189925 -3.9583e-20)
(-0.0422611 0.2011 0)
(-0.0422546 0.212109 -3.96671e-20)
(-0.0421275 0.222917 3.94781e-20)
(-0.0418864 0.233492 0)
(-0.0415388 0.243801 3.95203e-20)
(-0.0410935 0.253816 -3.97214e-20)
(-0.040562 0.263508 3.93033e-20)
(-0.0399587 0.272852 0)
(-0.0392926 0.28183 1.1828e-19)
(-0.0385711 0.290426 -7.84236e-20)
(-0.0379689 0.298599 0)
(-0.0377295 0.306297 4.50368e-20)
(0.00231975 -0.00531405 5.92165e-20)
(0.00439674 -0.0119362 -3.21777e-20)
(0.00422985 -0.0154958 -8.23422e-21)
(0.00273696 -0.0166866 8.41077e-21)
(0.000361516 -0.0160508 3.42667e-20)
(-0.00255389 -0.0139323 0)
(-0.00577202 -0.0105834 3.53844e-20)
(-0.00912552 -0.00619302 5.38344e-20)
(-0.0124981 -0.000905703 1.81535e-20)
(-0.0158103 0.00516658 1.83334e-20)
(-0.0190095 0.0119346 1.85268e-20)
(-0.0220619 0.0193252 -5.60911e-20)
(-0.0249469 0.0272765 1.88304e-20)
(-0.0276528 0.0357348 7.5957e-20)
(-0.0301739 0.0446515 1.90479e-20)
(-0.0325086 0.0539814 1.91801e-20)
(-0.034658 0.0636816 3.85656e-20)
(-0.036625 0.07371 0)
(-0.0384132 0.0840255 0)
(-0.0400268 0.0945871 7.81414e-20)
(-0.0414699 0.105354 -1.56779e-19)
(-0.0427464 0.116286 -3.42235e-23)
(-0.0438602 0.127341 0)
(-0.044815 0.13848 0)
(-0.0456142 0.149662 3.94651e-20)
(-0.0462613 0.160847 0)
(-0.0467599 0.171998 0)
(-0.0471139 0.183076 -3.97511e-20)