/*--------------------------------*- C++ -*----------------------------------*\
  =========                 |
  \\      /  F ield         | OpenFOAM: The Open Source CFD Toolbox
   \\    /   O peration     | Website:  https://openfoam.org
    \\  /    A nd           | Version:  7
     \\/     M anipulation  |
\*---------------------------------------------------------------------------*/
FoamFile
{
    version     2.0;
    format      ascii;
    class       volScalarField;
    location    "62.3";
    object      p;
}
// * * * * * * * * * * * * * * * * * * * * * * * * * * * * * * * * * * * * * //

dimensions      [0 2 -2 0 0 0 0];

internalField   nonuniform List<scalar> 
2000
(
0.0169
0.0169983
0.0172164
0.0174643
0.0177045
0.0179226
0.0181185
0.0183017
0.0184825
0.0186963
0.0171291
0.0172379
0.0174747
0.0177505
0.0180216
0.0182675
0.0184815
0.0186663
0.0188256
0.0189872
0.0173135
0.0174487
0.0177087
0.0180151
0.0183198
0.0185972
0.0188345
0.0190291
0.0191786
0.0192956
0.0174491
0.0176296
0.0179167
0.0182552
0.0185941
0.0189037
0.0191672
0.0193774
0.0195285
0.0196107
0.0175364
0.0177831
0.0180987
0.0184688
0.0188393
0.0191786
0.0194671
0.0196957
0.0198582
0.0199176
0.0175818
0.0179117
0.0182571
0.0186556
0.0190518
0.019414
0.0197219
0.0199661
0.0201456
0.0201957
0.0175948
0.0180213
0.018396
0.0188168
0.0192296
0.0196038
0.0199205
0.0201718
0.020366
0.0204185
0.0175882
0.0181204
0.0185208
0.0189555
0.0193724
0.0197442
0.0200551
0.0203003
0.0205009
0.0205643
0.0175787
0.0182184
0.0186385
0.0190755
0.0194814
0.0198333
0.0201213
0.0203471
0.0205492
0.0206358
0.0175854
0.0183256
0.0187565
0.0191822
0.0195592
0.0198704
0.0201133
0.0202991
0.0204845
0.0206005
0.0194994
0.0215968
0.0244463
0.0277901
0.0310729
0.0345738
0.0372841
0.0404477
0.041422
0.043245
0.0196253
0.0213203
0.0237833
0.0268332
0.0298719
0.0331639
0.0356932
0.0386729
0.0396982
0.0413337
0.0197385
0.0211033
0.0231533
0.0259115
0.0287209
0.0318189
0.0341859
0.037022
0.0380301
0.039551
0.0198209
0.0209522
0.0225612
0.025033
0.027624
0.0305368
0.0327632
0.0354708
0.0364406
0.0378978
0.0198558
0.0208606
0.0220111
0.0242059
0.0265859
0.029323
0.0314278
0.0340189
0.0349575
0.0363726
0.0198324
0.0208024
0.0215067
0.0234346
0.0256056
0.0281718
0.0301629
0.0326437
0.0335625
0.034958
0.0197486
0.0207337
0.0210515
0.0227239
0.0246933
0.0270999
0.0289905
0.0313721
0.032277
0.0336527
0.0196035
0.0206005
0.0206485
0.0220623
0.0238238
0.0260661
0.0278584
0.0301415
0.031044
0.0324323
0.0193997
0.0203389
0.0202897
0.0214892
0.0230715
0.0251589
0.0268629
0.0290418
0.0299301
0.0313056
0.0193244
0.0200547
0.0199163
0.0208465
0.0222325
0.0241568
0.0257899
0.0278704
0.0288023
0.030223
0.0206307
0.0212477
0.0211409
0.0212934
0.021934
0.0231471
0.0243927
0.0259286
0.0267661
0.0278051
0.0177423
0.0186428
0.0191166
0.0195085
0.0200653
0.0209079
0.0218043
0.0228752
0.0234995
0.0241646
0.0150147
0.016109
0.0167786
0.017244
0.0177757
0.0184837
0.0191641
0.0199475
0.0203519
0.0207925
0.0120143
0.0133374
0.0143014
0.0149384
0.0154481
0.0160586
0.0166061
0.0172118
0.0174601
0.017752
0.00885559
0.0102994
0.0116046
0.0125325
0.0131424
0.0137025
0.0141411
0.0146038
0.0147519
0.0149588
0.0058192
0.00728755
0.00880615
0.0099686
0.0107356
0.0113322
0.0117433
0.0121188
0.012201
0.0123304
0.00319777
0.00457739
0.00615869
0.00745611
0.00831587
0.00890683
0.00927422
0.00958865
0.00964242
0.00973052
0.00122388
0.00235791
0.00376996
0.00503549
0.00591775
0.00649397
0.00680939
0.00704666
0.00705727
0.00710239
7.37664e-05
0.000869211
0.00193084
0.00290087
0.00356918
0.00399303
0.00420267
0.00437134
0.00434399
0.0043699
-0.000821158
-0.000248827
0.000408832
0.000976603
0.00133174
0.00152484
0.00156288
0.00163017
0.00155176
0.001541
0.0195607
0.0166652
0.013936
0.0109714
0.00795368
0.00508718
0.00265725
0.000826455
-5.62232e-05
-0.00110061
0.0189517
0.016019
0.013281
0.0103467
0.00741222
0.00465618
0.00235844
0.000645357
-9.98569e-05
-0.00112754
0.0182237
0.0153893
0.0126757
0.00979269
0.00694394
0.00429407
0.00211874
0.000518966
-0.00015058
-0.000989598
0.0175503
0.0148632
0.0121762
0.00935072
0.00658762
0.00403893
0.00196889
0.000470835
-0.000156362
-0.000824076
0.0169845
0.0144341
0.0117734
0.0090042
0.00632307
0.00387063
0.0018977
0.000483759
-0.000118482
-0.000660754
0.0165609
0.0141075
0.0114725
0.0087509
0.00615227
0.00378626
0.00189502
0.000548859
-4.60478e-05
-0.000503198
0.0162959
0.0138854
0.0112749
0.00859874
0.00607062
0.00377968
0.00195589
0.000659566
5.41786e-05
-0.000355056
0.016192
0.0137676
0.0111811
0.008539
0.00607255
0.0038442
0.00207291
0.000808129
0.000176069
-0.000219365
0.016237
0.0137524
0.0111847
0.00856596
0.00615063
0.00397145
0.00223712
0.000986381
0.00031367
-9.71069e-05
0.0164064
0.0138313
0.0112769
0.0086707
0.0062948
0.0041515
0.00243896
0.00118647
0.000461564
1.22687e-05
0.0166707
0.0139871
0.0114415
0.00883898
0.00649164
0.00437266
0.00266847
0.00140108
0.000615106
0.00010999
0.0170071
0.0142053
0.0116655
0.0090597
0.00673037
0.00462554
0.00291761
0.00162444
0.000770813
0.000197453
0.0173998
0.0144768
0.0119399
0.00932574
0.00700323
0.00490319
0.0031803
0.00185235
0.000926304
0.000276144
0.0178335
0.014793
0.0122543
0.00962947
0.00730251
0.00519914
0.00345146
0.00208161
0.00108005
0.000347413
0.0182954
0.0151475
0.0125999
0.00996437
0.00762183
0.00550805
0.00372723
0.00231001
0.00123119
0.000412439
0.0187745
0.0155363
0.0129684
0.0103245
0.00795606
0.0058256
0.00400481
0.00253609
0.00137938
0.000472248
0.019255
0.0159522
0.0133508
0.0107033
0.00830046
0.006148
0.00428211
0.00275889
0.00152463
0.000527794
0.019728
0.0163999
0.0137501
0.0111025
0.00865712
0.00647622
0.00455997
0.00297912
0.0016677
0.000580122
0.0202422
0.01694
0.0142061
0.0115499
0.00904618
0.00682277
0.0048458
0.00320073
0.00181071
0.000629706
0.0206612
0.0174899
0.0146535
0.0119904
0.00943133
0.00715981
0.00512348
0.00341445
0.00195016
0.000673309
0.0200914
0.0178161
0.0151235
0.0125708
0.0100438
0.00774699
0.00565995
0.00385001
0.00224851
0.000772198
0.0199558
0.0177015
0.015127
0.0127246
0.0103031
0.00809077
0.00602861
0.00419831
0.00251199
0.000891057
0.0204951
0.0181784
0.0155633
0.0131719
0.0107348
0.00850814
0.00640188
0.00452055
0.00275377
0.00101169
0.0213455
0.0188332
0.0161137
0.0136665
0.0111784
0.00890902
0.006746
0.00481725
0.00299129
0.00114923
0.0225475
0.0197272
0.0168315
0.0142535
0.0116669
0.00931645
0.00708369
0.00511177
0.00324253
0.00130783
0.0240373
0.0208457
0.0177195
0.0149404
0.0122167
0.0097518
0.00744019
0.00541665
0.00350411
0.00146843
0.0256737
0.0220996
0.0187147
0.0156929
0.0128123
0.0102142
0.00781872
0.00572143
0.00372979
0.00156566
0.0272685
0.0232881
0.0196526
0.0164084
0.0133926
0.010675
0.00819395
0.00598326
0.00385539
0.00155151
0.0285089
0.0242529
0.0204171
0.0169901
0.0138677
0.0110591
0.00849873
0.00615708
0.00387061
0.00145518
0.0292968
0.024757
0.0207957
0.0172863
0.0141236
0.0112771
0.0086727
0.00624298
0.00384929
0.00137289
0.0216812
0.0216492
0.0222639
0.0232147
0.024607
0.0262856
0.02814
0.0300045
0.0315291
0.0325309
0.0220306
0.0222701
0.0230397
0.0241258
0.0256634
0.0274609
0.02942
0.0313484
0.0329134
0.0338868
0.0221581
0.0227109
0.0237368
0.0250713
0.0268336
0.0288194
0.0309297
0.03292
0.0344703
0.0353421
0.0223742
0.0231546
0.0243878
0.0259542
0.0279244
0.0301
0.0323818
0.0344876
0.0360877
0.0369428
0.0226799
0.0236937
0.0251031
0.0268617
0.0290022
0.0313398
0.0337799
0.0360256
0.0377317
0.0386502
0.0230152
0.0242962
0.0259044
0.0278515
0.0301517
0.0326373
0.0352187
0.0375969
0.0394191
0.0404255
0.0233718
0.0249285
0.0267667
0.0289183
0.0313913
0.0340336
0.0367548
0.039254
0.041177
0.0422575
0.0237645
0.0255887
0.0276754
0.0300417
0.0327043
0.0355199
0.0383919
0.0410107
0.0430197
0.0441529
0.0242024
0.0262821
0.0286307
0.0312117
0.0340755
0.0370773
0.0401129
0.0428582
0.0449486
0.0461209
0.0246885
0.0270061
0.0296342
0.0324239
0.0354989
0.0386938
0.0419038
0.0447845
0.0469598
0.0481664
0.0252254
0.0277503
0.0306835
0.0336712
0.0369713
0.0403637
0.0437582
0.0467832
0.0490498
0.0502907
0.0258104
0.0285006
0.0317701
0.0349421
0.0384858
0.0420803
0.0456717
0.0488512
0.0512173
0.0524939
0.026424
0.029248
0.032872
0.0362276
0.0400307
0.0438403
0.0476423
0.0509881
0.0534657
0.0547796
0.0270324
0.0299928
0.0339598
0.0375245
0.0415893
0.0456369
0.0496629
0.0531932
0.0558018
0.0571563
0.0275876
0.0307396
0.0349829
0.0388502
0.0431576
0.0474659
0.0517321
0.0554622
0.0582129
0.0596183
0.0280334
0.0314979
0.0359713
0.0401344
0.0447063
0.0492991
0.0538294
0.0577808
0.0606901
0.0621611
0.0283928
0.0322075
0.0369022
0.0413582
0.0462242
0.051129
0.0559521
0.0601494
0.0632363
0.0647896
0.0286273
0.0328346
0.0377346
0.0424964
0.0476715
0.0529123
0.0580607
0.0625412
0.065839
0.0675
0.028715
0.0334042
0.0384944
0.0435875
0.0490899
0.0546921
0.060189
0.064977
0.0685096
0.0703065
0.0284732
0.0337175
0.038974
0.0443889
0.0502185
0.0562165
0.0621335
0.0673277
0.0711879
0.0731852
0.0294976
0.0360634
0.0417275
0.0477814
0.0542377
0.0609452
0.0675877
0.0735084
0.0779843
0.0803953
0.0360457
0.042434
0.0484525
0.0554976
0.0630197
0.0708862
0.0786482
0.0855298
0.0907022
0.0934465
0.0432299
0.0500463
0.0568251
0.0650008
0.0736536
0.0827498
0.0915929
0.0993129
0.105044
0.108094
0.0508596
0.058421
0.0663421
0.0758139
0.0857419
0.0961892
0.106078
0.11455
0.120713
0.123886
0.0589371
0.0674569
0.076702
0.0875473
0.0988458
0.110683
0.12154
0.130682
0.137162
0.140558
0.067603
0.0771501
0.0878439
0.100078
0.112783
0.125956
0.137686
0.147388
0.153906
0.156941
0.0762807
0.0869811
0.0990354
0.112543
0.126594
0.140905
0.153424
0.163548
0.169856
0.172881
0.0848584
0.0963939
0.10969
0.124418
0.139787
0.155092
0.168523
0.179165
0.184943
0.185782
0.0906549
0.103234
0.117516
0.133186
0.149568
0.165605
0.179866
0.190798
0.195681
0.198137
0.0954123
0.108298
0.123262
0.139673
0.156914
0.173821
0.189659
0.203118
0.210325
0.195659
0.0274211
0.0336119
0.0398838
0.0469578
0.0542212
0.0624449
0.0703149
0.0787649
0.0838138
0.0885477
0.0268465
0.0332987
0.0394402
0.0463283
0.0533166
0.0612897
0.0687699
0.0769426
0.0814233
0.0860412
0.0266786
0.0334399
0.0396549
0.0464551
0.0533147
0.0610461
0.0681521
0.0758151
0.0796852
0.0839509
0.0263889
0.0332598
0.0394873
0.0462146
0.0529734
0.0605137
0.0673141
0.0745721
0.0781055
0.081985
0.026043
0.0328975
0.039053
0.045696
0.0523101
0.059638
0.0661637
0.0731222
0.0765157
0.0800937
0.0256965
0.032514
0.0386034
0.0451422
0.0516287
0.058709
0.0649812
0.0716598
0.0749826
0.0783361
0.0253443
0.0321301
0.0381991
0.0446329
0.0510386
0.057887
0.0639665
0.0703372
0.0736267
0.0767768
0.0249876
0.0317429
0.0378213
0.0441809
0.0505228
0.0571824
0.0631629
0.0691831
0.0725232
0.0754404
0.0246391
0.0313675
0.0374669
0.0437831
0.0500693
0.0566006
0.0625036
0.0682526
0.0716383
0.0743231
0.0243155
0.0310224
0.0371503
0.0434469
0.049691
0.0561407
0.0619694
0.0675428
0.070934
0.0734472
0.0240331
0.0307203
0.0368864
0.0431843
0.0494062
0.0558065
0.0615763
0.0670359
0.0704115
0.0728173
0.0237876
0.0304558
0.0366759
0.0429967
0.0492214
0.0556018
0.0613411
0.0667233
0.0700844
0.0724254
0.0235595
0.0302148
0.036511
0.0428787
0.0491345
0.0555287
0.0612714
0.0666064
0.0699646
0.0722632
0.0233372
0.0299952
0.0363892
0.0428276
0.049143
0.0555872
0.0613653
0.0666854
0.0700511
0.0723238
0.0231077
0.0297983
0.0363078
0.0428402
0.0492459
0.0557769
0.0616221
0.0669623
0.0703443
0.0726057
0.0228471
0.0296212
0.0362568
0.0429077
0.049436
0.0560865
0.0620316
0.0674256
0.0708285
0.0731069
0.0225234
0.0294575
0.036224
0.0430233
0.0497115
0.0565172
0.0626025
0.0680802
0.071511
0.0738339
0.0220953
0.0292813
0.0361772
0.0431537
0.0500334
0.0570258
0.0632947
0.0688893
0.0723529
0.0747861
0.0215566
0.0291156
0.0361477
0.0433341
0.0504448
0.0576605
0.0641543
0.0698895
0.0733974
0.0759771
0.0206733
0.0286984
0.0358938
0.0433113
0.0506761
0.0581545
0.0649543
0.0709236
0.0745224
0.0773937
0.021743
0.0300263
0.037329
0.045072
0.0529163
0.0608074
0.0681126
0.0744121
0.0782848
0.0814304
0.0276717
0.0356481
0.0429898
0.0513745
0.0600005
0.0687985
0.0770654
0.0840914
0.0886393
0.0915074
0.0344279
0.0427335
0.0507226
0.0601246
0.0698249
0.0799033
0.0894062
0.0974442
0.10274
0.105585
0.0414294
0.0504432
0.0596097
0.070454
0.0817096
0.0936331
0.104861
0.114487
0.121062
0.124518
0.0485384
0.0585513
0.0692345
0.0817989
0.0950299
0.109309
0.122863
0.134988
0.143916
0.149097
0.0558168
0.0670095
0.0794932
0.0939559
0.109542
0.126603
0.143243
0.159195
0.172605
0.182049
0.0624895
0.0751225
0.0893578
0.105771
0.123955
0.144052
0.164803
0.186535
0.20758
0.226516
0.0691004
0.0828636
0.0987795
0.1172
0.138067
0.161524
0.187588
0.217609
0.251956
0.290934
0.0722236
0.0867948
0.103826
0.123704
0.147008
0.174368
0.207458
0.249303
0.305515
0.38057
0.0754468
0.0917049
0.110268
0.132257
0.158944
0.191733
0.233764
0.291267
0.378676
0.502946
0.0200686
0.0254396
0.0309814
0.0370865
0.0430535
0.0498173
0.0553475
0.061734
0.0644733
0.0664706
0.0195426
0.0249008
0.0302938
0.036093
0.0416601
0.0481222
0.0531774
0.0593572
0.0617451
0.0640755
0.0193901
0.0247495
0.0300954
0.0357093
0.0410373
0.047147
0.0518066
0.0575579
0.0595083
0.0626691
0.0192727
0.0244243
0.0295772
0.0349904
0.0400893
0.045872
0.0502054
0.0555491
0.0571539
0.0607059
0.0191924
0.0239897
0.02883
0.0340132
0.0388109
0.0442449
0.0482583
0.05326
0.0545818
0.0580388
0.0191614
0.0235471
0.0280626
0.0329606
0.0374682
0.0425179
0.0462015
0.0508946
0.0519542
0.0550877
0.0191682
0.0231156
0.0273209
0.0318821
0.0361779
0.0408368
0.0442186
0.0486209
0.0494445
0.0522506
0.0192079
0.0226949
0.0265869
0.030825
0.034886
0.0392056
0.0423682
0.0464711
0.0471375
0.0496943
0.0192794
0.0222937
0.0258561
0.0297908
0.0335936
0.0376008
0.0406311
0.0443924
0.045054
0.0473982
0.0193791
0.021924
0.0251389
0.0287772
0.0323173
0.036052
0.0389381
0.0423599
0.043186
0.0452689
0.01763
0.0184537
0.018884
0.0192827
0.019612
0.01986
0.02003
0.0201324
0.0201902
0.0201395
0.0177412
0.0186177
0.0190322
0.0193875
0.0196519
0.0198193
0.0198996
0.0199065
0.0198641
0.0197304
0.0179366
0.0188284
0.0192121
0.0195092
0.0196949
0.0197701
0.0197512
0.0196574
0.0195233
0.0193192
0.0182349
0.0190986
0.0194368
0.0196631
0.0197604
0.0197368
0.0196152
0.0194201
0.0191934
0.0189097
0.0186528
0.0194414
0.0197203
0.0198657
0.0198687
0.0197445
0.0195216
0.0192288
0.0189108
0.0185403
0.0192022
0.019868
0.0200753
0.0201323
0.0200384
0.0198155
0.019496
0.0191118
0.0187061
0.0182498
0.0198889
0.0203866
0.0205115
0.0204745
0.0202833
0.0199654
0.0195558
0.0190876
0.0186003
0.0180669
0.0207111
0.0210005
0.0210334
0.0208981
0.0206102
0.0202017
0.0197091
0.0191641
0.0186022
0.0180005
0.0216577
0.0217061
0.0216385
0.0214012
0.0210177
0.020523
0.0199534
0.0193406
0.0187119
0.0180422
0.0226989
0.0224865
0.0223146
0.0219734
0.0214959
0.0209196
0.0202797
0.0196056
0.0189177
0.0181979
0.0237791
0.0233151
0.0230401
0.0225964
0.0220282
0.0213753
0.0206714
0.0199425
0.0192042
0.0184477
0.024916
0.0241837
0.0237981
0.0232499
0.0225931
0.0218687
0.0211073
0.020331
0.0195518
0.0187702
0.0260561
0.0250539
0.0245567
0.0239059
0.0231656
0.0223764
0.0215651
0.0207494
0.0199397
0.0191444
0.0271465
0.0258865
0.025282
0.0245349
0.023719
0.0228738
0.0220217
0.0211759
0.0203465
0.0195496
0.0281389
0.0266427
0.0259399
0.0251069
0.0242266
0.0233368
0.0224549
0.0215895
0.0207523
0.0199666
0.0289864
0.027284
0.0264975
0.0255937
0.0246639
0.0237435
0.0228447
0.0219716
0.0211389
0.0203784
0.0296458
0.0277751
0.0269252
0.0259709
0.02501
0.0240755
0.0231745
0.0223068
0.0214905
0.0207676
0.0300807
0.0280857
0.0271985
0.0262186
0.0252487
0.0243191
0.0234326
0.0225839
0.0217922
0.0211133
0.0302629
0.0281928
0.0272992
0.0263232
0.0253693
0.0244656
0.023611
0.022792
0.0220224
0.0213878
0.0301745
0.0280816
0.0272163
0.0262777
0.0253685
0.0245144
0.0237098
0.0229287
0.0221761
0.0215902
0.0298064
0.0277453
0.0269453
0.0260804
0.0252491
0.0244779
0.0237654
0.0230952
0.0224932
0.0221211
0.0291526
0.0271822
0.0264861
0.0257307
0.0250076
0.0243431
0.0237389
0.0231854
0.0227041
0.0224031
0.028229
0.0264042
0.0258469
0.0252332
0.024644
0.0241045
0.0236186
0.0231811
0.0228037
0.0225435
0.027061
0.0254307
0.0250421
0.0245985
0.0241666
0.0237707
0.0234173
0.0231061
0.0228431
0.0226582
0.0256823
0.0242876
0.024092
0.0238429
0.0235896
0.0233553
0.0231501
0.0229777
0.0228415
0.0227594
0.0241339
0.0230069
0.0230221
0.0229871
0.0229307
0.0228741
0.0228311
0.0228093
0.0228108
0.0228467
0.0224621
0.0216248
0.0218611
0.0220544
0.0222095
0.0223441
0.0224755
0.0226146
0.0227641
0.022931
0.020715
0.020179
0.0206396
0.0210694
0.0214462
0.0217825
0.0220977
0.0224066
0.0227135
0.023024
0.0189411
0.0187066
0.0193877
0.0200559
0.0206601
0.0212049
0.021711
0.022196
0.0226676
0.0231327
0.0172003
0.0172475
0.0181354
0.0190367
0.0198686
0.0206249
0.0213257
0.0219911
0.0226321
0.0232602
0.0155751
0.0158545
0.0169189
0.018037
0.0190897
0.0200552
0.0209509
0.0217977
0.0226097
0.0234064
0.0140034
0.0145167
0.0157448
0.0170667
0.0183318
0.0195019
0.0205902
0.021617
0.0225979
0.0235649
0.0125322
0.0132659
0.0146327
0.0161402
0.0176047
0.0189705
0.0202454
0.0214478
0.0225913
0.0237222
0.0111984
0.0121266
0.0136002
0.0152683
0.0169151
0.0184635
0.0199157
0.0212863
0.0225831
0.0238586
0.0100167
0.0111085
0.0126622
0.0144616
0.0162658
0.0179817
0.0195987
0.0211274
0.0225695
0.0239542
0.00899535
0.0102199
0.0118248
0.0137237
0.0156608
0.017525
0.019292
0.0209645
0.0225336
0.0240439
0.00813789
0.00946523
0.0110921
0.0130578
0.0151008
0.0170918
0.0189934
0.0207982
0.0224808
0.0240874
0.00744294
0.00884439
0.0104659
0.012466
0.0145851
0.01668
0.0186995
0.0206266
0.0224127
0.0240821
0.00690509
0.00835407
0.00994562
0.0119482
0.0141128
0.016287
0.0184075
0.0204513
0.0223486
0.0240659
0.00651648
0.00798868
0.00952879
0.0115032
0.0136818
0.0159081
0.0181076
0.0202562
0.0222924
0.0240994
0.00626476
0.00773945
0.00921012
0.0111282
0.0132887
0.015539
0.0177974
0.0200505
0.0223463
0.024579
0.0061217
0.00759026
0.00898153
0.0108196
0.0129296
0.0151659
0.0174362
0.0197025
0.0220046
0.0242327
0.0060893
0.00753826
0.00884034
0.0105771
0.0126054
0.0147895
0.0170287
0.0192617
0.0215028
0.0236683
0.0061589
0.00757511
0.00878151
0.0104011
0.0123232
0.0144268
0.0166106
0.018804
0.0210048
0.0231274
0.00631706
0.00769011
0.00879878
0.0102916
0.0120906
0.0140939
0.0162053
0.018351
0.0205162
0.0226078
0.00655068
0.00787281
0.00888529
0.0102474
0.0119122
0.0138
0.0158238
0.0179087
0.0200294
0.0220927
0.00684763
0.00811322
0.0090337
0.0102656
0.0117902
0.0135515
0.0154749
0.0174867
0.019553
0.0215853
0.00719635
0.00840148
0.00923601
0.0103419
0.011725
0.013353
0.015166
0.0170947
0.0190982
0.0210947
0.00758636
0.00872801
0.00948371
0.0104708
0.0117148
0.0132066
0.0149024
0.0167399
0.018673
0.0206289
0.00801227
0.00908762
0.00977094
0.0106472
0.0117573
0.0131126
0.0146869
0.0164266
0.0182829
0.0201943
0.00847482
0.00948269
0.0100993
0.0108726
0.0118544
0.0130744
0.0145238
0.0161598
0.0179326
0.0197949
0.00894208
0.0098856
0.0104448
0.0111272
0.0119915
0.0130825
0.0144078
0.0159371
0.0176208
0.0194269
0.00941492
0.0102971
0.010806
0.011408
0.0121652
0.0131339
0.0143371
0.015757
0.0173454
0.0190844
0.00989166
0.0107149
0.0111795
0.0117106
0.0123707
0.0132246
0.0143085
0.0156172
0.0171036
0.0187626
0.0103685
0.0111352
0.0115605
0.0120294
0.0126025
0.01335
0.0143185
0.0155151
0.0168928
0.0184565
0.0108423
0.0115546
0.011945
0.0123596
0.0128557
0.0135055
0.0143642
0.0154489
0.0167114
0.0181605
0.0113111
0.0119709
0.0123301
0.0126977
0.013126
0.0136875
0.0144431
0.0154186
0.0165606
0.0178723
0.0117735
0.0123827
0.0127138
0.0130407
0.0134101
0.0138928
0.0145537
0.0154261
0.0164481
0.0175977
0.0122288
0.012789
0.0130949
0.0133868
0.0137055
0.0141192
0.0146945
0.0154734
0.0163869
0.0173586
0.0126765
0.0131894
0.0134728
0.0137352
0.0140116
0.0143668
0.0148677
0.0155651
0.0164061
0.0172324
0.0131172
0.0135838
0.013847
0.014085
0.0143277
0.0146383
0.0150879
0.0157562
0.0167354
0.0179832
0.013553
0.0139718
0.0142169
0.0144354
0.0146513
0.0149232
0.0153192
0.0159135
0.0168039
0.0179425
0.0139823
0.0143534
0.0145827
0.014786
0.0149804
0.0152171
0.0155571
0.0160634
0.0168142
0.0177774
0.0144042
0.0147279
0.0149438
0.0151362
0.0153152
0.0155233
0.0158148
0.0162466
0.0168846
0.0177032
0.0148172
0.0150943
0.0152994
0.0154854
0.015655
0.0158426
0.016095
0.0164638
0.0170054
0.0177026
0.0152192
0.0154512
0.0156482
0.0158322
0.0159987
0.0161733
0.0163953
0.0167099
0.0171647
0.0177559
0.0156067
0.0157965
0.0159886
0.0161751
0.0163445
0.0165135
0.0167136
0.0169829
0.0173612
0.0178588
0.0159755
0.0161277
0.0163184
0.0165122
0.0166903
0.0168611
0.0170478
0.0172813
0.017594
0.0180084
0.0163213
0.0164409
0.0166351
0.016841
0.0170339
0.0172136
0.0173952
0.0176027
0.0178606
0.0182008
0.0166336
0.0167331
0.0169356
0.0171591
0.0173727
0.0175681
0.017753
0.0179438
0.0181579
0.0184315
)
;

boundaryField
{
    inlet
    {
        type            zeroGradient;
    }
    outlet
    {
        type            fixedValue;
        value           uniform 0;
    }
    cylinder
    {
        type            zeroGradient;
    }
    top
    {
        type            symmetryPlane;
    }
    bottom
    {
        type            symmetryPlane;
    }
    defaultFaces
    {
        type            empty;
    }
}


// ************************************************************************* //
