/*--------------------------------*- C++ -*----------------------------------*\
  =========                 |
  \\      /  F ield         | OpenFOAM: The Open Source CFD Toolbox
   \\    /   O peration     | Website:  https://openfoam.org
    \\  /    A nd           | Version:  7
     \\/     M anipulation  |
\*---------------------------------------------------------------------------*/
FoamFile
{
    version     2.0;
    format      ascii;
    class       volVectorField;
    location    "63.3";
    object      U;
}
// * * * * * * * * * * * * * * * * * * * * * * * * * * * * * * * * * * * * * //

dimensions      [0 1 -1 0 0 0 0];

internalField   nonuniform List<vector> 
2000
(
(-0.000144344 -0.00838219 -3.86105e-22)
(-7.27636e-05 -0.0168045 0)
(0.000641217 -0.0196395 0)
(0.00218337 -0.0180728 -1.95581e-21)
(0.00454991 -0.0127614 6.18579e-22)
(0.00769909 -0.00411602 1.41113e-23)
(0.0115518 0.00753013 -1.06452e-21)
(0.0159733 0.0218063 0)
(0.0207293 0.0382335 0)
(0.0255584 0.056186 0)
(0.000437769 -0.00806316 0)
(0.00116738 -0.0167584 -1.50832e-21)
(0.00213321 -0.0201482 1.39098e-21)
(0.00355785 -0.0193261 2.6068e-21)
(0.00549982 -0.0149174 0)
(0.00798202 -0.00729922 2.33398e-21)
(0.0109962 0.00325636 -2.17041e-21)
(0.0144794 0.0164718 0)
(0.0182566 0.0319824 3.90712e-21)
(0.0220808 0.0492969 -7.5251e-21)
(0.00102539 -0.00769821 0)
(0.00260658 -0.0166068 1.21852e-20)
(0.00409507 -0.0204705 0)
(0.00566507 -0.0203231 1.07352e-20)
(0.00741897 -0.0167789 0)
(0.00943029 -0.0102042 -9.5196e-21)
(0.0117524 -0.000827446 0)
(0.0143912 0.0111615 8.42833e-21)
(0.017242 0.0255279 -7.89354e-21)
(0.0200554 0.0419443 -7.69442e-21)
(0.00164222 -0.00733686 -3.20285e-21)
(0.00430063 -0.0164039 -6.05431e-21)
(0.00660928 -0.0206237 -2.84735e-21)
(0.00861309 -0.0210229 -5.28043e-21)
(0.0104463 -0.0182275 -5.03841e-21)
(0.0122211 -0.0126202 4.68725e-21)
(0.0140404 -0.00441432 4.49339e-21)
(0.0159732 0.00626843 3.39197e-23)
(0.0179958 0.0193263 8.03342e-21)
(0.0198413 0.0346129 7.69419e-21)
(0.00232947 -0.00703636 -3.19843e-21)
(0.00631833 -0.0162026 -6.23234e-21)
(0.0097561 -0.0206302 -1.17701e-20)
(0.0124903 -0.0213966 5.40515e-21)
(0.0146839 -0.0191621 0)
(0.0164808 -0.014354 0)
(0.0180251 -0.0072031 -9.24334e-21)
(0.0194399 0.00220577 -8.71981e-21)
(0.0207908 0.0138885 8.25112e-21)
(0.0217942 0.0278777 2.36374e-20)
(0.00314199 -0.00683913 3.2386e-21)
(0.00873886 -0.0160528 3.20422e-21)
(0.0135989 -0.0205155 -1.7635e-20)
(0.0173436 -0.0214334 2.77442e-20)
(0.0201649 -0.0195208 -5.15258e-21)
(0.0222415 -0.0152693 0)
(0.0237554 -0.00895735 0)
(0.0248764 -0.000672532 4.40605e-20)
(0.0257667 0.00968847 -4.1421e-20)
(0.0261516 0.0223114 7.84797e-21)
(0.00413687 -0.0067731 2.56577e-20)
(0.0116344 -0.0159885 0)
(0.018175 -0.0203004 2.34973e-20)
(0.02316 -0.0211437 -2.21665e-20)
(0.0268268 -0.0192964 0)
(0.0294006 -0.015323 1.00167e-20)
(0.0311073 -0.00956995 -2.81558e-20)
(0.0321614 -0.00216654 -3.54976e-20)
(0.032825 0.00703629 1.67002e-20)
(0.0328842 0.018339 1.60127e-20)
(0.00537711 -0.00685156 -5.13089e-20)
(0.0150607 -0.0160105 -6.36377e-21)
(0.0234774 -0.0199949 -1.19503e-20)
(0.0298519 -0.0205571 -2.80343e-20)
(0.034496 -0.0185422 -1.06918e-20)
(0.0377017 -0.0145841 -1.01442e-20)
(0.0397519 -0.00910297 -8.53112e-23)
(0.0409106 -0.00229852 0)
(0.0415429 0.00597746 0)
(0.041566 0.0161017 2.14191e-22)
(0.00691896 -0.00705982 2.56517e-20)
(0.0190461 -0.0160892 -2.53971e-20)
(0.0294455 -0.0195942 1.77808e-20)
(0.0372517 -0.0197167 3.94763e-20)
(0.0428903 -0.0173659 -1.05348e-20)
(0.0467467 -0.0132303 1.00576e-20)
(0.0491761 -0.00778901 9.51811e-21)
(0.0504947 -0.00131609 0)
(0.0511581 0.0063018 0)
(0.0512975 0.0154524 -2.34377e-22)
(0.0088026 -0.0073563 -3.20951e-21)
(0.023578 -0.0161634 3.18473e-20)
(0.035957 -0.0190772 -5.9442e-21)
(0.0451146 -0.0186734 0)
(0.0516385 -0.0159175 0)
(0.0560428 -0.0115277 2.01148e-20)
(0.0587777 -0.00600752 0)
(0.0602175 0.000332993 -1.79079e-20)
(0.0608371 0.00755969 -1.0875e-22)
(0.0609378 0.0159254 1.6139e-20)
(0.0372189 0.0982378 2.97867e-22)
(0.052725 0.171608 -3.01413e-22)
(0.0560482 0.231499 -3.5683e-22)
(0.0535209 0.2866 -4.08748e-22)
(0.0463515 0.345138 -4.97983e-22)
(0.0409274 0.410632 -1.63189e-23)
(0.027872 0.484624 2.63522e-22)
(0.0243549 0.572941 9.23435e-22)
(0.00249229 0.693737 0)
(0.00781409 0.837229 -6.75814e-22)
(0.0314837 0.0909065 1.11457e-21)
(0.0476531 0.166671 -1.32625e-21)
(0.0522408 0.229848 2.39026e-21)
(0.0505633 0.286703 4.09444e-22)
(0.0440061 0.346096 8.86846e-22)
(0.0390477 0.412172 1.5136e-21)
(0.0266038 0.486682 -5.6476e-22)
(0.0233004 0.575485 -6.18766e-22)
(0.00236873 0.69603 1.22471e-21)
(0.0073344 0.83831 6.74211e-22)
(0.0267142 0.0825783 0)
(0.0429234 0.160025 -1.24238e-21)
(0.048745 0.226777 -6.98506e-22)
(0.0478959 0.285648 0)
(0.0419074 0.346016 -2.7266e-21)
(0.037393 0.412769 8.55745e-22)
(0.0254971 0.487888 9.65371e-22)
(0.0223656 0.577255 3.36712e-21)
(0.00229489 0.6979 -1.22074e-21)
(0.00689874 0.839184 2.45316e-21)
(0.0232839 0.073647 0)
(0.0385516 0.15168 1.25288e-21)
(0.0455514 0.222239 0)
(0.0454953 0.283399 3.17725e-21)
(0.040038 0.344882 -3.19366e-21)
(0.0359449 0.412384 -1.93908e-21)
(0.0245384 0.488133 -1.15196e-22)
(0.0215606 0.578064 -3.29165e-21)
(0.00227718 0.698977 -5.41746e-22)
(0.00648856 0.839674 -3.02051e-21)
(0.0217167 0.0646294 9.85135e-23)
(0.0346163 0.141773 -3.57686e-21)
(0.0426499 0.216203 2.02807e-22)
(0.0433362 0.279933 -2.79639e-21)
(0.0383777 0.342737 0)
(0.0346797 0.411141 -1.86089e-21)
(0.0237042 0.48767 -1.4853e-22)
(0.0208533 0.578354 4.16756e-21)
(0.00227638 0.699808 5.5285e-22)
(0.00610792 0.840068 -5.54842e-22)
(0.0225803 0.0561125 -9.84571e-21)
(0.0313 0.130628 6.22893e-21)
(0.0400333 0.208668 2.73856e-21)
(0.0413998 0.275212 -2.73711e-21)
(0.0369133 0.339493 -1.53425e-21)
(0.0335871 0.408819 0)
(0.0229972 0.486085 -3.73936e-21)
(0.0202696 0.577439 1.85777e-21)
(0.00233046 0.699528 2.0327e-21)
(0.0057389 0.839988 2.10993e-21)
(0.0262413 0.048654 -1.21971e-21)
(0.0289109 0.1188 0)
(0.0377027 0.199671 0)
(0.0396594 0.269308 0)
(0.0356238 0.335439 -1.63807e-21)
(0.0326414 0.405995 3.16736e-21)
(0.0223785 0.484297 3.6554e-21)
(0.0197282 0.576629 -5.66866e-21)
(0.00234925 0.699603 1.00276e-21)
(0.00539912 0.840044 -3.08277e-21)
(0.0325484 0.0425865 7.67027e-21)
(0.0278317 0.106981 5.20975e-21)
(0.0356923 0.189339 -5.16278e-21)
(0.0381189 0.261954 5.70193e-21)
(0.034491 0.329856 -7.09494e-21)
(0.0318449 0.401469 0)
(0.021892 0.480595 -1.66515e-21)
(0.0193493 0.573712 7.27865e-23)
(0.00247003 0.697774 -1.83115e-21)
(0.00505815 0.839402 -1.90392e-21)
(0.0405458 0.037685 -6.60732e-21)
(0.0283577 0.095297 0)
(0.0340132 0.17794 -5.95842e-21)
(0.0367545 0.254294 1.08453e-20)
(0.0335361 0.324828 -4.06724e-21)
(0.0311503 0.398133 -7.56066e-22)
(0.0214145 0.478519 1.66161e-21)
(0.0188786 0.57276 6.72483e-24)
(0.00243721 0.697764 2.65004e-21)
(0.00475076 0.839325 2.77245e-21)
(0.0482347 0.0341019 -5.40942e-21)
(0.0304513 0.0836425 5.27887e-21)
(0.0329258 0.163142 6.51167e-22)
(0.0354689 0.241738 0)
(0.0325935 0.31452 0)
(0.0306476 0.389464 7.34698e-22)
(0.0212037 0.471144 3.11753e-21)
(0.0187898 0.566689 -3.0276e-21)
(0.00268333 0.693725 -8.09274e-22)
(0.00442614 0.838065 7.83961e-22)
(0.0571488 0.0387311 0)
(0.0350872 0.0776443 0)
(0.0331704 0.152996 0)
(0.0346641 0.236668 0)
(0.0312852 0.313422 0)
(0.0288548 0.390546 0)
(0.0197346 0.473173 0)
(0.0171427 0.569889 0)
(0.00208868 0.69651 0)
(0.00376503 0.838344 0)
(0.0660906 0.0667791 0)
(0.0433353 0.10075 0)
(0.0329618 0.160159 0)
(0.0326166 0.239618 0)
(0.0290671 0.317775 0)
(0.0262453 0.396874 0)
(0.0180776 0.481405 0)
(0.015503 0.579817 0)
(0.00196739 0.705811 0)
(0.00320128 0.842932 0)
(0.0690182 0.0794161 0)
(0.0517336 0.118057 0)
(0.0360751 0.169328 0)
(0.0324272 0.243534 0)
(0.0287363 0.321531 0)
(0.0252102 0.400646 0)
(0.017031 0.485382 0)
(0.0139529 0.58432 0)
(0.00157839 0.709683 0)
(0.00265768 0.843018 0)
(0.0672951 0.086763 0)
(0.0568009 0.132768 0)
(0.0402119 0.180541 0)
(0.0323048 0.249346 0)
(0.0275961 0.327416 0)
(0.024087 0.408028 0)
(0.0167484 0.494278 0)
(0.0135173 0.594339 0)
(0.00205531 0.718904 0)
(0.00244319 0.847595 0)
(0.0632392 0.0899261 0)
(0.0583897 0.14431 0)
(0.0442866 0.192149 0)
(0.0345412 0.255645 0)
(0.0285199 0.331506 0)
(0.0237242 0.411293 0)
(0.016065 0.497292 0)
(0.0125228 0.597491 0)
(0.00192843 0.721389 0)
(0.00212921 0.847047 0)
(0.0570176 0.0897283 0)
(0.0566349 0.152298 0)
(0.0455967 0.203317 0)
(0.0348082 0.263567 0)
(0.0284595 0.338335 0)
(0.0240787 0.419477 0)
(0.0168874 0.506818 0)
(0.0128402 0.607879 0)
(0.00269404 0.730679 0)
(0.00208876 0.851779 0)
(0.049086 0.0864464 0)
(0.0527674 0.156349 0)
(0.0469535 0.213471 0)
(0.0371372 0.272367 0)
(0.0291711 0.343328 0)
(0.0234958 0.422246 0)
(0.0162282 0.508855 0)
(0.0121652 0.609772 0)
(0.00265134 0.732056 0)
(0.00190937 0.851032 0)
(0.0397067 0.0800905 0)
(0.0461082 0.154963 0)
(0.0441199 0.217925 0)
(0.0371213 0.279683 0)
(0.0305674 0.352069 0)
(0.025189 0.432496 0)
(0.0177791 0.520044 0)
(0.0129009 0.621403 0)
(0.0035824 0.742157 0)
(0.00197506 0.856427 0)
(0.0320162 0.073735 0)
(0.0419257 0.15458 0)
(0.0440862 0.224411 0)
(0.0382018 0.286781 0)
(0.0305237 0.355852 0)
(0.0244594 0.433985 0)
(0.0172551 0.520965 0)
(0.0125134 0.622166 0)
(0.00356145 0.742753 0)
(0.00188786 0.8559 0)
(0.0210273 0.0548031 0)
(0.0331795 0.138512 0)
(0.0407134 0.218802 0)
(0.0402305 0.29234 0)
(0.0344661 0.367155 0)
(0.0277048 0.447142 0)
(0.0195395 0.534445 0)
(0.0136155 0.635635 0)
(0.00465855 0.754154 0)
(0.00201239 0.862215 0)
(0.073042 0.0295502 4.95753e-21)
(0.0761936 0.0446899 -4.873e-21)
(0.0740136 0.0496905 4.46492e-22)
(0.0693986 0.0512469 0)
(0.0632523 0.0498263 0)
(0.0550785 0.0462472 1.504e-22)
(0.0452753 0.0406416 -2.10833e-22)
(0.0344066 0.0327236 2.07308e-22)
(0.0250206 0.0255122 -1.76963e-23)
(0.0145715 0.00828686 1.74577e-23)
(0.0772252 0.0257993 -6.34643e-21)
(0.077248 0.035357 0)
(0.0733233 0.0369593 2.56498e-21)
(0.0678182 0.0361407 -5.16809e-21)
(0.0611028 0.0328983 2.62518e-21)
(0.0525324 0.0279995 -1.47467e-22)
(0.0424714 0.0214688 1.33735e-22)
(0.031595 0.0130304 4.87668e-23)
(0.0217483 0.00549871 -4.18092e-23)
(0.0116353 -0.0106146 -4.40817e-23)
(0.0796555 0.0211462 7.17431e-21)
(0.0772587 0.0256753 -3.53568e-21)
(0.0722477 0.0242906 3.50165e-21)
(0.0661036 0.0212397 -2.06188e-21)
(0.0588988 0.0161904 1.60538e-21)
(0.0499544 0.00994647 0)
(0.0396513 0.00246169 -1.3404e-22)
(0.0288034 -0.00637679 -4.98468e-24)
(0.0186243 -0.0141406 8.39056e-24)
(0.00946496 -0.0285587 6.33971e-23)
(0.0808357 0.0147205 -1.10926e-21)
(0.0763852 0.014831 0)
(0.070646 0.0109801 0)
(0.0640184 0.00602444 0)
(0.056449 -0.000596017 1.03616e-21)
(0.0472439 -0.00798182 -6.41605e-22)
(0.0368162 -0.0162491 4.32644e-23)
(0.0260513 -0.0252738 1.5479e-23)
(0.0158361 -0.0330615 1.49471e-23)
(0.00747179 -0.0454682 3.00387e-23)
(0.080689 0.00646424 -6.14426e-22)
(0.074582 0.00284767 -2.95632e-21)
(0.0684199 -0.00302442 -1.25849e-21)
(0.0614439 -0.00954468 1.25757e-21)
(0.0536453 -0.0174526 -3.89579e-22)
(0.0443011 -0.0257035 0)
(0.0338951 -0.0344931 -1.16669e-22)
(0.0233173 -0.0434551 3.94963e-23)
(0.0133517 -0.0509941 -1.10037e-23)
(0.00573468 -0.0613054 -4.54608e-23)
(0.0793465 -0.00336322 -7.94738e-21)
(0.0720221 -0.00997395 1.29543e-21)
(0.0656892 -0.017521 3.23744e-22)
(0.0584911 -0.0252899 1.216e-21)
(0.0505701 -0.0342031 0)
(0.0412017 -0.0430277 0)
(0.030944 -0.0520657 0)
(0.0206774 -0.0607253 3.70814e-23)
(0.0111648 -0.0677605 0)
(0.00431962 -0.076051 0)
(0.0769817 -0.014395 0)
(0.0688575 -0.0232662 2.31491e-21)
(0.0625589 -0.0322303 -1.5005e-21)
(0.0552456 -0.0409435 -8.7723e-22)
(0.0473037 -0.0505976 8.81725e-22)
(0.0380341 -0.059727 1.73652e-22)
(0.0280481 -0.0687585 -2.17782e-22)
(0.0182066 -0.0769119 -1.74322e-22)
(0.00928533 -0.083253 1.34848e-23)
(0.00321049 -0.0897053 1.54004e-23)
(0.0737208 -0.0262534 0)
(0.0652374 -0.0366698 -8.15057e-22)
(0.0591114 -0.0468569 -3.31819e-22)
(0.0517753 -0.0562222 0)
(0.0439357 -0.0663807 1.14197e-22)
(0.0348815 -0.0755742 -4.18572e-22)
(0.0252744 -0.084384 1.67563e-22)
(0.0159549 -0.0918831 1.07996e-24)
(0.00770886 -0.0974224 -8.06266e-24)
(0.00236444 -0.102285 -1.77493e-23)
(0.0696885 -0.0385724 1.03171e-21)
(0.0612801 -0.0498744 7.31997e-22)
(0.0554257 -0.0611157 -2.41393e-22)
(0.0481721 -0.0708639 1.28472e-22)
(0.0405436 -0.0813162 1.83406e-22)
(0.0318136 -0.0903728 1.80165e-22)
(0.0226734 -0.0987955 -3.59904e-23)
(0.0139501 -0.105557 -1.70197e-23)
(0.0064133 -0.110268 8.08902e-24)
(0.00173435 -0.113815 -5.84138e-25)
(0.0650666 -0.0510086 -2.20095e-22)
(0.0570709 -0.0626233 2.22108e-22)
(0.0515814 -0.0747653 -1.65831e-22)
(0.0445205 -0.0846493 -1.28276e-22)
(0.0371957 -0.0952123 7.85706e-23)
(0.0288875 -0.103978 -1.4096e-22)
(0.0202797 -0.111901 5.00048e-23)
(0.0121995 -0.117905 2.90766e-24)
(0.00536493 -0.121825 0)
(0.00127402 -0.12433 5.85329e-25)
(0.0600721 -0.0632883 2.23627e-22)
(0.0527376 -0.0747214 -2.2554e-22)
(0.0476803 -0.0876151 -1.71156e-22)
(0.0409182 -0.0974188 -1.33652e-22)
(0.0339639 -0.107936 -8.18587e-23)
(0.0261546 -0.116308 1.40247e-23)
(0.0181159 -0.123665 2.73988e-23)
(0.0106958 -0.128947 3.96083e-23)
(0.0045252 -0.132156 0)
(0.000941512 -0.133866 -2.50814e-24)
(0.0549339 -0.0752114 0)
(0.0484285 -0.0860394 -7.62907e-22)
(0.0438351 -0.0995293 1.29163e-21)
(0.0374671 -0.10908 1.33848e-22)
(0.0309155 -0.119415 2.07514e-22)
(0.0236559 -0.127342 2.1405e-22)
(0.0161923 -0.134108 -4.31158e-23)
(0.00942113 -0.138742 -2.37065e-23)
(0.00385595 -0.141342 2.70386e-23)
(0.000701993 -0.142471 2.502e-24)
(0.0498379 -0.0866461 0)
(0.0442622 -0.0965188 -8.70333e-22)
(0.0401262 -0.110428 -3.52431e-22)
(0.0342375 -0.119611 0)
(0.0280909 -0.129639 -5.68713e-22)
(0.0214085 -0.13712 2.1788e-22)
(0.0145035 -0.143294 1.27061e-22)
(0.00834941 -0.147379 2.01343e-22)
(0.00332245 -0.149474 -2.69504e-23)
(0.000528402 -0.150198 1.98358e-23)
(0.0449237 -0.0975168 0)
(0.0403236 -0.106175 8.77538e-22)
(0.036602 -0.120284 0)
(0.0312668 -0.129056 1.02412e-21)
(0.0255062 -0.138656 -1.02944e-21)
(0.0194087 -0.14573 -2.65086e-22)
(0.0130327 -0.151328 6.18346e-23)
(0.00745074 -0.154974 -2.10068e-22)
(0.00289524 -0.156656 -3.83536e-23)
(0.000400455 -0.157116 -3.09428e-23)
(0.0403012 -0.107792 8.83619e-21)
(0.036684 -0.115099 -3.3157e-21)
(0.0333 -0.129118 -3.16812e-22)
(0.0285757 -0.137517 -1.3752e-21)
(0.0231685 -0.146559 0)
(0.0176424 -0.153297 -2.8352e-22)
(0.0117591 -0.158338 9.79754e-23)
(0.00669614 -0.161654 3.23137e-22)
(0.00255112 -0.163 1.28263e-23)
(0.000303602 -0.163307 -1.28073e-23)
(0.0360427 -0.117459 7.15428e-22)
(0.0334046 -0.123448 5.18235e-21)
(0.0302564 -0.13699 1.43305e-21)
(0.0261736 -0.145137 -1.43219e-21)
(0.0210828 -0.153477 -4.99664e-22)
(0.0160919 -0.159969 0)
(0.0106631 -0.16447 -4.56801e-22)
(0.0060606 -0.167555 2.44004e-22)
(0.00227304 -0.168625 1.20943e-22)
(0.000227782 -0.168863 3.07585e-23)
(0.0322033 -0.12649 -1.23586e-21)
(0.0305597 -0.13144 0)
(0.0275277 -0.143991 0)
(0.024072 -0.15208 0)
(0.0192624 -0.159567 -3.91321e-22)
(0.014744 -0.165904 8.9001e-22)
(0.00973033 -0.169877 4.71342e-22)
(0.00552529 -0.172816 -5.54358e-22)
(0.00204954 -0.173654 3.14351e-23)
(0.000166032 -0.173887 -6.15534e-23)
(0.0287955 -0.134797 -2.84068e-21)
(0.0281884 -0.139324 3.86719e-21)
(0.0251536 -0.150237 -3.83077e-21)
(0.0222545 -0.158509 2.48425e-21)
(0.0177064 -0.164996 -3.01378e-21)
(0.0135771 -0.171259 0)
(0.00894359 -0.174711 -2.88656e-22)
(0.00507286 -0.17757 -1.34541e-23)
(0.00187156 -0.178207 -1.05347e-22)
(0.000112431 -0.178488 -3.61476e-23)
(0.0254382 -0.142158 -1.34056e-21)
(0.0259507 -0.147347 0)
(0.0229469 -0.155874 -3.80056e-21)
(0.0205228 -0.164577 5.91021e-21)
(0.0162913 -0.169942 -2.03249e-21)
(0.012492 -0.176189 -2.16803e-22)
(0.00824187 -0.179121 2.87999e-22)
(0.00466603 -0.181946 3.52506e-23)
(0.00172293 -0.182405 2.17593e-22)
(6.26065e-05 -0.182775 7.15297e-23)
(0.0221154 -0.148028 -5.44167e-21)
(0.0236704 -0.155732 5.31476e-21)
(0.0209319 -0.161123 4.90588e-22)
(0.0188446 -0.170445 0)
(0.014997 -0.174606 0)
(0.0114784 -0.180863 2.23325e-22)
(0.00761364 -0.183268 5.35858e-22)
(0.00429977 -0.186077 -5.25807e-22)
(0.00160025 -0.186367 -3.97253e-23)
(3.33381e-05 -0.186862 3.88449e-23)
(0.0227292 -0.15606 0)
(0.0238903 -0.175461 0)
(0.0206357 -0.172845 0)
(0.018081 -0.184007 0)
(0.0142939 -0.185455 0)
(0.0106894 -0.191851 0)
(0.0071194 -0.193004 0)
(0.00398429 -0.195765 0)
(0.00156037 -0.195584 0)
(7.29973e-05 -0.196329 0)
(0.018368 -0.186377 0)
(0.0155928 -0.205919 0)
(0.0138646 -0.198714 0)
(0.0114005 -0.209423 0)
(0.00924983 -0.207526 0)
(0.00679064 -0.213369 0)
(0.00466531 -0.212583 0)
(0.00264515 -0.215109 0)
(0.00113901 -0.21409 0)
(0.000100657 -0.215034 0)
(0.0181973 -0.219754 0)
(0.01451 -0.239278 0)
(0.0123003 -0.228933 0)
(0.00956036 -0.2397 0)
(0.00764884 -0.235324 0)
(0.00541354 -0.241242 0)
(0.00380853 -0.238939 0)
(0.00216889 -0.241624 0)
(0.00105043 -0.239815 0)
(0.00011086 -0.241068 0)
(0.0173241 -0.259818 0)
(0.0130769 -0.280155 0)
(0.0108866 -0.267468 0)
(0.00807568 -0.278966 0)
(0.00648422 -0.272577 0)
(0.00446017 -0.279102 0)
(0.00327468 -0.275456 0)
(0.00187587 -0.278643 0)
(0.00102397 -0.276011 0)
(0.000108862 -0.277744 0)
(0.0165239 -0.309542 0)
(0.0120798 -0.330481 0)
(0.0098586 -0.316699 0)
(0.00702883 -0.329067 0)
(0.00564152 -0.321373 0)
(0.00376438 -0.32875 0)
(0.00286552 -0.324067 0)
(0.00160829 -0.32796 0)
(0.000956097 -0.324588 0)
(7.44246e-05 -0.326974 0)
(0.0152502 -0.368744 0)
(0.0108373 -0.388384 0)
(0.00879015 -0.375751 0)
(0.00600406 -0.388029 0)
(0.00484334 -0.38037 0)
(0.0030634 -0.388101 0)
(0.00237967 -0.38309 0)
(0.00119683 -0.387466 0)
(0.000742087 -0.383739 0)
(-1.56248e-05 -0.386687 0)
(0.0129563 -0.431358 0)
(0.00900283 -0.447264 0)
(0.00729163 -0.438217 0)
(0.00478997 -0.448689 0)
(0.00386292 -0.442729 0)
(0.00224192 -0.449603 0)
(0.00170692 -0.445315 0)
(0.000625382 -0.449383 0)
(0.000381789 -0.446003 0)
(-0.000126879 -0.448991 0)
(0.00977624 -0.486767 0)
(0.00671649 -0.497765 0)
(0.00537035 -0.493433 0)
(0.00341947 -0.500801 0)
(0.00269912 -0.497502 0)
(0.00139205 -0.50237 0)
(0.00096039 -0.499576 0)
(9.32928e-05 -0.502456 0)
(3.20936e-05 -0.500036 0)
(-0.000185613 -0.502308 0)
(0.00601758 -0.526114 0)
(0.00405484 -0.532802 0)
(0.0032248 -0.532455 0)
(0.00199441 -0.536815 0)
(0.00154856 -0.53597 0)
(0.000691771 -0.538646 0)
(0.000403231 -0.537379 0)
(-0.000160182 -0.538803 0)
(-0.000124502 -0.537472 0)
(-0.000159433 -0.538674 0)
(0.00200763 -0.545897 0)
(0.0012958 -0.550445 0)
(0.00106291 -0.552274 0)
(0.000635712 -0.55488 0)
(0.000508178 -0.555383 0)
(0.000198854 -0.556717 0)
(0.000105946 -0.556343 0)
(-9.81063e-05 -0.556849 0)
(-6.63248e-05 -0.5562 0)
(-6.35462e-05 -0.556682 0)
(0.021535 -0.167564 6.34141e-21)
(0.0196803 -0.198899 -6.21813e-21)
(0.0204018 -0.23399 8.00782e-22)
(0.01974 -0.275397 0)
(0.0190425 -0.325132 0)
(0.017518 -0.382191 9.1651e-22)
(0.0149006 -0.440482 -3.92667e-21)
(0.01133 -0.490777 3.8784e-21)
(0.00710471 -0.525929 1.05423e-21)
(0.00242372 -0.543484 -1.03801e-21)
(0.0214913 -0.173144 -7.46213e-21)
(0.0205334 -0.204129 0)
(0.0214466 -0.23922 5.40462e-21)
(0.020839 -0.280692 -1.24493e-20)
(0.0201556 -0.330167 7.97201e-21)
(0.0185139 -0.386317 -8.41187e-22)
(0.0157627 -0.443038 1.86752e-21)
(0.0120291 -0.491624 3.9327e-21)
(0.00759236 -0.525448 1.10604e-21)
(0.00260198 -0.542407 1.07376e-21)
(0.0218616 -0.178912 8.72643e-21)
(0.0218184 -0.20971 -5.98774e-21)
(0.0227918 -0.244496 5.93109e-21)
(0.0221869 -0.285695 -6.58806e-21)
(0.0214564 -0.334678 4.87824e-21)
(0.0196463 -0.389775 0)
(0.0167062 -0.444926 -1.8721e-21)
(0.0127499 -0.491924 9.71931e-23)
(0.00804939 -0.524609 -2.06288e-21)
(0.00274807 -0.541104 -2.10746e-21)
(0.0226628 -0.183992 -1.41215e-21)
(0.0234475 -0.214862 0)
(0.0244189 -0.24948 0)
(0.0237885 -0.290434 0)
(0.02296 -0.338918 5.41343e-21)
(0.020944 -0.392964 -3.61784e-21)
(0.0177692 -0.446591 -2.27157e-23)
(0.0135317 -0.492035 -2.20474e-21)
(0.00851352 -0.523581 -1.13006e-21)
(0.00288196 -0.539533 -1.20778e-21)
(0.0239753 -0.188503 1.21213e-22)
(0.0253836 -0.219297 -4.26189e-21)
(0.0262877 -0.253782 -3.23154e-21)
(0.0256103 -0.294563 3.22955e-21)
(0.0246458 -0.342613 -1.77135e-21)
(0.0224031 -0.395707 0)
(0.0189685 -0.447951 -2.06254e-21)
(0.0144121 -0.491958 4.50249e-21)
(0.00903408 -0.522404 -2.30309e-21)
(0.00303201 -0.537764 2.36543e-21)
(0.02585 -0.192568 -1.13598e-20)
(0.0276528 -0.223069 1.24209e-21)
(0.0284093 -0.257306 -2.24193e-22)
(0.0276454 -0.297892 3.31702e-21)
(0.0265047 -0.345526 0)
(0.0240159 -0.397766 0)
(0.0203031 -0.448805 0)
(0.0154029 -0.491562 2.41083e-21)
(0.0096335 -0.521037 0)
(0.00321342 -0.535851 0)
(0.0283004 -0.196087 0)
(0.0302792 -0.226182 4.66463e-21)
(0.0308177 -0.26006 -3.15043e-21)
(0.0299131 -0.300393 -3.7064e-21)
(0.0285506 -0.347593 3.7257e-21)
(0.0257893 -0.399051 2.20326e-21)
(0.0217731 -0.449047 -2.18751e-21)
(0.0165026 -0.490757 -8.61003e-21)
(0.0103115 -0.519434 6.13172e-22)
(0.00342841 -0.533804 -2.09279e-21)
(0.0313335 -0.198907 0)
(0.0332703 -0.228552 -1.51782e-21)
(0.0335382 -0.262014 -8.53637e-22)
(0.0324344 -0.302062 0)
(0.0308059 -0.348823 1.07565e-21)
(0.0277408 -0.39957 -3.24956e-21)
(0.0233875 -0.448672 3.60098e-21)
(0.0177114 -0.489521 1.28201e-21)
(0.0110627 -0.517569 -1.40127e-21)
(0.00367479 -0.531605 2.77702e-21)
(0.0349601 -0.20091 1.38041e-21)
(0.0366295 -0.230095 1.64381e-21)
(0.0365846 -0.263103 -3.67007e-22)
(0.0352218 -0.302878 4.85393e-22)
(0.0332887 -0.349218 1.02827e-21)
(0.0298872 -0.399349 1.71775e-21)
(0.0251585 -0.447708 -6.43692e-22)
(0.0190341 -0.487871 -6.94192e-22)
(0.011885 -0.51544 1.40589e-21)
(0.00395117 -0.529238 7.61202e-22)
(0.0391909 -0.201998 -3.81671e-22)
(0.0403619 -0.230769 3.851e-22)
(0.0399679 -0.263273 -4.39218e-22)
(0.0382818 -0.302811 -4.84777e-22)
(0.0360114 -0.348763 5.71496e-22)
(0.0322409 -0.398391 -1.16576e-21)
(0.0270986 -0.446168 9.84564e-22)
(0.0204806 -0.485818 3.51304e-22)
(0.0127826 -0.513048 0)
(0.00425903 -0.526691 -7.62897e-22)
(0.0440335 -0.202093 3.9115e-22)
(0.0444704 -0.230567 -3.94815e-22)
(0.0436992 -0.262493 -4.71196e-22)
(0.0416189 -0.301854 -5.2315e-22)
(0.038984 -0.34745 -5.95986e-22)
(0.0348095 -0.396708 -4.01213e-23)
(0.0292152 -0.44407 3.46897e-22)
(0.0220557 -0.483378 1.11778e-21)
(0.0137581 -0.5104 0)
(0.00459927 -0.523961 -8.31881e-22)
(0.0494917 -0.20117 0)
(0.0489547 -0.229494 -1.80688e-21)
(0.0477876 -0.260773 3.27195e-21)
(0.0452344 -0.300012 5.24046e-22)
(0.0422168 -0.345278 1.21122e-21)
(0.0376009 -0.394288 1.97972e-21)
(0.0315206 -0.441395 -7.02528e-22)
(0.0237725 -0.480534 -7.58037e-22)
(0.0148207 -0.507484 1.67436e-21)
(0.00497504 -0.521042 8.29937e-22)
(0.055566 -0.199281 0)
(0.0538116 -0.227538 -1.7848e-21)
(0.0522399 -0.258157 -9.82352e-22)
(0.0491343 -0.297306 0)
(0.0457159 -0.342296 -3.80815e-21)
(0.0406178 -0.391172 1.27398e-21)
(0.0340138 -0.438187 1.50744e-21)
(0.0256258 -0.47732 4.85878e-21)
(0.0159651 -0.504304 -1.66893e-21)
(0.00538342 -0.517925 3.59992e-21)
(0.0622547 -0.196547 0)
(0.0590418 -0.224689 1.80006e-21)
(0.0570419 -0.254821 0)
(0.053317 -0.293712 4.87917e-21)
(0.0494904 -0.338511 -4.90418e-21)
(0.0438738 -0.387324 -2.97509e-21)
(0.0367124 -0.434395 -6.37277e-23)
(0.0276423 -0.473678 -4.99833e-21)
(0.0172115 -0.500819 -8.33169e-22)
(0.00582921 -0.51458 -4.47767e-21)
(0.0695456 -0.193153 1.31544e-20)
(0.0646336 -0.220892 -5.03036e-21)
(0.0622079 -0.250739 5.09221e-22)
(0.057824 -0.289235 -4.57656e-21)
(0.053525 -0.333969 0)
(0.0473672 -0.382827 -3.10121e-21)
(0.0396032 -0.430114 -2.52668e-22)
(0.0298018 -0.469695 6.78804e-21)
(0.0185415 -0.497098 9.29299e-22)
(0.00630259 -0.511045 -9.32832e-22)
(0.0773394 -0.189102 -1.227e-21)
(0.0706393 -0.21618 9.35806e-21)
(0.0676879 -0.245863 4.7592e-21)
(0.0626434 -0.284024 -4.75594e-21)
(0.0578312 -0.328659 -2.84593e-21)
(0.0511201 -0.377597 0)
(0.0427249 -0.425204 -6.93339e-21)
(0.0321524 -0.465241 3.47672e-21)
(0.0199969 -0.493061 3.70817e-21)
(0.00682253 -0.507263 3.97763e-21)
(0.0855791 -0.184393 -1.80847e-21)
(0.0770502 -0.210786 0)
(0.0734433 -0.240388 0)
(0.0677507 -0.278284 0)
(0.0623894 -0.322875 -3.26961e-21)
(0.0550872 -0.372016 6.10497e-21)
(0.0460027 -0.420068 7.06166e-21)
(0.0346019 -0.460626 -1.11087e-20)
(0.021502 -0.488872 1.98604e-21)
(0.00735017 -0.50333 -5.90764e-21)
(0.0941285 -0.179124 -2.8067e-21)
(0.0838624 -0.20461 9.16383e-21)
(0.079475 -0.234152 -9.07635e-21)
(0.0731784 -0.271642 1.15298e-20)
(0.0672704 -0.316063 -1.4493e-20)
(0.0593936 -0.365347 0)
(0.0496186 -0.413941 -3.69022e-21)
(0.0373538 -0.455273 -1.5007e-22)
(0.0232186 -0.484213 -4.12592e-21)
(0.0079603 -0.499039 -4.20321e-21)
(0.102757 -0.174096 -1.92289e-21)
(0.0909348 -0.198489 0)
(0.0855941 -0.228247 -1.2052e-20)
(0.0787103 -0.265517 2.26321e-20)
(0.0722107 -0.310015 -8.74548e-21)
(0.0636967 -0.35959 -1.74966e-21)
(0.0531564 -0.408647 3.68228e-21)
(0.0399872 -0.450436 -1.83799e-22)
(0.0248301 -0.479722 6.02336e-21)
(0.00849884 -0.494756 6.22011e-21)
(0.11187 -0.16678 -8.58239e-21)
(0.0993655 -0.189446 8.40568e-21)
(0.092693 -0.219243 1.28275e-21)
(0.0851548 -0.256025 0)
(0.0780208 -0.300384 0)
(0.0689043 -0.350369 1.70943e-21)
(0.057599 -0.400533 7.7948e-21)
(0.0434224 -0.443756 -7.62005e-21)
(0.0270042 -0.474225 -2.0829e-21)
(0.00927784 -0.489758 2.04773e-21)
(0.123205 -0.167553 0)
(0.117531 -0.186347 0)
(0.107286 -0.217345 0)
(0.0981773 -0.253477 0)
(0.0894711 -0.296858 0)
(0.0785875 -0.34515 0)
(0.0653473 -0.393268 0)
(0.0490685 -0.434565 0)
(0.0303923 -0.463859 0)
(0.0101969 -0.479195 0)
(0.144656 -0.152357 0)
(0.148865 -0.176281 0)
(0.13288 -0.210452 0)
(0.123193 -0.246137 0)
(0.111699 -0.288642 0)
(0.0976798 -0.334465 0)
(0.0808895 -0.37912 0)
(0.0606205 -0.416662 0)
(0.0376662 -0.442476 0)
(0.0131333 -0.454906 0)
(0.174383 -0.137663 0)
(0.182625 -0.163497 0)
(0.160532 -0.197397 0)
(0.151283 -0.231649 0)
(0.135884 -0.272702 0)
(0.118184 -0.315352 0)
(0.0971094 -0.356537 0)
(0.0722427 -0.391346 0)
(0.0444378 -0.416171 0)
(0.0146159 -0.429796 0)
(0.21154 -0.127433 0)
(0.221302 -0.152736 0)
(0.193163 -0.185255 0)
(0.185108 -0.218367 0)
(0.164294 -0.257734 0)
(0.142697 -0.296494 0)
(0.11656 -0.333735 0)
(0.0863792 -0.364376 0)
(0.0533149 -0.385036 0)
(0.0187685 -0.394116 0)
(0.255441 -0.114259 0)
(0.26336 -0.137335 0)
(0.229912 -0.167358 0)
(0.22193 -0.197877 0)
(0.193 -0.232922 0)
(0.166979 -0.266105 0)
(0.134346 -0.29908 0)
(0.0984263 -0.326576 0)
(0.059678 -0.347123 0)
(0.0187716 -0.360201 0)
(0.307155 -0.1048 0)
(0.31105 -0.124928 0)
(0.273536 -0.152837 0)
(0.263437 -0.179487 0)
(0.225268 -0.209883 0)
(0.196136 -0.238465 0)
(0.156215 -0.267828 0)
(0.114213 -0.290839 0)
(0.0698176 -0.306699 0)
(0.0257962 -0.311204 0)
(0.36072 -0.0857597 0)
(0.356369 -0.101507 0)
(0.315935 -0.124792 0)
(0.299817 -0.145004 0)
(0.252742 -0.169519 0)
(0.220085 -0.192195 0)
(0.169219 -0.215634 0)
(0.121342 -0.234458 0)
(0.070499 -0.25304 0)
(0.0181082 -0.271956 0)
(0.415811 -0.0724923 0)
(0.403329 -0.0836854 0)
(0.363566 -0.102733 0)
(0.339476 -0.117457 0)
(0.289195 -0.138175 0)
(0.25146 -0.155895 0)
(0.192717 -0.176097 0)
(0.141221 -0.193804 0)
(0.0843654 -0.211445 0)
(0.039398 -0.209588 0)
(0.456995 -0.0393706 0)
(0.438292 -0.0446239 0)
(0.389189 -0.0560845 0)
(0.356576 -0.0631604 0)
(0.296526 -0.0756658 0)
(0.249178 -0.0838976 0)
(0.177054 -0.0955969 0)
(0.115637 -0.105795 0)
(0.046289 -0.126631 0)
(-0.0274805 -0.176181 0)
(0.682736 -0.0199547 0)
(0.65907 -0.0231662 0)
(0.615696 -0.0280891 0)
(0.578775 -0.0324588 0)
(0.522691 -0.0391756 0)
(0.470467 -0.0458012 0)
(0.397431 -0.0562766 0)
(0.321709 -0.0707738 0)
(0.220782 -0.0995884 0)
(0.155904 -0.156665 0)
(0.147894 -0.14867 8.84235e-21)
(0.172164 -0.132823 -8.71146e-21)
(0.202699 -0.118865 1.39854e-21)
(0.23955 -0.109102 0)
(0.283209 -0.0973364 0)
(0.332712 -0.0888643 2.10246e-21)
(0.384595 -0.0721528 -1.00216e-20)
(0.436106 -0.0615199 9.90126e-21)
(0.483974 -0.032738 2.82869e-21)
(0.704195 -0.0172833 -2.85525e-21)
(0.155734 -0.140644 -8.38475e-21)
(0.179694 -0.12456 0)
(0.209636 -0.111232 9.9109e-21)
(0.246553 -0.101809 -2.38972e-20)
(0.290324 -0.0906277 1.60685e-20)
(0.339673 -0.0825664 -1.94646e-21)
(0.391489 -0.0667281 4.25413e-21)
(0.442641 -0.0571588 9.55832e-21)
(0.493777 -0.030111 2.62484e-21)
(0.712446 -0.0161432 2.58503e-21)
(0.162553 -0.131762 9.71663e-21)
(0.185954 -0.115857 -9.43724e-21)
(0.21493 -0.103403 9.34796e-21)
(0.251678 -0.0944791 -1.27049e-20)
(0.295332 -0.0839565 9.22395e-21)
(0.344648 -0.076421 0)
(0.396527 -0.0615518 -4.26447e-21)
(0.447921 -0.0531302 -7.5251e-23)
(0.502224 -0.0277661 -4.94726e-21)
(0.720014 -0.0150565 -5.17396e-21)
(0.169424 -0.122305 -1.66812e-21)
(0.192705 -0.106887 0)
(0.221099 -0.0954125 0)
(0.257481 -0.0870828 0)
(0.300918 -0.0772832 1.04283e-20)
(0.350046 -0.0703881 -7.0967e-21)
(0.401825 -0.056582 -2.65231e-22)
(0.453302 -0.0493399 -4.86381e-21)
(0.510129 -0.0256615 -2.48344e-21)
(0.727208 -0.0140507 -2.53127e-21)
(0.175756 -0.112473 1.53366e-21)
(0.199092 -0.0978368 -5.2618e-21)
(0.2272 -0.0873624 -5.27628e-21)
(0.26332 -0.0796811 5.273e-21)
(0.306611 -0.0706665 -3.28478e-21)
(0.355659 -0.06448 0)
(0.407315 -0.051775 -4.17243e-21)
(0.458805 -0.0456889 9.30337e-21)
(0.517701 -0.0237148 -4.68269e-21)
(0.734051 -0.0131173 5.06321e-21)
(0.181311 -0.102304 -1.25626e-20)
(0.204621 -0.0887413 7.40879e-22)
(0.232435 -0.0793084 -7.90844e-22)
(0.268464 -0.0723262 5.16873e-21)
(0.311618 -0.0641545 0)
(0.360741 -0.0587402 0)
(0.412347 -0.0471367 0)
(0.463983 -0.0421578 4.46213e-21)
(0.524753 -0.0218809 0)
(0.740435 -0.0122444 0)
(0.18604 -0.0918184 0)
(0.209259 -0.0795795 6.18334e-21)
(0.236728 -0.0712453 -4.27727e-21)
(0.272675 -0.0650264 -5.88117e-21)
(0.315707 -0.0577462 5.91175e-21)
(0.364969 -0.0531668 3.79661e-21)
(0.416527 -0.042671 -3.58922e-21)
(0.468599 -0.0387547 -1.53854e-20)
(0.531066 -0.0201451 1.09032e-21)
(0.746286 -0.0114247 -3.64683e-21)
(0.18985 -0.0810509 0)
(0.212998 -0.0703395 -1.91217e-21)
(0.240151 -0.0631503 -1.13841e-21)
(0.275955 -0.0577662 0)
(0.318914 -0.0514278 1.77368e-21)
(0.368304 -0.0477186 -5.1172e-21)
(0.419837 -0.0383777 6.06522e-21)
(0.472508 -0.035482 2.32151e-21)