/*--------------------------------*- C++ -*----------------------------------*\
  =========                 |
  \\      /  F ield         | OpenFOAM: The Open Source CFD Toolbox
   \\    /   O peration     | Website:  https://openfoam.org
    \\  /    A nd           | Version:  7
     \\/     M anipulation  |
\*---------------------------------------------------------------------------*/
FoamFile
{
    version     2.0;
    format      ascii;
    class       surfaceScalarField;
    location    "64.7";
    object      phi;
}
// * * * * * * * * * * * * * * * * * * * * * * * * * * * * * * * * * * * * * //

dimensions      [0 3 -1 0 0 0 0];

internalField   nonuniform List<scalar> 
3880
(
-2.61628e-05
-0.000796393
0.000822555
-1.99168e-05
-0.00166007
0.00165382
4.80355e-05
-0.00200743
0.00193948
0.000199014
-0.00194327
0.00179229
0.000451156
-0.00152706
0.00127492
0.000819204
-0.000795581
0.000427533
0.001312
0.000223184
-0.000715984
0.00192956
0.00149983
-0.00211739
0.00266046
0.00299672
-0.00372762
0.00466362
0.0034798
-0.00548296
-2.6646e-05
-0.000769747
-1.9376e-05
-0.00166734
4.78538e-05
-0.00207466
0.000194478
-0.00208989
0.000439108
-0.00177169
0.000799439
-0.00115591
0.00128937
-0.000266748
0.00191493
0.000874264
0.00267003
0.00224162
0.00380141
0.00353225
-2.14713e-05
-0.000748276
-2.57392e-06
-0.00168624
7.63386e-05
-0.00215357
0.000230832
-0.00224438
0.00047742
-0.00201828
0.000834534
-0.00151303
0.00131969
-0.000751901
0.00194473
0.000249219
0.00271022
0.00147614
0.00291321
0.00359842
-9.6071e-06
-0.000738668
3.26429e-05
-0.00172849
0.000138581
-0.00225951
0.000316925
-0.00242273
0.000579919
-0.00228127
0.000944219
-0.00187733
0.00142872
-0.00123641
0.00204994
-0.000371999
0.00281546
0.000710618
0.00201397
0.0037147
9.56051e-06
-0.000748229
8.79411e-05
-0.00180687
0.000237218
-0.00240879
0.000458015
-0.00264352
0.000756267
-0.00257953
0.00114445
-0.00226551
0.00164028
-0.00173223
0.00226287
-0.000994592
0.00302607
-5.2585e-05
0.00111109
0.00392895
3.51332e-05
-0.000783362
0.000162261
-0.001934
0.000370987
-0.00261751
0.000653247
-0.00292578
0.00100769
-0.00293397
0.00144093
-0.00269875
0.00196711
-0.00225841
0.00260536
-0.00163284
0.0033752
-0.000822426
0.000201356
0.00428493
6.67957e-05
-0.000850158
0.000252586
-0.00211979
0.000533938
-0.00289886
0.000893796
-0.00328564
0.00132341
-0.00336359
0.00182289
-0.00319823
0.00240131
-0.00283682
0.00307569
-0.00230722
0.00386815
-0.00161489
-0.000727986
0.00479749
0.000102774
-0.000952932
0.000353556
-0.00237057
0.000715305
-0.00326061
0.00116233
-0.00373267
0.00167918
-0.00388043
0.00225981
-0.00377886
0.00290762
-0.00348463
0.00363574
-0.00303534
0.00446683
-0.00244598
-0.00168975
0.00542859
0.000140809
-0.00109374
0.000457854
-0.00268761
0.000900204
-0.00370296
0.00143422
-0.00426668
0.00203896
-0.00448518
0.00270347
-0.00444338
0.00342573
-0.00420689
0.00421307
-0.00382268
0.00508511
-0.00331802
-0.00268613
0.00608149
0.000178218
-0.00127196
0.000556823
-0.00306622
0.001071
-0.00421715
0.00168007
-0.00487575
0.00235933
-0.00516444
0.00309521
-0.00517926
0.00388245
-0.00499413
0.00472238
-0.00466261
0.00562238
-0.00421802
0.00662688
-0.00369063
0.00561601
0.0313895
-0.0335257
0.00683727
0.0573677
-0.0585889
0.00692578
0.0790804
-0.0791689
0.00641344
0.0987504
-0.0982381
0.00560738
0.119333
-0.118527
0.0045984
0.142177
-0.141168
0.00342606
0.167918
-0.166746
0.00207346
0.198764
-0.197412
0.000810744
0.241163
-0.239901
0.29153
-0.29072
0.00600749
0.0289143
0.00771566
0.0556595
0.00812932
0.0786667
0.007792
0.0990878
0.00705848
0.120066
0.0060274
0.143209
0.00473359
0.169212
0.00315459
0.200343
0.00147214
0.242846
0.293003
0.00631787
0.0261948
0.00853217
0.0534452
0.00930367
0.0778952
0.00916296
0.0992285
0.00851086
0.120719
0.00746074
0.144259
0.0060452
0.170627
0.00423781
0.202151
0.00213602
0.244948
0.295139
0.00654185
0.0233677
0.00925261
0.0507344
0.0104156
0.0767323
0.0104973
0.0991468
0.0099402
0.121276
0.00887961
0.145319
0.00734674
0.17216
0.00531434
0.204183
0.00279409
0.247468
0.297933
0.00669745
0.0205992
0.00984639
0.0475855
0.0114324
0.0751463
0.0117669
0.0988122
0.0113228
0.12172
0.010264
0.146378
0.00862367
0.1738
0.00637172
0.206435
0.00344122
0.250398
0.301374
0.0068235
0.0180606
0.0102901
0.0441189
0.0123237
0.0731127
0.0129438
0.0981921
0.0126334
0.12203
0.0115911
0.14742
0.00985745
0.175534
0.00739808
0.208894
0.0040707
0.253726
0.305445
0.0069644
0.0158937
0.0105758
0.0405075
0.013064
0.0706245
0.0140052
0.0972509
0.0138574
0.122178
0.0128524
0.148425
0.0110416
0.177345
0.00838635
0.211549
0.00467907
0.257433
0.310124
0.00714286
0.0141794
0.0107123
0.036938
0.0136314
0.0677054
0.0149165
0.0959657
0.0149541
0.12214
0.0140066
0.149373
0.0121429
0.179209
0.00931922
0.214373
0.00525725
0.261495
0.315381
0.00732874
0.0129322
0.0107093
0.0335575
0.0140232
0.0643915
0.0157031
0.0942858
0.0159702
0.121873
0.0150997
0.150243
0.0131945
0.181114
0.0102056
0.217362
0.00580671
0.265894
0.321188
0.00750875
0.0120503
0.0106371
0.0304292
0.0141707
0.0608578
0.0162116
0.0922449
0.0167543
0.121331
0.0160108
0.150987
0.014145
0.18298
0.0110121
0.220495
0.0063564
0.27055
0.327544
0.0183568
0.0203516
-0.0266581
0.0138934
0.0348926
0.0134638
0.0612874
0.0129288
0.0927799
0.0115426
0.122717
0.00950484
0.153025
0.00692044
0.185564
0.00381558
0.2236
0.000966685
0.273398
0.328511
0.021227
0.0268705
-0.0277459
0.0149899
0.0411298
0.0129089
0.0633683
0.012074
0.0936148
0.010642
0.124149
0.00870651
0.15496
0.00632448
0.187946
0.00346981
0.226455
0.000859358
0.276009
0.32937
0.0229774
0.0310137
-0.0271206
0.0167789
0.0473283
0.0132345
0.0669126
0.0117835
0.0950658
0.0102084
0.125724
0.00816223
0.157006
0.00576364
0.190345
0.00303799
0.22918
0.000690535
0.278356
0.330061
0.0232915
0.0332072
-0.025485
0.0181012
0.0525186
0.0137321
0.0712816
0.0114858
0.0973122
0.00977289
0.127437
0.0078893
0.15889
0.00562941
0.192604
0.00302314
0.231786
0.00073368
0.280646
0.330794
0.02263
0.0338995
-0.0233223
0.0188479
0.0563008
0.014568
0.0755615
0.0118426
0.100038
0.00969488
0.129585
0.00753585
0.161049
0.00524366
0.194897
0.0027688
0.234261
0.000649522
0.282765
0.331444
0.0210807
0.033307
-0.0204882
0.0186681
0.0587133
0.0147073
0.0795223
0.0118195
0.102925
0.0097867
0.131618
0.00774613
0.163089
0.00543548
0.197207
0.00293355
0.236763
0.000774742
0.284924
0.332219
0.0189237
0.0314871
-0.0171039
0.0182149
0.0594222
0.0152114
0.0825258
0.0121065
0.10603
0.0096289
0.134095
0.00740277
0.165316
0.00515371
0.199456
0.00277141
0.239146
0.000733356
0.286962
0.332952
0.0160617
0.028718
-0.0132926
0.0166158
0.0588681
0.0147892
0.0843523
0.0123761
0.108443
0.0101962
0.136275
0.00795938
0.167552
0.00553224
0.201884
0.00304044
0.241637
0.000908715
0.289094
0.333861
0.0139214
0.0248497
-0.0100531
0.0159318
0.0568577
0.01494
0.0853441
0.0124005
0.110983
0.00992042
0.138755
0.00767201
0.169801
0.00534336
0.204212
0.00295313
0.244028
0.000886795
0.29116
0.334747
0.0104418
-0.00605019
0.014005
0.0150324
0.0136382
0.0112196
0.00856381
0.0059361
0.00328228
0.00111859
0.00836935
-0.0279012
-0.00712624
0.00863501
-0.0280116
0.00825236
-0.026738
0.00754329
-0.0247759
0.00661787
-0.0223969
0.00553292
-0.0194032
0.00433505
-0.015906
0.00312529
-0.0120828
0.0017569
-0.00868471
-0.00490694
0.00765591
-0.028538
-0.00701913
0.00743641
-0.0277921
0.00674944
-0.026051
0.00583334
-0.0238598
0.00475652
-0.0213201
0.00356419
-0.0182109
0.002299
-0.0146408
0.00105678
-0.0108406
-0.000329564
-0.00729836
-0.00387105
0.00662167
-0.0286479
-0.00651174
0.00600702
-0.0271774
0.00508274
-0.0251267
0.00399743
-0.0227745
0.00279752
-0.0201202
0.0015244
-0.0169378
0.000221432
-0.0133378
-0.00101635
-0.00960281
-0.00227661
-0.0060381
-0.00291462
0.00525586
-0.028319
-0.00558473
0.0043383
-0.0262599
0.00324019
-0.0240286
0.00203417
-0.0215684
0.00075223
-0.0188382
-0.000557903
-0.0156277
-0.00184794
-0.0120478
-0.00305301
-0.00839774
-0.00417268
-0.00491842
-0.00210369
0.00359009
-0.0276305
-0.0042786
0.00245545
-0.0251252
0.00124214
-0.0228153
-4.59278e-05
-0.0202804
-0.00134331
-0.0175408
-0.00264796
-0.014323
-0.00388982
-0.0108059
-0.00500941
-0.00727815
-0.0059683
-0.00395953
-0.00145705
0.00169184
-0.0266539
-0.00266841
0.000414809
-0.0238482
-0.000854729
-0.0215458
-0.00215257
-0.0189825
-0.00345231
-0.0162411
-0.00470878
-0.0130665
-0.00586233
-0.00965238
-0.00685968
-0.00628081
-0.00764468
-0.00317453
-0.00097525
-0.000347541
-0.0254646
-0.000841759
-0.00170071
-0.022495
-0.00298914
-0.0202574
-0.00427527
-0.0176964
-0.00552373
-0.0149926
-0.00669439
-0.0118959
-0.00773015
-0.00861662
-0.00858164
-0.00542931
-0.00919178
-0.00256439
-0.000647071
-0.002456
-0.0241085
0.00109988
-0.0038299
-0.0211211
-0.00510041
-0.0189868
-0.00633809
-0.0164587
-0.00750545
-0.0138253
-0.00856423
-0.0108371
-0.00946384
-0.00771701
-0.0101598
-0.00473338
-0.0106052
-0.00211892
-0.000453489
-0.00453774
-0.0226463
0.00307548
-0.00589675
-0.0197621
-0.00712247
-0.0177611
-0.00828586
-0.0152953
-0.00935233
-0.0127588
-0.0102844
-0.00990502
-0.0110415
-0.00695989
-0.0115852
-0.00418971
-0.011885
-0.00181909
-0.000371026
-0.00652147
-0.0211345
0.00500969
-0.00783728
-0.0184463
-0.00900049
-0.0165979
-0.0100725
-0.0142234
-0.0110284
-0.0118028
-0.01183
-0.00910347
-0.0124495
-0.00634038
-0.012855
-0.00378425
-0.0130342
-0.00163989
-0.000374322
-0.00834567
-0.0196191
0.00683028
-0.00959971
-0.0171923
-0.0106908
-0.0155068
-0.0116627
-0.0132514
-0.0125084
-0.0109571
-0.0131856
-0.00842628
-0.0136818
-0.00584421
-0.0139709
-0.00349515
-0.0140576
-0.00155315
-0.000437805
-0.00997137
-0.0181365
0.00848883
-0.0111492
-0.0160145
-0.0121651
-0.0144909
-0.0130356
-0.0123809
-0.013779
-0.0102138
-0.0143458
-0.00785943
-0.0147394
-0.00545066
-0.0149386
-0.00329593
-0.0149618
-0.00152999
-0.000536625
-0.0113692
-0.016715
0.00994766
-0.0124616
-0.014922
-0.0134055
-0.013547
-0.0141805
-0.0116058
-0.0148357
-0.0095586
-0.0153124
-0.00738271
-0.0156283
-0.0051348
-0.0157663
-0.0031579
-0.015754
-0.00154225
-0.000647095
-0.0125254
-0.0153732
0.0111836
-0.0135277
-0.0139197
-0.0144073
-0.0126674
-0.0150984
-0.0109147
-0.0156833
-0.00897371
-0.0160939
-0.00697207
-0.0163587
-0.00487004
-0.0164644
-0.00305225
-0.0164431
-0.00156349
-0.00074688
-0.0134391
-0.0141181
0.012184
-0.0143498
-0.013009
-0.0151756
-0.0118417
-0.0157991
-0.0102912
-0.0163332
-0.00843957
-0.0167036
-0.00660161
-0.0169438
-0.00462992
-0.0170447
-0.00295136
-0.0170387
-0.00156942
-0.000814966
-0.0141197
-0.0129418
0.0129435
-0.014941
-0.0121878
-0.0157229
-0.0110597
-0.0162989
-0.00971533
-0.0168014
-0.00793707
-0.0171577
-0.00624526
-0.0173982
-0.00438938
-0.01752
-0.00282956
-0.0175516
-0.00153783
-0.000831566
-0.0145821
-0.0118201
0.0134604
-0.0153219
-0.0114479
-0.0160669
-0.0103148
-0.0166179
-0.00916438
-0.0171064
-0.0074485
-0.0174736
-0.00587809
-0.0177377
-0.00412532
-0.0179039
-0.00266335
-0.0179933
-0.00144844
-0.000777991
-0.0148321
-0.0107217
0.0137337
-0.0155106
-0.0107695
-0.016223
-0.00960234
-0.0167746
-0.00861273
-0.0172667
-0.00695648
-0.0176683
-0.00547649
-0.0179773
-0.00381631
-0.0182094
-0.00243122
-0.0183755
-0.00128237
-0.000636459
-0.0148652
-0.00962764
0.0137712
-0.0155264
-0.0101083
-0.0162097
-0.00891903
-0.0167884
-0.008034
-0.0173012
-0.00644365
-0.0177587
-0.005019
-0.0181322
-0.00344281
-0.0184497
-0.00211373
-0.0187101
-0.00102198
-0.000389822
-0.0147468
-0.00850396
0.0136231
-0.0154449
-0.00941023
-0.0160738
-0.00829015
-0.0166852
-0.0074226
-0.0172302
-0.00589866
-0.0177575
-0.0044917
-0.0182142
-0.00298604
-0.0186358
-0.00169217
-0.0190111
-0.000646656
-2.33735e-05
-0.0648251
-0.00776687
0.064088
-0.0670343
-0.00720101
-0.0690702
-0.00625431
-0.071126
-0.00536677
-0.0727555
-0.00426917
-0.0740688
-0.0031784
-0.0749223
-0.00213252
-0.0754154
-0.00119911
-0.0755808
-0.000481257
-3.09692e-05
-0.0765025
-0.00710972
0.0758453
-0.077792
-0.00591145
-0.0789484
-0.00509798
-0.0802066
-0.0041085
-0.0811908
-0.003285
-0.0819925
-0.00237668
-0.0824937
-0.00163134
-0.0827735
-0.000919307
-0.0828472
-0.000407513
-3.932e-05
-0.0894406
-0.00676952
0.0891004
-0.090064
-0.00528798
-0.0907438
-0.00441825
-0.0914728
-0.0033795
-0.092068
-0.00268977
-0.0925553
-0.00188941
-0.0928468
-0.00133987
-0.0929997
-0.000766315
-0.0930217
-0.000385515
-4.24423e-05
-0.105161
-0.00661897
0.10501
-0.105551
-0.00489789
-0.105962
-0.00400705
-0.106416
-0.00292595
-0.106781
-0.00232478
-0.10709
-0.00157973
-0.107268
-0.00116243
-0.10737
-0.000664468
-0.107378
-0.000376726
-3.94911e-05
-0.124619
-0.00628002
0.12428
-0.125009
-0.00450859
-0.125359
-0.00365701
-0.125727
-0.00255804
-0.126011
-0.00203997
-0.126266
-0.00132505
-0.126425
-0.00100379
-0.126542
-0.000547487
-0.126586
-0.000332869
-1.64828e-05
-0.14724
-0.00561369
0.146574
-0.147805
-0.00394381
-0.148268
-0.00319378
-0.14868
-0.00214551
-0.149003
-0.0017179
-0.14928
-0.00104744
-0.149484
-0.000800299
-0.149665
-0.000366
-0.149773
-0.000225084
2.20215e-05
-0.170531
-0.00457123
0.169488
-0.171341
-0.0031335
-0.172014
-0.00252079
-0.172518
-0.00164142
-0.172925
-0.0013107
-0.173239
-0.000734026
-0.173501
-0.000537772
-0.173714
-0.000153107
-0.173856
-8.34207e-05
6.17127e-05
-0.190883
-0.00314326
0.189455
-0.191851
-0.00216502
-0.192639
-0.00173321
-0.193182
-0.00109834
-0.193631
-0.000861462
-0.193933
-0.000432104
-0.194187
-0.000284249
-0.194344
4.11846e-06
-0.194445
1.78593e-05
7.21359e-05
-0.205028
-0.00164996
0.203535
-0.206123
-0.00107037
-0.207018
-0.000837767
-0.207593
-0.000523012
-0.208039
-0.000416214
-0.208282
-0.00018857
-0.208456
-0.000110854
-0.208496
4.48324e-05
-0.208517
3.87102e-05
4.7108e-05
-0.212421
0.210771
-0.213492
-0.21433
-0.214853
-0.215269
-0.215457
-0.215568
-0.215523
-0.215485
-0.0150489
0.0652549
0.013882
-0.0157176
0.076514
-0.0161762
0.089559
-0.016354
0.105188
-0.0160607
0.123987
-0.0149457
0.145459
-0.0126982
0.167241
-0.0092529
0.18601
-0.00489303
0.199175
0.205878
-0.0142054
0.0660246
0.0134357
-0.0148126
0.0771213
-0.0152095
0.0899559
-0.0153009
0.105279
-0.0149205
0.123607
-0.0137645
0.144303
-0.0115906
0.165067
-0.00838986
0.182809
-0.00441086
0.195196
0.201468
-0.0134426
0.0666964
0.0127707
-0.013973
0.0776517
-0.0142944
0.0902773
-0.0143216
0.105307
-0.0138957
0.123181
-0.0127509
0.143158
-0.0106856
0.163002
-0.00770886
0.179832
-0.00404169
0.191529
0.197426
-0.0125734
0.0673309
0.0119389
-0.0130365
0.0781148
-0.0132744
0.0905152
-0.013232
0.105264
-0.0127667
0.122715
-0.0116482
0.142039
-0.00971328
0.161067
-0.00698236
0.177101
-0.00365159
0.188198
0.193774
-0.0115728
0.0679235
0.0109802
-0.0119788
0.0785208
-0.0121462
0.0906826
-0.0120464
0.105164
-0.0115567
0.122226
-0.0104831
0.140966
-0.0086971
0.159281
-0.0062273
0.174631
-0.00324844
0.185219
0.190526
-0.0104649
0.0684634
0.00992511
-0.0108063
0.0788621
-0.0109094
0.0907857
-0.0107652
0.10502
-0.010269
0.12173
-0.00926146
0.139958
-0.00764455
0.157664
-0.00545158
0.172438
-0.00283636
0.182604
0.187689
-0.00927495
0.0689407
0.00879763
-0.00954427
0.0791315
-0.00958281
0.0908242
-0.00940207
0.10484
-0.00891338
0.121241
-0.00799061
0.139035
-0.00656121
0.156234
-0.00465969
0.170537
-0.00241761
0.180362
0.185272
-0.00802212
0.0693422
0.00762057
-0.0082172
0.0793265
-0.00819126
0.0907983
-0.00797964
0.104628
-0.0075088
0.12077
-0.0066849
0.138211
-0.00545668
0.155006
-0.0038572
0.168937
-0.00199467
0.178499
0.183277
-0.00672651
0.069651
0.00641774
-0.00684817
0.0794482
-0.00675833
0.0907084
-0.00652169
0.104391
-0.00607652
0.120325
-0.00536161
0.137497
-0.00434322
0.153988
-0.00305139
0.167646
-0.00157093
0.177019
0.181706
-0.00540893
0.069846
0.00521388
-0.00546186
0.0795011
-0.00530599
0.0905526
-0.00505076
0.104136
-0.00463635
0.119911
-0.00403757
0.136898
-0.00323336
0.153184
-0.00225025
0.166663
-0.00115039
0.175919
0.180556
-0.00410363
0.06991
0.00403968
-0.0040893
0.0794868
-0.0038631
0.0903264
-0.00359292
0.103866
-0.00321058
0.119528
-0.00273119
0.136418
-0.00214099
0.152593
-0.00146268
0.165984
-0.000737583
0.175194
0.179818
-0.002844
0.0698437
0.00291028
-0.00275004
0.0793929
-0.0024615
0.0900378
-0.00217245
0.103577
-0.00182425
0.11918
-0.00145826
0.136052
-0.00107658
0.152212
-0.000697609
0.165605
-0.00033643
0.174833
0.179482
-0.00166942
0.0696625
0.00185067
-0.00147706
0.0792005
-0.00114278
0.0897035
-0.000829478
0.103264
-0.000520883
0.118871
-0.000263776
0.135795
-8.47512e-05
0.152033
6.00785e-06
0.165515
3.52348e-05
0.174803
0.179517
-0.000615056
0.0694057
0.000871791
-0.000300787
0.0788862
2.74517e-05
0.0893753
0.000429518
0.102861
0.00072984
0.118571
0.000901099
0.135624
0.000901584
0.152032
0.000726251
0.16569
0.000408112
0.175122
0.179925
0.000346233
0.0691058
-4.63338e-05
0.000817355
0.0784151
0.00125649
0.0889362
0.00164754
0.10247
0.00192028
0.118298
0.00199628
0.135548
0.0018196
0.152209
0.00138686
0.166123
0.000753472
0.175755
0.180679
0.00128393
0.0686682
-0.000846307
0.0018376
0.0778614
0.00232461
0.0884492
0.00274507
0.10205
0.00300147
0.118042
0.00299758
0.135552
0.00266192
0.152544
0.00199392
0.166791
0.00106968
0.176679
0.181748
0.00208501
0.068163
-0.00157986
0.00274013
0.0772063
0.00327503
0.0879143
0.00372806
0.101597
0.00397812
0.117792
0.00391022
0.13562
0.00343507
0.15302
0.00255316
0.167672
0.00136047
0.177872
0.183109
0.00276823
0.0676409
-0.00224605
0.00351757
0.076457
0.00409299
0.0873388
0.00457218
0.101118
0.00481711
0.117547
0.00469662
0.13574
0.0041035
0.153613
0.00303713
0.168739
0.00161013
0.179299
0.184719
0.00338784
0.0671303
-0.0028773
0.00421993
0.0756249
0.00483723
0.0867215
0.00534352
0.100611
0.00559097
0.117299
0.0054285
0.135903
0.00472814
0.154313
0.00348886
0.169978
0.00184236
0.180945
0.186561
0.00375428
0.066862
-0.00348592
0.00462123
0.074758
0.00527998
0.0860628
0.00580475
0.100087
0.00605745
0.117047
0.00587856
0.136082
0.00512029
0.155071
0.00377482
0.171324
0.00198311
0.182737
0.188544
-0.0477151
0.0611346
0.0534425
-0.0429855
0.0700283
-0.0397435
0.0828208
-0.0364064
0.0967497
-0.0326901
0.11333
-0.0281164
0.131508
-0.0223935
0.149348
-0.0155738
0.164504
-0.00796253
0.175126
0.180582
-0.0579458
0.0564969
0.0625835
-0.0537911
0.0658736
-0.0499138
0.0789435
-0.0455873
0.0924231
-0.0408343
0.108577
-0.03498
0.125654
-0.0277811
0.14215
-0.0193295
0.156052
-0.00997245
0.165769
0.170609
-0.0699136
0.0518937
0.0745168
-0.0656192
0.0615792
-0.0608928
0.0742172
-0.0555931
0.0871234
-0.0495908
0.102575
-0.0421207
0.118184
-0.0331812
0.13321
-0.0228838
0.145755
-0.0115907
0.154476
0.159019
-0.0844318
0.0475469
0.0887786
-0.0794656
0.056613
-0.0738369
0.0685884
-0.0674914
0.0807779
-0.0599674
0.095051
-0.0506017
0.108818
-0.0396689
0.122277
-0.0273152
0.133401
-0.0140276
0.141188
0.144991
-0.10057
0.0423703
0.105746
-0.0947969
0.0508402
-0.0880778
0.0618693
-0.0800909
0.0727909
-0.070358
0.0853181
-0.0586492
0.0971091
-0.0454272
0.109055
-0.0307562
0.11873
-0.0153013
0.125733
0.12969
-0.11966
0.0370578
0.124972
-0.112665
0.0438454
-0.104468
0.0536725
-0.0943861
0.0627088
-0.0823393
0.0732713
-0.068378
0.0831478
-0.052738
0.0934151
-0.0356678
0.10166
-0.0181757
0.108241
0.111514
-0.138247
0.0299665
0.145338
-0.129777
0.0353753
-0.119544
0.0434398
-0.10689
0.0500548
-0.09225
0.0586309
-0.0754296
0.0663274
-0.0566441
0.0746297
-0.0365559
0.081572
-0.0168461
0.0885312
0.094668
-0.15826
0.0226844
0.165542
-0.14834
0.0254557
-0.136255
0.0313541
-0.121787
0.0355867
-0.105233
0.0420773
-0.0861607
0.0472551
-0.0652431
0.0537121
-0.0434159
0.0597448
-0.0228436
0.0679589
0.0718244
-0.172915
0.010885
0.184714
-0.160078
0.012619
-0.144407
0.015683
-0.126607
0.0177872
-0.105884
0.0213543
-0.0827058
0.0240766
-0.0570444
0.0280507
-0.0296457
0.0323462
-0.00305764
0.0413708
0.0687668
-0.262055
0.27294
-0.249435
-0.233753
-0.215965
-0.194611
-0.170534
-0.142484
-0.110138
-0.0687668
0.00129527
0.0552742
-0.00312692
-0.000316847
0.0641956
-0.00143752
0.0756375
-0.00231819
0.0896592
-0.00286946
0.106298
-0.00305809
0.125161
-0.00278984
0.14507
-0.00215387
0.164906
-0.00220568
0.184766
0.270734
0.00170266
0.0570604
-0.00348887
7.99286e-05
0.0658183
-0.00108052
0.0767979
-0.00199991
0.0905786
-0.00259924
0.106897
-0.00281826
0.12538
-0.00262698
0.144879
-0.00202963
0.164309
-0.00198284
0.184719
0.268751
0.00219154
0.0587287
-0.00385987
0.000667291
0.0673426
-0.000526639
0.0779919
-0.00144199
0.091494
-0.00206438
0.107519
-0.00232358
0.125639
-0.00222764
0.144783
-0.0017278
0.163809
-0.00176441
0.184756
0.266987
0.00267
0.0602989
-0.00424023
0.00120935
0.0688032
1.06467e-05
0.0791906
-0.000828564
0.0923332
-0.0014282
0.108119
-0.00173203
0.125943
-0.00170437
0.144755
-0.0013512
0.163456
-0.00147884
0.184883
0.265508
0.00313787
0.0617822
-0.00462111
0.00176179
0.0701793
0.000673076
0.0802793
-0.000203006
0.0932093
-0.000758848
0.108675
-0.00109278
0.126277
-0.00112389
0.144786
-0.000920314
0.163252
-0.00114543
0.185109
0.264362
0.00362181
0.0631526
-0.00499222
0.00235381
0.0714473
0.0013487
0.0812844
0.000539068
0.0940189
-3.73877e-05
0.109251
-0.00039745
0.126637
-0.000477318
0.144866
-0.000441672
0.163216
-0.000771983
0.185439
0.26359
0.00412242
0.0643766
-0.00534645
0.00298378
0.0725859
0.00207063
0.0821975
0.00134079
0.0947488
0.000797203
0.109795
0.00039674
0.127038
0.000240377
0.145023
8.11242e-05
0.163376
-0.000357656
0.185878
0.263233
0.00463133
0.0654227
-0.00567738
0.00363974
0.0735775
0.00282898
0.0830083
0.00217833
0.0953994
0.00166472
0.110308
0.00126611
0.127436
0.000990894
0.145298
0.000726503
0.16364
9.33969e-05
0.186511
0.263326
0.00514266
0.0662567
-0.0059767
0.0043096
0.0744106
0.00361037
0.0837075
0.00304616
0.0959636
0.00257271
0.110782
0.00216187
0.127847
0.00179417
0.145666
0.00137367
0.164061
0.000535069
0.187349
0.263861
0.00564506
0.0668449
-0.00623328
0.00498077
0.0750749
0.00440258
0.0842857
0.00393223
0.096434
0.0035079
0.111206
0.00308446
0.12827
0.0026276
0.146122
0.00204303
0.164645
0.00100905
0.188383
0.26487
0.00611801
0.0671566
-0.0064297
0.00563406
0.0755588
0.00518806
0.0847317
0.0048171
0.0968049
0.00444874
0.111575
0.00401841
0.128701
0.00347447
0.146666
0.00272867
0.165391
0.00149683
0.189615
0.266367
0.00655331
0.0671687
-0.00656543
0.00626171
0.0758504
0.00595693
0.0850365
0.00569176
0.0970701
0.00538587
0.111881
0.00495592
0.129131
0.00432933
0.147293
0.00342623
0.166294
0.00199348
0.191048
0.26836
0.00692994
0.0668701
-0.0066313
0.00684129
0.0759391
0.00668483
0.085193
0.00653141
0.0972235
0.00629556
0.112116
0.00587577
0.129551
0.00517551
0.147993
0.00412256
0.167347
0.0024917
0.192679
0.270852
0.00723385
0.0662622
-0.00662596
0.00735675
0.0758162
0.00735349
0.0851962
0.00731574
0.0972613
0.00715845
0.112274
0.00675957
0.129949
0.00599763
0.148755
0.00480595
0.168539
0.00298371
0.194501
0.273836
0.00745023
0.0653648
-0.00655286
0.00779349
0.0754729
0.00794457
0.0850451
0.00802582
0.09718
0.00795717
0.112342
0.00759085
0.130316
0.00678328
0.149563
0.00546753
0.169854
0.00346469
0.196504
0.277301
0.00757118
0.0642167
-0.00642304
0.00813924
0.0749048
0.00844201
0.0847424
0.00864337
0.0969787
0.00867039
0.112315
0.00834877
0.130637
0.0075144
0.150397
0.00609274
0.171276
0.00392369
0.198673
0.281224
0.00759768
0.0628756
-0.00625664
0.0083875
0.074115
0.00883752
0.0842923
0.00915931
0.0966569
0.00928933
0.112185
0.00902803
0.130899
0.00818865
0.151236
0.00668024
0.172785
0.00435999
0.200993
0.285584
0.00753823
0.061419
-0.00608162
0.00852828
0.073125
0.00911415
0.0837065
0.00954779
0.0962232
0.00977993
0.111953
0.00958863
0.13109
0.00876636
0.152059
0.00720274
0.174348
0.00475454
0.203441
0.290339
0.00742562
0.0599205
-0.00592711
0.00860519
0.0719454
0.00932202
0.0829896
0.00986365
0.0956816
0.0102006
0.111616
0.0100895
0.131201
0.00929599
0.152852
0.00768994
0.175954
0.00512039
0.206011
0.295459
0.00715373
0.0585063
-0.0057395
0.00838564
0.0707135
0.00924414
0.0821311
0.00988563
0.0950401
0.0103334
0.111168
0.0103222
0.131212
0.00961785
0.153557
0.00801947
0.177553
0.00542861
0.208602
0.300888
-0.0307934
0.0554418
0.0338579
-0.0264193
0.0663394
-0.0224344
0.0781462
-0.0184018
0.0910075
-0.0143918
0.107158
-0.0101496
0.12697
-0.0056867
0.149094
-0.00169592
0.173562
-0.000119864
0.207026
0.300768
-0.0460282
0.0514021
0.0500679
-0.0412718
0.061583
-0.0360605
0.0729349
-0.0305012
0.0854482
-0.0247884
0.101445
-0.0185124
0.120694
-0.0117586
0.14234
-0.00544706
0.16725
-0.00209331
0.203672
0.298675
-0.062564
0.0468486
0.0671175
-0.0568821
0.0559011
-0.0504379
0.0664907
-0.0435268
0.0785372
-0.0361809
0.0940996
-0.0277197
0.112233
-0.0185111
0.133131
-0.00966388
0.158403
-0.0037515
0.19776
0.294923
-0.0808083
0.0418726
0.0857843
-0.0739601
0.0490529
-0.0665058
0.0590363
-0.058312
0.0703434
-0.0490343
0.0848219
-0.0380717
0.101271
-0.0261716
0.121231
-0.0145797
0.146811
-0.00590163
0.189081
0.289021
-0.101273
0.0356871
0.107458
-0.0937173
0.0414976
-0.0854674
0.0507865
-0.0756036
0.0604795
-0.0639908
0.0732091
-0.0503845
0.0876642
-0.035619
0.106465
-0.0207877
0.13198
-0.00866766
0.176961
0.280354
-0.125243
0.0294073
0.131522
-0.116684
0.0329385
-0.107031
0.0411337
-0.0951085
0.0485572
-0.0812442
0.0593448
-0.0652316
0.0716517
-0.0476078
0.0888417
-0.0294141
0.113786
-0.0133883
0.160936
0.266966
-0.152005
0.0211518
0.160261
-0.143018
0.0239511
-0.132182
0.030298
-0.118916
0.035291
-0.103619
0.0440483
-0.0855344
0.0535665
-0.0654115
0.0687188
-0.0436623
0.092037
-0.0218474
0.139121
0.245118
-0.184813
0.0129125
0.193052
-0.174928
0.0140662
-0.162965
0.0183355
-0.148965
0.0212909
-0.132496
0.0275786
-0.113236
0.0343072
-0.0915723
0.0470548
-0.0672892
0.067754
-0.0387401
0.110572
0.206378
-0.237023
0.00458471
0.245351
-0.228262
0.00530533
-0.217149
0.00722215
-0.204777
0.00891946
-0.189477
0.0122779
-0.171695
0.0165256
-0.149328
0.0246882
-0.119776
0.0382011
-0.0747832
0.0655793
0.131595
-0.310314
0.314899
-0.305009
-0.297786
-0.288867
-0.276589
-0.260063
-0.235375
-0.197174
-0.131595
0.00264369
0.0354458
-0.00423153
0.000319458
0.0523921
-0.00158811
0.0690251
-0.00323565
0.0874318
-0.00451997
0.108742
-0.00549163
0.132494
-0.0058538
0.160623
-0.00589187
0.19309
-0.00430989
0.243769
0.310589
0.00256993
0.036676
-0.00380017
0.000585374
0.0543767
-0.00127997
0.0708904
-0.00291265
0.0890645
-0.00421636
0.110046
-0.00518272
0.133461
-0.00560241
0.161043
-0.00565127
0.193139
-0.0041754
0.242293
0.306413
0.00265473
0.0375289
-0.00350759
0.000981227
0.0560502
-0.000752744
0.0726244
-0.00229695
0.0906087
-0.00356752
0.111317
-0.0045184
0.134411
-0.00499886
0.161523
-0.00505728
0.193197
-0.00381956
0.241055
0.302594
0.00282159
0.0380375
-0.00333017
0.00143917
0.0574326
-0.000164383
0.074228
-0.00157046
0.0920148
-0.00277146
0.112518
-0.00371792
0.135358
-0.00424347
0.162049
-0.00438545
0.193339
-0.00338339
0.240053
0.29921
0.00305741
0.038219
-0.00323896
0.00198099
0.058509
0.000585498
0.0756235
-0.000762498
0.0933628
-0.0018858
0.113641
-0.00282358
0.136296
-0.00340301
0.162628
-0.0036512
0.193588
-0.00289019
0.239292
0.29632
0.00337327
0.0380587
-0.00321293
0.00262349
0.0592588
0.00144259
0.0768044
0.000151517
0.0946538
-0.000889156
0.114682
-0.00182807
0.137235
-0.00247665
0.163277
-0.00284894
0.19396
-0.0023505
0.238794
0.29397
0.00376524
0.0375285
-0.00323508
0.00335925
0.0596648
0.00240018
0.0777634
0.00128564
0.0957684
0.000232081
0.115735
-0.000734205
0.138201
-0.0014435
0.163986
-0.00197819
0.194495
-0.00177084
0.238586
0.292199
0.00421216
0.0366048
-0.00328845
0.00417117
0.0597058
0.00344675
0.0784879
0.00247518
0.09674
0.00148787
0.116723
0.000486487
0.139202
-0.000287203
0.16476
-0.00105113
0.195258
-0.00115401
0.238689
0.291045
0.00468943
0.0352713
-0.00335597
0.00503832
0.0593569
0.00456351
0.0789627
0.00373738
0.0975661
0.00280589
0.117654
0.00182789
0.14018
0.000897252
0.16569
-0.000110161
0.196266
-0.00049984
0.239079
0.290545
0.0051687
-0.0034231
0.00593669
0.00573046
0.00505844
0.00418554
0.00319733
0.00214202
0.000996385
0.000174743
0.000212819
-0.00148478
0.00064188
-0.00349528
0.00120911
-0.00478437
0.00186814
-0.00553479
0.00259256
-0.00588885
0.0033692
-0.0059559
0.00419433
-0.00581925
0.00507361
-0.00554189
0.00603173
-0.00517614
-0.00478515
0.000238244
-0.00172302
0.000699494
-0.00395653
0.00129329
-0.00537817
0.00196839
-0.00620988
0.00269764
-0.0066181
0.00346934
-0.0067276
0.0042816
-0.00663151
0.00513948
-0.00639977
0.00605235
-0.006089
-0.00575193
0.000253773
-0.00197679
0.000724458
-0.00442721
0.0013115
-0.00596522
0.00196064
-0.00685902
0.00264553
-0.00730299
0.00335689
-0.00743896
0.00409521
-0.00736983
0.00486573
-0.0071703
0.00567288
-0.00689615
-0.00659079
0.000256791
-0.00223359
0.000710335
-0.00488076
0.00125373
-0.00650862
0.00183248
-0.00743777
0.00242309
-0.0078936
0.00302018
-0.00803605
0.00362789
-0.00797754
0.00425411
-0.00779652
0.00490551
-0.00754755
-0.00727001
0.000245322
-0.00247891
0.000653214
-0.00528865
0.00111579
-0.0069712
0.001582
-0.00790398
0.00203364
-0.00834524
0.00247079
-0.0084732
0.00290239
-0.00840915
0.00334034
-0.00823447
0.00379575
-0.00800296
-0.00775287
0.000218212
-0.00269712
0.000552107
-0.00562254
0.000899597
-0.00731869
0.00121726
-0.00822164
0.00149459
-0.00862256
0.00173824
-0.00871685
0.00196223
-0.00863314
0.00218226
-0.0084545
0.0024129
-0.00823359
-0.00800838
0.000175279
-0.0028724
0.000409064
-0.00585633
0.000612742
-0.00752237
0.000754637
-0.00836353
0.000833738
-0.00870167
0.000863551
-0.00874666
0.000862483
-0.00863207
0.000848744
-0.00844076
0.000837945
-0.00822279
-0.00801219
0.000117399
-0.0029898
0.000228987
-0.00596792
0.000267495
-0.00756087
0.00021636
-0.0083124
8.49061e-05
-0.00857021
-0.000107149
-0.0085546
-0.000338347
-0.00840087
-0.000589965
-0.00818914
-0.000847283
-0.00796547
-0.00775959
4.65686e-05
-0.00303637
1.93415e-05
-0.00594069
-0.000120629
-0.0074209
-0.000372157
-0.00806087
-0.00071592
-0.00822645
-0.00112744
-0.00814308
-0.0015842
-0.00794412
-0.00206856
-0.00770478
-0.00256818
-0.00746586
-0.00725229
-3.51336e-05
-0.00300123
-0.000211365
-0.00576446
-0.000534457
-0.00709781
-0.000984801
-0.00761053
-0.00153403
-0.00767722
-0.00215469
-0.00752243
-0.00282472
-0.00727408
-0.00352888
-0.00700063
-0.00425806
-0.00673667
-0.00650066
-0.000109326
-0.00289191
-0.000433559
-0.00544022
-0.00093671