/*--------------------------------*- C++ -*----------------------------------*\
  =========                 |
  \\      /  F ield         | OpenFOAM: The Open Source CFD Toolbox
   \\    /   O peration     | Website:  https://openfoam.org
    \\  /    A nd           | Version:  7
     \\/     M anipulation  |
\*---------------------------------------------------------------------------*/
FoamFile
{
    version     2.0;
    format      ascii;
    class       surfaceScalarField;
    location    "17";
    object      phi;
}
// * * * * * * * * * * * * * * * * * * * * * * * * * * * * * * * * * * * * * //

dimensions      [0 3 -1 0 0 0 0];

internalField   nonuniform List<scalar> 
3880
(
0.000724983
0.00026864
-0.000993624
0.00291154
0.00482507
-0.00701163
0.0063631
0.0111488
-0.0146004
0.0105698
0.018126
-0.0223327
0.0149044
0.0248097
-0.0291442
0.0188497
0.030547
-0.0344923
0.0221054
0.0350322
-0.0382879
0.0245808
0.038237
-0.0407124
0.0263309
0.0403211
-0.0420712
0.0415029
0.0274808
-0.0426528
0.000586179
-0.000317539
0.00245482
0.00295643
0.00555745
0.00804617
0.00958747
0.014096
0.0140493
0.0203478
0.0184258
0.0261705
0.0223192
0.0311389
0.0255094
0.0350467
0.027944
0.0378865
0.0397818
0.0296651
0.000467167
-0.000784706
0.00202917
0.00139443
0.00473128
0.00534406
0.00843287
0.0103944
0.0128009
0.0159797
0.0173949
0.0215765
0.0217887
0.0267451
0.0256616
0.0311739
0.0288431
0.034705
0.037365
0.0312599
0.000363818
-0.00114852
0.00163888
0.000119367
0.00392541
0.00305753
0.00719915
0.0071207
0.0112785
0.0119004
0.0158454
0.0170096
0.0205187
0.0220717
0.0249375
0.0267551
0.0288376
0.0308049
0.0341719
0.0320308
0.0002688
-0.00141732
0.00127509
-0.000886926
0.00315243
0.00118019
0.00594957
0.00432356
0.00960083
0.00824914
0.0139165
0.0126939
0.0186098
0.0173784
0.0233485
0.0220165
0.0278265
0.0263269
0.0302163
0.0317821
0.000173413
-0.00159074
0.000920971
-0.00163448
0.00240094
-0.000299777
0.00470626
0.00201824
0.00784899
0.00510641
0.0117455
0.00879736
0.0162173
0.0129066
0.021012
0.0172219
0.0258396
0.0214992
0.0256241
0.0304318
7.06072e-05
-0.00166134
0.000560049
-0.00212393
0.00164987
-0.0013896
0.00346122
0.000206892
0.00605534
0.00251229
0.00942498
0.00542771
0.0134886
0.00884303
0.0180952
0.0126152
0.0230189
0.0165755
0.0206072
0.0280358
-4.39027e-05
-0.00161744
0.000185494
-0.00235332
0.000887926
-0.00209203
0.00220446
-0.00110965
0.00422777
0.00048899
0.00700268
0.0026528
0.0105251
0.00532056
0.0147454
0.00839491
0.0195398
0.0117812
0.0154076
0.0247393
-0.000163919
-0.00145352
-0.000192218
-0.00232502
0.000130567
-0.00241482
0.000956221
-0.0019353
0.00239514
-0.000949931
0.00452552
0.000522423
0.00740029
0.0024458
0.0110593
0.00473588
0.0155347
0.0073058
0.0100971
0.0208452
-0.00027954
-0.00117398
-0.000544493
-0.00206007
-0.000571649
-0.00238766
-0.00021062
-0.00229633
0.000651122
-0.00181167
0.00210295
-0.000929402
0.00421834
0.000330408
0.00708306
0.00187116
0.0109202
0.00346863
0.0163102
0.00470712
0.0221028
0.155287
-0.149909
0.0170363
0.149392
-0.144326
0.0127693
0.143481
-0.139214
0.00883962
0.13914
-0.13521
0.00504912
0.135992
-0.132202
0.00136139
0.13444
-0.130752
-0.00208619
0.136134
-0.132687
-0.0044618
0.145907
-0.143532
-0.00418663
0.171833
-0.172108
0.22299
-0.227176
0.0246505
0.160302
0.0194644
0.154579
0.0149347
0.14801
0.0107286
0.143346
0.00669277
0.140028
0.00275683
0.138376
-0.000898697
0.13979
-0.00359905
0.148608
-0.00378095
0.172015
0.219209
0.0270974
0.164465
0.0219687
0.159707
0.0171983
0.152781
0.0127222
0.147822
0.00844174
0.144308
0.00426196
0.142556
0.000384395
0.143667
-0.00265479
0.151647
-0.00332203
0.172682
0.215887
0.029325
0.16717
0.0244731
0.164559
0.019503
0.157751
0.0147817
0.152543
0.0102675
0.148823
0.00585017
0.146973
0.00170289
0.147815
-0.00163442
0.154984
-0.00279953
0.173847
0.213087
0.0312443
0.167708
0.0269594
0.168844
0.021838
0.162872
0.0168894
0.157492
0.0121453
0.153567
0.00749465
0.151624
0.00309712
0.152212
-0.000560077
0.158641
-0.00221727
0.175504
0.21087
0.032678
0.165462
0.0292355
0.172286
0.0240951
0.168013
0.0189904
0.162597
0.0140393
0.158518
0.00917389
0.156489
0.00454285
0.156843
0.000587766
0.162596
-0.0015638
0.177656
0.209306
0.0337099
0.159788
0.0314156
0.174581
0.0263497
0.173079
0.0210938
0.167853
0.015927
0.163685
0.010843
0.161573
0.0059767
0.16171
0.00171932
0.166854
-0.000875722
0.180251
0.208431
0.0338626
0.150665
0.0329627
0.175481
0.028345
0.177696
0.0230902
0.173108
0.0177697
0.169005
0.0125189
0.166824
0.00745706
0.166771
0.00291632
0.171394
-6.72257e-05
0.183234
0.208363
0.0339736
0.137536
0.0346094
0.174845
0.0303973
0.181908
0.0250567
0.178448
0.0195367
0.174525
0.0140625
0.172298
0.00877106
0.172063
0.00396003
0.176205
0.000510404
0.186684
0.208874
0.0321168
0.12173
0.0351431
0.171818
0.0321216
0.18493
0.0269545
0.183615
0.0213836
0.180096
0.0158163
0.177865
0.0103802
0.177499
0.00527267
0.181313
0.0013165
0.19064
0.21019
0.0138626
0.108358
-0.000490902
0.0208479
0.164833
0.0230719
0.182706
0.0201836
0.186504
0.0133918
0.186888
0.0052638
0.185993
-0.00231891
0.185082
-0.00772329
0.186717
-0.00852954
0.191446
0.201661
0.00613694
0.102616
-0.000395176
0.0107378
0.160232
0.0118309
0.181613
0.011301
0.187034
0.010345
0.187844
0.00819609
0.188142
0.00460717
0.188671
0.000609196
0.190715
-0.00201436
0.19407
0.199646
0.00228538
0.103599
-0.00326856
0.00885276
0.153665
0.0105786
0.179887
0.00895864
0.188654
0.00647287
0.190329
0.00413944
0.190476
0.00188672
0.190923
0.000135592
0.192466
-0.000846966
0.195053
0.198799
-0.00229437
0.114048
-0.00815433
0.00252795
0.148843
0.00635348
0.176061
0.00828735
0.18672
0.00907611
0.189541
0.0088575
0.190694
0.00746518
0.192316
0.0050982
0.194833
0.00233313
0.197818
0.201132
0.00124469
0.130478
-0.0176745
0.00272243
0.147365
0.00703829
0.171746
0.00802373
0.185734
0.00673874
0.190826
0.0047521
0.192681
0.00296702
0.194101
0.00149001
0.19631
0.000401436
0.198906
0.201534
0.00866493
0.151493
-0.0296801
-1.68536e-05
0.156047
0.00309279
0.168636
0.00837823
0.180449
0.0113436
0.18786
0.0113735
0.192651
0.00933761
0.196137
0.00615504
0.199493
0.00278504
0.202276
0.204319
0.0300283
0.165684
-0.044219
0.0157811
0.170294
0.00827153
0.176146
0.00609285
0.182627
0.00585271
0.188101
0.00542505
0.193079
0.00432662
0.197235
0.00267159
0.201148
0.000996567
0.203951
0.205316
0.0447539
0.1733
-0.0523699
0.0311469
0.183901
0.0221769
0.185115
0.0189484
0.185856
0.018342
0.188707
0.0173945
0.194026
0.0147858
0.199844
0.0106656
0.205268
0.00551193
0.209105
0.210827
0.0652498
0.16745
-0.0594001
0.0538995
0.195251
0.0369627
0.202052
0.0230311
0.199788
0.0150463
0.196692
0.0115344
0.197538
0.00955592
0.201822
0.00745895
0.207365
0.00439607
0.212168
0.215224
0.0699609
-0.051913
0.0745152
0.0683767
0.0572284
0.0454742
0.0350976
0.026069
0.0177086
0.00924689
0.0111325
-0.00422684
-0.0073966
0.0162967
-0.00555933
0.0223298
-0.00930169
0.0292306
-0.0150551
0.0357865
-0.0242304
0.0409182
-0.0348118
0.0424733
-0.0457741
0.0409237
-0.0508203
0.0352391
-0.0537155
-0.0456729
0.00919929
-0.0101153
-0.00331086
0.0166887
-0.0130488
0.0243764
-0.0169893
0.0317547
-0.0224334
0.0376152
-0.0300909
0.0411074
-0.038304
0.0408039
-0.0454705
0.0375476
-0.0475641
0.0309607
-0.0471285
-0.0392573
0.0101145
-0.0180986
-0.00213112
0.0194044
-0.0223387
0.0276663
-0.0252513
0.0344158
-0.029183
0.0387831
-0.0344581
0.0402819
-0.0398029
0.0381796
-0.0433683
0.0335123
-0.0428967
0.0264289
-0.0400452
-0.0329135
0.0139711
-0.0281248
-0.00394488
0.0237114
-0.0320789
0.0312724
-0.0328123
0.0364553
-0.0343658
0.0388472
-0.0368501
0.0383108
-0.0392664
0.0346466
-0.039704
0.0289507
-0.0372008
0.0217381
-0.0328326
-0.0268597
0.0195539
-0.0392936
-0.00838515
0.0283409
-0.0408659
0.0341509
-0.0386222
0.0372232
-0.0374382
0.0375385
-0.0371654
0.0351877
-0.0369156
0.0303255
-0.0348419
0.0240294
-0.0309047
0.0170307
-0.025834
-0.0212773
0.0252277
-0.0501033
-0.014418
0.0319468
-0.047585
0.0354727
-0.0421481
0.0363617
-0.0383272
0.0348189
-0.0356225
0.0310434
-0.0331402
0.0254096
-0.029208
0.01894
-0.0244351
0.012453
-0.0193469
-0.016308
0.029495
-0.0589817
-0.0206167
0.0336434
-0.0517334
0.0348606
-0.0433653
0.0338425
-0.037309
0.0308462
-0.0326263
0.0261065
-0.0284005
0.0201343
-0.0232358
0.0138799
-0.0181807
0.0081353
-0.0136024
-0.012059
0.0314909
-0.0648943
-0.0255782
0.0331097
-0.0533522
0.0323558
-0.0426114
0.029884
-0.0348373
0.0259032
-0.0286455
0.0206592
-0.0231565
0.0147507
-0.0173273
0.00903698
-0.0124669
0.00417786
-0.00874325
-0.00860819
0.0309924
-0.0676166
-0.0282702
0.0304789
-0.0528386
0.0282732
-0.0404058
0.0248449
-0.031409
0.0203324
-0.024133
0.0150007
-0.0178247
0.00950131
-0.0118279
0.0045782
-0.00754381
0.000593716
-0.00475877
-0.00605429
0.0282624
-0.0675909
-0.0282881
0.0261788
-0.0507551
0.0230636
-0.0372906
0.0191355
-0.0274809
0.0144871
-0.0194846
0.00941902
-0.0127566
0.00459512
-0.00700404
0.000659068
-0.00360777
-0.00225362
-0.00184608
-0.00410924
0.023874
-0.0655733
-0.0258916
0.0207735
-0.0476545
0.0172185
-0.0337356
0.0131671
-0.0234294
0.0087002
-0.0150177
0.00417063
-0.00822703
0.000177962
-0.00301138
-0.00280868
-0.000621123
-0.00471505
6.02884e-05
-0.00274522
0.0184864
-0.0623101
-0.0217496
0.0148571
-0.0440253
0.0112032
-0.0300818
0.00730243
-0.0195286
0.00325996
-0.0109752
-0.00052666
-0.00444041
-0.00359921
6.11725e-05
-0.00567139
0.00145106
-0.00679139
0.00118029
-0.00185876
0.0126844
-0.0583586
-0.0166358
0.00890771
-0.0402486
0.00538733
-0.0265614
0.00184192
-0.0159832
-0.00162182
-0.00751149
-0.00463768
-0.00142456
-0.00676227
0.00218576
-0.00800206
0.00269085
-0.00853713
0.00171536
-0.00132465
0.00691304
-0.0540904
-0.0111813
0.0032741
-0.0366096
0.000100974
-0.0233883
-0.00305563
-0.0128266
-0.00586777
-0.00469935
-0.00803453
0.000742202
-0.00931734
0.00346858
-0.00989219
0.00326569
-0.0100311
0.00185424
-0.00102481
0.00143514
-0.0496927
-0.00583279
-0.00181836
-0.0333561
-0.00469028
-0.0205164
-0.00726357
-0.0102534
-0.00935848
-0.00260443
-0.010759
0.00214269
-0.0113443
0.00405386
-0.0114444
0.00336586
-0.0113534
0.0017632
-0.000860884
-0.00343608
-0.0453401
-0.000916539
-0.00631016
-0.030482
-0.00866616
-0.0181604
-0.0106856
-0.00823387
-0.0121245
-0.00116561
-0.0128742
0.00289242
-0.0129488
0.00412846
-0.0127605
0.00317761
-0.0125727
0.00157539
-0.000757076
-0.00749455
-0.0412842
0.00343866
-0.00994983
-0.0280268
-0.0118299
-0.0162803
-0.0133431
-0.00672065
-0.014226
-0.000282762
-0.0144879
0.00315437
-0.0142417
0.00388228
-0.0139277
0.00286354
-0.0137406
0.00138837
-0.000656952
-0.0107424
-0.0376499
0.00710816
-0.0127926
-0.0259766
-0.0142185
-0.0148543
-0.0153022
-0.005637
-0.0157592
0.000174249
-0.0157133
0.00310853
-0.0153228
0.00349178
-0.0150107
0.00255138
-0.0148908
0.00126853
-0.00051767
-0.0131414
-0.0346094
0.0101009
-0.0149107
-0.0242073
-0.0158886
-0.0138764
-0.0166417
-0.00488386
-0.0168324
0.000364929
-0.0166519
0.00292804
-0.0162691
0.0031089
-0.0160515
0.00233382
-0.0160425
0.0012595
-0.000304207
-0.014725
-0.0324521
0.0125676
-0.0162603
-0.022672
-0.016851
-0.0132858
-0.0174131
-0.00432178
-0.0175248
0.000476716
-0.0173889
0.00279211
-0.0171365
0.00285652
-0.0170785
0.00227581
-0.0172
0.00138097
2.00765e-05
-0.0660904
-0.0223664
0.0560047
-0.0777254
-0.011037
-0.0818379
-0.00917317
-0.0842753
-0.00188444
-0.0828063
-0.000992244
-0.08107
0.00105582
-0.0788903
0.000676805
-0.0775307
0.000916176
-0.0766564
0.000506651
-6.78774e-06
-0.10533
-0.0162553
0.0992191
-0.106275
-0.0100926
-0.105325
-0.0101233
-0.104654
-0.00255454
-0.102786
-0.0028612
-0.101836
0.000106035
-0.100271
-0.000888232
-0.0994952
0.000140639
-0.098768
-0.000220527
1.84078e-05
-0.119057
-0.0138642
0.116666
-0.120656
-0.0084938
-0.123303
-0.0074762
-0.122726
-0.00313179
-0.12248
-0.00310652
-0.121623
-0.000751667
-0.120727
-0.0017844
-0.120418
-0.000168099
-0.119818
-0.000820237
0.000122649
-0.142368
-0.0113626
0.139867
-0.143549
-0.00731338
-0.144367
-0.00665751
-0.14378
-0.00371894
-0.143821
-0.00306602
-0.143064
-0.00150861
-0.142945
-0.00190256
-0.142612
-0.000501977
-0.142305
-0.0011265
0.000269831
-0.166033
-0.00898322
0.163654
-0.166953
-0.00639375
-0.167978
-0.00563273
-0.168328
-0.00336855
-0.168532
-0.00286227
-0.168343
-0.0016977
-0.168449
-0.00179656
-0.168128
-0.000822636
-0.168274
-0.000980275
0.00022803
-0.19451
-0.00744291
0.19297
-0.195715
-0.00518882
-0.196871
-0.00447727
-0.197409
-0.00283026
-0.19777
-0.00250109
-0.197846
-0.00162202
-0.197997
-0.00164525
-0.197859
-0.000960359
-0.1979
-0.000939498
4.08078e-05
-0.230865
-0.00565299
0.229075
-0.232135
-0.0039189
-0.233253
-0.00335972
-0.233872
-0.00221098
-0.234312
-0.00206051
-0.234487
-0.00144746
-0.234739
-0.00139319
-0.234824
-0.000875017
-0.235066
-0.000697986
3.88075e-05
-0.278775
-0.00355784
0.276679
-0.279735
-0.00295836
-0.280654
-0.00244072
-0.281344
-0.00152128
-0.282035
-0.00136908
-0.282586
-0.00089642
-0.28313
-0.00084989
-0.283752
-0.000252899
-0.284293
-0.000156579
0.00013757
-0.330656
-0.00181958
0.328918
-0.332596
-0.00101875
-0.334191
-0.000845297
-0.335189
-0.000523945
-0.336025
-0.000532739
-0.336579
-0.000342892
-0.337195
-0.000233301
-0.337606
0.000157526
-0.337922
0.000159538
0.0001738
-0.369796
0.367977
-0.370815
-0.37166
-0.372184
-0.372717
-0.37306
-0.373293
-0.373136
-0.372976
-0.0203652
0.0604638
0.0159062
-0.022604
0.101458
-0.0227715
0.116834
-0.0223576
0.139453
-0.0215185
0.162815
-0.020094
0.191545
-0.0180231
0.227004
-0.014069
0.272725
-0.00839863
0.323248
0.359578
-0.0193879
0.0638357
0.0160159
-0.0210977
0.103168
-0.0211982
0.116934
-0.0206175
0.138872
-0.0197647
0.161962
-0.0182829
0.190064
-0.0161197
0.224841
-0.0124956
0.269101
-0.00724026
0.317992
0.352338
-0.0185189
0.0666813
0.0156733
-0.0198554
0.104504
-0.0198219
0.116901
-0.0191835
0.138233
-0.0183168
0.161095
-0.0169033
0.18865
-0.0148
0.222738
-0.0115055
0.265807
-0.00654198
0.313029
0.345796
-0.0174933
0.0691489
0.0150257
-0.0185501
0.105561
-0.0183382
0.116689
-0.0176131
0.137508
-0.0167329
0.160215
-0.0153733
0.18729
-0.0133738
0.220738
-0.0103874
0.26282
-0.00581951
0.308461
0.339976
-0.0162408
0.0712389
0.0141508
-0.0170822
0.106402
-0.0167428
0.116349
-0.0159435
0.136709
-0.0150608
0.159332
-0.0137495
0.185979
-0.011884
0.218873
-0.00918745
0.260124
-0.00510697
0.30438
0.334869
-0.0147625
0.072903
0.0130984
-0.0154132
0.107053
-0.0150102
0.115946
-0.0141672
0.135866
-0.0132951
0.15846
-0.0120455
0.184729
-0.0103371
0.217164
-0.00793661
0.257723
-0.00439585
0.30084
0.330473
-0.0131068
0.0740923
0.0119175
-0.0135984
0.107545
-0.0131627
0.115511
-0.0122945
0.134998
-0.0114376
0.157603
-0.0102669
0.183559
-0.00873363
0.215631
-0.00664996
0.25564
-0.0036708
0.297861
0.326803
-0.0113204
0.0747475
0.0106651
-0.0117022
0.107927
-0.0112439
0.115052
-0.0103582
0.134112
-0.00951136
0.156756
-0.00843078
0.182478
-0.00708362
0.214284
-0.00533767
0.253894
-0.00292937
0.295452
0.323873
-0.00944746
0.0747851
0.0094099
-0.00977173
0.108251
-0.00928916
0.11457
-0.00839659
0.13322
-0.00754762
0.155907
-0.00656355
0.181494
-0.00540485
0.213125
-0.00401045
0.252499
-0.0021764
0.293618
0.321697
-0.0075285
0.0740827
0.00823092
-0.00784703
0.108569
-0.00731662
0.114039
-0.00644618
0.132349
-0.00557362
0.155035
-0.00469465
0.180615
-0.00371596
0.212147
-0.0026837
0.251467
-0.0014233
0.292358
0.320274
-0.00565254
0.0725153
0.00721989
-0.00597317
0.10889
-0.00537683
0.113443
-0.00454954
0.131522
-0.00363681
0.154122
-0.00285747
0.179836
-0.00205723
0.211346
-0.00137423
0.250784
-0.00067769
0.291661
0.319596
-0.0039381
0.0699889
0.00646449
-0.00416432
0.109116
-0.0035469
0.112826
-0.00273153
0.130706
-0.00178367
0.153174
-0.00106234
0.179115
-0.000472882
0.210757
-8.94498e-05
0.250401
5.15511e-05
0.29152
0.319647
-0.00249238
0.0664193
0.00606195
-0.0024405
0.109064
-0.00188787
0.112273
-0.00102384
0.129842
-0.000114427
0.152265
0.000647509
0.178353
0.00108908
0.210315
0.00115893
0.250331
0.000763645
0.291916
0.320411
-0.00143267
0.0617558
0.00609624
-0.000797367
0.108429
-0.000461263
0.111937
0.000554066
0.128827
0.00159795
0.151221
0.00227916
0.177671
0.00258112
0.210013
0.0023494
0.250562
0.00143992
0.292825
0.321851
-0.000862795
0.0559983
0.00662025
0.000609464
0.106957
0.000948513
0.111598
0.00201921
0.127756
0.00312686
0.150113
0.00379666
0.177002
0.00398156
0.209828
0.00348648
0.251057
0.00209458
0.294217
0.323946
-0.000824895
0.0492115
0.00761167
0.00169211
0.10444
0.00221495
0.111075
0.00329942
0.126672
0.00446873
0.148944
0.00515509
0.176315
0.00524705
0.209736
0.00452154
0.251783
0.00268928
0.296049
0.326635
-0.00129165
0.0415777
0.0089255
0.00259506
0.100553
0.00327475
0.110395
0.00440615
0.125541
0.0056519
0.147698
0.00639144
0.175576
0.00642499
0.209703
0.00550475
0.252703
0.00326691
0.298287
0.329902
-0.00217106
0.0334563
0.0102924
0.0032369
0.0951451
0.0040764
0.109556
0.00526312
0.124354
0.00657586
0.146385
0.00738321
0.174768
0.00738834
0.209698
0.00632224
0.253769
0.00374607
0.300863
0.333648
-0.00325664
0.0252493
0.0114637
0.003757
0.0881315
0.00484167
0.108471
0.00604892
0.123147
0.00744415
0.14499
0.00834225
0.17387
0.00833535
0.209705
0.00713704
0.254968
0.00423453
0.303766
0.337882
-0.00474794
0.0173041
0.0126931
0.00324777
0.0801358
0.00495067
0.106768
0.00627335
0.121824
0.00772
0.143544
0.00873762
0.172853
0.00878715
0.209655
0.00757584
0.256179
0.00450463
0.306837
0.342387
-0.0775948
0.00534021
0.0895587
-0.0652834
0.0678244
-0.0584878
0.0999727
-0.0502044
0.11354
-0.0405825
0.133922
-0.0327336
0.165004
-0.0257249
0.202646
-0.0181317
0.248586
-0.00954402
0.298249
0.332843
-0.103004
-0.00485354
0.113198
-0.0845139
0.0493343
-0.0712475
0.0867063
-0.0626931
0.104986
-0.051349
0.122578
-0.0416918
0.155347
-0.033591
0.194546
-0.0241904
0.239185
-0.0129943
0.287053
0.319849
-0.123208
-0.0182282
0.136582
-0.10358
0.0297069
-0.0858406
0.0689664
-0.0753517
0.0944972
-0.0642364
0.111462
-0.053029
0.144139
-0.0426068
0.184123
-0.0307631
0.227341
-0.0160955
0.272386
0.303753
-0.146831
-0.0289752
0.157578
-0.127559
0.0104355
-0.106546
0.0479537
-0.0919201
0.0798709
-0.0807317
0.100274
-0.0686464
0.132054
-0.0553144
0.170791
-0.0403695
0.212396
-0.0220218
0.254038
0.281731
-0.17054
-0.0327678
0.174332
-0.15578
-0.0043243
-0.134876
0.02705
-0.115591
0.0605856
-0.101371
0.086054
-0.0870221
0.117705
-0.0700226
0.153792
-0.0500704
0.192444
-0.0254902
0.229458
0.256241
-0.190691
-0.0287992
0.186722
-0.18382
-0.0111953
-0.167933
0.0111629
-0.148123
0.0407757
-0.130102
0.0680326
-0.111796
0.099399
-0.0908164
0.132812
-0.0658712
0.167499
-0.0358906
0.199477
0.220351
-0.202562
-0.0193985
0.193161
-0.204179
-0.00957743
-0.197048
0.00403176
-0.180792
0.0245196
-0.160644
0.0478845
-0.136905
0.07566
-0.109181
0.105088
-0.0762091
0.134527
-0.0381636
0.161432
0.182187
-0.209849
-0.00688903
0.197339
-0.216864
-0.00256236
-0.217138
0.00430613
-0.208935
0.0163168
-0.192599
0.0315477
-0.167826
0.050887
-0.13543
0.0726932
-0.0959727
0.0950694
-0.051835
0.117294
0.130352
-0.213906
1.09169e-05
0.207006
-0.21857
0.00210156
-0.219388
0.00512374
-0.21327
0.0101993
-0.199027
0.0173049
-0.174698
0.0265581
-0.139182
0.0371764
-0.0928721
0.0487599
-0.0387037
0.0631255
0.0916483
-0.301998
0.302009
-0.299896
-0.294772
-0.284573
-0.267268
-0.24071
-0.203534
-0.154774
-0.0916483
-0.0262072
0.0949938
0.0207721
-0.0301603
0.117151
-0.0323867
0.138809
-0.0320413
0.157232
-0.0288379
0.171129
-0.0232827
0.181167
-0.0167886
0.186667
-0.00975303
0.190304
-0.0054884
0.202742
0.29652
-0.0275059
0.0982539
0.0242458
-0.0311144
0.120759
-0.0326021
0.140297
-0.031499
0.156129
-0.028019
0.167649
-0.0225902
0.175739
-0.0159149
0.179991
-0.00929042
0.183679
-0.00493277
0.198384
0.291587
-0.0289268
0.100784
0.0263967
-0.0318736
0.123706
-0.0324215
0.140845
-0.0305488
0.154256
-0.0265993
0.163699
-0.0210642
0.170203
-0.0146312
0.173558
-0.00844217
0.17749
-0.00450441
0.194446
0.287083
-0.0299827
0.103107
0.0276595
-0.0321236
0.125847
-0.0316668
0.140388
-0.029096
0.151686
-0.0248099
0.159413
-0.0192948
0.164688
-0.0132056
0.167469
-0.00753632
0.171821
-0.00401573
0.190926
0.283067
-0.0305626
0.105361
0.028309
-0.031925
0.127209
-0.0305925
0.139055
-0.0274563
0.148549
-0.0229423
0.154899
-0.0175129
0.159259
-0.0117805
0.161737
-0.00661703
0.166658
-0.0034843
0.187793
0.279583
-0.0305265
0.107449
0.0284382
-0.0311122
0.127795
-0.0291048
0.137048
-0.0256
0.145045
-0.0210021
0.150301
-0.0157414
0.153998
-0.0103814
0.156377
-0.00569337
0.161969
-0.00292391
0.185023
0.276659
-0.0298575
0.109243
0.0280631
-0.0296822
0.12762
-0.0271888
0.134554
-0.0234986
0.141354
-0.0189594
0.145762
-0.0139551
0.148994
-0.00899592
0.151418
-0.00476371
0.157737
-0.00234289
0.182603
0.274316
-0.0286067
0.11066
0.0271903
-0.0277607
0.126774
-0.0249605
0.131754
-0.0212246
0.137618
-0.016851
0.141389
-0.0121651
0.144308
-0.00762428
0.146877
-0.00383027
0.153943
-0.00174651
0.180519
0.27257
-0.0268537
0.111663
0.0258502
-0.025485
0.125405
-0.0225514
0.128821
-0.0188776
0.133945
-0.0147411
0.137252
-0.0104058
0.139973
-0.00628144
0.142752
-0.00290148
0.150563
-0.00113905
0.178756
0.271431
-0.0247015
0.11226
0.0241051
-0.0229765
0.12368
-0.0200614
0.125906
-0.0165329
0.130416
-0.0126807
0.1334
-0.00870801
0.136
-0.00498401
0.139028
-0.00198848
0.147568
-0.000524349
0.177292
0.270906
-0.0222732
0.112477
0.0220559
-0.0203643
0.121771
-0.0175714
0.123113
-0.0142477
0.127092
-0.0107069
0.129859
-0.00709536
0.132389
-0.00374705
0.13568
-0.00110576
0.144926
8.63903e-05
0.1761
0.270993
-0.0196665
0.112358
0.0197859
-0.0177351
0.11984
-0.0151264
0.120504
-0.012055
0.124021
-0.00883262
0.126637
-0.00557386
0.12913
-0.00257294
0.132679
-0.000267009
0.142621
0.000686924
0.175146
0.27168
-0.017031
0.111997
0.0173919
-0.0151744
0.117983
-0.012788
0.118118
-0.00999269
0.121226
-0.00708205
0.123726
-0.00415894
0.126207
-0.00147215
0.129992
0.000581001
0.140567
0.00128763
0.174439
0.272967
-0.0144558
0.111501
0.0149514
-0.012731
0.116258
-0.0105905
0.115977
-0.00808033
0.118715
-0.00546835
0.121114
-0.00285999
0.123598
-0.000454507
0.127587
0.00136896
0.138744
0.00186775
0.173941
0.274835
-0.01199
0.110969
0.0125219
-0.0104304
0.114699
-0.00855232
0.114099
-0.00632742
0.11649
-0.00400013
0.118787
-0.0016864
0.121285
0.000472759
0.125428
0.00209894
0.137118
0.00242302
0.173617
0.277258
-0.00968264
0.110494
0.0101576
-0.00829321
0.113309
-0.00668701
0.112493
-0.00473988
0.114543
-0.00268357
0.116731
-0.000649874
0.119251
0.00130913
0.123469
0.00276889
0.135658
0.00294637
0.173439
0.280204
-0.00751886
0.110156
0.00785672
-0.0063075
0.112098
-0.00498572
0.111171
-0.00331109
0.112869
-0.00151865
0.114938
0.000280683
0.117452
0.00205175
0.121698
0.00337784
0.134332
0.00343732
0.17338
0.283642
-0.00559994
0.110057
0.00569972
-0.00452657
0.111025
-0.0034751
0.11012
-0.00205908
0.111453
-0.000525378
0.113404
0.00110927
0.115817
0.00268992
0.120117
0.00391309
0.133109
0.00387606
0.173417
0.287518
-0.00363232
0.110188
0.00350093
-0.00279022
0.110182
-0.00203873
0.109368
-0.000911724
0.110326
0.00040547
0.112087
0.00182846
0.114394
0.00324986
0.118696
0.00440177
0.131957
0.00428079
0.173538
0.291799
-0.00236058
0.110898
0.00165094
-0.00153738
0.109359
-0.000980617
0.108811
-0.000120803
0.109466
0.00107778
0.110889
0.00231744
0.113154
0.00362613
0.117387
0.00473919
0.130844
0.00459856
0.173678
0.296397
-0.100738
0.0977936
0.113842
-0.0829881
0.0916095
-0.0699074
0.0957306
-0.0555921
0.0951506
-0.0416955
0.0969922
-0.0279297
0.0993884
-0.0152843
0.104741
-0.00544037
0.121
-0.000846747
0.169085
0.29555
-0.100599
0.0844554
0.113937
-0.0831365
0.0741469
-0.0702033
0.0827973
-0.0550034
0.0799507
-0.0412654
0.0832542
-0.0276225
0.0857455
-0.0153779
0.0924969
-0.00568687
0.111309
-0.00108395
0.164482
0.294466
-0.0979236
0.0685721
0.113807
-0.0822072
0.0584305
-0.0691788
0.069769
-0.0541199
0.0648917
-0.0406542
0.0697885
-0.0272761
0.0723674
-0.0155722
0.080793
-0.00636622
0.102103
-0.0014713
0.159587
0.292995
-0.0959171
0.051741
0.112748
-0.0813634
0.0438769
-0.0675931
0.0559987
-0.0533182
0.0506168
-0.0401108
0.0565812
-0.027173
0.0594296
-0.0158498
0.0694698
-0.00700655
0.0932596
-0.00190427
0.154485
0.291091
-0.094104
0.0353355
0.11051
-0.080781
0.0305539
-0.0662755
0.0414932
-0.0532723
0.0376136
-0.0407452
0.044054
-0.0287777
0.0474622
-0.0179325
0.0586246
-0.00955338
0.0848804
-0.00371624
0.148647
0.287375
-0.0925433
0.0204662
0.107413
-0.0800773
0.0180879
-0.0660515
0.0274674
-0.054695
0.0262571
-0.0436977
0.0330567
-0.0334137
0.0371782
-0.0233372
0.0485481
-0.0146217
0.0761649
-0.00724509
0.141271
0.28013
-0.094451
0.00608412
0.108833
-0.0834028
0.00703967
-0.0710275
0.0150921
-0.0618485
0.0170782
-0.05303
0.0242381
-0.0451733
0.0293215
-0.0373369
0.0407118
-0.0288009
0.0676288
-0.0171301
0.1296
0.262999
-0.117534
-0.00425561
0.127874
-0.109992
-0.000501712
-0.100453
0.00555243
-0.0920808
0.00870618
-0.0829619
0.0151192
-0.0745507
0.0209103
-0.0663513
0.0325123
-0.0555886
0.0568662
-0.0367984
0.11081
0.226201
-0.186361
-0.00498569
0.187091
-0.185766
-0.00109674
-0.181286
0.00107271
-0.176127
0.00354695
-0.168086
0.00707836
-0.158574
0.0113987
-0.145916
0.0198535
-0.124919
0.03587
-0.0829684
0.0688588
0.143233
-0.289815
0.284829
-0.290912
-0.289839
-0.286292
-0.279214
-0.267815
-0.247962
-0.212092
-0.143233
-0.000597251
0.114972
-0.000532386
-0.00133866
0.114679
-0.00216677
0.114635
-0.00290195
0.113483
-0.00367282
0.11128
-0.00488303
0.108623
-0.00664897
0.110599
-0.00812
0.129345
-0.00695023
0.185921
0.277879
0.00130256
0.117001
-0.00333201
-0.000277879
0.116259
-0.00146298
0.11582
-0.00250292
0.114523
-0.00356074
0.112338
-0.00498965
0.110052
-0.0068511
0.112461
-0.00832059
0.130814
-0.00650099
0.184101
0.271378
0.00345307
0.11947
-0.00592156
0.00140464
0.118308
-0.000384971
0.11761
-0.00175509
0.115893
-0.00315633
0.113739
-0.0048456
0.111741
-0.00683118
0.114446
-0.00821766
0.132201
-0.00634922
0.182233
0.265029
0.00553925
0.122429
-0.0084986
0.00305646
0.12079
0.000890328
0.119776
-0.000888927
0.117673
-0.00260128
0.115452
-0.00456294
0.113703
-0.00668556
0.116569
-0.00804603
0.133561
-0.00616812
0.180355
0.258861
0.00760644
0.125941
-0.0111186
0.0046946
0.123702
0.00223046
0.12224
-3.23001e-05
0.119935
-0.0019422
0.117362
-0.00415404
0.115914
-0.00641388
0.118829
-0.0077917
0.134939
-0.00595166
0.178515
0.252909
0.00977264
0.129971
-0.0138022
0.00643092
0.127044
0.00365626
0.125015
0.00118856
0.122403
-0.00116032
0.119711
-0.00361214
0.118366
-0.00601774
0.121234
-0.00745075
0.136372
-0.00570732
0.176772
0.247202
0.0120679
0.134456
-0.0165535
0.00830964
0.130802
0.00521844
0.128106
0.002459
0.125163
-0.000257203
0.122427
-0.00292374
0.121033
-0.00549464
0.123805
-0.00702449
0.137902
-0.00544465
0.175192
0.241757
0.0144805
0.139335
-0.0193596
0.0103255
0.134957
0.00692153
0.13151
0.0038634
0.128221
0.000878241
0.125412
-0.00208051
0.123992
-0.00484154
0.126566
-0.00651382
0.139574
-0.00516655
0.173845
0.236591
0.0169878
0.144527
-0.0221799
0.0124632
0.139482
0.008756
0.135217
0.00540561
0.131571
0.00214949
0.128668
-0.00108865
0.12723
-0.00405589
0.129533
-0.00591748
0.141436
-0.00486916
0.172796
0.231721
0.0195523
-0.0249344
0.0147083
0.0107115
0.00707223
0.0035387
1.61042e-05
-0.00313726
-0.00523325
-0.00454502
-0.000374858
-0.000799125
-0.000828141
-0.00160679
-0.00113846
-0.00207734
-0.00116823
-0.00226657
-0.000820228
-0.00215967
-2.47847e-05
-0.00172484
0.00126143
-0.000955809
0.00302951
0.000103082
0.00517081
0.00132733
0.00248133
-0.000432846
-0.000366279
-0.000994563
-0.00104507
-0.00147361
-0.00159829
-0.0017512
-0.00198898
-0.00175075
-0.00216013
-0.00142198
-0.00205361
-0.000742041
-0.00163575
0.000284231
-0.000923189
0.00163463
-2.30717e-05
0.0008051
-0.000438416
7.21378e-05
-0.00100363
-0.000479851
-0.00149697
-0.00110495
-0.001817
-0.00166895
-0.00190493
-0.0020722
-0.00172251
-0.00223602
-0.00124609
-0.00211218
-0.000460464
-0.00170881
0.000641186
-0.00112472
-0.000684837
-0.000386371
0.000458509
-0.000839467
-2.67544e-05
-0.00117399
-0.000770428
-0.00130129
-0.00154164
-0.00117692
-0.00219658
-0.000773326
-0.00263961
-6.85601e-05
-0.00281694
0.000951401
-0.00272877
0.00230749
-0.00248081
-0.00232223
-0.000281446
0.000739955
-0.000514656
0.000206456
-0.000527375
-0.000757709
-0.000242418
-0.0018266
0.000370449
-0.00280945
0.00132004
-0.00358921
0.0026102
-0.0041071
0.00424427
-0.00436284
0.00620819
-0.00444473
-0.00449919
-0.000137102
0.000877058
-6.44645e-05
0.000133818
0.00037108
-0.00119325
0.00123198
-0.0026875
0.00252584
-0.0041033
0.00423276
-0.00529613
0.00632355
-0.00619789
0.00876415
-0.00680344
0.0114961
-0.00717669
-0.00742109
3.19842e-05
0.000845074
0.00046361
-0.000297809
0.00142437
-0.00215402
0.0029469
-0.00421002
0.00499988
-0.00615628
0.00751728
-0.00781353
0.0104222
-0.00910286
0.0136367
-0.0100179
0.017064
-0.010604
-0.0109737
0.00020705
0.000638023
0.00102391
-0.00111467
0.00253549
-0.0036656
0.00472272
-0.00639725
0.00749109
-0.00892465
0.0107101
-0.0110326
0.0142456
-0.0126383
0.0179757
-0.0137481
0.0217855
-0.0144138
-0.0147664
0.000380737
0.000257286
0.00158098
-0.00231491
0.003621
-0.00570561
0.00639737
-0.00917362
0.00972527
-0.0122526
0.0133971
-0.0147044
0.0172239
-0.0164651
0.0210525
-0.0175767
0.0247685
-0.0181297
-0.0182681
0.00054693
-0.000289643
0.00210856
-0.00387654
0.00460946
-0.00820651
0.00782618
-0.0123903
0.011465
-0.0158914
0.0152458
-0.0184852
0.0189466
-0.0201659
0.0224123
-0.0210424
0.0255485
-0.021266
-0.0210077
0.000711384
-0.00100103
0.00260305
-0.00576821
0.00546075
-0.0110642
0.00891128
-0.0158409
0.0125564
-0.0195365
0.0160746
-0.0220034
0.0192518
-0.0233431
0.0219691
-0.0237597
0.0241793
-0.0234762
-0.0227199
0.000861699
-0.00186273
0.00301594
-0.00792245
0.0060734
-0.0141217
0.00950724
-0.0192747
0.0128512
-0.0228805
0.015794
-0.0249462
0.018174
-0.025723
0.0199364
-0.0255222
0.021099
-0.0246388
-0.0233705
0.000995616
-0.00285834
0.00332684
-0.0102537
0.00640348
-0.0171983
0.00957584
-0.0224471
0.0123714
-0.025676
0.0145427
-0.0271175
0.0160094
-0.0271897
0.0167875
-0.0263003
0.0169527
-0.024804
-0.0230536
0.00110426
-0.0039626
0.00350633
-0.0126557
0.00641841
-0.0201104
0.00913086
-0.0251595
0.0112296
-0.0277747
0.0125643