/*--------------------------------*- C++ -*----------------------------------*\
  =========                 |
  \\      /  F ield         | OpenFOAM: The Open Source CFD Toolbox
   \\    /   O peration     | Website:  https://openfoam.org
    \\  /    A nd           | Version:  7
     \\/     M anipulation  |
\*---------------------------------------------------------------------------*/
FoamFile
{
    version     2.0;
    format      ascii;
    class       volScalarField;
    location    "21";
    object      p;
}
// * * * * * * * * * * * * * * * * * * * * * * * * * * * * * * * * * * * * * //

dimensions      [0 2 -2 0 0 0 0];

internalField   nonuniform List<scalar> 
2000
(
-0.0138825
-0.00972601
-0.00700296
-0.00386169
-0.000359261
0.00340865
0.00736064
0.0113999
0.0154469
0.0194859
-0.0125507
-0.00883664
-0.00644746
-0.0037827
-0.000853736
0.00232644
0.00573858
0.00932322
0.0130042
0.0167695
-0.0112265
-0.00798599
-0.00588968
-0.00362831
-0.00121145
0.0013945
0.00422447
0.00727175
0.0104905
0.0138903
-0.00994862
-0.00719599
-0.00536135
-0.00343363
-0.00144788
0.000636583
0.00288295
0.00533224
0.00798549
0.0108912
-0.00875035
-0.00648356
-0.00488548
-0.00322983
-0.00158723
6.04192e-05
0.0017713
0.00360738
0.00561373
0.00784977
-0.00766001
-0.00585625
-0.00447282
-0.00303904
-0.00165775
-0.00034658
0.000921332
0.00219078
0.0035309
0.0048817
-0.00669626
-0.00531491
-0.00412488
-0.00287374
-0.00168692
-0.000615275
0.00032662
0.00113838
0.00188261
0.00212865
-0.00587667
-0.00486024
-0.00384014
-0.00274034
-0.00169858
-0.00078784
-5.78948e-05
0.000449816
0.000746192
-0.000229215
-0.00520898
-0.00450629
-0.00362015
-0.00264394
-0.00171269
-0.000908865
-0.000300924
6.09618e-05
6.37469e-05
-0.00213967
-0.00472973
-0.00424809
-0.00346925
-0.0025919
-0.00174574
-0.00101167
-0.000454013
-9.57661e-05
-0.000187653
-0.00303756
0.0278565
0.0398215
0.0493004
0.0560386
0.0606025
0.0635167
0.0643529
0.0649594
0.0639404
0.0653764
0.0247329
0.0370317
0.0465903
0.0531971
0.0577204
0.0605754
0.0612941
0.0617641
0.060878
0.0621543
0.0212828
0.034183
0.0438431
0.0503534
0.0549072
0.0577395
0.0583626
0.0587165
0.0578918
0.059105
0.0175602
0.0313197
0.0410348
0.0475151
0.0521786
0.0550117
0.0555702
0.0558133
0.0550175
0.0562265
0.0137246
0.0285367
0.0381725
0.0447139
0.0495479
0.0523979
0.0529225
0.0530566
0.0522889
0.0535188
0.0100187
0.0258044
0.0351915
0.0419562
0.0470127
0.0499036
0.0504242
0.0504443
0.0497127
0.0509865
0.00686853
0.0231953
0.0321691
0.0393044
0.0445761
0.0475291
0.0480763
0.0479852
0.0473081
0.0486298
0.00447919
0.0203301
0.0289971
0.0367084
0.0422131
0.0452822
0.0458856
0.0456654
0.0450476
0.0464511
0.00334015
0.0175443
0.0260144
0.0342355
0.0399197
0.0431423
0.0438408
0.0435172
0.0429769
0.0444404
0.00169715
0.0137743
0.0227865
0.0316151
0.0376505
0.0411481
0.0419733
0.0414846
0.0410065
0.0425963
0.00665924
0.00936639
0.0171233
0.0258143
0.032257
0.0362414
0.0376345
0.0372534
0.0370416
0.038452
0.00261257
0.00381492
0.011406
0.0193689
0.0256135
0.0298968
0.0319577
0.0321915
0.0321261
0.0338235
-0.000877536
0.00126417
0.00859375
0.0154154
0.0207979
0.0248374
0.0273166
0.0283762
0.0289596
0.0314435
-0.00239562
0.000485166
0.00696435
0.0125617
0.0171918
0.0209002
0.0235898
0.0254327
0.026875
0.0297899
-0.00212904
0.00128344
0.00638667
0.0104565
0.0142898
0.0175245
0.0201105
0.0222719
0.0241578
0.026823
-0.00110065
0.00228234
0.00560182
0.00875323
0.0118148
0.014465
0.0167278
0.018732
0.0203833
0.0222108
0.0015647
0.00394068
0.00519384
0.00714772
0.00928093
0.0112933
0.0131051
0.0147296
0.0159764
0.017104
0.003284
0.00494184
0.00498652
0.00588692
0.00701256
0.00821448
0.00938648
0.0104688
0.0112799
0.0119287
0.0042007
0.00453879
0.0038643
0.0039452
0.00446598
0.00509936
0.00575577
0.00634465
0.00676229
0.00707463
0.0027739
0.0031179
0.00255233
0.00183178
0.00160581
0.00172589
0.00195704
0.00216643
0.00227328
0.00233026
0.000752729
0.00131285
-0.00088411
-0.00227273
-0.00189028
-0.000458502
0.00149056
0.00302677
0.00431112
0.00202579
0.0008621
0.00111154
-0.00116587
-0.00270725
-0.002476
-0.00114237
0.000947872
0.00259699
0.00400407
0.00164931
0.00123611
0.000683008
-0.00188071
-0.00357632
-0.00339951
-0.00200456
0.000268414
0.00204981
0.00362115
0.00132392
0.0011805
-0.000223845
-0.00305785
-0.00480665
-0.0045321
-0.00294381
-0.00044497
0.00148807
0.00325803
0.00105093
0.000563615
-0.00168138
-0.00474067
-0.00638647
-0.00585547
-0.00397152
-0.00119358
0.000918891
0.00289325
0.00082178
-0.000772504
-0.00372674
-0.00686704
-0.00822914
-0.00729902
-0.00504427
-0.00196713
0.000343745
0.00251125
0.000632204
-0.0027983
-0.00628334
-0.00925445
-0.0101785
-0.00876239
-0.00610909
-0.00274608
-0.000229735
0.00210886
0.000470943
-0.00524893
-0.00910216
-0.01165
-0.0120582
-0.0101477
-0.00711814
-0.00350426
-0.000791407
0.00169067
0.000319613
-0.00772855
-0.0118184
-0.0138012
-0.0137124
-0.0113711
-0.00802621
-0.00420768
-0.00132733
0.00127234
0.000175171
-0.00982587
-0.0140822
-0.0155121
-0.015031
-0.0123653
-0.00878853
-0.00481916
-0.00172523
0.000891424
0.000101779
-0.0112673
-0.0156838
-0.0166687
-0.0159553
-0.0130803
-0.00936197
-0.00532234
-0.00214675
0.000478926
0.00011949
-0.0119422
-0.016576
-0.0172493
-0.0164697
-0.0134997
-0.0097699
-0.00570846
-0.00248695
9.76128e-05
0.000104214
-0.011849
-0.0167986
-0.0173163
-0.0165711
-0.0136645
-0.00996108
-0.00597607
-0.00276375
-0.000238647
4.84135e-05
-0.0111647
-0.0163836
-0.016955
-0.0163379
-0.0135877
-0.00998646
-0.00613956
-0.00298641
-0.000534652
-2.77712e-05
-0.00999462
-0.0155262
-0.0162615
-0.015838
-0.0133216
-0.00988762
-0.00622224
-0.00316321
-0.000793395
-0.000110338
-0.00848545
-0.0143645
-0.0153434
-0.0151412
-0.0129218
-0.00970138
-0.00624637
-0.00330321
-0.00101701
-0.000191761
-0.00677974
-0.0130049
-0.0143014
-0.0143159
-0.0124344
-0.00946031
-0.00622943
-0.00341349
-0.00120834
-0.000267866
-0.0049485
-0.011513
-0.0132045
-0.0134279
-0.0118967
-0.00918597
-0.00618402
-0.00349992
-0.00137095
-0.00033685
-0.00297198
-0.00985934
-0.0120667
-0.0125193
-0.0113462
-0.00889182
-0.00612957
-0.00357172
-0.00151012
-0.000397978
-0.00131845
-0.00808212
-0.0108653
-0.01152
-0.0107494
-0.00866562
-0.006065
-0.00361891
-0.00162672
-0.000446446
-7.83051e-06
-0.00429322
-0.00782421
-0.00888732
-0.00882733
-0.0074741
-0.00556586
-0.00355471
-0.00180792
-0.000519399
0.00157958
-0.00197537
-0.00469165
-0.00580042
-0.00617911
-0.00548349
-0.00434145
-0.00291006
-0.00158639
-0.00043867
0.00432131
0.000923669
-0.00181481
-0.00315019
-0.00392698
-0.00377038
-0.00321104
-0.00223622
-0.00119855
-0.000221308
0.00678354
0.00358728
0.000835474
-0.000779162
-0.00193429
-0.00224321
-0.00211267
-0.00146473
-0.000669428
7.98657e-05
0.00943374
0.0060558
0.00319775
0.00132759
-0.000178011
-0.000873407
-0.00107688
-0.000681321
-1.78684e-05
0.00049589
0.0122054
0.0085681
0.00542218
0.00317955
0.00134505
0.000314472
-0.000155955
0.000149692
0.000797647
0.00106679
0.0149007
0.0108889
0.00741666
0.00481008
0.00265573
0.00132688
0.000710397
0.00102734
0.00168554
0.00167071
0.0173896
0.0128573
0.00913677
0.00618834
0.00377767
0.00225137
0.00158645
0.00191109
0.0024976
0.00212889
0.0195939
0.0151857
0.0108689
0.00734888
0.00469684
0.00308408
0.00241789
0.00257245
0.00279281
0.0019979
0.0219454
0.015547
0.0109783
0.00760368
0.00517465
0.00366801
0.00298337
0.00283754
0.00257537
0.00150119
0.00348791
0.00530609
0.00731032
0.00932205
0.0121257
0.0149203
0.01776
0.0209606
0.0222853
0.0273043
0.00508927
0.00701463
0.00881395
0.0107785
0.0137366
0.0165503
0.019531
0.0227891
0.0243461
0.02856
0.00655154
0.00839829
0.010217
0.0124367
0.0156731
0.0186479
0.0218771
0.0251513
0.0272576
0.0293657
0.00772912
0.00941636
0.0113187
0.0138548
0.0173595
0.0205761
0.0240709
0.0274698
0.0299845
0.0309202
0.00870024
0.0103247
0.0123482
0.0151545
0.0188718
0.0223148
0.0260402
0.0295982
0.0323931
0.033232
0.0094989
0.0112205
0.0134576
0.0165211
0.0204276
0.0240647
0.0279827
0.0316753
0.0346854
0.0359236
0.0101208
0.0120819
0.0146435
0.0179981
0.0221199
0.0259563
0.030062
0.0338746
0.0370617
0.0387236
0.0105687
0.0128886
0.0158666
0.0195491
0.0239337
0.0280036
0.0323236
0.0362765
0.0396199
0.0415605
0.0108573
0.013649
0.0171162
0.0211428
0.0258361
0.0301728
0.0347447
0.0388767
0.0423774
0.0444756
0.0110038
0.0143783
0.0184037
0.0227678
0.0278167
0.0324334
0.0372942
0.0416382
0.0453159
0.0475246
0.0110245
0.0150847
0.0197419
0.0244166
0.029883
0.0347713
0.0399609
0.0445348
0.0484193
0.0507393
0.0109325
0.0157612
0.0211278
0.0260775
0.0320311
0.037185
0.0427418
0.0475545
0.0516777
0.0541233
0.010733
0.0163859
0.0225273
0.0277518
0.0342309
0.0396965
0.0456295
0.0507197
0.0550972
0.0576765
0.0104163
0.0169313
0.0238853
0.0294597
0.0364266
0.0423173
0.0486183
0.054032
0.0586756
0.0613934
0.00994096
0.017375
0.0251328
0.0312249
0.0386385
0.0450106
0.0516998
0.0574856
0.0624224
0.0652857
0.00925063
0.0177013
0.0263044
0.0329449
0.0408368
0.0477101
0.0548347
0.0610411
0.0663187
0.0693506
0.00832801
0.0179341
0.0273831
0.03458
0.0430097
0.0504197
0.0580435
0.064726
0.0703871
0.0736126
0.00710877
0.0180037
0.0282666
0.0360664
0.0450615
0.0530498
0.061225
0.0684542
0.0745804
0.0780574
0.00565756
0.0180537
0.029015
0.0374985
0.0470643
0.0556867
0.0644589
0.0722984
0.0789403
0.0827283
0.00346489
0.0174514
0.0291799
0.03841
0.0485365
0.0578533
0.0673028
0.0759264
0.0833044
0.0875815
0.00319131
0.0190176
0.0314535
0.0424789
0.0537149
0.0646096
0.0755474
0.0858916
0.0947518
0.1001
0.012945
0.0285602
0.0411618
0.0536517
0.0666918
0.0800478
0.0936873
0.106868
0.118269
0.124978
0.0250918
0.0409247
0.0540625
0.0680194
0.0828839
0.0992272
0.116059
0.132567
0.146945
0.155533
0.037853
0.0539507
0.0682727
0.0841396
0.101668
0.121736
0.142486
0.163004
0.180843
0.191395
0.0502697
0.0668614
0.082978
0.101349
0.122606
0.147359
0.173068
0.198349
0.220024
0.233089
0.062893
0.080124
0.0986668
0.12036
0.146242
0.176562
0.208129
0.23882
0.264684
0.279725
0.0760367
0.0940971
0.115508
0.141336
0.172509
0.208942
0.246797
0.28319
0.313094
0.330998
0.090536
0.109432
0.133729
0.164187
0.200975
0.243501
0.287689
0.330144
0.363684
0.380811
0.102483
0.122285
0.149389
0.183863
0.225297
0.272713
0.322343
0.370561
0.407474
0.427379
0.110617
0.131612
0.160703
0.197908
0.242437
0.293194
0.347439
0.402159
0.444437
0.450628
-0.00129791
0.00788004
0.017893
0.0294844
0.0411707
0.0542513
0.0676922
0.0827723
0.0950082
0.102943
-0.00235381
0.0074221
0.0171335
0.0284952
0.04006
0.0533137
0.066818
0.0820852
0.093882
0.101559
-0.00224535
0.00835837
0.0183152
0.0300139
0.0418646
0.0554441
0.0691796
0.0843215
0.0949864
0.102132
-0.00161601
0.00910018
0.0192496
0.0313666
0.043674
0.0576194
0.0716472
0.0865689
0.0963061
0.102847
-0.000464472
0.00998242
0.0201677
0.0325416
0.0451954
0.0594093
0.0735919
0.0882316
0.0973018
0.103252
0.00123734
0.0114012
0.0216966
0.0342365
0.0471075
0.0614679
0.0756149
0.0898458
0.0983031
0.103646
0.00347436
0.0134266
0.0240134
0.0367386
0.04982
0.0642719
0.0782736
0.0919768
0.0997511
0.104444
0.00623906
0.0160455
0.0270409
0.0399751
0.0533137
0.0678489
0.081669
0.0947861
0.101814
0.105836
0.00951492
0.0192473
0.030683
0.0438045
0.0574114
0.0720063
0.0856142
0.0981278
0.104398
0.107767
0.0132546
0.0229895
0.0348553
0.0481156
0.0619494
0.0765457
0.0898794
0.101785
0.107319
0.110075
0.0173821
0.0271716
0.0394516
0.0527993
0.0667924
0.0813206
0.0942952
0.1056
0.110435
0.112611
0.0217853
0.0316163
0.0443136
0.0577027
0.0717962
0.0862064
0.0987452
0.10948
0.113663
0.115285
0.0262701
0.0361159
0.0492414
0.0626475
0.076819
0.0910758
0.10315
0.113359
0.116952
0.118069
0.0306308
0.0405238
0.0540672
0.0674952
0.081741
0.0958256
0.107452
0.117171
0.120253
0.120953
0.0346997
0.0447429
0.0586627
0.07215
0.0864682
0.10038
0.111613
0.12085
0.123537
0.123913
0.0383337
0.048683
0.0629133
0.076526
0.0909159
0.104674
0.115588
0.12433
0.126799
0.126876
0.04144
0.0522867
0.0667481
0.0805733
0.0950386
0.108674
0.11936
0.127605
0.130033
0.129809
0.0438661
0.0554366
0.070057
0.0841854
0.0987501
0.112313
0.12287
0.130656
0.133121
0.132696
0.0457279
0.0582244
0.0729327
0.0874278
0.102108
0.115635
0.126141
0.133592
0.136045
0.135566
0.0463711
0.060038
0.0748522
0.0897732
0.104683
0.118311
0.128927
0.136213
0.138664
0.138418
0.0505421
0.0663486
0.0811592
0.0967106
0.111701
0.125242
0.135882
0.142941
0.145344
0.145387
0.0661213
0.0810795
0.09512
0.110276
0.124236
0.136799
0.146591
0.15299
0.155449
0.15575
0.0795213
0.0941406
0.108024
0.122606
0.135526
0.147241
0.156225
0.162293
0.165061
0.165781
0.0897553
0.104044
0.118083
0.132138
0.144652
0.156038
0.164851
0.171364
0.175266
0.177113
0.0971555
0.111347
0.125472
0.139174
0.151843
0.16335
0.172782
0.18077
0.187088
0.191651
0.102677
0.116802
0.131003
0.144628
0.157756
0.169841
0.180787
0.191801
0.203169
0.213899
0.105933
0.120434
0.134814
0.1486
0.162381
0.175645
0.189171
0.205348
0.225753
0.249156
0.108845
0.12373
0.138532
0.15313
0.167882
0.183078
0.200739
0.225943
0.262973
0.31088
0.109141
0.124059
0.138998
0.154069
0.170078
0.188534
0.21371
0.253546
0.31753
0.408074
0.111548
0.127374
0.143919
0.161589
0.181816
0.207511
0.2447
0.304456
0.404024
0.548639
0.0426028
0.0567567
0.0697973
0.0801847
0.0877622
0.0940776
0.0969137
0.0999157
0.0996525
0.101791
0.0418831
0.055464
0.0677827
0.0776414
0.0848355
0.0909782
0.0934574
0.096327
0.0957748
0.0980424
0.0428742
0.0563328
0.0676915
0.0766132
0.0830095
0.0883928
0.0903418
0.0928572
0.0920055
0.0945185
0.0423379
0.0556813
0.0665648
0.0749768
0.0808476
0.085625
0.0871831
0.0893704
0.0882594
0.090796
0.0408818
0.0538859
0.0644461
0.0725752
0.0781701
0.0825816
0.0839061
0.085842
0.0845147
0.0869113
0.039283
0.0518377
0.0620171
0.0698574
0.075265
0.0794081
0.0805929
0.0823011
0.0808004
0.083032
0.0375501
0.0497685
0.0595983
0.0671276
0.0723186
0.076126
0.0773353
0.0787743
0.0771569
0.0792736
0.0355433
0.047549
0.0571537
0.0644118
0.0693882
0.0728706
0.0740517
0.0752694
0.0736209
0.075661
0.0332435
0.0451221
0.0546114
0.0616621
0.0664596
0.0696798
0.0707656
0.0717827
0.0702381
0.0721661
0.0306796
0.0425263
0.0519791
0.058865
0.0635253
0.0665574
0.0675192
0.0683059
0.0670543
0.0687357
-0.00445282
-0.00409466
-0.00339562
-0.00259463
-0.00181433
-0.0011233
-0.000558399
-6.36131e-05
0.00052106
0.000798685
-0.00438224
-0.00404952
-0.00340175
-0.00266058
-0.00193964
-0.00130093
-0.000777586
-0.000360065
-5.19475e-05
2.04611e-05
-0.00451139
-0.00410345
-0.00347908
-0.00278097
-0.00211394
-0.00153435
-0.0010745
-0.000750341
-0.000655448
-0.00083572
-0.00481807
-0.00423362
-0.00360382
-0.00293056
-0.00230795
-0.00178516
-0.00139031
-0.00114448
-0.0011622
-0.00148644
-0.00525713
-0.004411
-0.00374569
-0.0030772
-0.00248991
-0.00202391
-0.00169953
-0.00153101
-0.00159643
-0.0019347
-0.00577784
-0.00460892
-0.00387872
-0.00319862
-0.00264432
-0.00224622
-0.00201232
-0.00194198
-0.00205515
-0.00236601
-0.00633009
-0.00480319
-0.00399014
-0.00329264
-0.00278182
-0.00247929
-0.00237649
-0.00245381
-0.00268579
-0.00303277
-0.00686813
-0.00498007
-0.00408074
-0.0033738
-0.00293041
-0.00276394
-0.00284592
-0.00313465
-0.00357593
-0.00407373
-0.00734825
-0.00513082
-0.00415614
-0.00345813
-0.00311123
-0.00311947
-0.00343095
-0.00397895
-0.00468426
-0.00542706
-0.00773677
-0.00524984
-0.00421816
-0.00354718
-0.00331593
-0.00351617
-0.00406883
-0.00487982
-0.00584582
-0.00685706
-0.00801602
-0.00533467
-0.00425802
-0.00361756
-0.00349674
-0.00387164
-0.00463342
-0.00566056
-0.00683405
-0.00806146
-0.00809589
-0.00532298
-0.00421418
-0.00359758
-0.00356259
-0.00406807
-0.00497621
-0.00614254
-0.00744449
-0.00879281
-0.00793963
-0.00518133
-0.0040383
-0.00341987
-0.00342672
-0.00400156
-0.00498138
-0.0062062
-0.00755737
-0.00893069
-0.00751124
-0.00486548
-0.00367228
-0.00301611
-0.00301659
-0.00360241
-0.00458997
-0.00581088
-0.00715155
-0.00848858
-0.00678157
-0.00433105
-0.00306633
-0.00233867
-0.0022943
-0.00284981
-0.00380547
-0.00498585
-0.00627533
-0.00752974
-0.0057395
-0.00354666
-0.00219345
-0.00137188
-0.00126154
-0.00176848
-0.0026806
-0.00380882
-0.00502736
-0.00618469
-0.00439678
-0.00250279
-0.00105518
-0.000132498
4.51302e-05
-0.000418396
-0.00129129
-0.00237713
-0.00352945
-0.00459686
-0.00278967
-0.00121889
0.00032221
0.0013375
0.0015678
0.00113045
0.000272918
-0.000797285
-0.00191461
-0.00290634
-0.000977485
0.00026165
0.00189322
0.00297579
0.00324392
0.00281209
0.00193616
0.000824048
-0.000343296
-0.00126104
0.000962214
0.00188636
0.00357616
0.00471559
0.00501823
0.00459531
0.003693
0.00248127
0.00108227
-7.57189e-05
0.00294318
0.00357319
0.0052895
0.00647293
0.00682237
0.00645662
0.00562583
0.00450466
0.00329274
0.00265766
0.0049036
0.00524379
0.00694633
0.00814932
0.00854113
0.00824222
0.00750037
0.00649664
0.00543677
0.00489451
0.00673082
0.00680758
0.00846049
0.00965379
0.0100661
0.00981351
0.00913655
0.0082171
0.00724444
0.00667083
0.00834026
0.00819214
0.00976404
0.0109173
0.0113228
0.01109
0.0104543
0.00959959
0.00869549
0.00809368
0.00967237
0.00934397
0.0108096
0.0118959
0.0122698
0.0120358
0.0114266
0.0106312
0.00980298
0.00920932
0.0106899
0.0102293
0.0115706
0.0125685
0.0128921
0.0126432
0.0120544
0.0113198
0.0105797
0.010032
0.0113786
0.0108344
0.0120394
0.0129324
0.013192
0.0129204
0.0123511
0.0116813
0.0110413
0.0105721
0.0117459
0.0111635
0.012224
0.0129986
0.0131831
0.0128838
0.0123346
0.0117343
0.0112047
0.010843
0.0118172
0.0112355
0.0121444
0.0127872
0.0128858
0.0125536
0.012025
0.0114973
0.0110863
0.0108588
0.0116248
0.0110785
0.0118316
0.0123283
0.0123277
0.0119548
0.0114441
0.0109895
0.0107017
0.0106323
0.0112024
0.0107263
0.011325
0.0116626
0.0115476
0.0111219
0.0106221
0.0102362
0.0100699
0.0101755
0.0106492
0.0102333
0.0106557
0.0108096
0.0105608
0.0100701
0.00957452
0.00925351
0.00920356
0.00949315
0.0100129
0.00964012
0.00986647
0.00981178
0.00940802
0.00883655
0.00833454
0.00807119
0.00812479
0.00858608
0.00934818
0.00899006
0.00899919
0.00871036
0.00812955
0.00746001
0.0069375
0.0067229
0.00686746
0.00744957
0.00871346
0.00832774
0.00809607
0.00754699
0.00676707
0.00598148
0.00542131
0.00524288
0.00547965
0.00610292
0.00815982
0.00770109
0.0072008
0.00636645
0.00536692
0.00444777
0.00383131
0.00366114
0.00394164
0.00468036
0.00774399
0.00714841
0.0063574
0.00521756
0.00398109
0.00291183
0.00222123
0.00203866
0.00233336
0.00309277
0.0075119
0.00670954
0.00561088
0.00415393
0.00266813
0.00143341
0.000649694
0.000434129
0.000721743
0.00140168
0.00750044
0.0064188
0.00500857
0.00323265
0.00149443
8.14106e-05
-0.00081716
-0.00108751
-0.000795926
-0.000235489
0.00773262
0.00630551
0.00459669
0.00251921
0.00053621
-0.00106102
-0.00209906
-0.0024626
-0.00214276
-0.00155524
0.0082016
0.00640613
0.00441575
0.00207206
-0.000124911
-0.00188442
-0.00304311
-0.00345847
-0.00292893
-0.00164624
0.00891325
0.00671839
0.00449046
0.00193668
-0.000423147
-0.00230988
-0.00358106
-0.00412092
-0.00375654
-0.00271211
0.00982632
0.00722974
0.00482643
0.0021345
-0.000321095
-0.00228079
-0.00362398
-0.00426748
-0.00410616
-0.00334284
0.0108773
0.00790637
0.00540239
0.00265445
0.000181376
-0.00178007
-0.00312727
-0.00380165
-0.00375226
-0.0031439
0.0119833
0.00869345
0.00617131
0.00345449
0.00104554
-0.000843497
-0.00212871
-0.00277784
-0.00278226
-0.00225106
0.013048
0.00951487
0.00706636
0.00446973
0.0022051
0.00045884
-0.000705701
-0.00128527
-0.00130247
-0.000797008
0.0139589
0.0102866
0.00800877
0.00562256
0.00358086
0.00204502
0.00105874
0.000598919
0.000622186
0.00115536
0.0146109
0.0109196
0.00891512
0.00683115
0.00509042
0.00383223
0.00308475
0.002806
0.00294088
0.00356766
0.0149063
0.0113284
0.00970398
0.0080151
0.00665292
0.00573992
0.00529537
0.00526865
0.00560008
0.00639706
0.0147789
0.0114432
0.0103031
0.00909988
0.00819152
0.00768999
0.00761379
0.00791476
0.00853426
0.00958301
0.0142158
0.0112256
0.0106591
0.0100236
0.00963792
0.00960925
0.00996312
0.010664
0.0116585
0.0130378
0.0131071
0.010603
0.0107075
0.0107201
0.0109211
0.0114207
0.0122592
0.0134218
0.0148622
0.0166395
0.0114681
0.00956737
0.0104207
0.0111474
0.0119866
0.0130577
0.0144217
0.0160886
0.0180203
0.0202391
0.00934419
0.00813686
0.00979072
0.0112784
0.0127916
0.014462
0.0163746
0.0185663
0.0210068
0.0236849
0.00680145
0.00634897
0.00882687
0.0111004
0.0133057
0.0155867
0.0180536
0.0207691
0.0237114
0.0268442
0.00393133
0.00426376
0.0075574
0.0106174
0.013514
0.0163996
0.0194083
0.0226253
0.0260368
0.0295991
0.000847313
0.00196223
0.00602904
0.00984964
0.0134168
0.0168839
0.0204056
0.0240844
0.0279138
0.0318654
-0.00232332
-0.000458836
0.00430405
0.00883195
0.0130296
0.0170388
0.0210306
0.0251152
0.0292807
0.0335448
-0.00544855
-0.00289343
0.00245569
0.00761056
0.0123794
0.0168745
0.0212784
0.025705
0.0301133
0.0345997
-0.00839934
-0.00523127
0.000561731
0.00624088
0.0115062
0.0164206
0.0211712
0.0258895
0.030463
0.0348923
-0.0110646
-0.00735635
-0.00130569
0.00478208
0.0104545
0.0157107
0.020718
0.0256355
0.0303635
0.034488
-0.0133956
-0.0092006
-0.00306058
0.00329736
0.00927418
0.0147955
0.0199896
0.0250233
0.0299211
0.0342959
-0.0152753
-0.0106893
-0.00461535
0.00185209
0.0080169
0.0137288
0.0190716
0.0241951
0.0292092
0.0339325
-0.0166431
-0.0117651
-0.00591553
0.000500084
0.006731
0.0125487
0.0179939
0.0231826
0.0282355
0.0330961
-0.0174855
-0.0124096
-0.00692064
-0.000713547
0.00545508
0.011282
0.0167561
0.0219514
0.0269498
0.0316682
-0.0178195
-0.0126408
-0.00760818
-0.00175141
0.00422293
0.0099555
0.01538
0.0205294
0.0254688
0.0301245
-0.0176865
-0.0125062
-0.00797764
-0.00258669
0.00306551
0.00859869
0.0138982
0.0189541
0.0238151
0.0284299
-0.0171499
-0.0120741
-0.00805242
-0.00320647
0.00200928
0.00723785
0.0123327
0.0172394
0.0219759
0.0265119
-0.0162887
-0.0114242
-0.00787872
-0.00361383
0.00107587
0.00589903
0.0107024
0.0153953
0.0199567
0.0243689
-0.0151795
-0.0106279
-0.00751541
-0.00382837
0.000278507
0.00460828
0.00903048
0.013438
0.0177731
0.0220216
)
;

boundaryField
{
    inlet
    {
        type            zeroGradient;
    }
    outlet
    {
        type            fixedValue;
        value           uniform 0;
    }
    cylinder
    {
        type            zeroGradient;
    }
    top
    {
        type            symmetryPlane;
    }
    bottom
    {
        type            symmetryPlane;
    }
    defaultFaces
    {
        type            empty;
    }
}


// ************************************************************************* //
