/*--------------------------------*- C++ -*----------------------------------*\
  =========                 |
  \\      /  F ield         | OpenFOAM: The Open Source CFD Toolbox
   \\    /   O peration     | Website:  https://openfoam.org
    \\  /    A nd           | Version:  7
     \\/     M anipulation  |
\*---------------------------------------------------------------------------*/
FoamFile
{
    version     2.0;
    format      ascii;
    class       volVectorField;
    location    "21";
    object      U;
}
// * * * * * * * * * * * * * * * * * * * * * * * * * * * * * * * * * * * * * //

dimensions      [0 1 -1 0 0 0 0];

internalField   nonuniform List<vector> 
2000
(
(0.00520811 0.0216974 3.37032e-22)
(0.0294349 0.088317 0)
(0.0694968 0.160589 0)
(0.107823 0.227389 5.15104e-22)
(0.138652 0.282686 1.85635e-22)
(0.159922 0.324923 2.58971e-22)
(0.172262 0.355329 -3.33948e-22)
(0.177579 0.376246 0)
(0.177989 0.390121 0)
(0.175946 0.398879 0)
(0.00316236 0.0140933 0)
(0.0202209 0.0693291 7.07426e-22)
(0.0530272 0.13471 -6.52207e-22)
(0.0875994 0.199823 -5.99029e-22)
(0.118482 0.257993 0)
(0.142405 0.305856 5.37344e-22)
(0.158454 0.342789 -4.99676e-22)
(0.167359 0.369809 0)
(0.170497 0.388679 3.24096e-21)
(0.170253 0.401232 -6.81714e-21)
(0.00213148 0.00770442 0)
(0.0135148 0.0517967 -5.60056e-21)
(0.0390975 0.108704 0)
(0.0685157 0.169397 -2.21359e-21)
(0.0974327 0.227691 0)
(0.122311 0.279378 -5.44781e-22)
(0.141201 0.322351 0)
(0.153678 0.356153 4.12483e-21)
(0.160124 0.381415 -3.86326e-21)
(0.162437 0.399479 -5.04529e-21)
(0.00183477 0.00259114 1.67201e-21)
(0.00899812 0.0363315 2.85021e-21)
(0.0279938 0.0839455 1.07151e-21)
(0.0516268 0.137967 1.44284e-21)
(0.0769236 0.193379 7.11971e-22)
(0.100807 0.246104 7.73544e-23)
(0.120976 0.293311 4.34647e-22)
(0.136216 0.333392 -1.01111e-21)
(0.145965 0.365716 2.89571e-21)
(0.151204 0.390831 5.03606e-21)
(0.00198687 -0.00125179 1.6991e-21)
(0.00619834 0.0232913 2.10417e-21)
(0.0196078 0.0615119 2.62924e-21)
(0.0375818 0.107409 -1.27754e-21)
(0.0583338 0.1573 0)
(0.0795658 0.207883 0)
(0.0991885 0.256409 -1.33522e-21)
(0.115691 0.300783 -2.18446e-21)
(0.127997 0.339459 1.99346e-21)
(0.135569 0.371957 1.00484e-20)
(0.00232051 -0.00390043 -1.3172e-21)
(0.00458491 0.0127845 -6.60177e-22)
(0.0135388 0.0420754 4.42858e-21)
(0.0265273 0.0792557 -4.44821e-21)
(0.0426087 0.121808 6.83781e-22)
(0.06024 0.167415 0)
(0.0778163 0.213939 0)
(0.093905 0.259453 5.55577e-21)
(0.107605 0.302259 -8.14193e-21)
(0.1158 0.340342 2.91041e-21)
(0.00260857 -0.00547945 -9.7661e-21)
(0.00365716 0.00473604 0)
(0.00925037 0.0259322 -5.85025e-21)
(0.0182004 0.0545271 3.7084e-21)
(0.0300907 0.0888733 0)
(0.043954 0.127531 -8.13007e-23)
(0.0586917 0.169135 -5.85091e-23)
(0.0731605 0.212297 -2.95266e-21)
(0.0872586 0.256063 1.31325e-21)
(0.0939544 0.29562 2.85731e-21)
(0.00268257 -0.00614215 1.83781e-20)
(0.00301758 -0.00104012 1.60973e-21)
(0.00623566 0.0131148 2.4691e-21)
(0.0121549 0.0337758 4.41305e-21)
(0.020649 0.0598781 7.24707e-22)
(0.0311446 0.090613 2.39353e-22)
(0.0429665 0.125266 3.13231e-22)
(0.0554392 0.163092 0)
(0.0693781 0.204417 0)
(0.0733776 0.240837 -1.71125e-21)
(0.00243721 -0.00604121 -8.61214e-21)
(0.00244251 -0.00480286 6.46142e-21)
(0.00415386 0.00351615 -4.0083e-21)
(0.00800594 0.0172674 -5.73585e-21)
(0.0139863 0.0357248 1.26735e-21)
(0.0217792 0.0584405 -2.07088e-22)
(0.0310648 0.0850858 1.25162e-22)
(0.0418314 0.115487 0)
(0.0555706 0.150966 0)
(0.057904 0.179338 3.32021e-22)
(0.00184659 -0.00536516 9.18792e-22)
(0.00188642 -0.00683449 -7.89036e-21)
(0.0029185 -0.00299867 1.31657e-21)
(0.00561185 0.00517027 0)
(0.00994214 0.0171074 0)
(0.0157176 0.0324782 -1.03144e-21)
(0.0228685 0.0510233 0)
(0.0320029 0.072722 1.31531e-22)
(0.0452985 0.0982879 1.26954e-21)
(0.0517784 0.1145 -1.31835e-21)
(0.162906 0.409628 5.16272e-22)
(0.13616 0.405136 -5.25493e-22)
(0.11079 0.395206 -7.50822e-22)
(0.0889934 0.385507 -8.62887e-22)
(0.0668598 0.376602 -9.89276e-22)
(0.0493195 0.372208 2.84133e-25)
(0.0289163 0.387527 4.94881e-22)
(0.018587 0.4612 1.56709e-21)
(0.000392502 0.620285 0)
(0.00586494 0.812261 -1.06481e-21)
(0.160264 0.416119 1.13371e-21)
(0.133295 0.412184 -2.60501e-21)
(0.107966 0.401976 4.79833e-21)
(0.0864175 0.392223 8.64424e-22)
(0.0644607 0.382839 1.79715e-21)
(0.0469351 0.37775 2.90189e-21)
(0.0267029 0.392282 -1.01927e-21)
(0.0164352 0.464398 -1.0367e-21)
(-0.00050751 0.621913 1.95976e-21)
(0.0051955 0.812636 1.06229e-21)
(0.157386 0.421853 0)
(0.130723 0.419256 -2.05162e-21)
(0.105572 0.409015 -1.42612e-21)
(0.0841973 0.399135 0)
(0.0622722 0.38912 -5.4032e-21)
(0.044688 0.383205 1.7227e-21)
(0.0244895 0.396592 1.79614e-21)
(0.0141602 0.466699 5.65243e-21)
(-0.00159524 0.622703 -1.95342e-21)
(0.00451779 0.812417 3.82501e-21)
(0.153584 0.42557 0)
(0.128188 0.425525 2.06965e-21)
(0.103516 0.415888 0)
(0.0822733 0.406007 6.36363e-21)
(0.0602875 0.395368 -6.3951e-21)
(0.0426024 0.388604 -3.56442e-21)
(0.0223069 0.400518 -1.0833e-22)
(0.0117926 0.468172 -5.47033e-21)
(-0.00285066 0.622545 -9.0363e-22)
(0.00384293 0.811678 -4.7151e-21)
(0.147881 0.425637 3.01388e-21)
(0.125485 0.431362 -2.87669e-21)
(0.101906 0.423348 1.03679e-21)
(0.0806775 0.413171 -5.32504e-21)
(0.0585008 0.401696 0)
(0.0406501 0.393986 -3.39911e-21)
(0.0201157 0.404131 -2.13067e-23)
(0.00924923 0.468955 6.96991e-21)
(-0.004394 0.621582 8.6045e-22)
(0.0031362 0.81033 -8.63577e-22)
(0.139609 0.419201 -6.15879e-21)
(0.122057 0.434175 6.41283e-21)
(0.100376 0.429744 5.00177e-21)
(0.0792743 0.419843 -4.9965e-21)
(0.0569656 0.407905 -2.96238e-21)
(0.0389541 0.399377 0)
(0.018073 0.407542 -6.4402e-21)
(0.00669109 0.469075 3.20099e-21)
(-0.00608515 0.619557 3.23266e-21)
(0.00239211 0.808449 3.21697e-21)
(0.128336 0.405483 -3.70956e-22)
(0.118119 0.436914 0)
(0.0992549 0.437503 0)
(0.0780828 0.42709 0)
(0.0555269 0.414302 -3.01469e-21)
(0.0372621 0.404749 5.96638e-21)
(0.0159111 0.410761 6.27349e-21)
(0.00379913 0.468821 -9.25224e-21)
(-0.00825968 0.617039 1.53413e-21)
(0.00163939 0.805909 -4.70556e-21)
(0.114699 0.379274 8.88649e-22)
(0.112442 0.431784 6.65851e-21)
(0.0975067 0.441408 -6.59168e-21)
(0.077058 0.43285 1.04438e-20)
(0.0546384 0.420441 -1.30343e-20)
(0.0362067 0.410285 0)
(0.0143389 0.41404 -2.8871e-21)
(0.00128067 0.467944 1.42592e-22)
(-0.0103807 0.613118 -2.78605e-21)
(0.000734247 0.802865 -2.85639e-21)
(0.0997821 0.350456 -5.38882e-23)
(0.107381 0.431899 0)
(0.0960629 0.448832 -9.03733e-21)
(0.0757165 0.440136 1.80265e-20)
(0.0531465 0.426872 -7.08495e-21)
(0.0343462 0.415479 -1.37195e-21)
(0.0118922 0.41706 2.88094e-21)
(-0.00219659 0.467406 8.49239e-23)
(-0.0134162 0.60968 4.09298e-21)
(-4.78136e-05 0.799074 4.16278e-21)
(0.0835104 0.294378 -2.16709e-21)
(0.0982834 0.411548 2.09774e-21)
(0.0932543 0.446415 8.07789e-22)
(0.0755029 0.444354 0)
(0.0537024 0.433069 0)
(0.0349264 0.42162 1.32661e-21)
(0.0119192 0.420648 5.16571e-21)
(-0.0038044 0.46541 -5.05007e-21)
(-0.0157333 0.603447 -1.22299e-21)
(-0.00124555 0.794945 1.17765e-21)
(0.0545333 0.250395 0)
(0.0855542 0.412332 0)
(0.0830697 0.462352 0)
(0.0657319 0.462789 0)
(0.0435496 0.44777 0)
(0.0233838 0.431935 0)
(-0.000445764 0.42742 0)
(-0.0168117 0.467458 0)
(-0.026091 0.596306 0)
(-0.00309295 0.782721 0)
(0.033196 0.234609 0)
(0.0599002 0.403707 0)
(0.0575761 0.466153 0)
(0.0469197 0.47741 0)
(0.0322569 0.47044 0)
(0.0168145 0.459991 0)
(-0.00578344 0.457303 0)
(-0.0254149 0.490774 0)
(-0.0380828 0.599598 0)
(-0.00707743 0.773504 0)
(0.0215764 0.240093 0)
(0.0392831 0.404431 0)
(0.0373122 0.475928 0)
(0.0276153 0.490013 0)
(0.0119079 0.482217 0)
(-0.00532824 0.470944 0)
(-0.0269832 0.467599 0)
(-0.0444542 0.494535 0)
(-0.0545496 0.581291 0)
(-0.017188 0.732006 0)
(0.0053409 0.243806 0)
(0.0144534 0.390021 0)
(0.0154446 0.467274 0)
(0.0182612 0.496329 0)
(0.0121437 0.501886 0)
(-0.000861067 0.499423 0)
(-0.0214783 0.499028 0)
(-0.0406817 0.519061 0)
(-0.0541764 0.581857 0)
(-0.0234491 0.697968 0)
(-0.00434107 0.265957 0)
(0.00389698 0.398512 0)
(-0.00165059 0.470254 0)
(-0.00384259 0.495097 0)
(-0.0114176 0.500807 0)
(-0.0205997 0.502371 0)
(-0.0343854 0.50584 0)
(-0.0461239 0.52249 0)
(-0.0534472 0.566113 0)
(-0.0257735 0.646365 0)
(-0.016563 0.265044 0)
(-0.00880176 0.381713 0)
(0.000575168 0.467777 0)
(0.00661928 0.503911 0)
(0.00368604 0.517249 0)
(-0.00304598 0.52236 0)
(-0.0153836 0.52679 0)
(-0.0269382 0.539526 0)
(-0.035773 0.568667 0)
(-0.0193876 0.619625 0)
(-0.0094721 0.302551 0)
(-0.0177178 0.386901 0)
(-0.0144212 0.462911 0)
(-0.0149855 0.494468 0)
(-0.0170723 0.508964 0)
(-0.0172251 0.518747 0)
(-0.0204153 0.527248 0)
(-0.0231271 0.539173 0)
(-0.0257474 0.558686 0)
(-0.0134132 0.58873 0)
(0.000647692 0.305193 0)
(-0.00824288 0.377212 0)
(0.00993097 0.464993 0)
(0.0158081 0.507854 0)
(0.0105909 0.52219 0)
(0.00429517 0.528647 0)
(-0.00280834 0.535807 0)
(-0.00718017 0.54674 0)
(-0.0109905 0.562101 0)
(-0.00608608 0.581564 0)
(0.0274157 0.35732 0)
(-0.0181833 0.380358 0)
(-0.0210503 0.438425 0)
(-0.00686252 0.490045 0)
(0.000148788 0.517014 0)
(0.00203306 0.529405 0)
(-0.00142964 0.536971 0)
(-0.00411039 0.545667 0)
(-0.00726507 0.55696 0)
(-0.00377767 0.570172 0)
(0.0708205 0.377032 0)
(0.0435218 0.424149 0)
(0.0209551 0.460637 0)
(0.0150323 0.493528 0)
(0.0133768 0.516654 0)
(0.0130962 0.531858 0)
(0.00954093 0.542885 0)
(0.00623293 0.553057 0)
(0.00125066 0.562536 0)
(9.99916e-06 0.570732 0)
(0.0383601 0.0892546 3.0231e-22)
(0.0411656 0.123961 -2.97445e-22)
(0.0389102 0.166937 -3.60826e-23)
(0.0247722 0.197331 0)
(0.0134176 0.23248 0)
(0.00462146 0.248362 -2.66262e-23)
(0.0119798 0.288889 -2.95506e-22)
(0.0232118 0.294829 2.89671e-22)
(0.0464912 0.336801 9.9696e-23)
(0.0661328 0.312767 -9.61524e-23)
(0.0497996 0.0543628 -1.36734e-22)
(0.0538171 0.103144 0)
(0.0480317 0.154493 -4.90639e-22)
(0.0320833 0.190318 1.21081e-21)
(0.0191389 0.226743 -8.76629e-22)
(0.0110869 0.246191 2.5902e-23)
(0.0183456 0.283539 3.91461e-23)
(0.0292445 0.287478 3.56136e-22)
(0.0480794 0.318399 1.20647e-22)
(0.0615879 0.280312 4.36954e-24)
(0.0646053 0.0518211 6.14952e-23)
(0.0685188 0.108741 1.60668e-22)
(0.0577247 0.159892 -1.59115e-22)
(0.039392 0.194681 9.20943e-22)
(0.0251309 0.227638 -7.20787e-22)
(0.0177969 0.246296 0)
(0.0236251 0.276285 -3.92376e-23)
(0.0327804 0.27455 -3.53696e-23)
(0.0463352 0.291537 -2.41304e-22)
(0.0554769 0.243788 -9.2266e-23)
(0.0820364 0.0716075 -7.96808e-23)
(0.0828687 0.129915 0)
(0.0666965 0.175115 0)
(0.0459318 0.204409 0)
(0.0305391 0.23043 -8.22945e-22)
(0.0233674 0.244403 4.83752e-22)
(0.0269296 0.264057 -8.62458e-23)
(0.0334211 0.254266 -1.57458e-22)
(0.0417972 0.257641 -6.89141e-23)
(0.0481855 0.204583 8.92487e-24)
(0.101883 0.102665 2.05949e-22)
(0.0956447 0.15528 -2.95203e-23)
(0.0737515 0.19097 7.20083e-22)
(0.0505958 0.212178 -7.19506e-22)
(0.0341607 0.229401 3.35245e-22)
(0.026557 0.236149 0)
(0.0274168 0.244313 5.27825e-23)
(0.0309002 0.226127 2.00771e-22)
(0.0349354 0.218335 -1.23027e-22)
(0.0402456 0.164143 5.99957e-23)
(0.121568 0.134254 1.07644e-21)
(0.105402 0.175464 2.73633e-22)
(0.0781249 0.199736 2.88115e-22)
(0.0528774 0.211873 -9.68667e-22)
(0.0354921 0.219936 0)
(0.0269857 0.218662 0)
(0.025018 0.216066 0)
(0.0256577 0.190992 3.73009e-24)
(0.0266645 0.175622 0)
(0.0322449 0.123983 0)
(0.137935 0.158019 0)
(0.111171 0.184464 -1.46637e-21)
(0.0795463 0.196739 9.86107e-22)
(0.0527753 0.200115 1.20778e-21)
(0.0345532 0.199841 -1.21394e-21)
(0.024823 0.191279 -2.85148e-22)
(0.0202091 0.180073 3.92723e-22)
(0.0185714 0.150796 9.5642e-23)
(0.0179937 0.131752 9.69952e-24)
(0.0247004 0.0855397 -4.79271e-24)
(0.148454 0.168614 0)
(0.112689 0.179625 4.81042e-22)
(0.0782345 0.180578 4.00988e-22)
(0.0506191 0.176466 0)
(0.0316856 0.169448 -2.07883e-22)
(0.0205927 0.155332 7.99343e-22)
(0.0137803 0.138422 -2.72146e-22)
(0.0106801 0.108063 3.67525e-23)
(0.0098196 0.088922 -4.8732e-23)
(0.0180481 0.0500103 2.61945e-23)
(0.152231 0.163852 -3.63508e-22)
(0.110373 0.161138 -7.97708e-22)
(0.0747869 0.15249 1.74948e-22)
(0.0469311 0.142734 -2.27366e-22)
(0.0274259 0.130917 -3.43228e-22)
(0.0150365 0.113425 -3.78818e-22)
(0.00665988 0.0938884 7.3212e-23)
(0.0030227 0.0654102 2.49682e-23)
(0.00279788 0.0489609 4.88913e-23)
(0.0125803 0.0182193 2.30954e-24)
(0.150021 0.144675 1.82577e-22)
(0.105102 0.131439 -1.8561e-22)
(0.0699716 0.115416 2.29477e-22)
(0.042301 0.101999 2.27018e-22)
(0.0223973 0.0873244 -1.68531e-22)
(0.0089756 0.0686719 3.05248e-22)
(-0.000256214 0.0493381 -9.97673e-23)
(-0.00361996 0.025134 1.77746e-24)
(-0.00279502 0.0131097 0)
(0.00800143 -0.0094523 -2.30662e-24)
(0.143457 0.11439 -2.06039e-22)
(0.0979503 0.094211 2.09207e-22)
(0.0644884 0.0729964 2.65548e-22)
(0.0372958 0.0577063 2.56112e-22)
(0.0171948 0.041913 1.78793e-22)
(0.00311497 0.0241057 -2.65634e-23)
(-0.00623531 0.00730092 -5.92258e-23)
(-0.00870691 -0.0110547 -6.84977e-23)
(-0.00666959 -0.0180389 0)
(0.00506797 -0.0331317 -1.86235e-24)
(0.134228 0.0771766 0)
(0.0900138 0.0533097 1.05278e-21)
(0.0588297 0.0287747 -1.86988e-21)
(0.0324109 0.0130416 -2.56486e-22)
(0.0123035 -0.00238224 -4.33324e-22)
(-0.00190035 -0.0177259 -4.71267e-22)
(-0.0107437 -0.0304135 8.947e-23)
(-0.0120043 -0.0422785 3.79035e-23)
(-0.00872319 -0.044453 -2.32809e-24)
(0.00299386 -0.0534336 1.85731e-24)
(0.12353 0.0368771 0)
(0.082202 0.0120635 1.03822e-21)
(0.0533527 -0.0142607 5.44608e-22)
(0.0279714 -0.029414 0)
(0.00815722 -0.0432747 1.18897e-21)
(-0.00556217 -0.0550444 -4.42725e-22)
(-0.0135224 -0.0627881 -2.51189e-22)
(-0.013632 -0.0684226 -3.30386e-22)
(-0.00936198 -0.0666149 2.32048e-24)
(0.00164749 -0.0711008 6.84086e-25)
(0.112316 -0.00339257 0)
(0.0748729 -0.027006 -1.04677e-21)
(0.0483903 -0.0538913 0)
(0.0242498 -0.0678366 -1.90772e-21)
(0.00511227 -0.0792443 1.91767e-21)
(-0.00770841 -0.0868996 5.19319e-22)
(-0.0146294 -0.0896318 -1.29721e-22)
(-0.0138441 -0.0899961 3.30154e-22)
(-0.00904965 -0.0853563 5.29852e-23)
(0.000873803 -0.0868577 3.93031e-24)
(0.101402 -0.0412232 -5.30547e-21)
(0.0682555 -0.0622275 2.18196e-21)
(0.0441924 -0.0886895 -1.99039e-23)
(0.0214816 -0.101161 2.05899e-21)
(0.00330597 -0.109559 0)
(-0.00841804 -0.113165 5.19414e-22)
(-0.0143417 -0.111456 -2.1743e-22)
(-0.0130286 -0.1079 -5.03731e-22)
(-0.00817758 -0.101607 -7.34491e-24)
(0.000472527 -0.101328 7.3437e-24)
(0.0913089 -0.0749704 1.22041e-21)
(0.0626323 -0.0929431 -3.92397e-21)
(0.0407556 -0.117933 -1.97159e-21)
(0.0197288 -0.129083 1.97056e-21)
(0.00271668 -0.134225 8.18995e-22)
(-0.00792213 -0.134383 0)
(-0.0130429 -0.129213 7.10992e-22)
(-0.0115978 -0.123164 -3.85553e-22)
(-0.00705069 -0.116207 -1.39415e-22)
(0.000284392 -0.114998 -1.4779e-23)
(0.0823863 -0.103584 3.87273e-22)
(0.0581585 -0.11929 0)
(0.0380884 -0.141506 0)
(0.0188986 -0.151924 0)
(0.00317652 -0.153834 5.99067e-22)
(-0.00656544 -0.151516 -1.41664e-21)
(-0.0111351 -0.144019 -7.1267e-22)
(-0.00989895 -0.136738 7.46991e-22)
(-0.00587732 -0.129816 -2.36116e-23)
(0.000209633 -0.12822 3.80342e-23)
(0.0746479 -0.126568 2.59421e-22)
(0.054782 -0.141975 -3.32234e-21)
(0.0362282 -0.159789 3.29159e-21)
(0.0188219 -0.17042 -3.34247e-21)
(0.00441281 -0.169327 4.07267e-21)
(-0.00472895 -0.165671 0)
(-0.00896664 -0.156915 3.95855e-22)
(-0.00817238 -0.149366 5.04563e-24)
(-0.00477328 -0.142894 9.11776e-23)
(0.000195494 -0.141232 2.29904e-23)
(0.0673214 -0.143728 2.7602e-22)
(0.0519244 -0.162052 0)
(0.0350379 -0.173582 3.7241e-21)
(0.0193121 -0.185483 -6.47854e-21)
(0.00621542 -0.18175 2.38055e-21)
(-0.0027609 -0.177876 2.85308e-22)
(-0.00673063 -0.168731 -3.94954e-22)
(-0.00651825 -0.161559 -6.28746e-23)
(-0.00377157 -0.155731 -2.19372e-22)
(0.000221911 -0.154189 -5.2039e-23)
(0.0611401 -0.15479 1.40862e-21)
(0.048712 -0.180689 -1.37101e-21)
(0.0339818 -0.184139 -4.08825e-22)
(0.0196135 -0.198093 0)
(0.00825465 -0.192068 0)
(-0.000631051 -0.188927 -2.93349e-22)
(-0.00451418 -0.180036 -6.35282e-22)
(-0.00498641 -0.173613 6.23636e-22)
(-0.00285336 -0.16849 3.28269e-23)
(0.000269475 -0.167191 -3.21322e-23)
(0.0636755 -0.164771 0)
(0.0443731 -0.221245 0)
(0.0320177 -0.204549 0)
(0.0180237 -0.224173 0)
(0.0108313 -0.213938 0)
(0.00210475 -0.213972 0)
(-0.000993268 -0.206611 0)
(-0.00239562 -0.202725 0)
(-0.00102389 -0.199145 0)
(0.000306354 -0.198337 0)
(0.0417974 -0.233822 0)
(0.0327255 -0.269375 0)
(0.0271195 -0.253249 0)
(0.0161695 -0.268211 0)
(0.014596 -0.25823 0)
(0.00514924 -0.262797 0)
(0.00428858 -0.25595 0)
(0.000676234 -0.256134 0)
(0.00124904 -0.25274 0)
(0.000153551 -0.253169 0)
(0.0390813 -0.282496 0)
(0.0283292 -0.315876 0)
(0.0243163 -0.300929 0)
(0.0162754 -0.314736 0)
(0.0138729 -0.30694 0)
(0.00666547 -0.313 0)
(0.00591626 -0.307349 0)
(0.00176356 -0.309824 0)
(0.00231169 -0.305971 0)
(-0.000146213 -0.307727 0)
(0.0326569 -0.33842 0)
(0.0248525 -0.369502 0)
(0.0219584 -0.351979 0)
(0.0146648 -0.369292 0)
(0.0126124 -0.359782 0)
(0.00720455 -0.368903 0)
(0.00599302 -0.362573 0)
(0.0027722 -0.366606 0)
(0.00231386 -0.362249 0)
(-0.000236653 -0.364797 0)
(0.028135 -0.400756 0)
(0.0213645 -0.432401 0)
(0.0182064 -0.414017 0)
(0.0130518 -0.433082 0)
(0.0108624 -0.421914 0)
(0.00681292 -0.433619 0)
(0.00569542 -0.425251 0)
(0.00315493 -0.431601 0)
(0.00229728 -0.425205 0)
(4.82759e-05 -0.428824 0)
(0.0237684 -0.475599 0)
(0.0176306 -0.507752 0)
(0.0151897 -0.487989 0)
(0.0107605 -0.509315 0)
(0.00937795 -0.496346 0)
(0.00628354 -0.509953 0)
(0.00557386 -0.500121 0)
(0.00339276 -0.508024 0)
(0.00235679 -0.49972 0)
(0.000107794 -0.505454 0)
(0.0185642 -0.570135 0)
(0.01403 -0.60176 0)
(0.0121531 -0.582258 0)
(0.00886141 -0.604652 0)
(0.00776555 -0.590965 0)
(0.00545307 -0.606494 0)
(0.00476167 -0.595634 0)
(0.00280053 -0.605165 0)
(0.00183072 -0.595979 0)
(6.18192e-05 -0.603685 0)
(0.0142253 -0.690465 0)
(0.0102377 -0.717931 0)
(0.00865067 -0.702427 0)
(0.00604173 -0.722949 0)
(0.00539045 -0.711152 0)
(0.00358999 -0.726098 0)
(0.00296739 -0.71602 0)
(0.00130844 -0.725726 0)
(0.000767773 -0.717005 0)
(-0.00020658 -0.725671 0)
(0.00738486 -0.817984 0)
(0.00496433 -0.834208 0)
(0.00426245 -0.827788 0)
(0.00299055 -0.841202 0)
(0.00263387 -0.835196 0)
(0.00144583 -0.844858 0)
(0.000909614 -0.838394 0)
(-0.000228108 -0.8447 0)
(-0.000307749 -0.838742 0)
(-0.000374803 -0.845106 0)
(0.00137046 -0.89883 0)
(0.000935905 -0.908449 0)
(0.000882199 -0.908976 0)
(0.000777844 -0.915082 0)
(0.000628669 -0.913567 0)
(0.000284199 -0.917425 0)
(-8.5577e-06 -0.914397 0)
(-0.000379311 -0.916462 0)
(-0.000352929 -0.913309 0)
(-0.000177153 -0.916101 0)
(0.0546568 -0.190268 1.34794e-21)
(0.0414878 -0.252085 -1.32664e-21)
(0.0406111 -0.300376 2.99405e-22)
(0.0334949 -0.358092 0)
(0.0301781 -0.419657 0)
(0.0253464 -0.494848 5.65577e-22)
(0.0202448 -0.588446 -2.76586e-21)
(0.0151445 -0.703442 2.75852e-21)
(0.00911894 -0.823989 8.80777e-22)
(0.0028689 -0.896366 -8.74802e-22)
(0.0514751 -0.197661 -1.79173e-21)
(0.0417539 -0.257957 0)
(0.0411762 -0.305853 2.37882e-21)
(0.033928 -0.363898 -5.88087e-21)
(0.0311065 -0.425092 4.18879e-21)
(0.0260508 -0.500516 -5.10067e-22)
(0.0210115 -0.593702 1.32533e-21)
(0.0155942 -0.707221 3.00695e-21)
(0.00990562 -0.824721 9.66874e-22)
(0.00354812 -0.896319 9.74866e-22)
(0.0490181 -0.20466 2.68553e-21)
(0.0423279 -0.264412 -2.49739e-21)
(0.0419408 -0.311317 2.47371e-21)
(0.0346435 -0.369017 -3.701e-21)
(0.0322349 -0.429648 2.70951e-21)
(0.0268902 -0.505048 0)
(0.0218586 -0.597701 -1.32865e-21)
(0.0161746 -0.709924 1.49154e-22)
(0.0104047 -0.82439 -1.63248e-21)
(0.00386802 -0.896463 -1.82265e-21)
(0.0471779 -0.211677 -4.72403e-22)
(0.0431238 -0.271074 0)
(0.0430012 -0.316852 0)
(0.0357022 -0.374104 0)
(0.0336139 -0.434179 3.63451e-21)
(0.0279255 -0.50934 -2.45014e-21)
(0.0228449 -0.60138 -4.62258e-23)
(0.0168942 -0.712216 -1.86417e-21)
(0.0107173 -0.824049 -9.73521e-22)
(0.00392111 -0.895618 -1.07577e-21)
(0.0459276 -0.218408 1.09159e-22)
(0.0441345 -0.277115 -1.76329e-21)
(0.0443552 -0.32171 -1.77621e-21)
(0.037068 -0.37867 1.7751e-21)
(0.0352241 -0.43832 -1.16826e-21)
(0.0291601 -0.51324 0)
(0.0239887 -0.604703 -1.61548e-21)
(0.0177426 -0.714199 3.8394e-21)
(0.0110402 -0.823777 -2.00014e-21)
(0.00390855 -0.893884 2.07376e-21)
(0.0453173 -0.224678 -5.16769e-21)
(0.0454393 -0.282279 3.82081e-22)
(0.0460301 -0.325498 -3.38742e-22)
(0.0387142 -0.38224 1.92072e-21)
(0.037035 -0.441565 0)
(0.0305756 -0.516308 0)
(0.0252767 -0.60729 0)
(0.0187085 -0.715625 2.12426e-21)
(0.0114971 -0.823295 0)
(0.00396291 -0.891687 0)
(0.0453925 -0.230383 0)
(0.0471389 -0.286595 2.47226e-21)
(0.0480924 -0.328205 -1.69378e-21)
(0.0406596 -0.384684 -2.5556e-21)
(0.0390485 -0.443702 2.56894e-21)
(0.0321718 -0.518282 1.80304e-21)
(0.0267002 -0.60887 -1.76235e-21)
(0.0197804 -0.716261 -7.65036e-21)
(0.012102 -0.82239 5.40778e-22)
(0.00410685 -0.889329 -2.02178e-21)
(0.0461866 -0.235379 0)
(0.049317 -0.290064 -7.80767e-22)
(0.0506051 -0.329869 -5.19271e-22)
(0.042942 -0.386028 0)
(0.0412943 -0.444718 8.64267e-22)
(0.0339744 -0.519097 -2.60648e-21)
(0.0282727 -0.609343 3.1327e-21)
(0.0209653 -0.71597 1.17006e-21)
(0.0128392 -0.820916 -1.3484e-21)
(0.00433277 -0.886841 2.6639e-21)
(0.0477395 -0.239489 6.70723e-22)
(0.0520428 -0.292621 9.57373e-22)
(0.0536093 -0.330456 -1.69467e-22)
(0.0455928 -0.386281 3.47168e-22)
(0.0438037 -0.444636 7.9351e-22)
(0.0360134 -0.518786 1.4387e-21)
(0.0300166 -0.608741 -5.8409e-22)
(0.0222687 -0.714795 -6.58444e-22)
(0.0136686 -0.818907 1.35286e-21)
(0.0045998 -0.884207 7.66548e-22)
(0.0501062 -0.242528 -1.95318e-22)
(0.0553788 -0.294189 1.96992e-22)
(0.0571308 -0.329885 -2.78019e-22)
(0.0486327 -0.385407 -3.46748e-22)
(0.0466034 -0.44341 4.80129e-22)
(0.0383167 -0.517344 -9.87781e-22)
(0.0319581 -0.607051 9.04649e-22)
(0.0237192 -0.712706 3.36042e-22)
(0.0146079 -0.816301 0)
(0.00492416 -0.881304 -7.68225e-22)
(0.0533535 -0.244326 2.00869e-22)
(0.0593834 -0.294735 -2.02701e-22)
(0.0611875 -0.328093 -3.20029e-22)
(0.0520808 -0.383398 -3.98896e-22)
(0.0497094 -0.441023 -5.15361e-22)
(0.0408911 -0.514813 -5.86744e-23)
(0.0341091 -0.604331 3.28259e-22)
(0.025312 -0.709842 1.10007e-21)
(0.0156262 -0.813234 0)
(0.00526615 -0.878179 -8.7553e-22)
(0.0575582 -0.244705 0)
(0.0641034 -0.294261 -1.14898e-21)
(0.0657875 -0.325104 2.16452e-21)
(0.0559474 -0.380242 3.99602e-22)
(0.0531489 -0.437423 1.05751e-21)
(0.0437576 -0.511104 1.81616e-21)
(0.0364939 -0.600479 -6.70992e-22)
(0.0270888 -0.706038 -7.53428e-22)
(0.0167927 -0.809537 1.76187e-21)
(0.00569069 -0.874711 8.73449e-22)
(0.0628015 -0.24351 0)
(0.0695568 -0.292819 -1.04361e-21)
(0.0709517 -0.321005 -6.88457e-22)
(0.0602567 -0.375925 0)
(0.0569326 -0.432782 -3.42412e-21)
(0.0469038 -0.506306 1.14305e-21)
(0.0390996 -0.595693 1.49446e-21)
(0.0290055 -0.701547 4.99545e-21)
(0.0180249 -0.80547 -1.75618e-21)
(0.00610807 -0.871068 3.94876e-21)
(0.0691664 -0.24062 0)
(0.0757401 -0.290439 1.05261e-21)
(0.0766931 -0.31606 0)
(0.0649954 -0.370359 4.2054e-21)
(0.0611087 -0.427043 -4.22691e-21)
(0.0503875 -0.500201 -2.93186e-21)
(0.041974 -0.589671 -1.07342e-22)
(0.0311631 -0.695917 -5.20886e-21)
(0.0194605 -0.800631 -8.62229e-22)
(0.00665602 -0.867012 -4.91066e-21)
(0.0767394 -0.236014 5.25084e-21)
(0.0826035 -0.287183 -1.89613e-21)
(0.0830927 -0.310339 8.87237e-22)
(0.0702254 -0.363585 -3.62008e-21)
(0.0656512 -0.42034 0)
(0.0541819 -0.493201 -3.122e-21)
(0.0450441 -0.582969 -4.03731e-22)
(0.0334196 -0.6899 7.16164e-21)
(0.0208868 -0.795626 1.03859e-21)
(0.00712512 -0.862872 -1.0423e-21)
(0.0854043 -0.229749 -2.00403e-21)
(0.0901827 -0.282783 4.6329e-21)
(0.0901816 -0.303662 3.83881e-21)
(0.0759841 -0.35568 -3.83622e-21)
(0.0706005 -0.412395 -2.71325e-21)
(0.0583701 -0.484863 0)
(0.0484666 -0.574741 -7.39264e-21)
(0.0360378 -0.682371 3.69128e-21)
(0.0226393 -0.78955 4.11083e-21)
(0.00782478 -0.858161 4.61631e-21)
(0.0952355 -0.221855 -5.09687e-22)
(0.0984663 -0.27755 0)
(0.0978719 -0.296527 0)
(0.0821961 -0.347285 0)
(0.0758732 -0.404046 -3.35121e-21)
(0.0627868 -0.476375 6.05342e-21)
(0.0519887 -0.566644 7.60172e-21)
(0.0386041 -0.675259 -1.22613e-20)
(0.0242119 -0.783799 2.30278e-21)
(0.00828967 -0.853545 -6.85322e-21)
(0.106268 -0.212049 2.00675e-22)
(0.107634 -0.270147 6.23645e-21)
(0.10628 -0.288208 -6.17573e-21)
(0.0890906 -0.3373 1.0729e-20)
(0.0817146 -0.393796 -1.36506e-20)
(0.0678044 -0.46562 0)
(0.0561247 -0.555883 -4.04688e-21)
(0.0418412 -0.665503 -2.41782e-22)
(0.0264016 -0.776283 -4.85956e-21)
(0.00921178 -0.84805 -5.0523e-21)
(0.118458 -0.202536 -4.4544e-22)
(0.117128 -0.263931 0)
(0.114808 -0.281444 -1.00374e-20)
(0.0959934 -0.328853 2.0246e-20)
(0.0875235 -0.385502 -8.12559e-21)
(0.0726233 -0.45725 -1.84923e-21)
(0.0599305 -0.547876 4.03833e-21)
(0.0445557 -0.658349 -3.31514e-22)
(0.027999 -0.770251 7.0067e-21)
(0.0095588 -0.843038 7.47183e-21)
(0.133044 -0.185014 -2.9914e-21)
(0.129374 -0.249719 2.90669e-21)
(0.12523 -0.269925 9.90477e-22)
(0.104905 -0.314984 0)
(0.0947815 -0.371416 0)
(0.0789955 -0.442585 1.78328e-21)
(0.0652312 -0.53335 8.73463e-21)
(0.0488123 -0.645491 -8.46877e-21)
(0.0309073 -0.760911 -2.45141e-21)
(0.010878 -0.836537 2.39471e-21)
(0.161038 -0.18675 0)
(0.157598 -0.251579 0)
(0.147467 -0.268498 0)
(0.119576 -0.310128 0)
(0.108463 -0.365572 0)
(0.0896208 -0.434844 0)
(0.0736863 -0.523612 0)
(0.0546454 -0.633667 0)
(0.0342002 -0.747641 0)
(0.010887 -0.823723 0)
(0.200098 -0.172971 0)
(0.207842 -0.236575 0)
(0.178274 -0.249816 0)
(0.151965 -0.29376 0)
(0.136123 -0.353466 0)
(0.113314 -0.421542 0)
(0.0940798 -0.5097 0)
(0.0711293 -0.616833 0)
(0.0454558 -0.725812 0)
(0.0167957 -0.795965 0)
(0.243443 -0.156528 0)
(0.253488 -0.208344 0)
(0.20702 -0.218474 0)
(0.192999 -0.265065 0)
(0.163964 -0.328305 0)
(0.140598 -0.393403 0)
(0.116432 -0.480299 0)
(0.0877615 -0.584625 0)
(0.0553737 -0.690329 0)
(0.0174082 -0.762141 0)
(0.28741 -0.136751 0)
(0.294531 -0.179095 0)
(0.244182 -0.193823 0)
(0.240773 -0.241785 0)
(0.200391 -0.306382 0)
(0.178459 -0.374189 0)
(0.149749 -0.458377 0)
(0.113761 -0.558181 0)
(0.073153 -0.655269 0)
(0.0272682 -0.716373 0)
(0.340882 -0.106945 0)
(0.342474 -0.146315 0)
(0.293301 -0.16593 0)
(0.292822 -0.209876 0)
(0.247742 -0.269877 0)
(0.221991 -0.339668 0)
(0.185981 -0.416066 0)
(0.14027 -0.509164 0)
(0.0884917 -0.601732 0)
(0.0271869 -0.665 0)
(0.415845 -0.0813001 0)
(0.412716 -0.123881 0)
(0.366744 -0.150605 0)
(0.362679 -0.193404 0)
(0.317683 -0.248656 0)
(0.283826 -0.317438 0)
(0.237459 -0.383816 0)
(0.181227 -0.467014 0)
(0.116132 -0.546712 0)
(0.0441228 -0.592608 0)
(0.513544 -0.044557 0)
(0.505067 -0.0894001 0)
(0.459247 -0.11709 0)
(0.444967 -0.155836 0)
(0.396879 -0.201181 0)
(0.350077 -0.260846 0)
(0.289536 -0.315718 0)
(0.218206 -0.389091 0)
(0.134465 -0.461025 0)
(0.0387837 -0.512176 0)
(0.628645 -0.0333735 0)
(0.618748 -0.0737801 0)
(0.577777 -0.101045 0)
(0.551817 -0.135863 0)
(0.498072 -0.171976 0)
(0.439617 -0.21944 0)
(0.364905 -0.262624 0)
(0.27615 -0.321626 0)
(0.174564 -0.375763 0)
(0.0724897 -0.402153 0)
(0.723841 -0.00624202 0)
(0.714839 -0.0307069 0)
(0.6701 -0.049046 0)
(0.634479 -0.0714425 0)
(0.567635 -0.0932861 0)
(0.498252 -0.121869 0)
(0.402571 -0.147644 0)
(0.295812 -0.185665 0)
(0.168586 -0.229026 0)
(0.0243417 -0.280863 0)
(0.900461 -0.0152009 0)
(0.888047 -0.0230977 0)
(0.850444 -0.0291215 0)
(0.810314 -0.0379619 0)
(0.745631 -0.0467207 0)
(0.672886 -0.0590189 0)
(0.572775 -0.0722102 0)
(0.454371 -0.0930281 0)
(0.305152 -0.123605 0)
(0.180117 -0.176476 0)
(0.192302 -0.132483 9.98379e-22)
(0.239998 -0.116933 -9.85034e-22)
(0.288117 -0.102097 6.49502e-22)
(0.335637 -0.0821673 0)
(0.391886 -0.0555536 0)
(0.464025 -0.0338519 1.9219e-21)
(0.553635 -0.00664595 -1.06729e-20)
(0.652179 -0.00531422 1.06223e-20)
(0.736472 0.00856397 3.46793e-21)
(0.907517 -0.0115294 -3.47693e-21)
(0.202013 -0.108669 8.92178e-22)
(0.24986 -0.0919471 0)
(0.298882 -0.0783283 5.57967e-21)
(0.34777 -0.0586162 -1.52233e-20)
(0.405289 -0.0336787 1.17054e-20)
(0.476735 -0.0140851 -1.74469e-21)
(0.563339 0.00887728 4.35437e-21)
(0.656353 0.00613386 1.08295e-20)
(0.737764 0.0144907 3.46007e-21)
(0.907692 -0.0100187 3.2695e-21)
(0.209123 -0.0821905 -1.12102e-21)
(0.25746 -0.0640489 -3.5774e-21)
(0.30634 -0.0521421 3.54337e-21)
(0.355625 -0.0331545 -9.46404e-21)
(0.413593 -0.010551 6.70779e-21)
(0.484083 0.00622769 0)
(0.567413 0.0243426 -4.36518e-21)
(0.655723 0.0170151 1.42881e-22)
(0.73562 0.0198169 -5.9753e-21)
(0.905611 -0.00863333 -6.38368e-21)
(0.215165 -0.0536981 1.28014e-22)
(0.2664 -0.0338571 0)
(0.315272 -0.0238098 0)
(0.364627 -0.00604975 0)
(0.422201 0.0135108 9.45046e-21)
(0.491074 0.0267813 -6.54245e-21)
(0.570577 0.0395225 -4.17545e-22)
(0.654152 0.0271907 -6.01171e-21)
(0.732553 0.0244971 -3.18337e-21)
(0.903182 -0.00737493 -3.38623e-21)
(0.220332 -0.0236599 1.70879e-21)
(0.275389 -0.00212809 -5.39923e-22)
(0.324386 0.00600904 -3.40419e-21)
(0.37397 0.022083 3.40215e-21)
(0.430936 0.0379838 -2.86628e-21)
(0.497809 0.047157 0)
(0.573327 0.0541623 -4.68308e-21)
(0.6522 0.0366161 1.16212e-20)
(0.729104 0.0285801 -5.98634e-21)
(0.900811 -0.00622653 6.63398e-21)
(0.225084 0.00772617 -1.52534e-21)
(0.283552 0.0305583 -1.17907e-21)
(0.332055 0.0366308 -1.45926e-21)
(0.381827 0.0505091 3.58392e-21)
(0.438066 0.0622447 0)
(0.502768 0.0668735 0)
(0.574401 0.067944 0)
(0.648942 0.0451747 5.89284e-21)
(0.724762 0.0320649 0)
(0.898146 -0.00518451 0)
(0.229817 0.0401953 0)
(0.290728 0.0636482 3.28984e-21)
(0.337811 0.0674284 -2.37324e-21)
(0.387464 0.0785698 -5.5142e-21)
(0.442621 0.0857442 5.54304e-21)
(0.504963 0.0855167 4.58826e-21)
(0.572822 0.080594 -4.27902e-21)
(0.643534 0.0527308 -2.06546e-20)
(0.718957 0.0349179 1.46685e-21)
(0.894764 -0.00425638 -5.22539e-21)
(0.234593 0.0733075 0)
(0.296711 0.0964781 -9.21129e-22)
(0.34161 0.0977444 -9.08663e-22)
(0.390839 0.105677 0)
(0.444474 0.108035 2.10233e-21)
(0.504243 0.102774 -6.1474e-21)
(0.568414 0.0919303 8.04137e-21)
(0.635786 0.0591966 3.21606e-21)
(0.711516 0.0371249 -3.39107e-21)
(0.890494 -0.00343796 6.94621e-21)
(0.239193 0.106471 4.38801e-22)
(0.301142 0.128301 1.55401e-21)
(0.343366 0.126884 -1.47784e-22)
(0.391996 0.131272 7.26713e-22)
(0.443777 0.128727 1.76533e-21)
(0.500843 0.118396 3.44293e-21)
(0.561481 0.101837 -1.42292e-21)