/*--------------------------------*- C++ -*----------------------------------*\
  =========                 |
  \\      /  F ield         | OpenFOAM: The Open Source CFD Toolbox
   \\    /   O peration     | Website:  https://openfoam.org
    \\  /    A nd           | Version:  7
     \\/     M anipulation  |
\*---------------------------------------------------------------------------*/
FoamFile
{
    version     2.0;
    format      ascii;
    class       surfaceScalarField;
    location    "6.6";
    object      phi;
}
// * * * * * * * * * * * * * * * * * * * * * * * * * * * * * * * * * * * * * //

dimensions      [0 3 -1 0 0 0 0];

internalField   nonuniform List<scalar> 
63520
(
2.7525e-06
-5.86846e-05
5.59321e-05
9.66447e-06
-5.82162e-05
5.13039e-05
2.00535e-05
4.10573e-05
-5.14461e-05
3.37773e-05
0.000212015
-0.000225739
5.09718e-05
0.000436255
-0.00045345
7.19003e-05
0.000700793
-0.000721722
9.68766e-05
0.000995861
-0.00102084
0.000126217
0.00131392
-0.00134326
0.000160213
0.00164919
-0.00168319
0.000199101
0.00199706
-0.00203595
0.000243065
0.00235383
-0.00239779
0.000292222
0.00271644
-0.0027656
0.000346624
0.00308227
-0.00313667
0.000406254
0.00344902
-0.00350865
0.000471039
0.00381458
-0.00387937
0.000540857
0.00417703
-0.00424685
0.000615524
0.00453454
-0.00460921
0.000694818
0.00488541
-0.00496471
0.000778481
0.00522802
-0.00531169
0.000866223
0.00556087
-0.00564862
0.000957725
0.00588255
-0.00597405
0.00105265
0.00619177
-0.0062867
0.00115066
0.00648735
-0.00658536
0.0012514
0.00676827
-0.00686901
0.00135451
0.00703363
-0.00713674
0.00145966
0.00728268
-0.00738782
0.00156649
0.00751481
-0.00762165
0.0016747
0.00772957
-0.00783778
0.001784
0.00792661
-0.00803591
0.0018941
0.00810575
-0.00821586
0.00200477
0.0082669
-0.00837758
0.00211582
0.00841007
-0.00852112
0.00222706
0.00853537
-0.00864661
0.00233836
0.00864293
-0.00875424
0.00244964
0.00873293
-0.00884421
0.00256083
0.0088055
-0.00891669
0.00267186
0.00886074
-0.00897177
0.00278268
0.00889855
-0.00900936
0.00289314
0.00891954
-0.00903
0.0089246
0.00300298
-0.00903444
2.12748e-06
-6.08126e-05
7.60918e-06
-6.36981e-05
1.58935e-05
3.27723e-05
2.69394e-05
0.000200969
4.09833e-05
0.00042221
5.83659e-05
0.00068341
7.94572e-05
0.000974769
0.000104614
0.00128876
0.000134173
0.00161963
0.000168408
0.00196282
0.000207538
0.0023147
0.00025171
0.00267227
0.000301008
0.00303297
0.000355447
0.00339458
0.000414982
0.00375505
0.000479513
0.0041125
0.000548893
0.00446516
0.000622926
0.00481138
0.000701382
0.00514957
0.000783998
0.00547826
0.000870485
0.00579606
0.000960533
0.00610172
0.00105382
0.00639406
0.00115002
0.00667207
0.00124879
0.00693486
0.00134981
0.00718166
0.00145276
0.00741187
0.00155733
0.007625
0.00166323
0.00782071
0.0017702
0.00799878
0.001878
0.0081591
0.00198642
0.00830165
0.00209528
0.0084265
0.00220445
0.00853377
0.00231379
0.00862358
0.00242321
0.00869608
0.00253261
0.00875134
0.00264189
0.00878927
0.00275085
0.00881059
0.0088163
0.00285915
1.52167e-06
-6.23342e-05
5.58004e-06
-6.77566e-05
1.17662e-05
2.65861e-05
2.01685e-05
0.000192566
3.11144e-05
0.000411264
4.50115e-05
0.000669513
6.22964e-05
0.000957484
8.33677e-05
0.00126769
0.000108607
0.00159439
0.00013832
0.00193311
0.000172755
0.00228026
0.000212092
0.00263293
0.000256439
0.00298863
0.000305841
0.00334518
0.000360285
0.0037006
0.0004197
0.00405308
0.00048396
0.0044009
0.000552902
0.00474244
0.000626319
0.00507615
0.000703975
0.0054006
0.000785602
0.00571444
0.000870919
0.0060164
0.000959628
0.00630535
0.00105142
0.00658029
0.00114597
0.00684031
0.00124297
0.00708466
0.00134212
0.00731272
0.00144312
0.007524
0.00154568
0.00771814
0.00164956
0.00789491
0.00175451
0.00805415
0.00186031
0.00819585
0.00196677
0.00832004
0.00207374
0.0084268
0.00218106
0.00851626
0.00228861
0.00858853
0.00239625
0.0086437
0.00250381
0.0086817
0.00261103
0.00870336
0.00870982
0.00271752
9.47945e-07
-6.32822e-05
3.56397e-06
-7.03728e-05
7.64868e-06
2.25012e-05
1.34196e-05
0.000186795
2.13044e-05
0.000403379
3.17859e-05
0.000659031
4.53531e-05
0.000943916
6.24495e-05
0.00125059
8.34947e-05
0.00157335
0.000108831
0.00190777
0.000138731
0.00225036
0.000173402
0.00259826
0.000212982
0.00294905
0.000257547
0.00330061
0.000307105
0.00365105
0.000361607
0.00399858
0.00042096
0.00434155
0.000485021
0.00467838
0.000553607
0.00500757
0.000626506
0.0053277
0.000703478
0.00563746
0.000784261
0.00593562
0.000868573
0.00622104
0.000956125
0.00649273
0.00104662
0.00674981
0.00113976
0.00699152
0.00123525
0.00721723
0.0013328
0.00742645
0.00143215
0.0076188
0.00153302
0.00779403
0.00163519
0.00795199
0.00173842
0.00809262
0.00184251
0.00821595
0.00194728
0.00832203
0.00205256
0.00841098
0.00215818
0.00848291
0.00226396
0.00853792
0.00236966
0.008576
0.00247498
0.00859805
0.00860536
0.00257944
3.76551e-07
-6.36588e-05
1.56308e-06
-7.15594e-05
3.56642e-06
2.04978e-05
6.75353e-06
0.000183608
1.16452e-05
0.000398488
1.87955e-05
0.000651881
2.87503e-05
0.000933962
4.20057e-05
0.00123734
5.90047e-05
0.00155635
8.01239e-05
0.00188665
0.000105668
0.00222482
0.000135868
0.00256806
0.000170885
0.00291403
0.00021082
0.00326068
0.000255707
0.00360616
0.000305523
0.00394876
0.000360196
0.00428688
0.000419605
0.00461897
0.000483594
0.00494358
0.00055197
0.00525933
0.000624513
0.00556492
0.000700983
0.00585915
0.000781119
0.00614091
0.000864647
0.00640921
0.000951286
0.00666317
0.00104075
0.00690205
0.00113276
0.00712522
0.00122704
0.00733217
0.00132332
0.00752252
0.00142133
0.00769602
0.00152083
0.00785249
0.0016216
0.00799186
0.0017234
0.00811414
0.00182604
0.00821939
0.00192931
0.00830771
0.002033
0.00837922
0.00213689
0.00843404
0.00224068
0.00847221
0.002344
0.00849473
0.00850305
0.0024463
-1.82124e-07
-6.34768e-05
-4.08925e-07
-7.13327e-05
-4.55255e-07
2.05441e-05
1.95604e-07
0.000182957
2.16713e-06
0.000396516
6.08704e-06
0.000647961
1.25529e-05
0.000927496
2.21049e-05
0.00122778
3.52191e-05
0.00154323
5.23032e-05
0.00186957
7.3685e-05
0.00220344
9.96187e-05
0.00254212
0.000130294
0.00288335
0.000165834
0.00322514
0.000206292
0.0035657
0.000251669
0.00390339
0.000301915
0.00423663
0.000356933
0.00456395
0.000416584
0.00488393
0.000480696
0.00519522
0.000549072
0.00549654
0.000621489
0.00578673
0.000697701
0.00606469
0.000777453
0.00632946
0.000860479
0.00658015
0.000946509
0.00681602
0.00103527
0.00703646
0.00112649
0.00724095
0.0012199
0.00742911
0.00131524
0.00760067
0.00141226
0.00775546
0.00151072
0.0078934
0.00161038
0.00801448
0.00171101
0.00811876
0.00181238
0.00820635
0.00191422
0.00827738
0.00201626
0.008332
0.00211816
0.00837031
0.00221946
0.00839342
0.00840294
0.00231957
-7.30963e-07
-6.27458e-05
-2.34882e-06
-6.97149e-05
-4.40099e-06
2.25962e-05
-6.2163e-06
0.000184772
-7.07114e-06
0.000397371
-6.26556e-06
0.000647155
-3.14873e-06
0.000924379
2.86376e-06
0.00122177
1.22775e-05
0.00153382
2.55253e-05
0.00185632
4.29603e-05
0.002186
6.48623e-05
0.00252022
9.14419e-05
0.00285677
0.00012284
0.00319374
0.000159134
0.00352941
0.000200347
0.00386217
0.000246448
0.00419053
0.000297359
0.00451304
0.00035296
0.00482833
0.000413102
0.00513507
0.000477603
0.00543204
0.000546256
0.00571808
0.000618835
0.00599211
0.000695098
0.00625319
0.000774793
0.00650045
0.000857662
0.00673315
0.000943439
0.00695068
0.00103186
0.00715253
0.00112266
0.00733831
0.00121558
0.00750776
0.00131035
0.00766069
0.00140673
0.00779702
0.00150446
0.00791676
0.00160327
0.00801995
0.0017029
0.00810672
0.00180305
0.00817723
0.00190337
0.00823167
0.00200348
0.00827021
0.00210285
0.00829405
0.00830497
0.00220082
-1.27442e-06
-6.14714e-05
-4.24902e-06
-6.67404e-05
-8.2478e-06
2.6595e-05
-1.24464e-05
0.000188971
-1.60184e-05
0.000400942
-1.81896e-05
0.000649326
-1.82596e-05
0.000924448
-1.56044e-05
0.00121912
-9.68701e-06
0.0015279
-5.10877e-08
0.00184668
1.36784e-05
0.00217227
3.18046e-05
0.0025021
5.45572e-05
0.00283402
8.20964e-05
0.0031662
0.00011452
0.00349698
0.000151869
0.00382483
0.000194132
0.00414827
0.00024125
0.00446592
0.000293122
0.00477645
0.000349616
0.00507858
0.000410567
0.00537109
0.000475783
0.00565286
0.000545053
0.00592284
0.000618152
0.00618009
0.000694838
0.00642377
0.000774863
0.00665313
0.00085797
0.00686757
0.000943902
0.0070666
0.00103239
0.00724982
0.00112318
0.00741697
0.001216
0.00756787
0.00131058
0.00770244
0.00140665
0.00782069
0.00150391
0.00792268
0.00160206
0.00800857
0.00170075
0.00807854
0.00179959
0.00813283
0.00189812
0.00817168
0.00199574
0.00819643
0.00820897
0.00209174
-1.80886e-06
-5.96627e-05
-6.10016e-06
-6.24492e-05
-1.19757e-05
3.24704e-05
-1.84592e-05
0.000195454
-2.46217e-05
0.000407105
-2.96157e-05
0.00065432
-3.26912e-05
0.000927524
-3.3188e-05
0.00121961
-3.05406e-05
0.00152525
-2.42701e-05
0.00184041
-1.39798e-05
0.00216198
6.51865e-07
0.00248746
1.98728e-05
0.0028148
4.38614e-05
0.00314221
7.27338e-05
0.00346811
0.000106549
0.00379101
0.000145312
0.0041095
0.000188982
0.00442225
0.000237477
0.00472796
0.000290679
0.00502538
0.000348438
0.00531333
0.000410577
0.00559072
0.000476902
0.00585652
0.000547198
0.0061098
0.000621237
0.00634973
0.000698779
0.00657559
0.000779578
0.00678678
0.000863377
0.0069828
0.000949917
0.00716328
0.00103893
0.00732796
0.00113014
0.00747666
0.00122327
0.00760931
0.00131802
0.00772594
0.00141408
0.00782663
0.00151109
0.00791156
0.00160866
0.00798097
0.00170633
0.00803516
0.00180359
0.00807443
0.00189978
0.00810024
0.00811466
0.00199409
-2.32986e-06
-5.73328e-05
-7.89155e-06
-5.68876e-05
-1.5565e-05
4.01438e-05
-2.4222e-05
0.000204111
-3.28314e-05
0.000415714
-4.04761e-05
0.000661964
-4.63582e-05
0.000933406
-4.97818e-05
0.00122304
-5.01549e-05
0.00152563
-4.69795e-05
0.00183724
-3.98396e-05
0.00215484
-2.83952e-05
0.00247602
-1.2383e-05
0.00279879
8.3911e-06
0.00312144
3.40597e-05
0.00344244
6.46994e-05
0.00376037
0.000100332
0.00407387
0.000140931
0.00438165
0.000186432
0.00468246
0.000236731
0.00497508
0.000291691
0.00525837
0.000351153
0.00553126
0.000414932
0.00579274
0.000482828
0.0060419
0.000554624
0.00627793
0.000630089
0.00650012
0.000708983
0.00670788
0.000791057
0.00690072
0.000876051
0.00707829
0.000963696
0.00724031
0.00105371
0.00738664
0.00114581
0.00751722
0.00123966
0.00763208
0.00133493
0.00773136
0.00143122
0.00781526
0.0015281
0.00788409
0.00162506
0.0079382
0.00172149
0.00797799
0.00181668
0.00800505
0.00802159
0.00190975
-2.83518e-06
-5.44977e-05
-9.61445e-06
-5.01084e-05
-1.89958e-05
4.95251e-05
-2.9702e-05
0.000214817
-4.06021e-05
0.000426614
-5.07095e-05
0.000672072
-5.91791e-05
0.000941875
-6.52841e-05
0.00122914
-6.84092e-05
0.00152875
-6.80358e-05
0.00183686
-6.37308e-05
0.00215053
-5.5141e-05
0.00246743
-4.19898e-05
0.00278564
-2.40664e-05
0.00310352
-1.22299e-06
0.0034196
2.66306e-05
0.00373252
5.95307e-05
0.00404097
9.7469e-05
0.00434372
0.000140393
0.00463953
0.000188213
0.00492726
0.000240806
0.00520578
0.000298024
0.00547404
0.000359699
0.00573107
0.000425639
0.00597596
0.000495638
0.00620793
0.000569475
0.00642629
0.000646917
0.00663044
0.000727722
0.00681992
0.000811631
0.00699438
0.000898376
0.00715357
0.000987672
0.00729734
0.00107921
0.00742568
0.00117267
0.00753863
0.00126765
0.00763637
0.00136376
0.00771916
0.00146048
0.00778736
0.00155727
0.00784142
0.00165345
0.00788181
0.00174823
0.00791027
0.00792919
0.00184064
-3.32061e-06
-5.11771e-05
-1.12584e-05
-4.21708e-05
-2.22506e-05
6.05171e-05
-3.48713e-05
0.000227438
-4.78908e-05
0.000439634
-6.02571e-05
0.000684438
-7.10808e-05
0.000952699
-7.96039e-05
0.00123767
-8.51891e-05
0.00153434
-8.73019e-05
0.00183898
-8.54954e-05
0.00214873
-7.94032e-05
0.00246134
-6.8736e-05
0.00277497
-5.32708e-05
0.00308805
-3.28471e-05
0.00339918
-7.36001e-06
0.00370703
2.32414e-05
0.00401037
5.89611e-05
0.004308
9.97596e-05
0.00459873
0.00014556
0.00488146
0.000196254
0.00515509
0.000251705
0.00541859
0.000311755
0.00567102
0.000376224
0.00591149
0.000444916
0.00613924
0.000517621
0.00635358
0.000594114
0.00655395
0.000674155
0.00673988
0.000757495
0.00691104
0.000843865
0.0070672
0.000932979
0.00720823
0.00102452
0.00733413
0.00111814
0.00744501
0.00121344
0.00754107
0.00130997
0.00762263
0.0014072
0.00769014
0.0015045
0.00774412
0.00160113
0.00778518
0.00169623
0.00781517
0.00783668
0.00178874
-3.78377e-06
-4.73933e-05
-1.28162e-05
-3.31385e-05
-2.53131e-05
7.30139e-05
-3.97027e-05
0.000241827
-5.46602e-05
0.000454591
-6.90694e-05
0.000698847
-8.19962e-05
0.000965626
-9.26561e-05
0.00124832
-0.000100393
0.00154207
-0.000104656
0.00184324
-0.000104987
0.00214906
-0.00010101
0.00245736
-9.24257e-05
0.00276639
-7.89991e-05
0.00307463
-6.05577e-05
0.00338073
-3.69856e-05
0.00368346
-8.21917e-06
0.0039816
2.57582e-05
0.00427402
6.49189e-05
0.00455957
0.000109198
0.00483718
0.000158498
0.00510579
0.000212696
0.00536439
0.000271644
0.00561207
0.000335171
0.00584796
0.000403094
0.00607132
0.000475209
0.00628146
0.000551302
0.00647785
0.000631142
0.00666004
0.000714484
0.0068277
0.000801064
0.00698062
0.000890596
0.0071187
0.000982763
0.00724197
0.0010772
0.00735057
0.0011735
0.00744477
0.00127118
0.00752496
0.00136966
0.00759165
0.00146827
0.00764551
0.00156621
0.00768724
0.00166253
0.00771885
0.00774316
0.00175605
-4.22222e-06
-4.31711e-05
-1.42799e-05
-2.3081e-05
-2.81691e-05
8.6903e-05
-4.41746e-05
0.000257832
-6.08781e-05
0.000471294
-7.71013e-05
0.00071507
-9.18683e-05
0.000980392
-0.000104369
0.00126083
-0.00011393
0.00155163
-0.000119987
0.0018493
-0.000122074
0.00215115
-0.000119808
0.00245509
-0.000112879
0.00275946
-0.000101043
0.00306279
-8.41193e-05
0.00336381
-6.198e-05
0.00366132
-3.45508e-05
0.00395418
-1.8049e-06
0.00424127
3.62411e-05
0.00452153
7.95337e-05
0.00479389
0.000127988
0.00505733
0.000181489
0.00531089
0.000239899
0.00555366
0.000303059
0.0057848
0.000370794
0.00600358
0.000442913
0.00620935
0.000519208
0.00640156
0.000599459
0.00657979
0.000683431
0.00674373
0.000770867
0.00689318
0.000861486
0.00702808
0.00095497
0.00714848
0.00105096
0.00725458
0.00114902
0.00734671
0.00124866
0.00742532
0.00134926
0.00749105
0.00145012
0.00754465
0.00155036
0.00758699
0.00164894
0.00762027
0.00764753
0.00174457
-4.63441e-06
-3.85368e-05
-1.56439e-05
-1.20717e-05
-3.08071e-05
0.000102066
-4.82687e-05
0.000275294
-6.65185e-05
0.000489544
-8.43175e-05
0.000732869
-0.00010065
0.000996725
-0.000114682
0.00127486
-0.000125725
0.00156268
-0.000133204
0.00185678
-0.000136646
0.00215459
-0.000135662
0.00245411
-0.000129937
0.00275373
-0.000119219
0.00305207
-0.000103318
0.00334791
-8.20984e-05
0.0036401
-5.54769e-05
0.00392755
-2.34171e-05
0.00420921
1.40745e-05
0.00448404
5.69552e-05
0.00475101
0.000105149
0.00500914
0.000158552
0.00525749
0.000217035
0.00549518
0.000280448
0.00572139
0.000348628
0.0059354
0.000421391
0.00613658
0.000498543
0.00632441
0.000579875
0.00649846
0.000665162
0.00665844
0.000754159
0.00680418
0.000846595
0.00693564
0.000942159
0.00705292
0.00104049
0.00715625
0.00114117
0.00724603
0.00124367
0.00732282
0.00134738
0.00738734
0.00145153
0.0074405
0.00155519
0.00748333
0.00165724
0.00751822
0.00754853
0.00175624
-5.01918e-06
-3.35177e-05
-1.69038e-05
-1.87334e-07
-3.32184e-05
0.000118381
-5.19715e-05
0.000294047
-7.15617e-05
0.000509134
-9.06908e-05
0.000751998
-0.000108305
0.00101434
-0.000123549
0.0012901
-0.000135717
0.00157485
-0.00014423
0.00186529
-0.000148609
0.00215897
-0.000148461
0.00245396
-0.000143465
0.00274874
-0.000133366
0.00304197
-0.000117966
0.00333251
-9.71242e-05
0.00361926
-7.07489e-05
0.00390118
-3.87954e-05
0.00417726
-1.26088e-06
0.0044465
4.18209e-05
0.00470793
9.03829e-05
0.00496058
0.000144329
0.00520354
0.000203539
0.00543597
0.000267874
0.00565705
0.000337179
0.0058661
0.000411282
0.00606248
0.000489999
0.00624569
0.000573135
0.00641532
0.00066048
0.00657109
0.000751804
0.00671286
0.000846849
0.0068406
0.000945322
0.00695445
0.00104687
0.0070547
0.00115109
0.00714182
0.00125745
0.00721645
0.00136533
0.00727946
0.00147393
0.00733191
0.00158226
0.007375
0.0016891
0.00741138
0.00744473
0.00179289
-5.37586e-06
-2.81419e-05
-1.80564e-05
1.2493e-05
-3.53976e-05
0.000135722
-5.52745e-05
0.000313924
-7.5995e-05
0.000529855
-9.62035e-05
0.000772207
-0.00011481
0.00103295
-0.000130936
0.00130623
-0.000143865
0.00158778
-0.000153012
0.00187444
-0.000157894
0.00216385
-0.000158116
0.00245419
-0.000153356
0.00274398
-0.000143354
0.00303197
-0.000127909
0.00331706
-0.000106874
0.00359822
-8.01519e-05
0.00387446
-4.76911e-05
0.0041448
-9.48051e-06
0.00440829
3.44539e-05
0.00466399
8.40525e-05
0.00491098
0.000139227
0.00514837
0.000199866
0.00537533
0.00026584
0.00559108
0.000337001
0.00579494
0.00041319
0.00598629
0.000494236
0.00616464
0.000579957
0.0063296
0.00067016
0.00648089
0.000764634
0.00661839
0.000863143
0.00674209
0.000965413
0.00685218
0.00107112
0.00694899
0.00117987
0.00703307
0.00129116
0.00710516
0.00140435
0.00716627
0.00151863
0.00721762
0.00163298
0.00726066
0.00174608
0.00729829
0.00733461
0.0018562
-5.70415e-06
-2.24378e-05
-1.91004e-05
2.5889e-05
-3.73421e-05
0.000153963
-5.81735e-05
0.000334755
-7.98128e-05
0.000551494
-0.000100847
0.000793241
-0.000120151
0.00105225
-0.000136826
0.0013229
-0.000150144
0.00160109
-0.000159515
0.00188381
-0.000164455
0.00216879
-0.000164569
0.0024543
-0.000159533
0.00273894
-0.000149086
0.00302153
-0.000133026
0.003301
-0.000111201
0.0035764
-8.35105e-05
0.00384677
-4.98968e-05
0.00411118
-1.03422e-05
0.00436874
3.51339e-05
0.00461851
8.64784e-05
0.00485963
0.00014361
0.00509124
0.000206425
0.00531251
0.000274802
0.0055227
0.000348602
0.00572114
0.000427678
0.00590721
0.000511869
0.00608045
0.000601012
0.00624046
0.000694931
0.00638697
0.000793437
0.00651988
0.000896319
0.00663921
0.00100333
0.00674516
0.00111419
0.00683814
0.00122852
0.00691874
0.00134585
0.00698783
0.00146557
0.00704655
0.00158686
0.00709633
0.00170864
0.00713887
0.00182954
0.00717739
0.0072165
0.00194765
-6.00408e-06
-1.64338e-05
-2.00355e-05
3.99203e-05
-3.90524e-05
0.00017298
-6.06697e-05
0.000356372
-8.30165e-05
0.000573841
-0.000104624
0.000814848
-0.00012433
0.00107196
-0.000141218
0.00133979
-0.000154548
0.00161442
-0.000163727
0.00189299
-0.000168272
0.00217333
-0.000167787
0.00245381
-0.00016195
0.0027331
-0.000150501
0.00301008
-0.000133236
0.00328374
-0.000110002
0.00355316
-8.06948e-05
0.00381746
-4.52533e-05
0.00407574
-3.65439e-06
0.00432714
4.4088e-05
0.00457077
9.79263e-05
0.0048058
0.000157785
0.00503138
0.000223569
0.00524673
0.000295161
0.00545111
0.000372433
0.00564386
0.000455246
0.0058244
0.000543456
0.00599224
0.000636911
0.006147
0.000735458
0.00628843
0.000838932
0.00641641
0.000947151
0.00653099
0.00105991
0.0066324
0.00117695
0.00672109
0.00129796
0.00679773
0.0014225
0.00686329
0.00154999
0.00691906
0.00167963
0.00696669
0.00181034
0.00700817
0.00194062
0.00704711
0.00708868
0.00206844
-6.27597e-06
-1.01579e-05
-2.08633e-05
5.45074e-05
-4.0532e-05
0.000192649
-6.27686e-05
0.000378609
-8.56143e-05
0.000596686
-0.000107543
0.000836777
-0.00012736
0.00109177
-0.000144125
0.00135655
-0.000157091
0.00162739
-0.000165661
0.00190156
-0.000169353
0.00217703
-0.000167772
0.00245223
-0.0001606
0.00272593
-0.000147577
0.00299705
-0.000128501
0.00326466
-0.000103219
0.00352788
-7.16262e-05
0.00378587
-3.36565e-05
0.00403777
1.0716e-05
0.00428276
6.14815e-05
0.00452001
0.000118597
0.00474868
0.000181993
0.00496798
0.000251578
0.00517714
0.000327244
0.00537545
0.000408868
0.00556224
0.000496322
0.00573695
0.000589472
0.00589909
0.000688186
0.00604829
0.000792326
0.00618429
0.000901754
0.00630698
0.00101632
0.00641642
0.00113586
0.00651286
0.00126017
0.00659678
0.00138898
0.00666893
0.00152191
0.00673036
0.00165844
0.00678253
0.00179781
0.00682733
0.00193891
0.00686706
0.00208021
0.0069058
0.00694941
0.00221948
-6.52032e-06
-3.63771e-06
-2.15866e-05
6.95734e-05
-4.1787e-05
0.000212849
-6.44806e-05
0.000401303
-8.76213e-05
0.000619827
-0.000109627
0.000858782
-0.000129265
0.00111141
-0.000145577
0.00137287
-0.000157805
0.00163962
-0.000165351
0.0019091
-0.000167732
0.00217941
-0.000164556
0.00244906
-0.000155508
0.00271688
-0.000140333
0.00298188
-0.000118831
0.00324316
-9.08495e-05
0.0034999
-5.62826e-05
0.0037513
-1.50637e-05
0.00399655
3.28357e-05
0.00423486
8.74088e-05
0.00446543
0.000148616
0.00468747
0.000216393
0.0049002
0.000290652
0.00510288
0.000371289
0.00529481
0.00045819
0.00547534
0.000551233
0.0056439
0.000650296
0.00580003
0.000755258
0.00594332
0.000866004
0.00607354
0.000982419
0.00619056
0.00110439
0.00629445
0.00123179
0.00638546
0.00136447
0.00646411
0.00150221
0.00653118
0.00164473
0.00658784
0.00179156
0.0066357
0.00194199
0.00667689
0.00209496
0.0067141
0.00224886
0.0067519
0.00679696
0.00240131
-6.73792e-06
3.10014e-06
-2.22095e-05
8.50448e-05
-4.28259e-05
0.000233465
-6.58197e-05
0.000424296
-8.90582e-05
0.000643066
-0.000110902
0.000880626
-0.000130082
0.00113059
-0.000145617
0.0013884
-0.000156743
0.00165074
-0.000162854
0.00191521
-0.00016347
0.00218002
-0.000158203
0.00244379
-0.000146741
0.00270542
-0.000128833
0.00296397
-0.000104283
0.00321861
-7.29422e-05
0.00346856
-3.47032e-05
0.00371306
1.05003e-05
0.00395135
6.26977e-05
0.00418267
0.000121884
0.00440625
0.000188023
0.00462133
0.000261052
0.00482717
0.000340887
0.00502305
0.00042743
0.00520827
0.000520568
0.0053822
0.000620187
0.00554429
0.000726174
0.00569404
0.00083842
0.00583108
0.000956824
0.00595514
0.0010813
0.00606609
0.00121175
0.00616399
0.00134811
0.0062491
0.00149028
0.00632194
0.00163811
0.00638335
0.00179138
0.00643456
0.00194973
0.00647735
0.00211253
0.0065141
0.00227875
0.00654788
0.00244678
0.00658387
0.00662968
0.00261406
-6.92983e-06
1.00299e-05
-2.27372e-05
0.000100852
-4.36592e-05
0.000254387
-6.68035e-05
0.000447441
-8.99512e-05
0.000666213
-0.000111403
0.000902078
-0.000129855
0.00114904
-0.000144302
0.00140285
-0.000153969
0.00166041
-0.000158246
0.00191949
-0.000156654
0.00217843
-0.000148807
0.00243595
-0.000134399
0.00269101
-0.000113182
0.00294275
-8.49662e-05
0.0031904
-4.96042e-05
0.0034332
-6.99122e-06
0.00367045
4.29387e-05
0.00390142
0.000100215
0.00412539
0.000164833
0.00434163
0.000236759
0.00454941
0.000315931
0.004748
0.000402268
0.00493671
0.000495672
0.00511486
0.000596037
0.00528184
0.00070325
0.00543707
0.000817204
0.00558009
0.000937797
0.00571049
0.00106494
0.00582799
0.00119857
0.00593247
0.00133862
0.00602394
0.00148505
0.00610267
0.00163782
0.00616917
0.00179686
0.00622431
0.00196204
0.00626939
0.00213307
0.00630631
0.00230945
0.00633772
0.00249021
0.00636712
0.00267377
0.00640031
0.00644603
0.00285742
-7.09752e-06
1.71274e-05
-2.31755e-05
0.00011693
-4.42992e-05
0.000275511
-6.74522e-05
0.000470593
-9.03298e-05
0.000689091
-0.000111173
0.000922921
-0.000128639
0.00116651
-0.000141699
0.00141591
-0.000149565
0.00166828
-0.000151624
0.00192155
-0.000147394
0.0021742
-0.000136493
0.00242504
-0.000118618
0.00267314
-9.35284e-05
0.00291766
-6.10362e-05
0.0031579
-2.09993e-05
0.00339316
2.66846e-05
0.00362276
8.20802e-05
0.00384602
0.000145216
0.00406225
0.000216087
0.00427076
0.00029466
0.00447083
0.000380874
0.00466179
0.000474648
0.00484293
0.000575886
0.00501362
0.00068448
0.00517324
0.000800322
0.00532123
0.000923302
0.00545711
0.00105333
0.00558046
0.00119031
0.005691
0.0013342
0.00578858
0.00148496
0.00587318
0.00164258
0.00594505
0.00180706
0.00600469
0.00197841
0.00605296
0.00215656
0.00609123
0.00234137
0.0061215
0.00253243
0.00614666
0.0027289
0.00617066
0.00292921
0.0062
0.00624465
0.00313058
-7.24288e-06
2.43702e-05
-2.3531e-05
0.000133218
-4.47588e-05
0.000296739
-6.77876e-05
0.000493622
-9.02266e-05
0.00071153
-0.000110255
0.000942949
-0.000126492
0.00118275
-0.000137882
0.0014273
-0.000143624
0.00167402
-0.000143098
0.00192102
-0.000135819
0.00216692
-0.000121408
0.00241063
-9.95658e-05
0.00265129
-7.00561e-05
0.00288816
-3.26956e-05
0.00312054
1.26538e-05
0.00334781
6.60912e-05
0.00356933
0.000127679
0.00378444
0.000197444
0.00399249
0.00027538
0.00419282
0.000361453
0.00438476
0.000455602
0.00456764
0.000557746
0.00474079
0.000667786
0.00490358
0.000785614
0.00505541
0.000911116
0.00519573
0.00104418
0.00532404
0.00118472
0.00543992
0.00133265
0.00554308
0.00148791
0.00563332
0.00165048
0.00571061
0.00182038
0.00577515
0.00199764
0.00582742
0.00218233
0.00586827
0.00237449
0.00589908
0.00257406
0.00592193
0.00278077
0.00593995
0.00299392
0.00595751
0.00321204
0.00598188
0.00602442
0.00343227
-7.36804e-06
3.17382e-05
-2.381e-05
0.000149659
-4.50515e-05
0.00031798
-6.78322e-05
0.000516403
-8.96746e-05
0.000733372
-0.000108696
0.000961971
-0.000123476
0.00119753
-0.000132932
0.00143676
-0.000136246
0.00167733
-0.000132788
0.00191757
-0.000122073
0.0021562
-0.000103721
0.00239228
-7.74349e-05
0.00262501
-4.29836e-05
0.0028537
-1.87795e-07
0.00307775
5.10868e-05
0.00329654
0.000110936
0.00350948
0.000179418
0.00371595
0.000256558
0.00391535
0.000342349
0.00410703
0.000436755
0.00429036
0.000539712
0.00446468
0.000651137
0.00462937
0.000770929
0.00478379
0.000898973
0.00492737
0.00103515
0.00505955
0.00117935
0.00517984
0.00133146
0.00528781
0.0014914
0.00538314
0.00165911
0.00546561
0.00183457
0.00553515
0.0020178
0.00559193
0.00220887
0.00563635
0.00240788
0.00566926
0.00261495
0.005692
0.00283015
0.00570674
0.00305333
0.00571676
0.00328396
0.00572688
0.00352069
0.00574515
0.00578444
0.00376067
-7.47514e-06
3.92133e-05
-2.40189e-05
0.000166203
-4.51903e-05
0.000339151
-6.76075e-05
0.00053882
-8.87061e-05
0.000754471
-0.000106543
0.000979807
-0.000119653
0.00121064
-0.000126928
0.00144403
-0.000127531
0.00167793
-0.000120821
0.00191086
-0.000106309
0.00214169
-8.36119e-05
0.00236958
-5.24365e-05
0.00259383
-1.25539e-05
0.00281382
3.62112e-05
0.00302898
9.39897e-05
0.00323876
0.000160873
0.00344259
0.000236918
0.00363991
0.000322144
0.00383012
0.000416544
0.00401263
0.000520077
0.00418682
0.000632678
0.00435208
0.000754259
0.00450778
0.000884713
0.00465334
0.00102392
0.00478816
0.00117175
0.00491172
0.00132808
0.00502351
0.00149278
0.00512311
0.00166576
0.00521016
0.00184695
0.00528442
0.0020363
0.00534579
0.00223385
0.00539438
0.00243967
0.00543054
0.00265389
0.00545504
0.00287669
0.0054692
0.00310823
0.0054752
0.00334853
0.00547646
0.00359721
0.0054782
0.00385311
0.00548925
0.00552411
0.00411344
-7.56609e-06
4.67794e-05
-2.41637e-05
0.000182801
-4.51869e-05
0.000360175
-6.71329e-05
0.000560766
-8.73508e-05
0.000774689
-0.000103836
0.000996292
-0.000115081
0.00122188
-0.000119949
0.0014489
-0.000117579
0.00167557
-0.000107322
0.0019006
-8.86788e-05
0.00212305
-6.12669e-05
0.00234217
-2.4791e-05
0.00255736
2.09753e-05
0.00276806
7.62041e-05
0.00297375
0.000141023
0.00317394
0.00021552
0.0033681
0.000299748
0.00355568
0.000393724
0.00373615
0.000497436
0.00390892
0.00061084
0.00407342
0.000733868
0.00422905
0.000866424
0.00437523
0.00100839
0.00451137
0.00115965
0.00463691
0.00132004
0.00475133
0.00148943
0.00485412
0.00166767
0.00494486
0.00185465
0.00502318
0.00205026
0.00508881
0.00225446
0.0051416
0.00246722
0.00518161
0.00268863
0.00520913
0.00291883
0.00522484
0.00315803
0.00523
0.00340648
0.00522675
0.00366434
0.00521861
0.00393142
0.00521111
0.00420677
0.0052139
0.00524315
0.00448774
-7.64242e-06
5.44218e-05
-2.42492e-05
0.000199407
-4.50508e-05
0.000380976
-6.64242e-05
0.000582139
-8.56334e-05
0.000793898
-0.000100614
0.00101127
-0.000109813
0.00123108
-0.000112063
0.00145115
-0.000106483
0.00166998
-9.24071e-05
0.00188652
-6.9331e-05
0.00209997
-3.68664e-05
0.00230971
5.28358e-06
0.00251521
5.73445e-05
0.00271599
0.000119486
0.00291161
0.000191834
0.00310159
0.000274472
0.00328546
0.00036745
0.0034627
0.00047078
0.00363282
0.000584446
0.00379525
0.0007084
0.00394946
0.000842566
0.00409488
0.000986843
0.00423095
0.00114111
0.00435711
0.00130521
0.00447281
0.00147899
0.00457754
0.00166229
0.00467083
0.00185493
0.00475222
0.00205677
0.00482135
0.00226766
0.00487792
0.00248751
0.00492175
0.00271627
0.00495284
0.00295399
0.00497141
0.0032008
0.00497803
0.00345692
0.00497388
0.00372266
0.00496101
0.00399831
0.00494295
0.0042839
0.00492553
0.0045787
0.0049191
0.00494158
0.00488026
-7.70521e-06
6.2127e-05
-2.42787e-05
0.000215981
-4.47885e-05
0.000401486
-6.54927e-05
0.000602843
-8.35722e-05
0.000811977
-9.6903e-05
0.0010246
-0.000103888
0.00123807
-0.000103327
0.00145059
-9.43181e-05
0.00166098
-7.61796e-05
0.00186839
-4.83963e-05
0.00207219
-1.0575e-05
0.00227189
3.75841e-05
0.00246705
9.63075e-05
0.00265727
0.000165764
0.00284216
0.000246076
0.00302128
0.000337325
0.00319421
0.000439555
0.00336047
0.000552777
0.00351959
0.000676966
0.00367106
0.000812071
0.00381436
0.000958009
0.00394895
0.00111467
0.00407429
0.00128191
0.00418987
0.00145957
0.00429515
0.00164747
0.00438964
0.00184541
0.00447288
0.0020532
0.00454443
0.00227064
0.00460391
0.00249753
0.00465102
0.00273374
0.00468555
0.00297916
0.00470743
0.00323376
0.0047168
0.00349765
0.00471415
0.00377103
0.0047005
0.00405425
0.00467779
0.00434771
0.0046495
0.00465162
0.00462162
0.00496557
0.00460515
0.00461979
0.00528736
-7.75503e-06
6.9882e-05
-2.42537e-05
0.000232479
-4.44026e-05
0.000421635
-6.43441e-05
0.000622784
-8.11775e-05
0.000828811
-9.27209e-05
0.00103615
-9.73326e-05
0.00124268
-9.37817e-05
0.00144704
-8.11427e-05
0.00164834
-5.87179e-05
0.00184596
-2.59802e-05
0.00203945
1.74701e-05
0.00222844
7.19368e-05
0.00241258
0.000137648
0.00259156
0.000214773
0.00276503
0.00030343
0.00293262
0.0004037
0.00309394
0.000515621
0.00324855
0.0006392
0.00339602
0.000774406
0.00353586
0.00092118
0.00366758
0.00107943
0.0037907
0.00124903
0.00390469
0.00142983
0.00400906
0.00162165
0.00410333
0.00182428
0.00418701
0.0020375
0.00425966
0.00226105
0.00432087
0.00249471
0.00437026
0.00273821
0.00440752
0.00299133
0.00443242
0.00325391
0.00444485
0.00352583
0.00444487
0.00380712
0.00443286
0.00409793
0.00440969
0.00439861
0.00437712
0.00470963
0.00433848
0.00503142
0.00429983
0.00536387
0.0042727
0.00427848
0.00570518
-7.79183e-06
7.76737e-05
-2.41736e-05
0.000248861
-4.38919e-05
0.000441353
-6.2977e-05
0.000641869
-7.84493e-05
0.000844283
-8.80705e-05
0.00104577
-9.01562e-05
0.00124476
-8.34444e-05
0.00144033
-6.69872e-05
0.00163188
-4.00699e-05
0.00181904
-2.15268e-06
0.00200153
4.71718e-05
0.00217911
0.000108212
0.00235154
0.000181197
0.00251857