/*--------------------------------*- C++ -*----------------------------------*\
  =========                 |
  \\      /  F ield         | OpenFOAM: The Open Source CFD Toolbox
   \\    /   O peration     | Website:  https://openfoam.org
    \\  /    A nd           | Version:  7
     \\/     M anipulation  |
\*---------------------------------------------------------------------------*/
FoamFile
{
    version     2.0;
    format      ascii;
    class       volVectorField;
    location    "6.6";
    object      U;
}
// * * * * * * * * * * * * * * * * * * * * * * * * * * * * * * * * * * * * * //

dimensions      [0 1 -1 0 0 0 0];

internalField   nonuniform List<vector> 
32000
(
(0.000109253 -0.00230414 -3.50825e-22)
(0.000525434 -0.00221479 0)
(0.0012604 0.00182797 -3.13413e-21)
(0.00217136 0.00873845 0)
(0.00326207 0.0177861 3.26329e-21)
(0.00452691 0.028454 0)
(0.00597227 0.0403516 3.37046e-21)
(0.00760696 0.0531779 -2.56206e-21)
(0.00943585 0.0667007 5.36861e-25)
(0.011459 0.0807343 7.64879e-25)
(0.0136716 0.0951298 -8.81993e-22)
(0.0160659 0.109763 3.56034e-21)
(0.0186314 0.124529 0)
(0.0213548 0.139332 -9.04616e-22)
(0.0242209 0.154088 9.08375e-22)
(0.0272128 0.168718 0)
(0.0303124 0.183149 4.59738e-21)
(0.0335008 0.19731 -9.22272e-22)
(0.0367593 0.211137 0)
(0.0400691 0.224568 1.86677e-21)
(0.0434117 0.237546 1.87183e-21)
(0.0467696 0.25002 0)
(0.0501258 0.261941 0)
(0.0534648 0.273269 0)
(0.0567725 0.283967 0)
(0.0600361 0.294005 0)
(0.0632438 0.30336 0)
(0.0663856 0.312012 0)
(0.069453 0.319949 -3.8122e-21)
(0.0724396 0.327164 0)
(0.0753402 0.333653 3.82179e-21)
(0.0781514 0.339418 0)
(0.0808713 0.344464 0)
(0.0834995 0.348796 0)
(0.0860374 0.352423 -3.82883e-21)
(0.0884865 0.35535 -1.92271e-21)
(0.09085 0.357582 5.75451e-21)
(0.0931401 0.359113 3.4287e-24)
(0.0953495 0.359968 3.83604e-21)
(0.0973579 0.360177 2.25619e-24)
(0.000138681 -0.00238707 0)
(0.000466283 -0.00242665 6.11981e-21)
(0.000964594 0.00149733 1.56641e-21)
(0.00154718 0.0082946 -1.67046e-25)
(0.00224023 0.0172239 -1.63132e-21)
(0.00305954 0.0277634 0)
(0.00402561 0.0395222 3.36949e-21)
(0.00515823 0.0521991 -3.41525e-21)
(0.00647026 0.0655648 0)
(0.00796733 0.0794348 -6.98866e-21)
(0.00965068 0.093662 0)
(0.0115169 0.108126 -1.06779e-20)
(0.0135582 0.122723 0)
(0.0157646 0.137361 0)
(0.0181238 0.151957 3.6401e-21)
(0.0206205 0.166436 -3.65185e-21)
(0.023239 0.180724 -3.67619e-21)
(0.0259631 0.194753 0)
(0.0287755 0.208459 1.11282e-20)
(0.0316589 0.221782 -3.7153e-21)
(0.034597 0.234666 6.34035e-24)
(0.0375732 0.247058 -1.12317e-20)
(0.0405715 0.258913 -7.51419e-21)
(0.0435775 0.270187 -3.77919e-21)
(0.0465781 0.280846 1.1322e-20)
(0.0495608 0.290858 -1.1367e-20)
(0.0525142 0.300198 1.13965e-20)
(0.0554283 0.308848 -1.51792e-20)
(0.0582949 0.316794 -3.79551e-21)
(0.0611068 0.324027 3.09425e-23)
(0.0638583 0.330543 -1.14013e-20)
(0.0665452 0.336342 -7.61726e-21)
(0.0691651 0.341427 1.52981e-20)
(0.0717163 0.345802 -1.5257e-20)
(0.0741986 0.349475 -3.80397e-21)
(0.0766122 0.352451 -1.52933e-20)
(0.0789596 0.354732 -7.41472e-24)
(0.08125 0.356315 3.82842e-21)
(0.0834651 0.357227 -1.52096e-20)
(0.0854893 0.357502 -2.18798e-20)
(0.000172192 -0.00246726 -1.40414e-21)
(0.000417663 -0.00263452 -3.05979e-21)
(0.000682621 0.00119384 -1.41036e-20)
(0.000941822 0.00789437 0)
(0.00124485 0.0167159 1.63145e-21)
(0.00162741 0.0271341 -1.65921e-21)
(0.00212422 0.0387578 -2.02172e-20)
(0.00276654 0.0512873 6.83093e-21)
(0.00357503 0.0644937 -3.45786e-21)
(0.00456053 0.0781963 2.09617e-20)
(0.00572944 0.0922514 7.05642e-21)
(0.00708237 0.10654 3.56155e-21)
(0.00861496 0.120961 -1.43448e-20)
(0.0103193 0.135425 0)
(0.0121856 0.149853 0)
(0.0142018 0.164168 7.31961e-21)
(0.0163536 0.178302 2.09593e-23)
(0.0186263 0.192186 -7.36932e-21)
(0.0210051 0.205759 -7.4134e-21)
(0.0234743 0.21896 -1.48734e-20)
(0.0260183 0.231735 2.24046e-20)
(0.0286221 0.244032 1.96284e-23)
(0.031271 0.255804 -1.36851e-23)
(0.0339514 0.26701 7.51171e-21)
(0.0366508 0.277613 -1.51194e-20)
(0.0393575 0.287584 3.02279e-20)
(0.0420604 0.296895 0)
(0.0447497 0.305528 7.59658e-21)
(0.0474167 0.313468 7.60763e-21)
(0.050054 0.320705 1.52463e-20)
(0.0526556 0.327234 3.09405e-23)
(0.0552166 0.333054 0)
(0.0577334 0.338167 7.65346e-21)
(0.0602034 0.342576 -7.56807e-21)
(0.062625 0.346286 -7.5843e-21)
(0.0649972 0.349303 2.29036e-20)
(0.0673209 0.351629 -2.27511e-20)
(0.0696035 0.353262 1.5244e-20)
(0.0718142 0.354231 -2.2694e-20)
(0.0738422 0.354573 8.65719e-21)
(0.000208 -0.00250756 1.12355e-20)
(0.00037342 -0.00275319 -1.22444e-20)
(0.000405887 0.000996682 2.5075e-20)
(0.000344464 0.00760919 0)
(0.000262438 0.016326 9.78857e-21)
(0.000216797 0.026622 1.65936e-20)
(0.000255944 0.0381064 3.36986e-21)
(0.000420515 0.0504828 1.2414e-24)
(0.000739082 0.0635228 1.03704e-20)
(0.00122856 0.0770498 -3.49589e-21)
(0.00189946 0.0909224 1.76363e-20)
(0.00275572 0.105025 -2.13541e-20)
(0.00379619 0.119259 2.1511e-20)
(0.00501599 0.133538 -7.22917e-21)
(0.00640723 0.147784 7.25928e-21)
(0.00795948 0.161925 -1.46133e-20)
(0.00966067 0.17589 -2.20409e-20)
(0.011498 0.189617 7.36627e-21)
(0.0134579 0.203042 -7.42017e-21)
(0.0155264 0.216107 2.22945e-20)
(0.0176894 0.228759 -1.4924e-20)
(0.0199328 0.240945 -1.49586e-20)
(0.0222428 0.252621 0)
(0.024607 0.263743 0)
(0.0270138 0.274277 -1.50663e-20)
(0.0294516 0.284191 -1.51152e-20)
(0.0319098 0.293459 -1.51179e-20)
(0.0343787 0.302061 0)
(0.0368496 0.309981 0)
(0.0393149 0.31721 -3.03914e-20)
(0.0417678 0.32374 -8.28654e-23)
(0.0442028 0.329569 1.5218e-20)
(0.0466154 0.334699 -1.51602e-20)
(0.049002 0.339132 -1.52399e-20)
(0.0513596 0.342872 1.52e-20)
(0.0536856 0.345924 0)
(0.0559795 0.348291 1.51947e-20)
(0.0582463 0.349972 -3.03073e-20)
(0.0604439 0.350999 3.02438e-20)
(0.0624656 0.351413 -3.47767e-20)
(0.000244215 -0.00253317 -5.61634e-21)
(0.000331242 -0.00283539 9.1833e-21)
(0.00013313 0.000854113 -1.25383e-20)
(-0.000244451 0.00738992 0)
(-0.000703931 0.016009 -1.63145e-20)
(-0.00116864 0.0261858 -9.9563e-21)
(-0.00157598 0.0375313 1.34778e-20)
(-0.00187548 0.0497519 0)
(-0.00203168 0.0626223 -2.07412e-20)
(-0.00202241 0.0759686 -6.98988e-21)
(-0.00183298 0.0896527 -7.05108e-21)
(-0.00145565 0.103562 1.42416e-20)
(-0.000889062 0.117602 -1.43431e-20)
(-0.000136309 0.131687 7.21445e-21)
(0.000797212 0.145742 0)
(0.00190325 0.159697 2.19284e-20)
(0.00317101 0.173485 7.35355e-21)
(0.00458916 0.187042 -1.47723e-20)
(0.0061461 0.200307 2.96177e-20)
(0.00782923 0.213225 -2.97242e-20)
(0.00962523 0.22574 2.97871e-20)
(0.0115211 0.237803 1.49586e-20)
(0.0135044 0.249368 0)
(0.0155636 0.260394 1.50619e-20)
(0.0176877 0.270845 4.38087e-23)
(0.0198654 0.280689 0)
(0.0220867 0.2899 1.51179e-20)
(0.0243418 0.298458 -1.51642e-20)
(0.0266219 0.306346 1.51012e-20)
(0.0289191 0.313553 3.03584e-20)
(0.0312264 0.320072 -3.03174e-20)
(0.0335376 0.325901 3.03027e-20)
(0.0358469 0.331038 0)
(0.0381497 0.335486 0)
(0.0404417 0.33925 3.02936e-20)
(0.0427186 0.342332 0)
(0.0449784 0.344737 0)
(0.0472236 0.346467 -3.02021e-20)
(0.0494009 0.347553 3.00635e-20)
(0.0514078 0.348044 1.7371e-20)
(0.000279245 -0.00253222 2.81019e-21)
(0.000287206 -0.00285658 0)
(-0.000139823 0.000791518 2.50845e-20)
(-0.000829521 0.00726114 3.20206e-21)
(-0.00165986 0.0157866 3.26338e-21)
(-0.00253362 0.0258449 1.99153e-20)
(-0.00337493 0.0370497 2.69579e-20)
(-0.00412457 0.0491106 0)
(-0.00474016 0.0618059 6.91545e-21)
(-0.00519409 0.074965 2.0967e-20)
(-0.005468 0.0884534 2.82219e-20)
(-0.00555131 0.102162 -7.12103e-21)
(-0.0054401 0.115998 -2.15185e-20)
(-0.00513515 0.12988 0)
(-0.00464006 0.143734 2.90591e-20)
(-0.00396163 0.157493 0)
(-0.00310897 0.171091 4.40625e-20)
(-0.00209177 0.184467 -1.47246e-20)
(-0.000920335 0.197561 0)
(0.000393744 0.210319 -1.48823e-20)
(0.00183829 0.222686 -3.10021e-23)
(0.00340152 0.234613 -1.49059e-20)
(0.00507215 0.246055 -1.49502e-20)
(0.00683927 0.256971 1.50472e-20)
(0.00869233 0.267325 -1.50079e-20)
(0.0106208 0.277087 0)
(0.0126147 0.286228 -1.51221e-20)
(0.0146645 0.294729 1.50645e-20)
(0.0167612 0.302573 0)
(0.0188969 0.309747 0)
(0.0210639 0.316245 0)
(0.0232552 0.322063 -3.03279e-20)
(0.0254641 0.327199 3.01678e-20)
(0.0276849 0.331656 0)
(0.0299117 0.335437 -1.51238e-20)
(0.0321386 0.338546 0)
(0.0343619 0.340989 3.01966e-20)
(0.0365814 0.342767 -1.49415e-20)
(0.0387332 0.343917 -3.00824e-20)
(0.0407185 0.344489 3.4491e-20)
(0.00031172 -0.00251013 1.96808e-20)
(0.000238625 -0.00282617 -2.75654e-20)
(-0.000416006 0.000798136 -4.70366e-20)
(-0.00141309 0.00721074 -2.5622e-20)
(-0.00260599 0.0156473 -6.52726e-21)
(-0.00387819 0.0255883 -1.32754e-20)
(-0.00514064 0.0366505 -6.0657e-20)
(-0.00632504 0.0485482 -2.04937e-20)
(-0.00738299 0.0610636 -3.45693e-20)
(-0.00828221 0.0740299 -3.49438e-20)
(-0.00900065 0.0873161 -4.93939e-20)
(-0.00952487 0.100816 -2.84678e-20)
(-0.00984888 0.114441 -2.62688e-24)
(-0.00997167 0.12811 -2.88835e-20)
(-0.00989501 0.141755 -2.9059e-20)
(-0.00962409 0.155308 -4.38448e-20)
(-0.00916667 0.168707 2.93598e-20)
(-0.00853122 0.181892 -1.47228e-20)
(-0.00772683 0.194805 0)
(-0.00676394 0.207391 2.96994e-20)
(-0.00565366 0.219597 0)
(-0.0044067 0.231377 5.97483e-20)
(-0.00303341 0.242684 0)
(-0.00154395 0.253479 -1.50343e-20)
(5.16228e-05 0.263726 1.50743e-20)
(0.00174324 0.273392 -3.00306e-20)
(0.00352114 0.282453 0)
(0.00537587 0.290886 -3.02306e-20)
(0.00729846 0.298674 3.0105e-20)
(0.00928072 0.305806 0)
(0.0113146 0.312273 0)
(0.0133921 0.318071 0)
(0.0155057 0.323199 -3.01324e-20)
(0.0176482 0.327658 0)
(0.0198124 0.331452 -3.01828e-20)
(0.0219904 0.334585 6.01455e-20)
(0.0241767 0.337065 -6.00489e-20)
(0.0263684 0.338894 2.97866e-20)
(0.0284918 0.340112 5.98044e-20)
(0.0304507 0.340773 -3.43875e-20)
(0.000340085 -0.00246584 -2.53035e-20)
(0.000182425 -0.0027443 -4.70497e-24)
(-0.000698256 0.000873034 2.5088e-20)
(-0.00199755 0.00723825 5.12471e-20)
(-0.00354443 0.0155899 -6.52797e-21)
(-0.00520324 0.0254135 -2.65592e-20)
(-0.00687241 0.0363314 2.69585e-20)
(-0.00847529 0.0480626 4.09905e-20)
(-0.00995773 0.0603935 1.38269e-20)
(-0.0112828 0.0731613 3.49467e-20)
(-0.0124254 0.0862391 2.82247e-20)
(-0.0133697 0.0995242 4.26954e-20)
(-0.0141078 0.112929 8.6068e-20)
(-0.0146369 0.126379 4.33404e-20)
(-0.014957 0.139806 0)
(-0.0150723 0.153145 1.45908e-20)
(-0.0149892 0.166335 1.46628e-20)
(-0.014715 0.179319 1.47213e-20)
(-0.0142576 0.19204 2.95988e-20)
(-0.0136267 0.204445 -1.48279e-20)
(-0.0128322 0.216481 0)
(-0.0118836 0.228103 -9.80776e-24)
(-0.0107907 0.239265 -2.9922e-20)
(-0.00956289 0.249927 2.9976e-20)
(-0.00820977 0.260055 6.00632e-20)
(-0.00674094 0.269616 6.01903e-20)
(-0.00516601 0.278585 5.09784e-23)
(-0.00349428 0.286939 3.00999e-20)
(-0.00173464 0.294662 3.01092e-20)
(0.000104407 0.301741 -3.01099e-20)
(0.00201423 0.308169 3.01023e-20)
(0.00398598 0.31394 3.00863e-20)
(0.00601109 0.319053 6.0194e-20)
(0.00808131 0.323509 -1.05075e-22)
(0.0101876 0.327312 9.00399e-20)
(0.01232 0.330469 2.01983e-23)
(0.0144712 0.332986 -2.98767e-20)
(0.0166355 0.33487 -2.9916e-20)
(0.0187297 0.336162 2.97337e-20)
(0.0206596 0.33692 3.42808e-20)
(0.000363219 -0.00240033 2.25044e-20)
(0.000116192 -0.00261269 3.06341e-20)
(-0.000989227 0.00101398 1.88219e-20)
(-0.00258509 0.00734003 -1.92187e-20)
(-0.00447647 0.0156101 -3.26456e-20)
(-0.00650917 0.0253168 2.65583e-20)
(-0.00856967 0.0360886 0)
(-0.0105734 0.0476496 2.73339e-20)
(-0.012461 0.0597914 0)
(-0.0141914 0.0723558 -5.59244e-20)
(-0.0157365 0.0852196 1.41239e-20)
(-0.0170787 0.098283 -7.11804e-20)
(-0.0182084 0.111463 -2.86911e-20)
(-0.0191209 0.124686 1.44645e-20)
(-0.0198151 0.137886 2.93519e-23)
(-0.020294 0.151003 -1.45951e-20)
(-0.0205628 0.163977 -2.93604e-20)
(-0.0206278 0.176751 -5.8974e-20)
(-0.0204962 0.189271 0)
(-0.0201765 0.201485 4.90057e-23)
(-0.0196777 0.213342 -2.97298e-20)
(-0.0190083 0.224796 -2.98578e-20)
(-0.0181773 0.235803 2.9922e-20)
(-0.0171935 0.246323 -3.00425e-20)
(-0.0160662 0.256322 3.0001e-20)
(-0.0148045 0.265768 -6.00358e-20)
(-0.0134177 0.274635 4.92501e-23)
(-0.0119151 0.282902 -6.01163e-20)
(-0.0103055 0.29055 -3.01092e-20)
(-0.00859765 0.297569 -4.16658e-23)
(-0.0068009 0.303949 -9.43281e-23)
(-0.00492482 0.309686 -3.00863e-20)
(-0.00297897 0.314778 -3.00616e-20)
(-0.000973012 0.319227 -7.49619e-23)
(0.00108229 0.323038 -2.9986e-20)
(0.00317492 0.326217 -8.93961e-23)
(0.00529539 0.328774 -2.98961e-20)
(0.00743508 0.330717 8.91052e-20)
(0.00950232 0.332089 -2.97338e-20)
(0.0114034 0.332953 -3.43068e-20)
(0.000380144 -0.00231413 -2.25035e-20)
(3.79456e-05 -0.00243332 6.12912e-21)
(-0.00129124 0.00121757 -1.88218e-20)
(-0.00317776 0.00751217 -6.40823e-21)
(-0.00540327 0.0157038 2.61164e-20)
(-0.00779601 0.0252934 -6.64153e-21)
(-0.0102314 0.0359168 6.74166e-21)
(-0.0126174 0.0473044 -4.1005e-20)
(-0.0148894 0.0592532 1.38306e-20)
(-0.017003 0.0716094 2.79648e-20)
(-0.0189279 0.0842537 0)
(-0.0206446 0.09709 5.69649e-20)
(-0.0221418 0.110038 0)
(-0.0234135 0.123027 -5.77942e-20)
(-0.0244576 0.135996 -2.90757e-20)
(-0.0252761 0.148883 0)
(-0.0258731 0.161633 0)
(-0.026254 0.17419 5.89823e-20)
(-0.0264254 0.186502 2.96456e-20)
(-0.0263948 0.198516 -5.93939e-20)
(-0.0261701 0.210185 2.97293e-20)
(-0.0257591 0.221463 0)
(-0.02517 0.232306 -2.99629e-20)
(-0.0244112 0.242675 5.98999e-20)
(-0.0234914 0.252537 -2.99342e-20)
(-0.0224194 0.261859 -3.00811e-20)
(-0.0212043 0.270616 2.99776e-20)
(-0.0198551 0.278786 0)
(-0.0183807 0.286352 6.01412e-20)
(-0.0167903 0.293303 -2.99765e-20)
(-0.0150935 0.299628 -3.00845e-20)
(-0.0133009 0.305325 -1.24359e-22)
(-0.011423 0.310392 1.1987e-19)
(-0.00947087 0.31483 -8.96648e-20)
(-0.00745708 0.318647 0)
(-0.00539584 0.321849 -2.98461e-20)
(-0.00329902 0.324448 -5.95738e-20)
(-0.00117819 0.326456 2.94945e-20)
(0.000867348 0.327916 2.9513e-20)
(0.00274281 0.328898 0)
(0.00038983 -0.00220796 -4.50302e-20)
(-5.43977e-05 -0.00220879 -6.13023e-21)
(-0.00160639 0.00148024 5.02037e-20)
(-0.003777 0.00775045 -5.12705e-20)
(-0.00632568 0.015866 0)
(-0.00906387 0.0253379 0)
(-0.0118564 0.035811 -1.34889e-20)
(-0.0146044 0.047022 -5.69606e-24)
(-0.0172391 0.0587739 1.38333e-20)
(-0.0197129 0.0709176 0)
(-0.0219932 0.0833379 0)
(-0.0240595 0.095942 -1.42311e-20)
(-0.0258989 0.108653 2.16932e-23)
(-0.0275043 0.121404 1.44601e-20)
(-0.0288727 0.134134 2.90756e-20)
(-0.0300052 0.146786 0)
(-0.0309052 0.159305 2.94126e-20)
(-0.0315775 0.171638 -2.94133e-20)
(-0.0320276 0.183734 -5.92134e-20)
(-0.0322624 0.195543 5.94008e-20)
(-0.0322888 0.207017 9.74237e-23)
(-0.0321138 0.21811 -2.97965e-20)
(-0.0317451 0.228782 2.99552e-20)
(-0.0311905 0.238993 -5.9841e-20)
(-0.0304584 0.248709 0)
(-0.0295571 0.257899 3.00594e-20)
(-0.0284954 0.266539 -6.00294e-20)
(-0.0272822 0.274605 2.99588e-20)
(-0.0259264 0.282082 -3.00302e-20)
(-0.0244375 0.288957 -3.00564e-20)
(-0.0228258 0.295223 -3.01502e-20)
(-0.0211023 0.300874 1.19756e-19)
(-0.0192787 0.305912 -8.96073e-20)
(-0.0173675 0.310337 -5.98022e-20)
(-0.0153831 0.314159 5.94601e-20)
(-0.0133421 0.317385 0)
(-0.0112588 0.32003 5.93788e-20)
(-0.00914795 0.322109 -5.90072e-20)
(-0.00711537 0.323666 -2.95131e-20)
(-0.00525882 0.324776 0)
(0.00039142 -0.00208299 9.56942e-20)
(-0.000162441 -0.00194173 4.29093e-20)
(-0.00193638 0.00179817 -5.02034e-20)
(-0.00438436 0.00804993 4.48612e-20)
(-0.00724442 0.0160911 -6.53162e-21)
(-0.0103122 0.0254449 1.32855e-20)
(-0.0134432 0.0357654 0)
(-0.0165321 0.0467968 -1.36769e-20)
(-0.0195064 0.0583483 1.38363e-20)
(-0.0223156 0.0702757 1.39979e-20)
(-0.0249261 0.0824679 -1.41204e-20)
(-0.0273156 0.0948356 -1.426e-20)
(-0.0294704 0.107305 1.43496e-20)
(-0.0313825 0.119813 0)
(-0.0330483 0.1323 0)
(-0.034468 0.144711 -2.92799e-20)
(-0.0356445 0.156995 2.93492e-20)
(-0.0365818 0.169099 -2.95475e-20)
(-0.037285 0.180973 2.95718e-20)
(-0.0377599 0.19257 2.97516e-20)
(-0.0380127 0.203842 -5.9568e-20)
(-0.0380499 0.214746 5.96961e-20)
(-0.0378785 0.22524 1.02188e-22)
(-0.0375059 0.235285 -2.98864e-20)
(-0.0369398 0.24485 0)
(-0.0361884 0.253902 3.0041e-20)
(-0.0352603 0.262417 1.11868e-22)
(-0.0341639 0.270373 -2.99349e-20)
(-0.0329082 0.277755 0)
(-0.0315031 0.28455 6.0027e-20)
(-0.0299591 0.29075 -5.97412e-20)
(-0.0282882 0.296352 0)
(-0.026503 0.301356 5.97795e-20)
(-0.0246173 0.305766 -5.94502e-20)
(-0.0226475 0.309592 0)
(-0.0206124 0.312844 0)
(-0.0185294 0.31554 0)
(-0.0164161 0.317695 -5.89962e-20)
(-0.014384 0.31936 5.86181e-20)
(-0.0125359 0.320612 6.79191e-20)
(0.000384113 -0.00194026 -4.50371e-20)
(-0.000287826 -0.001635 -4.90402e-20)
(-0.00228284 0.00216699 -6.27579e-21)
(-0.00500084 0.00840536 1.92298e-20)
(-0.00815979 0.0163736 -2.61297e-20)
(-0.0115407 0.0256082 2.65768e-20)
(-0.0149901 0.0357739 -2.69839e-20)
(-0.0183977 0.0466228 -4.10366e-20)
(-0.0216872 0.0579707 0)
(-0.0248063 0.0696785 -1.40022e-20)
(-0.0277199 0.0816391 1.41248e-20)
(-0.0304052 0.093767 0)
(-0.0328473 0.105992 2.87542e-20)
(-0.0350377 0.118252 -2.89032e-20)
(-0.0369723 0.130493 -8.73495e-20)
(-0.0386509 0.14266 -6.52261e-23)
(-0.0400759 0.154704 5.87945e-20)
(-0.0412506 0.166574 -2.94795e-20)
(-0.0421795 0.178223 0)
(-0.0428677 0.189602 0)
(-0.0433208 0.200668 5.95868e-20)
(-0.0435448 0.211377 2.98991e-20)
(-0.043546 0.221687 -2.98501e-20)
(-0.0433312 0.231563 -2.9986e-20)
(-0.042908 0.24097 5.99193e-20)
(-0.0422842 0.249879 -2.99202e-20)
(-0.0414678 0.258264 6.0057e-20)
(-0.0404671 0.266105 -1.19869e-19)
(-0.0392911 0.273386 1.19796e-19)
(-0.0379499 0.280095 -1.19684e-19)
(-0.0364546 0.286226 1.19533e-19)
(-0.0348174 0.291774 -1.19343e-19)
(-0.0330521 0.296742 5.9458e-20)
(-0.0311738 0.301137 5.95204e-20)
(-0.0292009 0.304966 1.85289e-22)
(-0.0271545 0.308246 1.7816e-22)
(-0.0250549 0.310996 -5.88314e-20)
(-0.0229232 0.313236 1.71577e-22)
(-0.020875 0.315018 -5.84175e-20)
(-0.0190209 0.316425 0)
(0.00036721 -0.00178113 5.63083e-21)
(-0.000431819 -0.00129192 -6.13019e-21)
(-0.00264705 0.00258217 1.88296e-20)
(-0.0056274 0.00881125 -2.56423e-20)
(-0.00907201 0.0167071 1.3066e-20)
(-0.0127485 0.0258213 0)
(-0.0164956 0.0358298 0)
(-0.0201984 0.0464936 5.47099e-20)
(-0.0237777 0.057635 6.9248e-20)
(-0.0271797 0.0691202 -1.39934e-20)
(-0.0303685 0.0808466 7.07046e-20)
(-0.0333205 0.0927321 -1.42517e-20)
(-0.0360204 0.10471 0)
(-0.0384593 0.116721 0)
(-0.040633 0.128712 5.8217e-20)
(-0.0425408 0.140632 0)
(-0.0441847 0.152432 2.9387e-20)
(-0.0455676 0.164066 -2.95828e-20)
(-0.0466932 0.175485 0)
(-0.0475664 0.186645 -5.94604e-20)
(-0.0481921 0.197501 -2.97437e-20)
(-0.0485758 0.208011 -8.95308e-20)
(-0.0487231 0.218134 -2.99495e-20)
(-0.0486406 0.227836 2.98853e-20)
(-0.0483353 0.237081 5.99055e-20)
(-0.0478148 0.245842 0)
(-0.0470865 0.254094 5.99078e-20)
(-0.0461586 0.261815 1.19868e-19)
(-0.04504 0.268992 2.00043e-22)
(-0.0437409 0.275612 -5.96761e-20)
(-0.0422727 0.281669 -5.97831e-20)
(-0.0406482 0.287161 5.94823e-20)
(-0.0388818 0.292091 5.95398e-20)
(-0.0369902 0.296467 -1.186e-19)
(-0.0349934 0.300301 1.18265e-19)
(-0.0329151 0.30361 -5.90204e-20)
(-0.0307788 0.306418 5.86679e-20)
(-0.0286088 0.308749 1.1706e-19)
(-0.0265239 0.310659 5.81907e-20)
(-0.0246452 0.312236 6.71599e-20)
(0.000340067 -0.00160693 -4.50504e-20)
(-0.000595628 -0.000915837 4.29181e-20)
(-0.00303009 0.00303876 -3.76606e-20)
(-0.00626464 0.00926166 3.84653e-20)
(-0.00998102 0.0170853 6.53371e-20)
(-0.0139348 0.0260775 -5.31689e-20)
(-0.0179579 0.0359263 6.74869e-20)
(-0.0219314 0.0464022 4.1054e-20)
(-0.0257741 0.0573346 -9.69477e-20)
(-0.0294309 0.0685949 2.80149e-20)
(-0.0328656 0.0800849 1.41549e-20)
(-0.0360541 0.0917263 2.85545e-20)
(-0.038981 0.103455 2.87905e-20)
(-0.0416374 0.115215 -5.79217e-20)
(-0.0440189 0.126955 5.82751e-20)
(-0.0461247 0.138626 8.79089e-20)
(-0.0479564 0.150182 -8.82234e-20)
(-0.0495166 0.161577 1.18181e-19)
(-0.0508087 0.172765 5.93125e-20)
(-0.0518368 0.183703 8.92396e-20)
(-0.0526058 0.194347 2.98629e-20)
(-0.0531203 0.204655 5.97204e-20)
(-0.0533857 0.214589 -5.98193e-20)
(-0.053408 0.224114 0)
(-0.053194 0.233196 -1.79806e-19)
(-0.0527506 0.241806 1.19822e-19)
(-0.0520851 0.249921 -5.97172e-20)
(-0.051205 0.25752 -5.96854e-20)
(-0.0501195 0.264589 7.2982e-23)
(-0.0488386 0.271116 0)
(-0.0473739 0.277097 0)
(-0.0457386 0.28253 5.94486e-20)
(-0.0439478 0.28742 -5.94286e-20)
(-0.0420194 0.291777 5.91011e-20)
(-0.039975 0.295615 -5.90741e-20)
(-0.0378409 0.298955 -5.88754e-20)
(-0.035644 0.301824 0)
(-0.0334122 0.304253 -5.82882e-20)
(-0.0312659 0.306301 -5.80723e-20)
(-0.0293398 0.308063 -2.01247e-19)
(0.000302159 -0.00141911 4.50542e-20)
(-0.000780214 -0.000510365 -4.29129e-20)
(-0.00343284 0.00353171 5.0215e-20)
(-0.006913 0.00975055 -8.97523e-20)
(-0.0108866 0.0175014 -6.53376e-20)
(-0.0150986 0.0263694 5.31688e-20)
(-0.0193751 0.0360561 -1.07983e-19)
(-0.0235941 0.0463416 -5.47325e-20)
(-0.0276726 0.0570626 6.92701e-20)
(-0.0315553 0.0680961 -1.26066e-19)
(-0.0352053 0.0793483 -8.48931e-20)
(-0.0385989 0.0907445 -2.85766e-20)
(-0.0417208 0.102224 -8.63179e-20)
(-0.0445622 0.113732 8.68646e-20)
(-0.0471189 0.12522 -5.82751e-20)
(-0.0493901 0.136643 -5.85885e-20)
(-0.0513772 0.147954 0)
(-0.0530824 0.159109 -5.91057e-20)
(-0.0545088 0.170066 -8.9017e-20)
(-0.0556604 0.180781 2.97085e-20)
(-0.0565414 0.191212 -5.96272e-20)
(-0.0571563 0.201318 0)
(-0.0575099 0.211062 5.98193e-20)
(-0.0576079 0.220408 5.99676e-20)
(-0.0574565 0.229325 -5.98121e-20)
(-0.0570624 0.237783 0)
(-0.0564321 0.245759 0)
(-0.0555731 0.253235 0)
(-0.0544943 0.260194 -4.05005e-23)
(-0.0532056 0.266627 0)
(-0.0517186 0.27253 -1.19138e-19)
(-0.0500467 0.277902 -1.23083e-22)
(-0.0482056 0.28275 -1.18526e-19)
(-0.0462142 0.287086 1.18136e-19)
(-0.0440958 0.290927 -5.88017e-20)
(-0.0418788 0.294299 5.87262e-20)
(-0.0395942 0.297233 0)
(-0.0372733 0.299765 1.16476e-19)
(-0.0350368 0.301962 -5.78462e-20)
(-0.0330365 0.303924 0)
(0.000253024 -0.00121918 5.63182e-21)
(-0.000986344 -7.92489e-05 0)
(-0.0038559 0.00405579 -6.27658e-20)
(-0.00757272 0.0102717 7.69326e-20)
(-0.0117885 0.0179483 3.92061e-20)
(-0.0162391 0.0266899 -5.31773e-20)
(-0.0207456 0.0362116 5.39953e-20)
(-0.0251838 0.0463041 -5.4753e-20)
(-0.0294699 0.0568117 0)
(-0.0335482 0.067617 5.60412e-20)
(-0.0373822 0.0786306 -5.66203e-20)
(-0.0409484 0.0897814 -2.38729e-23)
(-0.044232 0.101011 0)
(-0.0472247 0.112268 5.79817e-20)
(-0.0499227 0.123506 -2.91467e-20)
(-0.0523253 0.134679 5.8722e-20)
(-0.0544337 0.145746 2.95099e-20)
(-0.05625 0.156664 -5.91723e-20)
(-0.0577772 0.16739 0)
(-0.0590189 0.177883 8.93507e-20)
(-0.0599794 0.188101 2.98888e-20)
(-0.0606624 0.198006 0)
(-0.0610726 0.20756 0)
(-0.0612152 0.216729 0)
(-0.0610961 0.22548 5.99033e-20)
(-0.0607212 0.233787 0)
(-0.0600969 0.241625 -5.99429e-20)
(-0.0592302 0.248976 1.19596e-19)
(-0.0581296 0.255825 -1.19366e-19)
(-0.056805 0.262163 0)
(-0.0552677 0.267986 5.95121e-20)
(-0.0535312 0.273295 -5.92935e-20)
(-0.0516116 0.2781 5.92029e-20)
(-0.0495286 0.282414 0)
(-0.0473067 0.286258 0)
(-0.0449769 0.289662 5.85681e-20)
(-0.0425741 0.292662 -5.82111e-20)
(-0.0401333 0.295301 1.16079e-19)
(-0.0377744 0.297656 -1.15335e-19)
(-0.0356692 0.299833 0)
(0.000192289 -0.00100862 3.94259e-20)
(-0.00121461 0.00037375 1.22655e-20)
(-0.00429968 0.0046057 5.02126e-20)
(-0.00824382 0.0108187 5.12844e-20)
(-0.0126862 0.0184191 -5.22739e-20)
(-0.0173549 0.0270312 5.31773e-20)
(-0.0220675 0.0363851 5.40069e-20)
(-0.0266981 0.0462821 5.4753e-20)
(-0.0311626 0.0565743 0)
(-0.0354055 0.0671503 5.60745e-20)
(-0.0393909 0.077925 5.66203e-20)
(-0.0430963 0.0888308 5.71259e-20)
(-0.0465073 0.0998117 0)
(-0.0496166 0.110819 3.07575e-23)
(-0.0524207 0.121808 5.83397e-20)
(-0.0549193 0.132735 -2.92849e-20)
(-0.0571136 0.14356 -2.94047e-20)
(-0.0590056 0.154242 8.88055e-20)
(-0.0605984 0.16474 7.85846e-23)
(-0.0618956 0.175013 -2.97077e-20)
(-0.062901 0.185021 -5.96797e-20)
(-0.0636182 0.194726 0)
(-0.0640515 0.204093 0)
(-0.0642059 0.213086 0)
(-0.0640866 0.221674 0)
(-0.0636992 0.22983 0)
(-0.0630495 0.237532 0)
(-0.0621442 0.24476 5.98531e-20)
(-0.0609915 0.251499 -5.96044e-20)
(-0.0596008 0.257742 0)
(-0.0579832 0.263485 0)
(-0.0561518 0.268732 5.92933e-20)
(-0.0541231 0.273492 0)
(-0.0519174 0.277782 5.89151e-20)
(-0.0495604 0.281628 -5.85779e-20)
(-0.0470852 0.285063 0)
(-0.0445309 0.288129 1.16311e-19)
(-0.0419365 0.290879 -1.15583e-19)
(-0.0394195 0.2934 0)
(-0.0371758 0.295806 0)
(0.000119668 -0.000788964 -4.50529e-20)
(-0.00146541 0.000844818 -1.22585e-20)
(-0.0047644 0.00517615 1.25523e-20)
(-0.00892617 0.0113853 -5.12844e-20)
(-0.0135791 0.0189066 0)
(-0.0184452 0.027386 0)
(-0.0233392 0.0365687 -4.04999e-20)
(-0.0281346 0.0462676 -1.36866e-20)
(-0.0327476 0.0563426 -2.77436e-20)
(-0.0371234 0.0666885 -2.80494e-20)
(-0.0412271 0.0772244 -2.83468e-20)
(-0.0450371 0.0878861 2.85585e-20)
(-0.0485404 0.0986202 2.8796e-20)
(-0.0517304 0.10938 -2.90261e-20)
(-0.0546042 0.120122 0)
(-0.0571621 0.130807 0)
(-0.0594055 0.141393 -5.89685e-20)
(-0.0613367 0.151843 0)
(-0.0629585 0.162116 0)
(-0.0642747 0.172173 5.97075e-20)
(-0.0652889 0.181975 1.6161e-22)
(-0.0660047 0.191485 9.56023e-23)
(-0.0664259 0.200667 -5.99656e-20)
(-0.0665572 0.209488 5.98371e-20)
(-0.0664035 0.217917 5.99257e-20)
(-0.0659697 0.225926 -5.98947e-20)
(-0.0652614 0.233494 0)
(-0.0642848 0.240601 5.98288e-20)
(-0.0630475 0.247234 1.39805e-22)
(-0.0615585 0.253383 -5.9453e-20)
(-0.0598283 0.259048 0)
(-0.0578699 0.264232 0)
(-0.0556996 0.268947 5.90393e-20)
(-0.0533381 0.273212 -5.87139e-20)
(-0.050812 0.277058 -5.85614e-20)
(-0.0481564 0.280521 5.82149e-20)
(-0.045415 0.283653 0)
(-0.0426308 0.286513 0)
(-0.0399177 0.289206 0)
(-0.0374993 0.291853 -6.58272e-20)
(3.49674e-05 -0.000561723 5.63017e-20)
(-0.00173891 0.00133012 -2.45201e-20)
(-0.00525005 0.00576184 1.25506e-20)
(-0.00961944 0.0119651 0)
(-0.0144664 0.0194038 6.53357e-20)
(-0.0195087 0.0277464 6.39605e-24)
(-0.024559 0.0367544 5.40218e-20)
(-0.0294912 0.0462523 -4.10879e-20)
(-0.0342223 0.0561084 5.54695e-20)
(-0.0386986 0.0662235 -2.80316e-20)
(-0.0428866 0.0765211 0)
(-0.0467662 0.0869402 2.86176e-20)
(-0.0503256 0.0974298 -8.64303e-20)
(-0.0535594 0.107945 0)
(-0.0564657 0.118445 8.76845e-20)
(-0.0590451 0.128891 -5.8694e-20)
(-0.0612996 0.139244 -5.90245e-20)
(-0.0632318 0.149466 2.95942e-20)
(-0.0648447 0.159519 0)
(-0.066142 0.169365 -5.96107e-20)
(-0.0671275 0.178966 -5.98355e-20)
(-0.0678044 0.188286 -6.54642e-23)
(-0.0681766 0.19729 5.99217e-20)
(-0.0682483 0.205944 6.00117e-20)
(-0.068024 0.214218 -1.19781e-19)
(-0.0675083 0.222086 5.98946e-20)
(-0.0667062 0.229525 0)
(-0.0656235 0.236516 -5.97355e-20)
(-0.0642672 0.243045 5.96136e-20)
(-0.0626457 0.249105 5.94662e-20)
(-0.060769 0.254693 -5.92936e-20)
(-0.0586496 0.259816 5.90963e-20)
(-0.0563034 0.264486 0)
(-0.0537513 0.268726 5.87121e-20)
(-0.0510205 0.272568 1.16884e-19)
(-0.048148 0.276058 -1.16204e-19)
(-0.0451819 0.279251 1.15722e-19)
(-0.0421701 0.282221 8.46769e-23)
(-0.0392211 0.285089 -5.72326e-20)
(-0.0365897 0.287989 1.31293e-19)
(-6.19217e-05 -0.000328421 -3.379e-20)
(-0.00203512 0.0018259 -7.35324e-20)
(-0.00575645 0.00635755 5.01869e-20)
(-0.0103232 0.0125517 -3.84474e-20)
(-0.0153476 0.0199034 -1.30756e-20)
(-0.0205442 0.0281048 1.32911e-20)
(-0.0257254 0.0369342 -2.69946e-20)
(-0.0307658 0.0462281 -2.73774e-20)
(-0.035584 0.0558634 2.77558e-20)
(-0.040128 0.0657472 -5.61138e-20)
(-0.0443658 0.0758072 -4.49847e-23)
(-0.0482792 0.0859855 2.8579e-20)
(-0.051858 0.0962335 0)
(-0.0550981 0.106508 -2.90754e-20)
(-0.0579985 0.11677 -2.92434e-20)
(-0.0605607 0.126982 5.87618e-20)
(-0.0627874 0.137107 0)
(-0.0646813 0.147108 0)
(-0.066246 0.156948 5.95767e-20)
(-0.0674853 0.16659 -5.95846e-20)
(-0.0684028 0.175997 0)
(-0.0690021 0.185134 5.99554e-20)
(-0.0692867 0.193966 -5.97699e-20)
(-0.0692606 0.20246 -1.19908e-19)
(-0.0689279 0.210587 -1.427e-22)
(-0.0682928 0.21832 5.98949e-20)
(-0.0673599 0.225637 -1.1959e-19)
(-0.0661346 0.232518 5.97352e-20)
(-0.0646233 0.23895 -5.96134e-20)
(-0.0628335 0.244925 3.50767e-23)
(-0.0607746 0.250441 7.5775e-23)
(-0.0584586 0.255505 -5.9096e-20)
(-0.0559009 0.260131 -5.88042e-20)
(-0.0531221 0.264344 -5.85465e-20)
(-0.0501498 0.268182 -9.74475e-23)
(-0.0470228 0.271694 0)
(-0.0437936 0.274944 -5.76465e-20)
(-0.0405151 0.278019 1.14779e-19)
(-0.0372897 0.281063 -1.71154e-19)
(-0.0344063 0.284223 3.62963e-24)
(-0.000171024 -9.05511e-05 -1.12585e-20)
(-0.0023539 0.00232852 9.80208e-20)
(-0.00628324 0.00695822 -5.01867e-20)
(-0.0110367 0.0131391 3.8448e-20)
(-0.0162214 0.0203987 -1.04515e-19)
(-0.0215505 0.0284539 1.32895e-20)
(-0.0268367 0.0371002 -5.40109e-20)
(-0.0319566 0.0461868 0)
(-0.0368306 0.0555994 0)
(-0.0414089 0.0652512 -5.61283e-20)
(-0.0456617 0.0750745 2.83764e-20)
(-0.0495727 0.0850142 7.22721e-24)
(-0.0531336 0.0950239 2.88208e-20)
(-0.0563417 0.105062 0)
(-0.0591974 0.115092 -8.77817e-20)
(-0.061703 0.125077 2.93726e-20)
(-0.0638618 0.13498 -5.91122e-20)
(-0.0656773 0.144767 0)
(-0.0671535 0.154401 0)
(-0.0682944 0.163847 5.99649e-23)
(-0.0691037 0.173068 -5.97437e-20)
(-0.0695851 0.18203 5.99229e-20)
(-0.0697421 0.190698 -6.00316e-20)
(-0.0695785 0.199042 5.99029e-20)
(-0.069098 0.20703 5.90787e-23)
(-0.0683046 0.214637 6.32057e-23)
(-0.0672024 0.22184 5.98279e-20)
(-0.0657963 0.228619 -5.97126e-20)
(-0.0640922 0.234961 0)
(-0.0620969 0.240858 -5.94627e-20)
(-0.059819 0.246308 5.91794e-20)
(-0.0572697 0.251317 0)
(-0.0544638 0.255902 5.88038e-20)
(-0.0514214 0.26009 -5.85131e-20)
(-0.0481704 0.263921 5.81228e-20)
(-0.0447507 0.26745 0)
(-0.0412198 0.270752 1.72832e-19)
(-0.0376355 0.273926 -1.14465e-19)
(-0.0340934 0.277142 0)
(-0.0309191 0.280567 6.51485e-20)
(-0.000292292 0.000150458 9.00342e-20)
(-0.00269494 0.00283453 -4.90047e-20)
(-0.00682993 0.007559 -1.25425e-20)
(-0.0117594 0.0137213 1.28114e-20)
(-0.0170871 0.020883 5.22504e-20)
(-0.0225263 0.0287862 0)
(-0.0278915 0.0372448 5.40111e-20)
(-0.0330617 0.0461204 8.21571e-20)
(-0.03796 0.0553081 2.77279e-20)
(-0.0425391 0.0647273 2.80388e-20)
(-0.0467717 0.0743146 2.83355e-20)
(-0.0506439 0.0840179 -8.58882e-20)
(-0.0541492 0.0937929 2.88315e-20)
(-0.0572868 0.1036 1.16314e-19)
(-0.0600584 0.113403 2.921e-20)
(-0.0624672 0.123167 2.93885e-20)
(-0.0645177 0.132856 5.91123e-20)
(-0.066214 0.142437 0)