/*--------------------------------*- C++ -*----------------------------------*\
  =========                 |
  \\      /  F ield         | OpenFOAM: The Open Source CFD Toolbox
   \\    /   O peration     | Website:  https://openfoam.org
    \\  /    A nd           | Version:  7
     \\/     M anipulation  |
\*---------------------------------------------------------------------------*/
FoamFile
{
    version     2.0;
    format      ascii;
    class       volScalarField;
    location    "0.2";
    object      p;
}
// * * * * * * * * * * * * * * * * * * * * * * * * * * * * * * * * * * * * * //

dimensions      [0 2 -2 0 0 0 0];

internalField   nonuniform List<scalar> 
18000
(
9.51473
9.50502
9.51396
9.54753
9.58473
9.61576
9.63917
9.65732
9.67284
9.68687
9.6997
9.71132
9.72196
9.73215
9.74227
9.75232
9.762
9.77132
9.78043
9.78949
9.79882
9.80893
9.81989
9.83136
9.84301
9.85469
9.86632
9.87781
9.88911
9.90053
9.45214
9.44213
9.45167
9.48647
9.52486
9.55678
9.58087
9.5997
9.61595
9.63055
9.64357
9.6551
9.66554
9.67545
9.68519
9.69472
9.70386
9.71262
9.72113
9.72957
9.73827
9.74765
9.75781
9.76847
9.77928
9.79005
9.8008
9.81142
9.82189
9.83243
9.38868
9.37829
9.38852
9.42473
9.46448
9.49724
9.52197
9.54154
9.5585
9.57358
9.58674
9.59818
9.60844
9.6181
9.62746
9.63649
9.64507
9.65326
9.66118
9.66906
9.6772
9.68592
9.69529
9.70504
9.71491
9.72478
9.73458
9.74433
9.75398
9.76374
9.32435
9.31378
9.32473
9.36244
9.40354
9.43717
9.46275
9.48307
9.50054
9.51597
9.52927
9.54062
9.5507
9.56017
9.56918
9.57772
9.58575
9.59337
9.60072
9.60807
9.61569
9.62375
9.6323
9.64112
9.65
9.6589
9.66776
9.67664
9.68541
9.69441
9.25937
9.24873
9.26057
9.2996
9.34208
9.37686
9.40327
9.42418
9.44212
9.45788
9.47125
9.48252
9.49252
9.50181
9.51045
9.51847
9.52597
9.53308
9.5399
9.54671
9.55379
9.56118
9.56887
9.57675
9.58464
9.59252
9.60047
9.6085
9.61644
9.62464
9.19391
9.18342
9.19612
9.23637
9.28034
9.31632
9.34344
9.3649
9.3833
9.39927
9.41271
9.42407
9.43406
9.44313
9.45137
9.45888
9.46585
9.47244
9.47882
9.4851
9.49155
9.49826
9.50511
9.512
9.51889
9.5258
9.53285
9.54003
9.54716
9.55453
9.12817
9.1178
9.13134
9.173
9.21843
9.25545
9.2833
9.30535
9.32409
9.34026
9.35386
9.36535
9.37532
9.38418
9.39202
9.39904
9.40551
9.41158
9.41745
9.42325
9.42907
9.43501
9.44103
9.44699
9.45287
9.45883
9.46499
9.47133
9.47759
9.48409
9.06222
9.05196
9.06652
9.10951
9.15616
9.19431
9.22305
9.24555
9.26456
9.28105
9.29487
9.30637
9.31623
9.32493
9.33247
9.33899
9.34496
9.35059
9.35592
9.36112
9.36635
9.3716
9.37677
9.38177
9.38668
9.39173
9.397
9.40242
9.40776
9.41335
8.99621
8.98624
9.00171
9.04585
9.09378
9.13304
9.16245
9.18549
9.20504
9.22178
9.2356
9.24715
9.25702
9.2654
9.27256
9.2788
9.28438
9.28945
9.2942
9.29885
9.30351
9.30808
9.3124
9.31647
9.32047
9.3246
9.3289
9.33334
9.33773
9.34242
8.93028
8.92057
8.93694
8.98231
9.03143
9.07155
9.1017
9.12545
9.14541
9.16231
9.17625
9.18783
9.19759
9.20568
9.21254
9.21853
9.22369
9.2282
9.23239
9.23654
9.24063
9.24448
9.24798
9.2512
9.25431
9.25746
9.26075
9.26417
9.2676
9.27141
8.8645
8.85507
8.87233
8.91889
8.96905
9.01001
9.04102
9.06546
9.08573
9.10275
9.11686
9.12843
9.13803
9.14598
9.15259
9.15817
9.16287
9.16692
9.17065
9.17427
9.17772
9.18085
9.18362
9.18604
9.18823
9.19036
9.19259
9.19504
9.19756
9.20048
8.7989
8.78987
8.80801
8.85556
8.9067
8.9486
8.98047
9.00552
9.02619
9.04333
9.05742
9.06898
9.07856
9.08641
9.09269
9.09779
9.10205
9.10573
9.10902
9.11206
9.11485
9.11731
9.11937
9.12099
9.12223
9.12333
9.12459
9.12613
9.12773
9.12972
8.73351
8.72494
8.74402
8.79251
8.84459
8.88743
8.9201
8.94574
8.96681
8.9841
8.99813
9.00967
9.01924
9.02692
9.03283
9.03748
9.04135
9.04465
9.04748
9.04996
9.05212
9.05391
9.05524
9.05603
9.05636
9.05656
9.05693
9.05754
9.05816
9.05919
8.66838
8.66034
8.68038
8.72986
8.78292
8.82662
8.86005
8.88622
8.90757
8.92502
8.93911
8.95065
8.96007
8.96747
8.97305
8.97735
8.98084
8.98371
8.98606
8.988
8.98956
8.99067
8.99126
8.99127
8.99083
8.99021
8.98971
8.98934
8.98893
8.98901
8.60353
8.5961
8.61716
8.66766
8.7217
8.76627
8.80037
8.82699
8.8485
8.86607
8.88035
8.89192
8.90109
8.90813
8.91342
8.91744
8.92056
8.92298
8.92485
8.92626
8.9272
8.92765
8.92756
8.92691
8.92578
8.9244
8.92302
8.92166
8.92023
8.91942
8.539
8.53222
8.55441
8.60595
8.66094
8.70634
8.74106
8.76807
8.7897
8.80733
8.82177
8.83337
8.84229
8.84897
8.85399
8.85776
8.86054
8.86252
8.86389
8.86474
8.86508
8.86493
8.86428
8.86305
8.86128
8.85919
8.85698
8.8547
8.85233
8.85065
8.47483
8.46871
8.49211
8.54476
8.60064
8.6468
8.68207
8.70947
8.73128
8.74892
8.76338
8.77494
8.78366
8.79006
8.79483
8.79836
8.80081
8.80235
8.80319
8.80347
8.80327
8.80262
8.80147
8.7997
8.79736
8.79463
8.7917
8.7886
8.78536
8.78284
8.41103
8.4056
8.43029
8.48413
8.54086
8.58769
8.62346
8.65125
8.6733
8.69095
8.70526
8.71666
8.72524
8.73146
8.73601
8.7393
8.7414
8.74249
8.7428
8.74254
8.74187
8.74078
8.73916
8.73689
8.73403
8.73075
8.72719
8.72338
8.71935
8.71608
8.34766
8.34299
8.36908
8.4241
8.48164
8.52908
8.56533
8.59348
8.61578
8.63344
8.64751
8.65867
8.66711
8.67322
8.6776
8.68061
8.68236
8.683
8.68281
8.68208
8.68097
8.67946
8.67738
8.67464
8.67132
8.66757
8.6635
8.65909
8.6544
8.65053
8.28484
8.28105
8.30863
8.36477
8.42304
8.47105
8.50781
8.53627
8.5587
8.57635
8.5902
8.60108
8.60937
8.61538
8.6196
8.62234
8.62373
8.62396
8.62333
8.62218
8.62066
8.61872
8.6162
8.61304
8.60933
8.60521
8.60076
8.5959
8.59073
8.58642
8.22274
8.21997
8.24908
8.30627
8.36518
8.41372
8.45099
8.47968
8.50212
8.51971
8.53339
8.544
8.55208
8.55796
8.56199
8.56446
8.56553
8.56538
8.56439
8.56289
8.561
8.55865
8.55572
8.55221
8.54821
8.54386
8.53916
8.53403
8.52858
8.52406
8.16153
8.15985
8.1905
8.24867
8.30817
8.35716
8.39487
8.42377
8.44614
8.46361
8.47715
8.48752
8.49533
8.50098
8.50479
8.50701
8.50776
8.5073
8.50604
8.50426
8.50204
8.49929
8.49601
8.49223
8.48807
8.4836
8.47881
8.47361
8.46812
8.46365
8.10135
8.10076
8.13289
8.19204
8.25211
8.30146
8.33947
8.36853
8.39083
8.40815
8.42157
8.43171
8.43919
8.44453
8.44808
8.45003
8.45049
8.44979
8.44832
8.44629
8.44372
8.4406
8.43701
8.43304
8.42879
8.42433
8.41963
8.41459
8.40936
8.40528
8.04227
8.04273
8.07631
8.13643
8.19706
8.24667
8.28478
8.31396
8.33625
8.35345
8.36672
8.37663
8.38377
8.38875
8.39198
8.39362
8.3938
8.39289
8.39123
8.38891
8.38595
8.38246
8.37859
8.37444
8.37016
8.36583
8.36141
8.35681
8.35218
8.34888
7.98433
7.9858
8.02085
8.08193
8.14303
8.1928
8.23087
8.26007
8.28239
8.29951
8.31264
8.32234
8.32914
8.33373
8.33658
8.33786
8.33777
8.33664
8.33471
8.33201
8.32863
8.32476
8.32057
8.31624
8.31196
8.30785
8.30389
8.30001
8.29632
8.29425
7.92751
7.93004
7.96663
8.02863
8.09006
8.1399
8.17783
8.20693
8.22927
8.24636
8.25936
8.26885
8.27532
8.27949
8.28191
8.28281
8.28242
8.28103
8.27873
8.27559
8.27176
8.26745
8.26288
8.2583
8.25398
8.25006
8.24666
8.24371
8.24131
8.24099
7.87187
7.8755
7.91371
7.97659
8.03819
8.08802
8.12579
8.15467
8.17696
8.19404
8.20693
8.21619
8.22231
8.22605
8.22801
8.22851
8.2278
8.22605
8.22333
8.2197
8.21538
8.21057
8.20553
8.20056
8.19597
8.19205
8.18901
8.18691
8.18591
8.18739
7.81746
7.82229
7.86215
7.92584
7.9875
8.03726
8.07485
8.10344
8.12559
8.14264
8.15541
8.16439
8.17012
8.17341
8.17492
8.17501
8.17391
8.17175
8.16856
8.16442
8.15955
8.15417
8.14852
8.14293
8.13779
8.13345
8.13026
8.12837
8.12778
8.12895
7.76441
7.7705
7.81196
7.8764
7.93806
7.98769
8.0251
8.05335
8.07527
8.09225
8.10484
8.11345
8.11876
8.12162
8.12268
8.12231
8.12078
8.11815
8.11444
8.10974
8.10427
8.09824
8.09185
8.08542
8.07937
8.0741
8.07007
8.06806
8.06877
8.07203
7.71279
7.72027
7.76327
7.82838
7.88999
7.93939
7.97656
8.00447
8.02612
8.04293
8.05522
8.06341
8.0683
8.07074
8.07133
8.07047
8.06844
8.06529
8.061
8.05571
8.0496
8.04282
8.03557
8.02812
8.02076
8.01376
8.00743
8.0026
7.9959
8.00576
9.93651
9.96974
10.0057
10.0289
10.0369
10.031
10.0097
9.97288
9.92064
9.85454
9.77461
9.6811
9.5761
9.46092
9.33805
9.20872
9.07541
8.94207
8.80913
8.68059
8.56019
8.44863
8.34893
8.26238
8.19079
8.13872
8.08917
8.08699
8.05051
8.07396
9.86573
9.89985
9.94005
9.96733
9.97801
9.97462
9.9561
9.92191
9.87172
9.80751
9.72982
9.63897
9.53656
9.42364
9.3035
9.17712
9.04633
8.91586
8.78585
8.65987
8.54222
8.43329
8.33635
8.25292
8.18413
8.13502
8.08812
8.08831
8.05364
8.07897
9.79462
9.82981
9.87375
9.90514
9.91909
9.91835
9.90234
9.87065
9.8229
9.76086
9.6853
9.5969
9.4971
9.38681
9.2692
9.14574
9.0178
8.88988
8.76281
8.63961
8.52456
8.41834
8.3241
8.24362
8.17772
8.13149
8.08729
8.08983
8.05698
8.08429
9.72284
9.75954
9.80735
9.84266
9.85999
9.86208
9.84863
9.81938
9.7741
9.71438
9.64107
9.55502
9.45776
9.35028
9.23518
9.11458
8.98965
8.86421
8.74003
8.61973
8.50723
8.4037
8.31218
8.23456
8.17152
8.12811
8.08663
8.09152
8.06055
8.08996
9.65048
9.68903
9.74094
9.78012
9.80084
9.80583
9.79498
9.76823
9.72543
9.66806
9.59709
9.51346
9.41865
9.31402
9.20151
9.08373
8.96179
8.83888
8.71756
8.60015
8.49022
8.38933
8.30052
8.22576
8.16552
8.12481
8.08611
8.09339
8.06432
8.09594
9.57762
9.61838
9.67462
9.71763
9.74175
9.74973
9.74154
9.7173
9.67701
9.62203
9.55346
9.47226
9.37991
9.27808
9.16826
9.05322
8.93421
8.81394
8.69538
8.58082
8.47351
8.37525
8.2891
8.21716
8.15968
8.12158
8.08567
8.09544
8.0683
8.10218
9.50436
9.54769
9.60855
9.65536
9.68292
9.6939
9.68843
9.66672
9.62896
9.57643
9.51026
9.43149
9.34166
9.24259
9.13549
9.02311
8.90693
8.78937
8.67353
8.56172
8.45706
8.36146
8.27789
8.2087
8.15394
8.11844
8.08527
8.09759
8.07247
8.10867
9.43082
9.47707
9.54286
9.59349
9.62449
9.63847
9.63576
9.61661
9.58139
9.53132
9.46757
9.39123
9.30396
9.20761
9.10323
8.9934
8.87997
8.76517
8.65204
8.5429
8.44085
8.34792
8.2669
8.20036
8.14826
8.11538
8.08494
8.09979
8.0768
8.11543
9.3571
9.40668
9.47772
9.53214
9.56659
9.58355
9.58362
9.56704
9.53434
9.4867
9.42541
9.35154
9.26683
9.17314
9.07143
8.96412
8.85342
8.74136
8.63089
8.52441
8.42491
8.33458
8.25609
8.19215
8.14266
8.11238
8.08468
8.10204
8.08129
8.12247
9.28333
9.33667
9.41327
9.47145
9.50933
9.52922
9.53205
9.51803
9.48783
9.44256
9.38373
9.31244
9.23025
9.13915
9.04009
8.93529
8.82731
8.71798
8.61012
8.50624
8.40928
8.32145
8.24544
8.18409
8.13717
8.10944
8.08448
8.10436
8.08597
8.1298
9.20963
9.2672
9.34965
9.41152
9.45277
9.47556
9.4811
9.46957
9.44186
9.39894
9.34256
9.2739
9.19418
9.10561
9.00922
8.90693
8.80167
8.69505
8.58971
8.4884
8.39394
8.30854
8.23495
8.17617
8.13181
8.10656
8.08432
8.10677
8.09083
8.1374
9.13611
9.19844
9.28695
9.35249
9.39702
9.42265
9.43084
9.42171
9.39644
9.35587
9.30193
9.23592
9.15867
9.07258
8.97885
8.87911
8.77651
8.67256
8.56968
8.47085
8.37886
8.29585
8.2246
8.16836
8.12655
8.10374
8.08417
8.10925
8.09586
8.14524
9.06291
9.13056
9.22531
9.2945
9.34223
9.37061
9.38136
9.37452
9.35167
9.31346
9.26194
9.19854
9.12376
9.04012
8.94907
8.8519
8.75185
8.65049
8.55005
8.45361
8.36401
8.28337
8.2144
8.1606
8.12135
8.10096
8.08404
8.11178
8.10105
8.15329
8.99022
9.06378
9.16488
9.23776
9.28856
9.31958
9.33276
9.32814
9.30762
9.2718
9.22271
9.16184
9.08956
9.00836
8.91993
8.82536
8.72772
8.62884
8.53084
8.43669
8.34936
8.27105
8.20434
8.15289
8.11617
8.09822
8.08392
8.11437
8.10638
8.16156
8.91823
8.99836
9.10587
9.18246
9.2362
9.26966
9.28511
9.28266
9.2644
9.23098
9.18433
9.12587
9.05612
8.97736
8.89147
8.79948
8.70415
8.60764
8.51204
8.42011
8.33491
8.25886
8.19441
8.14522
8.11098
8.09551
8.08386
8.11702
8.11185
8.17005
8.84714
8.9346
9.04855
9.12876
9.18526
9.22094
9.23846
9.23815
9.22206
9.19105
9.14681
9.09069
9.02348
8.94715
8.8637
8.77425
8.68116
8.58691
8.49365
8.40384
8.32068
8.24677
8.18461
8.13762
8.10581
8.09286
8.0839
8.1198
8.11751
8.17881
8.77721
8.87282
8.99317
9.07678
9.13579
9.17343
9.19282
9.19464
9.18067
9.15204
9.11018
9.05635
8.99162
8.91771
8.83661
8.74962
8.65874
8.56668
8.47565
8.38786
8.30663
8.2348
8.17489
8.13007
8.10066
8.09025
8.08404
8.12272
8.1234
8.18783
8.70871
8.81339
8.93996
9.02653
9.08776
9.12715
9.14826
9.15217
9.1403
9.11397
9.07444
9.02287
8.96056
8.88902
8.8102
8.72559
8.6369
8.54695
8.458
8.37212
8.29277
8.22295
8.1652
8.12254
8.09552
8.0877
8.08428
8.12581
8.12957
8.19713
8.64204
8.75666
8.88903
8.97802
9.04113
9.08217
9.10488
9.11082
9.10105
9.07691
9.03965
8.99032
8.93034
8.8611
8.78449
8.70218
8.61566
8.52772
8.4407
8.35661
8.27906
8.2112
8.1555
8.11495
8.09035
8.08519
8.08463
8.12908
8.13603
8.20673
8.57767
8.70298
8.84044
8.93124
8.9959
9.03857
9.06283
9.07071
9.06303
9.04097
9.00592
8.95878
8.90104
8.83402
8.75955
8.67946
8.59507
8.50899
8.42374
8.34136
8.26552
8.19951
8.14577
8.10728
8.08509
8.08269
8.08513
8.13252
8.14278
8.21663
8.5162
8.65271
8.7941
8.88618
8.95212
8.99647
9.02229
9.03199
9.02631
9.00624
8.97335
8.92828
8.87272
8.80785
8.73544
8.65748
8.57514
8.49077
8.40717
8.32641
8.25218
8.18786
8.13597
8.09949
8.07972
8.08019
8.0858
8.13619
8.14984
8.22685
8.45831
8.60603
8.74983
8.84277
8.90989
8.95595
8.98337
8.99478
8.99097
8.97281
8.94201
8.89887
8.84539
8.78263
8.71222
8.63627
8.55586
8.47307
8.39098
8.31177
8.23902
8.17621
8.12604
8.09158
8.07422
8.07763
8.08664
8.14009
8.15724
8.23742
8.40466
8.56276
8.70725
8.8008
8.8693
8.91707
8.94612
8.95921
8.95708
8.94076
8.91189
8.87056
8.81905
8.75835
8.68988
8.61579
8.53719
8.45587
8.37521
8.29741
8.22598
8.16451
8.11595
8.08347
8.06858
8.075
8.08758
8.14422
8.16506
8.24837
8.35581
8.52226
8.6661
8.76034
8.8307
8.88018
8.91084
8.92554
8.9249
8.91027
8.88311
8.8435
8.79381
8.73506
8.66848
8.5961
8.51914
8.43922
8.35989
8.28334
8.21306
8.15279
8.10569
8.07514
8.06275
8.07229
8.08862
8.14856
8.17337
8.25981
8.31269
8.48428
8.62708
8.72255
8.79497
8.84617
8.87819
8.89428
8.89495
8.88169
8.85595
8.81793
8.76992
8.71292
8.64808
8.5773
8.50183
8.42323
8.34508
8.26963
8.20031
8.14109
8.0953
8.06657
8.05673
8.06948
8.08978
8.15317
8.18226
8.27189
8.27525
8.4493
8.59204
8.68947
8.7635
8.81609
8.84903
8.86595
8.86762
8.85531
8.83065
8.79404
8.74752
8.69202
8.62875
8.55944
8.48533
8.40795
8.33078
8.25629
8.18776
8.12939
8.08473
8.05775
8.05049
8.06647
8.09101
8.15805
8.19188
8.28479
8.24286
8.41706
8.56119
8.66083
8.73594
8.78937
8.82291
8.84002
8.8423
8.83064
8.80683
8.7714
8.72618
8.67203
8.61022
8.54227
8.46942
8.39319
8.31685
8.24316
8.17528
8.11755
8.07385
8.04852
8.04383
8.06305
8.09208
8.16305
8.20212
8.2985
8.21442
8.38119
8.52515
8.62615
8.70225
8.75627
8.7905
8.80792
8.81087
8.80017
8.7775
8.74358
8.69996
8.64755
8.58756
8.52129
8.44997
8.37522
8.29992
8.22712
8.15998
8.10292
8.06024
8.0366
8.03463
8.05725
8.09116
8.16649
8.2116
8.31182
8.17115
8.33497
8.48156
8.58533
8.6636
8.71895
8.7546
8.77306
8.77698
8.76768
8.74641
8.71439
8.67264
8.62226
8.56432
8.49992
8.43025
8.3571
8.28288
8.21092
8.14442
8.08787
8.04607
8.02399
8.02473
8.05076
8.08994
8.16962
8.22268
8.32695
8.11194
8.28755
8.43639
8.54235
8.62216
8.67891
8.71595
8.73549
8.74043
8.73242
8.71252
8.6822
8.64219
8.59362
8.53744
8.47464
8.40638
8.33447
8.26107
8.18961
8.12342
8.06701
8.02564
8.00468
8.00782
8.03683
8.08144
8.1636
8.22796
8.33659
7.96936
8.17599
8.31979
8.42493
8.50372
8.56065
8.5982
8.61898
8.62546
8.61955
8.60237
8.5752
8.53878
8.49396
8.44144
8.38202
8.31666
8.24699
8.17502
8.10403
8.03772
7.98082
7.9394
7.92061
7.93012
7.96745
8.02638
8.11658
8.20917
8.3351
7.68777
7.89667
8.03719
8.13788
8.21528
8.27341
8.31324
8.33732
8.34795
8.34683
8.33528
8.31432
8.28471
8.24705
8.20192
8.14983
8.09147
8.02809
7.96148
7.89437
7.8305
7.7748
7.73387
7.7162
7.73062
7.77845
7.85303
7.95834
8.07179
8.2156
7.43715
7.62877
7.76186
7.85707
7.93112
7.98823
8.02871
8.05458
8.06795
8.07046
8.06331
8.04753
8.02383
7.99267
7.95453
7.90979
7.85888
7.80263
7.74249
7.6806
7.62031
7.56641
7.52556
7.50687
7.52107
7.57479
7.66124
7.77986
7.91077
8.07078
7.20693
7.37787
7.49983
7.5876
7.65627
7.71014
7.74924
7.77514
7.78962
7.7943
7.79026
7.77841
7.7595
7.73393
7.70202
7.66409
7.62043
7.57149
7.51826
7.4624
7.40659
7.35517
7.31456
7.29388
7.30456
7.35842
7.4508
7.58156
7.72844
7.9015
6.98318
7.13338
7.24212
7.32104
7.38326
7.43276
7.46926
7.49407
7.5087
7.51455
7.51269
7.50393
7.48898
7.46823
7.4419
7.41023
7.37341
7.33169
7.28566
7.23644
7.18612
7.13833
7.0989
7.07649
7.08239
7.13122
7.22329
7.36039
7.5208
7.70351
6.7591
6.89131
6.98735
7.05707
7.11222
7.15655
7.1896
7.21235
7.22622
7.23236
7.2318
7.22529
7.21346
7.19668
7.17513
7.14898
7.11835
7.08339
7.04442
7.00221
6.95822
6.91535
6.87852
6.85554
6.85679
6.89675
6.98111
7.116
7.28485
7.47166
6.53229
6.64871
6.73304
6.79384
6.84183
6.88057
6.90962
6.92973
6.94211
6.94785
6.94787
6.94286
6.93336
6.91974
6.90218
6.88076
6.85556
6.82673
6.79447
6.75927
6.72219
6.68539
6.65279
6.63084
6.62841
6.65862
6.72738
6.84928
7.01834
7.20107
6.30122
6.40406
6.47787
6.53029
6.57129
6.60441
6.62913
6.64618
6.65658
6.66135
6.66132
6.65715
6.6493
6.6381
6.62372
6.60624
6.58575
6.56236
6.53624
6.50775
6.47769
6.44765
6.42056
6.40132
6.39672
6.41776
6.46724
6.56547
6.72385
6.89043
6.06545
6.15632
6.22079
6.26559
6.29996
6.32758
6.34792
6.36164
6.36975
6.37312
6.37254
6.36864
6.36182
6.35237
6.34048
6.32625
6.30976
6.29111
6.27047
6.24816
6.22478
6.20152
6.18048
6.1651
6.15993
6.1731
6.20347
6.27382
6.40673
6.54506
5.82381
5.90464
5.96103
5.99907
6.02737
6.04972
6.06577
6.07611
6.08171
6.08339
6.0819
6.07781
6.0715
6.06324
6.05325
6.04165
6.02851
6.01392
5.99807
5.98125
5.96391
5.94688
5.93161
5.92035
5.91568
5.92284
5.93676
5.98144
6.07173
6.17741
5.57625
5.64868
5.69821
5.73026
5.75311
5.7706
5.78253
5.78955
5.79258
5.79241
5.78972
5.78508
5.77888
5.77138
5.76281
5.75331
5.74293
5.73177
5.72003
5.70794
5.69581
5.68415
5.67384
5.66615
5.6621
5.66442
5.66545
5.68879
5.72872
5.80209
5.32367
5.38846
5.43206
5.45893
5.47688
5.48998
5.4981
5.50195
5.50245
5.50035
5.49631
5.49088
5.48449
5.47742
5.46987
5.462
5.45389
5.44561
5.43733
5.42921
5.42141
5.41414
5.40773
5.40262
5.39858
5.39654
5.38728
5.39305
5.38762
5.43248
5.06585
5.12404
5.16244
5.18488
5.19854
5.20771
5.2124
5.21331
5.21138
5.20738
5.20192
5.19557
5.18881
5.18192
5.17509
5.16848
5.16221
5.15633
5.15092
5.14606
5.14173
5.13786
5.13428
5.13071
5.12595
5.11972
5.10187
5.09367
5.05313
5.07598
4.80312
4.85551
4.88941
4.90801
4.91799
4.9237
4.92535
4.92361
4.91944
4.91362
4.90678
4.89949
4.89224
4.88533
4.879
4.87339
4.86862
4.86471
4.86165
4.85941
4.85778
4.85643
4.85474
4.85184
4.84579
4.83556
4.81055
4.79176
4.72637
4.73394
4.5359
4.58301
4.61301
4.62832
4.63515
4.6379
4.63689
4.63282
4.62665
4.6192
4.61109
4.60291
4.59513
4.5881
4.58209
4.57729
4.57372
4.5714
4.57024
4.57007
4.5705
4.57093
4.5704
4.56754
4.55992
4.54605
4.51531
4.48879
4.40687
4.40468
4.26455
4.30679
4.33328
4.34585
4.35001
4.35025
4.34698
4.34093
4.33307
4.32421
4.31501
4.30602
4.29774
4.29057
4.28481
4.28062
4.27801
4.27696
4.27732
4.27875
4.28072
4.28237
4.28247
4.2793
4.27007
4.25311
4.21802
4.18609
4.09374
4.08585
3.98933
4.02709
4.05041
4.06065
4.06263
4.06077
4.05564
4.04798
4.03874
4.02873
4.01863
4.00901
4.00032
3.99303
3.98746
3.98375
3.98191
3.98187
3.9834
3.98606
3.98915
3.99163
3.99203
3.98839
3.97775
3.95834
3.92019
3.88464
3.78621
3.77547
3.71036
3.74401
3.76451
3.77277
3.77302
3.76949
3.76289
3.75401
3.74372
3.73283
3.72205
3.71197
3.70304
3.6957
3.6903
3.68698
3.68575
3.6865
3.68893
3.69252
3.69642
3.69945
3.69998
3.69589
3.68414
3.66298
3.62293
3.58518
3.48381
3.47221
3.42771
3.45763
3.47566
3.48231
3.4812
3.47643
3.46878
3.45902
3.448
3.43654
3.42535
3.415
3.40597
3.39868
3.39347
3.3905
3.38977
3.39113
3.39424
3.3985
3.403
3.40642
3.40702
3.40259
3.39012
3.3679
3.32699
3.28821
3.18631
3.17539
3.14167
3.16817
3.18397
3.18934
3.18725
3.18163
3.17329
3.16299
3.15159
3.13987
3.12853
3.11814
3.10919
3.10206
3.09707
3.09443
3.09412
3.09595
3.09956
3.10432
3.10924
3.11295
3.11363
3.10905
3.09627
3.07365
3.03283
2.99406
2.89372
2.88476
2.85245
2.87573
2.88952
2.89389
2.89119
2.88509
2.87641
2.86593
2.85448
2.84281
2.83159
2.8214
2.81269
2.80584
2.80115
2.79881
2.79884
2.80105
2.80502
2.81012
2.81534
2.81927
2.82008
2.81559
2.80291
2.78051
2.74064
2.70291
2.60618
2.60048
2.56009
2.58038
2.59239
2.596
2.59302
2.58678
2.57812
2.56779
2.55662
2.54531
2.53449
2.52472
2.51643
2.50998
2.50564
2.50362
2.50394
2.50642
2.51063
2.51595
2.52137
2.52548
2.5265
2.52229
2.5101
2.48846
2.45035
2.41472
2.32393
2.32293
2.2646
2.28223
2.29266
2.29575
2.29275
2.28671
2.27839
2.26855
2.25795
2.2473
2.23714
2.22799
2.22029
2.21437
2.21047
2.20877
2.20932
2.21199
2.21636
2.22178
2.2273
2.23155
2.23281
2.22905
2.21766
2.19722
2.16158
2.12926
2.04725
2.05271
1.96624
1.98145
1.99049
1.99324
1.99044
1.98485
1.97719
1.96812
1.9584
1.94865
1.93938
1.93108
1.92414
1.91886
1.91546
1.91412
1.91489
1.91767
1.92207
1.92747
1.93297
1.93731
1.93885
1.93561
1.92517
1.90626
1.87369
1.846
1.77642
1.79052
1.66536
1.67824
1.68601
1.68855
1.68615
1.68124
1.67448
1.66644
1.65785
1.64926
1.64111
1.63384
1.6278
1.62327
1.62045
1.61948
1.62046
1.62325
1.62753
1.6328
1.63819
1.64249
1.64424
1.64156
1.63211
1.61479
1.58569
1.5641
1.51142
1.53665
1.36187
1.37273
1.37942
1.38183
1.37998
1.3759
1.37023
1.36349
1.35626
1.34902
1.3422
1.33613
1.33111
1.32743
1.32526
1.32465
1.32574
1.32849
1.33254
1.33745
1.34256
1.34675
1.34859
1.3464
1.33791
1.32204
1.29644
1.28233
1.25168
1.29037
1.05585
1.06513
1.071
1.0733
1.07206
1.06894
1.06454
1.0593
1.05361
1.04789
1.04253
1.03784
1.03398
1.03116
1.02961
1.02942
1.03056
1.03304
1.03673
1.04116
1.04574
1.04964
1.05154
1.04978
1.0422
1.02752
1.00501
0.999104
0.995366
1.04848
0.747364
0.755995
0.761227
0.763329
0.762646
0.760598
0.757609
0.753939
0.749932
0.745945
0.742224
0.738917
0.736263
0.734464
0.733518
0.733555
0.734722
0.736865
0.739883
0.743609
0.747497
0.750861
0.752741
0.751626
0.74528
0.731864
0.711676
0.712706
0.737824
0.802981
0.436672
0.446161
0.450644
0.452009
0.451696
0.450646
0.449118
0.447213
0.445027
0.442797
0.440817
0.439096
0.437638
0.436762
0.436517
0.436758
0.437703
0.439394
0.441602
0.444269
0.447158
0.449767
0.451485
0.45129
0.447281
0.436844
0.419565
0.422223
0.466845
0.533318
0.136202
0.143613
0.146227
0.146319
0.146033
0.145776
0.145455
0.145047
0.144565
0.144022
0.143533
0.14318
0.142897
0.142755
0.142878
0.143188
0.143691
0.144494
0.145517
0.14669
0.147981
0.149231
0.150224
0.15063
0.149751
0.145904
0.13738
0.136155
0.168256
0.203672
7.77857
7.5354
7.28511
7.05768
6.8444
6.63135
6.41509
6.18968
5.95901
5.72265
5.48036
5.23281
4.97975
4.72215
4.46018
4.1938
3.92338
3.64948
3.37203
3.09086
2.80619
2.51869
2.2286
1.93532
1.63915
1.34079
1.0405
0.737704
0.434274
0.13313
7.72297
7.50013
7.25212
7.02348
6.81298
6.60198
6.38768
6.16376
5.93422
5.69915
5.45828
5.21189
4.96007
4.70378
4.44304
4.1778
3.90859
3.6359
3.35959
3.07944
2.79587
2.50952
2.22059
1.9284
1.63335
1.33628
1.0372
0.735689
0.434041
0.132578
7.66922
7.46463
7.22374
6.99425
6.78543
6.57538
6.3618
6.13958
5.91136
5.67754
5.43799
5.19268
4.94221
4.68708
4.42745
4.16333
3.89535
3.62375
3.34838
3.06916
2.78675
2.50147
2.21344
1.92221
1.62832
1.33239
1.03416
0.733717
0.433417
0.131963
7.61342
7.42565
7.19548
6.9672
6.75883
6.5492
6.33621
6.11565
5.88904
5.65655
5.41819
5.17406
4.9249
4.67085
4.41234
4.14941
3.88257
3.61192
3.33751
3.05931
2.77797
2.49362
2.20645
1.91627
1.62346
1.32846
1.03108
0.731796
0.432857
0.131707
7.5608
7.38685
7.1679
6.94077
6.73253
6.52369
6.31135
6.09242
5.86739
5.63617
5.39886
5.15591
4.90801
4.65505
4.39766
4.13586
3.87006
3.60035
3.32694
3.04975
2.76935
2.48589
2.19965
1.91054
1.61867
1.3245
1.02807
0.729988
0.432281
0.131551
7.51127
7.34972
7.13951
6.91486
6.70709
6.49897
6.28764
6.07024
5.84655
5.61641
5.38017
5.13842
4.89174
4.63989
4.38352
4.12278
3.85801
3.58927
3.31681
3.04056
2.76106
2.47851
2.19321
1.90507
1.61403
1.32063
1.0252
0.728267
0.431653
0.131467
7.46565
7.31286
7.10993
6.88933
6.68228
6.47519
6.265
6.04896
5.82629
5.59715
5.36209
5.12159
4.87605
4.62525
4.36986
4.11018
3.84644
3.57865
3.30707
3.03172
2.75311
2.47149
2.18707
1.89981
1.60952
1.31687
1.02243
0.72659
0.430965
0.131443
7.42373
7.27563
7.07968
6.86411
6.65839
6.45251
6.24338
6.02836
5.80657
5.5785
5.3447
5.10546
4.86093
4.61112
4.35673
4.09813
3.83535
3.56847
3.29772
3.02328
2.74554
2.46483
2.18121
1.89471
1.60514
1.31324
1.01976
0.724956
0.430236
0.131462
7.38409
7.23846
7.04947
6.83929
6.63545
6.43086
6.22256
6.00826
5.78743
5.56057
5.328
5.08993
4.84632
4.59748
4.34413
4.08659
3.82468
3.55864
3.28873
3.0152
2.7383
2.45842
2.17553
1.88972
1.60087
1.30974
1.0172
0.723375
0.429484
0.13151
7.34553
7.20225
7.01956
6.81497
6.6134
6.40997
6.20231
5.98873
5.76897
5.54336
5.31195
5.0749
4.83219
4.58434
4.33203
4.07546
3.81435
3.54913
3.2801
3.00746
2.73134
2.45219
2.16998
1.88484
1.59673
1.30641
1.01476
0.721854
0.428724
0.131576
7.30779
7.16717
6.99026
6.79123
6.592
6.38957
6.1826
5.96992
5.75127
5.52688
5.29648
5.06036
4.81857
4.57173
4.3204
4.06469
3.80435
3.53996
3.27181
3.00003
2.7246
2.44611
2.16457
1.88011
1.59276
1.30325
1.01247
0.720394
0.42796
0.131646
7.27086
7.13335
6.96176
6.76796
6.57097
6.36959
6.16356
5.95192
5.73436
5.51106
5.28159
5.04634
4.80552
4.55966
4.30922
4.05429
3.79474
3.53117
3.2639
2.9929
2.71812
2.44024
2.15935
1.87558
1.58899
1.3003
1.01031
0.718984
0.427191
0.131713
7.23477
7.10084
6.93406
6.74491
6.55018
6.35014
6.14524
5.93473
5.7182
5.49586
5.26729
5.03292
4.79308
4.54813
4.29849
4.04429
3.78556
3.52282
3.25637
2.98607
2.71191
2.43462
2.15435
1.87126
1.58542
1.29753
1.00828
0.717607
0.426409
0.131772
7.19952
7.06951
6.90689
6.72191
6.52967
6.33129
6.12764
5.91825
5.7027
5.48124
5.25358
5.02012
4.78122
4.53709
4.28821
4.03475
3.77686
3.51488
3.24919
2.97954
2.706
2.42929
2.1496
1.86718
1.58207
1.29493
1.00635
0.716243
0.425609
0.131823
7.16515
7.03896
6.88004
6.69903
6.50952
6.313
6.11066
5.90237
5.68777
5.46717
5.24047
5.0079
4.76987
4.52651
4.27839
4.02568
3.7686
3.50733
3.24234
2.97333
2.70041
2.42422
2.14508
1.8633
1.57892
1.29249
1.0045
0.714878
0.424788
0.13187
7.13175
7.00887
6.85353
6.67649
6.48978
6.2952
6.09421
5.88699
5.67335
5.45365
5.22791
4.99619
4.75895
4.51634
4.26901
4.01707
3.76072
3.50012
3.23579
2.96743
2.6951
2.4194
2.14078
1.85964
1.57595
1.29016
1.00268
0.713502
0.423951
0.131917
7.09928
6.97924
6.82758
6.6544
6.47047
6.27785
6.07824
5.87211
5.65946
5.44067
5.21586
4.98492
4.74842
4.5066
4.26008
4.00887
3.75317
3.49322
3.22955
2.96182
2.69004
2.4148
2.13671
1.85618
1.57315
1.28791
1.00088
0.712118
0.423112
0.131972
7.06763
6.95034
6.8023
6.63285
6.45161
6.26094
6.06276
5.85776
5.64613
5.42824
5.20427
4.97408
4.73829
4.49729
4.25155
4.00104
3.74593
3.48662
3.2236
2.9565
2.6852
2.4104
2.13286
1.85292
1.57049
1.28571
0.999071
0.710745
0.422294
0.132044
7.03675
6.92237
6.77773
6.61183
6.43319
6.24449
6.04778
5.84396
5.63334
5.41631
5.19311
4.96366
4.7286
4.48841
4.24341
3.99355
3.739
3.48036
3.21796
2.95143
2.68057
2.40622
2.12927
1.84987
1.56794
1.28354
0.997273
0.70942
0.421529
0.132142
7.00666
6.8953
6.75384
6.59127
6.41516
6.22847
6.03327
5.83065
5.62103
5.40483
5.18237
4.95367
4.71935
4.47994
4.23563
3.98639
3.73241
3.47444
3.21262
2.94659
2.67615
2.40229
2.12593
1.84702
1.56548
1.2814
0.995525
0.708191
0.420848
0.132269
6.97738
6.86906
6.73052
6.57112
6.39748
6.21285
6.01918
5.81777
5.60912
5.39374
5.17204
4.94412
4.71054
4.47185
4.22816
3.97955
3.72617
3.46885
3.20756
2.94199
2.67198
2.39863
2.12286
1.84436
1.56312
1.27935
0.993889
0.707107
0.420275
0.132427
6.94891
6.84356
6.7077
6.55134
6.38013
6.19756
6.00543
5.80522
5.59755
5.38302
5.16212
4.93499
4.70214
4.4641
4.22102
3.97305
3.72031
3.4636
3.20277
2.93762
2.6681
2.39529
2.12005
1.84188
1.56087
1.27744
0.992432
0.706197
0.419812
0.132608
6.92129
6.81877
6.68539
6.53195
6.36309
6.18254
5.99195
5.79294
5.58629
5.37267
5.15261
4.92626
4.69409
4.45668
4.21422
3.96692
3.71482
3.45866
3.19825
2.93353
2.66454
2.39227
2.1175
1.8396
1.5588
1.27574
0.991202
0.705458
0.419439
0.132798
6.89457
6.79472
6.6636
6.51297
6.34635
6.16777
5.97871
5.78093
5.57536
5.3627
5.14351
4.9179
4.68638
4.44958
4.20778
3.96115
3.70968
3.454
3.19402
2.92974
2.66134
2.38958
2.11517
1.83751
1.55693
1.2743
0.990201
0.704847
0.419108
0.132979
6.8688
6.77147
6.64241
6.49444
6.32994
6.15326
5.96574
5.76923
5.56478
5.35311
5.13477
4.90987
4.67897
4.44281
4.2017
3.95574
3.70485
3.44961
3.19008
2.92628
2.65847
2.38716
2.11305
1.83564
1.55532
1.27311
0.989389
0.704293
0.418766
0.133136
6.84401
6.74907
6.62183
6.47636
6.31385
6.13902
5.95306
5.75784
5.55453
5.34385
5.12634
4.90213
4.67186
4.43637
4.19595
3.95062
3.70026
3.44546
3.18643
2.92314
2.6559
2.38498
2.1111
1.83398
1.55394
1.27213
0.988682
0.703717
0.418367
0.133261
6.82022
6.72752
6.60185
6.45872
6.2981
6.12507
5.94066
5.74676
5.54458
5.33487
5.11815
4.89465
4.66504
4.43024
4.19049
3.94573
3.69586
3.44154
3.18306
2.92028
2.65353
2.38295
2.10931
1.83251
1.55279
1.27128
0.987992
0.703058
0.417893
0.13336
6.79744
6.70681
6.58246
6.44153
6.28268
6.11144
5.92854
5.73594
5.53487
5.3261
5.11017
4.8874
4.65849
4.42438
4.18526
3.94102
3.69164
3.43785
3.17993
2.91764
2.65131
2.38103
2.10766
1.83121
1.5518
1.27049
0.987252
0.702306
0.417367
0.13345
6.77567
6.68691
6.56365
6.42479
6.26762
6.0981
5.91667
5.72535
5.52534
5.31751
5.10239
4.88039
4.65222
4.41876
4.18021
3.93646
3.68758
3.43436
3.177
2.91516
2.64917
2.37921
2.10616
1.83007
1.55092
1.26969
0.986447
0.701505
0.416848
0.133552
6.75497
6.66784
6.54543
6.40855
6.25295
6.0851
5.90505
5.71496
5.516
5.30912
5.09485
4.87365
4.64621
4.41334
4.17532
3.93206
3.68374
3.43108
3.17425
2.9128
2.64711
2.37752
2.10483
1.82908
1.55013
1.2689
0.98562
0.700737
0.416403
0.133686
6.73541
6.64969
6.5279
6.3929
6.23873
6.07246
5.89373
5.70482
5.5069
5.30097
5.0876
4.8672
4.64048
4.40815
4.17064
3.92789
3.68014
3.42804
3.17165
2.91055
2.64515
2.37599
2.1037
1.82823
1.54941
1.26812
0.984848
0.700096
0.416087
0.133858
6.71706
6.63252
6.51113
6.37792
6.22504
6.06025
5.88276
5.695
5.4981
5.29316
5.08068
4.86106
4.63501
4.4032
4.16622
3.92401
3.67685
3.42522
3.16922
2.90845
2.64336
2.37468
2.10277
1.8275
1.54877
1.26743
0.984213
0.699638
0.415905
0.134055
6.69997
6.6164
6.49519
6.36367
6.21191
6.04852
5.87218
5.68553
5.48965
5.28569
5.07409
4.85521
4.62978
4.39851
4.16207
3.92044
3.67383
3.4226
3.16694
2.90651
2.64179
2.37361
2.10202
1.82688
1.5482
1.26687
0.983759
0.699363