/*--------------------------------*- C++ -*----------------------------------*\
  =========                 |
  \\      /  F ield         | OpenFOAM: The Open Source CFD Toolbox
   \\    /   O peration     | Website:  https://openfoam.org
    \\  /    A nd           | Version:  7
     \\/     M anipulation  |
\*---------------------------------------------------------------------------*/
FoamFile
{
    version     2.0;
    format      ascii;
    class       volVectorField;
    location    "0.2";
    object      U;
}
// * * * * * * * * * * * * * * * * * * * * * * * * * * * * * * * * * * * * * //

dimensions      [0 1 -1 0 0 0 0];

internalField   nonuniform List<vector> 
18000
(
(0.00069288 -0.133066 1.08636e-19)
(0.0238062 -0.407987 0)
(0.06714 -0.555193 0)
(0.110943 -0.616152 0)
(0.155922 -0.632701 -3.61362e-20)
(0.199011 -0.628175 1.82652e-19)
(0.238953 -0.614481 -3.70965e-20)
(0.275443 -0.597449 3.73483e-20)
(0.308436 -0.579527 0)
(0.338044 -0.561958 -1.12845e-19)
(0.364595 -0.545416 -3.78287e-20)
(0.388463 -0.530082 0)
(0.410045 -0.515945 7.52039e-20)
(0.429597 -0.502893 7.54791e-20)
(0.447396 -0.49097 -1.50106e-19)
(0.463603 -0.48006 -1.4947e-19)
(0.478417 -0.470058 0)
(0.492055 -0.460857 -2.21994e-19)
(0.50467 -0.452416 7.36127e-20)
(0.516359 -0.44462 -2.18944e-19)
(0.527286 -0.437381 7.25235e-20)
(0.537556 -0.430702 0)
(0.547146 -0.424509 -7.08794e-20)
(0.556153 -0.418722 -7.07118e-20)
(0.564659 -0.413306 0)
(0.572752 -0.408321 0)
(0.580329 -0.40358 -1.37171e-19)
(0.587682 -0.399105 -1.35837e-19)
(0.594458 -0.395591 -1.35027e-19)
(0.601289 -0.391889 1.31849e-19)
(0.00423172 -0.136894 1.53473e-19)
(0.0351292 -0.420554 2.6774e-19)
(0.0826711 -0.573337 -2.74193e-19)
(0.128039 -0.637286 -2.80427e-19)
(0.173038 -0.654652 -7.18183e-20)
(0.215479 -0.650019 2.16949e-19)
(0.254548 -0.635679 -2.93777e-19)
(0.290055 -0.617523 -2.96368e-19)
(0.322024 -0.598331 2.98248e-19)
(0.350583 -0.579612 2.99838e-19)
(0.376194 -0.562005 -1.4975e-19)
(0.399241 -0.545583 -3.00353e-19)
(0.420042 -0.530459 -1.50923e-19)
(0.438894 -0.516569 2.99421e-19)
(0.456068 -0.503875 -2.98066e-19)
(0.471704 -0.492259 2.98421e-19)
(0.486033 -0.481652 -5.92271e-19)
(0.49924 -0.471903 4.42447e-19)
(0.511441 -0.462952 -2.91899e-19)
(0.522751 -0.454711 1.4579e-19)
(0.533339 -0.447086 -2.87535e-19)
(0.543314 -0.440044 0)
(0.552659 -0.433497 1.43356e-19)
(0.561425 -0.427443 -2.8105e-19)
(0.569666 -0.421776 2.77745e-19)
(0.577544 -0.41651 0)
(0.584951 -0.41161 -1.35334e-19)
(0.592185 -0.406934 1.34769e-19)
(0.598685 -0.403213 5.35061e-19)
(0.60547 -0.39931 2.6153e-19)
(0.00797826 -0.140727 -2.46706e-19)
(0.0472668 -0.432681 -2.67734e-19)
(0.0992922 -0.59094 4.11082e-19)
(0.146279 -0.657673 6.98105e-19)
(0.191441 -0.67597 0)
(0.233242 -0.671191 -2.90327e-19)
(0.271277 -0.655991 2.93773e-19)
(0.305706 -0.636707 8.85486e-19)
(0.33659 -0.616458 -2.98246e-19)
(0.364042 -0.596645 -2.99498e-19)
(0.388628 -0.577897 8.96975e-19)
(0.410745 -0.560479 3.00353e-19)
(0.430726 -0.544469 0)
(0.448818 -0.52973 -5.98096e-19)
(0.465308 -0.516306 8.91435e-19)
(0.480332 -0.504027 -2.94595e-19)
(0.494106 -0.49283 2.95621e-19)
(0.506828 -0.48258 2.93076e-19)
(0.518606 -0.473184 1.0228e-21)
(0.529541 -0.4645 0)
(0.539768 -0.456467 8.61059e-19)
(0.549412 -0.449094 -5.68321e-19)
(0.558417 -0.442238 2.82777e-19)
(0.566906 -0.435916 0)
(0.574947 -0.430039 -2.77747e-19)
(0.582561 -0.424522 1.09533e-18)
(0.589748 -0.419444 -8.11692e-19)
(0.596785 -0.414582 -2.69837e-19)
(0.603076 -0.410793 2.63416e-19)
(0.609893 -0.406537 2.60399e-19)
(0.0120442 -0.144519 0)
(0.0601754 -0.444597 1.3257e-19)
(0.116956 -0.608049 3.52359e-22)
(0.165774 -0.677413 -6.95701e-19)
(0.210976 -0.696466 0)
(0.252117 -0.69146 -5.73333e-19)
(0.289196 -0.675443 0)
(0.322379 -0.655136 -8.83037e-19)
(0.352007 -0.633799 2.95274e-19)
(0.378332 -0.612852 -5.91812e-19)
(0.401844 -0.59309 -5.96793e-19)
(0.422941 -0.57475 -2.97825e-19)
(0.442038 -0.557869 2.97233e-19)
(0.459326 -0.542336 2.94783e-19)
(0.475074 -0.52822 -2.97684e-19)
(0.489446 -0.515353 -5.85532e-19)
(0.502625 -0.503594 5.85577e-19)
(0.514807 -0.492832 0)
(0.526135 -0.482991 0)
(0.53669 -0.473947 0)
(0.546491 -0.465539 0)
(0.555763 -0.45785 0)
(0.564479 -0.450752 0)
(0.572634 -0.444139 -5.53232e-19)
(0.580407 -0.438032 -5.50218e-19)
(0.587793 -0.432343 -2.10983e-21)
(0.594753 -0.427034 -5.38076e-19)
(0.601565 -0.422035 -9.74332e-22)
(0.607618 -0.418056 -5.31532e-19)
(0.614475 -0.413505 1.03835e-18)
(0.0163373 -0.148329 0)
(0.0738171 -0.456166 1.18045e-18)
(0.135588 -0.624419 3.68364e-22)
(0.186343 -0.696362 -4.14012e-19)
(0.231754 -0.716164 1.40204e-18)
(0.27213 -0.710769 8.59471e-19)
(0.308047 -0.693997 8.64364e-19)
(0.339979 -0.672735 0)
(0.368363 -0.650269 0)
(0.393412 -0.628271 8.87018e-19)
(0.415719 -0.607559 3.84918e-22)
(0.435769 -0.58829 -2.06748e-18)
(0.453951 -0.570584 1.76953e-18)
(0.470372 -0.554365 -5.91659e-19)
(0.485302 -0.539605 5.83961e-19)
(0.498988 -0.526167 5.8662e-19)
(0.511579 -0.513913 -5.78731e-19)
(0.523198 -0.502699 5.78834e-19)
(0.533974 -0.492381 1.14613e-18)
(0.544122 -0.482987 -5.70253e-19)
(0.553555 -0.474314 -1.12824e-18)
(0.56237 -0.466286 1.11884e-18)
(0.57074 -0.458922 -1.10909e-18)
(0.578624 -0.452097 5.53238e-19)
(0.586079 -0.445754 0)
(0.593217 -0.439882 0)
(0.599932 -0.434387 4.21903e-21)
(0.60653 -0.429237 -2.11712e-18)
(0.612358 -0.425095 1.04608e-18)
(0.61916 -0.420218 -1.03392e-18)
(0.020929 -0.152168 0)
(0.0881813 -0.467316 -1.04879e-18)
(0.155194 -0.640293 1.06685e-18)
(0.207934 -0.714455 0)
(0.253524 -0.734771 -2.23534e-18)
(0.293173 -0.72913 -2.84307e-19)
(0.327913 -0.711659 -5.78513e-19)
(0.358459 -0.689348 -2.89656e-19)
(0.385448 -0.665809 0)
(0.409191 -0.642872 -5.8676e-19)
(0.430311 -0.621258 5.87301e-19)
(0.449225 -0.601108 1.17979e-18)
(0.466351 -0.582597 -1.17869e-18)
(0.481873 -0.565744 0)
(0.496002 -0.550435 -1.17208e-18)
(0.508935 -0.536479 1.15956e-18)
(0.520846 -0.523701 1.16069e-18)
(0.531955 -0.512092 1.72136e-18)
(0.542214 -0.501421 -1.71657e-18)
(0.551788 -0.491639 2.26382e-18)
(0.560822 -0.482692 1.12494e-18)
(0.56929 -0.474417 -1.11885e-18)
(0.577245 -0.466786 2.21077e-18)
(0.584785 -0.459747 0)
(0.591954 -0.453215 1.08125e-18)
(0.598816 -0.447133 2.14564e-18)
(0.605291 -0.441505 -1.05591e-18)
(0.611654 -0.436181 1.05691e-18)
(0.617238 -0.431936 -3.38154e-21)
(0.62395 -0.426707 -1.03204e-18)
(0.0257735 -0.156005 -1.19519e-19)
(0.103195 -0.478282 0)
(0.175666 -0.655476 -1.3332e-18)
(0.230622 -0.731577 2.71402e-19)
(0.276385 -0.752482 8.35833e-19)
(0.315096 -0.746535 2.81472e-19)
(0.348567 -0.728151 1.13837e-18)
(0.377766 -0.704883 0)
(0.403316 -0.680479 5.80614e-19)
(0.425597 -0.6566 5.79478e-19)
(0.445422 -0.634027 -5.84408e-19)
(0.463243 -0.613134 1.74919e-18)
(0.479313 -0.593997 0)
(0.493793 -0.576528 0)
(0.50702 -0.560606 1.73819e-18)
(0.519283 -0.546205 -2.8895e-18)
(0.530523 -0.533025 1.14595e-18)
(0.540937 -0.520995 -1.14623e-18)
(0.550693 -0.510012 -1.13097e-18)
(0.559803 -0.499925 -3.3789e-18)
(0.56833 -0.490688 -4.0476e-21)
(0.576372 -0.482197 1.10403e-18)
(0.583972 -0.474348 -2.19592e-18)
(0.591161 -0.467084 1.08411e-18)
(0.598018 -0.460373 -7.53476e-21)
(0.60458 -0.454124 -1.07075e-18)
(0.610791 -0.448344 1.0601e-18)
(0.616923 -0.442889 0)
(0.62225 -0.438536 1.03093e-18)
(0.628832 -0.43296 6.87238e-22)
(0.0308603 -0.159908 -2.37308e-19)
(0.118861 -0.488711 2.57726e-19)
(0.197107 -0.669803 -1.57989e-18)
(0.254184 -0.747864 -8.07289e-19)
(0.300074 -0.769219 1.09895e-18)
(0.338016 -0.762734 -1.67819e-18)
(0.370149 -0.743562 -5.71929e-19)
(0.39769 -0.71947 -1.14146e-18)
(0.42171 -0.69408 1.14912e-18)
(0.442671 -0.669285 -2.31589e-18)
(0.461153 -0.645978 -1.15705e-18)
(0.477639 -0.624427 -7.37598e-21)
(0.492597 -0.604617 5.80468e-19)
(0.50621 -0.586624 -1.73269e-18)
(0.518499 -0.570216 -2.30749e-18)
(0.529848 -0.555347 3.3275e-21)
(0.540448 -0.541807 -4.06753e-21)
(0.550285 -0.529411 1.13144e-18)
(0.559425 -0.518126 1.13099e-18)
(0.56799 -0.50781 3.40174e-21)
(0.576057 -0.498322 -6.20735e-22)
(0.583679 -0.489577 1.09257e-18)
(0.590887 -0.481532 1.09425e-18)
(0.59771 -0.474109 -3.47354e-21)
(0.604233 -0.467227 -3.21373e-18)
(0.610502 -0.460828 2.11478e-18)
(0.616437 -0.454904 2.09809e-18)
(0.622305 -0.449347 -2.07536e-18)
(0.627374 -0.444888 -1.03095e-18)
(0.633795 -0.438954 -1.01493e-18)
(0.0362594 -0.16379 -2.11329e-18)
(0.135168 -0.498713 -2.55867e-19)
(0.219246 -0.683477 1.31348e-18)
(0.278659 -0.763145 1.07678e-18)
(0.324747 -0.784653 -1.09894e-18)
(0.361657 -0.777789 1.11697e-18)
(0.392327 -0.757966 -5.64308e-19)
(0.418384 -0.732922 1.70962e-18)
(0.440818 -0.706566 -1.14913e-18)
(0.460137 -0.681057 1.15426e-18)
(0.477215 -0.657084 5.80021e-19)
(0.492569 -0.63486 -5.81104e-19)
(0.506331 -0.614428 -3.45223e-18)
(0.518823 -0.59601 2.30396e-18)
(0.530272 -0.579245 1.15007e-18)
(0.540826 -0.563894 0)
(0.550644 -0.549972 0)
(0.559799 -0.53735 -1.14344e-20)
(0.568354 -0.525822 -1.11271e-18)
(0.57641 -0.515232 0)
(0.584 -0.505509 0)
(0.591162 -0.496587 -1.09662e-18)
(0.597944 -0.488376 0)
(0.604405 -0.480792 -2.13824e-18)
(0.610604 -0.473755 0)
(0.616555 -0.467232 -1.05566e-18)
(0.622192 -0.4612 2.08283e-18)
(0.627794 -0.455539 -2.06026e-18)
(0.632608 -0.45097 0)
(0.638821 -0.444671 0)
(0.0418858 -0.16767 1.8777e-18)
(0.152119 -0.508373 0)
(0.242291 -0.696319 -2.60755e-19)
(0.303955 -0.777268 2.65686e-19)
(0.350097 -0.799003 -1.6228e-18)
(0.386045 -0.791737 2.14424e-21)
(0.415246 -0.771036 -5.58935e-19)
(0.439579 -0.745134 0)
(0.460332 -0.718125 0)
(0.478145 -0.691928 -5.7201e-19)
(0.493752 -0.667153 5.72541e-19)
(0.507759 -0.644377 -1.14731e-18)
(0.520348 -0.623579 1.15986e-18)
(0.531769 -0.604674 0)
(0.54232 -0.587483 0)
(0.552043 -0.571838 0)
(0.561051 -0.557662 1.11978e-18)
(0.569518 -0.544778 -7.45841e-21)
(0.57749 -0.532987 1.12015e-18)
(0.585005 -0.52219 -2.20045e-18)
(0.592082 -0.512304 1.09515e-18)
(0.598789 -0.503228 -5.41997e-18)
(0.605165 -0.494853 7.07633e-21)
(0.611244 -0.487119 2.13829e-18)
(0.617082 -0.479968 -7.89034e-21)
(0.622707 -0.473343 2.0883e-18)
(0.628058 -0.467206 -2.05957e-18)
(0.633386 -0.461439 -2.04591e-18)
(0.637934 -0.456768 7.27071e-21)
(0.643902 -0.4501 -2.00945e-18)
(0.0478311 -0.171551 -2.32125e-19)
(0.169637 -0.51744 0)
(0.266017 -0.708275 5.17781e-19)
(0.33005 -0.790425 -5.27575e-19)
(0.376224 -0.812174 4.86196e-18)
(0.411057 -0.80432 2.1962e-21)
(0.438694 -0.782899 -5.55178e-19)
(0.461285 -0.756282 5.6207e-19)
(0.480269 -0.728509 -2.81846e-18)
(0.496497 -0.701656 0)
(0.510639 -0.676362 0)
(0.523247 -0.653091 -1.1313e-18)
(0.534637 -0.631858 1.14628e-18)
(0.544974 -0.612544 -1.13602e-18)
(0.554551 -0.595051 1.13117e-18)
(0.563434 -0.579193 0)
(0.571669 -0.564775 -4.48034e-18)
(0.579427 -0.551642 2.21842e-18)
(0.586768 -0.539658 1.10525e-18)
(0.593721 -0.528711 3.28982e-18)
(0.6003 -0.51868 0)
(0.606551 -0.509451 2.16349e-18)
(0.612504 -0.50095 2.13598e-18)
(0.618187 -0.49311 2.11554e-18)
(0.623665 -0.485866 -1.50573e-20)
(0.628959 -0.479142 -2.06601e-18)
(0.634018 -0.472905 2.05962e-18)
(0.639066 -0.467041 0)
(0.643337 -0.462273 7.33071e-21)
(0.649029 -0.455241 4.02345e-18)
(0.0540538 -0.175404 -1.83641e-18)
(0.187759 -0.526056 0)
(0.290421 -0.719317 -2.04332e-18)
(0.356794 -0.802384 -2.62008e-18)
(0.402987 -0.824074 -1.61805e-18)
(0.436654 -0.815655 5.46345e-19)
(0.462621 -0.793517 1.75249e-21)
(0.483412 -0.766198 -5.56959e-19)
(0.500577 -0.73775 1.4798e-20)
(0.515106 -0.710321 1.12922e-18)
(0.527772 -0.684607 1.12464e-18)
(0.539005 -0.6609 -1.11768e-18)
(0.549152 -0.639287 1.13027e-18)
(0.558371 -0.619692 -3.37772e-18)
(0.566943 -0.601962 3.36482e-18)
(0.574966 -0.585895 2.23049e-18)
(0.582433 -0.571281 5.56363e-18)
(0.589475 -0.557972 -1.12015e-18)
(0.596167 -0.545844 -2.18786e-18)
(0.602545 -0.534766 -1.4859e-20)
(0.608616 -0.524611 -2.16046e-18)
(0.614406 -0.51527 6.41599e-18)
(0.619936 -0.50668 -4.25761e-18)
(0.625219 -0.498764 4.19413e-18)
(0.630328 -0.491441 -2.08742e-18)
(0.635296 -0.484624 4.11705e-18)
(0.640065 -0.478286 7.7229e-21)
(0.644823 -0.472343 -4.03034e-18)
(0.6488 -0.467491 3.9789e-18)
(0.654171 -0.460097 1.99144e-18)
(0.0605611 -0.179204 1.8364e-18)
(0.206438 -0.534121 0)
(0.315479 -0.729441 4.58215e-18)
(0.384147 -0.813147 1.57335e-18)
(0.430274 -0.834641 0)
(0.462716 -0.825657 0)
(0.486948 -0.802841 0)
(0.505862 -0.774863 0)
(0.521191 -0.745877 1.12216e-18)
(0.53396 -0.717939 1.11989e-18)
(0.545076 -0.691819 -2.25495e-18)
(0.554932 -0.667781 2.25647e-18)
(0.563829 -0.645914 3.36363e-18)
(0.571922 -0.626116 1.12875e-18)
(0.579469 -0.608184 1.10232e-18)
(0.586603 -0.591936 -3.34184e-18)
(0.593294 -0.577182 -4.42118e-18)
(0.59962 -0.563763 -2.2037e-18)
(0.605653 -0.551531 2.18792e-18)
(0.611445 -0.540352 -4.33462e-18)
(0.617003 -0.530106 2.14511e-18)
(0.622328 -0.5207 -4.26028e-18)
(0.627424 -0.512057 2.09899e-18)
(0.632313 -0.504084 -1.48101e-20)
(0.637068 -0.496677 -2.0649e-18)
(0.641714 -0.489769 -4.09459e-18)
(0.646186 -0.483354 4.05123e-18)
(0.650635 -0.477363 0)
(0.654312 -0.472424 -7.48467e-21)
(0.659324 -0.464646 -3.98882e-18)
(0.0673674 -0.182948 2.26989e-19)
(0.225646 -0.5416 0)
(0.341129 -0.738581 -2.02847e-18)
(0.412066 -0.822701 5.19319e-19)
(0.458035 -0.843878 -5.27269e-19)
(0.489143 -0.834281 0)
(0.511576 -0.810836 -5.45823e-19)
(0.528542 -0.782271 5.49551e-19)
(0.54201 -0.752846 1.10956e-18)
(0.553023 -0.7245 -3.33242e-18)
(0.562526 -0.698022 -1.11714e-18)
(0.570951 -0.673743 -1.30918e-21)
(0.578591 -0.651714 -7.50292e-21)
(0.585573 -0.631774 -2.22694e-18)
(0.592098 -0.613689 -1.11721e-18)
(0.598313 -0.597317 0)
(0.604201 -0.582483 7.04893e-21)
(0.609812 -0.569 2.18887e-18)
(0.615191 -0.556699 -2.16549e-18)
(0.620393 -0.545461 0)
(0.62542 -0.535176 0)
(0.630272 -0.525745 0)
(0.634945 -0.517061 0)
(0.639457 -0.50903 -1.48709e-20)
(0.643869 -0.501557 0)
(0.648187 -0.494596 0)
(0.652352 -0.488141 1.99948e-18)
(0.656495 -0.482105 1.97762e-18)
(0.659884 -0.477043 1.96316e-18)
(0.664515 -0.468852 -7.66432e-21)
(0.074463 -0.186604 2.25291e-19)
(0.245362 -0.548467 -4.89685e-19)
(0.367311 -0.746688 3.00305e-18)
(0.440463 -0.830996 -5.12562e-19)
(0.486206 -0.851771 5.26529e-19)
(0.515876 -0.841531 2.40036e-21)
(0.536424 -0.817495 1.61784e-18)
(0.551373 -0.788418 -2.17954e-18)
(0.562933 -0.758618 3.29724e-18)
(0.572209 -0.729973 7.57403e-21)
(0.58009 -0.703244 -1.1027e-18)
(0.587035 -0.678803 2.21248e-18)
(0.593384 -0.65667 -2.21038e-18)
(0.599262 -0.636641 2.20505e-18)
(0.604777 -0.618478 0)
(0.610058 -0.602047 2.18641e-18)
(0.615123 -0.587175 0)
(0.620013 -0.57366 1.4715e-20)
(0.624739 -0.561341 -2.14375e-18)
(0.629341 -0.550101 -2.12669e-18)
(0.633834 -0.539818 2.10854e-18)
(0.638217 -0.530375 -2.08947e-18)
(0.642479 -0.521668 -2.0696e-18)
(0.646622 -0.513612 -4.11287e-18)
(0.650692 -0.506122 -2.02796e-18)
(0.654684 -0.499143 2.01368e-18)
(0.658557 -0.49265 -3.99181e-18)
(0.662414 -0.486551 -1.97769e-18)
(0.665529 -0.481337 0)
(0.669764 -0.472725 -1.98207e-18)
(0.0818481 -0.190155 0)
(0.265569 -0.55469 1.93461e-18)
(0.393985 -0.753738 -1.49963e-18)
(0.469259 -0.837993 -2.54329e-18)
(0.514686 -0.858272 0)
(0.542836 -0.847398 0)
(0.561421 -0.822815 -3.23528e-18)
(0.574299 -0.793303 4.34159e-18)
(0.583884 -0.763183 -3.28299e-18)
(0.591413 -0.734337 0)
(0.597698 -0.707484 1.10843e-18)
(0.603155 -0.68297 -1.11066e-18)
(0.608179 -0.660785 1.46287e-20)
(0.612937 -0.640723 -1.11386e-18)
(0.617454 -0.622547 -1.08782e-18)
(0.621805 -0.606112 -1.46471e-20)
(0.626035 -0.591248 2.15929e-18)
(0.63019 -0.577753 2.15962e-18)
(0.634256 -0.565475 7.24568e-21)
(0.638259 -0.554275 4.24609e-18)
(0.642221 -0.544022 -4.20987e-18)
(0.646138 -0.534595 4.17175e-18)
(0.64999 -0.525909 2.06968e-18)
(0.653768 -0.517875 2.04913e-18)
(0.657507 -0.510399 1.46418e-20)
(0.661196 -0.503411 0)
(0.664801 -0.496879 1.97719e-18)
(0.668397 -0.490717 -5.86626e-18)
(0.671245 -0.485347 1.92704e-18)
(0.675066 -0.47632 1.9747e-18)
(0.089529 -0.193587 -1.32485e-18)
(0.286237 -0.560233 -4.33734e-18)
(0.421107 -0.759702 -2.20589e-21)
(0.498394 -0.843669 1.1232e-20)
(0.543381 -0.863343 -1.54826e-18)
(0.569922 -0.851853 0)
(0.586476 -0.826774 -1.05932e-18)
(0.597257 -0.796911 -6.47312e-18)
(0.604817 -0.766547 3.26577e-18)
(0.61055 -0.737584 -2.17624e-18)
(0.615256 -0.71072 3.27717e-18)
(0.619256 -0.686228 -1.09464e-18)
(0.622949 -0.664055 2.1959e-18)
(0.62656 -0.644017 -5.45838e-18)
(0.630078 -0.625888 3.26966e-18)
(0.633509 -0.609514 -7.00726e-21)
(0.6369 -0.594717 -6.45595e-18)
(0.640308 -0.581301 2.13786e-18)
(0.64371 -0.569104 -2.12184e-18)
(0.647118 -0.557978 0)
(0.650551 -0.547789 2.07942e-18)
(0.654001 -0.538427 0)
(0.657443 -0.529808 -2.04758e-18)
(0.660866 -0.521831 2.02747e-18)
(0.664296 -0.514388 2.01348e-18)
(0.667707 -0.507413 1.9775e-18)
(0.671071 -0.500867 0)
(0.674428 -0.494664 0)
(0.677024 -0.489133 -3.85181e-18)
(0.680421 -0.479684 5.88692e-18)
(0.0975039 -0.196884 1.32835e-18)
(0.30733 -0.565054 2.39865e-18)
(0.448607 -0.764534 -1.95576e-18)
(0.5278 -0.847999 4.0257e-18)
(0.57221 -0.86697 5.3006e-19)
(0.597042 -0.854876 5.27028e-19)
(0.61149 -0.829346 1.82785e-20)
(0.620157 -0.799225 -2.12869e-18)
(0.625686 -0.768728 -1.07366e-18)
(0.629576 -0.739737 1.44112e-20)
(0.632683 -0.712947 -1.44728e-20)
(0.635265 -0.688562 -3.25767e-18)
(0.63765 -0.666477 -1.08035e-18)
(0.640096 -0.646526 1.45111e-20)
(0.642601 -0.628507 2.15341e-18)
(0.64512 -0.612259 2.14295e-18)
(0.647674 -0.597585 1.44827e-20)
(0.650333 -0.584291 -2.11608e-18)
(0.653067 -0.572208 2.10744e-18)
(0.655882 -0.561196 -2.09041e-18)
(0.658785 -0.551119 -4.14453e-18)
(0.661765 -0.541874 -2.05301e-18)
(0.664802 -0.533366 4.05976e-18)
(0.667883 -0.525481 0)
(0.671022 -0.518112 -1.98469e-18)
(0.674182 -0.511197 -3.94084e-18)
(0.677338 -0.504674 -3.89641e-18)
(0.680494 -0.498449 1.93462e-18)
(0.682866 -0.492736 -5.72024e-18)
(0.685838 -0.482841 1.96085e-18)
(0.105765 -0.200022 -2.17926e-18)
(0.328804 -0.569114 4.74839e-19)
(0.476405 -0.768194 1.95578e-18)
(0.557388 -0.850955 -1.50438e-18)
(0.601095 -0.869144 5.1682e-19)
(0.624117 -0.85646 -5.10752e-21)
(0.636382 -0.830532 5.26729e-18)
(0.642906 -0.80025 2.13634e-18)
(0.646427 -0.769744 2.15178e-18)
(0.64846 -0.740826 3.24022e-18)
(0.649936 -0.714181 -3.24685e-18)
(0.651117 -0.689969 2.16909e-18)
(0.652226 -0.668046 4.32742e-18)
(0.653507 -0.648253 2.15518e-18)
(0.654983 -0.630408 -6.85371e-21)
(0.65659 -0.614338 -4.27848e-18)
(0.658316 -0.599833 4.25387e-18)
(0.660225 -0.586699 7.30224e-21)
(0.66229 -0.574776 -2.09302e-18)
(0.664507 -0.563927 2.07611e-18)
(0.666877 -0.554014 2.06511e-18)
(0.669387 -0.544937 -2.03175e-18)
(0.672023 -0.536584 -4.04507e-18)
(0.674772 -0.528844 6.97992e-22)
(0.677636 -0.521607 1.99223e-18)
(0.680574 -0.514802 1.96334e-18)
(0.683565 -0.508337 3.86801e-18)
(0.686569 -0.502111 -3.81201e-18)
(0.688758 -0.496199 0)
(0.691311 -0.485847 1.95368e-18)
(0.114304 -0.202973 1.3085e-20)
(0.350614 -0.572381 0)
(0.504429 -0.77066 -1.44241e-18)
(0.58706 -0.852511 -4.9446e-19)
(0.629939 -0.869853 -2.02204e-18)
(0.651063 -0.8566 0)
(0.661079 -0.830349 -3.14934e-18)
(0.665414 -0.800001 1.05576e-18)
(0.666952 -0.769602 0)
(0.667155 -0.740861 -2.13354e-18)
(0.666984 -0.71443 0)
(0.66676 -0.690454 -3.21472e-18)
(0.666623 -0.668769 3.21046e-18)
(0.666752 -0.649212 -2.14727e-18)
(0.667192 -0.6316 -2.1249e-18)
(0.667886 -0.615752 0)
(0.668788 -0.601458 0)
(0.66995 -0.588532 2.09463e-18)
(0.671341 -0.576818 -2.14275e-22)
(0.672955 -0.566178 2.05439e-18)
(0.674787 -0.556476 -2.04388e-18)
(0.676824 -0.547612 4.05628e-18)
(0.679058 -0.53947 -2.00526e-18)
(0.681478 -0.531933 0)
(0.68408 -0.524887 5.89689e-18)
(0.686826 -0.518248 -9.70416e-18)
(0.689698 -0.511898 1.92845e-18)
(0.69261 -0.505717 1.90567e-18)
(0.694664 -0.499613 1.86987e-18)
(0.696807 -0.488819 3.87985e-18)
(0.123109 -0.20571 -1.70331e-18)
(0.37272 -0.574833 3.72806e-18)
(0.532622 -0.771924 1.92771e-18)
(0.616728 -0.852654 4.42218e-18)
(0.658642 -0.869088 5.5366e-18)
(0.677783 -0.855294 1.02797e-18)
(0.685513 -0.828816 -5.18328e-18)
(0.687613 -0.798499 0)
(0.68717 -0.768306 -4.219e-18)
(0.685595 -0.739841 -2.10548e-18)
(0.68379 -0.713705 0)
(0.682152 -0.690037 -2.11217e-18)
(0.680789 -0.66867 -6.40958e-21)
(0.679793 -0.649419 -6.36288e-18)
(0.679203 -0.632092 2.125e-18)
(0.678979 -0.616508 2.10756e-18)
(0.67906 -0.602473 -4.17558e-18)
(0.679475 -0.589803 -4.16107e-18)
(0.68019 -0.578337 3.00209e-22)
(0.681192 -0.567942 -6.90893e-21)
(0.682474 -0.558495 0)
(0.684027 -0.549898 -2.01037e-18)
(0.685853 -0.542022 -1.97675e-18)
(0.68794 -0.534746 0)
(0.690286 -0.527962 0)
(0.692861 -0.521576 5.79131e-18)
(0.695655 -0.515434 -5.70146e-18)
(0.698538 -0.509375 0)
(0.700509 -0.503121 5.56854e-18)
(0.702245 -0.491943 -3.87035e-18)
(0.132169 -0.208206 2.53875e-20)
(0.39508 -0.576453 -3.72731e-18)
(0.56093 -0.771976 -4.75892e-19)
(0.64632 -0.851376 -4.9099e-18)
(0.687115 -0.86685 -3.0195e-18)
(0.704179 -0.852551 1.02113e-18)
(0.709606 -0.825955 2.0804e-18)
(0.709451 -0.795771 5.20285e-18)
(0.707012 -0.765871 4.21916e-18)
(0.703701 -0.737775 4.23927e-18)
(0.700305 -0.712023 0)
(0.697256 -0.688742 2.8041e-20)
(0.694676 -0.667763 0)
(0.692582 -0.648874 4.23789e-18)
(0.690977 -0.631877 0)
(0.689836 -0.616605 -2.09349e-18)
(0.689096 -0.60288 2.10893e-18)
(0.688765 -0.590502 0)
(0.6888 -0.579315 0)
(0.689179 -0.569203 -6.0873e-18)
(0.689896 -0.560063 2.01605e-18)
(0.690949 -0.551785 0)
(0.69235 -0.544227 3.95545e-18)
(0.694089 -0.537282 3.92738e-18)
(0.696168 -0.530857 -7.74447e-18)
(0.698576 -0.524837 7.65987e-18)
(0.701322 -0.519023 1.24048e-20)
(0.704228 -0.51321 3.7307e-18)
(0.706158 -0.506904 -3.71333e-18)
(0.707452 -0.495458 0)
(0.141471 -0.210438 4.25575e-18)
(0.417654 -0.57722 -4.60969e-19)
(0.589288 -0.770791 -3.77442e-18)
(0.675759 -0.848668 0)
(0.715277 -0.863149 -3.9627e-18)
(0.730159 -0.848392 0)
(0.733271 -0.821785 -5.11944e-18)
(0.730875 -0.791843 -3.12609e-18)
(0.726425 -0.76232 -4.16426e-18)
(0.721405 -0.734677 0)
(0.716471 -0.709397 1.05275e-18)
(0.712031 -0.686583 1.08203e-18)
(0.70824 -0.666048 -2.10235e-18)
(0.705071 -0.647566 -4.18203e-18)
(0.702472 -0.630949 -2.07579e-18)
(0.700421 -0.616044 -8.30388e-18)
(0.698861 -0.602668 4.14801e-18)
(0.697787 -0.590609 2.63337e-22)
(0.697137 -0.579734 4.20781e-22)
(0.69688 -0.569958 6.07428e-18)
(0.697014 -0.561176 0)
(0.697545 -0.553252 0)
(0.698491 -0.546064 -1.46504e-20)
(0.699845 -0.539536 1.27207e-20)
(0.701621 -0.533574 -3.83207e-18)
(0.703839 -0.52804 -3.80237e-18)
(0.706532 -0.52271 1.4055e-20)
(0.70948 -0.517335 -3.73091e-18)
(0.711378 -0.511145 -3.67375e-18)
(0.712138 -0.499666 1.38571e-20)
(0.151003 -0.212387 0)
(0.440401 -0.577109 3.64832e-18)
(0.617622 -0.76834 3.30261e-18)
(0.704957 -0.844518 4.8084e-19)
(0.743049 -0.857994 7.89935e-18)
(0.755646 -0.842842 -1.00775e-18)
(0.756418 -0.816325 8.1523e-18)
(0.751823 -0.786733 4.10402e-18)
(0.745372 -0.757679 6.23952e-18)
(0.738654 -0.730575 3.11559e-18)
(0.732234 -0.705852 1.04593e-18)
(0.72644 -0.683575 5.24499e-18)
(0.721451 -0.663534 1.51207e-21)
(0.717224 -0.645506 2.09868e-18)
(0.713653 -0.629321 4.16615e-18)
(0.710705 -0.614831 4.14531e-18)
(0.708332 -0.60183 0)
(0.706514 -0.590116 0)
(0.705171 -0.5796 0)
(0.704266 -0.570208 0)
(0.703799 -0.561803 3.96339e-18)
(0.703775 -0.554259 0)
(0.704216 -0.547498 -1.25432e-20)
(0.705123 -0.541459 7.70753e-18)
(0.706525 -0.536037 3.82001e-18)
(0.708476 -0.531117 3.77822e-18)
(0.711045 -0.526477 7.47032e-18)
(0.713991 -0.52179 0)
(0.715811 -0.515993 -7.2868e-18)
(0.715876 -0.50493 7.69985e-18)
(0.160754 -0.214034 3.33372e-18)
(0.463283 -0.576088 -3.64841e-18)
(0.645859 -0.764598 0)
(0.733821 -0.838922 -3.82272e-18)
(0.770344 -0.8514 -1.00966e-18)
(0.780573 -0.835931 -2.98688e-18)
(0.778968 -0.809597 -9.11842e-18)
(0.772225 -0.780464 -2.97201e-20)
(0.763818 -0.751986 -3.08133e-18)
(0.755416 -0.725509 -7.25119e-18)
(0.747553 -0.701422 -1.03778e-18)
(0.740453 -0.679742 -4.14351e-18)
(0.734287 -0.660246 -4.13874e-18)
(0.729019 -0.642722 0)
(0.724496 -0.627018 -4.11155e-18)
(0.72067 -0.612973 -6.14276e-18)
(0.717491 -0.600367 2.03966e-18)
(0.714929 -0.589036 -4.03742e-18)
(0.712885 -0.578921 -4.00618e-18)
(0.71132 -0.569925 0)
(0.710228 -0.561894 -7.90018e-18)
(0.709606 -0.554757 0)
(0.709479 -0.548463 -7.75939e-18)
(0.709856 -0.542935 -3.83246e-18)
(0.710769 -0.538113 -7.58528e-18)
(0.712301 -0.533944 3.75041e-18)
(0.714579 -0.530183 -1.11298e-17)
(0.717361 -0.526479 3.65525e-18)
(0.718951 -0.521504 2.42245e-20)
(0.718047 -0.511685 -3.83912e-18)
(0.170716 -0.21536 -3.33379e-18)
(0.486262 -0.574127 4.523e-19)
(0.673929 -0.759556 3.23539e-18)
(0.762263 -0.831891 3.82283e-18)
(0.797073 -0.843385 -3.91101e-18)
(0.804877 -0.827687 2.55509e-20)
(0.800855 -0.801633 4.03885e-18)
(0.792006 -0.773069 -8.13593e-18)
(0.781714 -0.745277 -9.99292e-19)
(0.771658 -0.719516 9.26363e-18)
(0.762386 -0.696133 -6.18011e-18)
(0.754031 -0.675106 1.03249e-17)
(0.746724 -0.656209 1.03146e-17)
(0.740434 -0.639242 -2.05675e-18)
(0.734981 -0.624055 4.11179e-18)
(0.730297 -0.610472 6.12953e-18)
(0.726325 -0.598289 2.01282e-18)
(0.723018 -0.58738 2.68707e-20)
(0.72027 -0.577678 2.01034e-18)
(0.718035 -0.56906 1.97996e-18)
(0.716293 -0.561408 -1.93429e-18)
(0.71503 -0.554698 1.94338e-18)
(0.71427 -0.548857 -3.83349e-18)
(0.714017 -0.543833 3.8203e-18)
(0.714293 -0.539663 2.64642e-20)
(0.715193 -0.53631 3.71236e-18)
(0.716898 -0.533557 2.56621e-20)
(0.719168 -0.531138 -3.64348e-18)
(0.720177 -0.527504 1.14957e-20)
(0.717986 -0.519746 0)
(0.180881 -0.21634 0)
(0.509293 -0.571197 0)
(0.70176 -0.753205 -4.16078e-18)
(0.790197 -0.823436 4.71318e-19)
(0.823136 -0.833964 0)
(0.828481 -0.81813 3.95748e-18)
(0.82202 -0.792466 1.00185e-18)
(0.811094 -0.764582 3.04636e-18)
(0.799 -0.737579 4.08511e-18)
(0.787339 -0.712617 -4.1047e-18)
(0.776692 -0.690003 4.11513e-18)
(0.767134 -0.669689 -4.11744e-18)
(0.758729 -0.651449 -4.11256e-18)
(0.751443 -0.635079 0)
(0.745085 -0.620432 0)
(0.739568 -0.607336 0)
(0.734818 -0.595611 -4.03933e-18)
(0.730775 -0.585141 6.00956e-18)
(0.727324 -0.575839 -1.98356e-18)
(0.724415 -0.567593 0)
(0.722006 -0.56033 5.85804e-18)
(0.720066 -0.55402 -1.9302e-18)
(0.718611 -0.548584 3.83374e-18)
(0.717628 -0.544055 -7.54685e-18)
(0.717116 -0.540505 7.49469e-18)
(0.71716 -0.537931 -1.37812e-20)
(0.71798 -0.536263 1.21961e-20)
(0.719332 -0.535375 3.61806e-18)
(0.719535 -0.533491 -1.02739e-22)
(0.715047 -0.530015 3.83159e-18)
(0.191239 -0.216948 4.09617e-19)
(0.532332 -0.567275 -4.45025e-19)
(0.729277 -0.745547 9.19174e-19)
(0.817547 -0.813575 -5.63055e-18)
(0.848443 -0.823161 9.5853e-19)
(0.851304 -0.807292 0)
(0.842414 -0.782139 3.96319e-18)
(0.829436 -0.755045 -4.00452e-18)
(0.815617 -0.728925 0)
(0.80242 -0.70484 5.07093e-18)
(0.790436 -0.683062 -1.01832e-18)
(0.779724 -0.663524 0)
(0.770271 -0.645987 -2.03719e-18)
(0.762022 -0.630244 4.06207e-18)
(0.754786 -0.616164 -2.02271e-18)
(0.748464 -0.603589 2.01225e-18)
(0.742961 -0.592347 -3.99972e-18)
(0.738199 -0.582314 6.49769e-22)
(0.734059 -0.573408 8.83846e-22)
(0.730482 -0.565542 -1.93967e-18)
(0.727401 -0.558643 -3.86933e-18)
(0.724764 -0.55267 2.59248e-21)
(0.722564 -0.54759 1.45151e-20)
(0.720752 -0.54347 3.76758e-18)
(0.719286 -0.540382 -3.71294e-18)
(0.718208 -0.538477 3.68701e-18)
(0.71774 -0.537805 -7.266e-18)
(0.717855 -0.538678 -1.25182e-20)
(0.717049 -0.539531 -7.09298e-18)
(0.710614 -0.543806 3.82732e-18)
(0.201784 -0.217168 0)
(0.555332 -0.562348 -3.52641e-18)
(0.7564 -0.73659 0)
(0.844239 -0.802338 2.31281e-20)
(0.872916 -0.811023 9.59322e-19)
(0.873272 -0.795227 5.31427e-21)
(0.861998 -0.770714 -7.89851e-18)
(0.847 -0.744517 3.00841e-18)
(0.831521 -0.71936 0)
(0.816864 -0.696227 -5.0649e-18)
(0.803596 -0.675358 1.01207e-18)
(0.791776 -0.656648 0)
(0.781321 -0.639844 -2.02445e-18)
(0.772149 -0.624756 2.01804e-18)
(0.76407 -0.611282 1.99743e-18)
(0.756977 -0.599261 3.99894e-18)
(0.750749 -0.588509 -1.98724e-18)
(0.745293 -0.578915 0)
(0.740491 -0.570421 0)
(0.736267 -0.562922 3.89367e-18)
(0.732529 -0.55633 -3.84321e-18)
(0.729205 -0.550643 3.80841e-18)
(0.726252 -0.545831 3.78119e-18)
(0.72356 -0.54191 3.72666e-18)
(0.720996 -0.539023 -3.68893e-18)
(0.71846 -0.537358 3.66023e-18)
(0.715853 -0.537168 3.60581e-18)
(0.712942 -0.539016 -3.56673e-18)
(0.707444 -0.542057 1.21888e-20)
(0.687317 -0.557716 7.63826e-18)
(0.212527 -0.216992 4.04374e-19)
(0.578242 -0.556392 3.08873e-18)
(0.782998 -0.726313 0)
(0.870139 -0.789717 3.72862e-18)
(0.896438 -0.797564 0)
(0.894274 -0.781967 0)
(0.880697 -0.75823 2.95671e-18)
(0.863732 -0.73303 -3.07582e-21)
(0.846654 -0.708916 9.9828e-19)
(0.83062 -0.686814 1.00518e-18)
(0.816134 -0.666923 -3.02097e-18)
(0.803254 -0.649077 2.01364e-18)
(0.791843 -0.633032 0)
(0.781791 -0.618642 0)
(0.772912 -0.605817 -4.0082e-18)
(0.765083 -0.594362 0)
(0.758161 -0.584103 -1.97416e-18)
(0.752047 -0.574973 1.96069e-18)
(0.74662 -0.566894 1.94395e-18)
(0.741782 -0.559719 -1.3646e-21)
(0.737424 -0.553407 -1.9103e-18)
(0.733467 -0.547966 0)
(0.729833 -0.543275 -3.74045e-18)
(0.726368 -0.53935 3.70373e-18)
(0.722878 -0.536303 0)
(0.719082 -0.534132 0)
(0.714729 -0.532821 0)
(0.709078 -0.532205 0)
(0.694121 -0.535826 -3.49805e-18)
(0.678888 -0.533368 7.73965e-18)
(0.620088 -0.358428 -0.107378)
(0.6566 -0.351664 -0.112319)
(0.682975 -0.345886 -0.112633)
(0.704527 -0.338424 -0.112364)
(0.723996 -0.330693 -0.111591)
(0.740578 -0.322972 -0.110324)
(0.755034 -0.315557 -0.108504)
(0.76769 -0.308622 -0.106174)
(0.778714 -0.301714 -0.103422)
(0.788426 -0.294827 -0.100285)
(0.796805 -0.288184 -0.0967257)
(0.804115 -0.281137 -0.092888)
(0.810547 -0.273797 -0.0889006)
(0.816068 -0.267203 -0.0848704)
(0.820969 -0.260196 -0.0808762)
(0.825129 -0.252817 -0.0769944)
(0.828667 -0.246638 -0.0735522)
(0.831595 -0.240003 -0.0704871)
(0.833696 -0.23354 -0.0678928)
(0.835524 -0.228402 -0.0662097)
(0.836858 -0.222411 -0.0652253)
(0.837819 -0.218031 -0.0649445)
(0.838888 -0.213649 -0.0655061)
(0.840779 -0.209843 -0.0668402)
(0.842679 -0.207096 -0.0694276)
(0.852534 -0.204202 -0.0708561)
(0.842115 -0.201904 -0.0764824)
(0.910328 -0.201924 -0.0775551)
(0.763415 -0.183641 -0.0806505)
(1.02745 -0.234774 -0.0838188)
(0.622152 -0.364724 -0.106604)
(0.658876 -0.356747 -0.111525)
(0.68508 -0.350793 -0.111949)