/*--------------------------------*- C++ -*----------------------------------*\
  =========                 |
  \\      /  F ield         | OpenFOAM: The Open Source CFD Toolbox
   \\    /   O peration     | Website:  https://openfoam.org
    \\  /    A nd           | Version:  7
     \\/     M anipulation  |
\*---------------------------------------------------------------------------*/
FoamFile
{
    version     2.0;
    format      ascii;
    class       volVectorField;
    location    "91";
    object      U;
}
// * * * * * * * * * * * * * * * * * * * * * * * * * * * * * * * * * * * * * //

dimensions      [0 1 -1 0 0 0 0];

internalField   nonuniform List<vector> 
2000
(
(-0.000102313 -0.00484245 -1.9484e-22)
(1.73809e-05 -0.0114855 0)
(0.000476786 -0.0153371 0)
(0.00122578 -0.0168255 -9.98022e-22)
(0.00221655 -0.0162244 3.24523e-22)
(0.00342583 -0.0137147 1.3011e-23)
(0.00485199 -0.00942401 -5.58704e-22)
(0.00649994 -0.0034627 0)
(0.00837211 0.00404997 0)
(0.0103615 0.0129703 0)
(0.000363979 -0.00469726 0)
(0.00132921 -0.0115046 -7.61369e-22)
(0.00253652 -0.0155682 7.02135e-22)
(0.00380888 -0.0172921 1.33326e-21)
(0.00510803 -0.0169569 0)
(0.00642117 -0.0147604 1.21968e-21)
(0.00776097 -0.0108402 -1.13422e-21)
(0.00915282 -0.00529856 0)
(0.0106345 0.00177735 2.08772e-21)
(0.01211 0.0102915 -4.02032e-21)
(0.000870034 -0.00463345 0)
(0.00282486 -0.0116206 6.0811e-21)
(0.00495034 -0.0158501 0)
(0.00690761 -0.0177487 5.43643e-21)
(0.00866818 -0.0176152 0)
(0.0102305 -0.0156731 -4.90544e-21)
(0.0116216 -0.0120772 0)
(0.0128862 -0.00692922 4.4571e-21)
(0.0140978 -0.000289482 -4.17435e-21)
(0.0151683 0.00778529 -4.09751e-21)
(0.00144651 -0.00467197 -1.58091e-21)
(0.00454414 -0.0118562 -3.03679e-21)
(0.00774199 -0.0161939 -1.42215e-21)
(0.0105244 -0.0181918 -2.67002e-21)
(0.0128778 -0.0181789 -2.55524e-21)
(0.0148171 -0.016412 2.41329e-21)
(0.0163873 -0.0130701 2.31731e-21)
(0.0176526 -0.00826172 -2.49087e-23)
(0.0187208 -0.00202664 4.21344e-21)
(0.0195124 0.00560588 4.0956e-21)
(0.0021276 -0.00482453 -1.55317e-21)
(0.00652595 -0.0122185 -3.09857e-21)
(0.0109243 -0.0165975 -5.88469e-21)
(0.0146374 -0.0186116 2.70701e-21)
(0.0176778 -0.0186319 0)
(0.0200872 -0.0169541 0)
(0.0219354 -0.0137857 -4.76058e-21)
(0.0233096 -0.00924762 -4.51864e-21)
(0.0243493 -0.00336436 4.26757e-21)
(0.0249866 0.00385023 1.23262e-20)
(0.00294795 -0.00508952 1.58008e-21)
(0.0088021 -0.0126934 1.61048e-21)
(0.0144918 -0.0170422 -8.73207e-21)
(0.0191937 -0.0189909 1.3867e-20)
(0.022964 -0.0189631 -2.58494e-21)
(0.0258848 -0.0172967 0)
(0.0280621 -0.0142296 0)
(0.0296123 -0.00989695 2.24994e-20)
(0.030705 -0.00430998 -2.13006e-20)
(0.0312853 0.00252544 4.04783e-21)
(0.00393808 -0.00544985 1.23195e-20)
(0.0113903 -0.0132451 0)
(0.0184148 -0.0174926 1.16685e-20)
(0.0241062 -0.0193046 -1.10688e-20)
(0.0285868 -0.0191656 0)
(0.0319966 -0.0174569 5.03288e-21)
(0.0344912 -0.0144458 -1.41148e-20)
(0.036226 -0.0102812 -1.79739e-20)
(0.0374007 -0.00495854 8.43584e-21)
(0.0379711 0.00152965 8.19471e-21)
(0.00511955 -0.0058735 -2.46437e-20)
(0.0142874 -0.0138175 -3.14165e-21)
(0.0226344 -0.0178985 -5.92086e-21)
(0.0292529 -0.0195217 -1.39167e-20)
(0.0343576 -0.0192366 -5.32512e-21)
(0.0381656 -0.0174668 -5.02817e-21)
(0.0408962 -0.0145075 3.99509e-23)
(0.0427564 -0.0105209 0)
(0.0439825 -0.0054823 0)
(0.0445352 0.0006556 3.95181e-23)
(0.00650059 -0.00631584 1.23245e-20)
(0.0174633 -0.0143394 -1.25343e-20)
(0.02706 -0.0182004 8.80192e-21)
(0.03448 -0.0196087 1.95908e-20)
(0.0400599 -0.0191777 -5.22623e-21)
(0.0441125 -0.0173679 5.02409e-21)
(0.0469335 -0.0144998 4.73857e-21)
(0.0487926 -0.0107525 0)
(0.0499791 -0.00608405 0)
(0.0504703 -0.000376075 -1.9223e-22)
(0.00807303 -0.00672414 -1.55299e-21)
(0.0208573 -0.0147311 1.57277e-20)
(0.0315697 -0.018337 -2.94289e-21)
(0.0396095 -0.0195365 0)
(0.0454664 -0.018998 0)
(0.049567 -0.017207 9.94813e-21)
(0.0522904 -0.0145016 0)
(0.0539708 -0.0110832 -8.73854e-21)
(0.0549609 -0.00692231 1.15923e-23)
(0.0553014 -0.00185311 7.82741e-21)
(0.0143366 0.035615 1.53028e-22)
(0.0252285 0.0878111 -1.54741e-22)
(0.0337436 0.143708 -1.73161e-22)
(0.0357194 0.195813 -1.9486e-22)
(0.0321694 0.246845 -2.37292e-22)
(0.0285573 0.300672 -8.73857e-24)
(0.0179205 0.362677 1.24109e-22)
(0.015126 0.449109 4.45828e-22)
(-0.00318108 0.581538 0)
(0.00438868 0.739653 -3.25318e-22)
(0.0143725 0.0321693 5.93224e-22)
(0.022834 0.0833439 -6.63886e-22)
(0.0313666 0.140951 1.18402e-21)
(0.0337715 0.194917 1.95179e-22)
(0.0306501 0.247195 4.20985e-22)
(0.0273523 0.301838 7.23373e-22)
(0.0171931 0.36437 -2.68944e-22)
(0.0144855 0.451133 -2.99322e-22)
(-0.00304308 0.582912 5.77054e-22)
(0.00399132 0.739422 3.24549e-22)
(0.015823 0.0287178 0)
(0.0211709 0.0781816 -6.48173e-22)
(0.0293552 0.137126 -3.42591e-22)
(0.0320826 0.193022 0)
(0.0293362 0.24667 -1.29696e-21)
(0.0263316 0.302214 4.05977e-22)
(0.0165951 0.365293 4.53192e-22)
(0.0139316 0.452329 1.6153e-21)
(-0.00287713 0.583805 -5.75184e-22)
(0.00363906 0.739019 1.17244e-21)
(0.0187508 0.025452 0)
(0.0203823 0.0725519 6.53601e-22)
(0.0277325 0.132286 0)
(0.0306436 0.190116 1.52068e-21)
(0.0282133 0.245261 -1.52859e-21)
(0.0254793 0.301803 -9.20889e-22)
(0.0161119 0.365435 -5.28259e-23)
(0.013473 0.452688 -1.58481e-21)
(-0.00268615 0.584033 -2.5796e-22)
(0.00331132 0.738271 -1.44118e-21)
(0.0230722 0.0225228 3.5421e-23)
(0.020617 0.0667224 -1.8721e-21)
(0.026537 0.126533 5.05355e-23)
(0.0294478 0.186208 -1.37793e-21)
(0.0272669 0.242967 0)
(0.0247779 0.300623 -8.81625e-22)
(0.015728 0.364861 -7.33253e-23)
(0.0130948 0.452392 1.98883e-21)
(-0.0024898 0.583907 2.61349e-22)
(0.00300942 0.737471 -2.6231e-22)
(0.0285119 0.0200081 -5.05946e-21)
(0.0219729 0.0609669 3.20619e-21)
(0.0258236 0.120022 1.35505e-21)
(0.0284924 0.181332 -1.3544e-21)
(0.0264838 0.23979 -7.28517e-22)
(0.0242163 0.298658 0)
(0.0154429 0.363505 -1.7642e-21)
(0.012807 0.451205 8.87221e-22)
(-0.00228093 0.582883 9.59713e-22)
(0.00271209 0.736218 1.00301e-21)
(0.0345942 0.0179034 -6.08145e-22)
(0.0244168 0.0555346 0)
(0.0256513 0.112969 0)
(0.0277795 0.175548 0)
(0.0258479 0.235766 -7.74874e-22)
(0.023774 0.29603 1.5011e-21)
(0.0152318 0.361651 1.72117e-21)
(0.0125656 0.44975 -2.6858e-21)
(-0.00209501 0.581998 4.72317e-22)
(0.00244246 0.735197 -1.46118e-21)
(0.0406737 0.0161045 3.80656e-21)
(0.0277035 0.050518 2.62258e-21)
(0.0260421 0.105595 -2.5986e-21)
(0.0273129 0.168969 2.73569e-21)
(0.0253562 0.23083 -3.39486e-21)
(0.0234528 0.292454 0)
(0.0151198 0.358706 -7.76584e-22)
(0.012431 0.446854 3.79941e-23)
(-0.00188293 0.579501 -8.51043e-22)
(0.00215737 0.733392 -9.04971e-22)
(0.045959 0.014234 -3.22884e-21)
(0.0313333 0.0455332 0)
(0.0269414 0.0977097 -2.92473e-21)
(0.0270679 0.161617 5.24714e-21)
(0.0249695 0.225462 -1.94992e-21)
(0.0232079 0.288961 -3.54919e-22)
(0.0150285 0.356327 7.74896e-22)
(0.0122558 0.445172 1.0462e-23)
(-0.00175715 0.578627 1.23174e-21)
(0.00191434 0.732427 1.3132e-21)
(0.0494865 0.0121678 -2.6271e-21)
(0.0346062 0.0405915 2.56982e-21)
(0.0282308 0.0890798 3.26507e-22)
(0.0271456 0.152145 0)
(0.0247117 0.217106 0)
(0.0231004 0.282177 3.5022e-22)
(0.0151338 0.350315 1.47374e-21)
(0.0123484 0.439189 -1.43167e-21)
(-0.00150568 0.573701 -3.85354e-22)
(0.00162285 0.729844 3.72568e-22)
(0.0512364 0.0131777 0)
(0.0389791 0.0389845 0)
(0.0305663 0.0832083 0)
(0.0279886 0.146569 0)
(0.024875 0.21447 0)
(0.0224686 0.282345 0)
(0.0145894 0.352253 0)
(0.0114163 0.442446 0)
(-0.00167123 0.576075 0)
(0.00111355 0.72892 0)
(0.0527539 0.0270224 0)
(0.0424986 0.0562554 0)
(0.0321875 0.0955846 0)
(0.027464 0.152807 0)
(0.0240812 0.218776 0)
(0.02137 0.287115 0)
(0.013989 0.358598 0)
(0.0104275 0.450068 0)
(-0.00148602 0.581936 0)
(0.000689928 0.728634 0)
(0.0498899 0.0305826 0)
(0.0434481 0.0643206 0)
(0.0338638 0.104028 0)
(0.0275185 0.158909 0)
(0.0233135 0.223873 0)
(0.0201821 0.292242 0)
(0.0132733 0.364406 0)
(0.009494 0.456125 0)
(-0.00136238 0.586239 0)
(0.000361462 0.727968 0)
(0.045142 0.0325787 0)
(0.0417133 0.0703374 0)
(0.0341472 0.110982 0)
(0.027571 0.164368 0)
(0.0227881 0.228808 0)
(0.0192207 0.297939 0)
(0.0126724 0.371612 0)
(0.00877282 0.464231 0)
(-0.001031 0.592335 0)
(0.00020189 0.727964 0)
(0.0398991 0.0328935 0)
(0.038547 0.074704 0)
(0.033028 0.11712 0)
(0.0270856 0.169518 0)
(0.0222351 0.232941 0)
(0.0184301 0.302039 0)
(0.0121542 0.376295 0)
(0.0081086 0.469077 0)
(-0.000930732 0.595668 0)
(2.5314e-06 0.727255 0)
(0.0343792 0.0317418 0)
(0.0346824 0.0772829 0)
(0.0309055 0.122095 0)
(0.025883 0.174595 0)
(0.0213815 0.23775 0)
(0.0176519 0.307501 0)
(0.0117751 0.383215 0)
(0.00768384 0.476925 0)
(-0.000567568 0.601461 0)
(-5.50627e-05 0.727174 0)
(0.0288015 0.0293121 0)
(0.0306336 0.0783376 0)
(0.0285368 0.12588 0)
(0.0245147 0.178796 0)
(0.0204177 0.241293 0)
(0.016825 0.310686 0)
(0.0113066 0.386563 0)
(0.00721473 0.480202 0)
(-0.000522663 0.603595 0)
(-0.000187212 0.726446 0)
(0.0231618 0.0254582 0)
(0.0263579 0.0774784 0)
(0.0256549 0.127977 0)
(0.02278 0.182644 0)
(0.0193697 0.246039 0)
(0.0160781 0.316514 0)
(0.0110017 0.393913 0)
(0.00694815 0.488418 0)
(-0.00010716 0.609515 0)
(-0.000162773 0.726426 0)
(0.0183424 0.0219931 0)
(0.0233298 0.0768597 0)
(0.0238883 0.129799 0)
(0.0216714 0.185053 0)
(0.0185805 0.248113 0)
(0.0154392 0.318291 0)
(0.0106136 0.395743 0)
(0.00663105 0.490077 0)
(-0.00011243 0.610563 0)
(-0.000237067 0.725934 0)
(0.0123232 0.0110283 0)
(0.0180824 0.0696062 0)
(0.0210331 0.128162 0)
(0.020516 0.187677 0)
(0.0181892 0.253029 0)
(0.0152434 0.324928 0)
(0.0106791 0.404114 0)
(0.00659051 0.499348 0)
(0.000432078 0.61709 0)
(-0.000140562 0.726065 0)
(0.0575177 0.00315262 2.29912e-21)
(0.0559847 0.0089567 -2.2594e-21)
(0.0507701 0.00941298 1.9709e-22)
(0.0448641 0.00858579 0)
(0.0387313 0.00651546 0)
(0.0324006 0.00349535 6.14398e-23)
(0.0260904 -0.000358793 -8.27261e-23)
(0.0198413 -0.00525677 8.12901e-23)
(0.0140915 -0.00967898 -9.86213e-24)
(0.00749042 -0.0193224 9.68763e-24)
(0.0584862 -0.000965773 -3.03378e-21)
(0.0552688 0.00140575 0)
(0.049377 0.000322732 1.11468e-21)
(0.0432798 -0.00167288 -2.2234e-21)
(0.0370888 -0.00462986 1.11104e-21)
(0.0307437 -0.00828829 -6.00431e-23)
(0.0244196 -0.0126027 5.91942e-23)
(0.0182018 -0.0177917 2.54666e-23)
(0.0122708 -0.022512 -1.72804e-23)
(0.00609241 -0.0313105 -1.96828e-23)
(0.058671 -0.00512994 3.42247e-21)
(0.0541124 -0.00578294 -1.59836e-21)
(0.0478497 -0.00841453 1.58302e-21)
(0.0416364 -0.0116266 -8.89067e-22)
(0.0354038 -0.015499 6.96108e-22)
(0.0290418 -0.0197989 0)
(0.022712 -0.0245367 -5.93296e-23)
(0.0165413 -0.0298984 1.25808e-24)
(0.0105537 -0.0347287 1.30702e-24)
(0.00488454 -0.0424169 2.83357e-23)
(0.058164 -0.00988816 -5.2144e-22)
(0.0525314 -0.0131156 0)
(0.0461325 -0.0170992 0)
(0.0398873 -0.0214018 0)
(0.0336632 -0.0260842 4.62356e-22)
(0.0273176 -0.0309295 -2.85894e-22)
(0.0210138 -0.0359878 2.03467e-23)
(0.0149103 -0.04138 -1.59225e-24)
(0.00899297 -0.0461196 4.53109e-24)
(0.003824 -0.0526057 1.24436e-23)
(0.0569145 -0.0153449 -3.53664e-22)
(0.0504627 -0.0206929 -1.39788e-21)
(0.0441138 -0.0258004 -5.73019e-22)
(0.0379176 -0.0309967 5.72613e-22)
(0.031768 -0.0363262 -1.74254e-22)
(0.025507 -0.0415727 0)
(0.0192958 -0.0468121 -6.01154e-23)
(0.0133225 -0.0520878 3.61505e-23)
(0.00760099 -0.0565607 -1.41475e-23)
(0.00294509 -0.0618669 -1.71617e-23)
(0.0550089 -0.0214263 -3.86396e-21)
(0.0480091 -0.028432 6.38029e-22)
(0.0418545 -0.0344544 1.6011e-22)
(0.0357702 -0.0403288 5.64356e-22)
(0.029758 -0.046129 0)
(0.0236411 -0.0516167 0)
(0.017587 -0.0568911 0)
(0.0118126 -0.0619193 3.05686e-23)
(0.00638615 -0.0659972 0)
(0.00224405 -0.0702168 0)
(0.0525104 -0.0280022 0)
(0.0452745 -0.0361782 1.11052e-21)
(0.0394244 -0.042942 -7.1637e-22)
(0.0335109 -0.0492828 -4.17456e-22)
(0.0276896 -0.0553849 4.19602e-22)
(0.02177 -0.0609605 9.29571e-23)
(0.0159299 -0.0661376 -1.1447e-22)
(0.0104145 -0.0708183 -1.29566e-22)
(0.00534898 -0.0744277 1.05232e-23)
(0.00169722 -0.0776957 4.08588e-24)
(0.0495106 -0.0348554 0)
(0.0423477 -0.0437763 -3.9443e-22)
(0.0368828 -0.0511308 -1.60435e-22)
(0.0311945 -0.0577433 0)
(0.0256111 -0.0639988 5.90558e-23)
(0.0199373 -0.0695296 -2.13828e-22)
(0.0143591 -0.0745038 1.00777e-22)
(0.00915019 -0.0787747 7.48298e-24)
(0.00448031 -0.0818925 -9.36399e-24)
(0.00127829 -0.0843618 -3.21839e-24)
(0.0461342 -0.0418061 5.21779e-22)
(0.0393037 -0.0510885 3.5854e-22)
(0.0342828 -0.0589038 -1.20389e-22)
(0.0288712 -0.065617 6.32382e-23)
(0.0235649 -0.071903 9.09958e-23)
(0.0181789 -0.0772853 9.5453e-23)
(0.0128992 -0.0819826 -2.12469e-23)
(0.00802916 -0.0858188 -1.20383e-23)
(0.00376361 -0.088462 9.39462e-24)
(0.00096217 -0.0902849 9.29308e-25)
(0.0424987 -0.0487077 -1.10224e-22)
(0.0362085 -0.0580124 1.11232e-22)
(0.0316727 -0.0661747 -8.11585e-23)
(0.0265869 -0.0728462 -6.31424e-23)
(0.0215873 -0.0790656 4.07156e-23)
(0.016523 -0.0842268 -7.40107e-23)
(0.0115652 -0.0886048 2.99585e-23)
(0.0070506 -0.0920135 3.26717e-24)
(0.00317822 -0.0942256 0)
(0.000725906 -0.095542 -9.3131e-25)
(0.0387333 -0.0554501 1.12749e-22)
(0.0331335 -0.0644883 -1.13741e-22)
(0.0291043 -0.0728954 -8.52131e-23)
(0.0243878 -0.079413 -6.70415e-23)
(0.0197107 -0.085492 -4.26618e-23)
(0.014991 -0.0903896 6.25568e-24)
(0.0103646 -0.0944324 1.53095e-23)
(0.00620688 -0.097444 2.48425e-23)
(0.00270275 -0.0992821 0)
(0.000549779 -0.100213 -2.24963e-24)
(0.0349694 -0.0619702 0)
(0.0301553 -0.0704987 -3.82605e-22)
(0.0266288 -0.0790536 6.46801e-22)
(0.0223176 -0.085337 6.71405e-23)
(0.0179625 -0.0912195 1.06455e-22)
(0.0135977 -0.0958377 1.14596e-22)
(0.00929852 -0.0995488 -2.48479e-23)
(0.00548632 -0.102208 -1.51917e-23)
(0.00231735 -0.103733 1.80503e-23)
(0.000418152 -0.104379 2.24434e-24)
(0.0313113 -0.0682488 0)
(0.0273355 -0.0760654 -4.40427e-22)
(0.0242817 -0.0846676 -1.76411e-22)
(0.0204047 -0.09067 0)
(0.0163581 -0.096311 -2.9492e-22)
(0.0123475 -0.100655 1.11786e-22)
(0.00836156 -0.104051 6.9409e-23)
(0.00487446 -0.106409 1.18556e-22)
(0.00200445 -0.107679 -1.79914e-23)
(0.000318995 -0.10812 1.29803e-23)
(0.027832 -0.0742983 0)
(0.0247161 -0.0812474 4.44079e-22)
(0.0220818 -0.0897803 0)
(0.0186614 -0.0954889 5.21805e-22)
(0.0149016 -0.100848 -5.2451e-22)
(0.0112357 -0.10494 -1.43179e-22)
(0.00754337 -0.10804 2.96227e-23)
(0.00435567 -0.11015 -1.22686e-22)
(0.00174901 -0.111213 -2.26372e-23)
(0.000243088 -0.111513 -1.9863e-23)
(0.0245818 -0.0801492 4.52457e-21)
(0.0223299 -0.0861358 -1.69844e-21)
(0.020042 -0.0944522 -1.61258e-22)
(0.0170911 -0.0998873 -6.9499e-22)
(0.0135929 -0.104923 0)
(0.0102532 -0.108792 -1.5169e-22)
(0.00683218 -0.11162 4.84949e-23)
(0.00391526 -0.113529 1.82748e-22)
(0.00153904 -0.114427 7.60234e-24)
(0.000183687 -0.114633 -7.59894e-24)
(0.0215871 -0.0858317 3.77237e-22)
(0.0202036 -0.0908489 2.64493e-21)
(0.018176 -0.0987553 7.2465e-22)
(0.0156926 -0.103967 -7.24202e-22)
(0.0124309 -0.108633 -2.5536e-22)
(0.00939012 -0.112314 0)
(0.00621725 -0.114888 -2.47208e-22)
(0.00354091 -0.116638 1.3245e-22)
(0.0013656 -0.117404 6.82511e-23)
(0.000136114 -0.117554 1.7178e-23)
(0.018861 -0.0913539 -6.31457e-22)
(0.0183691 -0.0955259 0)
(0.0165108 -0.102769 0)
(0.0144679 -0.10783 0)
(0.0114196 -0.112079 -2.03338e-22)
(0.00864019 -0.115603 4.58179e-22)
(0.0056912 -0.117939 2.53517e-22)
(0.00322376 -0.119564 -3.02163e-22)
(0.00122271 -0.120222 1.75122e-23)
(9.72389e-05 -0.120344 -3.43528e-23)
(0.0163957 -0.0966803 -1.44541e-21)
(0.0168352 -0.100317 1.96141e-21)
(0.0150672 -0.106577 -1.94288e-21)
(0.0134062 -0.11157 1.26178e-21)
(0.0105562 -0.115354 -1.53116e-21)
(0.00799292 -0.118747 0)
(0.00524523 -0.120856 -1.51868e-22)
(0.00295545 -0.122385 -5.87708e-24)
(0.00110559 -0.122953 -5.72137e-23)
(6.46454e-05 -0.123071 -1.91284e-23)
(0.0139938 -0.101687 -6.83143e-22)
(0.0153996 -0.105363 0)
(0.0137479 -0.110268 -1.91921e-21)
(0.0124064 -0.115275 2.99034e-21)
(0.00977749 -0.118548 -1.02959e-21)
(0.00739947 -0.12183 -1.11397e-22)
(0.0048481 -0.123718 1.51522e-22)
(0.00271652 -0.125171 1.91284e-23)
(0.00100568 -0.125666 1.17286e-22)
(3.74232e-05 -0.1258 3.8065e-23)
(0.0116674 -0.106049 -2.75559e-21)
(0.0139809 -0.110797 2.69556e-21)
(0.0125661 -0.113965 2.46929e-22)
(0.0114625 -0.119033 0)
(0.00907479 -0.12176 0)
(0.00685764 -0.124935 1.14663e-22)
(0.00449656 -0.126603 2.80152e-22)
(0.00250709 -0.127995 -2.74954e-22)
(0.000924745 -0.128426 -2.08903e-23)
(2.60924e-05 -0.128597 2.04536e-23)
(0.0110228 -0.113137 0)
(0.0140767 -0.123819 0)
(0.0122602 -0.12267 0)
(0.0109564 -0.128091 0)
(0.00860887 -0.129607 0)
(0.00640284 -0.132621 0)
(0.00418938 -0.133795 0)
(0.00233114 -0.135058 0)
(0.000890858 -0.13532 0)
(5.75396e-05 -0.135536 0)
(0.0111696 -0.134848 0)
(0.0103071 -0.146936 0)
(0.00865847 -0.142584 0)
(0.00740077 -0.148084 0)
(0.00568648 -0.147682 0)
(0.00422208 -0.150383 0)
(0.00272243 -0.150563 0)
(0.00154137 -0.15162 0)
(0.000593124 -0.151502 0)
(5.98131e-05 -0.151759 0)
(0.0117744 -0.162115 0)
(0.00967509 -0.175275 0)
(0.00787649 -0.168475 0)
(0.0062987 -0.174358 0)
(0.00475883 -0.172312 0)
(0.00343341 -0.17508 0)
(0.0022182 -0.174387 0)
(0.00127767 -0.175485 0)
(0.000527875 -0.17499 0)
(7.16388e-05 -0.175354 0)
(0.012063 -0.196043 0)
(0.00910445 -0.210193 0)
(0.00732176 -0.201772 0)
(0.00547562 -0.208346 0)
(0.00414701 -0.204982 0)
(0.00287745 -0.208149 0)
(0.0019088 -0.206682 0)
(0.0010997 -0.208032 0)
(0.000497731 -0.207138 0)
(7.21688e-05 -0.207701 0)
(0.0119932 -0.236828 0)
(0.00861467 -0.251131 0)
(0.00690587 -0.242301 0)
(0.00486172 -0.249432 0)
(0.00373038 -0.245314 0)
(0.00245357 -0.248975 0)
(0.00169529 -0.246941 0)
(0.000934835 -0.248648 0)
(0.000465029 -0.247398 0)
(5.24902e-05 -0.248236 0)
(0.0112741 -0.282101 0)
(0.00789358 -0.295073 0)
(0.00633435 -0.287392 0)
(0.0042555 -0.294382 0)
(0.00331239 -0.29038 0)
(0.00204637 -0.294228 0)
(0.00146421 -0.292031 0)
(0.000721071 -0.293969 0)
(0.000383861 -0.292537 0)
(7.66533e-06 -0.293605 0)
(0.00973886 -0.32683 0)
(0.006738 -0.337147 0)
(0.0054055 -0.331933 0)
(0.0035187 -0.337864 0)
(0.00275656 -0.334865 0)
(0.00159465 -0.338306 0)
(0.00115063 -0.336458 0)
(0.000457428 -0.338274 0)
(0.00024753 -0.336955 0)
(-4.4636e-05 -0.338042 0)
(0.00746508 -0.365025 0)
(0.0051286 -0.372224 0)
(0.00410431 -0.369952 0)
(0.00261741 -0.374253 0)
(0.00204599 -0.372732 0)
(0.00110993 -0.375272 0)
(0.000782563 -0.374127 0)
(0.000213415 -0.375464 0)
(0.00010795 -0.374513 0)
(-7.43209e-05 -0.375355 0)
(0.0046679 -0.392103 0)
(0.00318697 -0.396732 0)
(0.00254672 -0.396911 0)
(0.00160248 -0.399676 0)
(0.00124767 -0.3995 0)
(0.000640222 -0.401069 0)
(0.000433444 -0.400645 0)
(5.82904e-05 -0.401398 0)
(1.93958e-05 -0.400876 0)
(-6.66363e-05 -0.401351 0)
(0.00158773 -0.405912 0)
(0.0010747 -0.409154 0)
(0.000862324 -0.410675 0)
(0.000536912 -0.412545 0)
(0.000418958 -0.413137 0)
(0.000207058 -0.414106 0)
(0.00013634 -0.414116 0)
(3.97067e-06 -0.414495 0)
(-3.69153e-06 -0.414255 0)
(-2.66524e-05 -0.414478 0)
(0.0112147 -0.121617 3.17395e-21)
(0.0125375 -0.144866 -3.11331e-21)
(0.0136488 -0.173601 3.98666e-22)
(0.0140937 -0.208182 0)
(0.0139619 -0.248309 0)
(0.0130166 -0.291371 4.62313e-22)
(0.0111872 -0.332757 -1.98799e-21)
(0.00857719 -0.367421 1.95949e-21)
(0.00538262 -0.391715 5.32067e-22)
(0.00183134 -0.404037 -5.2366e-22)
(0.0115389 -0.126174 -3.76721e-21)
(0.0133168 -0.149414 0)
(0.0145468 -0.178209 2.72775e-21)
(0.0150148 -0.212668 -6.29869e-21)
(0.0148285 -0.252298 4.04541e-21)
(0.0137767 -0.294408 -4.30303e-22)
(0.0118224 -0.334537 9.59677e-22)
(0.00906958 -0.367954 2.0273e-21)
(0.00570164 -0.391298 5.70582e-22)
(0.00193714 -0.403119 5.54017e-22)
(0.0120954 -0.130878 4.38813e-21)
(0.0143663 -0.154165 -3.00239e-21)
(0.0156468 -0.182847 2.97389e-21)
(0.0161011 -0.217013 -3.33292e-21)
(0.0158255 -0.256011 2.46445e-21)
(0.0146356 -0.297092 0)
(0.0125224 -0.335964 -9.61996e-22)
(0.00959337 -0.368195 4.8756e-23)
(0.00602805 -0.390673 -1.06426e-21)
(0.00203937 -0.40205 -1.08681e-21)
(0.012929 -0.13512 -7.07531e-22)
(0.015635 -0.158517 0)
(0.0169263 -0.187125 0)
(0.0173452 -0.221021 0)
(0.0169586 -0.259416 2.74659e-21)
(0.0156111 -0.299513 -1.83786e-21)
(0.0133125 -0.337187 -1.36072e-23)
(0.0101743 -0.368283 -1.13636e-21)
(0.00638212 -0.389924 -5.83528e-22)
(0.00214739 -0.40086 -6.25024e-22)
(0.0141054 -0.139 5.94015e-23)
(0.0171143 -0.162343 -2.1263e-21)
(0.0183718 -0.19083 -1.61996e-21)
(0.0187332 -0.224464 1.61893e-21)
(0.0182181 -0.262302 -8.96319e-22)
(0.0167014 -0.301512 0)
(0.0142005 -0.338111 -1.05694e-21)
(0.0108284 -0.368178 2.31739e-21)
(0.00678112 -0.389048 -1.18615e-21)
(0.00227036 -0.39957 1.22275e-21)
(0.0156572 -0.142568 -5.63632e-21)
(0.0188246 -0.165689 6.11738e-22)
(0.0200003 -0.193944 -1.20219e-22)
(0.0202726 -0.227273 1.66159e-21)
(0.0196069 -0.26457 0)
(0.017906 -0.302978 0)
(0.0151864 -0.338635 0)
(0.0115588 -0.367813 1.24179e-21)
(0.00723025 -0.388016 0)
(0.00241223 -0.398179 0)
(0.0175953 -0.145735 0)
(0.0207795 -0.168524 2.31766e-21)
(0.0218336 -0.196462 -1.56705e-21)
(0.0219807 -0.229447 -1.86968e-21)
(0.0211391 -0.266214 1.8794e-21)
(0.0192332 -0.303893 1.12831e-21)
(0.0162732 -0.33873 -1.11845e-21)
(0.0123656 -0.367155 -4.4357e-21)
(0.00772879 -0.386803 3.15764e-22)
(0.0025737 -0.396674 -1.08245e-21)
(0.0199297 -0.148395 0)
(0.0229851 -0.170779 -7.52371e-22)
(0.0238862 -0.198343 -4.24814e-22)
(0.0238711 -0.230975 0)
(0.0228291 -0.267239 5.49519e-22)
(0.0206947 -0.30427 -1.65582e-21)
(0.017468 -0.338406 1.85147e-21)
(0.0132518 -0.366204 6.61813e-22)
(0.00827669 -0.385404 -7.24394e-22)
(0.00275513 -0.395046 1.43599e-21)
(0.0226717 -0.150467 6.73354e-22)
(0.0254466 -0.172397 8.15026e-22)
(0.0261675 -0.199545 -1.79804e-22)
(0.0259521 -0.231832 2.4375e-22)
(0.0246873 -0.26764 5.20849e-22)
(0.0223003 -0.304119 8.78019e-22)
(0.0187791 -0.337675 -3.3118e-22)
(0.0142226 -0.364969 -3.58446e-22)
(0.00887607 -0.383817 7.26779e-22)
(0.00295757 -0.393289 3.94079e-22)
(0.0258313 -0.151887 -1.87439e-22)
(0.0281694 -0.173354 1.89237e-22)
(0.0286861 -0.200039 -2.18381e-22)
(0.0282301 -0.232003 -2.43428e-22)
(0.0267215 -0.267409 2.91075e-22)
(0.0240576 -0.303438 -5.94946e-22)
(0.0202139 -0.336541 5.06929e-22)
(0.015284 -0.363454 1.81639e-22)
(0.00953052 -0.382044 0)
(0.00318249 -0.391399 -3.94963e-22)
(0.0294158 -0.152607 1.91685e-22)
(0.0311561 -0.17364 -1.93579e-22)
(0.0314493 -0.199815 -2.33935e-22)
(0.03071 -0.231487 -2.62852e-22)
(0.0289385 -0.266547 -3.03757e-22)
(0.0259726 -0.302233 -2.20581e-23)
(0.0217781 -0.335008 1.78488e-22)
(0.0164411 -0.361659 5.7759e-22)
(0.0102431 -0.380082 0)
(0.003431 -0.389372 -4.31263e-22)
(0.0334305 -0.152615 0)
(0.0344069 -0.173253 -8.92802e-22)
(0.0344618 -0.198881 1.61977e-21)
(0.0333953 -0.230291 2.63288e-22)
(0.0313448 -0.265058 6.14832e-22)
(0.0280515 -0.300504 1.01453e-21)
(0.0234788 -0.333074 -3.61978e-22)
(0.0177003 -0.359582 -3.91956e-22)
(0.0110178 -0.377928 8.6809e-22)
(0.00370418 -0.387205 4.30262e-22)
(0.0378792 -0.151943 0)
(0.0379222 -0.172188 -8.76649e-22)
(0.0377233 -0.197275 -4.87329e-22)
(0.0362887 -0.228437 0)
(0.0339444 -0.26297 -1.94024e-21)
(0.0302983 -0.298273 6.47295e-22)
(0.025319 -0.330755 7.76863e-22)
(0.0190633 -0.357229 2.51463e-21)
(0.0118557 -0.375576 -8.65269e-22)
(0.0040018 -0.384886 1.86912e-21)
(0.0427605 -0.150714 0)
(0.0417034 -0.170438 8.84093e-22)
(0.0412246 -0.195045 0)
(0.0393935 -0.225936 2.46705e-21)
(0.0367407 -0.260295 -2.47972e-21)
(0.0327193 -0.295538 -1.53151e-21)
(0.0273079 -0.328044 -3.66848e-23)
(0.0205412 -0.354589 -2.58881e-21)
(0.0127635 -0.373016 -4.31529e-22)
(0.00432473 -0.382404 -2.32492e-21)
(0.0480081 -0.148956 6.33708e-21)
(0.0457763 -0.168014 -2.43258e-21)
(0.0449521 -0.192211 2.78193e-22)
(0.0427136 -0.22281 -2.28635e-21)
(0.0397323 -0.257054 0)
(0.0353174 -0.292324 -1.59745e-21)
(0.0294464 -0.324961 -1.38386e-22)
(0.0221337 -0.351684 3.51587e-21)
(0.0137412 -0.370269 4.82879e-22)
(0.00467208 -0.379769 -4.84757e-22)
(0.0536002 -0.146634 -6.79547e-22)
(0.050135 -0.165012 4.56399e-21)
(0.0488892 -0.188838 2.3776e-21)
(0.0462461 -0.219128 -2.37601e-21)
(0.0429186 -0.253285 -1.44769e-21)
(0.0380961 -0.288642 0)
(0.0317412 -0.321499 -3.58851e-21)
(0.0238494 -0.348497 1.79989e-21)
(0.0147972 -0.36732 1.92603e-21)
(0.00504618 -0.376969 2.0703e-21)
(0.0594715 -0.143845 -8.70683e-22)
(0.0547688 -0.161492 0)
(0.0530194 -0.184984 0)
(0.0499839 -0.214958 0)
(0.0462957 -0.249067 -1.68085e-21)
(0.0410502 -0.284587 3.12311e-21)
(0.0341817 -0.317754 3.6562e-21)
(0.0256731 -0.345102 -5.76522e-21)
(0.0159184 -0.364207 1.03364e-21)
(0.00543998 -0.374021 -3.07492e-21)
(0.065514 -0.140733 -1.28221e-21)
(0.0596688 -0.157495 4.51983e-21)
(0.0573211 -0.180677 -4.47676e-21)
(0.0539166 -0.210274 5.8371e-21)
(0.0498677 -0.244297 -7.34667e-21)
(0.0442027 -0.279982 0)
(0.0368105 -0.313527 -1.91159e-21)
(0.0276567 -0.341338 -7.97871e-23)
(0.0171471 -0.360836 -2.1493e-21)
(0.00586909 -0.370863 -2.19143e-21)
(0.0715853 -0.137521 -9.23341e-22)
(0.0648335 -0.153212 0)
(0.061759 -0.176193 -6.01641e-21)
(0.0579916 -0.205516 1.13887e-20)
(0.0535625 -0.239588 -4.42014e-21)
(0.0474492 -0.275541 -9.01488e-22)
(0.0394919 -0.309475 1.90741e-21)
(0.029659 -0.337665 -9.84222e-23)
(0.018378 -0.357445 3.13596e-21)
(0.00628886 -0.367622 3.24307e-21)
(0.0778535 -0.133023 -4.18488e-21)
(0.070879 -0.147407 4.10346e-21)
(0.066784 -0.169992 6.41429e-22)
(0.0625743 -0.198843 0)
(0.0577432 -0.232844 0)
(0.0512004 -0.269181 8.91128e-22)
(0.0426759 -0.303891 4.10697e-21)
(0.0320999 -0.332984 -4.0207e-21)
(0.0199079 -0.353485 -1.10371e-21)
(0.00681434 -0.363977 1.08536e-21)
(0.0879852 -0.132819 0)
(0.0845412 -0.144879 0)
(0.077707 -0.167935 0)
(0.0722483 -0.196315 0)
(0.0661514 -0.229525 0)
(0.0582608 -0.264673 0)
(0.0482965 -0.298024 0)
(0.0361934 -0.325896 0)
(0.0223956 -0.345659 0)
(0.00757459 -0.355997 0)
(0.105431 -0.12167 0)
(0.10732 -0.138014 0)
(0.0969829 -0.16337 0)
(0.0904599 -0.191227 0)
(0.0820594 -0.223186 0)
(0.0717055 -0.256205 0)
(0.0590587 -0.287065 0)
(0.0440649 -0.312464 0)
(0.0272314 -0.329957 0)
(0.00936893 -0.338409 0)
(0.127284 -0.110947 0)
(0.131522 -0.129528 0)
(0.117886 -0.155098 0)
(0.110676 -0.181597 0)
(0.0993701 -0.211765 0)
(0.0861272 -0.242112 0)
(0.0702889 -0.270382 0)
(0.0520303 -0.293927 0)
(0.0319247 -0.31088 0)
(0.0105974 -0.320263 0)
(0.154316 -0.103292 0)
(0.159229 -0.122335 0)
(0.141988 -0.146836 0)
(0.134076 -0.171901 0)
(0.11913 -0.2003 0)
(0.102776 -0.227922 0)
(0.0832821 -0.253572 0)
(0.0613157 -0.274521 0)
(0.0375686 -0.288701 0)
(0.0130431 -0.294778 0)
(0.185987 -0.0940639 0)
(0.189301 -0.111555 0)
(0.168235 -0.133624 0)
(0.158829 -0.156131 0)
(0.138931 -0.181242 0)
(0.118836 -0.205034 0)
(0.0948659 -0.227706 0)
(0.0689274 -0.246866 0)
(0.0415936 -0.261622 0)
(0.0131632 -0.271587 0)
(0.22184 -0.0865768 0)
(0.222681 -0.101906 0)
(0.197983 -0.122158 0)
(0.186505 -0.142073 0)
(0.161002 -0.164168 0)
(0.137604 -0.184995 0)
(0.108972 -0.205578 0)
(0.0788821 -0.222529 0)
(0.0476876 -0.234167 0)
(0.0175316 -0.236578 0)
(0.259279 -0.0719429 0)
(0.253947 -0.0838154 0)
(0.226394 -0.100336 0)
(0.210644 -0.115426 0)
(0.178893 -0.1327 0)
(0.151448 -0.148928 0)
(0.116131 -0.165496 0)
(0.0812654 -0.180136 0)
(0.0462887 -0.195019 0)
(0.0108388 -0.213297 0)
(0.295143 -0.0629447 0)
(0.285823 -0.070863 0)
(0.257347 -0.0846496 0)
(0.23742 -0.0960541 0)
(0.202916 -0.111316 0)
(0.172618 -0.125563 0)
(0.133366 -0.141935 0)
(0.0951751 -0.157395 0)
(0.0557492 -0.172586 0)
(0.0287616 -0.16775 0)
(0.333263 -0.0352832 0)
(0.320934 -0.0387415 0)
(0.278876 -0.0470245 0)
(0.252826 -0.0524716 0)
(0.20588 -0.0614656 0)
(0.166891 -0.0684804 0)
(0.113727 -0.0773516 0)
(0.062544 -0.0860942 0)
(0.0147136 -0.104676 0)
(-0.0419248 -0.156388 0)
(0.60692 -0.0185921 0)
(0.587503 -0.0215409 0)
(0.548494 -0.0258244 0)
(0.517984 -0.0299983 0)
(0.469915 -0.0360778 0)
(0.425885 -0.0429899 0)
(0.364099 -0.0533492 0)
(0.296865 -0.0690404 0)
(0.208447 -0.0985978 0)
(0.150288 -0.157257 0)
(0.104832 -0.119606 4.28195e-21)
(0.124351 -0.108187 -4.21639e-21)
(0.146431 -0.09775 7.0369e-22)
(0.172975 -0.0902788 0)
(0.204647 -0.0816775 0)
(0.23913 -0.0749742 1.09457e-21)
(0.276145 -0.0620424 -5.24014e-21)
(0.310279 -0.0550123 5.16514e-21)
(0.359534 -0.0305899 1.47552e-21)
(0.627643 -0.0163078 -1.49921e-21)
(0.110707 -0.113838 -3.956e-21)
(0.130087 -0.102336 0)
(0.151845 -0.0922783 5.07302e-21)
(0.17809 -0.0850182 -1.2309e-20)
(0.209764 -0.0767401 8.33195e-21)
(0.244203 -0.0704147 -1.02759e-21)
(0.281244 -0.0581172 2.23072e-21)
(0.315624 -0.0518808 5.06448e-21)
(0.369254 -0.0287636 1.36482e-21)
(0.635808 -0.0153374 1.39419e-21)
(0.11583 -0.107491 4.55807e-21)
(0.135012 -0.0962147 -4.69867e-21)
(0.15634 -0.0867015 4.65418e-21)
(0.182338 -0.0797255 -6.55261e-21)
(0.213781 -0.0718637 4.74435e-21)
(0.248326 -0.0659926 0)
(0.28529 -0.0543855 -2.23607e-21)
(0.320462 -0.0489375 -5.51846e-23)
(0.377865 -0.0271022 -2.58737e-21)
(0.643586 -0.0144059 -2.76577e-21)
(0.120759 -0.100714 -7.82424e-22)
(0.140101 -0.0899297 0)
(0.161086 -0.0810669 0)
(0.186939 -0.0744111 0)
(0.218075 -0.0670288 5.3976e-21)
(0.25264 -0.0616804 -3.68153e-21)
(0.289364 -0.0508201 -1.56024e-22)
(0.325355 -0.0461147 -2.57529e-21)
(0.385892 -0.0255953 -1.30724e-21)
(0.651144 -0.013556 -1.34859e-21)
(0.125175 -0.093612 8.21865e-22)
(0.144866 -0.0835693 -2.49405e-21)
(0.165616 -0.0754221 -2.65906e-21)
(0.191366 -0.0691328 2.6574e-21)
(0.222323 -0.0622629 -1.69162e-21)
(0.256916 -0.0574644 0)
(0.293354 -0.047402 -2.16708e-21)
(0.330221 -0.0433743 4.87048e-21)
(0.39346 -0.0242102 -2.44433e-21)
(0.658392 -0.0127959 2.68147e-21)
(0.12892 -0.0862114 -5.87432e-21)
(0.149022 -0.0771559 2.54751e-22)
(0.169597 -0.0697752 -4.41761e-22)
(0.19522 -0.0639153 2.59412e-21)
(0.226064 -0.0576011 0)
(0.26075 -0.0533535 0)
(0.296978 -0.0441341 0)
(0.334739 -0.0407274 2.31724e-21)
(0.400475 -0.0229271 0)
(0.665223 -0.0121247 0)
(0.131917 -0.0785372 0)
(0.15252 -0.0706864 3.00499e-21)
(0.172987 -0.0641149 -2.09033e-21)
(0.198452 -0.0587516 -2.9798e-21)
(0.229184 -0.0530391 2.99527e-21)
(0.263959 -0.0493545 1.95445e-21)
(0.300132 -0.0410056 -1.83689e-21)
(0.338704 -0.0381848 -7.96609e-21)
(0.406821 -0.0217382 5.62702e-22)
(0.671548 -0.0115284 -1.89699e-21)
(0.13407 -0.0706263 0)