/*--------------------------------*- C++ -*----------------------------------*\
  =========                 |
  \\      /  F ield         | OpenFOAM: The Open Source CFD Toolbox
   \\    /   O peration     | Website:  https://openfoam.org
    \\  /    A nd           | Version:  7
     \\/     M anipulation  |
\*---------------------------------------------------------------------------*/
FoamFile
{
    version     2.0;
    format      ascii;
    class       volScalarField;
    location    "92";
    object      p;
}
// * * * * * * * * * * * * * * * * * * * * * * * * * * * * * * * * * * * * * //

dimensions      [0 2 -2 0 0 0 0];

internalField   nonuniform List<scalar> 
2000
(
0.00782314
0.00790175
0.00805222
0.00824052
0.00844122
0.00863838
0.00882088
0.00898325
0.00912455
0.00923071
0.00784662
0.00796646
0.00813297
0.00833717
0.00855341
0.00876528
0.00896084
0.00913375
0.00928296
0.00938648
0.00784734
0.00801723
0.00820016
0.00841887
0.00864782
0.00887075
0.00907557
0.0092557
0.0094109
0.00951063
0.00782995
0.00805636
0.0082558
0.00848673
0.00872436
0.00895322
0.00916177
0.00934379
0.00950071
0.00959403
0.00780096
0.00808833
0.00830301
0.00854271
0.00878379
0.00901212
0.00921732
0.00939406
0.0095461
0.00962858
0.00776876
0.00811817
0.0083456
0.00858952
0.00882787
0.00904819
0.00924186
0.00940489
0.0095436
0.00960893
0.00774292
0.00815143
0.00838789
0.00863062
0.00885937
0.00906375
0.0092373
0.00937776
0.00949383
0.00953443
0.00773375
0.00819411
0.00843471
0.00867012
0.00888225
0.00906296
0.00920834
0.00931816
0.00940334
0.00941209
0.00775193
0.00825249
0.00849129
0.00871286
0.00890157
0.00905185
0.00916278
0.00923693
0.00928829
0.0092619
0.00780782
0.00833287
0.00856324
0.0087643
0.00892327
0.00903754
0.00910984
0.00914705
0.00916947
0.00912225
0.00935603
0.0100935
0.0108743
0.0122101
0.0136449
0.0153762
0.0165342
0.0182892
0.0181835
0.0194762
0.00943855
0.0101135
0.0106905
0.0118384
0.0131161
0.0147147
0.0157812
0.0174009
0.0174148
0.0185205
0.00947533
0.010119
0.0105121
0.0114786
0.0126071
0.014082
0.0150632
0.0165864
0.016657
0.0176381
0.0094601
0.0100967
0.0103364
0.0111313
0.0121188
0.0134775
0.0143837
0.0158268
0.0159175
0.016835
0.00939056
0.010033
0.0101586
0.0107961
0.0116517
0.0129021
0.0137423
0.015114
0.01522
0.0161105
0.00926929
0.0099179
0.00997117
0.0104713
0.0112061
0.0123546
0.0131334
0.0144358
0.0145581
0.0154463
0.00910513
0.00974744
0.00976588
0.010154
0.0107823
0.0118372
0.0125631
0.0138055
0.013954
0.0148485
0.00890591
0.00951369
0.00953082
0.00984067
0.0103771
0.0113395
0.0120113
0.013185
0.0133612
0.0142925
0.00866219
0.00920377
0.00924206
0.0095198
0.010005
0.0108956
0.0115307
0.0126453
0.0128539
0.0138061
0.00847309
0.00895157
0.00898618
0.00919568
0.00960159
0.0104008
0.0109896
0.0120189
0.0122912
0.013328
0.00900639
0.0094764
0.00972444
0.00985798
0.00997841
0.0103547
0.0107353
0.0114479
0.0116701
0.0124037
0.0071745
0.00761051
0.0079927
0.00833834
0.00866984
0.00910436
0.00950259
0.0100723
0.0102456
0.0106808
0.00579113
0.00619282
0.00654941
0.00686079
0.00716846
0.00759125
0.00799173
0.00851314
0.00866708
0.00896909
0.00438433
0.00478757
0.00519668
0.0055425
0.00584243
0.00621456
0.00656581
0.00702058
0.00715308
0.00738832
0.00306324
0.00343431
0.00388137
0.00429071
0.00463767
0.0049934
0.00529978
0.00567946
0.00578767
0.00598419
0.00191484
0.00223984
0.00268324
0.00312562
0.0035189
0.00388894
0.00418337
0.00450882
0.00459478
0.0047512
0.000986233
0.00126156
0.00167403
0.00210459
0.00249845
0.00286159
0.0031429
0.00343042
0.00350478
0.00363164
0.000302548
0.000522619
0.000882799
0.00127032
0.00162622
0.00195022
0.00219865
0.00244413
0.00249668
0.00258237
-6.23653e-05
6.11061e-05
0.00033906
0.000633883
0.00089212
0.00112308
0.00129331
0.00147628
0.00150192
0.00155739
-0.000585537
-0.000283006
-3.01721e-05
0.000163081
0.000299492
0.000411672
0.000475387
0.000563145
0.000540721
0.00053918
0.00845212
0.00692228
0.00559623
0.00423638
0.00297148
0.00186602
0.00097281
0.000291386
-3.439e-05
-0.000570135
0.00814461
0.00668254
0.00537383
0.00405296
0.00283901
0.00178211
0.000932059
0.000282363
-2.13046e-05
-0.000489864
0.00784445
0.00646642
0.00517513
0.00389459
0.00272572
0.00171516
0.000905193
0.000289909
-3.56815e-09
-0.000391545
0.00761179
0.00631696
0.00504037
0.00379507
0.0026663
0.00169083
0.000911039
0.000321193
3.43491e-05
-0.000299917
0.00744858
0.00621781
0.00495404
0.00374022
0.00264447
0.00169859
0.000942468
0.000371147
7.9543e-05
-0.000216595
0.00735764
0.00616567
0.00491256
0.00372346
0.00265487
0.00173288
0.00099445
0.000435458
0.000132756
-0.000141264
0.00734814
0.00615762
0.00491398
0.0037425
0.00269498
0.00179076
0.00106394
0.000510946
0.000191605
-7.43546e-05
0.00740428
0.00619066
0.00495458
0.00379358
0.0027612
0.00186883
0.00114774
0.000594657
0.000254012
-1.58202e-05
0.00751639
0.00626083
0.00502972
0.00387247
0.00284947
0.00196341
0.0012426
0.000683895
0.000318227
3.50236e-05
0.00767308
0.00636308
0.00513398
0.00397469
0.0029557
0.00207095
0.00134549
0.000776379
0.00038288
7.91613e-05
0.00786042
0.00648994
0.0052605
0.00409499
0.00307538
0.00218789
0.00145358
0.000870206
0.000446928
0.000117561
0.00806826
0.00663561
0.00540407
0.00422969
0.00320525
0.00231164
0.00156486
0.000964102
0.000509752
0.000151114
0.00829035
0.00679747
0.00556162
0.0043769
0.00334338
0.00244068
0.00167813
0.00105741
0.000571122
0.000180707
0.00852062
0.00697321
0.00572989
0.00453474
0.00348803
0.00257372
0.00179253
0.00114975
0.000631
0.000207076
0.00875401
0.00716155
0.00590622
0.00470168
0.00363791
0.0027098
0.00190752
0.00124099
0.000689481
0.00023082
0.00898595
0.00736188
0.00608829
0.00487625
0.003792
0.00284814
0.00202276
0.00133109
0.000746729
0.000252423
0.00920952
0.00757197
0.00627325
0.00505638
0.00394923
0.00298794
0.00213797
0.00142008
0.000802947
0.000272311
0.00942034
0.00779525
0.00646376
0.00524383
0.0041113
0.00313038
0.00225408
0.00150868
0.00085864
0.000290926
0.00963702
0.00806047
0.00667881
0.00545125
0.00428744
0.00328138
0.00237484
0.00159904
0.000914856
0.000308396
0.00978894
0.00831842
0.00688817
0.00565181
0.00446116
0.00342821
0.00249259
0.00168638
0.000969321
0.000323315
0.00934211
0.00838207
0.00709784
0.00591367
0.0047436
0.00368595
0.00271795
0.00185978
0.00108283
0.000360132
0.00929249
0.00833244
0.00708957
0.00597769
0.004847
0.00382093
0.00285636
0.00198475
0.00117125
0.000395588
0.00950282
0.00851889
0.00726412
0.00616849
0.00503265
0.00400091
0.00301299
0.00211343
0.0012608
0.000435616
0.00994545
0.00883658
0.00752532
0.00640407
0.00524021
0.00418719
0.00316743
0.002239
0.00135191
0.000482315
0.0106109
0.00930452
0.00789704
0.00670498
0.00548847
0.00439291
0.00333124
0.00237039
0.00145076
0.000536963
0.0114422
0.00990557
0.00837504
0.00707186
0.00578158
0.0046225
0.00351042
0.00251034
0.00155556
0.000592974
0.0123397
0.0105758
0.00891301
0.00747774
0.00610327
0.00486798
0.0037015
0.00265283
0.00165223
0.000632705
0.0131811
0.0112165
0.00942913
0.00786657
0.00641255
0.00510375
0.00388556
0.00278058
0.0017221
0.000643244
0.0138398
0.0117188
0.00983264
0.00817197
0.00665744
0.00529248
0.00403293
0.00287527
0.00175978
0.000631323
0.0142036
0.0119928
0.0100519
0.00833855
0.00679263
0.00539833
0.00411628
0.00292552
0.00177274
0.000616091
0.0102582
0.0102141
0.0104875
0.0110067
0.0117505
0.012658
0.0136465
0.0145966
0.0153634
0.0157973
0.0103981
0.0104919
0.0108569
0.0114613
0.01228
0.013248
0.0142845
0.0152695
0.0160586
0.0165058
0.0104049
0.0106577
0.0111515
0.011879
0.0128093
0.0138749
0.0149871
0.0160164
0.0168199
0.0172694
0.0104598
0.0108364
0.0114361
0.0122718
0.0133038
0.0144674
0.0156678
0.0167636
0.017606
0.0180756
0.0105579
0.0110633
0.0117622
0.0126947
0.0138155
0.015066
0.0163496
0.0175175
0.0184124
0.018914
0.0106686
0.0113158
0.0121272
0.013162
0.0143736
0.0157084
0.0170692
0.0183042
0.01925
0.0197834
0.01079
0.011581
0.0125183
0.0136643
0.0149756
0.0164005
0.0178394
0.0191377
0.0201283
0.0206877
0.0109297
0.0118608
0.0129322
0.0141942
0.0156122
0.0171341
0.0186557
0.0200179
0.0210502
0.0216304
0.0110919
0.012158
0.0133705
0.0147495
0.0162789
0.0179025
0.0195114
0.0209405
0.0220149
0.0226132
0.011278
0.0124713
0.0138326
0.0153288
0.0169737
0.0187026
0.020403
0.0219024
0.0230213
0.0236368
0.0114898
0.0127961
0.014316
0.0159285
0.0176942
0.0195321
0.0213287
0.0229025
0.024069
0.0247013
0.0117257
0.0131277
0.0148159
0.0165428
0.0184357
0.0203872
0.0222862
0.0239396
0.0251579
0.0258077
0.0119776
0.0134627
0.0153237
0.017166
0.0191929
0.0212645
0.0232734
0.0250131
0.0262892
0.0269577
0.0122299
0.0138019
0.0158269
0.0177928
0.0199579
0.0221589
0.0242861
0.0261237
0.0274653
0.0281557
0.012439
0.0141523
0.0163166
0.018421
0.0207271
0.0230673
0.0253226
0.0272658
0.0286804
0.0293983
0.0126231
0.0144912
0.0167823
0.0190342
0.0214887
0.0239796
0.0263755
0.0284344
0.0299313
0.0306841
0.0127677
0.0148064
0.0172155
0.0196222
0.0222348
0.02489
0.0274409
0.0296288
0.0312186
0.0320149
0.0128468
0.0150921
0.0176075
0.0201748
0.0229524
0.0257847
0.0285062
0.0308403
0.032538
0.0333898
0.0128366
0.0153418
0.017957
0.0206968
0.0236533
0.0266787
0.0295851
0.032078
0.0338945
0.034814
0.0126788
0.0155001
0.0182054
0.0211052
0.0242374
0.0274699
0.030593
0.0332872
0.0352614
0.0362763
0.0132843
0.0168836
0.0199137
0.0231515
0.026589
0.0301265
0.0335503
0.0365356
0.0387551
0.0399383
0.0167491
0.020245
0.0234921
0.0272538
0.0312441
0.0353462
0.0392813
0.0426775
0.0451764
0.0464893
0.0206022
0.0242699
0.0278866
0.0322195
0.0367767
0.0414598
0.0458794
0.0496282
0.0523473
0.0537783
0.024697
0.0287587
0.0329596
0.0379462
0.0431119
0.0483897
0.0532498
0.0572794
0.0601266
0.0615614
0.0290588
0.0336252
0.0385028
0.0441827
0.0499857
0.055853
0.0611008
0.0653431
0.0682483
0.0697309
0.0337758
0.0388614
0.0444707
0.0508602
0.0573204
0.0637729
0.0693735
0.073754
0.0765247
0.0776498
0.0383914
0.0440997
0.0503911
0.0574156
0.0644967
0.0714748
0.0773942
0.0818626
0.0843708
0.0854154
0.0430646
0.0491439
0.0560957
0.0637785
0.0715218
0.0790568
0.0854265
0.0901494
0.0921849
0.0911236
0.0455319
0.052425
0.0599923
0.0682209
0.0764754
0.0844063
0.0910123
0.095735
0.0966174
0.0981605
0.0489903
0.0559853
0.063993
0.0727041
0.0816579
0.0903282
0.0982681
0.104975
0.107163
0.0903973
0.0121919
0.0155531
0.0190354
0.0228185
0.0267161
0.0312411
0.0351861
0.0399817
0.0417882
0.0451835
0.0118052
0.0153298
0.0187457
0.0224769
0.0262155
0.0305983
0.0342724
0.0389499
0.0404612
0.0438057
0.0116238
0.0153271
0.0187209
0.0224226
0.0260694
0.0302756
0.0337424
0.0381233
0.0394817
0.0425863
0.0114093
0.0151813
0.0185418
0.0221748
0.0257801
0.0298133
0.0331435
0.0372344
0.0386121
0.0413582
0.0111767
0.0149416
0.0182588
0.0218118
0.0253409
0.0292281
0.032464
0.036276
0.0377566
0.0401426
0.0109455
0.0146749
0.0179588
0.0214437
0.0248893
0.0286247
0.0317927
0.0353352
0.0369282
0.0390018
0.0107139
0.0143928
0.0176592
0.0210931
0.0244709
0.0280719
0.0311675
0.0344897
0.0361439
0.0379696
0.0104823
0.0140981
0.0173577
0.0207541
0.0240808
0.0275777
0.0305994
0.0337522
0.0354305
0.0370537
0.0102567
0.0137987
0.017059
0.0204292
0.0237165
0.0271364
0.0300924
0.0331112
0.034793
0.0362716
0.0100434
0.0135034
0.0167719
0.0201273
0.0233854
0.0267492
0.0296521
0.0325605
0.0342383
0.0356213
0.00984784
0.01322
0.0165046
0.0198573
0.0230979
0.0264222
0.0292859
0.0321021
0.0337748
0.0350932
0.00966691
0.0129492
0.01626
0.019622
0.0228591
0.0261599
0.0289996
0.03174
0.033408
0.0346789
0.00949148
0.0126897
0.0160377
0.0194213
0.022671
0.0259652
0.0287966
0.0314775
0.0331404
0.0343766
0.00931303
0.0124442
0.0158376
0.019256
0.0225347
0.0258399
0.0286788
0.0313155
0.0329705
0.0341861
0.00912109
0.0122148
0.0156582
0.0191259
0.0224499
0.0257846
0.028647
0.0312551
0.0328973
0.0341134
0.0089019
0.0120005
0.0154955
0.0190285
0.0224148
0.0257976
0.0286998
0.0312949
0.0329108
0.0341616
0.00864082
0.0117959
0.0153425
0.0189587
0.022426
0.0258769
0.0288379
0.0314382
0.0330137
0.0343465
0.00832408
0.0115921
0.0151909
0.0189083
0.0224749
0.0260119
0.0290516
0.0316753
0.0331736
0.0346719
0.00790502
0.0113612
0.0150332
0.0188772
0.0225683
0.026216
0.0293588
0.03203
0.0334347
0.0351657
0.00740613
0.0110526
0.01481
0.0187925
0.0226223
0.0263974
0.0296732
0.0324277
0.0336747
0.035806
0.00837805
0.0121354
0.0157862
0.019842
0.0238818
0.0278223
0.0312614
0.0341564
0.0352481
0.0377692
0.0105263
0.0145456
0.0184605
0.022906
0.0273591
0.0317206
0.0355684
0.0387938
0.0402432
0.0424483
0.0136092
0.0179441
0.0222607
0.0272321
0.0322183
0.0371678
0.0415715
0.0452035
0.0472811
0.0491838
0.0173379
0.0220684
0.0268943
0.0325374
0.0382625
0.0440594
0.0493056
0.0537153
0.0568371
0.0591051
0.0212703
0.0264741
0.0319457
0.0384179
0.0450972
0.0520375
0.0585441
0.0643836
0.0692336
0.073282
0.025371
0.0310251
0.0372879
0.0447177
0.0525709
0.0609901
0.0693495
0.0778075
0.0863907
0.0950371
0.0286139
0.0349361
0.0420623
0.0504991
0.0597547
0.0700853
0.0811206
0.0939352
0.109479
0.128494
0.032237
0.0391023
0.0471098
0.056627
0.0674648
0.0801755
0.0950482
0.115081
0.144241
0.184951
0.0331141
0.0401167
0.048454
0.0586104
0.0710303
0.0868991
0.108217
0.140195
0.192296
0.272719
0.0355706
0.0438397
0.0537393
0.0661471
0.0822695
0.104023
0.135158
0.184267
0.269534
0.401656
0.0083326
0.0103148
0.012845
0.0159459
0.0190563
0.0227573
0.0252886
0.0287633
0.0294673
0.0313562
0.00820568
0.0102035
0.0126451
0.0156015
0.0184816
0.0219786
0.0242366
0.0275868
0.0281404
0.0301473
0.00822444
0.0101747
0.0125383
0.0153898
0.0181386
0.0214188
0.023482
0.0266083
0.0269562
0.0292713
0.00831812
0.0101372
0.0123526
0.0150536
0.0176524
0.0207311
0.0226411
0.0255647
0.0257242
0.0281156
0.00844684
0.0100983
0.0121249
0.0146525
0.0170639
0.0199358
0.0216866
0.0244485
0.0244419
0.0266898
0.00859807
0.0100692
0.0118978
0.0142404
0.0164688
0.0191286
0.0207091
0.0233335
0.0231786
0.0252085
0.00876254
0.0100516
0.0116801
0.0138125
0.0159025
0.0183463
0.019769
0.0222664
0.0219879
0.0238333
0.0089304
0.0100463
0.0114689
0.0133932
0.0153329
0.0175812
0.0188882
0.0212472
0.0208891
0.0226091
0.00909181
0.0100532
0.0112637
0.0129872
0.0147586
0.0168079
0.0180844
0.0202489
0.0198863
0.0215065
0.00923696
0.0100704
0.0110651
0.012593
0.0141931
0.016071
0.0173068
0.0192526
0.0189863
0.0204742
0.00791224
0.00844214
0.00865688
0.00883071
0.00895401
0.00902713
0.00905639
0.00905217
0.00904045
0.00899172
0.00808056
0.00858916
0.00877924
0.00891879
0.00900091
0.00902835
0.00900974
0.00895657
0.0088934
0.00879306
0.00831681
0.00877789
0.0089354
0.00903475
0.00907156
0.00905055
0.0089821
0.00887882
0.0087654
0.00861632
0.008625
0.00901259
0.00913037
0.00918448
0.00917296
0.00910223
0.00898396
0.00883175
0.00867018
0.00847627
0.00900721
0.00929636
0.00936785
0.0093724
0.00931044
0.00918975
0.00902288
0.00882381
0.00861618
0.00838242
0.0094618
0.00962983
0.00964923
0.00960064
0.00948685
0.0093167
0.00910305
0.00885967
0.00860855
0.00834802
0.00998329
0.0100103
0.00997298
0.00986843
0.00970205
0.00948337
0.00922508
0.00894138
0.00865131
0.0083386
0.0105624
0.0104313
0.0103344
0.0101718
0.00995268
0.00968693
0.00938673
0.00906582
0.00873933
0.00838972
0.0111807
0.0108871
0.0107255
0.0105036
0.0102322
0.0099213
0.00958219
0.00922739
0.00886824
0.0084912
0.0118173
0.0113597
0.0111339
0.0108531
0.010531
0.0101776
0.00980294
0.00941788
0.0090306
0.00863273
0.0124378
0.0118283
0.0115434
0.0112071
0.0108375
0.0104452
0.0100388
0.00962747
0.00921702
0.00880425
0.0130504
0.0122881
0.0119438
0.0115536
0.0111397
0.0107123
0.0102785
0.0098454
0.00941711
0.00899541
0.0136247
0.0127172
0.0123173
0.0118778
0.0114247
0.0109675
0.0105114
0.0100614
0.0096209
0.00919648
0.0141335
0.0130954
0.0126469
0.0121654
0.0116798
0.0111994
0.0107271
0.0102659
0.00981891
0.00939826
0.0145546
0.013405
0.0129174
0.012403
0.0118938
0.0113979
0.0109164
0.01045
0.0100026
0.00959254
0.0148684
0.0136299
0.013115
0.0125792
0.0120567
0.0115543
0.0110714
0.0106064
0.0101647
0.00977205
0.0150588
0.0137567
0.0132284
0.0126849
0.0121609
0.0116623
0.0111866
0.01073
0.0102994
0.00992986
0.0151136
0.0137753
0.0132494
0.0127135
0.0122013
0.0117178
0.0112588
0.010818
0.0104017
0.0100565
0.0150255
0.0136797
0.0131732
0.0126615
0.0121757
0.0117193
0.0112868
0.0108676
0.0104616
0.0101338
0.0147925
0.0134678
0.0129984
0.0125285
0.012085
0.0116694
0.0112746
0.0108835
0.0104859
0.010168
0.014416
0.0131413
0.012726
0.0123159
0.0119318
0.0115752
0.0112421
0.0109248
0.0106351
0.010463
0.0138954
0.0127027
0.0123592
0.0120254
0.011715
0.0114287
0.0111641
0.0109194
0.0107099
0.010589
0.013246
0.0121632
0.0119055
0.0116613
0.0114355
0.0112268
0.0110334
0.0108566
0.0107087
0.0106122
0.012486
0.0115366
0.011375
0.0112309
0.0110988
0.0109746
0.0108578
0.0107521
0.0106671
0.0106103
0.0116354
0.0108386
0.0107805
0.0107443
0.0107132
0.0106804
0.0106462
0.0106163
0.0105986
0.0105948
0.0107174
0.0100878
0.0101368
0.0102136
0.0102891
0.0103531
0.0104068
0.0104572
0.0105113
0.0105684
0.00975688
0.00930373
0.00946027
0.00965211
0.00983749
0.0100024
0.0101483
0.010283
0.0104133
0.0105382
0.00877894
0.00850637
0.00876759
0.0090734
0.00936976
0.00963802
0.00987909
0.0101013
0.0103118
0.010511
0.00780827
0.00771435
0.00807475
0.00849072
0.00889667
0.00926876
0.00960668
0.00991869
0.0102124
0.010491
0.00687764
0.00694919
0.00739844
0.00791712
0.00842836
0.00890259
0.00933738
0.00974009
0.0101186
0.0104806
0.00603409
0.0062424
0.00675981
0.0073684
0.007976
0.0085476
0.009077
0.00956965
0.0100329
0.0104801
0.00523133
0.00557738
0.00615535
0.00684777
0.0075434
0.00820707
0.00882781
0.00940853
0.0099547
0.0104864
0.00449545
0.00497043
0.00560298
0.00636003
0.00713635
0.00788507
0.00859181
0.00925719
0.00988298
0.0104922
0.00384433
0.00443331
0.00510651
0.00591659
0.00676031
0.00758399
0.00836968
0.00911471
0.00981703
0.0104855
0.00328459
0.00397117
0.00467135
0.00552063
0.00641783
0.00730562
0.00816188
0.00897873
0.00974823
0.0104974
0.00281865
0.00358586
0.00430061
0.00517421
0.00611059
0.00705055
0.00796793
0.00884938
0.00967832
0.010486
0.00244646
0.00327705
0.00399507
0.00487853
0.00583951
0.0068189
0.0077871
0.00872522
0.00960496
0.0104538
0.0021654
0.0030425
0.00375373
0.00463353
0.00560466
0.00661047
0.00761908
0.00860694
0.00953135
0.010405
0.0019708
0.00287838
0.0035742
0.00443799
0.00540525
0.00642449
0.00746347
0.00849681
0.0094683
0.0103546
0.00185677
0.00277987
0.00345296
0.0042897
0.00523966
0.00625912
0.00731715
0.00839043
0.00942527
0.0103427
0.00181497
0.00274041
0.00338479
0.00418483
0.00510484
0.00611196
0.00718092
0.00830382
0.00950642
0.010724
0.00182829
0.00274938
0.00336293
0.00411936
0.00499679
0.00597276
0.00702459
0.00813764
0.00933576
0.0105378
0.00189693
0.00280455
0.00338443
0.0040911
0.00491424
0.00584054
0.00684978
0.00792047
0.00906351
0.0102053
0.00201512
0.00290043
0.00344483
0.00409798
0.00485913
0.00572392
0.00667751
0.00769927
0.00879377
0.00988671
0.0021746
0.00303047
0.00353915
0.00413777
0.00483327
0.00563008
0.00652034
0.0074874
0.00853251
0.00958171
0.00236758
0.00318861
0.0036625
0.00420769
0.00483684
0.00556236
0.00638374
0.00728905
0.00827791
0.00928264
0.00258698
0.00336925
0.00381005
0.0043044
0.00486872
0.00552217
0.00627136
0.00710955
0.00803592
0.00899292
0.00282631
0.00356712
0.00397697
0.00442411
0.00492686
0.0055096
0.00618553
0.00695328
0.00781235
0.00871757
0.00307987
0.00377739
0.00415851
0.00456263
0.00500823
0.00552335
0.00612684
0.00682257
0.00761079
0.00846041
0.00334424
0.00399754
0.00435176
0.00471682
0.00511005
0.00556154
0.00609471
0.00671822
0.00743329
0.00822404
0.00361816
0.0042282
0.00455733
0.00488691
0.00523229
0.0056243
0.00608975
0.00664157
0.00728172
0.00801003
0.00388897
0.00445692
0.00476327
0.00506175
0.00536507
0.00570342
0.00610577
0.0065885
0.00715367
0.0078158
0.00415711
0.00468448
0.00496966
0.00524052
0.00550671
0.00579678
0.00614062
0.00655718
0.00704774
0.0076391
0.0044222
0.00491025
0.00517539
0.00542135
0.0056547
0.00590149
0.00619141
0.00654505
0.00696183
0.00747756
0.0046834
0.00513298
0.00537877
0.00560201
0.00580623
0.00601445
0.00625511
0.00654938
0.00689363
0.00732856
0.0049405
0.00535193
0.00557878
0.00578098
0.00595924
0.00613321
0.00632923
0.00656799
0.00684137
0.00718957
0.00519383
0.00556696
0.0057751
0.0059576
0.0061126
0.00625631
0.00641239
0.00660016
0.00680528
0.00705989
0.00544396
0.00577827
0.00596799
0.0061321
0.00626641
0.00638365
0.00650451
0.00664665
0.00678783
0.0069402
0.00569136
0.00598621
0.00615824
0.0063058
0.00642257
0.00651792
0.00660896
0.00671085
0.00679141
0.00682384
0.00593596
0.006191
0.00634679
0.00648073
0.00658516
0.00666737
0.00674194
0.006823
0.00687806
0.00681871
0.00617748
0.00639268
0.00653417
0.00665815
0.00675684
0.00683866
0.00692276
0.00704437
0.00727015
0.00764597
0.00641668
0.00659115
0.00672008
0.0068374
0.00693449
0.00701895
0.00710876
0.00723594
0.00746069
0.00779312
0.00664923
0.00678473
0.00690344
0.00701724
0.00711571
0.00720381
0.00729571
0.0074159
0.00760525
0.0078591
0.00687122
0.00697146
0.00708277
0.0071962
0.00729929
0.00739376
0.00748988
0.00760656
0.00777193
0.00797642
0.00708
0.00714811
0.00725612
0.00737241
0.00748325
0.00758699
0.00768987
0.00780553
0.00795315
0.00812402
0.00726989
0.00731408
0.0074209
0.00754352
0.00766493
0.00778048
0.00789236
0.00800935
0.00814407
0.00829109
0.00743737
0.0074663
0.00757546
0.00770678
0.00784147
0.00797104
0.00809424
0.00821561
0.008343
0.00847376
0.00757926
0.00760266
0.00771739
0.00786015
0.00800987
0.00815539
0.00829203
0.00842085
0.00854625
0.00866633
0.007693
0.00772177
0.00784503
0.00800127
0.00816747
0.0083301
0.00848174
0.00862058
0.00874846
0.0088618
0.00777563
0.00782215
0.00795706
0.00812843
0.00831187
0.00849197
0.00865925
0.00880972
0.00894341
0.00905257
)
;

boundaryField
{
    inlet
    {
        type            zeroGradient;
    }
    outlet
    {
        type            fixedValue;
        value           uniform 0;
    }
    cylinder
    {
        type            zeroGradient;
    }
    top
    {
        type            symmetryPlane;
    }
    bottom
    {
        type            symmetryPlane;
    }
    defaultFaces
    {
        type            empty;
    }
}


// ************************************************************************* //
