/*--------------------------------*- C++ -*----------------------------------*\
  =========                 |
  \\      /  F ield         | OpenFOAM: The Open Source CFD Toolbox
   \\    /   O peration     | Website:  https://openfoam.org
    \\  /    A nd           | Version:  7
     \\/     M anipulation  |
\*---------------------------------------------------------------------------*/
FoamFile
{
    version     2.0;
    format      ascii;
    class       surfaceScalarField;
    location    "92";
    object      phi;
}
// * * * * * * * * * * * * * * * * * * * * * * * * * * * * * * * * * * * * * //

dimensions      [0 3 -1 0 0 0 0];

internalField   nonuniform List<scalar> 
3880
(
-1.70238e-05
-0.000473094
0.000490118
-1.63548e-05
-0.00114278
0.00114211
1.17701e-05
-0.00154163
0.0015135
7.19719e-05
-0.00171029
0.00165009
0.000168741
-0.00167619
0.00157942
0.000307592
-0.00145804
0.00131918
0.000494735
-0.00106908
0.000881937
0.000735466
-0.00051993
0.000279199
0.00103201
0.000179193
-0.000475737
0.00101737
0.00138103
-0.00136639
-5.87231e-06
-0.000467222
1.72508e-05
-0.0011659
7.42184e-05
-0.0015986
0.000166472
-0.00180254
0.000296188
-0.00180591
0.000467486
-0.00162933
0.000685943
-0.00128754
0.000957083
-0.000791069
0.00128427
-0.00014799
0.000635589
0.00166604
9.12393e-06
-0.000476345
6.14646e-05
-0.00121824
0.000156145
-0.00169328
0.00029065
-0.00193705
0.000464392
-0.00197965
0.000679525
-0.00184447
0.000940462
-0.00154847
0.00125248
-0.00110309
0.00161978
-0.000515294
0.000212484
0.00204289
2.71915e-05
-0.000503537
0.000114623
-0.00130567
0.000254382
-0.00183304
0.000439728
-0.00212239
0.000667092
-0.00220701
0.000936437
-0.00211381
0.00125071
-0.00186275
0.00161455
-0.00146693
0.00203253
-0.000933276
-0.000261909
0.00250692
4.77777e-05
-0.000551315
0.000174257
-0.00143215
0.000364011
-0.00202279
0.000605868
-0.00236425
0.00089331
-0.00249445
0.00122418
-0.00244468
0.00159999
-0.00223855
0.00202461
-0.00189154
0.00250254
-0.00141121
-0.00079649
0.00303712
6.98173e-05
-0.000621132
0.000237076
-0.00159941
0.000478442
-0.00226415
0.000778304
-0.00266411
0.00112739
-0.00284354
0.00152175
-0.00283904
0.00196178
-0.00267858
0.00245083
-0.00238059
0.00299323
-0.00195361
-0.00139561
0.00359236
9.20817e-05
-0.000713214
0.000299153
-0.00180648
0.000589772
-0.00255477
0.000943973
-0.00301831
0.00135
-0.00324957
0.00180247
-0.00329152
0.0023012
-0.00317731
0.00284968
-0.00292907
0.00345266
-0.00255659
-0.00205554
0.00411259
0.000113222
-0.000826435
0.000356183
-0.00204944
0.000689362
-0.00288795
0.00108861
-0.00341756
0.00153993
-0.00370088
0.00203682
-0.00378841
0.00257889
-0.00371938
0.00317065
-0.00352084
0.00381896
-0.0032049
-0.00276225
0.00452567
0.000131842
-0.000958277
0.000403768
-0.00232137
0.000768537
-0.00325272
0.00119814
-0.00384717
0.00167661
-0.00417935
0.00219646
-0.00430825
0.00275699
-0.00427991
0.00336387
-0.00412771
0.00402838
-0.00386941
-0.00349306
0.00475919
0.000146573
-0.00110485
0.000437721
-0.00261252
0.000819299
-0.0036343
0.0012601
-0.00428797
0.00174271
-0.00466196
0.0022588
-0.00482434
0.00280687
-0.00482799
0.00339195
-0.00471279
0.00402913
-0.00450659
0.00476037
-0.0042243
0.00246913
0.0115644
-0.0126525
0.00376857
0.0294247
-0.0307241
0.00440739
0.0491675
-0.0498063
0.00438217
0.0676567
-0.0676315
0.00392238
0.0856253
-0.0851655
0.003175
0.104465
-0.103718
0.00224498
0.126165
-0.125235
0.00117055
0.156543
-0.155468
0.00030755
0.202977
-0.202114
0.258304
-0.257997
0.0027724
0.0104581
0.00428707
0.02791
0.0052012
0.0482533
0.00536731
0.0674906
0.00500132
0.0859913
0.00426617
0.1052
0.00328143
0.12715
0.0020881
0.157736
0.000886686
0.204179
0.259191
0.0031079
0.00939306
0.00477958
0.0262383
0.00596892
0.047064
0.00634157
0.0671179
0.00608021
0.0862526
0.00536141
0.105919
0.00432101
0.12819
0.00300001
0.159057
0.00147389
0.205705
0.260665
0.00347984
0.00842015
0.00523527
0.0244829
0.00668816
0.0456111
0.00728222
0.0665239
0.00713963
0.0863952
0.00644367
0.106615
0.0053508
0.129283
0.00390214
0.160506
0.00205454
0.207553
0.26272
0.00388788
0.00756938
0.00564877
0.022722
0.00733902
0.0439209
0.00816724
0.0656957
0.00816016
0.0864023
0.00749746
0.107278
0.00635827
0.130422
0.00478494
0.162079
0.00262307
0.209714
0.265343
0.00432043
0.00684131
0.00601837
0.0210241
0.00790558
0.0420336
0.00897611
0.0646251
0.00912322
0.0862552
0.00850729
0.107893
0.00733043
0.131599
0.00563778
0.163772
0.00317218
0.21218
0.268515
0.00474888
0.00620501
0.00634081
0.0194321
0.00837672
0.0399977
0.00969085
0.063311
0.0100122
0.0859339
0.00946013
0.108446
0.00825787
0.132801
0.00645489
0.165574
0.00370158
0.214933
0.272216
0.00512137
0.00560932
0.0066032
0.0179503
0.00874339
0.0378575
0.0102963
0.0617581
0.0108092
0.085421
0.010337
0.108918
0.00912201
0.134016
0.00722039
0.167476
0.00419844
0.217955
0.276415
0.00536299
0.00500552
0.00677581
0.0165375
0.00899121
0.0356421
0.0107811
0.0599682
0.0115147
0.0846874
0.0111477
0.109285
0.00993749
0.135226
0.00794691
0.169467
0.00467364
0.221229
0.281088
0.00544551
0.00432038
0.00689499
0.015088
0.00914963
0.0333875
0.0111241
0.0579938
0.0120688
0.0837426
0.0118247
0.109529
0.0106587
0.136392
0.00858113
0.171544
0.00512708
0.224683
0.286215
0.0176791
0.00818802
-0.0215467
0.013609
0.0191581
0.0114288
0.0355677
0.010366
0.0590565
0.00909788
0.0850108
0.00729263
0.111334
0.00485944
0.138825
0.00197148
0.174432
-0.000207929
0.226862
0.286008
0.0185109
0.0108554
-0.0211783
0.014592
0.0230771
0.0116314
0.0385283
0.0100866
0.0606013
0.00874585
0.0863515
0.00696343
0.113117
0.00456335
0.141226
0.00180289
0.177193
-0.000239964
0.228905
0.285768
0.0181057
0.0121566
-0.019407
0.0151076
0.0260752
0.0120097
0.0416262
0.00996739
0.0626436
0.00837621
0.0879427
0.00657643
0.114916
0.00426371
0.143538
0.0016299
0.179826
-0.000271022
0.230806
0.285497
0.0168253
0.0125732
-0.0172418
0.0147653
0.0281352
0.0120783
0.0443132
0.00989402
0.0648278
0.00811622
0.0897205
0.00627026
0.116762
0.00402452
0.145784
0.0015462
0.182305
-0.000228212
0.23258
0.285268
0.0151901
0.0123629
-0.0149797
0.0138991
0.0294262
0.0117382
0.0464741
0.009685
0.0668811
0.00788552
0.09152
0.0060227
0.118625
0.00381656
0.14799
0.00143034
0.184691
-0.000244063
0.234255
0.285024
0.0133711
0.0116271
-0.0126353
0.0127287
0.0300686
0.0110745
0.0481282
0.00926519
0.0686904
0.00757878
0.0932064
0.00579638
0.120408
0.00368116
0.150105
0.00141807
0.186954
-0.000173525
0.235846
0.284851
0.0115001
0.010413
-0.010286
0.0114748
0.0300939
0.0103452
0.0492578
0.00880577
0.0702298
0.00724055
0.0947716
0.00554175
0.122106
0.00351463
0.152132
0.00133109
0.189138
-0.000187155
0.237364
0.284664
0.00959659
0.00874949
-0.00793308
0.0100805
0.02961
0.0094404
0.0498979
0.00826012
0.0714101
0.00689897
0.0961327
0.0053336
0.123672
0.0034152
0.154051
0.00136053
0.191192
-8.94614e-05
0.238814
0.284574
0.00807819
0.00646567
-0.00579437
0.00912831
0.0285599
0.00888473
0.0501415
0.00790531
0.0723895
0.00663228
0.0974058
0.00513612
0.125168
0.00328487
0.155902
0.00129206
0.193185
-0.000103102
0.24021
0.284471
0.00576867
-0.00324084
0.00760401
0.00812656
0.00760097
0.00653749
0.00509489
0.00332696
0.00137323
3.25409e-05
0.0045915
-0.0217115
-0.00442672
0.0041562
-0.020743
0.00343721
-0.018688
0.00264488
-0.0164495
0.00183196
-0.0141668
0.00101802
-0.0118214
0.000208979
-0.00947696
-0.000569427
-0.00715467
-0.00141345
-0.00495035
-0.0025525
0.00373787
-0.0215471
-0.00390233
0.00308376
-0.0200889
0.00225707
-0.0178613
0.00140194
-0.0155944
0.000546001
-0.0133109
-0.0002962
-0.0109792
-0.00112369
-0.00864946
-0.00191631
-0.00636206
-0.00272666
-0.00414
-0.00193011
0.00275493
-0.0211071
-0.00319485
0.00191637
-0.0192503
0.00100561
-0.0169505
9.86488e-05
-0.0146874
-0.000781304
-0.0124309
-0.00163482
-0.0101257
-0.00245639
-0.00782789
-0.00323084
-0.00558762
-0.00397046
-0.00340037
-0.00139656
0.00164101
-0.0204438
-0.00230436
0.000669449
-0.0182787
-0.000296366
-0.0159847
-0.00122901
-0.0137548
-0.00212082
-0.0115391
-0.0029647
-0.00928177
-0.00375737
-0.00703523
-0.00448468
-0.0048603
-0.00513125
-0.00275381
-0.000964374
0.000411469
-0.0195996
-0.00125567
-0.000642499
-0.0172248
-0.00163268
-0.0149945
-0.00257061
-0.0128168
-0.00344731
-0.0106624
-0.00425901
-0.00847007
-0.00500066
-0.00629358
-0.0056572
-0.00420376
-0.00619746
-0.00221355
-0.000635396
-0.000894176
-0.0186264
-7.9007e-05
-0.00199017
-0.0161288
-0.00297753
-0.0140072
-0.00389429
-0.0119001
-0.00473376
-0.00982294
-0.0054927
-0.00771113
-0.00616478
-0.0056215
-0.00673396
-0.00363457
-0.00716378
-0.00178373
-0.000404411
-0.00223514
-0.0175367
0.00114543
-0.00333423
-0.0150297
-0.00429454
-0.0130469
-0.00516907
-0.0110256
-0.00595295
-0.00903906
-0.00664306
-0.00702102
-0.0072329
-0.00503165
-0.00770639
-0.00316108
-0.00802949
-0.00146063
-0.000261279
-0.00356111
-0.0163813
0.00240573
-0.00463474
-0.0139561
-0.00554984
-0.0121318
-0.00636584
-0.0102096
-0.00708112
-0.00832377
-0.00769221
-0.00640993
-0.00819394
-0.00452992
-0.00857137
-0.00278366
-0.00879756
-0.00123444
-0.000192798
-0.0048285
-0.0151972
0.0036444
-0.00585605
-0.0129285
-0.00671365
-0.0112742
-0.00746036
-0.00946285
-0.00810006
-0.00768407
-0.00862826
-0.00588173
-0.00904267
-0.00411551
-0.00933043
-0.0024959
-0.0094737
-0.00109117
-0.000184221
-0.00600074
-0.0140163
0.00481981
-0.00696894
-0.0119603
-0.0077626
-0.0104805
-0.00843494
-0.0087905
-0.008998
-0.00712102
-0.00944543
-0.0054343
-0.00977912
-0.00378182
-0.00998868
-0.00228634
-0.0100654
-0.00101442
-0.000220327
-0.00705017
-0.0128636
0.00589754
-0.00795188
-0.0110586
-0.00868071
-0.00975166
-0.00927881
-0.0081924
-0.00976951
-0.00663032
-0.0101435
-0.00506033
-0.0104075
-0.00351778
-0.0105537
-0.00214015
-0.0105813
-0.000986843
-0.000286074
-0.00796271
-0.0117575
0.00685653
-0.0087937
-0.0102276
-0.00946086
-0.00908451
-0.00998902
-0.00766424
-0.0104155
-0.00620386
-0.010727
-0.00474885
-0.0109353
-0.00330948
-0.0110346
-0.00204083
-0.0110302
-0.000991187
-0.000366943
-0.00872947
-0.0107094
0.00768142
-0.00948888
-0.00946821
-0.010101
-0.0084724
-0.0105672
-0.00719798
-0.0109406
-0.00583053
-0.0112033
-0.00448614
-0.0113714
-0.00314135
-0.011441
-0.00197129
-0.0114213
-0.00101087
-0.000449078
-0.00934993
-0.0097243
0.00836482
-0.0100391
-0.008779
-0.0106049
-0.00790665
-0.01102
-0.00678285
-0.0113528
-0.00549769
-0.011582
-0.004257
-0.0117261
-0.00299726
-0.0117827
-0.00191468
-0.0117633
-0.00103028
-0.00051931
-0.0098292
-0.00879919
0.0089041
-0.0104513
-0.00815688
-0.0109801
-0.00737791
-0.0113568
-0.00640609
-0.0116624
-0.00519216
-0.0118736
-0.00404572
-0.0120095
-0.00286136
-0.0120693
-0.00185489
-0.0120647
-0.00103487
-0.000565089
-0.0101759
-0.00792245
0.00929912
-0.0107363
-0.00759639
-0.0112365
-0.00687781
-0.011589
-0.00605359
-0.01188
-0.00490107
-0.012089
-0.00383674
-0.0122319
-0.00271849
-0.01231
-0.00177679
-0.0123338
-0.00101105
-0.000574376
-0.0103992
-0.00707319
0.00954997
-0.0109076
-0.00708799
-0.011385
-0.00640043
-0.011728
-0.00571056
-0.0120169
-0.00461221
-0.0122384
-0.00361522
-0.0124026
-0.00255435
-0.0125132
-0.00166617
-0.0125782
-0.000946016
-0.000535522
-0.0105019
-0.00622809
0.00965677
-0.0109755
-0.00661433
-0.0114345
-0.00594141
-0.0117838
-0.0053613
-0.0120826
-0.00431345
-0.012331
-0.00336682
-0.01253
-0.00235528
-0.0126867
-0.00150956
-0.0128052
-0.000827435
-0.000437108
-0.0104805
-0.00537456
0.00962692
-0.01095
-0.00614481
-0.0113946
-0.00549675
-0.0117656
-0.00499034
-0.0120863
-0.0039927
-0.0123751
-0.00307804
-0.0126221
-0.00210828
-0.0128376
-0.00129409
-0.0130217
-0.000643309
-0.000267744
-0.0103771
-0.00449733
0.00949984
-0.0108715
-0.00565035
-0.0112913
-0.00507697
-0.0116861
-0.00459551
-0.012038
-0.00364083
-0.0123772
-0.00273884
-0.0126851
-0.00180041
-0.0129721
-0.00100706
-0.013235
-0.000380409
-1.65293e-05
-0.0466785
-0.00439562
0.0465768
-0.0477522
-0.0045767
-0.0489346
-0.00389456
-0.0501136
-0.00341646
-0.0511012
-0.00265323
-0.0518685
-0.00197158
-0.0523903
-0.00127861
-0.0526838
-0.00071356
-0.0527943
-0.000269897
-2.01419e-05
-0.0555074
-0.00446473
0.0555765
-0.0561686
-0.00391545
-0.0568235
-0.00323965
-0.057555
-0.00268501
-0.0581629
-0.00204536
-0.0586376
-0.00149688
-0.0589525
-0.00096367
-0.0591189
-0.000547178
-0.059174
-0.000214731
-2.45654e-05
-0.0664843
-0.00462172
0.0666413
-0.0667824
-0.00361739
-0.0671016
-0.00292042
-0.0675259
-0.00226066
-0.067864
-0.00170727
-0.0681515
-0.00120946
-0.0683264
-0.000788704
-0.0684207
-0.000452953
-0.0684412
-0.000194183
-2.71198e-05
-0.0799826
-0.00471588
0.0800768
-0.0801523
-0.00344768
-0.0803139
-0.00275882
-0.0805754
-0.00199922
-0.0807635
-0.00151916
-0.0809468
-0.00102612
-0.0810445
-0.000690984
-0.0811076
-0.000389918
-0.0811154
-0.000186397
-2.5188e-05
-0.095909
-0.00459093
0.0957841
-0.0961165
-0.00324022
-0.09628
-0.00259537
-0.0964956
-0.00178354
-0.0966402
-0.00137463
-0.09679
-0.000876236
-0.096868
-0.00061301
-0.0969349
-0.000323049
-0.0969533
-0.000168036
-1.32046e-05
-0.113202
-0.00416405
0.112776
-0.113554
-0.002889
-0.113831
-0.00231775
-0.114081
-0.00153426
-0.114259
-0.00119604
-0.114418
-0.000717421
-0.114516
-0.000514749
-0.114605
-0.000234152
-0.114646
-0.000126797
6.02114e-06
-0.129975
-0.00342193
0.129233
-0.130511
-0.00235296
-0.130943
-0.00188584
-0.131259
-0.00121816
-0.131502
-0.000952891
-0.131681
-0.000538524
-0.131811
-0.000385363
-0.131909
-0.000135774
-0.131965
-7.11136e-05
2.38781e-05
-0.144128
-0.00242221
0.143128
-0.144828
-0.00165338
-0.145391
-0.00132199
-0.145769
-0.000840821
-0.146065
-0.000656488
-0.146252
-0.000351516
-0.146393
-0.000244843
-0.146472
-5.6553e-05
-0.146519
-2.40981e-05
2.93023e-05
-0.154115
-0.00125289
0.152946
-0.15492
-0.000847922
-0.155565
-0.000677706
-0.155979
-0.00042664
-0.156302
-0.000333103
-0.156482
-0.000171466
-0.156611
-0.000116121
-0.156654
-1.39916e-05
-0.156675
-3.00852e-06
1.98018e-05
-0.159221
0.157968
-0.160069
-0.160747
-0.161173
-0.161507
-0.161678
-0.161794
-0.161808
-0.161811
-0.0106865
0.0475792
0.00968415
-0.0114362
0.0563262
-0.0120425
0.0672476
-0.0123649
0.0803992
-0.0121895
0.0956087
-0.0112808
0.111867
-0.00949872
0.127451
-0.00687734
0.140507
-0.0036142
0.149683
0.154354
-0.0101526
0.0483554
0.0093763
-0.0108498
0.0570234
-0.0113846
0.0677824
-0.0116226
0.0806372
-0.0113779
0.095364
-0.0104524
0.110941
-0.00874226
0.125741
-0.00629595
0.138061
-0.00329683
0.146683
0.151057
-0.00963628
0.0490746
0.00891717
-0.0102668
0.0576538
-0.0107224
0.068238
-0.0108851
0.0808
-0.0105917
0.0950706
-0.00967497
0.110025
-0.00805418
0.12412
-0.0057808
0.135787
-0.00302086
0.143923
0.148036
-0.00902873
0.0497665
0.00833683
-0.00959662
0.0582217
-0.00997127
0.0686126
-0.0100619
0.0808906
-0.00972937
0.094738
-0.00883569
0.109131
-0.0073205
0.122605
-0.00523606
0.133703
-0.00273036
0.141418
0.145306
-0.00831595
0.0504225
0.00765993
-0.00882339
0.0587292
-0.00912493
0.0689142
-0.00915552
0.0809212
-0.00879964
0.0943821
-0.00794623
0.108278
-0.00655245
0.121211
-0.00467004
0.13182
-0.00242958
0.139177
0.142876
-0.0075162
0.0510332
0.00690552
-0.00795736
0.0591703
-0.00818962
0.0691464
-0.00817087
0.0809024
-0.00780716
0.0940184
-0.0070115
0.107482
-0.00575507
0.119955
-0.00408717
0.130152
-0.00212116
0.137211
0.140755
-0.00664636
0.0515905
0.00608908
-0.00701735
0.0595413
-0.00718231
0.0693114
-0.0071223
0.0808424
-0.00676327
0.0936594
-0.00603992
0.106759
-0.00493431
0.118849
-0.00349148
0.12871
-0.00180721
0.135527
0.138948
-0.00572048
0.0520846
0.0052263
-0.00602083
0.0598417
-0.00612153
0.0694121
-0.00602746
0.0807483
-0.00568323
0.0933152
-0.00504334
0.106119
-0.00409843
0.117904
-0.002888
0.127499
-0.00149016
0.134129
0.137458
-0.00475437
0.052505
0.00433397
-0.00498553
0.0600728
-0.00502532
0.0694519
-0.0049039
0.0806269
-0.00458261
0.0929939
-0.00403439
0.10557
-0.0032566
0.117126
-0.00228254
0.126525
-0.00117278
0.133019
0.136285
-0.00376521
0.0528405
0.00342971
-0.00393064
0.0602383
-0.00391188
0.0694331
-0.0037688
0.0804839
-0.00347631
0.0927014
-0.00302521
0.105119
-0.00241782
0.116519
-0.00168096
0.125788
-0.000858011
0.132197
0.135427
-0.00277971
0.0530847
0.0025355
-0.00287991
0.0603385
-0.00280376
0.069357
-0.0026428
0.0803229
-0.00238195
0.0924406
-0.00203015
0.104767
-0.00159288
0.116082
-0.00109038
0.125286
-0.000549376
0.131655
0.134878
-0.00181644
0.0532398
0.00166138
-0.001847
0.060369
-0.00171906
0.069229
-0.00154078
0.0801446
-0.00131244
0.0922122
-0.00105822
0.104513
-0.000787851
0.115811
-0.000515399
0.125013
-0.000249197
0.131389
0.134629
-0.000905699
0.0533202
0.000825316
-0.000856532
0.0603199
-0.000688146
0.0690606
-0.000492268
0.0799487
-0.000298977
0.0920189
-0.000140137
0.104354
-3.29912e-05
0.115704
2.31137e-05
0.124957
3.18449e-05
0.131381
0.13466
-8.77523e-05
0.0533838
2.41752e-05
6.18669e-05
0.0601702
0.000276328
0.0688462
0.000504946
0.0797201
0.000678145
0.0918457
0.000755668
0.104277
0.000715876
0.115744
0.000559257
0.125114
0.00030999
0.13163
0.13497
0.000743538
0.0533457
-0.000705485
0.000955713
0.0599581
0.00121079
0.0685911
0.00145217
0.0794787
0.00159872
0.0916992
0.00159403
0.104282
0.00141088
0.115927
0.0010558
0.125469
0.000568073
0.132118
0.135538
0.00148535
0.0532484
-0.00138802
0.00176199
0.0596814
0.00205579
0.0682973
0.00231611
0.0792184
0.0024427
0.0915726
0.00236615
0.104358
0.00205282
0.11624
0.00151464
0.126007
0.000805897
0.132826
0.136344
0.00214657
0.0531181
-0.00201624
0.00248574
0.0593423
0.00281376
0.0679693
0.00309346
0.0789387
0.00320606
0.09146
0.00306845
0.104496
0.00263907
0.11667
0.0019342
0.126712
0.00102265
0.133738
0.137367
0.00273455
0.0529829
-0.00259945
0.00312551
0.0589513
0.00348139
0.0676134
0.00377674
0.0786434
0.00387808
0.0913586
0.0036884
0.104685
0.00315748
0.117201
0.00230499
0.127564
0.00121303
0.13483
0.13858
0.00326085
0.0528738
-0.00315168
0.00368705
0.0585251
0.00407004
0.0672304
0.00438191
0.0783315
0.00447872
0.0912618
0.00424715
0.104917
0.00362668
0.117821
0.00264018
0.128551
0.00138381
0.136086
0.139964
0.00365904
0.0528778
-0.0036631
0.0040812
0.0581029
0.00448925
0.0668224
0.00480945
0.0780113
0.0049022
0.0911691
0.00464308
0.105176
0.00396121
0.118503
0.00287918
0.129633
0.00150272
0.137463
0.141467
-0.0343471
0.0488689
0.038356
-0.031275
0.0550309
-0.0292224
0.0647697
-0.0270254
0.0758143
-0.0243472
0.0884909
-0.0209014
0.10173
-0.0165912
0.114193
-0.0115163
0.124558
-0.005894
0.13184
0.135573
-0.0422449
0.0453341
0.0457797
-0.0393771
0.0521631
-0.0367501
0.0621428
-0.0337258
0.07279
-0.0301665
0.0849316
-0.0257154
0.0972792
-0.0203039
0.108781
-0.0140519
0.118306
-0.00720581
0.124994
0.128367
-0.0511002
0.0419757
0.0544585
-0.0481503
0.0492132
-0.0448947
0.0588871
-0.0410279
0.0689232
-0.0364205
0.0803243
-0.0307425
0.0916012
-0.0240553
0.102094
-0.0165144
0.110765
-0.00837118
0.116851
0.119996
-0.0617125
0.0387633
0.0649249
-0.0582851
0.0457858
-0.0542319
0.0548339
-0.0494069
0.0640982
-0.0435968
0.0745142
-0.0365295
0.0845339
-0.0284
0.0939646
-0.019414
0.101779
-0.00988265
0.10732
0.110113
-0.0735758
0.0350078
0.0773313
-0.0693326
0.0415426
-0.0642252
0.0497266
-0.0580762
0.0579492
-0.0506692
0.0671072
-0.0419053
0.07577
-0.0321336
0.0841929
-0.0216016
0.0912472
-0.0107169
0.0964349
0.099396
-0.087111
0.0312348
0.090884
-0.0817791
0.0362107
-0.0754415
0.0433889
-0.0677867
0.0502944
-0.0587138
0.0580343
-0.0482999
0.0653562
-0.0368534
0.0727464
-0.0246833
0.0790771
-0.0124681
0.0842197
0.086928
-0.100004
0.025629
0.10561
-0.0934997
0.0297064
-0.0856751
0.0355643
-0.0760551
0.0406744
-0.0649487
0.0469279
-0.0523912
0.0527987
-0.0387504
0.0591056
-0.0245319
0.0648586
-0.0109118
0.0705996
0.0760161
-0.113604
0.0201661
0.119067
-0.106029
0.0221318
-0.0969239
0.0264592
-0.0860503
0.0298007
-0.0737747
0.0346522
-0.0599446
0.0389686
-0.0450585
0.0442195
-0.0296163
0.0494164
-0.0156365
0.0566198
0.0603796
-0.128069
0.00982903
0.138406
-0.117114
0.0111775
-0.104203
0.0135477
-0.0897524
0.0153501
-0.0732409
0.0181408
-0.0549822
0.0207098
-0.0349244
0.0241618
-0.0140088
0.0285008
0.00522841
0.0373826
0.0656081
-0.234579
0.244408
-0.223402
-0.209854
-0.194504
-0.176363
-0.155653
-0.131491
-0.102991
-0.0656081
0.00203198
0.0396996
-0.00337551
0.000819827
0.0469918
-0.00014532
0.0554237
-0.000765427
0.065545
-0.00114617
0.077712
-0.00129015
0.091028
-0.00106986
0.10539
-0.000798261
0.118795
-0.0016167
0.139224
0.242791
0.00235325
0.0409938
-0.00364747
0.00116864
0.0481764
0.00022818
0.0563641
-0.000448732
0.0662219
-0.00086577
0.078129
-0.00104204
0.0912043
-0.000893906
0.105241
-0.00067866
0.11858
-0.0014212
0.139967
0.24137
0.0027391
0.0421862
-0.00393148
0.00159498
0.0493206
0.000682135
0.057277
-3.91732e-05
0.0669433
-0.000452154
0.078542
-0.000670347
0.0914225
-0.000579455
0.105151
-0.000473261
0.118473
-0.00122278
0.140716
0.240147
0.0031279
0.0432767
-0.00421846
0.00203178
0.0504167
0.00115069
0.0581581
0.000463123
0.0676308
-1.79914e-06
0.0790069
-0.000250476
0.0916712
-0.000192618
0.105093
-0.000220686
0.118502
-0.000968616
0.141464
0.239179
0.00351098
0.0442612
-0.0044954
0.00248102
0.0514466
0.001641
0.0589981
0.000983804
0.068288
0.000538563
0.0794522
0.000238764
0.091971
0.000231807
0.1051
8.62883e-05
0.118647
-0.00066935
0.14222
0.238509
0.00390005
0.0451136
-0.00475253
0.00295747
0.0523892
0.00216695
0.0597886
0.00154422
0.0689107
0.00110623
0.0798902
0.000803068
0.0922741
0.000700052
0.105203
0.000493936
0.118853
-0.000330082
0.143044
0.238179
0.00429459
0.0458025
-0.00498343
0.00345927
0.0532245
0.00272791
0.06052
0.00214543
0.0694932
0.00171754
0.0803181
0.0014006
0.0925911
0.00121856
0.105385
0.000922545
0.119149
4.77763e-05
0.143919
0.238227
0.00468989
0.0462952
-0.00518259
0.00397772
0.0539367
0.00331549
0.0611822
0.0027796
0.0700291
0.0023664
0.0807313
0.00203464
0.0929228
0.0017771
0.105642
0.0013838
0.119542
0.000419114
0.144883
0.238646
0.005077
0.0465619
-0.00534377
0.00450272
0.054511
0.00391968
0.0617653
0.00343678
0.070512
0.00304433
0.0811237
0.00269831
0.0932689
0.00236777
0.105973
0.0018755
0.120035
0.000827566
0.145931
0.239474
0.0054443
0.0465778
-0.00546019
0.00502288
0.0549324
0.00452984
0.0622583
0.00410624
0.0709356
0.00374134
0.0814886
0.00338207
0.0936281
0.00298235
0.106372
0.00239159
0.120626
0.00125644
0.147067
0.24073
0.00577524
0.0463255
-0.00552297
0.00552187
0.0551858
0.00513127
0.0626489
0.00477248
0.0712944
0.00444117
0.0818199
0.00407243
0.0939969
0.00360903
0.106836
0.0029225
0.121312
0.0016969
0.148292
0.242427
0.00606263
0.045798
-0.00553508
0.00599293
0.0552555
0.00571607
0.0629257
0.00542825
0.0715822
0.00513634
0.0821118
0.00476369
0.0943695
0.00424251
0.107357
0.0034641
0.12209
0.00214591
0.14961
0.244573
0.00629048
0.045002
-0.00549447
0.00641885
0.0551271
0.00626534
0.0630793
0.00605531
0.0717923
0.00580916
0.082358
0.00544041
0.0947383
0.0048694
0.107928
0.00400601
0.122954
0.00259632
0.15102
0.247169
0.00644878
0.0439596
-0.00540642
0.00678566
0.0547903
0.00676428
0.0631006
0.00663886
0.0719177
0.00644529
0.0825516
0.00608962
0.0950939
0.0054786
0.108539
0.00453974
0.123893
0.00304179
0.152518
0.250211
0.00653119
0.0427093
-0.00528088
0.00708155
0.0542399
0.0071993
0.0629829
0.00716474
0.0719522
0.00703105
0.0826853
0.0066985
0.0954265
0.00605933
0.109178
0.00505696
0.124895
0.00347627
0.154099
0.253688
0.00653718
0.0413046
-0.00513241
0.00729769
0.0534794
0.00755881
0.0627218
0.0076202
0.0718908
0.00755388
0.0827516
0.00725451
0.0957258
0.00660078
0.109832
0.00554938
0.125946
0.00389181
0.155756
0.257579
0.00647449
0.0398074
-0.00497737
0.00742927
0.0525246
0.00783358
0.0623175
0.00799483
0.0717296
0.00800275
0.0827437
0.0077475
0.0959811
0.00709476
0.110485
0.00601112
0.12703
0.0042836
0.157484
0.261863
0.00635675
0.0382754
-0.00482468
0.00747525
0.0514061
0.0080185
0.0617742
0.0082798
0.0714683
0.00836522
0.0826582
0.00816324
0.0961831
0.00752677
0.111121
0.00643118
0.128126
0.00463926
0.159276
0.266502
0.00617783
0.0367426
-0.00464508
0.00742815
0.0501558
0.00811426
0.0610881
0.00847996
0.0711026
0.00864906
0.0824891
0.00851184
0.0963203
0.00790613
0.111727
0.00681725
0.129215
0.00496346
0.161129
0.271466
0.00591636
0.0351411
-0.0043149
0.00723155
0.0488406
0.00805274
0.0602669
0.00851706
0.0706383
0.00877394
0.0822322
0.00871047
0.0963838
0.008166
0.112271
0.00710427
0.130276
0.00525356
0.16298
0.276719
-0.0152666
0.0353911
0.0150166
-0.013767
0.047341
-0.0114274
0.0579273
-0.00864732
0.0678582
-0.00571894
0.0793039
-0.0025709
0.0932357
0.000639475
0.109061
0.00297881
0.127937
0.00208341
0.163876
0.278803
-0.0277126
0.0343339
0.0287698
-0.0253231
0.0449515
-0.0217635
0.0543677
-0.0176242
0.0637189
-0.0132058
0.0748855
-0.00839246
0.0884224
-0.00346367
0.104132
0.000311963
0.124161
0.000842917
0.163345
0.279646
-0.0413826
0.0323959
0.0433205
-0.0378544
0.0414233
-0.032919
0.0494324
-0.0274102
0.0582101
-0.0214736
0.0689489
-0.0148856
0.0818344
-0.00804125
0.0972879
-0.00239024
0.11851
-0.000308659
0.161263
0.279337
-0.0562127
0.0295388
0.0590698
-0.051273
0.0364836
-0.0451403
0.0432996
-0.0383826
0.0514524
-0.0308171
0.0613833
-0.0222817
0.0732991
-0.0133978
0.088404
-0.00578192
0.110894
-0.00188879
0.15737
0.277448
-0.0723487
0.0252913
0.0765963
-0.066166
0.0303009
-0.0592055
0.0363391
-0.0511422
0.0433891
-0.0418192
0.0520602
-0.0313185
0.0627984
-0.020379
0.0774645
-0.0105928
0.101108
-0.00420771
0.150985
0.27324
-0.0903844
0.0204192
0.0952565
-0.0833604
0.0232769
-0.0755057
0.0284845
-0.0659792
0.0338626
-0.0550356
0.0411167
-0.0427389
0.0505018
-0.0299917
0.0647172
-0.0179895
0.0891061
-0.00847938
0.141475
0.264761
-0.111466
0.0139687
0.117917
-0.103997
0.0158074
-0.09545
0.0199378
-0.085122
0.0235345
-0.0734994
0.029494
-0.0602648
0.0372673
-0.0462105
0.0506629
-0.0318553
0.0747508
-0.0174922
0.127112
0.247269
-0.142224
0.00726157
0.148931
-0.134357
0.00794027
-0.125168
0.0107486
-0.114531
0.0128975
-0.102493
0.0174556
-0.0889058
0.0236805
-0.0739797
0.0357368
-0.0574166
0.0581877
-0.0357593
0.105454
0.211509
-0.200375
0.00166619
0.20597
-0.194541
0.00210629
-0.187122
0.00333014
-0.178917
0.00469189
-0.168863
0.00740194
-0.156863
0.0116804
-0.140938
0.0198118
-0.117448
0.0346976
-0.0764311
0.0644374
0.135078
-0.283236
0.284902
-0.28113
-0.277799
-0.273108
-0.265706
-0.254025
-0.234213
-0.199516
-0.135078
0.00200211
0.0157732
-0.0027587
0.000576393
0.0301955
-0.000933856
0.0448308
-0.00230278
0.0604387
-0.00341578
0.0777093
-0.0043526
0.0961933
-0.00501901
0.118583
-0.00555079
0.149463
-0.00481375
0.205233
0.280088
0.00173252
0.0162131
-0.00217242
0.000592075
0.0313359
-0.000773308
0.0461962
-0.00208199
0.0617474
-0.00318198
0.0788093
-0.00410604
0.0971174
-0.00477581
0.119253
-0.00532938
0.150017
-0.00431219
0.204216
0.275776
0.00155249
0.0164148
-0.00175416
0.000686515
0.0322019
-0.000503169
0.0473859
-0.00169956
0.0629438
-0.00274454
0.0798542
-0.00363817
0.098011
-0.0043281
0.119943
-0.00484591
0.150535
-0.00394373
0.203314
0.271832
0.00145391
0.0164156
-0.00145472
0.000848221
0.0328076
-0.000165262
0.0483993
-0.00123204
0.0640106
-0.00220306
0.0808253
-0.00307014
0.0988781
-0.00377145
0.120644
-0.00429091
0.151054
-0.00352565
0.202549
0.268307
0.00143
0.0162273
-0.00124163
0.00108555
0.033152
0.000276597
0.0492083
-0.000681423
0.0649686
-0.00157697
0.0817208
-0.00241605
0.0997172
-0.00313158
0.12136
-0.00367131
0.151594
-0.00306351
0.201941
0.265243
0.0014754
0.0158521
-0.0011002
0.00140026
0.0332272
0.000810168
0.0497984
-5.5294e-05
0.0658341
-0.000855551
0.0825211
-0.00167318
0.100535
-0.00240732
0.122094
-0.00298713
0.152174
-0.00256386
0.201518
0.262679
0.00158357
0.0152924
-0.00102395
0.00178575
0.033025
0.00142145
0.0501627
0.000731508
0.066524
-3.75501e-05
0.0832901
-0.000847194
0.101344
-0.00159566
0.122842
-0.00224269
0.152821
-0.00203275
0.201308
0.260647
0.00174593
0.0145572
-0.00101073
0.00223137
0.0325396
0.00210175
0.0502923
0.00156903
0.0670567
0.000865529
0.0839936
2.30516e-05
0.102187
-0.000696642
0.123562
-0.00144969
0.153574
-0.00147482
0.201333
0.259172
0.00195314
0.0136661
-0.00106205
0.00272276
0.0317699
0.00283739
0.0501777
0.00246582
0.0674283
0.00183944
0.08462
0.00106636
0.10296
0.000268836
0.124359
-0.000626347
0.154469
-0.000892354
0.201599
0.258279
0.00219659
-0.00118297
0.00324239
0.00361378
0.00341063
0.00286514
0.00210758
0.00123225
0.000233025
-0.000282623
0.000156721
-0.00126157
0.00045479
-0.00291059
0.000834766
-0.00401428
0.00126362
-0.00471682
0.00172363
-0.00512198
0.00220669
-0.0053074
0.00271094
-0.00533224
0.00323966
-0.00524152
0.00380308
-0.00507001
-0.00484793
0.000158339
-0.00141991
0.000448366
-0.00320061
0.000807206
-0.00437312
0.00120122
-0.00511084
0.00161361
-0.00553437
0.0020378
-0.00573158
0.00247348
-0.00576792
0.0029245
-0.00569254
0.00339783
-0.00554334
-0.00535244
0.000152415
-0.00157232
0.000418948
-0.00346715
0.000736099
-0.00469027
0.00107158
-0.00544632
0.00141099
-0.00587377
0.00175052
-0.00607111
0.00209253
-0.00610993
0.00244277
-0.00604278
0.00280823
-0.00590881
-0.00573906
0.000138283
-0.00171061
0.000365541
-0.0036944
0.000621047
-0.00494577
0.000876029
-0.00570131
0.00111985
-0.0061176
0.0013523
-0.00630355
0.00157878
-0.00633641
0.00180732
-0.00627133
0.00204656
-0.00614804
-0.00599686
0.000115704
-0.00182631
0.000288504
-0.0038672
0.000464288
-0.00512156
0.000620018
-0.00585704
0.000750005
-0.00624758
0.000858035
-0.00641158
0.000952533
-0.00643091
0.00104348
-0.00636227
0.00114048
-0.00624505
-0.00611205
8.49116e-05
-0.00191122
0.000189567
-0.00397186
0.000270528
-0.00520252
0.000312568
-0.00589908
0.000315797
-0.00625081
0.000288081
-0.00638387
0.000240447
-0.00638327
0.000184521
-0.00630634
0.000130393
-0.00619092
-0.00606066
4.66596e-05
-0.00195788
7.16964e-05
-0.0039969
4.65322e-05
-0.00517735
-3.46394e-05
-0.0058179
-0.000165429
-0.00612002
-0.000334146
-0.00621515
-0.000527772
-0.00618965
-0.000734342
-0.00609977
-0.000944033
-0.00598123
-0.00585927
1.24677e-06
-0.00195913
-6.10207e-05
-0.00393463
-0.000199402
-0.00503897
-0.000408273
-0.00560903
-0.000674928
-0.00585337
-0.000984472
-0.0059056
-0.00132278
-0.00585133
-0.00167809
-0.00574446
-0.0020412
-0.00561812
-0.00549473
-4.7748e-05
-0.00191138
-0.000203704
-0.00377867
-0.000458126
-0.00478455
-0.000794386