/*--------------------------------*- C++ -*----------------------------------*\
  =========                 |
  \\      /  F ield         | OpenFOAM: The Open Source CFD Toolbox
   \\    /   O peration     | Website:  https://openfoam.org
    \\  /    A nd           | Version:  7
     \\/     M anipulation  |
\*---------------------------------------------------------------------------*/
FoamFile
{
    version     2.0;
    format      ascii;
    class       surfaceScalarField;
    location    "4.5";
    object      phi;
}
// * * * * * * * * * * * * * * * * * * * * * * * * * * * * * * * * * * * * * //

dimensions      [0 3 -1 0 0 0 0];

internalField   nonuniform List<scalar> 
63520
(
-1.22468e-05
0.000201228
-0.000188981
-4.16514e-05
0.000639199
-0.000609794
-8.40191e-05
0.00110587
-0.00106351
-0.000135837
0.0015731
-0.00152128
-0.000194174
0.00202676
-0.00196843
-0.00025652
0.00246039
-0.00239804
-0.000320693
0.00287127
-0.0028071
-0.000384797
0.00325882
-0.00319471
-0.000447181
0.00362343
-0.00356104
-0.000506437
0.00396598
-0.00390672
-0.000561363
0.00428721
-0.00423228
-0.000610933
0.00458762
-0.00453805
-0.000654296
0.00486742
-0.00482405
-0.000690747
0.00512651
-0.00509006
-0.000719697
0.00536458
-0.00533563
-0.000740664
0.00558122
-0.00556026
-0.000753258
0.00577601
-0.00576341
-0.000757165
0.00594855
-0.00594465
-0.000752133
0.00609862
-0.00610365
-0.000737967
0.0062261
-0.00624026
-0.000714523
0.00633109
-0.00635453
-0.000681697
0.00641388
-0.0064467
-0.000639418
0.00647495
-0.00651723
-0.000587637
0.00651499
-0.00656677
-0.000526334
0.00653483
-0.00659613
-0.000455512
0.00653546
-0.00660629
-0.000375189
0.00651803
-0.00659835
-0.000285402
0.00648375
-0.00657353
-0.000186214
0.00643392
-0.0065331
-7.77228e-05
0.00636991
-0.0064784
3.99327e-05
0.00629312
-0.00641078
0.00016656
0.006205
-0.00633163
0.000301894
0.00610698
-0.00624231
0.000445573
0.00600052
-0.00614419
0.000597119
0.00588705
-0.00603859
0.000755905
0.005768
-0.00592679
0.00092114
0.00564476
-0.00580999
0.00109184
0.00551856
-0.00568925
0.00126678
0.00539225
-0.00556719
0.00526957
0.0014445
-0.00544729
-1.23393e-05
0.000213567
-4.18222e-05
0.000668681
-8.42107e-05
0.00114826
-0.000136064
0.00162495
-0.000194516
0.00208521
-0.0002571
0.00252297
-0.000321658
0.00293583
-0.000386323
0.00332348
-0.000449475
0.00368658
-0.000509693
0.00402619
-0.000565765
0.00434328
-0.000616658
0.00463851
-0.000661506
0.00491226
-0.000699585
0.00516459
-0.000730302
0.0053953
-0.000753167
0.00560409
-0.000767777
0.00579062
-0.000773796
0.00595457
-0.000770953
0.00609578
-0.000759035
0.00621418
-0.000737873
0.00630992
-0.000707331
0.00638334
-0.000667306
0.00643493
-0.000617716
0.0064654
-0.000558496
0.00647561
-0.000489596
0.00646656
-0.000410984
0.00643942
-0.000322651
0.00639541
-0.000224609
0.00633587
-0.000116903
0.0062622
3.75404e-07
0.00617584
0.000127075
0.0060783
0.000262962
0.00597109
0.000407696
0.00585578
0.000560801
0.00573394
0.000721638
0.00560716
0.000889367
0.00547703
0.00106294
0.00534499
0.00124103
0.00521416
0.00508855
0.00142205
-1.22935e-05
0.000225861
-4.15482e-05
0.000697936
-8.35705e-05
0.00119028
-0.00013499
0.00167637
-0.000193004
0.00214323
-0.000255222
0.00258519
-0.000319551
0.00300016
-0.000384142
0.00338807
-0.000447397
0.00374983
-0.000507897
0.00408669
-0.000564433
0.00439981
-0.000615968
0.00469005
-0.000661622
0.00495792
-0.000700665
0.00520363
-0.00073249
0.00542712
-0.000756589
0.00562819
-0.000772545
0.00580657
-0.000780014
0.00596204
-0.000778712
0.00609447
-0.000768402
0.00620387
-0.000748891
0.00629041
-0.000720017
0.00635446
-0.000681641
0.00639655
-0.000633642
0.0064174
-0.000575915
0.00641788
-0.00050837
0.00639902
-0.000430928
0.00636198
-0.000343525
0.00630801
-0.000246119
0.00623847
-0.000138707
0.00615479
-2.13341e-05
0.00605847
0.000105891
0.00595108
0.00024277
0.00583421
0.00038899
0.00570956
0.000544084
0.00557885
0.000707405
0.00544384
0.000878086
0.00530635
0.001055
0.00516807
0.00123675
0.00503242
0.00490371
0.00142158
-1.2103e-05
0.000237964
-4.08919e-05
0.000726724
-8.21941e-05
0.00123158
-0.000132727
0.0017269
-0.000189789
0.00220029
-0.000251065
0.00264647
-0.000314525
0.00306362
-0.00037837
0.00345192
-0.000441033
0.00381249
-0.000501107
0.00414677
-0.000557379
0.00445608
-0.000608814
0.00474148
-0.000654531
0.00500363
-0.000693783
0.00524288
-0.000725954
0.00545929
-0.000750531
0.00565277
-0.000767086
0.00582313
-0.000775258
0.00597022
-0.000774747
0.00609396
-0.000765302
0.00619443
-0.000746707
0.00627182
-0.00071877
0.00632652
-0.000681321
0.0063591
-0.000634209
0.00637029
-0.000577289
0.00636096
-0.000510426
0.00633216
-0.000433495
0.00628504
-0.000346383
0.0062209
-0.000249006
0.00614109
-0.000141311
0.00604709
-2.32925e-05
0.00594045
0.000104984
0.0058228
0.000243359
0.00569584
0.000391549
0.00556137
0.000549113
0.00542128
0.000715404
0.00527755
0.000889533
0.00513222
0.00107032
0.00498728
0.00125627
0.00484647
0.00471449
0.00144549
-1.18051e-05
0.000249769
-3.98433e-05
0.000754762
-8.00436e-05
0.00127178
-0.000129226
0.00177608
-0.00018479
0.00225585
-0.00024452
0.00270619
-0.000306469
0.00312556
-0.00036889
0.00351434
-0.000430239
0.00387384
-0.000489141
0.00420567
-0.000544395
0.00451134
-0.000594958
0.00479205
-0.000639947
0.00504862
-0.000678614
0.00528155
-0.000710334
0.00549101
-0.000734579
0.00567701
-0.000750912
0.00583946
-0.000758963
0.00597827
-0.00075842
0.00609342
-0.000749012
0.00618502
-0.000730501
0.00625331
-0.000702674
0.0062987
-0.000665334
0.00632176
-0.000618295
0.00632325
-0.000561377
0.00630404
-0.000494408
0.00626519
-0.000417223
0.00620786
-0.000329668
0.00613334
-0.000231611
0.00604303
-0.000122955
0.00593844
-3.65133e-06
0.00582115
0.000126279
0.00569287
0.000266719
0.0055554
0.000417425
0.00541067
0.000577982
0.00526073
0.000747763
0.00510777
0.000925872
0.00495411
0.00111109
0.00480206
0.00130184
0.00465572
0.00452027
0.00149607
-1.13796e-05
0.000261148
-3.84147e-05
0.000781797
-7.71449e-05
0.00131051
-0.000124517
0.00182346
-0.000178059
0.00230939
-0.000235653
0.00276379
-0.000295442
0.00318535
-0.000355745
0.00357464
-0.000415056
0.00393315
-0.000472029
0.00426264
-0.000525472
0.00456478
-0.000574354
0.00484093
-0.00061779
0.00509206
-0.000655025
0.00531878
-0.000685426
0.00552141
-0.00070846
0.00570005
-0.000723681
0.00585468
-0.000730708
0.00598529
-0.000729216
0.00609193
-0.000718921
0.00617472
-0.000699567
0.00623395
-0.000670918
0.00627005
-0.000632753
0.0062836
-0.00058486
0.00627535
-0.000527028
0.00624621
-0.000459053
0.00619721
-0.000380734
0.00612954
-0.000291883
0.00604449
-0.00019233
0.00594348
-8.19397e-05
0.00582805
3.93786e-05
0.00569983
0.000171647
0.0055606
0.000314789
0.00541226
0.000468606
0.00525685
0.000632722
0.00509661
0.000806541
0.00493395
0.00098918
0.00477147
0.0011794
0.00461184
0.00137554
0.00445958
0.00432041
0.0015754
-1.08497e-05
0.000271998
-3.66242e-05
0.000807572
-7.35204e-05
0.00134741
-0.000118631
0.00186857
-0.000169617
0.00236038
-0.000224481
0.00281865
-0.00028146
0.00324233
-0.000338943
0.00363212
-0.00039547
0.00398968
-0.000449729
0.0043169
-0.000500551
0.0046156
-0.000546909
0.00488729
-0.00058792
0.00513307
-0.000622828
0.00535369
-0.000650995
0.00554958
-0.000671881
0.00572093
-0.00068503
0.00586783
-0.000690055
0.00599032
-0.000686622
0.00608849
-0.000674433
0.00616253
-0.000653214
0.00621273
-0.000622714
0.00623955
-0.000582692
0.00624358
-0.000532913
0.00622557
-0.000473144
0.00618644
-0.000403154
0.00612722
-0.000322715
0.0060491
-0.000231612
0.00595339
-0.000129647
0.00584152
-1.66496e-05
0.00571505
0.000107502
0.00557568
0.000242867
0.00542524
0.000389415
0.00526571
0.000546989
0.00509928
0.000715266
0.00492833
0.000893693
0.00475552
0.00108142
0.00458375
0.0012772
0.00441606
0.00147932
0.00425745
0.0041143
0.00168543
-1.02233e-05
0.000282221
-3.44957e-05
0.000831844
-6.92025e-05
0.00138212
-0.000111604
0.00191097
-0.000159514
0.00240829
-0.000211059
0.0028702
-0.000264573
0.00329584
-0.000318527
0.00368608
-0.000371515
0.00404267
-0.000422262
0.00436765
-0.000469621
0.00466296
-0.000512582
0.00493025
-0.000550262
0.00517075
-0.000581907
0.00538534
-0.000606875
0.00557455
-0.000624618
0.00573868
-0.000634677
0.00587789
-0.000636659
0.0059923
-0.000630218
0.00608205
-0.000615045
0.00614736
-0.000590856
0.00618855
-0.000557386
0.00620608
-0.00051438
0.00620057
-0.000461587
0.00617278
-0.000398756
0.00612361
-0.000325639
0.00605411
-0.000241992
0.00596545
-0.000147581
0.00585898
-4.21874e-05
0.00573612
7.43787e-05
0.00559848
0.000202268
0.00544779
0.000341569
0.00528593
0.00049229
0.00511499
0.000654321
0.00493725
0.000827394
0.00475526
0.00101101
0.0045719
0.00120438
0.00439038
0.00140627
0.00421417
0.00161495
0.00404878
0.00390135
0.00182791
-9.50892e-06
0.00029173
-3.20506e-05
0.000854386
-6.42317e-05
0.0014143
-0.000103497
0.00195023
-0.000147823
0.00245262
-0.000195468
0.00291784
-0.00024487
0.00334525
-0.000294586
0.00373579
-0.000343271
0.00409135
-0.000389694
0.00441407
-0.000432736
0.004706
-0.0004714
0.00496891
-0.000504814
0.00520416
-0.000532224
0.00541275
-0.000552984
0.00559531
-0.000566545
0.00575224
-0.000572442
0.00588379
-0.000570276
0.00599013
-0.000559694
0.00607147
-0.000540377
0.00612804
-0.000512036
0.0061602
-0.000474397
0.00616844
-0.000427196
0.00615337
-0.000370171
0.00611576
-0.000303064
0.0060565
-0.000225618
0.00597666
-0.000137581
0.00587742
-3.8712e-05
0.00576011
7.12166e-05
0.00562619
0.000192406
0.00547729
0.00032502
0.00531518
0.00046917
0.00514178
0.000624898
0.00495926
0.000792138
0.00477001
0.000970678
0.00457672
0.00116009
0.00438249
0.00135965
0.00419082
0.00156819
0.00400563
0.00178396
0.00383301
0.00368096
0.00200434
-8.71501e-06
0.000300445
-2.93172e-05
0.000874988
-5.86589e-05
0.00144364
-9.43858e-05
0.00198596
-0.000134641
0.00249287
-0.000177822
0.00296102
-0.000222476
0.0033899
-0.000267253
0.00378057
-0.000310874
0.00413497
-0.000352156
0.00445535
-0.000390012
0.00474386
-0.000423466
0.00500236
-0.000451654
0.00523235
-0.000473826
0.00543492
-0.000489338
0.00561082
-0.000497637
0.00576054
-0.000498254
0.0058844
-0.000490786
0.00598267
-0.000474874
0.00605556
-0.000450196
0.00610336
-0.000416457
0.00612647
-0.000373382
0.00612536
-0.000320702
0.00610069
-0.000258154
0.00605321
-0.000185479
0.00598383
-0.000102421
0.0058936
-8.7314e-06
0.00578373
9.58285e-05
0.00565555
0.000211481
0.00551054
0.000338425
0.00535035
0.00047683
0.00517677
0.000626817
0.0049918
0.000788448
0.00479763
0.000961698
0.00459676
0.00114641
0.00439201
0.00134224
0.00418666
0.00154854
0.00398452
0.00176422
0.00378995
0.00198758
0.00360966
0.00345264
0.0022159
-7.84967e-06
0.000308295
-2.63268e-05
0.000893465
-5.25444e-05
0.00146986
-8.43591e-05
0.00201777
-0.000120085
0.0025286
-0.000158262
0.0029992
-0.000197555
0.00342919
-0.000236706
0.00381972
-0.000274511
0.00417278
-0.000309839
0.00449068
-0.000341639
0.00477566
-0.000368958
0.00502968
-0.000390947
0.00525434
-0.000406862
0.00545084
-0.000416059
0.00562002
-0.000417986
0.00576246
-0.000412173
0.00587859
-0.000398211
0.0059687
-0.000375739
0.00603309
-0.000344436
0.00607206
-0.000304006
0.00608604
-0.000254176
0.00607553
-0.000194679
0.00604119
-0.000125259
0.00598379
-4.56631e-05
0.00590423
4.43523e-05
0.00580359
0.000145022
0.00568306
0.00025657
0.005544
0.000379203
0.00538791
0.000513104
0.00521645
0.000658431
0.00503145
0.000815305
0.00483492
0.000983796
0.00462914
0.00116391
0.00441664
0.00135554
0.00420038
0.00155842
0.00398378
0.001772
0.00377094
0.0019953
0.00356665
0.00222668
0.00337828
0.00321592
0.0024634
-6.92407e-06
0.000315219
-2.31147e-05
0.000909655
-4.59563e-05
0.0014927
-7.35219e-05
0.00204534
-0.000104295
0.00255937
-0.000136963
0.00303187
-0.000170307
0.00346254
-0.00020317
0.00385258
-0.000234425
0.00420403
-0.000262997
0.00451925
-0.000287877
0.00480054
-0.00030814
0.00504995
-0.000322954
0.00526915
-0.000331583
0.00545946
-0.000333387
0.00562182
-0.000327817
0.00575689
-0.000314402
0.00586518
-0.000292731
0.00594703
-0.000262444
0.0060028
-0.000223223
0.00603284
-0.000174778
0.00603759
-0.00011684
0.0060176
-4.91539e-05
0.00597351
2.85259e-05
0.00590611
0.000116433
0.00581632
0.000214791
0.00570523
0.000323812
0.00557404
0.000443691
0.00542412
0.000574607
0.00525699
0.000716715
0.00507434
0.000870149
0.00487801
0.00103501
0.00467006
0.00121137
0.00445278
0.00139924
0.00422877
0.00159856
0.00400106
0.00180913
0.00377321
0.00203052
0.00354955
0.00226188
0.0033353
0.00250167
0.00313849
0.00297043
0.00274716
-5.94891e-06
0.000321168
-1.97202e-05
0.000923426
-3.89718e-05
0.00151195
-6.19915e-05
0.00206836
-8.7431e-05
0.00258481
-0.000114122
0.00305856
-0.00014097
0.00348938
-0.000166915
0.00387852
-0.000190912
0.00422803
-0.00021195
0.00454029
-0.000229065
0.00481765
-0.000241363
0.00506224
-0.000248033
0.00527582
-0.000248352
0.00545978
-0.000241688
0.00561516
-0.000227494
0.0057427
-0.000205302
0.00584298
-0.0001747
0.00591643
-0.000135334
0.00596343
-8.68937e-05
0.0059844
-2.90981e-05
0.0059798
3.83106e-05
0.00595019
0.000115572
0.00589624
0.00020291
0.00581877
0.000300534
0.0057187
0.000408636
0.00559713
0.000527395
0.00545528
0.000656968
0.00529455
0.000797492
0.00511647
0.000949085
0.00492275
0.00111184
0.00471526
0.00128582
0.00449608
0.00147108
0.00426752
0.00166764
0.00403222
0.00187545
0.00379325
0.00209438
0.00355428
0.0023241
0.00331983
0.00256391
0.00309549
0.00281242
0.00288997
0.00271588
0.00306697
-4.93687e-06
0.000326104
-1.61861e-05
0.000934676
-3.16743e-05
0.00152744
-4.98972e-05
0.00208658
-6.96697e-05
0.00260458
-8.99659e-05
0.00307885
-0.000109813
0.00350923
-0.000128253
0.00389696
-0.000144325
0.0042441
-0.000157084
0.00455305
-0.000165618
0.00482619
-0.000169067
0.00506569
-0.000166648
0.00527341
-0.000157653
0.00545079
-0.000141459
0.00559896
-0.000117529
0.00571877
-8.53947e-05
0.00581085
-4.46534e-05
0.00587569
5.04147e-06
0.00591374
6.39902e-05
0.00592545
0.00013246
0.00591133
0.00021069
0.00587196
0.000298899
0.00580804
0.00039728
0.00572039
0.000506011
0.00560997
0.000625245
0.00547789
0.000755116
0.00532541
0.000895735
0.00515393
0.00104719
0.00496502
0.00120953
0.0047604
0.00138282
0.00454197
0.00156707
0.00431183
0.00176228
0.00407231
0.00196846
0.00382605
0.00218556
0.00357614
0.00241352
0.00332632
0.00265209
0.00308126
0.00290071
0.00284687
0.0031582
0.00263248
0.00245206
0.00342201
-3.90162e-06
0.000330006
-1.25584e-05
0.000943332
-2.41534e-05
0.00153903
-3.73788e-05
0.00209981
-5.12053e-05
0.00261841
-6.47437e-05
0.00309239
-7.71404e-05
0.00352163
-8.7539e-05
0.00390736
-9.5067e-05
0.00425163
-9.88482e-05
0.00455683
-9.80257e-05
0.00482537
-9.17835e-05
0.00505945
-7.93649e-05
0.00526099
-6.00841e-05
0.00543151
-3.33343e-05
0.00557221
1.41457e-06
0.00568402
4.46209e-05
0.00576764
9.66777e-05
0.00582363
0.000157919
0.0058525
0.00022863
0.00585474
0.00030906
0.0058309
0.000399424
0.00578159
0.00049991
0.00570755
0.000610677
0.00560962
0.000731862
0.00548879
0.00086357
0.00534618
0.00100588
0.00518309
0.00115886
0.00500095
0.00132251
0.00480136
0.00149685
0.00458606
0.00168185
0.00435697
0.00187748
0.00411621
0.00208367
0.00386611
0.0023004
0.00360932
0.00252761
0.00334893
0.00276524
0.00308869
0.00301315
0.00283334
0.00327093
0.00258909
0.00353758
0.00236582
0.00217888
0.00381077
-2.85764e-06
0.000332863
-8.88503e-06
0.00094936
-1.65029e-05
0.00154665
-2.45844e-05
0.00210789
-3.22455e-05
0.00262607
-3.87249e-05
0.00309887
-4.32836e-05
0.00352619
-4.51669e-05
0.00390924
-4.35908e-05
0.00425005
-3.77522e-05
0.00455099
-2.68549e-05
0.00481447
-1.01293e-05
0.00504273
1.31468e-05
0.00523771
4.36331e-05
0.00540102
8.19176e-05
0.00553393
0.000128516
0.00563742
0.000183873
0.00571228
0.000248368
0.00575914
0.000322317
0.00577855
0.000405986
0.00577107
0.000499599
0.00573728
0.000603343
0.00567785
0.000717367
0.00559353
0.00084179
0.0054852
0.0009767
0.00535388
0.00112215
0.00520073
0.00127816
0.00502708
0.00144471
0.0048344
0.00162177
0.0046243
0.00180927
0.00439857
0.0020071
0.00415914
0.00221515
0.00390816
0.00243331
0.00364795
0.00266147
0.00338116
0.00289955
0.00311085
0.0031475
0.00284074
0.00340523
0.00257562
0.00367246
0.00232187
0.00394842
0.00208986
0.00189631
0.00423099
-1.82017e-06
0.000334683
-5.21536e-06
0.000952755
-8.81988e-06
0.00155026
-1.16685e-05
0.00211074
-1.30083e-05
0.00262741
-1.2195e-05
0.00309806
-8.59803e-06
0.00352259
-1.56232e-06
0.00390221
9.60766e-06
0.00423888
2.56382e-05
0.00453496
4.7261e-05
0.00479285
7.51937e-05
0.00501479
0.000110119
0.00520279
0.000152664
0.00535848
0.000203394
0.0054832
0.000262803
0.00557802
0.000331319
0.00564377
0.000409298
0.00568116
0.000497037
0.00569081
0.000594776
0.00567333
0.000702708
0.00562935
0.000820983
0.00555957
0.00094971
0.0054648
0.00108896
0.00534595
0.00123876
0.00520408
0.0013991
0.00504039
0.00156994
0.00485624
0.0017512
0.00465314
0.00194276
0.00443274
0.00214446
0.00419686
0.00235612
0.00394747
0.00257757
0.00368671
0.00280858
0.00341693
0.003049
0.00314074
0.00329868
0.00286117
0.00355754
0.00258188
0.00382552
0.00230763
0.00410246
0.00204492
0.00438781
0.00180451
0.0016044
0.00467972
-8.05043e-07
0.000335488
-1.59913e-06
0.000953548
-1.20285e-06
0.00154986
1.21115e-06
0.00210832
6.28149e-06
0.00262234
1.45488e-05
0.00308979
2.65424e-05
0.0035106
4.28226e-05
0.00388593
6.3996e-05
0.00421771
9.07098e-05
0.00450825
0.000123627
0.00475993
0.000163409
0.00497501
0.000210693
0.0051555
0.000266067
0.0053031
0.000330067
0.0054192
0.00040316
0.00550492
0.000485747
0.00556118
0.000578162
0.00558874
0.000680672
0.0055883
0.000793486
0.00556052
0.00091676
0.00550608
0.0010506
0.00542573
0.00119507
0.00532033
0.00135018
0.00519084
0.0015159
0.00503836
0.00169216
0.00486413
0.00187883
0.00466957
0.00207577
0.00445621
0.00228276
0.00422575
0.00249958
0.00398004
0.00272596
0.00372109
0.00296162
0.00345105
0.00320628
0.00317228
0.00345966
0.00288736
0.00372156
0.00259927
0.00399186
0.00231159
0.00427049
0.002029
0.00455737
0.00175804
0.00485215
0.00150973
0.00130326
0.00515328
1.74597e-07
0.000335314
1.91429e-06
0.000951808
6.25038e-06
0.00154552
1.38965e-05
0.00210068
2.5397e-05
0.00261084
4.12035e-05
0.00307398
6.17535e-05
0.00349005
8.75171e-05
0.00386016
0.000119014
0.00418621
0.000156811
0.00447045
0.000201499
0.00471524
0.000253677
0.00492283
0.00031393
0.00509525
0.000382804
0.00523423
0.000460795
0.00534121
0.000548337
0.00541738
0.000645801
0.00546372
0.000753485
0.00548106
0.000871624
0.00547016
0.00100039
0.00543175
0.00113989
0.00536657
0.00129019
0.00527543
0.00145129
0.00515923
0.00162315
0.00501898
0.00180566
0.00485584
0.00199869
0.00467111
0.00220203
0.00446623
0.00241544
0.00424279
0.00263866
0.00400254
0.00287135
0.00374736
0.00311315
0.00347928
0.00336371
0.0032005
0.00362263
0.00291336
0.00388956
0.00262043
0.00416421
0.00232462
0.00444637
0.00202943
0.00473596
0.0017394
0.00503297
0.00146104
0.00533718
0.00120552
0.000993083
0.00564736
1.1016e-06
0.000334212
5.27776e-06
0.000947632
1.34449e-05
0.00153736
2.62328e-05
0.00208789
4.41139e-05
0.00259296
6.74662e-05
0.00305063
9.66465e-05
0.00346087
0.000132041
0.00382477
0.000174086
0.00414417
0.000223263
0.00442127
0.000280093
0.00465841
0.000345107
0.00485782
0.00041883
0.00502153
0.000501758
0.0051513
0.000594343
0.00524862
0.000696977
0.00531475
0.000809991
0.0053507
0.000933645
0.00535741
0.00106813
0.00533568
0.00121357
0.00528631
0.00137004
0.00521011
0.00153753
0.00510794
0.00171599
0.00498077
0.0019053
0.00482967
0.0021053
0.00465584
0.00231576
0.00446065
0.00253641
0.00424557
0.00276693
0.00401227
0.00300696
0.00376251
0.00325607
0.00349824
0.00351384
0.00322152
0.00377978
0.00293455
0.00405344
0.0026397
0.00433435
0.00233952
0.00462213
0.00203685
0.00491648
0.00173507
0.00521728
0.0014386
0.00552451
0.00115381
0.0058381
0.000891932
0.000674075
0.00615711
1.96362e-06
0.000332248
8.44675e-06
0.000941149
2.02904e-05
0.00152551
3.80721e-05
0.00207011
6.22153e-05
0.00256882
9.30412e-05
0.00301981
0.000130838
0.00342307
0.000175916
0.00377969
0.000228628
0.00409146
0.000289378
0.00436052
0.000358607
0.00458918
0.000436777
0.00477965
0.000524348
0.00493396
0.000621759
0.00505389
0.000729408
0.00514098
0.000847638
0.00519651
0.000976733
0.00522161
0.00111691
0.00521723
0.0012683
0.00518428
0.00143099
0.00512362
0.00160498
0.00503612
0.00179021
0.00492271
0.00198657
0.00478442
0.00219386
0.00462238
0.00241185
0.00443786
0.00264023
0.00423227
0.00287864
0.00400715
0.00312669
0.00376422
0.00338392
0.00350528
0.00364984
0.00323233
0.0039239
0.00294746
0.00420555
0.0026529
0.00449423
0.00235102
0.00478939
0.00204436
0.00509053
0.00173571
0.00539727
0.00142833
0.0057094
0.00112647
0.00602689
0.000836319
0.00634976
0.000569061
0.000346508
0.00667733
2.74829e-06
0.0003295
1.13806e-05
0.000932516
2.67041e-05
0.00151019
4.92769e-05
0.00204753
7.94973e-05
0.0025386
0.000117647
0.00298166
0.000163959
0.00337676
0.000218674
0.00372498
0.000282071
0.00402806
0.00035447
0.00428812
0.000436237
0.00450741
0.000527758
0.00468813
0.000629424
0.00483229
0.000741607
0.00494171
0.000864646
0.00501794
0.000998828
0.00506233
0.00114438
0.00507606
0.00130146
0.00506015
0.00147015
0.00501559
0.00165048
0.00494329
0.00184238
0.00484422
0.00204573
0.00471936
0.00226034
0.00456981
0.00248595
0.00439677
0.00272223
0.00420157
0.00296881
0.00398568
0.00322525
0.00375072
0.00349106
0.00349841
0.0037657
0.00323064
0.00404858
0.00294944
0.0043391
0.00265694
0.00463659
0.00235541
0.00494041
0.0020472
0.00524991
0.00173486
0.00556449
0.00142113
0.00588367
0.00110915
0.00620715
0.000802994
0.00653484
0.000508628
0.00686681
0.000237085
1.07067e-05
0.00720262
3.4451e-06
0.000326054
1.40436e-05
0.000921918
3.26124e-05
0.00149162
5.97239e-05
0.00202042
9.57748e-05
0.00250254
0.000141025
0.00293641
0.000195666
0.00332212
0.000259878
0.00366077
0.000333868
0.00395407
0.000417881
0.00420411
0.000512201
0.00441309
0.000617138
0.00458319
0.000733007
0.00471642
0.00086011
0.0048146
0.000998716
0.00487933
0.00114905
0.004912
0.00131127
0.00491383
0.00148548
0.00488594
0.0016717
0.00482937
0.00186988
0.00474511
0.00207989
0.0046342
0.00230155
0.0044977
0.00253458
0.00433678
0.00277865
0.0041527
0.00303335
0.00394687
0.00329823
0.00372081
0.00357276
0.00347618
0.00385637
0.00321479
0.00414844
0.00293857
0.0044483
0.00264958
0.00475524
0.00235
0.00506854
0.00204211
0.00538744
0.0017283
0.00571121
0.00141109
0.00603915
0.00109319
0.00637067
0.000777632
0.00670537
0.000468296
0.00704309
0.000170908
0.00738391
-0.00010374
-0.000332943
0.00772756
4.04563e-06
0.000322009
1.6406e-05
0.000909557
3.79537e-05
0.00147007
6.93081e-05
0.00198907
0.000110887
0.00246097
0.000162947
0.00288435
0.00022565
0.00325941
0.000299126
0.00358729
0.000383518
0.00386968
0.000478994
0.00410863
0.000585762
0.00430633
0.000704049
0.0044649
0.000834093
0.00458638
0.000976116
0.00467258
0.00113032
0.00472513
0.00129684
0.00474547
0.00147579
0.00473489
0.00166719
0.00469455
0.00187098
0.00462557
0.00208706
0.00452904
0.00231522
0.00440604
0.00255519
0.00425773
0.00280664
0.00408533
0.00306913
0.0038902
0.0033422
0.0036738
0.0036253
0.00343771
0.00391783
0.00318366
0.00421913
0.0029135
0.00452848
0.00262921
0.00484516
0.00233291
0.00516835
0.00202681
0.00549725
0.00171321
0.00583102
0.00139453
0.00616884
0.00107328
0.0065099
0.000752123
0.00685351
0.000434017
0.00719917
0.000122643
0.00754662
-0.00017654
0.00789592
-0.000453045
-0.000683967
0.00824695
4.54363e-06
0.000317465
1.84455e-05
0.000895655
4.26804e-05
0.00144584
7.79458e-05
0.0019538
0.000124704
0.00241421
0.000183223
0.00282583
0.00025365
0.00318899
0.000336074
0.00350487
0.000430578
0.00377518
0.000537263
0.00400195
0.000656255
0.00418734
0.000787702
0.00433346
0.000931757
0.00444232
0.00108856
0.00451577
0.00125824
0.00455546
0.00144085
0.00456286
0.00163642
0.00453931
0.0018449
0.00448607
0.00206617
0.00440431
0.00230002
0.00429518
0.0025462
0.00415987
0.00280435
0.00399958
0.00307404
0.00381564
0.00335478
0.00360946
0.00364602
0.00338256
0.00394712
0.00313661
0.0042574
0.00287338
0.00457612
0.00259478
0.00490249
0.00230284
0.00523568
0.00199973
0.00557481
0.00168767
0.00591898
0.00136904
0.00626727
0.00104624
0.00661876
0.000721789
0.00697256
0.000398323
0.00732787
7.87112e-05
0.00768406
-0.000233544
0.00804078
-0.000533267
0.00839807
-0.000810328
-0.00104178
0.00875588
4.93513e-06
0.000312529
2.01477e-05
0.000880442
4.67606e-05
0.00141922
8.55785e-05
0.00191498
0.000137128
0.00236266
0.000201707
0.00276125
0.00027946
0.00311124
0.000370442
0.00341388
0.000474686
0.00367093
0.000592227
0.00388441
0.000723115
0.00405645
0.000867415
0.00418916
0.0010252
0.00428454
0.00119652
0.00434445
0.00138141
0.00437056
0.00157987
0.0043644
0.00179182
0.00432736
0.00201714
0.00426075
0.00225563
0.00416582
0.00250701
0.0040438
0.00277093
0.00389594
0.00304696
0.00372355
0.00333461
0.003528
0.00363329
0.00331078
0.00394236
0.00307349
0.00426112
0.00281785
0.0045888
0.0025457
0.00492458
0.002259
0.00526758
0.00195984
0.00561688
0.00165043
0.00597152
0.00133303
0.00633051
0.00101004
0.00669285
0.000683903
0.00705751
0.000357128
0.00742351
3.23202e-05
0.00778995
-0.000287727
0.00815609
-0.000599681
0.00852148
-0.000898657
0.00888608
-0.00117493
-0.00140566
0.00924996
5.21856e-06
0.000307311
2.15072e-05
0.000864154
5.01798e-05
0.00139055
9.21749e-05
0.00187299
0.000148104
0.00230673
0.000218309
0.00269104
0.00030294
0.0030266
0.000402033
0.00331479
0.000515574
0.00355739
0.000643537
0.00375645
0.000785901
0.00391408
0.00094265
0.00403241
0.00111377
0.00411342
0.00129923
0.004159
0.00149897
0.00417082
0.0017129
0.00415047
0.00194087
0.00409939
0.00218267
0.00401895
0.00243802
0.00391047
0.00270655
0.00377527
0.00298784
0.00361466
0.00328137
0.00343001
0.00358658
0.00322279
0.00390279
0.00299457
0.00422929
0.00274699
0.00456528
0.00248185
0.00490993
0.00220105
0.00526231
0.00190662
0.00562146
0.00160069
0.00598638
0.00128551
0.00635601
0.000963403
0.00672927
0.000636785
0.00710505
0.000308122
0.00748224
-2.00671e-05
0.00785977
-0.000345204
0.00823661
-0.000664572
0.00861194
-0.000975004
0.00898519
-0.00127191
0.00935627
-0.00154601
-0.00177472
0.00972532
5.39505e-06
0.000301916
2.25275e-05
0.000847021
5.29416e-05
0.00136014
9.77337e-05
0.0018282
0.000157619
0.00224684
0.000232993
0.00261567
0.000324025
0.00293557
0.000430739
0.00320808
0.000553082
0.00343505
0.000690974
0.00361855
0.000844325
0.00376073
0.00101304
0.00386369
0.00119702
0.00392945
0.00139614
0.00395987
0.00161027
0.00395669
0.00183923
0.00392151
0.00208277
0.00385585
0.00234059
0.00376112
0.00261234
0.00363873
0.00289757
0.00349004
0.00319577
0.00331645
0.00350636
0.00311943
0.00382866
0.00290049
0.00416194
0.00266129
0.00450539
0.00240354
0.00485814
0.0021291
0.00521926
0.00183994
0.00558773
0.00153815
0.0059625
0.00122592
0.00634247
0.00090554
0.00672648
0.000579393
0.00711335
0.000249919
0.00750186
-8.03916e-05
0.00789081
-0.000409018
0.00827902
-0.00073341
0.00866537
-0.00105092
0.00904892
-0.00135856
0.00942903
-0.00165202
0.00980554
-0.00192251
-0.00214787
0.0101787
5.46871e-06
0.000296447
2.32219e-05
0.000829268
5.50685e-05
0.00132829
0.000102285
0.00178098
0.000165704
0.00218342
0.000245788
0.00253558
0.000342731
0.00283863
0.000456554
0.00309426
0.000587175
0.00330443
0.000734463
0.00347126
0.000898264
0.00359693
0.00107841
0.00368355
0.00127471
0.00373314
0.00148698
0.0037476
0.00171498
0.00372869
0.00195844
0.00367806
0.00221704
0.00359725
0.00249039
0.00348777
0.00277804
0.00335107
0.00307947
0.0031886
0.00339409
0.00300183
0.00372123
0.00279229
0.00406014
0.00256159
0.00440999
0.00231143
0.0047699
0.00204363
0.0051389
0.0017601
0.00551595
0.00146289
0.00589996
0.00115414
0.00628976
0.000836118
0.00668413
0.000511165
0.00708182
0.000181705
0.00748152
-0.000149783
0.00788192
-0.000480791
0.0082817
-0.000808797
0.00867957
-0.00113128
0.00907434
-0.00144569
0.00946496
-0.00174918
0.00985071
-0.00203776
0.0102314
-0.00230318
-0.00252383
0.0106073
5.44673e-06
0.000291
2.36131e-05
0.000811101
5.66027e-05
0.0012953
0.000105891
0.00173169
0.00017244
0.00211688
0.000256786
0.00245124
0.000359157
0.00273626
0.000479578
0.00297383
0.000617946
0.00316606
0.000774087
0.00331512
0.000947785
0.00342323
0.0011388
0.00349253
0.00134688
0.00352506
0.00157174
0.00352274
0.00181306
0.00348737
0.00207049
0.00342063
0.00234361
0.00332413
0.00263196
0.00319942
0.002935
0.00304803
0.00325213
0.00287147
0.00358267
0.00267129
0.00392587
0.00244909
0.00428089
0.00220657
0.00464682
0.0019455
0.00502268
0.00166777
0.00540739
0.00137539
0.00579981
0.00107046
0.00619875
0.000755207
0.00660291
0.000431955
0.00701096
0.000103112
0.00742152
-0.000228852
0.00783316
-0.000561424
0.00824445
-0.000892079
0.00865396
-0.0012183
0.0090603
-0.00153763
0.00946218
-0.00184757
0.00985849
-0.00214548
0.0102484
-0.0024277
0.0106318
-0.00268652
-0.0029011
0.011009
5.33935e-06
0.000285661
2.37333e-05
0.000792707
5.76055e-05
0.00126143
0.000108645
0.00168065
0.000177952
0.00204757
0.000266142
0.00236305
0.000373485
0.00262892
0.000500019
0.0028473
0.000645624
0.00302045
0.000810088
0.00315066
0.000993145
0.00324018
0.00119449
0.00329119
0.0014138
0.00330576
0.00165071
0.00328584
0.00190481
0.00323326
0.00217568
0.00314976
0.00246282
0.003037
0.00276566
0.00289658
0.00308361
0.00273009
0.00341595
0.00253912
0.00376194
0.0023253
0.00412073
0.00209031
0.00449138
0.00183591
0.0048729
0.00156399
0.00526418
0.0012765
0.00566404
0.000975521
0.00607124
0.00066326
0.00648444
0.000342014
0.00690221
1.41779e-05
0.0073231
-0.000317779
0.00774559
-0.000651336
0.00816811
-0.000983949
0.00858912
-0.00131308
0.00900706
-0.00163625
0.00942047
-0.00195103
0.00982796
-0.00225506
0.0102284
-0.00254588
0.0106208
-0.00282016
0.0110051
-0.00307084
-0.00327799
0.011382
5.15955e-06
0.000280501
2.36239e-05
0.000774243
5.81565e-05
0.00122689
0.000110671
0.00162814
0.00018241
0.00197583
0.000274075
0.00227138
0.000385984
0.00251701
0.000518191
0.00271509
0.000670568
0.00286808
0.000842873
0.00297836
0.00103479
0.00304826
0.00124597
0.00308001
0.001476
0.00307572
0.00172446
0.00303738
0.00199087
0.00296685
0.00227471
0.00286593
0.00257539
0.00273631
0.00289229
0.00257968
0.00322469
0.00239768
0.00357183
0.00219199