/*--------------------------------*- C++ -*----------------------------------*\
  =========                 |
  \\      /  F ield         | OpenFOAM: The Open Source CFD Toolbox
   \\    /   O peration     | Website:  https://openfoam.org
    \\  /    A nd           | Version:  7
     \\/     M anipulation  |
\*---------------------------------------------------------------------------*/
FoamFile
{
    version     2.0;
    format      ascii;
    class       volVectorField;
    location    "4.5";
    object      U;
}
// * * * * * * * * * * * * * * * * * * * * * * * * * * * * * * * * * * * * * //

dimensions      [0 1 -1 0 0 0 0];

internalField   nonuniform List<vector> 
32000
(
(-0.000435909 0.00778896 -5.46264e-22)
(-0.00247828 0.0249344 0)
(-0.00601458 0.0433094 -4.86496e-21)
(-0.0101339 0.0617718 0)
(-0.0145861 0.0797471 5.06269e-21)
(-0.0191014 0.0969701 0)
(-0.0234937 0.113328 5.231e-21)
(-0.0276273 0.128792 -3.97756e-21)
(-0.0314025 0.143375 1.54106e-24)
(-0.034748 0.157108 1.87309e-24)
(-0.0376174 0.170016 -1.37172e-21)
(-0.0399859 0.182117 5.53976e-21)
(-0.0418431 0.193416 0)
(-0.0431869 0.203905 -1.40911e-21)
(-0.0440224 0.21357 1.41497e-21)
(-0.0443608 0.222393 0)
(-0.0442177 0.230353 7.15946e-21)
(-0.0436118 0.237436 -1.43644e-21)
(-0.0425642 0.243628 0)
(-0.041097 0.248925 2.90216e-21)
(-0.0392321 0.253329 2.90502e-21)
(-0.0369921 0.256851 0)
(-0.0343986 0.25951 0)
(-0.0314724 0.261331 0)
(-0.0282346 0.262349 0)
(-0.0247053 0.262602 0)
(-0.0209044 0.262134 0)
(-0.0168501 0.260994 0)
(-0.0125602 0.259235 -5.83142e-21)
(-0.0080522 0.256908 0)
(-0.00334399 0.254071 5.81421e-21)
(0.00154609 0.250777 0)
(0.00659857 0.247085 0)
(0.0117923 0.243048 0)
(0.0171032 0.238723 -5.75583e-21)
(0.0225042 0.234163 -2.87806e-21)
(0.0279639 0.22942 8.59604e-21)
(0.0334613 0.224538 -5.3357e-24)
(0.0389671 0.219626 5.68969e-21)
(0.0442574 0.214827 -8.01909e-24)
(-0.000608437 0.00828606 0)
(-0.00301485 0.0260947 9.49649e-21)
(-0.00692778 0.0449137 2.43293e-21)
(-0.0114176 0.063667 3.53177e-25)
(-0.0162317 0.08181 -2.53157e-21)
(-0.0210999 0.0990993 0)
(-0.0258353 0.115439 5.22286e-21)
(-0.0303035 0.130815 -5.29679e-21)
(-0.0344057 0.145251 0)
(-0.0380708 0.15879 -1.08573e-20)
(-0.0412518 0.171466 0)
(-0.0439226 0.183303 -1.66082e-20)
(-0.0460719 0.194314 0)
(-0.0476958 0.204497 0)
(-0.0487982 0.213843 5.66756e-21)
(-0.0493897 0.222337 -5.68588e-21)
(-0.0494846 0.229962 -5.72467e-21)
(-0.0491001 0.236706 0)
(-0.0482562 0.242559 1.73014e-20)
(-0.0469737 0.247516 -5.77653e-21)
(-0.0452741 0.251583 4.02172e-24)
(-0.0431786 0.25477 -1.74156e-20)
(-0.0407079 0.257098 -1.16298e-20)
(-0.0378825 0.258593 -5.83697e-21)
(-0.0347225 0.259289 1.74693e-20)
(-0.0312472 0.259225 -1.74909e-20)
(-0.0274751 0.258446 1.75031e-20)
(-0.0234244 0.257002 -2.32743e-20)
(-0.0191129 0.254944 -5.79376e-21)
(-0.0145578 0.252326 3.76925e-23)
(-0.0097766 0.249207 -1.73662e-20)
(-0.00478795 0.245643 -1.15665e-20)
(0.000387738 0.241694 2.31044e-20)
(0.00572804 0.237419 -2.3008e-20)
(0.0112077 0.232876 -5.70852e-21)
(0.016797 0.228127 -2.28887e-20)
(0.0224614 0.223228 1.11384e-23)
(0.0281763 0.218232 5.68229e-21)
(0.0339021 0.213258 -2.25938e-20)
(0.0394109 0.208454 -3.27032e-20)
(-0.000794875 0.00875672 -2.17983e-21)
(-0.00356966 0.0271824 -4.74883e-21)
(-0.00784584 0.0464353 -2.18545e-20)
(-0.0126851 0.0654775 0)
(-0.0178305 0.0837901 2.52837e-21)
(-0.0230145 0.101151 -2.57141e-21)
(-0.0280541 0.11748 -3.13428e-20)
(-0.0328174 0.132775 1.06004e-20)
(-0.0372056 0.147073 -5.36887e-21)
(-0.0411472 0.160424 3.25486e-20)
(-0.0445976 0.172873 1.09648e-20)
(-0.0475298 0.184452 5.54145e-21)
(-0.0499304 0.195178 -2.23017e-20)
(-0.0517951 0.205058 0)
(-0.053127 0.214087 0)
(-0.0539345 0.222253 1.13871e-20)
(-0.0542308 0.229545 2.91143e-23)
(-0.0540323 0.23595 -1.1461e-20)
(-0.0533582 0.241462 -1.15255e-20)
(-0.0522282 0.246079 -2.30823e-20)
(-0.0506624 0.249806 3.47325e-20)
(-0.0486812 0.252656 2.89561e-23)
(-0.0463049 0.254649 -5.03606e-24)
(-0.0435526 0.255812 1.16097e-20)
(-0.0404436 0.25618 -2.32981e-20)
(-0.0369966 0.255793 4.6497e-20)
(-0.0332297 0.254694 0)
(-0.0291603 0.252935 1.16375e-20)
(-0.0248058 0.250567 1.16249e-20)
(-0.020183 0.247646 2.32127e-20)
(-0.0153096 0.244232 3.76269e-23)
(-0.0102048 0.240383 0)
(-0.00488945 0.236162 1.15179e-20)
(0.000613015 0.231632 -1.14233e-20)
(0.00627574 0.226857 -1.13664e-20)
(0.0120664 0.221904 3.42522e-20)
(0.0179479 0.216838 -3.3968e-20)
(0.0238916 0.211721 2.26486e-20)
(0.0298469 0.20668 -3.36868e-20)
(0.0355827 0.20187 1.29618e-20)
(-0.000994679 0.00923444 1.74279e-20)
(-0.00414719 0.0282859 -1.89622e-20)
(-0.00877886 0.0479605 3.88334e-20)
(-0.013946 0.06728 0)
(-0.0193936 0.085754 1.51468e-20)
(-0.0248596 0.103181 2.56899e-20)
(-0.0301642 0.119496 5.23832e-21)
(-0.0351791 0.134709 4.93108e-24)
(-0.0398088 0.148869 1.60797e-20)
(-0.0439835 0.162033 -5.44269e-21)
(-0.0476583 0.174256 2.73763e-20)
(-0.0508064 0.185576 -3.31677e-20)
(-0.0534144 0.19602 3.34368e-20)
(-0.0554766 0.205598 -1.12383e-20)
(-0.0569943 0.21431 1.12852e-20)
(-0.0579759 0.22215 -2.27055e-20)
(-0.0584335 0.229109 -3.42394e-20)
(-0.0583821 0.235177 1.14455e-20)
(-0.0578397 0.240349 -1.15141e-20)
(-0.0568252 0.244625 3.45977e-20)
(-0.0553577 0.248012 -2.3136e-20)
(-0.0534566 0.250523 -2.31288e-20)
(-0.0511411 0.25218 0)
(-0.04843 0.253009 0)
(-0.0453419 0.253045 -2.31722e-20)
(-0.0418943 0.252328 -2.32328e-20)
(-0.0381046 0.250904 -2.31499e-20)
(-0.0339899 0.248821 0)
(-0.0295673 0.246134 0)
(-0.0248535 0.2429 -4.61737e-20)
(-0.0198662 0.239178 -6.1641e-23)
(-0.0146249 0.235031 2.30352e-20)
(-0.00915118 0.230524 -2.28973e-20)
(-0.00346924 0.225725 -2.28845e-20)
(0.00239227 0.220704 2.28545e-20)
(0.00839894 0.215534 0)
(0.0145108 0.21029 2.26625e-20)
(0.0206951 0.205042 -4.50035e-20)
(0.0268917 0.199929 4.48699e-20)
(0.0328631 0.195115 -5.181e-20)
(-0.00120916 0.00968827 -8.72034e-21)
(-0.00474449 0.0293304 1.42204e-20)
(-0.00971717 0.0494097 -1.94085e-20)
(-0.0151905 0.0689964 0)
(-0.0209096 0.0876276 -2.52482e-20)
(-0.0266208 0.105122 -1.54161e-20)
(-0.0321509 0.121426 2.08742e-20)
(-0.0373752 0.136563 0)
(-0.042202 0.150592 -3.21598e-20)
(-0.0465639 0.163577 -1.08514e-20)
(-0.0504174 0.175581 -1.09467e-20)
(-0.0537361 0.186652 2.21203e-20)
(-0.0565056 0.196819 -2.22716e-20)
(-0.0587197 0.206102 1.1204e-20)
(-0.0603794 0.214504 0)
(-0.0614916 0.222023 3.40637e-20)
(-0.0620674 0.228653 1.14262e-20)
(-0.0621211 0.234387 -2.29133e-20)
(-0.0616697 0.239223 4.59209e-20)
(-0.0607306 0.243162 -4.60422e-20)
(-0.0593221 0.246211 4.60838e-20)
(-0.057463 0.248385 2.31286e-20)
(-0.0551718 0.249706 0)
(-0.0524664 0.2502 2.31698e-20)
(-0.0493644 0.249903 6.2708e-23)
(-0.0458828 0.248854 0)
(-0.0420386 0.247099 2.31497e-20)
(-0.0378487 0.244688 -2.31163e-20)
(-0.0333294 0.241675 2.30202e-20)
(-0.0284979 0.238118 4.60853e-20)
(-0.0233719 0.234079 -4.59093e-20)
(-0.0179714 0.229623 4.58102e-20)
(-0.0123182 0.224819 0)
(-0.0064378 0.219738 0)
(-0.00036008 0.214458 4.53544e-20)
(0.00587821 0.209058 0)
(0.0122344 0.203623 0)
(0.0186722 0.198235 -4.47487e-20)
(0.0251224 0.193044 4.45719e-20)
(0.0313386 0.188227 2.58285e-20)
(-0.00143616 0.0101264 4.35087e-21)
(-0.00536016 0.0303389 0)
(-0.0106618 0.0508043 3.87479e-20)
(-0.0164179 0.0706458 4.94861e-21)
(-0.0223788 0.0894273 5.04578e-21)
(-0.0283001 0.106985 3.07735e-20)
(-0.0340157 0.123281 4.16814e-20)
(-0.0394063 0.138347 0)
(-0.0443853 0.152249 1.07128e-20)
(-0.0488884 0.165062 3.24722e-20)
(-0.0528733 0.176855 4.37313e-20)
(-0.0563145 0.187682 -1.10457e-20)
(-0.059198 0.19758 -3.33618e-20)
(-0.0615167 0.206573 0)
(-0.0632708 0.214671 4.50609e-20)
(-0.0644667 0.221875 0)
(-0.0651148 0.228182 6.82869e-20)
(-0.0652283 0.233589 -2.28253e-20)
(-0.0648227 0.238093 0)
(-0.063915 0.241699 -2.30055e-20)
(-0.0625227 0.244415 -5.10025e-23)
(-0.0606636 0.246255 -2.29714e-20)
(-0.0583556 0.247242 -2.30426e-20)
(-0.0556158 0.247403 2.31064e-20)
(-0.0524612 0.246773 -2.3046e-20)
(-0.0489084 0.245391 0)
(-0.044974 0.243304 -2.30658e-20)
(-0.0406746 0.240562 2.29778e-20)
(-0.0360267 0.237219 0)
(-0.0310475 0.233335 0)
(-0.0257552 0.228973 0)
(-0.0201698 0.2242 -4.56498e-20)
(-0.014314 0.219088 4.54085e-20)
(-0.00821434 0.213716 0)
(-0.00190208 0.208164 -2.26249e-20)
(0.00458432 0.202523 0)
(0.0111994 0.196885 4.48275e-20)
(0.0179032 0.191346 -2.21953e-20)
(0.0246192 0.186071 -4.44241e-20)
(0.0310892 0.18125 5.11793e-20)
(-0.00167553 0.0105401 3.04065e-20)
(-0.00599207 0.0312894 -4.25462e-20)
(-0.011608 0.0521189 -7.26159e-20)
(-0.0176243 0.0722003 -3.95326e-20)
(-0.0237963 0.0911238 -1.00803e-20)
(-0.0298912 0.108744 -2.05243e-20)
(-0.0357521 0.125034 -9.3739e-20)
(-0.0412662 0.140033 -3.16679e-20)
(-0.0463518 0.153817 -5.34652e-20)
(-0.0509486 0.166467 -5.41192e-20)
(-0.0550167 0.178057 -7.65027e-20)
(-0.0585318 0.18865 -4.40837e-20)
(-0.0614796 0.198289 4.43824e-23)
(-0.0638532 0.207003 -4.4739e-20)
(-0.0656523 0.214805 -4.50603e-20)
(-0.0668829 0.221703 -6.78924e-20)
(-0.0675545 0.227695 4.53993e-20)
(-0.0676792 0.232781 -2.2791e-20)
(-0.0672717 0.236962 0)
(-0.0663483 0.240242 4.58235e-20)
(-0.0649257 0.24263 0)
(-0.0630211 0.244143 9.19959e-20)
(-0.0606514 0.244801 0)
(-0.0578335 0.244633 -2.3041e-20)
(-0.0545839 0.243674 2.31015e-20)
(-0.0509189 0.241963 -4.59244e-20)
(-0.0468548 0.239545 0)
(-0.0424086 0.236472 -4.58978e-20)
(-0.0375968 0.232799 4.5707e-20)
(-0.0324369 0.228585 0)
(-0.0269476 0.223896 0)
(-0.0211497 0.218802 0)
(-0.0150664 0.213377 -4.51485e-20)
(-0.0087252 0.207705 0)
(-0.00215877 0.201874 -4.49694e-20)
(0.00459265 0.19598 8.94913e-20)
(0.0114811 0.190129 -8.91124e-20)
(0.0184634 0.184429 4.41608e-20)
(0.0254567 0.179063 8.83003e-20)
(0.0321885 0.174236 -5.086e-20)
(-0.00192554 0.0109254 -3.90944e-20)
(-0.00663762 0.0321747 3.88905e-23)
(-0.012553 0.053342 3.87101e-20)
(-0.0188054 0.0736467 7.90266e-20)
(-0.0251578 0.0927043 -1.00712e-20)
(-0.0313903 0.110384 -4.09673e-20)
(-0.0373563 0.12667 4.1637e-20)
(-0.0429501 0.14161 6.33463e-20)
(-0.0480962 0.155283 2.13946e-20)
(-0.052739 0.167779 5.40222e-20)
(-0.056841 0.179178 4.36922e-20)
(-0.0603793 0.189548 6.60758e-20)
(-0.0633405 0.198938 1.33227e-19)
(-0.0657177 0.207383 6.70887e-20)
(-0.0675106 0.214901 0)
(-0.0687244 0.221502 2.26121e-20)
(-0.069368 0.22719 2.26103e-20)
(-0.0694528 0.231965 2.27178e-20)
(-0.0689927 0.235832 4.56815e-20)
(-0.0680034 0.238795 -2.29568e-20)
(-0.0665009 0.240865 0)
(-0.0645017 0.242058 -1.09335e-22)
(-0.0620223 0.242396 -4.58472e-20)
(-0.0590792 0.241906 4.58361e-20)
(-0.0556886 0.240624 9.17467e-20)
(-0.0518668 0.238589 9.16233e-20)
(-0.0476307 0.235846 -3.4861e-23)
(-0.042997 0.232446 4.5592e-20)
(-0.037983 0.228445 4.54884e-20)
(-0.0326066 0.223904 -4.53698e-20)
(-0.0268875 0.218889 4.52374e-20)
(-0.0208469 0.213472 4.50921e-20)
(-0.0145093 0.207733 9.0083e-20)
(-0.0079032 0.201757 -1.51972e-22)
(-0.00106226 0.195639 1.33994e-19)
(0.00597163 0.189485 -7.62132e-23)
(0.0131479 0.183411 -4.42056e-20)
(0.0204204 0.177541 -4.42403e-20)
(0.0277021 0.172075 4.37908e-20)
(0.034703 0.167241 5.04178e-20)
(-0.00218447 0.0112788 3.46738e-20)
(-0.00729313 0.0329848 4.72158e-20)
(-0.0134928 0.0544617 2.89668e-20)
(-0.0199574 0.0749711 -2.96244e-20)
(-0.0264597 0.0941525 -5.02763e-20)
(-0.0327939 0.111889 4.09609e-20)
(-0.0388248 0.128173 0)
(-0.0444548 0.143059 4.21622e-20)
(-0.0496152 0.156631 0)
(-0.0542554 0.168983 -8.63981e-20)
(-0.0583411 0.180203 2.18313e-20)
(-0.0618512 0.190362 -1.10032e-19)
(-0.0647735 0.199517 -4.43852e-20)
(-0.0671015 0.207705 2.22983e-20)
(-0.0688347 0.214951 3.73627e-23)
(-0.0699782 0.221268 -2.25528e-20)
(-0.0705403 0.226664 -4.53627e-20)
(-0.0705317 0.231141 -9.09576e-20)
(-0.0699657 0.234705 0)
(-0.0688574 0.237363 -4.41071e-24)
(-0.0672225 0.239125 -4.57044e-20)
(-0.0650768 0.240009 -4.58341e-20)
(-0.0624365 0.240036 4.58466e-20)
(-0.0593179 0.239235 -4.59431e-20)
(-0.0557374 0.237639 4.56608e-20)
(-0.0517117 0.235288 -9.13832e-20)
(-0.0472578 0.232228 -4.04753e-23)
(-0.0423933 0.228509 -9.1056e-20)
(-0.0371361 0.224188 -4.54878e-20)
(-0.0315051 0.219326 5.60455e-23)
(-0.0255209 0.21399 -1.39608e-22)
(-0.019206 0.208256 -4.50915e-20)
(-0.0125858 0.202204 -4.49344e-20)
(-0.00568992 0.195924 -2.23713e-22)
(0.0014466 0.189518 -4.45886e-20)
(0.00878055 0.183098 -2.34466e-22)
(0.0162589 0.176793 -4.40391e-20)
(0.0238328 0.170744 1.3145e-19)
(0.0314127 0.16517 -4.37902e-20)
(0.0386892 0.160325 -5.03459e-20)
(-0.00245029 0.0115967 -3.46695e-20)
(-0.0079547 0.0337118 9.43344e-21)
(-0.014423 0.0554662 -2.89786e-20)
(-0.0210764 0.0761593 -9.8591e-21)
(-0.0276987 0.0954531 4.02175e-20)
(-0.0340992 0.113242 -1.02297e-20)
(-0.0401551 0.129527 1.03839e-20)
(-0.0457782 0.144364 -6.32438e-20)
(-0.0509066 0.157844 2.13279e-20)
(-0.0554954 0.170065 4.31792e-20)
(-0.0595141 0.181118 0)
(-0.0629439 0.19108 8.79495e-20)
(-0.065774 0.200013 0)
(-0.0679984 0.207959 -8.922e-20)
(-0.0696172 0.214948 -4.48359e-20)
(-0.0706352 0.220995 0)
(-0.0710603 0.226112 0)
(-0.0709026 0.230305 9.08031e-20)
(-0.0701751 0.23358 4.55492e-20)
(-0.0688928 0.235946 -9.11842e-20)
(-0.0670704 0.237414 4.56059e-20)
(-0.0647237 0.238002 0)
(-0.0618687 0.237731 -4.56979e-20)
(-0.0585219 0.236631 9.11361e-20)
(-0.0547002 0.234734 -4.55515e-20)
(-0.0504206 0.23208 -4.5554e-20)
(-0.0457011 0.228715 4.53971e-20)
(-0.0405601 0.224688 0)
(-0.0350165 0.220058 9.03631e-20)
(-0.0290907 0.214885 -4.50434e-20)
(-0.0228045 0.20924 -4.49671e-20)
(-0.0161818 0.203196 -6.88996e-23)
(-0.00924951 0.196838 1.78351e-19)
(-0.00203838 0.19026 -1.33332e-19)
(0.00541537 0.183567 0)
(0.0130671 0.176881 -4.41662e-20)
(0.0208615 0.17034 -8.77563e-20)
(0.0287471 0.164103 4.34482e-20)
(0.036634 0.158413 4.32957e-20)
(0.0441913 0.153553 0)
(-0.00272063 0.0118762 -6.9177e-20)
(-0.00861791 0.0343482 -9.42204e-21)
(-0.0153393 0.0563448 7.70907e-20)
(-0.0221585 0.0771986 -7.87429e-20)
(-0.0288713 0.0965917 0)
(-0.0353039 0.114428 0)
(-0.0413461 0.130713 -2.07655e-20)
(-0.0469196 0.145508 -2.06094e-23)
(-0.0519701 0.158906 2.13079e-20)
(-0.0564589 0.171007 0)
(-0.0603596 0.181907 0)
(-0.0636565 0.191687 -2.19725e-20)
(-0.0663402 0.200414 3.03319e-23)
(-0.0684061 0.208134 2.23204e-20)
(-0.0698545 0.21488 4.48353e-20)
(-0.0706904 0.220673 0)
(-0.0709213 0.225528 4.52198e-20)
(-0.0705573 0.229452 -4.52968e-20)
(-0.0696113 0.232454 -9.08516e-20)
(-0.0680977 0.234543 9.09933e-20)
(-0.0660311 0.235732 6.30857e-23)
(-0.0634268 0.236039 -4.55191e-20)
(-0.0603015 0.235487 4.55669e-20)
(-0.056672 0.234102 -9.10363e-20)
(-0.0525558 0.23192 0)
(-0.0479708 0.228979 4.53911e-20)
(-0.042936 0.225324 -9.0529e-20)
(-0.0374711 0.221006 4.51215e-20)
(-0.0315966 0.216082 -4.51165e-20)
(-0.0253343 0.210615 -4.491e-20)
(-0.0187079 0.204673 -4.4815e-20)
(-0.011743 0.198334 1.7824e-19)
(-0.00446806 0.191683 -1.33204e-19)
(0.00308461 0.184817 -8.84612e-20)
(0.0108776 0.177845 8.79546e-20)
(0.0188648 0.170895 0)
(0.0269886 0.164117 8.72625e-20)
(0.035195 0.157687 -8.67158e-20)
(0.0433965 0.151874 -4.32951e-20)
(0.0512383 0.146992 0)
(-0.00299324 0.0121148 1.46892e-19)
(-0.00927836 0.0348875 6.57964e-20)
(-0.0162371 0.0570881 -7.70901e-20)
(-0.0231998 0.0780771 6.89033e-20)
(-0.0299751 0.0975542 -1.00363e-20)
(-0.0364066 0.115431 2.0405e-20)
(-0.0423972 0.131717 0)
(-0.0478794 0.146474 -2.1042e-20)
(-0.0528068 0.159798 2.12873e-20)
(-0.0571475 0.171792 2.15507e-20)
(-0.0608797 0.182553 -2.17394e-20)
(-0.0639908 0.192167 -2.19556e-20)
(-0.0664739 0.200704 2.20935e-20)
(-0.0683256 0.208214 0)
(-0.069547 0.214736 0)
(-0.0701433 0.220292 -4.49791e-20)
(-0.070122 0.224901 4.50855e-20)
(-0.0694934 0.228574 -4.52726e-20)
(-0.0682705 0.23132 4.53097e-20)
(-0.0664673 0.23315 4.54277e-20)
(-0.0640982 0.234078 -9.08626e-20)
(-0.061179 0.234122 9.08674e-20)
(-0.0577266 0.233306 4.99208e-23)
(-0.0537587 0.231656 -4.53372e-20)
(-0.0492937 0.229206 0)
(-0.0443506 0.225997 4.52269e-20)
(-0.0389499 0.222071 4.84029e-23)
(-0.033113 0.217481 -4.49473e-20)
(-0.0268621 0.212284 0)
(-0.0202211 0.206542 8.94106e-20)
(-0.0132157 0.200324 -8.89843e-20)
(-0.0058735 0.19371 0)
(0.00177488 0.186784 8.83724e-20)
(0.00969549 0.179645 -8.7885e-20)
(0.0178495 0.172406 0)
(0.0261895 0.165202 0)
(0.0346554 0.158191 0)
(0.0431907 0.151565 -8.63338e-20)
(0.0517125 0.145622 8.57799e-20)
(0.0598417 0.140713 9.81302e-20)
(-0.00326567 0.0123105 -6.90804e-20)
(-0.00993144 0.0353246 -7.52061e-20)
(-0.0171119 0.0576882 -9.61964e-21)
(-0.0241968 0.0787844 2.94821e-20)
(-0.0310076 0.0983278 -4.00746e-20)
(-0.0374064 0.116236 4.07818e-20)
(-0.0433093 0.13252 -4.14305e-20)
(-0.0486597 0.147245 -6.29982e-20)
(-0.0534199 0.160504 0)
(-0.0575651 0.172402 -2.15288e-20)
(-0.0610788 0.183039 2.17173e-20)
(-0.063952 0.192503 0)
(-0.0661803 0.200866 4.41914e-20)
(-0.0677621 0.208185 -4.44205e-20)
(-0.0686997 0.2145 -1.34025e-19)
(-0.0689986 0.219839 -5.25364e-23)
(-0.0686667 0.224222 9.00835e-20)
(-0.0677149 0.227662 -4.51381e-20)
(-0.0661561 0.23017 0)
(-0.0640044 0.231761 0)
(-0.0612744 0.232447 9.05444e-20)
(-0.0579822 0.232249 4.53372e-20)
(-0.0541456 0.231189 -4.52628e-20)
(-0.0497834 0.229294 -4.5243e-20)
(-0.044915 0.226599 9.02871e-20)
(-0.0395612 0.223142 -4.50248e-20)
(-0.0337441 0.218969 8.98881e-20)
(-0.027487 0.214131 -1.79165e-19)
(-0.0208146 0.208683 1.78569e-19)
(-0.0137527 0.202691 -1.77922e-19)
(-0.00632964 0.196222 1.77231e-19)
(0.00142443 0.189356 -1.76502e-19)
(0.00947674 0.182179 8.78261e-20)
(0.0177913 0.174789 8.75206e-20)
(0.0263278 0.167303 9.47206e-23)
(0.0350372 0.159859 9.71352e-23)
(0.0438567 0.152623 -8.61664e-20)
(0.0527277 0.145804 3.01435e-22)
(0.0615738 0.139727 -8.52791e-20)
(0.0699917 0.134785 0)
(-0.00353559 0.0124619 8.61696e-21)
(-0.0105727 0.0356554 -9.38263e-21)
(-0.0179594 0.0581384 2.88237e-20)
(-0.0251461 0.0793112 -3.92621e-20)
(-0.0319672 0.098901 2.00095e-20)
(-0.0383032 0.11683 0)
(-0.0440838 0.133109 0)
(-0.0492637 0.147803 8.39976e-20)
(-0.0538142 0.161005 1.06245e-19)
(-0.057718 0.172818 -2.14828e-20)
(-0.0609642 0.183345 1.08502e-19)
(-0.0635481 0.192675 -2.18816e-20)
(-0.0654681 0.200883 0)
(-0.066725 0.208029 0)
(-0.0673223 0.214157 8.93111e-20)
(-0.0672663 0.219298 0)
(-0.0665658 0.223474 4.48746e-20)
(-0.0652323 0.226701 -4.50265e-20)
(-0.063279 0.228994 0)
(-0.0607202 0.230366 -9.0317e-20)
(-0.0575709 0.230832 -4.53087e-20)
(-0.0538483 0.230413 -1.3547e-19)
(-0.049571 0.229132 -4.51695e-20)
(-0.0447592 0.227016 4.50726e-20)
(-0.0394339 0.224099 8.98449e-20)
(-0.0336177 0.22042 0)
(-0.0273346 0.216025 8.93449e-20)
(-0.0206105 0.210965 1.78293e-19)
(-0.0134724 0.205295 5.37396e-23)
(-0.00594884 0.19908 -8.85332e-20)
(0.00192913 0.19239 -8.82283e-20)
(0.0101286 0.185301 8.77838e-20)
(0.0186141 0.177901 8.74566e-20)
(0.0273475 0.170289 -1.74025e-19)
(0.0362866 0.162581 1.73186e-19)
(0.0453807 0.154918 -8.64029e-20)
(0.0545644 0.147472 8.56797e-20)
(0.063776 0.140466 1.70558e-19)
(0.0729485 0.134256 8.45818e-20)
(0.0816554 0.129275 9.61312e-20)
(-0.00380067 0.0125682 -6.8782e-20)
(-0.0111978 0.0358773 6.55414e-20)
(-0.0187755 0.0584338 -5.75213e-20)
(-0.0260447 0.07965 5.87658e-20)
(-0.0328526 0.0992635 9.99044e-20)
(-0.0390978 0.117199 -8.1339e-20)
(-0.0447235 0.133468 1.03322e-19)
(-0.0496961 0.148132 6.28662e-20)
(-0.0539963 0.161282 -1.48622e-19)
(-0.0576144 0.173022 4.28988e-20)
(-0.0605458 0.183451 2.15796e-20)
(-0.0627903 0.192663 4.37632e-20)
(-0.0643499 0.200734 4.4034e-20)
(-0.0652278 0.207726 -8.86163e-20)
(-0.0654293 0.213687 8.90687e-20)
(-0.0649621 0.21865 1.34205e-19)
(-0.063836 0.222641 -1.3474e-19)
(-0.0620632 0.225678 1.80014e-19)
(-0.0596577 0.227776 9.00615e-20)
(-0.0566344 0.228952 1.35438e-19)
(-0.0530091 0.229221 4.502e-20)
(-0.0487999 0.228605 9.02839e-20)
(-0.0440271 0.227127 -8.99346e-20)
(-0.0387122 0.224815 0)
(-0.0328782 0.221703 -2.69108e-19)
(-0.0265498 0.21783 1.78908e-19)
(-0.0197536 0.213242 -8.93133e-20)
(-0.0125178 0.207989 -8.90124e-20)
(-0.00487215 0.202128 -1.69423e-22)
(0.00315153 0.195723 0)
(0.0115194 0.188843 0)
(0.0201954 0.181566 8.71739e-20)
(0.0291413 0.173977 -8.70034e-20)
(0.0383163 0.166175 8.65235e-20)
(0.0476762 0.158276 -8.6157e-20)
(0.0571686 0.15042 -8.57212e-20)
(0.0667249 0.142786 0)
(0.0762805 0.135607 -8.47414e-20)
(0.0857792 0.129267 -8.44972e-20)
(0.0947742 0.124246 -2.86945e-19)
(-0.00405871 0.012629 6.87844e-20)
(-0.0118027 0.035989 -6.55515e-20)
(-0.0195563 0.058571 7.6711e-20)
(-0.0268901 0.0797949 -1.37068e-19)
(-0.033663 0.0994069 -9.98801e-20)
(-0.0397914 0.117333 8.13386e-20)
(-0.0452321 0.133583 -1.65189e-19)
(-0.0499628 0.148216 -8.3822e-20)
(-0.0539741 0.161318 1.06111e-19)
(-0.0572645 0.172992 -1.93031e-19)
(-0.059836 0.183338 -1.30032e-19)
(-0.0616931 0.192446 -4.3665e-20)
(-0.0628418 0.200398 -1.32102e-19)
(-0.0632885 0.207256 1.32874e-19)
(-0.0630406 0.213069 -8.90675e-20)
(-0.0621073 0.217876 -8.94337e-20)
(-0.0605003 0.221703 0)
(-0.0582326 0.224572 -8.99266e-20)
(-0.0553192 0.226499 -1.35057e-19)
(-0.0517759 0.227502 4.50028e-20)
(-0.0476199 0.2276 -9.01177e-20)
(-0.0428706 0.226812 0)
(-0.0375498 0.225163 8.99329e-20)
(-0.0316812 0.222682 8.96357e-20)
(-0.0252898 0.219403 -8.91159e-20)
(-0.0184028 0.215366 0)
(-0.0110493 0.210615 0)
(-0.00326047 0.205202 0)
(0.00493085 0.199184 -3.65823e-22)
(0.0134897 0.192624 0)
(0.0223788 0.185591 -1.74564e-19)
(0.0315592 0.178161 -2.24281e-22)
(0.0409894 0.170421 -1.7288e-19)
(0.0506259 0.162467 1.72206e-19)
(0.060422 0.154413 -8.56332e-20)
(0.0703236 0.1464 8.54448e-20)
(0.0802589 0.138605 0)
(0.0901596 0.131272 1.6888e-19)
(0.0999823 0.124812 -8.37991e-20)
(0.109263 0.119751 0)
(-0.00430768 0.0126448 8.5783e-21)
(-0.0123837 0.0359903 0)
(-0.0202985 0.0585481 -9.56494e-20)
(-0.0276801 0.0797416 1.17396e-19)
(-0.0343981 0.099324 5.97899e-20)
(-0.040386 0.117222 -8.11529e-20)
(-0.0456138 0.133442 8.25487e-20)
(-0.0500708 0.148038 -8.36395e-20)
(-0.0537575 0.161095 0)
(-0.0566808 0.172711 8.57503e-20)
(-0.0588494 0.182983 -8.64991e-20)
(-0.0602735 0.192003 9.8408e-23)
(-0.0609635 0.199852 0)
(-0.0609291 0.206594 8.83925e-20)
(-0.0601804 0.212281 -4.43683e-20)
(-0.058729 0.216953 8.92019e-20)
(-0.0565882 0.220639 4.46953e-20)
(-0.0537725 0.223362 -8.96128e-20)
(-0.0502983 0.225142 0)
(-0.0461826 0.225998 1.34666e-19)
(-0.0414443 0.225949 4.48051e-20)
(-0.0361046 0.225016 0)
(-0.0301873 0.223224 0)
(-0.0237181 0.220604 0)
(-0.0167246 0.217188 8.92637e-20)
(-0.00923664 0.213017 0)
(-0.00128626 0.208136 -8.85127e-20)
(0.00709237 0.202597 1.76338e-19)
(0.015863 0.196457 -1.75768e-19)
(0.0249874 0.189779 0)
(0.0344249 0.182632 8.71741e-20)
(0.044133 0.17509 -8.63465e-20)
(0.0540672 0.16724 8.63204e-20)
(0.064181 0.159175 0)
(0.0744253 0.151007 0)
(0.0847437 0.142875 8.47742e-20)
(0.0950616 0.134954 -8.4257e-20)
(0.105306 0.127493 1.67722e-19)
(0.115448 0.120929 -1.66646e-19)
(0.125011 0.115834 0)
(-0.00454578 0.0126165 5.98996e-20)
(-0.0129374 0.0358825 1.86614e-20)
(-0.0209992 0.0583652 7.6506e-20)
(-0.0284132 0.079488 7.80779e-20)
(-0.0350583 0.09901 -7.97274e-20)
(-0.0408842 0.116857 8.11526e-20)
(-0.0458739 0.133032 8.23616e-20)
(-0.0500281 0.147586 8.36391e-20)
(-0.0533573 0.160597 0)
(-0.0558769 0.172158 8.55631e-20)
(-0.0576029 0.182366 8.64984e-20)
(-0.0585515 0.191311 8.72323e-20)
(-0.0587377 0.199073 0)
(-0.0581754 0.205717 -1.09874e-22)
(-0.0568779 0.211298 8.88259e-20)
(-0.0548593 0.215856 -4.46066e-20)
(-0.0521351 0.219423 -4.48087e-20)
(-0.0487219 0.222024 1.34384e-19)
(-0.0446375 0.223682 7.69661e-24)
(-0.0399009 0.224416 -4.50057e-20)
(-0.034533 0.224246 -8.97025e-20)
(-0.028557 0.223196 0)
(-0.021999 0.22129 0)
(-0.0148871 0.218559 0)
(-0.00725182 0.215037 0)
(0.000874178 0.210765 0)
(0.00945575 0.205789 0)
(0.0184555 0.200161 8.78177e-20)
(0.0278336 0.193936 -8.74523e-20)
(0.0375484 0.187179 0)
(0.0475558 0.179957 0)
(0.0578099 0.172346 8.63443e-20)
(0.0682628 0.164428 0)
(0.078865 0.156296 8.52424e-20)
(0.0895649 0.148059 -8.47542e-20)
(0.100304 0.139851 0)
(0.111004 0.131844 1.6771e-19)
(0.121589 0.124288 -1.66659e-19)
(0.132041 0.117642 0)
(0.141883 0.112525 0)
(-0.00477146 0.0125459 -6.84646e-20)
(-0.013461 0.0356684 -1.8637e-20)
(-0.0216562 0.058024 1.90836e-20)
(-0.0290883 0.0790336 -7.80779e-20)
(-0.0356442 0.0984618 0)
(-0.0412891 0.116233 0)
(-0.0460181 0.132346 -6.17718e-20)
(-0.0498432 0.146846 -2.08632e-20)
(-0.0527852 0.159806 -4.23051e-20)
(-0.0548679 0.171315 -4.28283e-20)
(-0.0561151 0.181466 -4.31978e-20)
(-0.0565489 0.190347 4.35202e-20)
(-0.0561901 0.198036 4.37849e-20)
(-0.0550568 0.2046 -4.41842e-20)
(-0.0531661 0.210093 0)
(-0.0505352 0.214558 0)
(-0.0471822 0.218028 -8.9291e-20)
(-0.043126 0.220532 0)
(-0.0383866 0.222091 0)
(-0.0329852 0.222729 8.92791e-20)
(-0.0269451 0.222465 -2.37246e-23)
(-0.0202921 0.221325 -1.1773e-22)
(-0.0130547 0.219335 -8.90702e-20)
(-0.00526383 0.216524 8.88788e-20)
(0.00304712 0.212929 8.84476e-20)
(0.0118423 0.20859 -8.81169e-20)
(0.0210832 0.203554 0)
(0.0307291 0.197872 8.74843e-20)
(0.0407367 0.191601 -4.59231e-23)
(0.0510605 0.184804 -8.66845e-20)
(0.0616533 0.177549 0)
(0.0724656 0.169911 0)
(0.0834462 0.16197 8.52886e-20)
(0.0945427 0.153818 -8.48181e-20)
(0.105701 0.145558 -8.43527e-20)
(0.11686 0.13732 8.38531e-20)
(0.127939 0.129271 0)
(0.138856 0.121659 0)
(0.149608 0.11496 0)
(0.159721 0.109837 -9.1909e-20)
(-0.0049835 0.0124352 8.53213e-20)
(-0.0139524 0.0353517 -3.72138e-20)
(-0.0222675 0.0575279 1.90558e-20)
(-0.0297046 0.0783804 0)
(-0.036157 0.0976784 9.93058e-20)
(-0.0416038 0.115345 2.06634e-23)
(-0.0460523 0.131375 8.21899e-20)
(-0.0495253 0.145808 -6.25633e-20)
(-0.0520536 0.15871 8.44681e-20)
(-0.0536698 0.170166 -4.2686e-20)
(-0.0544054 0.180264 0)
(-0.0542895 0.189089 4.35095e-20)
(-0.0533484 0.196717 -1.31436e-19)
(-0.0516052 0.203216 0)
(-0.0490813 0.208639 1.32751e-19)
(-0.0457976 0.213031 -8.87785e-20)
(-0.0417751 0.216427 -8.90822e-20)
(-0.0370354 0.218855 4.46142e-20)
(-0.0316013 0.220341 0)
(-0.0254966 0.220908 -8.93773e-20)
(-0.0187476 0.220578 -8.91879e-20)
(-0.0113826 0.219376 -8.08698e-23)
(-0.00343316 0.21733 8.87603e-20)
(0.00506677 0.214471 8.85822e-20)
(0.0140808 0.210834 -1.76796e-19)
(0.0235696 0.206462 8.81149e-20)
(0.0334915 0.201401 0)
(0.0438018 0.195703 -8.70501e-20)
(0.054454 0.189424 8.66133e-20)
(0.0653991 0.182628 8.61577e-20)
(0.0765862 0.175382 -8.56882e-20)
(0.0879626 0.16776 8.52089e-20)
(0.099474 0.159841 0)
(0.111065 0.151714 8.44198e-20)
(0.122678 0.143479 1.67687e-19)
(0.134251 0.13526 -1.66887e-19)
(0.145701 0.127216 1.65964e-19)
(0.156939 0.119591 1.01146e-22)
(0.167978 0.112873 -8.21573e-20)
(0.178352 0.107768 1.82673e-19)
(-0.00518103 0.0122871 -5.11942e-20)
(-0.0144098 0.0349377 -1.11412e-19)
(-0.0228321 0.056882 7.60615e-20)
(-0.030262 0.0775318 -5.83144e-20)
(-0.036598 0.0966613 -1.99581e-20)
(-0.041832 0.114192 2.01917e-20)
(-0.0459826 0.130114 -4.10849e-20)
(-0.0490834 0.144462 -4.16285e-20)
(-0.0511749 0.157297 4.22095e-20)
(-0.0522988 0.168695 -8.53209e-20)
(-0.0524943 0.178741 -4.26613e-23)
(-0.0517978 0.187515 4.34209e-20)
(-0.0502416 0.195094 0)
(-0.0478543 0.20154 -4.4015e-20)
(-0.0446622 0.20691 -4.42764e-20)
(-0.0406901 0.211248 8.87919e-20)
(-0.0359626 0.214589 0)
(-0.0305046 0.216964 0)
(-0.0243418 0.218401 8.91234e-20)
(-0.0175015 0.218922 -8.91346e-20)
(-0.0100128 0.218552 0)
(-0.00190735 0.217317 8.88324e-20)
(0.00678012 0.215244 -8.88318e-20)
(0.0160126 0.212367 -1.76764e-19)
(0.0257502 0.208722 8.56237e-23)
(0.0359504 0.204351 8.78373e-20)
(0.0465677 0.1993 -1.74554e-19)
(0.0575541 0.193622 8.7048e-20)
(0.0688593 0.187373 -8.66111e-20)
(0.0804311 0.180618 -1.95518e-22)
(0.0922151 0.173422 1.35993e-22)
(0.104155 0.165859 -8.52066e-20)
(0.116194 0.158006 -8.4367e-20)
(0.128274 0.14995 -8.38667e-20)
(0.140334 0.141788 -3.74352e-22)
(0.152311 0.133637 0)
(0.164119 0.125648 -8.23704e-20)
(0.175664 0.118055 1.64202e-19)
(0.186969 0.111357 -2.44956e-19)
(0.197593 0.1063 -1.66562e-22)
(-0.00536353 0.012105 -1.70193e-20)
(-0.0148322 0.0344324 1.48397e-19)
(-0.0233491 0.0560928 -7.60729e-20)
(-0.0307605 0.0764936 5.83254e-20)
(-0.0369686 0.0954139 -1.5856e-19)
(-0.0419769 0.112774 2.01656e-20)
(-0.0458147 0.128561 -8.19677e-20)
(-0.0485261 0.142804 0)
(-0.0501612 0.155556 0)
(-0.0507706 0.166888 -8.51769e-20)
(-0.0504016 0.17688 4.30502e-20)
(-0.0490981 0.185607 -4.59585e-23)
(-0.0468989 0.193142 4.36809e-20)
(-0.0438385 0.199548 0)
(-0.0399483 0.204879 -1.32409e-19)
(-0.0352578 0.209178 4.43005e-20)
(-0.0297957 0.212485 -8.87605e-20)
(-0.0235904 0.214828 0)
(-0.0166713 0.216237 0)
(-0.00906913 0.216737 4.88623e-23)
(-0.000816583 0.216353 -8.88756e-20)
(0.0080511 0.215112 8.85829e-20)
(0.0174959 0.213043 -8.83983e-20)
(0.0274775 0.210178 8.82081e-20)
(0.0379526 0.206556 6.01878e-23)
(0.0488749 0.202218 7.33754e-23)
(0.0601954 0.197213 8.71863e-20)
(0.0718626 0.191591 -8.64858e-20)
(0.0838228 0.185411 0)
(0.0960202 0.178735 -8.56429e-20)
(0.108397 0.171629 8.52343e-20)
(0.120895 0.164167 0)
(0.133453 0.156424 8.43647e-20)
(0.146009 0.148485 -8.34838e-20)
(0.158503 0.140442 8.30258e-20)
(0.170868 0.132407 0)
(0.183017 0.124522 2.46746e-19)
(0.194849 0.11701 -1.63348e-19)
(0.2064 0.110374 0)
(0.217256 0.105399 8.99841e-20)
(-0.00553085 0.0118924 1.35818e-19)
(-0.0152191 0.0338429 -7.41414e-20)
(-0.0238185 0.0551686 -1.89841e-20)
(-0.0312006 0.0752733 1.93911e-20)
(-0.0372704 0.0939419 7.92169e-20)
(-0.0420415 0.111095 0)
(-0.0455539 0.126716 8.19678e-20)
(-0.0478613 0.140829 1.24536e-19)
(-0.0490235 0.15348 4.20631e-20)
(-0.0490999 0.164736 4.25904e-20)
(-0.0481463 0.174667 4.29586e-20)
(-0.0462139 0.183347 -1.30092e-19)
(-0.0433488 0.190843 4.36306e-20)
(-0.0395914 0.197217 1.75492e-19)
(-0.0349788 0.20252 4.41491e-20)
(-0.0295457 0.206797 4.42436e-20)
(-0.0233252 0.210085 8.87594e-20)
(-0.0163498 0.212416 0)
(-0.00865293 0.21382 0)
(-0.00026925 0.214322 1.77626e-19)
(0.00876466 0.213949 -3.54524e-19)
(0.0184098 0.212728 -4.83746e-23)
(0.0286247 0.210689 0)
(0.0393653 0.207866 0)
(0.050585 0.204298 8.77175e-20)
(0.0622337 0.200027 0)
(0.0742589 0.1951 0)
(0.0866054 0.189571 -8.59687e-20)
(0.0992164 0.183495 -1.71497e-19)
(0.112033 0.176937 0)
(0.124994 0.169962 -1.69495e-19)
(0.138037 0.162641 -3.37159e-19)
(0.151099 0.15505 1.67801e-19)