/*--------------------------------*- C++ -*----------------------------------*\
  =========                 |
  \\      /  F ield         | OpenFOAM: The Open Source CFD Toolbox
   \\    /   O peration     | Website:  https://openfoam.org
    \\  /    A nd           | Version:  7
     \\/     M anipulation  |
\*---------------------------------------------------------------------------*/
FoamFile
{
    version     2.0;
    format      ascii;
    class       volScalarField;
    location    "42.6";
    object      p;
}
// * * * * * * * * * * * * * * * * * * * * * * * * * * * * * * * * * * * * * //

dimensions      [0 2 -2 0 0 0 0];

internalField   nonuniform List<scalar> 
2000
(
0.0174517
0.0179856
0.0187518
0.0196655
0.0206153
0.021523
0.0223373
0.0230325
0.0236095
0.0240884
0.017016
0.0176632
0.0184441
0.0193561
0.0202859
0.021154
0.0219073
0.0225131
0.0229614
0.0232604
0.0164629
0.0172451
0.0180382
0.0189368
0.0198304
0.0206466
0.0213285
0.0218406
0.022166
0.0222963
0.0158038
0.0167434
0.0175463
0.0184204
0.0192636
0.020008
0.0206014
0.021008
0.021209
0.0211796
0.0150546
0.0161751
0.0169845
0.0178235
0.0185996
0.0192515
0.0197346
0.0200162
0.0200822
0.0198987
0.0142383
0.0155586
0.0163723
0.0171669
0.0178594
0.0183968
0.0187437
0.0188747
0.018786
0.0184471
0.0133821
0.0149147
0.0157307
0.0164727
0.0170661
0.0174666
0.0176505
0.0176027
0.0173332
0.0168277
0.0125175
0.0142653
0.0150813
0.0157631
0.0162432
0.0164861
0.0164824
0.0162305
0.0157551
0.0150671
0.0116796
0.0136337
0.0144464
0.0150607
0.0154148
0.0154832
0.0152729
0.0147988
0.0141033
0.0132325
0.0109074
0.0130453
0.0138504
0.0143908
0.0146096
0.0144923
0.0140641
0.0133549
0.0124261
0.0113768
0.0251072
0.0280367
0.0326202
0.0387163
0.0449581
0.0510032
0.0556821
0.0602934
0.0624488
0.0646722
0.0237823
0.0260132
0.0298029
0.0354238
0.0413853
0.0472714
0.0517874
0.0562872
0.0584092
0.0605545
0.0222932
0.023983
0.0269598
0.0321031
0.0378162
0.0435798
0.047992
0.0524193
0.0544876
0.0565918
0.0206214
0.0219467
0.0241118
0.0287777
0.0342669
0.0399318
0.0442882
0.0486633
0.0507054
0.0527874
0.0187648
0.0198853
0.0212798
0.0254802
0.0307675
0.0363577
0.0406948
0.0450395
0.0470952
0.0491607
0.0167428
0.0177646
0.0184831
0.0222309
0.0273138
0.0328388
0.0371788
0.0415121
0.0436149
0.0456863
0.0146029
0.0155493
0.0157376
0.0190768
0.0239675
0.0294371
0.0337978
0.0381377
0.0403008
0.0423776
0.0124222
0.0132236
0.013049
0.0159798
0.0206467
0.0260561
0.0304553
0.0348173
0.0370655
0.0391811
0.0102745
0.0107765
0.0104861
0.0131149
0.0175586
0.0228709
0.0272989
0.0316734
0.0340018
0.0361276
0.00823707
0.00832115
0.0078898
0.010117
0.0142956
0.0195185
0.0240167
0.0284279
0.0309221
0.0331129
0.00566858
0.00557474
0.00498272
0.00590436
0.00874097
0.013051
0.0174005
0.0215755
0.0243504
0.0262709
-0.00409447
-0.00507274
-0.00565024
-0.0044814
-0.00157818
0.00265054
0.00707574
0.0112117
0.0141564
0.016006
-0.0112974
-0.0127837
-0.0139251
-0.0132902
-0.0107279
-0.00666388
-0.00227757
0.00193009
0.00500921
0.00696137
-0.0161331
-0.0176101
-0.0189978
-0.0189348
-0.0170842
-0.0136832
-0.00977477
-0.00573022
-0.00266967
-0.000539464
-0.0183026
-0.0194908
-0.020762
-0.0210329
-0.0199137
-0.0174066
-0.0142419
-0.0107239
-0.00800874
-0.00592918
-0.0179313
-0.0187456
-0.0198539
-0.0202427
-0.0197139
-0.0180251
-0.0156445
-0.0128204
-0.0105098
-0.00879324
-0.0153196
-0.0158189
-0.0167065
-0.0172446
-0.0171458
-0.0161633
-0.0145477
-0.0123964
-0.0104607
-0.00901126
-0.0113
-0.011537
-0.0121146
-0.0126707
-0.012895
-0.01251
-0.0116325
-0.0101939
-0.00867122
-0.00745792
-0.00653273
-0.00671637
-0.00712235
-0.00756343
-0.00783628
-0.00776595
-0.00745753
-0.00670556
-0.00582066
-0.0049502
-0.00163968
-0.00164656
-0.00188478
-0.00222215
-0.00251246
-0.00262611
-0.00268198
-0.00243793
-0.00222885
-0.00186196
0.00453434
-0.00394337
-0.0104407
-0.0149845
-0.0171293
-0.0168977
-0.0145677
-0.0109427
-0.00637569
-0.00168059
0.00315235
-0.00476789
-0.010802
-0.0149588
-0.0168205
-0.0165076
-0.0141817
-0.0106005
-0.00619494
-0.00167075
0.00201555
-0.00529658
-0.0109692
-0.0148407
-0.01648
-0.016078
-0.0137693
-0.0102266
-0.00601271
-0.00166365
0.00119394
-0.00556344
-0.0109074
-0.0145462
-0.0160301
-0.0155913
-0.0133364
-0.00993427
-0.0058517
-0.00166552
0.000731286
-0.00557545
-0.0106459
-0.0141053
-0.0154767
-0.0150432
-0.0128717
-0.00962995
-0.0056915
-0.00166774
0.000644815
-0.00532028
-0.0101755
-0.0135189
-0.0148213
-0.0144303
-0.0123671
-0.00928593
-0.00553819
-0.00166773
0.000934655
-0.0047955
-0.00948592
-0.0127724
-0.0140639
-0.0137514
-0.0118316
-0.00892089
-0.00531417
-0.00166766
0.00162034
-0.0040191
-0.00860554
-0.0118812
-0.013205
-0.013003
-0.0112529
-0.00853451
-0.00515387
-0.00166722
0.0026648
-0.00301511
-0.00754056
-0.0108545
-0.0122506
-0.0121897
-0.0106324
-0.0081229
-0.00495972
-0.00162716
0.00399834
-0.00180696
-0.00631693
-0.00971055
-0.0112137
-0.0113194
-0.00997446
-0.00768593
-0.0047441
-0.00158535
0.00554417
-0.000444289
-0.00496864
-0.00847513
-0.0101112
-0.0104022
-0.00928376
-0.0072235
-0.00450707
-0.00152031
0.00724939
0.00102867
-0.003528
-0.00717145
-0.00896163
-0.00944998
-0.00856741
-0.00673891
-0.00424993
-0.00143582
0.00907719
0.00258507
-0.0020227
-0.00581868
-0.00778327
-0.00847452
-0.00783404
-0.00623793
-0.00397676
-0.00133829
0.0109908
0.00420168
-0.000478432
-0.0044343
-0.00659202
-0.00748683
-0.00709103
-0.00572505
-0.00369015
-0.00123184
0.0129597
0.005862
0.00108241
-0.00303337
-0.005401
-0.00649717
-0.00634514
-0.00520503
-0.00339323
-0.0011201
0.0149537
0.00755069
0.00263774
-0.00163019
-0.00422078
-0.00551487
-0.00560238
-0.00468265
-0.00308925
-0.00100612
0.0169265
0.00924583
0.00416688
-0.000237634
-0.00305884
-0.00454766
-0.00486826
-0.00416241
-0.0027812
-0.000892059
0.0188807
0.0109765
0.00568916
0.00115304
-0.00191172
-0.00359903
-0.00414855
-0.00364991
-0.00247257
-0.000779147
0.0209832
0.0129029
0.00729368
0.00258859
-0.000756211
-0.00266224
-0.00344249
-0.00314879
-0.0021657
-0.000667149
0.022803
0.014803
0.00883529
0.00398313
0.000384898
-0.00173607
-0.0027294
-0.00263908
-0.00184685
-0.000554803
0.0236432
0.0174788
0.0115209
0.00674782
0.00295607
0.000457935
-0.000969379
-0.00134666
-0.00102973
-0.000304944
0.0245215
0.0190206
0.0136774
0.00930227
0.00565173
0.00303387
0.00126299
0.000393873
0.000122322
0.000154498
0.0265684
0.0212066
0.0159874
0.0116928
0.00797871
0.00517746
0.00310697
0.00186846
0.00114361
0.000600287
0.0287882
0.0234177
0.0182138
0.0138761
0.0100252
0.00701367
0.00467253
0.00314312
0.00207649
0.00105412
0.0312962
0.0257191
0.0203975
0.0159087
0.0118622
0.00862334
0.00604048
0.00428733
0.00296695
0.00152881
0.0340765
0.028157
0.022585
0.0178347
0.0135547
0.0100824
0.00729032
0.00535402
0.00382512
0.00200437
0.0370387
0.0306683
0.024718
0.0196465
0.0151479
0.0114551
0.00847927
0.00634778
0.00457674
0.00234916
0.0397815
0.0326392
0.02658
0.0213229
0.016646
0.012751
0.00959402
0.00718559
0.00503129
0.00237883
0.0421103
0.0352898
0.0286677
0.0228536
0.0178809
0.0138024
0.0104621
0.0077058
0.00508444
0.00211036
0.0440254
0.0357856
0.0290301
0.0233317
0.0184699
0.0143995
0.0109651
0.00796945
0.00505126
0.00190988
0.0278796
0.0287453
0.030539
0.0326314
0.0352513
0.038205
0.0412829
0.045294
0.0464351
0.0501552
0.0294267
0.0306449
0.0324873
0.0346558
0.0374087
0.0404933
0.0437301
0.0476033
0.0490895
0.0522315
0.0305808
0.0322613
0.0343749
0.0368643
0.0399172
0.0432745
0.0467879
0.0502873
0.0523995
0.0542187
0.0317428
0.0336701
0.0360123
0.0388405
0.0421952
0.0458358
0.0496261
0.0530633
0.0555871
0.0567363
0.0330015
0.0351306
0.0376386
0.0407309
0.044316
0.0481754
0.0521881
0.0557962
0.0585645
0.0597193
0.0342892
0.0366894
0.0394
0.0427266
0.0464987
0.0505285
0.0547097
0.0585378
0.0614883
0.0629267
0.035575
0.0382937
0.0412831
0.0448664
0.0488359
0.0530394
0.0573746
0.0613926
0.0645029
0.06621
0.0368733
0.0399185
0.0432414
0.047107
0.0513069
0.0557173
0.0602289
0.0644159
0.0676709
0.0695411
0.0382031
0.0415674
0.045257
0.0494105
0.0538689
0.058517
0.0632397
0.067604
0.0709961
0.0729491
0.0395759
0.0432422
0.0473304
0.0517614
0.0564994
0.0614008
0.0663641
0.0709278
0.07446
0.0764644
0.0410014
0.0449297
0.0494614
0.0541493
0.0591916
0.0643504
0.0695792
0.0743643
0.0780472
0.0801013
0.0424821
0.0466012
0.0516388
0.0565545
0.0619381
0.0673556
0.0728745
0.0779
0.0817491
0.0838606
0.0439886
0.0482332
0.0538316
0.0589564
0.0647215
0.0704161
0.0762536
0.0815362
0.0855697
0.087747
0.0454704
0.0498174
0.0559928
0.0613406
0.0675151
0.0735346
0.0797118
0.0852721
0.0895129
0.091775
0.0468679
0.0513565
0.0580705
0.0637057
0.0702804
0.0767417
0.0832596
0.0891172
0.0935803
0.0959334
0.0481147
0.0528536
0.0600014
0.0660704
0.0730486
0.0799411
0.0868388
0.0930356
0.0977514
0.100209
0.049145
0.0542981
0.0618496
0.0683877
0.0757738
0.0831094
0.0904464
0.0970291
0.102029
0.104614
0.0498644
0.0557155
0.0635159
0.0705318
0.0783435
0.0861611
0.0939982
0.101034
0.106381
0.10914
0.0502819
0.0571219
0.0650313
0.0725633
0.0808307
0.0891791
0.0975555
0.105088
0.110828
0.113817
0.0501556
0.0579816
0.0660161
0.0740551
0.0827819
0.0917167
0.100741
0.108942
0.115256
0.118606
0.0521176
0.0620572
0.0704404
0.0794525
0.0890981
0.0992004
0.10948
0.119001
0.126475
0.130618
0.0633703
0.0726879
0.0814286
0.0918802
0.103121
0.11512
0.127407
0.138809
0.147762
0.152639
0.0749963
0.0848322
0.0947172
0.106858
0.119879
0.134061
0.148457
0.161694
0.171997
0.177629
0.0866218
0.0975531
0.109262
0.123419
0.138645
0.15544
0.172076
0.187202
0.198787
0.204952
0.0983728
0.110808
0.124683
0.141108
0.158944
0.178602
0.197541
0.214616
0.227375
0.234252
0.110719
0.124798
0.141031
0.159935
0.180656
0.203213
0.224453
0.243426
0.257028
0.263895
0.123171
0.13911
0.157685
0.179131
0.20276
0.227948
0.251443
0.271998
0.285956
0.293401
0.135526
0.153174
0.174009
0.197929
0.22429
0.251757
0.277629
0.299606
0.313342
0.318842
0.14493
0.164
0.186581
0.212399
0.240796
0.270005
0.298024
0.32125
0.33497
0.341188
0.151617
0.171473
0.195227
0.222332
0.252092
0.282732
0.312849
0.339274
0.356568
0.346662
0.0486577
0.0592634
0.0696323
0.0805462
0.091398
0.103158
0.114515
0.126326
0.135013
0.141517
0.0482114
0.0591238
0.0691259
0.07973
0.0902174
0.101641
0.112507
0.12392
0.131963
0.138201
0.0485113
0.0599495
0.069884
0.0803662
0.0906438
0.101734
0.112162
0.12296
0.130129
0.135854
0.0484342
0.0600691
0.0699392
0.0803946
0.0905274
0.10137
0.111441
0.121739
0.128304
0.133562
0.0481891
0.0597996
0.0695312
0.0798733
0.0898099
0.10038
0.110105
0.120002
0.126212
0.131135
0.0479427
0.0594821
0.0691443
0.0793144
0.0890165
0.0992672
0.108624
0.118138
0.124084
0.128762
0.0476712
0.059153
0.0688881
0.0789008
0.088408
0.0983605
0.107368
0.11652
0.122207
0.126676
0.0473608
0.0588326
0.0686812
0.0785979
0.0879875
0.097712
0.106446
0.115283
0.120737
0.125006
0.0470349
0.0585578
0.0685038
0.0783567
0.0877184
0.0972686
0.105837
0.114383
0.119701
0.123759
0.0467275
0.0583543
0.0683895
0.078221
0.0875667
0.0969998
0.105493
0.11376
0.119067
0.122883
0.0464725
0.0582347
0.0683669
0.0782159
0.0875505
0.0969189
0.105369
0.113434
0.118753
0.122369
0.0462549
0.0581732
0.0684279
0.0783336
0.0876825
0.0970349
0.105461
0.113411
0.118728
0.122214
0.0460257
0.0581238
0.0685455
0.0785526
0.087959
0.0973486
0.105783
0.113689
0.119002
0.122408
0.0457635
0.0580713
0.0687076
0.0788597
0.0883723
0.097852
0.106336
0.114259
0.119578
0.122941
0.0454569
0.058019
0.0689108
0.0792498
0.0889209
0.0985406
0.107125
0.115119
0.120464
0.123804
0.0450705
0.0579518
0.0691339
0.0797031
0.0895846
0.0993897
0.108127
0.116241
0.121639
0.124987
0.0445741
0.0578693
0.069368
0.0802144
0.090364
0.100407
0.109362
0.117633
0.123111
0.126485
0.043848
0.0576821
0.069529
0.0807052
0.0911772
0.101507
0.110744
0.119225
0.124834
0.12829
0.0430121
0.0575114
0.0697025
0.0812465
0.0920949
0.102759
0.11234
0.121063
0.126845
0.130406
0.0413503
0.0567448
0.0693921
0.0813731
0.0926548
0.103719
0.113769
0.122887
0.129001
0.132827
0.0414939
0.0575525
0.0708583
0.0836804
0.0959307
0.107789
0.118788
0.128564
0.135402
0.139535
0.0521345
0.0673054
0.0802264
0.0937551
0.107046
0.120213
0.132723
0.14382
0.151658
0.156018
0.0640441
0.0794905
0.0929264
0.107684
0.122261
0.137185
0.151571
0.164398
0.173461
0.178183
0.0755832
0.0918474
0.106792
0.123486
0.140102
0.157701
0.17473
0.190102
0.201128
0.206637
0.0866205
0.104051
0.121153
0.140234
0.15964
0.180794
0.201349
0.220498
0.23474
0.241904
0.0971919
0.116115
0.135933
0.157688
0.180631
0.206013
0.231082
0.255649
0.275141
0.28618
0.106779
0.127709
0.150175
0.174843
0.201892
0.231769
0.26249
0.294418
0.322133
0.341799
0.11578
0.1386
0.163621
0.191437
0.222683
0.25726
0.295111
0.336432
0.376923
0.4148
0.121183
0.145554
0.17256
0.202862
0.237555
0.277049
0.32309
0.375977
0.437046
0.507433
0.124696
0.151462
0.180326
0.212968
0.251009
0.295823
0.35023
0.417453
0.50791
0.624638
0.0358794
0.0453748
0.055322
0.0653505
0.0752858
0.0855563
0.0936897
0.102525
0.107335
0.108773
0.0343323
0.0436422
0.053075
0.0627946
0.072178
0.0820896
0.0895661
0.0982995
0.102542
0.10461
0.0334851
0.0427844
0.0520367
0.0617201
0.070727
0.0800424
0.0869079
0.0952069
0.0987506
0.102498
0.0324675
0.0413803
0.0503657
0.059814
0.068647
0.0774181
0.083814
0.0915906
0.0945988
0.0992987
0.0314112
0.0396201
0.0481407
0.0571036
0.0656951
0.0739952
0.0799874
0.0872407
0.0898076
0.0945531
0.0304022
0.0377849
0.0457497
0.0541772
0.0622739
0.0702397
0.075839
0.082541
0.0847067
0.088984
0.0294148
0.0359151
0.043296
0.051241
0.0588274
0.0663253
0.0717351
0.0778438
0.0796994
0.0833949
0.028419
0.033996
0.0407535
0.0482493
0.0554275
0.0624162
0.0676904
0.0732723
0.0750151
0.0781933
0.0273897
0.0320346
0.038114
0.0451543
0.0520008
0.0585691
0.0636624
0.0687805
0.0707034
0.0734164
0.0262971
0.0300453
0.035396
0.0419655
0.0485068
0.054768
0.0596493
0.0644489
0.0665479
0.0689414
0.0102455
0.0125301
0.0133235
0.0137852
0.0138641
0.0135595
0.0129156
0.0119741
0.0107948
0.00940482
0.00975446
0.0121297
0.012904
0.0132832
0.0132233
0.012741
0.0119035
0.0107719
0.00942234
0.00790673
0.00948214
0.0118818
0.0126327
0.0129299
0.012738
0.012095
0.0110918
0.00980982
0.00834289
0.00674927
0.00948028
0.0118319
0.0125568
0.012774
0.01246
0.011676
0.0105346
0.00913403
0.00757859
0.00591876
0.00979966
0.0120279
0.0127238
0.0128627
0.0124363
0.0115303
0.0102752
0.00878114
0.00715617
0.00543883
0.0104836
0.0125147
0.0131757
0.0132349
0.0127031
0.0116907
0.0103419
0.00877393
0.00709322
0.00532686
0.0115638
0.013329
0.013943
0.0139158
0.0132815
0.0121737
0.010746
0.00911901
0.00739377
0.0055898
0.013057
0.0144942
0.0150409
0.0149143
0.0141751
0.0129777
0.0114814
0.00980634
0.0080458
0.00622541
0.0149584
0.0160146
0.0164653
0.0162203
0.0153694
0.0140837
0.0125257
0.0108128
0.00903077
0.00718152
0.0172177
0.0178626
0.0181904
0.0178045
0.0168327
0.0154592
0.0138429
0.0120984
0.0103023
0.00844329
0.0197312
0.0199814
0.0201689
0.0196238
0.018522
0.0170581
0.0153857
0.0136146
0.0118129
0.00995298
0.0225508
0.022359
0.0223543
0.0216247
0.0203821
0.0188255
0.0170992
0.0153068
0.0135081
0.0116526
0.0255713
0.0249094
0.0246771
0.0237438
0.0223542
0.020705
0.0189282
0.0171199
0.0153324
0.0134876
0.0286864
0.0275464
0.0270613
0.0259126
0.0243751
0.022637
0.0208154
0.018998
0.0172311
0.0154064
0.0317928
0.0301805
0.0294279
0.0280616
0.0263816
0.0245629
0.0227053
0.0208878
0.0191529
0.0173625
0.0347847
0.0327206
0.0316996
0.0301241
0.0283141
0.0264279
0.0245464
0.0227398
0.0210504
0.0193129
0.0375587
0.0350792
0.0338043
0.0320399
0.0301198
0.028184
0.0262942
0.0245109
0.0228794
0.0212112
0.0400189
0.0371766
0.0356791
0.0337579
0.0317553
0.0297928
0.0279133
0.026165
0.0245955
0.023009
0.0420822
0.0389451
0.0372726
0.0352393
0.0331896
0.0312274
0.0293771
0.0276645
0.0261383
0.0246523
0.0436801
0.0403304
0.0385459
0.0364581
0.0344075
0.0324816
0.0306837
0.0289996
0.0274877
0.026165
0.0447628
0.0412932
0.0394707
0.0373972
0.0354066
0.0335793
0.0319153
0.0303776
0.0290371
0.0282818
0.0452966
0.0418054
0.040025
0.0380366
0.036162
0.0344734
0.0329668
0.0315928
0.0303989
0.0297495
0.0452628
0.0418559
0.0401989
0.0383638
0.0366559
0.0351394
0.0338077
0.0326097
0.0315622
0.0309427
0.0446707
0.0414523
0.039997
0.0383802
0.0368883
0.0355806
0.0344516
0.0334555
0.032591
0.0320629
0.0435533
0.0406195
0.039438
0.0381013
0.0368735
0.0358128
0.0349178
0.0341504
0.0334995
0.03312
0.0419637
0.039398
0.0385543
0.0375543
0.0366361
0.0358595
0.0352291
0.0347151
0.034301
0.0341041
0.0399714
0.0378409
0.0373883
0.0367749
0.0362079
0.0357493
0.0354113
0.0351737
0.0350174
0.0350284
0.0376562
0.0360095
0.0359888
0.0358033
0.0356232
0.0355122
0.035491
0.0355495
0.0356703
0.0359131
0.0351045
0.033969
0.034407
0.034681
0.0349164
0.0351772
0.0354925
0.0358632
0.036277
0.0367741
0.0324209
0.0317898
0.0326956
0.0334483
0.0341198
0.0347701
0.0354368
0.0361318
0.0368507
0.0376215
0.0297408
0.0295587
0.0309132
0.0321472
0.0332645
0.0343149
0.0353421
0.0363687
0.0373998
0.0384601
0.0270163
0.027289
0.0290877
0.0308031
0.032371
0.0338266
0.0352189
0.0365797
0.0379245
0.0392846
0.0243343
0.0250394
0.0272597
0.0294441
0.0314584
0.0333177
0.0350738
0.0367662
0.0384182
0.040078
0.0217666
0.0228616
0.025465
0.0280931
0.0305407
0.0327954
0.0349082
0.0369239
0.0388691
0.0408155
0.0193556
0.0207949
0.0237308
0.0267675
0.0296272
0.0322623
0.0347196
0.0370459
0.0392638
0.0414694
0.0171381
0.0188725
0.0220718
0.0254804
0.0287235
0.0317183
0.0345034
0.0371249
0.0395917
0.0420126
0.0151372
0.0171166
0.0205096
0.0242406
0.0278327
0.0311615
0.0342541
0.0371565
0.0398546
0.0424278
0.0133662
0.0155339
0.0190672
0.0230574
0.026955
0.0305887
0.033965
0.0371336
0.0400673
0.0427157
0.0118326
0.0141356
0.0177495
0.0219362
0.0260913
0.0299971
0.0336336
0.0370513
0.0402743
0.0429787
0.0105386
0.0129288
0.016562
0.0208799
0.0252394
0.0293781
0.0332476
0.0368938
0.0403492
0.0434384
0.00947694
0.0119131
0.0155079
0.0198905
0.0243974
0.0287263
0.0328004
0.0366635
0.0404867
0.0443815
0.00861099
0.0110748
0.0145863
0.0189698
0.0235613
0.0280208
0.0322325
0.036194
0.0400304
0.0438153
0.00795577
0.0104188
0.0138023
0.0181241
0.0227364
0.0272656
0.0315566
0.035569
0.0393796
0.0430278
0.00750627
0.00994057
0.0131582
0.0173625
0.0219388
0.026491
0.0308327
0.0349035
0.0387572
0.0423868
0.00724669
0.00962959
0.0126538
0.0166944
0.0211862
0.0257236
0.0300945
0.0342201
0.0381348
0.0417945
0.0071596
0.00947326
0.0122865
0.0161269
0.0204916
0.0249785
0.029354
0.0335169
0.0374803
0.0411858
0.0072273
0.00945776
0.0120512
0.0156639
0.0198647
0.0242668
0.0286214
0.0328036
0.0368028
0.0405565
0.00743108
0.00956751
0.0119402
0.0153067
0.0193129
0.023599
0.027908
0.0320932
0.0361178
0.0399176
0.00775238
0.00978543
0.0119427
0.0150535
0.0188417
0.0229842
0.0272243
0.0313962
0.035437
0.0392809
0.00818294
0.0101006
0.0120497
0.0149008
0.0184534
0.0224283
0.026577
0.0307195
0.0347679
0.0386562
0.00873115
0.0105193
0.0122662
0.014856
0.0181578
0.0219417
0.0259753
0.0300704
0.034116
0.0380488
0.00931805
0.0109831
0.0125501
0.014893
0.017943
0.0215215
0.0254203
0.0294502
0.0334798
0.0374501
0.00994558
0.0114901
0.0128954
0.0150064
0.0178065
0.0211681
0.0249125
0.028857
0.0328528
0.0368428
0.0106097
0.0120336
0.0132931
0.0151882
0.0177437
0.0208795
0.0244506
0.0282877
0.0322283
0.036215
0.0112995
0.0126025
0.0137319
0.0154289
0.0177489
0.0206539
0.0240346
0.0277411
0.0316015
0.0355569
0.0120047
0.0131867
0.0142014
0.0157197
0.0178167
0.0204899
0.0236655
0.0272176
0.0309686
0.0348546
0.0127158
0.0137777
0.0146927
0.0160525
0.0179421
0.0203863
0.0233451
0.0267204
0.0303293
0.0340962
0.013424
0.014368
0.0151978
0.01642
0.0181201
0.0203422
0.0230763
0.0262552
0.02969
0.0332724
0.0141201
0.0149503
0.0157096
0.0168151
0.0183458
0.0203564
0.0228624
0.0258325
0.0290771
0.0324141
0.0147946
0.0155174
0.0162204
0.0172305
0.0186133
0.0204267
0.0227032
0.0254512
0.0285197
0.0315837
0.0154371
0.0160608
0.0167215
0.0176564
0.0189137
0.0205476
0.0225988
0.0251123
0.0281085
0.0312241
0.0160331
0.0165691
0.0172023
0.018083
0.0192378
0.0207106
0.0225388
0.0247608
0.0274331
0.0303113
0.0165728
0.0170346
0.0176538
0.0184994
0.0195746
0.0209074
0.0225285
0.0244688
0.0267899
0.0293615
0.0170448
0.0174462
0.0180644
0.0188925
0.0199109
0.0211299
0.0225724
0.0242697
0.0262864
0.0285374
0.0174342
0.0177929
0.018421
0.0192464
0.020229
0.0213607
0.0226541
0.0241392
0.0258802
0.027819
0.017728
0.0180628
0.018711
0.0195443
0.020508
0.0215755
0.0227467
0.0240458
0.0255324
0.027176
0.0179151
0.0182435
0.0189226
0.019769
0.0207258
0.0217475
0.0228203
0.0239597
0.0252164
0.0265842
0.0179865
0.0183345
0.0190358
0.0199041
0.0208614
0.0218501
0.0228439
0.0238478
0.0249009
0.0260149
0.0179343
0.0183186
0.0190527
0.0199374
0.0208964
0.0218589
0.0227874
0.0236757
0.0245503
0.0254332
0.0177558
0.0182054
0.0189546
0.0198587
0.0208168
0.0217541
0.0226247
0.0234121
0.0241296
0.0248022
)
;

boundaryField
{
    inlet
    {
        type            zeroGradient;
    }
    outlet
    {
        type            fixedValue;
        value           uniform 0;
    }
    cylinder
    {
        type            zeroGradient;
    }
    top
    {
        type            symmetryPlane;
    }
    bottom
    {
        type            symmetryPlane;
    }
    defaultFaces
    {
        type            empty;
    }
}


// ************************************************************************* //
