/*--------------------------------*- C++ -*----------------------------------*\
  =========                 |
  \\      /  F ield         | OpenFOAM: The Open Source CFD Toolbox
   \\    /   O peration     | Website:  https://openfoam.org
    \\  /    A nd           | Version:  7
     \\/     M anipulation  |
\*---------------------------------------------------------------------------*/
FoamFile
{
    version     2.0;
    format      ascii;
    class       volScalarField;
    location    "3.4";
    object      p;
}
// * * * * * * * * * * * * * * * * * * * * * * * * * * * * * * * * * * * * * //

dimensions      [0 2 -2 0 0 0 0];

internalField   nonuniform List<scalar> 
18000
(
1.30312
1.30183
1.30207
1.30267
1.30366
1.30496
1.3065
1.30827
1.31028
1.31253
1.31501
1.31771
1.32063
1.32375
1.32706
1.33055
1.33418
1.33792
1.34175
1.34563
1.34955
1.35348
1.35739
1.36125
1.36502
1.36871
1.37229
1.37577
1.37913
1.38221
1.29908
1.29799
1.29829
1.29893
1.29994
1.3012
1.30265
1.30429
1.30613
1.30815
1.31036
1.31275
1.31534
1.31811
1.32108
1.32422
1.32752
1.33095
1.33449
1.33811
1.34181
1.34555
1.3493
1.35303
1.35671
1.36033
1.36386
1.3673
1.37065
1.37372
1.29486
1.29399
1.29436
1.29505
1.29608
1.2973
1.29867
1.30019
1.30184
1.30363
1.30556
1.30764
1.30988
1.3123
1.31491
1.3177
1.32065
1.32376
1.327
1.33036
1.33382
1.33737
1.34096
1.34457
1.34815
1.3517
1.35519
1.35862
1.36196
1.36504
1.29051
1.28985
1.29029
1.29104
1.29209
1.29328
1.29459
1.29598
1.29744
1.29899
1.30063
1.30239
1.30429
1.30635
1.30858
1.31099
1.31359
1.31637
1.31931
1.3224
1.32562
1.32897
1.3324
1.33588
1.33938
1.34287
1.34633
1.34975
1.3531
1.3562
1.28608
1.28562
1.28614
1.28695
1.28801
1.28919
1.29042
1.29167
1.29295
1.29425
1.29561
1.29705
1.29859
1.30027
1.30212
1.30416
1.3064
1.30883
1.31146
1.31427
1.31726
1.3204
1.32367
1.32703
1.33045
1.33388
1.33732
1.34073
1.34409
1.34722
1.28153
1.2813
1.28189
1.28277
1.28385
1.28501
1.28617
1.28729
1.28838
1.28944
1.29052
1.29162
1.29281
1.29411
1.29558
1.29724
1.29911
1.3012
1.30351
1.30604
1.30878
1.31173
1.31483
1.31807
1.3214
1.32478
1.32819
1.33159
1.33497
1.33814
1.27692
1.27692
1.27759
1.27853
1.27964
1.28078
1.28186
1.28286
1.28376
1.28459
1.28538
1.28616
1.28699
1.28792
1.289
1.29028
1.29179
1.29353
1.29552
1.29776
1.30026
1.303
1.30594
1.30905
1.31229
1.31562
1.31899
1.32239
1.32579
1.329
1.27227
1.2725
1.27325
1.27426
1.27539
1.27651
1.27753
1.2784
1.27913
1.27973
1.28024
1.2807
1.28117
1.28173
1.28244
1.28334
1.28448
1.28588
1.28755
1.2895
1.29175
1.29428
1.29705
1.30004
1.30318
1.30645
1.30979
1.31318
1.31659
1.31983
1.26758
1.26805
1.26888
1.26996
1.27112
1.27223
1.27318
1.27394
1.2745
1.27488
1.27511
1.27526
1.27539
1.27559
1.27593
1.27647
1.27725
1.2783
1.27965
1.28132
1.28332
1.28564
1.28824
1.29109
1.29414
1.29734
1.30063
1.304
1.30742
1.31067
1.26288
1.26359
1.26449
1.26564
1.26684
1.26794
1.26883
1.26948
1.26989
1.27006
1.27003
1.26988
1.26969
1.26955
1.26953
1.26971
1.27013
1.27085
1.27188
1.27327
1.27503
1.27714
1.27957
1.28228
1.28522
1.28833
1.29158
1.2949
1.29831
1.30158
1.2582
1.25912
1.2601
1.26132
1.26255
1.26365
1.2645
1.26506
1.26532
1.2653
1.26503
1.2646
1.2641
1.26363
1.26327
1.26311
1.26319
1.26357
1.2643
1.26542
1.26693
1.26883
1.27109
1.27365
1.27647
1.27949
1.28266
1.28594
1.28931
1.29258
1.25354
1.25467
1.25572
1.25701
1.25828
1.25938
1.2602
1.26068
1.26081
1.26061
1.26012
1.25943
1.25864
1.25786
1.25719
1.2567
1.25645
1.25652
1.25696
1.2578
1.25907
1.26077
1.26284
1.26525
1.26794
1.27086
1.27394
1.27714
1.28046
1.28369
1.24892
1.25024
1.25136
1.25271
1.25402
1.25514
1.25594
1.25636
1.25638
1.25601
1.25532
1.25439
1.25334
1.25228
1.25131
1.2505
1.24995
1.24972
1.24987
1.25046
1.25149
1.25297
1.25486
1.25711
1.25966
1.26246
1.26544
1.26854
1.27177
1.27494
1.24436
1.24584
1.24702
1.24843
1.2498
1.25093
1.25173
1.2521
1.25202
1.25152
1.25065
1.24951
1.24822
1.24689
1.24564
1.24455
1.24371
1.24319
1.24307
1.2434
1.24421
1.24548
1.24718
1.24926
1.25166
1.25432
1.25717
1.26015
1.26326
1.26636
1.23985
1.24147
1.24271
1.24419
1.2456
1.24677
1.24756
1.2479
1.24775
1.24713
1.2461
1.24477
1.24326
1.2417
1.24018
1.23883
1.23772
1.23694
1.23656
1.23665
1.23723
1.23829
1.2398
1.2417
1.24394
1.24645
1.24916
1.25199
1.25496
1.25794
1.2354
1.23714
1.23843
1.23997
1.24143
1.24264
1.24345
1.24376
1.24355
1.24284
1.24168
1.24018
1.23848
1.23669
1.23495
1.23335
1.23199
1.23095
1.23033
1.23018
1.23054
1.2314
1.23271
1.23444
1.2365
1.23885
1.24139
1.24407
1.24687
1.24971
1.23102
1.23284
1.23418
1.23577
1.2373
1.23855
1.23938
1.23969
1.23943
1.23864
1.23737
1.23573
1.23385
1.23186
1.2299
1.22807
1.22648
1.22521
1.22436
1.22399
1.22414
1.22479
1.22591
1.22745
1.22934
1.2315
1.23387
1.23636
1.23898
1.24167
1.22669
1.22857
1.22995
1.23161
1.23319
1.23449
1.23535
1.23566
1.23537
1.23451
1.23314
1.23137
1.22934
1.22718
1.22502
1.22299
1.22118
1.21969
1.21863
1.21805
1.21799
1.21844
1.21937
1.22071
1.22241
1.22439
1.22656
1.22887
1.23129
1.23381
1.22242
1.22433
1.22575
1.22746
1.22909
1.23044
1.23134
1.23166
1.23135
1.23044
1.22898
1.2271
1.22493
1.22261
1.22027
1.21804
1.21603
1.21435
1.21308
1.21231
1.21206
1.21231
1.21305
1.2142
1.2157
1.21748
1.21946
1.22157
1.22378
1.22612
1.21818
1.2201
1.22156
1.22331
1.225
1.22641
1.22734
1.22767
1.22734
1.22638
1.22485
1.22287
1.22058
1.21811
1.21561
1.2132
1.21101
1.20914
1.20769
1.20674
1.2063
1.20636
1.20691
1.20786
1.20917
1.21075
1.21253
1.21443
1.21642
1.21857
1.21397
1.21588
1.21737
1.21918
1.22092
1.22237
1.22333
1.22367
1.22333
1.22232
1.22073
1.21865
1.21624
1.21364
1.21099
1.20842
1.20606
1.20402
1.20241
1.20128
1.20067
1.20055
1.20091
1.20167
1.20278
1.20416
1.20574
1.20742
1.20919
1.21112
1.20978
1.21167
1.21318
1.21503
1.21681
1.2183
1.21929
1.21963
1.21927
1.21822
1.21656
1.2144
1.21188
1.20916
1.20637
1.20365
1.20114
1.19895
1.19719
1.19591
1.19513
1.19483
1.195
1.19558
1.19649
1.19767
1.19905
1.20053
1.20208
1.20381
1.20558
1.20743
1.20897
1.21086
1.21268
1.2142
1.2152
1.21554
1.21516
1.21406
1.21233
1.21008
1.20746
1.20462
1.2017
1.19886
1.19621
1.19389
1.19199
1.19057
1.18963
1.18917
1.18916
1.18955
1.19027
1.19125
1.19243
1.19371
1.19507
1.19663
1.20137
1.20318
1.20474
1.20665
1.20851
1.21005
1.21105
1.21138
1.21096
1.20981
1.208
1.20566
1.20294
1.19999
1.19696
1.194
1.19124
1.1888
1.18678
1.18522
1.18414
1.18352
1.18333
1.18353
1.18406
1.18485
1.18584
1.18695
1.18813
1.18953
1.19712
1.19889
1.20047
1.20241
1.20429
1.20583
1.20682
1.20712
1.20665
1.20543
1.20355
1.20112
1.1983
1.19525
1.19212
1.18905
1.18619
1.18366
1.18153
1.17985
1.17862
1.17784
1.17748
1.1775
1.17783
1.17843
1.17924
1.18019
1.18123
1.18251
1.19282
1.19455
1.19615
1.1981
1.19999
1.20152
1.20249
1.20274
1.20221
1.20092
1.19894
1.19642
1.19351
1.19037
1.18715
1.184
1.18106
1.17844
1.17621
1.17441
1.17305
1.17212
1.17158
1.1714
1.17153
1.17194
1.17257
1.17337
1.1743
1.17553
1.18845
1.19015
1.19176
1.19373
1.19561
1.19712
1.19804
1.19823
1.19763
1.19625
1.19418
1.19157
1.18857
1.18535
1.18205
1.17882
1.17582
1.17312
1.17081
1.1689
1.16741
1.16631
1.16559
1.1652
1.16513
1.16533
1.16578
1.16644
1.16728
1.16851
1.184
1.18567
1.1873
1.18927
1.19113
1.19261
1.19347
1.19358
1.19289
1.19141
1.18925
1.18655
1.18346
1.18017
1.17681
1.17353
1.17047
1.16771
1.16532
1.1633
1.16167
1.16041
1.15948
1.15888
1.15856
1.15853
1.15877
1.15928
1.16007
1.16137
1.17944
1.18111
1.18275
1.18472
1.18656
1.18797
1.18876
1.18878
1.18799
1.18641
1.18415
1.18136
1.1782
1.17484
1.17143
1.16812
1.16502
1.16221
1.15973
1.15761
1.15584
1.1544
1.15326
1.1524
1.15181
1.15148
1.15144
1.15173
1.15248
1.15401
1.17476
1.17645
1.17811
1.18008
1.18187
1.18321
1.18391
1.18383
1.18293
1.18124
1.17888
1.17601
1.17279
1.16938
1.16594
1.1626
1.15947
1.15661
1.15407
1.15184
1.14992
1.14829
1.14692
1.14579
1.14487
1.14416
1.14366
1.14342
1.1436
1.14519
1.39174
1.40615
1.41477
1.42246
1.42784
1.43202
1.43506
1.43726
1.43876
1.43967
1.44006
1.44005
1.43974
1.43919
1.43841
1.43747
1.43637
1.43518
1.43386
1.43247
1.43091
1.42926
1.42738
1.42547
1.42331
1.42126
1.41891
1.41724
1.41541
1.41585
1.38328
1.39864
1.40777
1.41584
1.42143
1.42579
1.42898
1.43131
1.43289
1.43387
1.43436
1.43444
1.43419
1.43367
1.43295
1.43205
1.43098
1.42981
1.42851
1.42713
1.42555
1.4239
1.42203
1.42011
1.41795
1.41589
1.41355
1.41188
1.41005
1.41048
1.37462
1.39101
1.40067
1.40914
1.41498
1.41952
1.42286
1.42532
1.42699
1.42806
1.42865
1.4288
1.42861
1.42813
1.42747
1.42662
1.42558
1.42444
1.42316
1.42178
1.42021
1.41857
1.41671
1.41479
1.41264
1.41059
1.40826
1.4066
1.40477
1.40519
1.36578
1.38329
1.39347
1.40237
1.40848
1.41322
1.41672
1.41929
1.42107
1.42224
1.42292
1.42315
1.42302
1.4226
1.42199
1.42119
1.42018
1.41906
1.41781
1.41645
1.4149
1.41327
1.41142
1.40952
1.40738
1.40535
1.40305
1.40139
1.39956
1.39998
1.35677
1.37546
1.38618
1.39553
1.40195
1.40689
1.41054
1.41324
1.41514
1.41641
1.41716
1.41747
1.41742
1.41707
1.4165
1.41574
1.41478
1.41369
1.41247
1.41113
1.4096
1.408
1.40617
1.4043
1.40218
1.40018
1.3979
1.39626
1.39443
1.39484
1.34761
1.36754
1.37882
1.38864
1.39537
1.40053
1.40434
1.40717
1.40919
1.41056
1.4114
1.41178
1.41181
1.41153
1.41101
1.4103
1.40938
1.40833
1.40714
1.40583
1.40433
1.40275
1.40096
1.39912
1.39704
1.39507
1.39282
1.3912
1.38938
1.38979
1.33835
1.35954
1.37139
1.3817
1.38876
1.39414
1.39812
1.40109
1.40322
1.4047
1.40562
1.40609
1.40619
1.40599
1.40552
1.40486
1.40399
1.40298
1.40182
1.40055
1.39908
1.39754
1.39578
1.39399
1.39194
1.39002
1.38781
1.38622
1.3844
1.38481
1.32901
1.35148
1.36391
1.37471
1.38212
1.38772
1.39188
1.39499
1.39725
1.39883
1.39985
1.4004
1.40057
1.40043
1.40003
1.39942
1.3986
1.39763
1.39651
1.39529
1.39386
1.39236
1.39064
1.3889
1.38691
1.38503
1.38287
1.38131
1.3795
1.37991
1.31943
1.34336
1.35639
1.3677
1.37545
1.38129
1.38564
1.38889
1.39127
1.39296
1.39406
1.3947
1.39494
1.39488
1.39454
1.39398
1.39323
1.39231
1.39122
1.39005
1.38866
1.38721
1.38554
1.38386
1.38192
1.3801
1.37799
1.37647
1.37468
1.37508
1.31
1.33521
1.34883
1.36065
1.36876
1.37485
1.37938
1.38278
1.38529
1.38708
1.38828
1.389
1.38932
1.38933
1.38906
1.38855
1.38785
1.38699
1.38595
1.38482
1.38349
1.38209
1.38048
1.37886
1.37699
1.37523
1.37317
1.37171
1.36993
1.37034
1.30056
1.32707
1.34124
1.35358
1.36206
1.3684
1.37313
1.37667
1.37931
1.38121
1.3825
1.3833
1.3837
1.38378
1.38358
1.38314
1.38249
1.38169
1.38069
1.37963
1.37835
1.37701
1.37546
1.37391
1.3721
1.37041
1.36842
1.36702
1.36527
1.36568
1.29113
1.31886
1.33364
1.34649
1.35535
1.36194
1.36687
1.37057
1.37333
1.37534
1.37673
1.37762
1.37809
1.37825
1.37811
1.37773
1.37714
1.3764
1.37546
1.37445
1.37323
1.37195
1.37047
1.36899
1.36726
1.36565
1.36374
1.3624
1.36069
1.3611
1.28177
1.31025
1.32604
1.3394
1.34864
1.35549
1.36062
1.36448
1.36737
1.36948
1.37097
1.37195
1.3725
1.37272
1.37265
1.37233
1.37181
1.37113
1.37025
1.3693
1.36814
1.36693
1.36552
1.36412
1.36247
1.36095
1.35912
1.35786
1.35619
1.35661
1.27252
1.30167
1.31843
1.33231
1.34193
1.34905
1.35438
1.3584
1.36141
1.36364
1.36522
1.36629
1.36691
1.36721
1.36721
1.36695
1.36648
1.36588
1.36505
1.36416
1.36307
1.36194
1.3606
1.35928
1.35773
1.3563
1.35457
1.3534
1.35178
1.35221
1.26341
1.29326
1.31084
1.32522
1.33523
1.34262
1.34816
1.35233
1.35548
1.35782
1.35948
1.36065
1.36135
1.36172
1.36178
1.36159
1.36118
1.36064
1.35987
1.35905
1.35803
1.35697
1.35572
1.35449
1.35303
1.35171
1.35009
1.34901
1.34746
1.34791
1.25446
1.28474
1.30328
1.31815
1.32855
1.33621
1.34196
1.34629
1.34956
1.35202
1.35377
1.35502
1.3558
1.35624
1.35636
1.35624
1.3559
1.35542
1.35471
1.35395
1.35301
1.35203
1.35086
1.34972
1.34837
1.34717
1.34567
1.3447
1.34323
1.3437
1.24571
1.27625
1.29577
1.3111
1.32188
1.32982
1.33579
1.34028
1.34368
1.34624
1.34809
1.34942
1.35027
1.35078
1.35097
1.35091
1.35063
1.35021
1.34957
1.34887
1.34801
1.34711
1.34604
1.345
1.34376
1.34268
1.34131
1.34048
1.3391
1.33961
1.23717
1.26806
1.28832
1.30408
1.31525
1.32347
1.32965
1.3343
1.33783
1.3405
1.34243
1.34385
1.34477
1.34534
1.3456
1.3456
1.34538
1.34502
1.34445
1.34382
1.34303
1.34222
1.34124
1.3403
1.33919
1.33824
1.33701
1.33633
1.33507
1.33562
1.22893
1.26016
1.28094
1.29711
1.30865
1.31716
1.32355
1.32837
1.33201
1.33479
1.33681
1.3383
1.33929
1.33992
1.34025
1.34032
1.34015
1.33985
1.33934
1.33878
1.33807
1.33734
1.33647
1.33564
1.33465
1.33385
1.33278
1.33227
1.33114
1.33175
1.22097
1.25236
1.27364
1.29019
1.30209
1.31089
1.31749
1.32247
1.32624
1.32912
1.33123
1.33279
1.33385
1.33454
1.33492
1.33505
1.33495
1.3347
1.33426
1.33376
1.33314
1.33249
1.33172
1.331
1.33015
1.3295
1.3286
1.32828
1.32733
1.32802
1.21276
1.24469
1.26644
1.28334
1.29559
1.30467
1.31148
1.31663
1.32052
1.32349
1.32568
1.32731
1.32843
1.32918
1.32962
1.32981
1.32976
1.32957
1.3292
1.32877
1.32822
1.32766
1.32699
1.32638
1.32567
1.32519
1.32447
1.32438
1.32362
1.32442
1.20513
1.23716
1.25934
1.27656
1.28915
1.29852
1.30554
1.31084
1.31485
1.31791
1.32018
1.32186
1.32305
1.32385
1.32434
1.32459
1.32459
1.32446
1.32415
1.32378
1.32331
1.32284
1.32228
1.32179
1.32122
1.32091
1.3204
1.32055
1.32004
1.32097
1.19777
1.22979
1.25238
1.26987
1.28278
1.29244
1.29966
1.30512
1.30924
1.31238
1.31472
1.31646
1.3177
1.31856
1.31909
1.31939
1.31945
1.31936
1.31912
1.31882
1.31842
1.31804
1.31758
1.31721
1.31679
1.31666
1.31637
1.31679
1.31659
1.31768
1.19064
1.22262
1.24554
1.26328
1.27651
1.28644
1.29387
1.29947
1.30369
1.30691
1.30931
1.3111
1.31239
1.31329
1.31387
1.31421
1.31432
1.31428
1.3141
1.31386
1.31354
1.31324
1.31289
1.31265
1.31237
1.31243
1.31238
1.31311
1.31326
1.31459
1.18379
1.21567
1.23885
1.25681
1.27034
1.28054
1.28816
1.2939
1.29822
1.30151
1.30396
1.30579
1.30712
1.30806
1.30868
1.30906
1.30921
1.30923
1.30909
1.30893
1.30867
1.30846
1.30821
1.30809
1.30797
1.30822
1.30842
1.30949
1.31006
1.3117
1.17729
1.20895
1.23233
1.25048
1.26429
1.27474
1.28255
1.28842
1.29283
1.29617
1.29867
1.30053
1.30189
1.30287
1.30352
1.30394
1.30413
1.30418
1.30411
1.304
1.30381
1.30369
1.30353
1.30354
1.30356
1.30401
1.30448
1.30593
1.307
1.30905
1.17118
1.2025
1.22599
1.24431
1.25839
1.26907
1.27705
1.28303
1.28752
1.29091
1.29344
1.29533
1.29671
1.29771
1.29839
1.29884
1.29906
1.29916
1.29913
1.29909
1.29896
1.29892
1.29886
1.29899
1.29916
1.29981
1.30056
1.30242
1.30407
1.30668
1.16549
1.19621
1.21973
1.23823
1.25255
1.26347
1.27161
1.2777
1.28226
1.28569
1.28824
1.29015
1.29155
1.29257
1.29327
1.29374
1.294
1.29414
1.29415
1.29417
1.2941
1.29414
1.29417
1.29442
1.29474
1.29559
1.29663
1.29893
1.30127
1.30463
1.16
1.18978
1.21329
1.23198
1.24657
1.25773
1.26607
1.27228
1.27692
1.28039
1.28298
1.28491
1.28633
1.28737
1.28809
1.2886
1.28889
1.28907
1.28914
1.28921
1.28921
1.28932
1.28944
1.28981
1.29028
1.29133
1.29267
1.29544
1.29858
1.30296
1.15492
1.18362
1.20711
1.22593
1.2407
1.25204
1.26053
1.26685
1.27156
1.27508
1.2777
1.27966
1.28111
1.28217
1.28292
1.28345
1.28377
1.284
1.28411
1.28424
1.2843
1.28448
1.28469
1.28516
1.28577
1.287
1.28864
1.29188
1.29593
1.30168
1.14017
1.16862
1.19223
1.21118
1.22604
1.23747
1.24602
1.25234
1.25701
1.2605
1.2631
1.26504
1.26646
1.2675
1.26824
1.26876
1.2691
1.26937
1.26954
1.26974
1.26992
1.27023
1.27063
1.27134
1.27231
1.27399
1.27638
1.28089
1.28766
1.29838
1.10961
1.13734
1.1602
1.17848
1.19309
1.20468
1.2136
1.22038
1.22552
1.22946
1.23248
1.23481
1.23661
1.23801
1.2391
1.23997
1.24067
1.24127
1.24179
1.24233
1.24286
1.24355
1.24435
1.2455
1.24698
1.24928
1.25252
1.25828
1.26715
1.28051
1.07903
1.10547
1.12729
1.14498
1.15942
1.17114
1.18037
1.18755
1.19314
1.19752
1.20097
1.20372
1.20594
1.20774
1.20924
1.2105
1.21159
1.21258
1.21349
1.21441
1.21534
1.21642
1.21763
1.21922
1.22117
1.22399
1.2278
1.23424
1.24381
1.2579
1.04772
1.07289
1.09375
1.11095
1.12523
1.13703
1.1465
1.15402
1.16001
1.16481
1.16868
1.17186
1.17448
1.17671
1.17861
1.18028
1.18177
1.18317
1.18448
1.18581
1.18714
1.18864
1.19026
1.19227
1.19463
1.19788
1.2021
1.20886
1.21843
1.23248
1.01565
1.0397
1.0597
1.07643
1.09052
1.10236
1.11203
1.11987
1.12623
1.13143
1.13573
1.13933
1.14239
1.14504
1.14736
1.14946
1.15136
1.15317
1.15489
1.15662
1.15835
1.16024
1.16225
1.16463
1.16736
1.17094
1.17543
1.18227
1.19155
1.20522
0.982675
1.00579
1.02505
1.04133
1.05522
1.06706
1.0769
1.08501
1.09172
1.09732
1.10204
1.10608
1.10958
1.11268
1.11543
1.11796
1.12028
1.12251
1.12463
1.12676
1.12887
1.13113
1.13349
1.13621
1.13923
1.14307
1.1477
1.15449
1.16338
1.17659
0.948721
0.971058
0.989683
1.00556
1.01926
1.03109
1.04109
1.04946
1.0565
1.06249
1.06763
1.0721
1.07605
1.07958
1.08278
1.08574
1.08849
1.09112
1.09364
1.09616
1.09864
1.10125
1.10393
1.10694
1.11021
1.11422
1.11892
1.12559
1.13407
1.14683
0.913745
0.93544
0.953527
0.969056
0.982599
0.994439
1.00457
1.01319
1.02056
1.02692
1.03246
1.03736
1.04175
1.04572
1.04936
1.05275
1.05592
1.05897
1.06188
1.06478
1.06761
1.07055
1.07352
1.07679
1.08026
1.08441
1.08913
1.09564
1.10372
1.11603
0.87773
0.898891
0.916537
0.931783
0.945197
0.957051
0.967325
0.976178
0.983858
0.990578
0.996518
1.00184
1.00665
1.01106
1.01514
1.01896
1.02255
1.026
1.02929
1.03255
1.03573
1.03898
1.04223
1.04573
1.04938
1.05363
1.05835
1.0647
1.07236
1.08421
0.840674
0.861387
0.878676
0.893694
0.907005
0.918884
0.929299
0.938381
0.94636
0.95343
0.959756
0.965485
0.970722
0.975564
0.980067
0.984309
0.988312
0.992158
0.995836
0.999451
1.00296
1.0065
1.01002
1.01374
1.01756
1.02189
1.02659
1.03276
1.04002
1.0514
0.802589
0.822919
0.839916
0.854749
0.867982
0.8799
0.890459
0.899765
0.908034
0.915444
0.922144
0.92827
0.933921
0.939184
0.944108
0.948766
0.953174
0.957411
0.961461
0.965423
0.969251
0.973088
0.976863
0.980779
0.984747
0.989149
0.993825
0.999814
1.00669
1.01758
0.763493
0.783479
0.800233
0.81492
0.8281
0.840067
0.850773
0.8603
0.868849
0.876587
0.883649
0.890161
0.896215
0.901888
0.907223
0.912286
0.91709
0.921708
0.92612
0.93042
0.934563
0.938682
0.942702
0.946814
0.950924
0.955392
0.960043
0.96586
0.972362
0.982752
0.72339
0.743065
0.759613
0.774185
0.78733
0.799356
0.81021
0.819952
0.828773
0.836829
0.844241
0.851126
0.857568
0.863637
0.86937
0.874826
0.880013
0.885
0.889763
0.894394
0.898842
0.903235
0.90749
0.911791
0.916036
0.920565
0.925188
0.93084
0.936983
0.946865
0.682304
0.70168
0.718045
0.732525
0.74565
0.75774
0.768741
0.778694
0.787778
0.796141
0.80389
0.811133
0.817946
0.824395
0.830508
0.836341
0.841896
0.847238
0.85234
0.857289
0.862033
0.866689
0.871174
0.875659
0.88004
0.884635
0.889243
0.894746
0.900552
0.909926
0.640245
0.659323
0.675517
0.689923
0.703039
0.715194
0.72634
0.736499
0.745836
0.754492
0.762564
0.770147
0.777312
0.78412
0.790595
0.796785
0.80269
0.80837
0.813796
0.819048
0.824074
0.828981
0.833683
0.838339
0.84284
0.847484
0.852067
0.857424
0.862927
0.871789
0.597232
0.616
0.632027
0.646368
0.65948
0.671699
0.682987
0.693343
0.702921
0.711856
0.720232
0.728135
0.73563
0.742775
0.749587
0.756111
0.762342
0.768339
0.774068
0.779607
0.784898
0.790043
0.794957
0.799787
0.804422
0.809138
0.813721
0.818948
0.824151
0.832521
0.553286
0.57172
0.587573
0.601849
0.614959
0.627237
0.638659
0.649204
0.659007
0.668203
0.676864
0.685064
0.692864
0.700319
0.707439
0.714267
0.720797
0.727083
0.733089
0.738888
0.744418
0.749776
0.75487
0.759836
0.764559
0.769299
0.773852
0.778962
0.783951
0.791799
0.508415
0.526483
0.542147
0.556357
0.569462
0.581793
0.593339
0.604059
0.614073
0.623509
0.632431
0.640901
0.648976
0.656707
0.664102
0.671201
0.677993
0.684533
0.690783
0.696814
0.702565
0.708127
0.71341
0.718539
0.72339
0.728194
0.732731
0.737687
0.74239
0.749821
0.462624
0.480282
0.495745
0.509885
0.522982
0.535354
0.547011
0.557891
0.568097
0.57775
0.586906
0.595617
0.603932
0.6119
0.619528
0.626854
0.633865
0.640611
0.647058
0.653271
0.659187
0.664887
0.670279
0.67548
0.680378
0.685203
0.689748
0.694642
0.699178
0.705963
0.415921
0.433118
0.44837
0.462435
0.475513
0.487911
0.499662
0.510688
0.521064
0.530909
0.540269
0.549185
0.557699
0.565857
0.573667
0.581166
0.58834
0.595241
0.601841
0.608207
0.614281
0.620138
0.625681
0.630995
0.635941
0.640702
0.645086
0.649739
0.654111
0.66069
0.368331
0.385001
0.400041
0.414016
0.427052
0.439454
0.451284
0.462441
0.472966
0.482974
0.492504
0.501584
0.510246
0.518539
0.526472
0.534077
0.54134
0.548314
0.554971
0.561377
0.567477
0.57335
0.578917
0.584281
0.589335
0.594243
0.59876
0.603326
0.607211
0.612695
0.319943
0.336001
0.350813
0.364661
0.37761
0.389987
0.401881
0.413155
0.423805
0.433939
0.443596
0.452788
0.461541
0.469903
0.477884
0.485517
0.492796
0.499785
0.506469
0.512915
0.519065
0.524971
0.530517
0.535756
0.540565
0.545127
0.549308
0.55368
0.557843
0.563428
0.271065
0.286346
0.300838
0.314451
0.327225
0.339533
0.351471
0.362842
0.373587
0.383806
0.39354
0.402791
0.41157
0.419924
0.42786
0.435409
0.442568
0.449402
0.455909
0.462177
0.468197
0.47406
0.479693
0.485126
0.490169
0.494828
0.498811
0.502533
0.505603
0.509903
0.222451
0.236612
0.250474
0.263587
0.276018
0.288178
0.300116
0.31154
0.322329
0.332579
0.342331
0.351566
0.360286
0.36854
0.376341
0.38373
0.390714
0.397367
0.403682
0.409726
0.415457
0.420939
0.42612
0.431089
0.435784
0.440318
0.444455
0.448428
0.451787
0.455596
0.175483
0.187934
0.200502
0.212567
0.224316
0.236143
0.247958
0.25934
0.270104
0.280323
0.290023
0.299165
0.307731
0.315758
0.323251
0.330252
0.33679
0.342979
0.348887
0.354652
0.360282
0.365799
0.371025
0.37584
0.380021
0.383667
0.386734
0.389673
0.392318
0.395298
0.132087
0.142051
0.152359
0.162527
0.17298
0.184028
0.195363
0.206443
0.217004
0.227058
0.236586
0.245517
0.253823
0.261539
0.268668
0.275242
0.281262
0.286809
0.291944
0.296836
0.301594
0.30638
0.311188
0.315986
0.320519
0.324618
0.327905
0.330401
0.331831
0.333172
0.0939947
0.10082
0.107931
0.115282
0.123628
0.133121
0.143264
0.153491
0.163496
0.173157
0.182325
0.19085
0.198659
0.205771
0.212215
0.218077
0.223436
0.228424
0.233091
0.237496
0.241604
0.245465
0.249091
0.252605
0.256011
0.259356
0.262351
0.264728
0.265717
0.265429
0.0617598
0.0653221
0.0689497
0.0729872
0.0785069
0.0854176
0.0932104
0.101533
0.11013
0.118757
0.127142
0.135031
0.142222
0.148604
0.154121
0.158834
0.16287
0.166469
0.169857
0.173275
0.17683
0.180532
0.184174
0.187497
0.190232
0.192428
0.194163
0.195444
0.195411
0.193735
0.0346014
0.0353634
0.0359968
0.0370992
0.0400291
0.0439447
0.0485671
0.0539159
0.0598507
0.0661317
0.0725078
0.0787649
0.084693
0.0900971
0.094766
0.0985671
0.101438
0.10349
0.104975
0.106328
0.107969
0.11017
0.112852
0.11567
0.118124
0.11995
0.121104
0.12167
0.120613
0.117099
0.0107937
0.00968489
0.00588654
0.00488558
0.0068344
0.00834742
0.0098184
0.0117217
0.0140739
0.0167613
0.0196703
0.0227082
0.0257633
0.0287287
0.0314505
0.0338037
0.0356547
0.0369686
0.0377771
0.0382755
0.0386849
0.0392451
0.040053
0.0410878
0.042157
0.0430783
0.0436925
0.0440924
0.0436112
0.040365
1.11849
1.0874
1.05711
1.02602
0.994323
0.961667
0.927982
0.893259
0.857508
0.820717
0.7829
0.744105
0.704317
0.663559
0.621873
0.579269
0.535791
0.491459
0.446306
0.40038
0.353789
0.306726
0.259569
0.213109
0.168519
0.127414
0.0912024
0.0604335
0.0342754
0.0112518
1.11082
1.07974
1.04966
1.01873
0.987228
0.954747
0.921219
0.886635
0.851024
0.814373
0.776694
0.738039
0.698394
0.657779
0.616248
0.573804
0.530501
0.486356
0.441411
0.395712
0.34938
0.302621
0.255825
0.209821
0.165792
0.125338
0.0898226
0.0597207
0.0340472
0.0113238
1.10307
1.07232
1.04242
1.01166
0.98033
0.948017
0.914649
0.880209
0.844737
0.80823
0.770697
0.732183
0.692685
0.652218
0.610847
0.568567
0.525439
0.481483
0.436745
0.391273
0.345197
0.298737
0.252293
0.206717
0.163189
0.12329
0.0883712
0.0588964
0.0337444
0.0113348
1.09528
1.06503
1.03533
1.00472
0.97356
0.941408
0.90819
0.873888
0.838553
0.802182
0.764789
0.72641
0.687055
0.646733
0.605518
0.5634
0.520444
0.476672
0.432139
0.38689
0.341064
0.294898
0.248801
0.203654
0.16064
0.121324
0.0870217
0.0581438
0.0334678
0.0113246
1.08756
1.05789
1.02841
0.99796
0.966947
0.934944
0.901865
0.867693
0.832491
0.796248
0.758986
0.720736
0.68152
0.64134
0.600274
0.558313
0.515525
0.471934
0.427599
0.38257
0.33699
0.291114
0.245367
0.200651
0.158159
0.119437
0.0857617
0.0574656
0.0332283
0.0113034
1.07994
1.05087
1.02166
0.991368
0.960486
0.928621
0.895676
0.861626
0.826547
0.790426
0.753288
0.715161
0.67608
0.636036
0.595114
0.553308
0.510682
0.467266
0.423122
0.378311
0.332973
0.287384
0.241984
0.197705
0.155743
0.117625
0.0845799
0.0568483
0.0330208
0.0112747
1.07244
1.04399
1.01506
0.984939
0.954179
0.922439
0.889623
0.855691
0.820723
0.784716
0.747697
0.709689
0.670734
0.630824
0.59004
0.548385
0.505917
0.462671
0.418712
0.374116
0.329016
0.28371
0.23866
0.194819
0.153396
0.11589
0.0834736
0.0562883
0.0328414
0.011234
1.06509
1.03723
1.00861
0.978667
0.948029
0.916402
0.883706
0.849886
0.815022
0.779123
0.742216
0.704322
0.665486
0.625705
0.585055
0.543546
0.50123
0.45815
0.414371
0.369986
0.325122
0.280098
0.2354
0.192002
0.151125
0.114234
0.0824423
0.055784
0.0326886
0.0111866
1.0579
1.03061
1.0023
0.972548
0.942034
0.910514
0.877926
0.844211
0.809446
0.77365
0.736847
0.699059
0.660336
0.620681
0.580159
0.53879
0.49662
0.453703
0.410102
0.365923
0.321293
0.276552
0.232211
0.189261
0.148936
0.112662
0.0814849
0.0553327
0.0325603
0.0111341
1.05087
1.02412
0.996131
0.966581
0.936192
0.904775
0.872284
0.838671
0.803999
0.768299
0.731592
0.693905
0.655289
0.615753
0.575354
0.534118
0.49209
0.449332
0.405905
0.361926
0.317529
0.273073
0.229095
0.186598
0.146829
0.11117
0.0805989
0.0549303
0.0324534
0.0110777
1.04402
1.01779
0.99011
0.960766
0.930501
0.899183
0.866786
0.833266
0.798683
0.763071
0.726454
0.688862
0.650348
0.610925
0.57064
0.529532
0.487641
0.445037
0.40178
0.357995
0.313828
0.269658
0.22605
0.184012
0.144803
0.109757
0.0797802
0.0545722
0.0323647
0.0110184
1.03736
1.01161
0.984237
0.955103
0.924962
0.89374
0.86143
0.827999
0.793497
0.757967
0.721434
0.683934
0.645515
0.606196
0.56602
0.525033
0.483276
0.440819
0.397726
0.354128
0.310189
0.266305
0.223071
0.181498
0.142853
0.108419
0.0790242
0.0542539
0.0322913
0.0109577
1.03089
1.00559
0.978514
0.94959
0.919575
0.888445
0.856219
0.822868
0.788442
0.752986
0.716535
0.67912
0.640791
0.601569
0.561496
0.520626
0.478998
0.436681
0.393744
0.350329
0.306616
0.263017
0.220158
0.179057
0.140979
0.107154
0.0783275
0.0539721
0.0322334
0.010897
1.02462
0.999744
0.972946
0.944228
0.914341
0.883299
0.85115
0.817872
0.783517
0.74813
0.711756
0.674423
0.636176
0.597046
0.557073
0.516313
0.474808
0.432625
0.38984
0.346602
0.303112
0.259797
0.217315
0.176691
0.139182
0.105961
0.0776879
0.0537246
0.0321864
0.0108376
1.01856
0.994075
0.967539
0.939022
0.909262
0.878303
0.846225
0.813012
0.778725
0.743401
0.7071
0.669841
0.631673
0.59263
0.552753
0.512097
0.470709
0.428654
0.386016
0.342952
0.299683
0.256652
0.214549
0.174406
0.137466
0.104841
0.0771037
0.0535091
0.0321464
0.0107806
1.01272
0.988592
0.962301
0.933974
0.904338
0.873458
0.841446
0.808291
0.774066
0.738801
0.702566
0.665377
0.627284
0.588323
0.548538
0.507981
0.466703
0.424772
0.382276
0.339383
0.296332
0.253586
0.211864
0.172204
0.135831
0.103792
0.0765725
0.0533232
0.0321139
0.0107268
1.0071
0.983303
0.957239
0.92909
0.899573
0.868767
0.836817
0.803712
0.769545
0.734332
0.698158
0.661034
0.623011
0.584128
0.54443
0.503963
0.462789
0.420977
0.37862
0.335895
0.293061
0.250599
0.209261
0.170083
0.134275
0.102812
0.0760913
0.0531643
0.0320873
0.0106769
1.00171
0.978215
0.952358
0.924374
0.894971
0.864232
0.832339
0.79928
0.765164
0.729998
0.693877
0.656813
0.618856
0.580046
0.540428
0.500045
0.458967
0.417271
0.375046
0.332485
0.289866
0.247688
0.206736
0.168043
0.132794
0.101898
0.0756563
0.0530293
0.032065
0.0106313
0.996559
0.973334
0.947663
0.919829
0.890533
0.859857
0.828017
0.794997
0.760926
0.725801
0.689728
0.652718
0.614821
0.576076
0.53653
0.496226
0.455237
0.413649
0.371551
0.329149
0.286743
0.244851
0.204286
0.166078
0.131385
0.101045
0.0752642
0.0529156
0.032046
0.0105907
0.991655
0.968664
0.94316
0.915459
0.886263
0.855643
0.823851
0.790866
0.756832
0.721745
0.685712
0.648751
0.610907
0.572218
0.532738
0.492506
0.4516
0.410112
0.368135
0.325887
0.283692
0.242086
0.20191
0.164189
0.130044
0.100252
0.0749124
0.0528212
0.0320298
0.0105554
0.987005
0.964212
0.938853
0.911269
0.882164
0.851595
0.819844
0.786889
0.752887
0.717832
0.681834
0.644914
0.607115
0.568476
0.529052
0.488889
0.448058
0.406663
0.364799
0.322699
0.280715
0.239394
0.199607
0.162375
0.128771
0.0995174
0.0745991
0.0527446
0.0320161
0.0105257
0.982614
0.959981
0.934749
0.907263
0.878239
0.847713
0.815998
0.783067
0.749092
0.714066
0.678096
0.64121
0.603448
0.564852
0.525479
0.485377
0.444616
0.403304
0.361549
0.319592
0.277815
0.236778
0.19738
0.160631
0.127573
0.0988398
0.0743229
0.0526846
0.0320048
0.0105015
0.978488
0.955979
0.930852
0.903447
0.874491
0.844001
0.812315
0.779405
0.74545
0.710448
0.6745
0.63764
0.599908
0.561349
0.52202
0.481975
0.441276
0.400042
0.35839
0.316572
0.274998
0.234243
0.195231
0.158965
0.126444
0.0982183
0.0740824
0.0526443
0.0319954
0.0104826
0.974634
0.952211
0.927168
0.899824
0.870924
0.840461
0.808798
0.775903
0.741963
0.706979
0.671046
0.634206
0.596498
0.55797
0.518681
0.478684
0.438043
0.396879
0.355326
0.313642
0.272267
0.231791
0.193163
0.157376
0.125383
0.0976509
0.0738749
0.0526121
0.0319869
0.0104686
0.971054
0.94868
0.9237
0.896397
0.867541
0.837096
0.805449
0.772564
0.738632
0.70366
0.667736
0.630908
0.593219
0.554717
0.515461
0.475505
0.434917
0.393817
0.352358
0.310804
0.269621
0.229423
0.191176
0.155862
0.124389
0.0971345
0.0736976
0.05259
0.0319784
0.0104594
0.967753
0.94539
0.920454
0.893171
0.864347
0.83391
0.802272
0.76939
0.735459
0.70049
0.66457
0.627749
0.590073
0.551591
0.51236
0.472438
0.431896
0.390856
0.349485
0.308054
0.267058
0.227135
0.189268
0.15442
0.123459
0.0966655
0.0735469
0.0525759
0.0319692
0.0104569
0.964732
0.942344
0.917432
0.890151
0.861346
0.830907
0.799268
0.766382
0.732444
0.697472
0.66155
0.624728
0.587061
0.54859
0.509379
0.469482
0.42898
0.387993
0.346703
0.305391
0.264575
0.224926
0.18743
0.153055
0.12259
0.0962401
0.0734199
0.0525679
0.031959
0.0104548
0.961995
0.939545
0.914639
0.887339
0.858542