/*--------------------------------*- C++ -*----------------------------------*\
  =========                 |
  \\      /  F ield         | OpenFOAM: The Open Source CFD Toolbox
   \\    /   O peration     | Website:  https://openfoam.org
    \\  /    A nd           | Version:  7
     \\/     M anipulation  |
\*---------------------------------------------------------------------------*/
FoamFile
{
    version     2.0;
    format      ascii;
    class       surfaceScalarField;
    location    "3.4";
    object      phi;
}
// * * * * * * * * * * * * * * * * * * * * * * * * * * * * * * * * * * * * * //

dimensions      [0 3 -1 0 0 0 0];

internalField   nonuniform List<scalar> 
35640
(
-4.95818e-05
0.00107453
-0.00102495
-0.000160567
0.00279192
-0.00268093
-0.000314504
0.00423403
-0.0040801
-0.000495622
0.00539987
-0.00521875
-0.000690475
0.00632403
-0.00612917
-0.000887504
0.00704773
-0.0068507
-0.00107701
0.00760692
-0.00741741
-0.00125105
0.00802901
-0.00785496
-0.00140314
0.00833324
-0.00818115
-0.0015281
0.00853292
-0.00840797
-0.00162179
0.00863728
-0.00854358
-0.00168091
0.0086536
-0.00859448
-0.00170278
0.00858852
-0.00856666
-0.00168528
0.0084489
-0.0084664
-0.00162682
0.00824213
-0.0083006
-0.00152623
0.00797635
-0.00807694
-0.00138283
0.00766021
-0.00780361
-0.00119639
0.00730282
-0.00748926
-0.000967229
0.00691356
-0.00714272
-0.000696156
0.00650175
-0.00677283
-0.000384502
0.00607652
-0.00638818
-3.41293e-05
0.00564659
-0.00599696
0.000352606
0.00522006
-0.0056068
0.000772869
0.0048044
-0.00522466
0.00122337
0.0044064
-0.0048569
0.00170037
0.00403219
-0.00450919
0.00219955
0.00368767
-0.00418684
0.00271571
0.00337866
-0.00389483
0.00324248
0.00311462
-0.00364139
0.00291013
0.00377087
-0.00343853
-4.45764e-05
0.00111911
-0.00014512
0.00289246
-0.000285809
0.00437472
-0.000452617
0.00556668
-0.00063317
0.00650458
-0.000816538
0.0072311
-0.000993212
0.00778359
-0.00115525
0.00819104
-0.00129615
0.00847414
-0.00141063
0.0086474
-0.00149444
0.00872109
-0.00154411
0.00870327
-0.00155683
0.00860124
-0.00153035
0.00842243
-0.00146291
0.00817469
-0.00135321
0.00786664
-0.00120045
0.00750745
-0.00100435
0.00710672
-0.000765143
0.00667435
-0.000483615
0.00622022
-0.000161112
0.00575402
0.00020045
0.00528503
0.000598637
0.00482187
0.00103055
0.00437249
0.00149285
0.0039441
0.00198172
0.00354332
0.00249293
0.00317646
0.00302151
0.00285008
0.00356122
0.00257491
0.00236825
0.0041031
-3.89114e-05
0.00115802
-0.000127484
0.00298104
-0.000252809
0.00450005
-0.000402732
0.0057166
-0.000566094
0.00666794
-0.000732602
0.00739761
-0.000893066
0.00794406
-0.00103963
0.00833761
-0.0011658
0.00860031
-0.00126617
0.00874778
-0.0013364
0.00879132
-0.00137291
0.00873978
-0.00137279
0.00860112
-0.00133368
0.00838332
-0.00125375
0.00809475
-0.00113161
0.0077445
-0.000966407
0.00734225
-0.000757821
0.00689814
-0.000506085
0.00642261
-0.000212023
0.00592616
0.000122955
0.00541904
0.000496875
0.0049111
0.000907228
0.00441152
0.00135101
0.0039287
0.00182482
0.00347029
0.0023249
0.00304324
0.00284707
0.00265428
0.00338658
0.00231058
0.00393754
0.00202395
0.00181451
0.00449129
-3.26589e-05
0.00119068
-0.000108079
0.00305646
-0.000216115
0.00460808
-0.000346739
0.00584722
-0.000490063
0.00681127
-0.000636574
0.00754412
-0.00077749
0.00808497
-0.000905054
0.00846518
-0.00101279
0.00870804
-0.00109529
0.00883028
-0.00114811
0.00884413
-0.0011676
0.00875927
-0.0011508
0.00858432
-0.0010953
0.00832782
-0.000999237
0.00799869
-0.000861206
0.00760647
-0.000680362
0.0071614
-0.000456415
0.00667419
-0.000189651
0.00615585
0.000119044
0.00561746
0.000468174
0.00506991
0.000855666
0.00452361
0.0012789
0.00398828
0.0017348
0.00347281
0.00221988
0.0029852
0.00273039
0.00253273
0.00326227
0.0021224
0.00381106
0.00176179
0.00437138
0.00146362
0.00125086
0.00493503
-2.59675e-05
0.00121664
-8.71279e-05
0.00311762
-0.000176166
0.00469712
-0.000285247
0.00595631
-0.000405885
0.00693191
-0.000529379
0.00766761
-0.000647414
0.00820301
-0.000752475
0.00857024
-0.000838133
0.0087937
-0.000898972
0.00889112
-0.000930509
0.00887567
-0.000929089
0.00875786
-0.000891738
0.00854697
-0.000816048
0.00825213
-0.000700161
0.0078828
-0.000542759
0.00744907
-0.000343059
0.0069617
-0.000100842
0.00643197
0.000183503
0.0058715
0.00050897
0.005292
0.000873945
0.00470494
0.00127624
0.00412132
0.00171312
0.0035514
0.00218138
0.00300454
0.0026775
0.00248908
0.00319771
0.00201253
0.00373808
0.00158203
0.00429443
0.00120544
0.00486196
0.000896093
0.000679626
0.00543319
-1.89226e-05
0.00123556
-6.49312e-05
0.00316362
-0.000133568
0.00476576
-0.000219163
0.0060419
-0.000314668
0.00702741
-0.000412302
0.00776525
-0.000504311
0.00829502
-0.000583466
0.0086494
-0.000643439
0.00885367
-0.000678868
0.00892655
-0.000685303
0.0088821
-0.000659102
0.00873165
-0.000597324
0.00848519
-0.00049764
0.00815245
-0.00035829
0.00774345
-0.000178061
0.00726884
4.37099e-05
0.00673993
0.000307088
0.0061686
0.00061153
0.00556706
0.000955884
0.00494764
0.00133839
0.00432243
0.00175672
0.00370299
0.00220799
0.00310013
0.00268893
0.00252361
0.0031959
0.00198211
0.00372513
0.0014833
0.0042728
0.00103437
0.00483502
0.000643222
0.00540761
0.000323501
0.000103206
0.00598403
-1.1698e-05
0.00124726
-4.19328e-05
0.00319386
-8.90426e-05
0.00481287
-0.00014946
0.00610232
-0.000217659
0.00709561
-0.000286843
0.00783443
-0.000349857
0.00835803
-0.000399856
0.0086994
-0.000430701
0.00888451
-0.000437118
0.00893297
-0.000414734
0.00885972
-0.000359992
0.00867691
-0.000270054
0.00839525
-0.000142714
0.00802511
2.36386e-05
0.0075771
0.000230044
0.00706244
0.000476969
0.00649301
0.000764286
0.00588128
0.00109126
0.00524009
0.00145654
0.00458236
0.0018582
0.00392077
0.00229374
0.00326745
0.00276017
0.0026337
0.00325406
0.00202972
0.00377173
0.00146443
0.00430938
0.000945645
0.00486326
0.000480495
0.00542976
7.67218e-05
0.00600531
-0.000252054
-0.000475941
0.00658446
-4.46894e-06
0.00125173
-1.85717e-05
0.00320796
-4.33546e-05
0.00483765
-7.72858e-05
0.00613625
-0.000116333
0.00713466
-0.000154752
0.00787285
-0.000186094
0.00838937
-0.000203951
0.00871725
-0.000202434
0.008883
-0.000176447
0.00890698
-0.000121756
0.00880503
-3.49394e-05
0.00859009
8.66877e-05
0.00827363
0.00024514
0.00786666
0.000441816
0.00738042
0.000677531
0.00682672
0.000952502
0.00621803
0.00126635
0.00556743
0.00161811
0.00488833
0.00200622
0.00419424
0.00242855
0.00349844
0.0028824
0.00281359
0.00336465
0.00215145
0.00387178
0.00152259
0.00440001
0.000936204
0.00494552
0.000400134
0.00550463
-7.86127e-05
0.006074
-0.000492651
0.00665068
-0.000828737
-0.00105551
0.00723025
2.65536e-06
0.00124908
4.68782e-06
0.00320593
2.6453e-06
0.00483969
-3.87763e-06
0.00614277
-1.23265e-05
0.00714311
-1.80581e-05
0.00787858
-1.53933e-05
0.00838671
1.55902e-06
0.0087003
3.83454e-05
0.00884621
9.98158e-05
0.00884551
0.00019
0.00871484
0.00031212
0.00846797
0.000468645
0.0081171
0.00066135
0.00767395
0.000891368
0.0071504
0.00115923
0.00655886
0.00146485
0.00591241
0.00180757
0.0052247
0.00218615
0.00450974
0.00259878
0.00378162
0.00304308
0.00305413
0.00351621
0.00234046
0.00401486
0.0016528
0.00453541
0.00100204
0.00507403
0.000397589
0.00562686
-0.000152699
0.00619031
-0.00064207
0.00676132
-0.00106365
0.00733763
-0.00140505
-0.00163482
0.00791694
9.47531e-06
0.0012396
2.73776e-05
0.00318803
4.80876e-05
0.00481898
6.94442e-05
0.00612142
9.25812e-05
0.00711997
0.000121018
0.00785015
0.000159595
0.00834813
0.000213607
0.00864629
0.000288168
0.00877165
0.000387802
0.00874588
0.000516263
0.00858638
0.000676515
0.00830772
0.000870749
0.00792287
0.00110044
0.00744426
0.00136642
0.00688443
0.00166887
0.00625641
0.00200738
0.0055739
0.00238097
0.00485111
0.0027881
0.00410262
0.00322666
0.00334305
0.00369406
0.00258674
0.00418722
0.0018473
0.0047027
0.00113732
0.00523676
0.000467986
0.00578551
-0.000151157
0.00634508
-0.000712276
0.00691195
-0.00120894
0.0074832
-0.00163491
0.00805708
-0.00197893
-0.00221008
0.00863235
1.58726e-05
0.00122373
4.90458e-05
0.00315486
9.20989e-05
0.00477593
0.000141328
0.00607219
0.000196537
0.00706476
0.000260113
0.00778657
0.000336006
0.00827224
0.000428831
0.00855347
0.000543184
0.0086573
0.000683177
0.00860588
0.000852218
0.00841734
0.00105294
0.008107
0.0012872
0.0076886
0.00155614
0.00717532
0.00186022
0.00658035
0.00219926
0.00591738
0.00257248
0.00520068
0.00297855
0.00444504
0.00341559
0.00366557
0.00388121
0.00287743
0.00437254
0.00209541
0.00488629
0.00133355
0.00541884
0.00060476
0.00596636
-7.95356e-05
0.00652491
-0.000709699
0.00709061
-0.00127798
0.00766
-0.00177832
0.00823029
-0.0022052
0.00880012
-0.00254875
-0.00277931
0.00936934
2.17129e-05
0.00120202
6.92588e-05
0.00310731
0.000133832
0.00471136
0.000210436
0.00599559
0.000297663
0.00697754
0.000396792
0.00768744
0.00051084
0.00815819
0.000643671
0.00842064
0.000799269
0.0085017
0.000981256
0.0084239
0.00119262
0.00820598
0.00143559
0.00786402
0.00171166
0.00741254
0.00202156
0.00686541
0.00236536
0.00623655
0.00274249
0.00554025
0.00315177
0.00479139
0.00359151
0.0040053
0.00405947
0.00319761
0.00455293
0.00238397
0.00506874
0.0015796
0.00560339
0.000798897
0.0061531
5.50583e-05
0.00671389
-0.000640329
0.00728179
-0.0012776
0.00785296
-0.00184916
0.008424
-0.00234936
0.00899228
-0.00277348
0.00955675
-0.00311322
-0.00334097
0.0101184
2.68802e-05
0.00117514
8.76259e-05
0.00304657
0.000172497
0.00462649
0.000275489
0.00589259
0.000394129
0.0068589
0.000528634
0.00755294
0.000681069
0.00800576
0.000854478
0.00824723
0.00105216
0.00830402
0.00127716
0.0081989
0.00153197
0.00795117
0.00181838
0.00757762
0.00213742
0.00709349
0.00248943
0.00651341
0.00287404
0.00585194
0.00329024
0.00512405
0.00373649
0.00434515
0.00421067
0.00353112
0.00471017
0.00269811
0.00523193
0.0018622
0.00577252
0.00103901
0.00632816
0.000243258
0.00689487
-0.000511652
0.00746858
-0.00121404
0.00804528
-0.00185429
0.00862118
-0.00242506
0.00919298
-0.00292116
0.00975822
-0.00333873
0.0103162
-0.00367115
-0.00389359
0.0108688
3.12771e-05
0.00114386
0.00010381
0.00297404
0.000207393
0.0045229
0.00033532
0.00576467
0.000484222
0.00670999
0.00065333
0.00738383
0.000843752
0.00781534
0.00105766
0.00803332
0.00129761
0.00806408
0.00156599
0.00793051
0.00186475
0.00765241
0.00219515
0.00724722
0.00255776
0.00673088
0.00295245
0.00611872
0.00337841
0.00542598
0.00383421
0.00466824
0.00431787
0.00386149
0.00482687
0.00302212
0.00535821
0.00216678
0.00590845
0.00131196
0.00647383
0.000473632
0.0070503
-0.000333216
0.00763368
-0.00109503
0.00821978
-0.00180014
0.00880456
-0.00243907
0.00938432
-0.00300483
0.00995591
-0.00349276
0.0105171
-0.00389992
0.0110674
-0.00422144
-0.00443582
0.0116096
3.48285e-05
0.00110903
0.000117541
0.00289132
0.00023794
0.0044025
0.000388926
0.00561368
0.000566429
0.00653249
0.000768789
0.00718147
0.000996175
0.00758795
0.00124987
0.00777963
0.00153161
0.00778233
0.00184311
0.00761901
0.00218567
0.00730985
0.00256002
0.00687287
0.00296622
0.00632468
0.00340364
0.00568129
0.00387104
0.00495859
0.00436652
0.00417275
0.00488768
0.00334033
0.00543155
0.00247826
0.0059947
0.00160362
0.00657332
0.000733341
0.00716326
-0.000116309
0.00776017
-0.00093013
0.00835964
-0.00169451
0.00895737
-0.00239786
0.00954932
-0.00303102
0.0101319
-0.00358742
0.0107022
-0.00406307
0.0112583
-0.00445596
0.0117998
-0.00476301
-0.00496646
0.0123305
3.74862e-05
0.00107155
0.000128632
0.00280018
0.000263702
0.00426743
0.00043552
0.00544186
0.000639512
0.0063285
0.000873244
0.00694774
0.00113599
0.00732521
0.00142814
0.00748748
0.0017506
0.00745987
0.00210434
0.00726528
0.00248999
0.00692419
0.00290771
0.00645515
0.00335701
0.00587538
0.00383678
0.00520152
0.00434529
0.00445008
0.00488021
0.00363784
0.00543864
0.00278191
0.00601715
0.00189974
0.00661186
0.00100891
0.00721848
0.000126713
0.00783248
-0.000730305
0.00844916
-0.00154681
0.00906387
-0.00230922
0.0096722
-0.00300619
0.0102702
-0.00362898
0.0108543
-0.0041716
0.0114221
-0.00463083
0.0119718
-0.00500567
0.0125036
-0.0052948
-0.00548444
0.0130216
3.92321e-05
0.00103231
0.000136989
0.00270242
0.000284421
0.00412
0.000474577
0.00525171
0.000702585
0.00610049
0.000965367
0.00668496
0.00126138
0.0070292
0.00159012
0.00715874
0.00195168
0.00709831
0.00234625
0.00687071
0.0027738
0.00649665
0.00323386
0.0059951
0.00372539
0.00538384
0.0042468
0.00468011
0.00479583
0.00390104
0.00536968
0.00306399
0.00596492
0.00218666
0.00657762
0.00128704
0.00720335
0.000383182
0.00783734
-0.000507275
0.00847458
-0.00136754
0.00911001
-0.00218224
0.00973875
-0.00293796
0.0103563
-0.00362375
0.0109588
-0.00423145
0.011543
-0.00475584
0.0121067
-0.00519457
0.0126488
-0.00554774
0.0131697
-0.00581572
-0.00598884
0.0136741
4.00798e-05
0.000992235
0.000142618
0.00259988
0.000300029
0.00396259
0.000505873
0.00504586
0.000755176
0.00585119
0.00104436
0.00639578
0.00137114
0.00670242
0.00173422
0.00679567
0.00213285
0.00669968
0.00256646
0.00643709
0.00303434
0.00602877
0.00353541
0.00549403
0.00406807
0.00485119
0.00463016
0.00411801
0.00521894
0.00331226
0.00583103
0.0024519
0.00646245
0.00155524
0.00710865
0.00064085
0.0077646
-0.000272772
0.00842496
-0.00116763
0.00908421
-0.0020268
0.00973694
-0.00283497
0.010378
-0.00357906
0.011003
-0.00424872
0.0116081
-0.00483656
0.0121906
-0.00533828
0.0127486
-0.00575258
0.0132815
-0.00608068
0.0137904
-0.00632461
-0.00647874
0.0142803
4.00756e-05
0.000952159
0.000145628
0.00249433
0.000310668
0.00379755
0.000529514
0.00482702
0.00079728
0.00558342
0.00111004
0.00608302
0.00146489
0.00634757
0.00185977
0.00640079
0.00229318
0.00626627
0.00276381
0.00596646
0.00327027
0.0055223
0.00381085
0.00495345
0.00438339
0.00427865
0.00498515
0.00351625
0.00561279
0.00268462
0.00626231
0.00180238
0.00692905
0.000888501
0.00760778
-3.78725e-05
0.00829277
-0.000957766
0.00897805
-0.00185291
0.00965759
-0.00270634
0.0103256
-0.00350298
0.0109769
-0.00423032
0.0116069
-0.00487878
0.0122124
-0.00544198
0.0127908
-0.00591676
0.0133412
-0.00630294
0.0138635
-0.00660295
0.0143592
-0.00682035
-0.00695315
0.0148336
3.92982e-05
0.000912861
0.000146235
0.00238739
0.000316687
0.0036271
0.000545944
0.00459776
0.000829382
0.00529999
0.00116288
0.00574952
0.00154302
0.00596743
0.00196712
0.00597669
0.00243295
0.00580043
0.00293852
0.00546088
0.00348178
0.00497905
0.00406039
0.00437484
0.00467157
0.00366747
0.00531194
0.00287588
0.00597748
0.00201908
0.00666345
0.00111642
0.0073644
0.00018755
0.00807429
-0.000747757
0.00878663
-0.00167011
0.00949478
-0.00256106
0.0101922
-0.00340376
0.0108728
-0.00418362
0.0115314
-0.00488889
0.0121637
-0.00551107
0.0127667
-0.00604499
0.0133387
-0.00648877
0.0138793
-0.00684355
0.0143894
-0.00711299
0.0148711
-0.0073021
-0.00741234
0.0153303
3.7857e-05
0.000875004
0.000144754
0.0022805
0.00031864
0.00345321
0.000555945
0.00436045
0.000852464
0.00500347
0.00120402
0.00539797
0.00160684
0.00556461
0.00205768
0.00552585
0.0025537
0.00530441
0.00309227
0.00492232
0.00367068
0.00440064
0.00428594
0.00375958
0.00493459
0.00301882
0.00561251
0.00219795
0.00631488
0.00131671
0.00703606
0.000395233
0.00776969
-0.000546079
0.00850882
-0.00148688
0.00924614
-0.00240744
0.00997436
-0.00328928
0.0106865
-0.00411591
0.0113764
-0.00487348
0.0120388
-0.00555132
0.0126699
-0.00614221
0.0132674
-0.00664244
0.0138302
-0.00705159
0.0143588
-0.00737216
0.0148549
-0.0076091
0.0153217
-0.00776888
-0.00785647
0.0157658
3.58895e-05
0.000839115
0.00014159
0.0021748
0.000317264
0.00327754
0.000560609
0.00411711
0.000867968
0.00469611
0.00123524
0.00503069
0.00165843
0.00514142
0.00213386
0.00505042
0.00265815
0.00478012
0.00322805
0.00435242
0.00384021
0.00378847
0.00449094
0.00310885
0.00517597
0.00233379
0.00589033
0.00148358
0.00662822
0.000578829
0.00738295
-0.000359501
0.00814713
-0.00131025
0.00891281
-0.00225257
0.00967191
-0.00316653
0.0104165
-0.00403389
0.0111394
-0.0048388
0.0118344
-0.00556846
0.0124966
-0.00621355
0.0131228
-0.00676843
0.0137114
-0.00723099
0.0142622
-0.00760238
0.0147765
-0.0078865
0.0152569
-0.00808954
0.0157073
-0.00821922
-0.00828358
0.0161344
3.35559e-05
0.000805559
0.000137224
0.00207113
0.000313455
0.0031013
0.000561294
0.00386927
0.000877737
0.00437967
0.00125889
0.00464954
0.00170064
0.00469968
0.00219897
0.00455208
0.00275004
0.00422905
0.00335
0.00375245
0.00399482
0.00314366
0.00467999
0.00242368
0.00540033
0.00161345
0.00614981
0.000734102
0.00692148
-0.000192836
0.00770747
-0.0011455
0.00849926
-0.00210204
0.00928792
-0.00304124
0.0100646
-0.00394324
0.0108211
-0.00479033
0.0115499
-0.00556766
0.0122453
-0.00626382
0.0129029
-0.00687115
0.0135202
-0.00738576
0.0140965
-0.0078073
0.0146326
-0.00813849
0.0151308
-0.00838462
0.0155942
-0.00855297
0.0160273
-0.00865234
-0.00869334
0.0164371
3.10323e-05
0.000774527
0.00013219
0.00196997
0.000308222
0.00292527
0.000559555
0.00361794
0.000883916
0.00405531
0.00127771
0.00425575
0.00173681
0.00424058
0.00225694
0.00403195
0.00283383
0.00365217
0.003463
0.00312328
0.00413965
0.00246701
0.00485832
0.00170501
0.00561274
0.000859034
0.00639562
-4.87823e-05
0.0071987
-0.000995913
0.00801283
-0.00195963
0.00882832
-0.00291753
0.00963536
-0.00384828
0.0104246
-0.00473243
0.0111874
-0.0055532
0.0119169
-0.0062971
0.0126075
-0.00695447
0.0132559
-0.00751953
0.0138605
-0.00799034
0.0144215
-0.00836829
0.0149407
-0.00865769
0.0154211
-0.00886507
0.0158668
-0.00899869
0.0162827
-0.00906823
-0.00908666
0.016676
2.85036e-05
0.000746023
0.000127053
0.00187142
0.000302639
0.00274969
0.000557064
0.00336351
0.000888831
0.00372354
0.00129471
0.00384987
0.00177061
0.00376468
0.00231206
0.0034905
0.0029143
0.00304993
0.0035722
0.00246539
0.00428001
0.0017592
0.00503116
0.000953851
0.00581806
7.21385e-05
0.006632
-0.000862723
0.00746327
-0.00182718
0.0083014
-0.00279776
0.00913564
-0.00375177
0.00995547
-0.00466811
0.0107512
-0.00552815
0.0115144
-0.00631646
0.0122387
-0.00702136
0.0129194
-0.00763519
0.0135542
-0.00815428
0.0141425
-0.00857864
0.0146856
-0.00891144
0.0151863
-0.00915838
0.0156483
-0.00932708
0.0160762
-0.00942657
0.0164753
-0.00946729
-0.00946443
0.016853
2.61547e-05
0.000719868
0.000122377
0.0017752
0.000297787
0.00257428
0.000555515
0.00310578
0.000894846
0.00338421
0.00131294
0.00343178
0.00180576
0.00327185
0.0023686
0.00292766
0.00299618
0.00242236
0.00368252
0.00177904
0.00442079
0.00102093
0.00520307
0.000171568
0.00602026
-0.000745046
0.00686207
-0.00170454
0.00771732
-0.00268243
0.00857429
-0.00365473
0.00942132
-0.0045988
0.0102475
-0.00549427
0.0110431
-0.00632379
0.0118004
-0.00707376
0.0125137
-0.00773463
0.0131795
-0.00830101
0.0137967
-0.00877142
0.0143658
-0.00914783
0.0148894
-0.00943498
0.0153708
-0.00963978
0.0158144
-0.00977066
0.0162249
-0.00983715
0.0166079
-0.00985024
-0.0098272
0.0169707
2.41612e-05
0.000695707
0.000118702
0.00168066
0.000294699
0.00239828
0.000556528
0.00284396
0.000904213
0.00303652
0.00133527
0.00300072
0.00184571
0.00276142
0.00243047
0.00234289
0.00308361
0.00176922
0.00379814
0.00106451
0.0045659
0.000253169
0.00537741
-0.000639944
0.0062219
-0.00158953
0.00708745
-0.00257009
0.00796143
-0.00355641
0.00883106
-0.00452436
0.00968412
-0.00545186
0.0105096
-0.00631974
0.0112983
-0.0071125
0.0120433
-0.00781875
0.0127401
-0.00843141
0.0133866
-0.0089475
0.0139829
-0.00936774
0.014531
-0.00969591
0.0150341
-0.00993809
0.0154964
-0.0101021
0.0159225
-0.0101967
0.016317
-0.0102317
0.016685
-0.0102182
-0.0101749
0.0170328
2.26806e-05
0.000673026
0.000116507
0.00158683
0.000294302
0.00222048
0.000561548
0.00257671
0.000918928
0.00267914
0.00136424
0.00255541
0.0018934
0.00223226
0.00250089
0.00173541
0.00317986
0.00109024
0.00392209
0.000322279
0.00471787
-0.000542604
0.00555596
-0.00147804
0.00642383
-0.0024574
0.00730797
-0.00345423
0.00819448
-0.00444292
0.00906984
-0.00539971
0.00992161
-0.00630363
0.0107392
-0.00713728
0.0115141
-0.00788749
0.0122409
-0.00854548
0.0129163
-0.00910683
0.0135398
-0.00957103
0.014113
-0.00994094
0.014639
-0.0102219
0.015122
-0.0104211
0.0155666
-0.0105467
0.0159773
-0.0106074
0.0163581
-0.0106125
0.0167129
-0.010573
-0.0105068
0.0170448
2.18449e-05
0.000651181
0.000116198
0.00149248
0.00029737
0.00203931
0.000571772
0.00230231
0.000940611
0.0023103
0.00140182
0.0020942
0.00195106
0.00168302
0.0025821
0.00110436
0.00328698
0.00038536
0.00405598
-0.000446713
0.00487759
-0.00136422
0.00573874
-0.00233919
0.00662514
-0.0033438
0.00752182
-0.00435091
0.00841394
-0.00533504
0.0092876
-0.00627338
0.0101306
-0.00714664
0.0109332
-0.00793982
0.0116881
-0.00864247
0.0123913
-0.00924869
0.0130414
-0.00975685
0.0136392
-0.0101689
0.0141879
-0.0104896
0.0146919
-0.0107259
0.0151562
-0.0108855
0.0155861
-0.0109766
0.0159856
-0.0110069
0.0163566
-0.0109834
0.0166969
-0.0109134
-0.010822
0.017012
2.17539e-05
0.000629427
0.000118084
0.00139615
0.000304489
0.00185291
0.000588084
0.00201871
0.000970412
0.00192798
0.00144934
0.00161527
0.00202002
0.00111234
0.00267527
0.000449111
0.00340571
-0.000345081
0.00419986
-0.00124087
0.00504432
-0.00220867
0.00592412
-0.00321899
0.00682333
-0.00424301
0.00772582
-0.0052534
0.00861619
-0.00622542
0.00948065
-0.00713783
0.0103077
-0.00797369
0.0110887
-0.00872084
0.0118181
-0.0093719
0.0124935
-0.00992404
0.013115
-0.0103784
0.0136854
-0.0107392
0.014209
-0.0110132
0.0146914
-0.0112084
0.0151392
-0.0113332
0.0155588
-0.0113962
0.0159562
-0.0114043
0.0163352
-0.0113624
0.0166916
-0.0112698
0.0169794
-0.0111097
0.00580059
0.0139784
-0.0160081
0.00733298
0.013099
-0.0146314
0.0083355
0.0151545
-0.016157
0.00895236
0.0182076
-0.0188245
0.00928263
0.0214065
-0.0217368
0.00940826
0.0242407
-0.0243663
0.00939185
0.0265608
-0.0265444
0.00927927
0.0284697
-0.0283571
0.00910178
0.0301453
-0.0299678
0.0088787
0.0317229
-0.0314998
0.00862139
0.0332529
-0.0329956
0.00833698
0.0347422
-0.0344578
0.00803
0.0361764
-0.0358694
0.00770421
0.0375377
-0.0372119
0.00736242
0.0388233
-0.0384815
0.00700703
0.0400213
-0.0396659
0.00664046
0.0411344
-0.0407678
0.00626435
0.0421624
-0.0417863
0.0058804
0.043101
-0.0427171
0.00548988
0.0439588
-0.0435682
0.00509412
0.0447192
-0.0443234
0.00469392
0.0454032
-0.045003
0.0042897
0.0459872
-0.045583
0.00388233
0.0464913
-0.0460839
0.00347079
0.0468946
-0.0464831
0.00305572
0.0472186
-0.0468035
0.00263426
0.047444
-0.0470225
0.00220786
0.04759
-0.0471636
0.00177465
0.0476882
-0.047255
0.0477992
-0.0473692
0.0061115
0.01197
0.00761165
0.0115989
0.00858902
0.0141771
0.00918661
0.0176101
0.00950284
0.0210903
0.00961879
0.0241247
0.00959531
0.0265842
0.00947693
0.0285881
0.00929406
0.0303282
0.00906579
0.0319512
0.00880362
0.0335151
0.00851366
0.0350322
0.00820108
0.036489
0.00786868
0.0378701
0.00752028
0.0391717
0.00715752
0.0403841
0.00678282
0.0415091
0.00639809
0.0425471
0.00600495
0.0434942
0.00560486
0.0443589
0.00519864
0.0451254
0.0047878
0.0458141
0.0043725
0.0464025
0.00395345
0.0469103
0.00353015
0.0473179
0.00310291
0.0476458
0.00266933
0.0478776
0.00223071
0.0480286
0.0017854
0.0481335
0.0482417
0.00645276
0.0100085
0.00790483
0.0101468
0.00884854
0.0132334
0.00942256
0.017036
0.00972296
0.0207899
0.00982842
0.0240192
0.00979747
0.0266152
0.00967333
0.0287122
0.00948539
0.0305161
0.00925214
0.0321844
0.00898516
0.0337821
0.00868986
0.0353275
0.00837195
0.0368069
0.00803322
0.0382088
0.00767824
0.0395267
0.00730822
0.0407541
0.00692556
0.0418918
0.00653229
0.0429404
0.00613006
0.0438964
0.00572039
0.0447685
0.00530378
0.045542
0.00488231
0.0462355
0.00445594
0.0468289
0.00402524
0.047341
0.00359022
0.0477529
0.00315077
0.0480852
0.00270513
0.0483232
0.00225418
0.0484796
0.00179663
0.0485911
0.048697
0.00682334
0.00812019
0.00821153
0.0087586
0.00911345
0.0123315
0.00965965
0.0164898
0.00994249
0.020507
0.0100367
0.0239251
0.00999812
0.0266537
0.00986835
0.028842
0.00967545
0.030709
0.00943745
0.0324224
0.00916582
0.0340537
0.00886564
0.0356276
0.00854238
0.0371301
0.00819767
0.0385535
0.00783611
0.0398883
0.00745903
0.0411312
0.00706868
0.0422821
0.00666684
0.0433422
0.00625571
0.0443075
0.00583637
0.0451879
0.0054096
0.0459688
0.00497744
0.0466677
0.00453996
0.0472664
0.00409777
0.0477832
0.00365096
0.0481997
0.00319944
0.0485368
0.00274161
0.0487811
0.00227833
0.0489429
0.00180834
0.0490611
0.0491653
0.00722229
0.0063311
0.00853113
0.00744976
0.00938291
0.0114797
0.00989705
0.0159757
0.0101608
0.0202433
0.0102433
0.0238426
0.0101969
0.0267001
0.0100615
0.0289774
0.00986393
0.0309066
0.00962164
0.0326647
0.00934549
0.0343298
0.00904061
0.0359325
0.00871211
0.0374586
0.0083619
0.0389037
0.00799389
0.0402563
0.00760981
0.0415153
0.00721195
0.04268
0.00680171
0.0437525
0.00638174
0.0447275
0.00595271
0.0456169
0.00551597
0.0464055
0.00507314
0.0471105
0.00462454
0.047715
0.00417094
0.0482368
0.00371226
0.0486584
0.00324877
0.0490003
0.00277869
0.0492511
0.00230305
0.0494185
0.00182049
0.0495436
0.0496466
0.00764825
0.00466688
0.00886252
0.00623549
0.00965607
0.0106862
0.0101344
0.0154974
0.0103775
0.0200002
0.0104477
0.0237724
0.0103936
0.0267543
0.0102527
0.0291183
0.0100507
0.0311086
0.00980437
0.032911
0.00952398
0.0346102
0.00921462
0.0362419
0.00888115
0.0377921
0.00852562
0.0392593
0.00815143
0.0406305
0.0077605
0.0419062
0.00735526
0.0430852
0.00693681
0.0441709
0.00650804
0.0451563
0.0060695
0.0460554
0.0056228
0.0468522
0.00516934
0.047564
0.00470969
0.0481746
0.00424471
0.0487018
0.00377416
0.049129
0.00329872
0.0494757
0.00281641
0.0497335
0.00232836
0.0499065
0.00183312
0.0500389
0.0501412
0.00809925
0.00315209
0.00920463
0.00513011
0.00993214
0.00995866
0.0103711
0.0150584
0.010592
0.0197792
0.0106497
0.0237147
0.0105878
0.0268162
0.0104416
0.0292644
0.0102354
0.0313148
0.00998537
0.0331611
0.00970105
0.0348946
0.00938751
0.0365554
0.00904934
0.0381303
0.00868866
0.03962
0.00830855
0.0410106
0.00791097
0.0423038
0.00749849
0.0434977
0.00707205
0.0445973
0.00663453
0.0455938
0.00618666
0.0465033
0.00573
0.0473089
0.00526602
0.048028
0.00479534
0.0486453
0.00431902
0.0491781
0.00383666
0.0496113
0.00334925
0.0499631
0.00285472
0.050228
0.00235424
0.050407
0.0018462
0.0505469
0.0506491
0.00857238
0.00180996
0.0095562
0.00414629
0.0102103
0.00930452
0.0106066
0.0146622
0.0108041
0.0195817
0.0108488
0.02367
0.0107793
0.0268857
0.0106281
0.0294156
0.010418
0.0315249
0.0101644
0.0334147
0.0098765
0.0351825
0.00955908
0.0368728
0.00921647
0.0384729
0.00885087
0.0399856
0.00846511
0.0413963
0.0080611
0.0427078
0.00764154
0.0439173
0.00720731
0.0450316
0.00676112
0.04604
0.00630408
0.0469604
0.00583753
0.0477755
0.00536311
0.0485024
0.00488145
0.049127
0.00439383
0.0496657
0.00389972
0.0501055
0.00340034
0.0504625
0.0028936
0.0507347
0.00238069
0.0509199
0.00185975
0.0510679
0.0511707
0.00906269
0.00066421
0.00991608
0.0032929
0.0104899
0.00873071
0.0108404
0.0143116
0.0110133
0.0194089
0.0110449
0.0236384
0.0109679
0.0269627
0.0108119
0.0295716
0.0105982
0.0317386
0.0103413
0.0336715
0.0100501
0.0354737
0.00972912
0.0371938
0.00938238
0.0388196
0.0090121
0.0403558
0.00862095
0.0417875
0.00821077
0.043118
0.00778427
0.0443438
0.00734248
0.0454734
0.00688775
0.0464947
0.00642166
0.0474264
0.00594533
0.0482518
0.00546056
0.0489872
0.00496795
0.0496196
0.00446908
0.0501646
0.00396328
0.0506113
0.00345197
0.0509738
0.00293301
0.0512537
0.00240769
0.0514452
0.0018738
0.0516017
0.0517059
0.00957034
-0.000273776
0.0102825
0.00258078
0.01077
0.00824321
0.0110721
0.0140095
0.0112194
0.0192616
0.0112376
0.0236202
0.0111534
0.0270469
0.0109928
0.0297322
0.0107758
0.0319555
0.0105159
0.0339314
0.0102218
0.0357678
0.00989746
0.0375182
0.00954688
0.0391702
0.0091722
0.0407305
0.00877592
0.0421838
0.00835984
0.043534
0.00792657
0.044777
0.00747743
0.0459225
0.00701434
0.0469578
0.00653932
0.0479015
0.00605331
0.0487378
0.00555831
0.0494821
0.00505483
0.0501231
0.00454473
0.0506747
0.00402731
0.0511287
0.00350411
0.051497
0.00297293
0.0517849
0.00243519
0.051983
0.00188834
0.0521486
0.052255
0.0100894
-0.000993871
0.0106531
0.00201708
0.0110496
0.00784679
0.0113012
0.0137578
0.0114221
0.0191408
0.0114269
0.0236154
0.0113356
0.0271381
0.0111706
0.0298971
0.0109507
0.0321755
0.010688
0.0341941
0.0103912
0.0360647
0.0100639
0.0378454
0.0097098
0.0395243
0.00933101
0.0411093
0.00892986
0.0425849
0.00850816
0.0439557
0.00806833
0.0452169
0.00761204
0.0463788
0.00714079
0.047429
0.00665699
0.0483853
0.00616141
0.0492334
0.00565628
0.0499873
0.00514201
0.0506373
0.00462074
0.051196
0.00409173
0.0516577
0.0035567
0.052032
0.00301335
0.0523282
0.00246318
0.0525332
0.00190338
0.0527084
0.0528181
0.0106156
-0.00149104
0.0110248
0.00160782
0.0113276
0.00754403
0.0115272
0.0135582
0.0116212
0.0190468
0.0116125
0.023624
0.0115144
0.0272362
0.0113453
0.0300662
0.0111225
0.0323983
0.0108575
0.0344592
0.0105582
0.0363639
0.0102283
0.0381754
0.00987094
0.0398816
0.00948836
0.0414919
0.0090826
0.0429907
0.00865558
0.0443828
0.00820943
0.045663
0.00774619
0.046842
0.007267
0.0479082
0.00677457
0.0488777
0.00626956
0.0497384
0.00575439
0.0505025
0.00522945
0.0511623
0.00469707
0.0517284
0.00415651
0.0521982
0.0036097
0.0525788
0.00305424
0.0528837
0.00249166
0.0530957
0.0019189
0.0532811
0.0533953
0.0111441
-0.0017664
0.0113939
0.00135808
0.011603
0.00733493
0.0117497
0.0134114
0.0118164
0.0189802
0.0117944
0.023646
0.0116897
0.0273409
0.0115167
0.0302392
0.0112913
0.0326237
0.0110241
0.0347264
0.0107226
0.0366654
0.0103904
0.0385076
0.0100301
0.0402419
0.00964406
0.0418779
0.00923401
0.0434008
0.00880194
0.0448148
0.00834975
0.0461152
0.00787977
0.047312
0.00739286
0.0483951
0.00689196
0.0493786
0.00637768
0.0502527
0.00585258
0.0510276
0.00531706
0.0516978
0.00477366
0.0522718
0.0042216
0.0527503
0.00366305
0.0531374
0.00309557
0.0534512
0.00252061
0.0536707
0.00193489
0.0538669
0.0539868
0.0116678
-0.00182463
0.0117591
0.00126678
0.0118745
0.00721961
0.0119682
0.0133177
0.0120076
0.0189408
0.0119724
0.0236811
0.0118613
0.0274521
0.0116848
0.0304157
0.0114569
0.0328516
0.0111878
0.0349955
0.0108843
0.0369689
0.01055
0.0388419
0.0101872
0.0406048
0.00979794
0.0422672
0.0093839
0.0438148
0.00894709
0.0452516
0.00848916
0.0465731
0.00801266
0.0477885
0.00751827
0.0488895
0.00700907
0.0498878
0.00648569
0.0507761
0.00595078
0.0515625
0.0054048
0.0522438
0.00485043
0.0528261
0.00428696
0.0533138