/*--------------------------------*- C++ -*----------------------------------*\
  =========                 |
  \\      /  F ield         | OpenFOAM: The Open Source CFD Toolbox
   \\    /   O peration     | Website:  https://openfoam.org
    \\  /    A nd           | Version:  7
     \\/     M anipulation  |
\*---------------------------------------------------------------------------*/
FoamFile
{
    version     2.0;
    format      ascii;
    class       volVectorField;
    location    "3.4";
    object      U;
}
// * * * * * * * * * * * * * * * * * * * * * * * * * * * * * * * * * * * * * //

dimensions      [0 1 -1 0 0 0 0];

internalField   nonuniform List<vector> 
18000
(
(-0.00164518 0.0314738 1.49094e-20)
(-0.00760947 0.0820161 0)
(-0.0170405 0.124547 0)
(-0.0272866 0.158997 0)
(-0.0376111 0.186387 -4.91273e-21)
(-0.0472852 0.207939 2.4845e-20)
(-0.0558399 0.224714 -5.0313e-21)
(-0.0629838 0.237511 5.06602e-21)
(-0.068553 0.24689 0)
(-0.0724729 0.253232 -1.53321e-20)
(-0.0747309 0.256797 -5.13353e-21)
(-0.0753545 0.257794 0)
(-0.0743986 0.25641 1.02414e-20)
(-0.0719335 0.252842 1.02741e-20)
(-0.0680413 0.247303 -2.04899e-20)
(-0.0628136 0.240029 -2.04339e-20)
(-0.0563452 0.231273 0)
(-0.0487354 0.221298 -3.04579e-20)
(-0.0400899 0.210375 1.01035e-20)
(-0.0305187 0.198776 -3.01535e-20)
(-0.0201387 0.186766 9.99267e-21)
(-0.0090711 0.174595 0)
(0.00256154 0.162497 -9.80643e-21)
(0.0146352 0.150689 -9.79579e-21)
(0.0270251 0.139365 0)
(0.039607 0.128701 0)
(0.0522504 0.118863 -1.9108e-20)
(0.0648405 0.110014 -1.89483e-20)
(0.0772505 0.102414 -1.88639e-20)
(0.0890411 0.0964581 2.06922e-20)
(-0.00239602 0.032884 2.11822e-20)
(-0.00922926 0.0850857 3.68768e-20)
(-0.0190194 0.128612 -3.774e-20)
(-0.0293948 0.163597 -3.84783e-20)
(-0.0397111 0.191136 -9.79485e-21)
(-0.0493078 0.212517 2.96656e-20)
(-0.0577513 0.22886 -4.00353e-20)
(-0.0647637 0.241026 -4.03613e-20)
(-0.0701835 0.249619 4.06053e-20)
(-0.0739357 0.25506 4.07929e-20)
(-0.076002 0.257644 -2.04203e-20)
(-0.0764037 0.2576 -4.09279e-20)
(-0.0751926 0.255135 -2.05457e-20)
(-0.0724351 0.25046 4.08752e-20)
(-0.0682106 0.2438 -4.07656e-20)
(-0.0626104 0.235405 4.07912e-20)
(-0.0557316 0.225536 -8.11877e-20)
(-0.0476781 0.214472 6.06712e-20)
(-0.0385608 0.202496 -4.01373e-20)
(-0.028496 0.189892 2.00726e-20)
(-0.0176081 0.176938 -3.96789e-20)
(-0.00602752 0.163897 0)
(0.00611428 0.151018 1.98742e-20)
(0.0186847 0.138524 -3.89464e-20)
(0.0315523 0.126622 3.85872e-20)
(0.0445856 0.1155 0)
(0.0576479 0.105333 -1.88686e-20)
(0.0706259 0.0963051 1.87817e-20)
(0.08339 0.0887152 7.4741e-20)
(0.0954911 0.0830208 4.09588e-20)
(-0.00319042 0.0340461 -3.39662e-20)
(-0.0108949 0.0876339 -3.68759e-20)
(-0.0209791 0.132114 5.65849e-20)
(-0.0313816 0.16765 9.59931e-20)
(-0.0415627 0.195384 0)
(-0.050936 0.216656 -3.96175e-20)
(-0.0591067 0.232634 4.0034e-20)
(-0.0658227 0.244229 1.20822e-19)
(-0.070929 0.252092 -4.06038e-20)
(-0.0743455 0.256682 -4.07744e-20)
(-0.0760533 0.258327 1.22334e-19)
(-0.0760709 0.257278 4.09264e-20)
(-0.0744448 0.253761 0)
(-0.0712407 0.248005 -8.16974e-20)
(-0.0665378 0.240248 1.21888e-19)
(-0.0604297 0.23075 -4.04012e-20)
(-0.053018 0.219786 4.05137e-20)
(-0.0444103 0.207647 4.02759e-20)
(-0.0347241 0.194632 1.62101e-22)
(-0.0240862 0.181037 0)
(-0.0126286 0.167154 1.189e-19)
(-0.000490634 0.15326 -7.8503e-20)
(0.0121863 0.139615 3.91568e-20)
(0.0252623 0.126454 0)
(0.0385982 0.113993 -3.85858e-20)
(0.0520552 0.102426 1.52501e-19)
(0.0654966 0.0919424 -1.13094e-19)
(0.0788067 0.0827421 -3.76571e-20)
(0.0918553 0.0751554 3.68533e-20)
(0.104187 0.069713 4.06868e-20)
(-0.00402423 0.0350657 0)
(-0.0126063 0.0898951 1.83533e-20)
(-0.0229245 0.135225 8.69892e-24)
(-0.0332621 0.171271 -9.58626e-20)
(-0.0431798 0.199208 0)
(-0.0521824 0.220405 -7.87439e-20)
(-0.059926 0.236061 0)
(-0.0661798 0.247129 -1.20646e-19)
(-0.0707991 0.25431 4.03757e-20)
(-0.0737078 0.258096 -8.0967e-20)
(-0.074886 0.258843 -8.14518e-20)
(-0.07435 0.256831 -4.07106e-20)
(-0.0721445 0.252303 4.06317e-20)
(-0.0683361 0.245503 4.03733e-20)
(-0.0630069 0.236682 -4.07238e-20)
(-0.0562528 0.226113 -8.03758e-20)
(-0.0481807 0.214086 8.0302e-20)
(-0.0389065 0.200905 0)
(-0.0285569 0.18688 0)
(-0.017267 0.172323 0)
(-0.00517804 0.157541 0)
(0.0075608 0.142824 0)
(0.0207981 0.128445 0)
(0.0343856 0.114648 -7.67513e-20)
(0.0481781 0.101658 -7.65232e-20)
(0.0620314 0.0896749 -3.48255e-22)
(0.0758044 0.0788949 -7.51519e-20)
(0.0893828 0.0695297 -3.73637e-22)
(0.102644 0.0619395 -7.45357e-20)
(0.115125 0.0567309 1.61231e-19)
(-0.00487629 0.0358275 0)
(-0.0143281 0.0916539 1.64365e-19)
(-0.0248265 0.137733 9.64027e-24)
(-0.0350111 0.174276 -5.72754e-20)
(-0.0445504 0.202446 1.93722e-19)
(-0.0530473 0.223619 1.18068e-19)
(-0.0602107 0.23902 1.18905e-19)
(-0.0658392 0.249636 0)
(-0.0698043 0.256201 0)
(-0.0720347 0.259247 1.21393e-19)
(-0.0725114 0.25916 4.36435e-23)
(-0.0712526 0.256241 -2.83274e-19)
(-0.0683039 0.250755 2.42483e-19)
(-0.0637338 0.242962 -8.1001e-20)
(-0.0576281 0.233127 8.01157e-20)
(-0.0500892 0.221537 8.03673e-20)
(-0.0412316 0.208494 -7.95611e-20)
(-0.0311807 0.194316 7.96195e-20)
(-0.0200725 0.179327 1.57888e-19)
(-0.00805219 0.163856 -7.8545e-20)
(0.00472825 0.148221 -1.55755e-19)
(0.018109 0.132728 1.54698e-19)
(0.0319295 0.117659 -1.53601e-19)
(0.0460335 0.103272 7.67481e-20)
(0.0602685 0.0897951 0)
(0.0744865 0.0774349 0)
(0.0885439 0.0663893 6.99719e-22)
(0.102326 0.0568788 -2.95625e-19)
(0.115722 0.0492858 1.46394e-19)
(0.128264 0.0442893 -1.60031e-19)
(-0.00573644 0.036384 0)
(-0.0160452 0.0929794 -1.46069e-19)
(-0.0266736 0.139692 1.49015e-19)
(-0.0366307 0.176691 0)
(-0.0456882 0.205105 -3.09368e-19)
(-0.0535494 0.226296 -3.91971e-20)
(-0.0599879 0.2415 -7.94301e-20)
(-0.0648353 0.251726 -3.98747e-20)
(-0.0679798 0.257745 0)
(-0.0693618 0.260118 -8.05458e-20)
(-0.0689681 0.259259 8.06252e-20)
(-0.0668191 0.255497 1.61704e-19)
(-0.0629629 0.249116 -1.6156e-19)
(-0.0574738 0.240392 0)
(-0.0504444 0.229606 -1.60754e-19)
(-0.0419845 0.217056 1.59289e-19)
(-0.0322184 0.20306 1.59423e-19)
(-0.0212821 0.187947 2.36822e-19)
(-0.00932313 0.172057 -2.36266e-19)
(0.00350211 0.155733 3.12202e-19)
(0.0170305 0.139308 1.55406e-19)
(0.0310918 0.1231 -1.54691e-19)
(0.0455152 0.107403 3.06156e-19)
(0.0601372 0.0924823 0)
(0.0747993 0.0785744 1.50263e-19)
(0.0893492 0.0658875 2.98859e-19)
(0.103641 0.0546186 -1.47164e-19)
(0.117561 0.044991 1.47648e-19)
(0.131015 0.0374022 -3.25746e-22)
(0.143532 0.0325987 -1.58776e-19)
(-0.00658879 0.036704 -1.67195e-20)
(-0.0177358 0.0938173 0)
(-0.0284525 0.141033 -1.86216e-19)
(-0.038113 0.178438 3.79117e-20)
(-0.0465946 0.207104 1.15867e-19)
(-0.0537054 0.228355 3.9032e-20)
(-0.0592832 0.243423 1.57534e-19)
(-0.0631988 0.253333 0)
(-0.065365 0.25888 7.99622e-20)
(-0.0657368 0.260655 7.99289e-20)
(-0.064308 0.259101 -8.03589e-20)
(-0.0611051 0.254571 2.40648e-19)
(-0.0561834 0.24737 0)
(-0.0496243 0.23779 0)
(-0.0415289 0.226128 2.38925e-19)
(-0.0320173 0.212696 -3.97095e-19)
(-0.0212255 0.197823 1.57626e-19)
(-0.0093018 0.181853 -1.57671e-19)
(0.00359462 0.165141 -1.55785e-19)
(0.0172945 0.148043 -4.65955e-19)
(0.031622 0.130905 -6.54236e-22)
(0.046397 0.114057 1.52635e-19)
(0.0614396 0.0978051 -3.04073e-19)
(0.0765775 0.0824233 1.50379e-19)
(0.0916474 0.0681515 -1.0391e-21)
(0.106494 0.0551991 -1.49068e-19)
(0.120972 0.0437598 1.47858e-19)
(0.134964 0.0340533 0)
(0.148397 0.0264841 1.44378e-19)
(0.160808 0.0218572 3.39868e-22)
(-0.00742181 0.0367903 -3.33167e-20)
(-0.0193814 0.094158 3.62147e-20)
(-0.0301495 0.141737 -2.22129e-19)
(-0.0394579 0.179487 -1.13155e-19)
(-0.0472838 0.208399 1.53402e-19)
(-0.0535393 0.229746 -2.3328e-19)
(-0.0581324 0.244736 -7.89294e-20)
(-0.0609782 0.2544 -1.58179e-19)
(-0.0620176 0.259553 1.59001e-19)
(-0.0612244 0.260811 -3.19599e-19)
(-0.0586043 0.258645 -1.59699e-19)
(-0.0541935 0.253431 -6.80985e-22)
(-0.0480562 0.245495 7.98844e-20)
(-0.0402838 0.235146 -2.38548e-19)
(-0.0309888 0.222696 -3.17419e-19)
(-0.020304 0.20847 3.57368e-22)
(-0.00837792 0.192811 -5.17048e-22)
(0.00462774 0.176078 1.55806e-19)
(0.0185397 0.158637 1.55776e-19)
(0.0331755 0.140857 3.60336e-22)
(0.0483467 0.123097 -2.83126e-22)
(0.0638624 0.1057 1.50945e-19)
(0.0795341 0.0889791 1.51511e-19)
(0.0951818 0.073218 -3.38892e-22)
(0.110637 0.0586601 -4.46593e-19)
(0.125743 0.0455137 2.94317e-19)
(0.140355 0.0339668 2.92997e-19)
(0.154357 0.0242293 -2.89816e-19)
(0.167696 0.0167049 -1.44371e-19)
(0.179928 0.0122465 -1.54732e-19)
(-0.00822192 0.0366455 -2.98251e-19)
(-0.020963 0.0940006 -3.60887e-20)
(-0.0317546 0.141785 1.84919e-19)
(-0.0406671 0.179803 1.50935e-19)
(-0.047771 0.208947 -1.53398e-19)
(-0.0530823 0.230414 1.55408e-19)
(-0.0565811 0.24538 -7.8384e-20)
(-0.0582315 0.254868 2.37099e-19)
(-0.0580079 0.259706 -1.58995e-19)
(-0.0559074 0.260532 1.59489e-19)
(-0.0519515 0.257842 8.00016e-20)
(-0.0461896 0.252035 -7.9994e-20)
(-0.0386982 0.243458 -4.76319e-19)
(-0.0295814 0.232436 3.17422e-19)
(-0.0189653 0.219297 1.58297e-19)
(-0.00699684 0.204379 0)
(0.00616057 0.188038 0)
(0.0203313 0.170646 -1.44786e-21)
(0.0353269 0.152582 -1.53479e-19)
(0.0509503 0.134225 0)
(0.0670008 0.115948 0)
(0.0832767 0.0981025 -1.51598e-19)
(0.0995804 0.0810118 0)
(0.115725 0.0649643 -2.9661e-19)
(0.131538 0.0502071 0)
(0.146863 0.0369467 -1.46986e-19)
(0.161557 0.0253627 2.90934e-19)
(0.175506 0.0156502 -2.87776e-19)
(0.188687 0.00820067 0)
(0.200695 0.00389381 0)
(-0.00897745 0.0362783 2.65055e-19)
(-0.022463 0.0933494 0)
(-0.0332583 0.141172 -3.68238e-20)
(-0.0417437 0.179366 3.7524e-20)
(-0.0480756 0.208709 -2.28384e-19)
(-0.0523701 0.230309 6.08694e-23)
(-0.0546813 0.245295 -7.80632e-20)
(-0.0550269 0.254673 0)
(-0.0534194 0.259275 0)
(-0.049884 0.259757 -7.92884e-20)
(-0.0444625 0.256636 7.93658e-20)
(-0.0372209 0.250333 -1.58608e-19)
(-0.0282513 0.241215 1.59708e-19)
(-0.0176737 0.229625 0)
(-0.00562997 0.215905 0)
(0.00771788 0.200406 0)
(0.0221906 0.183498 1.54505e-19)
(0.0375961 0.165563 -8.86273e-22)
(0.0537305 0.146992 1.54388e-19)
(0.0703823 0.128177 -3.03687e-19)
(0.0873375 0.109497 1.51333e-19)
(0.104384 0.0913154 -7.49599e-19)
(0.121314 0.0739619 7.02978e-22)
(0.137937 0.05773 2.96594e-19)
(0.154075 0.0428686 -1.35191e-21)
(0.169574 0.0295817 2.90543e-19)
(0.184294 0.0180381 -2.87526e-19)
(0.198125 0.0084135 -2.865e-19)
(0.211067 0.0010759 6.09576e-22)
(0.222767 -0.0030939 -3.02078e-19)
(-0.00967818 0.0357013 -3.29476e-20)
(-0.0238656 0.0922189 0)
(-0.0346527 0.1399 7.33932e-20)
(-0.042693 0.178162 -7.47885e-20)
(-0.0482187 0.207655 6.84496e-19)
(-0.0514415 0.229387 5.94464e-23)
(-0.0524901 0.244426 -7.77959e-20)
(-0.0514396 0.253753 7.84014e-20)
(-0.0483455 0.258195 -3.93312e-19)
(-0.0432652 0.25842 0)
(-0.0362654 0.254963 0)
(-0.0274331 0.248266 -1.57338e-19)
(-0.0168792 0.238714 1.58248e-19)
(-0.00474156 0.226666 -1.57002e-19)
(0.00882009 0.21248 1.56333e-19)
(0.0236267 0.196519 0)
(0.0394822 0.179167 -6.18182e-19)
(0.0561774 0.160814 3.06202e-19)
(0.0734924 0.141863 1.52533e-19)
(0.0912007 0.122713 4.54189e-19)
(0.109075 0.103756 0)
(0.126892 0.0853582 2.99172e-19)
(0.144436 0.0678575 2.95623e-19)
(0.161509 0.0515508 2.93276e-19)
(0.177935 0.0366873 -1.97101e-21)
(0.193559 0.0234673 -2.87909e-19)
(0.208247 0.0120477 2.87511e-19)
(0.221894 0.00258249 0)
(0.234523 -0.00459097 6.27554e-22)
(0.245852 -0.00860264 6.00224e-19)
(-0.0103163 0.0349322 -2.6212e-19)
(-0.025158 0.0906328 0)
(-0.0359316 0.137984 -2.91901e-19)
(-0.0435207 0.176189 -3.72368e-19)
(-0.0482218 0.205765 -2.27931e-19)
(-0.0503366 0.22761 7.68093e-20)
(-0.0500671 0.242724 4.01902e-23)
(-0.0475493 0.252048 -7.81046e-20)
(-0.0428856 0.256399 1.11372e-21)
(-0.0361705 0.256451 1.57356e-19)
(-0.0274999 0.252753 1.56847e-19)
(-0.0169857 0.245764 -1.55976e-19)
(-0.00476057 0.235887 1.56943e-19)
(0.00901719 0.223498 -4.68163e-19)
(0.0241685 0.208966 4.65963e-19)
(0.0404959 0.19267 3.0859e-19)
(0.0577852 0.175001 7.68564e-19)
(0.0758095 0.156363 -1.54343e-19)
(0.0943326 0.137163 -3.02288e-19)
(0.113113 0.117813 -1.78965e-21)
(0.131909 0.0987071 -2.98797e-19)
(0.150487 0.080221 8.87978e-19)
(0.168623 0.0626955 -5.89838e-19)
(0.186114 0.0464295 5.82023e-19)
(0.202782 0.0316713 -2.90247e-19)
(0.218478 0.0186157 5.73865e-19)
(0.233074 0.00740785 1.30587e-21)
(0.246471 -0.00182221 -5.64354e-19)
(0.258717 -0.00877292 5.5826e-19)
(0.269622 -0.0125985 2.95472e-19)
(-0.010886 0.0339912 2.62119e-19)
(-0.0263305 0.088623 0)
(-0.0370904 0.135447 6.55671e-19)
(-0.044233 0.173456 2.23487e-19)
(-0.0481062 0.203028 0)
(-0.049094 0.224951 0)
(-0.0474712 0.240143 0)
(-0.0434358 0.249501 0)
(-0.0371412 0.253823 1.57004e-19)
(-0.0287227 0.25378 1.56829e-19)
(-0.0183103 0.249934 -3.14342e-19)
(-0.00604415 0.242756 3.13957e-19)
(0.00791842 0.232664 4.67974e-19)
(0.0233967 0.22005 1.56225e-19)
(0.0401905 0.205297 1.53335e-19)
(0.0580828 0.188794 -4.62529e-19)
(0.0768405 0.170941 -6.11641e-19)
(0.0962185 0.152151 -3.04485e-19)
(0.115964 0.132841 3.0227e-19)
(0.135819 0.113426 -5.99232e-19)
(0.15553 0.0943082 2.96659e-19)
(0.174848 0.0758659 -5.90008e-19)
(0.193545 0.0584426 2.91194e-19)
(0.211413 0.0423372 -1.28974e-21)
(0.228273 0.0277953 -2.87078e-19)
(0.243981 0.0150046 -5.71299e-19)
(0.258421 0.00409793 5.65893e-19)
(0.271502 -0.00481922 0)
(0.283296 -0.0114858 -6.03594e-22)
(0.293726 -0.0150922 -5.87154e-19)
(-0.0113841 0.0329023 3.25848e-20)
(-0.0273765 0.0862287 0)
(-0.0381262 0.132327 -2.90884e-19)
(-0.0448353 0.169983 7.40982e-20)
(-0.04789 0.199449 -7.52381e-20)
(-0.0477491 0.221392 0)
(-0.044757 0.23665 -7.70419e-20)
(-0.0391748 0.246063 7.75719e-20)
(-0.0312096 0.250405 1.5585e-19)
(-0.0210416 0.25034 -4.68204e-19)
(-0.00883818 0.246431 -1.56211e-19)
(0.00522858 0.239162 1.518e-22)
(0.0209743 0.228966 -6.40163e-22)
(0.0381939 0.216244 -3.09847e-19)
(0.056665 0.201393 -1.54728e-19)
(0.0761498 0.184812 0)
(0.0963951 0.16691 8.26354e-22)
(0.117138 0.148106 3.02864e-19)
(0.138107 0.128824 -2.99774e-19)
(0.159029 0.109485 0)
(0.179634 0.0904935 0)
(0.199664 0.0722307 0)
(0.218881 0.0550403 0)
(0.237076 0.0392186 -1.77566e-21)
(0.25407 0.0250061 0)
(0.269726 0.0125819 0)
(0.283942 0.00206603 2.79883e-19)
(0.29664 -0.0064607 2.77491e-19)
(0.307912 -0.0127808 2.76341e-19)
(0.317814 -0.0161291 -6.08016e-22)
(-0.0118102 0.0316915 3.24669e-20)
(-0.0282927 0.083495 -7.06742e-20)
(-0.0390371 0.128666 4.3357e-19)
(-0.0453312 0.165806 -7.37615e-20)
(-0.0475872 0.195042 7.5061e-20)
(-0.04633 0.216932 5.99832e-23)
(-0.0419704 0.232222 2.29838e-19)
(-0.034832 0.241697 -3.08774e-19)
(-0.0251777 0.246096 4.65475e-19)
(-0.0132355 0.246067 5.72641e-22)
(0.000786892 0.242174 -1.55091e-19)
(0.0166827 0.234909 3.10327e-19)
(0.0342382 0.224712 -3.09317e-19)
(0.0532223 0.211998 3.07915e-19)
(0.0733893 0.197171 0)
(0.0944794 0.18064 3.04232e-19)
(0.116219 0.162822 0)
(0.138325 0.144141 1.4867e-21)
(0.160508 0.125028 -2.97423e-19)
(0.182477 0.105906 -2.95007e-19)
(0.203947 0.087182 2.92574e-19)
(0.224648 0.0692366 -2.90143e-19)
(0.244335 0.0524112 -2.87721e-19)
(0.262796 0.0369976 -5.72326e-19)
(0.279857 0.0232282 -2.82906e-19)
(0.295389 0.0112721 2.8167e-19)
(0.309306 0.00123504 -5.58541e-19)
(0.321551 -0.00682625 -2.77478e-19)
(0.332232 -0.0127392 0)
(0.341551 -0.0157872 -2.88072e-19)
(-0.0121664 0.0303864 0)
(-0.0290792 0.080472 2.81083e-19)
(-0.0398221 0.124519 -2.16738e-19)
(-0.0457217 0.160968 -3.67233e-19)
(-0.0472056 0.189839 0)
(-0.0448555 0.211581 0)
(-0.0391446 0.226854 -4.59639e-19)
(-0.0304579 0.236379 6.16513e-19)
(-0.0191146 0.240855 -4.64455e-19)
(-0.00539268 0.240911 0)
(0.0104578 0.237104 1.55796e-19)
(0.0281934 0.229927 -1.55351e-19)
(0.0475688 0.219829 1.17367e-21)
(0.0683259 0.207231 -1.54754e-19)
(0.0901943 0.192547 -1.52035e-19)
(0.112891 0.176192 -1.32343e-21)
(0.13612 0.158589 3.0069e-19)
(0.159578 0.140169 2.99779e-19)
(0.182955 0.121364 7.68829e-22)
(0.205941 0.102601 5.89228e-19)
(0.228234 0.0842854 -5.84427e-19)
(0.249553 0.0667955 5.79347e-19)
(0.269646 0.0504679 2.87706e-19)
(0.2883 0.0355864 2.85295e-19)
(0.305348 0.0223729 1.66578e-21)
(0.320674 0.0109837 0)
(0.334213 0.00150956 2.77526e-19)
(0.345928 -0.00601635 -8.24761e-19)
(0.355949 -0.0114665 2.70304e-19)
(0.36463 -0.0141723 2.84489e-19)
(-0.0124571 0.0290147 -1.92962e-19)
(-0.0297387 0.0772129 -6.3138e-19)
(-0.04048 0.119945 -8.543e-23)
(-0.0460039 0.155527 8.99277e-22)
(-0.0467443 0.183885 -2.23127e-19)
(-0.0433313 0.20537 0)
(-0.0362957 0.220558 -1.52021e-19)
(-0.0260817 0.230104 -9.21696e-19)
(-0.0130643 0.234662 4.63441e-19)
(0.00242765 0.234836 -3.08725e-19)
(0.0201004 0.231172 4.63193e-19)
(0.0396726 0.224161 -1.54413e-19)
(0.060866 0.214253 3.08121e-19)
(0.0833938 0.201875 -7.65071e-19)
(0.106959 0.187447 4.5716e-19)
(0.131255 0.17139 -8.4366e-22)
(0.155962 0.154131 -9.00232e-19)
(0.18075 0.136106 2.97541e-19)
(0.20529 0.117749 -2.95306e-19)
(0.229249 0.0994852 0)
(0.252309 0.0817182 2.89506e-19)
(0.274176 0.064821 0)
(0.294594 0.0491223 -2.85464e-19)
(0.313353 0.0348944 2.82657e-19)
(0.330294 0.0223455 2.81214e-19)
(0.345322 0.0116171 2.77163e-19)
(0.358393 0.00278325 0)
(0.3695 -0.00414521 0)
(0.37879 -0.00908493 -5.43619e-19)
(0.386776 -0.0114128 8.44722e-19)
(-0.0126888 0.0276043 1.93141e-19)
(-0.0302758 0.0737724 3.49964e-19)
(-0.0410088 0.115011 -2.85919e-19)
(-0.0461695 0.149548 5.8448e-19)
(-0.0461922 0.177237 7.53053e-20)
(-0.0417474 0.198344 7.5354e-20)
(-0.0334185 0.213364 1.06191e-21)
(-0.0217058 0.222886 -3.05208e-19)
(-0.00703873 0.227517 -1.53278e-19)
(0.0102038 0.22783 1.02397e-21)
(0.0296837 0.224355 -1.04764e-21)
(0.0510806 0.217575 -4.60628e-19)
(0.0740825 0.207939 -1.52528e-19)
(0.0983723 0.195878 1.14959e-21)
(0.123625 0.181814 3.02471e-19)
(0.149506 0.166173 3.00362e-19)
(0.175667 0.149385 1.27775e-21)
(0.201755 0.131887 -2.9564e-19)
(0.227412 0.114114 2.93738e-19)
(0.252284 0.0964882 -2.91359e-19)
(0.276035 0.0794079 -5.77554e-19)
(0.298361 0.0632379 -2.86357e-19)
(0.319004 0.0482948 5.66658e-19)
(0.337759 0.0348362 0)
(0.354485 0.0230536 -2.7804e-19)
(0.369106 0.0130709 -5.52723e-19)
(0.381613 0.00494495 -5.48305e-19)
(0.392029 -0.00133458 2.71732e-19)
(0.400518 -0.00572694 -8.08318e-19)
(0.40775 -0.00764842 2.79169e-19)
(-0.0128696 0.0261812 -3.19717e-19)
(-0.0306968 0.070205 6.96107e-20)
(-0.0414044 0.109786 2.85921e-19)
(-0.0462041 0.143107 -2.18886e-19)
(-0.0455265 0.16997 7.44936e-20)
(-0.0400759 0.19057 -1.37375e-22)
(-0.0304833 0.205327 7.57668e-19)
(-0.0173014 0.214767 3.05742e-19)
(-0.00101156 0.219448 3.07089e-19)
(0.0179587 0.219907 4.61191e-19)
(0.0392272 0.216655 -4.61272e-19)
(0.0624344 0.210161 3.06985e-19)
(0.0872328 0.200873 6.1087e-19)
(0.113273 0.189218 3.0347e-19)
(0.140198 0.175621 -8.61741e-22)
(0.167643 0.160508 -6.0037e-19)
(0.195228 0.144313 5.95275e-19)
(0.222569 0.127472 4.43255e-22)
(0.24928 0.110417 -2.92367e-19)
(0.274983 0.0935638 2.89998e-19)
(0.299324 0.0773039 2.88049e-19)
(0.321994 0.0619892 -2.84099e-19)
(0.342735 0.0479207 -5.65406e-19)
(0.361356 0.0353375 -3.05874e-22)
(0.377739 0.0244115 2.78603e-19)
(0.391837 0.0152472 2.75561e-19)
(0.403675 0.00788313 5.4507e-19)
(0.413314 0.00228988 -5.37569e-19)
(0.42094 -0.00153026 0)
(0.427357 -0.00302671 2.77286e-19)
(-0.0130084 0.0247694 8.84441e-22)
(-0.0310078 0.0665631 0)
(-0.0416601 0.104342 -2.12806e-19)
(-0.0460855 0.136285 -7.25165e-20)
(-0.0447109 0.162168 -2.94651e-19)
(-0.0382688 0.182128 0)
(-0.0274333 0.196522 -4.53669e-19)
(-0.0128053 0.205813 1.52108e-19)
(0.00508535 0.210509 0)
(0.0257644 0.211112 -3.05659e-19)
(0.0488064 0.208106 0)
(0.0738118 0.201947 -4.57416e-19)
(0.100396 0.193072 4.55923e-19)
(0.128174 0.181907 -3.03185e-19)
(0.156753 0.168873 -3.0014e-19)
(0.185731 0.154398 0)
(0.214694 0.138914 0)
(0.243222 0.122855 2.9353e-19)
(0.270898 0.106646 -2.89933e-22)
(0.297319 0.0906961 2.87743e-19)
(0.32212 0.0753824 -2.86023e-19)
(0.344987 0.0610413 5.67542e-19)
(0.365674 0.0479543 -2.80767e-19)
(0.384009 0.0363383 0)
(0.399905 0.0263435 8.28404e-19)
(0.413351 0.0180532 -1.36557e-18)
(0.424412 0.0114879 2.71105e-19)
(0.433194 0.00660104 2.69019e-19)
(0.439903 0.00336111 2.64925e-19)
(0.445475 0.00229863 5.48395e-19)
(-0.0131146 0.0233897 -2.53007e-19)
(-0.0312142 0.0628954 5.52536e-19)
(-0.0417651 0.0987484 2.83975e-19)
(-0.0457834 0.129168 6.49986e-19)
(-0.0436956 0.153927 8.08502e-19)
(-0.0362583 0.173119 1.49106e-19)
(-0.0241845 0.187047 -7.51743e-19)
(-0.00811898 0.196117 0)
(0.0113628 0.200789 -6.08164e-19)
(0.0337425 0.201525 -3.03621e-19)
(0.0585519 0.198782 0)
(0.0853504 0.192997 -3.02744e-19)
(0.113713 0.184596 -8.62408e-22)
(0.143215 0.173998 -9.0374e-19)
(0.173421 0.161621 3.00133e-19)
(0.203888 0.147888 2.9707e-19)
(0.234161 0.133229 -5.89272e-19)
(0.26378 0.11807 -5.84962e-19)
(0.292297 0.10283 3.30513e-22)
(0.319289 0.0879018 -5.16588e-22)
(0.344383 0.0736478 0)
(0.36727 0.0603838 -2.82058e-19)
(0.387722 0.0483676 -2.78093e-19)
(0.405599 0.0377919 0)
(0.420849 0.0287831 0)
(0.433509 0.0214026 8.16377e-19)
(0.443687 0.0156532 -8.05059e-19)
(0.451535 0.011473 0)
(0.457285 0.00880023 7.90464e-19)
(0.461992 0.0081459 -5.43446e-19)
(-0.013197 0.0220591 1.80601e-21)
(-0.0313197 0.0592454 -5.52448e-19)
(-0.0417036 0.0930737 -7.05845e-20)
(-0.0452591 0.121845 -7.21883e-19)
(-0.0424169 0.145349 -4.40863e-19)
(-0.0339565 0.163655 1.48613e-19)
(-0.0206262 0.177019 3.01161e-19)
(-0.003111 0.185799 7.54632e-19)
(0.0179713 0.190404 6.08165e-19)
(0.0420598 0.19126 6.09277e-19)
(0.0686435 0.188792 0)
(0.0972381 0.183417 2.13997e-21)
(0.127374 0.175547 0)
(0.15858 0.16559 6.01896e-19)
(0.190373 0.153957 0)
(0.222261 0.141066 -2.95871e-19)
(0.253742 0.127338 2.96476e-19)
(0.28432 0.11319 0)
(0.313515 0.0990277 0)
(0.34089 0.0852269 -8.56499e-19)
(0.366072 0.0721286 2.83399e-19)
(0.388769 0.0600248 0)
(0.408783 0.0491468 5.5597e-19)
(0.426014 0.0396616 5.52356e-19)
(0.440457 0.0316704 -1.09151e-18)
(0.452197 0.0252142 1.0812e-18)
(0.461391 0.0202779 1.80108e-21)
(0.468235 0.0167874 5.28795e-19)
(0.472986 0.0146516 -5.26697e-19)
(0.476783 0.0143534 0)
(-0.0132631 0.0207904 6.32368e-19)
(-0.0313247 0.0556505 -6.86555e-20)
(-0.0414549 0.0873813 -5.62098e-19)
(-0.0444651 0.114403 0)
(-0.0407987 0.136543 -5.83368e-19)
(-0.0312582 0.153859 0)
(-0.0166251 0.166574 -7.4681e-19)
(0.00237842 0.174999 -4.52918e-19)
(0.0250941 0.179501 -6.04063e-19)
(0.0509189 0.180463 0)
(0.0792974 0.178283 1.51329e-19)
(0.109697 0.173353 1.52809e-19)
(0.141599 0.166068 -3.0126e-19)
(0.174475 0.156821 -5.9737e-19)
(0.20779 0.146015 -2.96432e-19)
(0.240997 0.134057 -1.1788e-18)
(0.273546 0.121358 5.86906e-19)
(0.304904 0.108319 5.12512e-22)
(0.334568 0.0953277 4.01317e-22)
(0.362096 0.0827391 8.55467e-19)
(0.387127 0.0708696 0)
(0.4094 0.059984 0)
(0.428758 0.0502855 -1.27012e-21)
(0.44515 0.0419143 1.4794e-21)
(0.458628 0.0349484 -5.41459e-19)
(0.469325 0.0294087 -5.37937e-19)
(0.477449 0.0252658 1.20736e-21)
(0.483239 0.0224355 -5.28788e-19)
(0.486972 0.0208031 -5.22415e-19)
(0.489842 0.0208265 1.23948e-21)
(-0.0133185 0.019592 0)
(-0.0312259 0.0521408 5.46767e-19)
(-0.0409923 0.0817284 4.91913e-19)
(-0.0433462 0.106926 7.1528e-20)
(-0.0387542 0.127617 1.16473e-18)
(-0.0280443 0.143862 -1.47613e-19)
(-0.0120305 0.155859 1.19233e-18)
(0.00852899 0.163878 5.99402e-19)
(0.0329359 0.168246 9.05534e-19)
(0.0605434 0.16931 4.51876e-19)
(0.0907477 0.167433 1.50782e-19)
(0.122963 0.162983 7.53325e-19)
(0.15661 0.156335 -7.06496e-22)
(0.191101 0.147866 2.98888e-19)
(0.225837 0.137963 5.93328e-19)
(0.260218 0.12702 5.88781e-19)
(0.293646 0.115432 0)
(0.325555 0.103581 0)
(0.355433 0.0918328 0)
(0.382846 0.0805164 0)
(0.407462 0.0699211 5.60072e-19)
(0.429061 0.0602823 0)
(0.447541 0.0517754 -1.40712e-21)
(0.462911 0.0445146 1.0892e-18)
(0.475278 0.0385572 5.39852e-19)
(0.484833 0.0339061 5.34599e-19)
(0.491826 0.0305209 1.05907e-18)
(0.496536 0.0283107 0)
(0.499258 0.0271427 -1.03688e-18)
(0.501222 0.0274498 1.06647e-18)
(-0.0133664 0.0184677 5.00727e-19)
(-0.0310155 0.0487385 -5.46779e-19)
(-0.0402837 0.0761646 0)
(-0.0418409 0.0994926 -5.69657e-19)
(-0.0361893 0.118678 -1.47233e-19)
(-0.0241871 0.133797 -4.40164e-19)
(-0.00668239 0.145026 -1.33681e-18)
(0.0155294 0.152607 -2.13043e-21)
(0.0417083 0.156826 -4.49527e-19)
(0.0711594 0.157994 -1.05336e-18)
(0.103224 0.156441 -1.50489e-19)
(0.137255 0.15251 -5.9872e-19)
(0.172605 0.146549 -5.96096e-19)
(0.208619 0.138918 0)
(0.244633 0.129985 -5.88522e-19)
(0.279989 0.120126 -8.76122e-19)
(0.314053 0.109714 2.90439e-19)
(0.346239 0.0991085 -5.737e-19)
(0.376036 0.0886477 -5.68338e-19)
(0.403039 0.0786341 0)
(0.426959 0.069327 -1.1175e-18)
(0.447635 0.0609329 0)
(0.465027 0.0535998 -1.09719e-18)
(0.479211 0.0474198 -5.42523e-19)
(0.490353 0.0424309 -1.07437e-18)
(0.498693 0.0386234 5.32059e-19)
(0.504525 0.035948 -1.57956e-18)
(0.508158 0.03431 5.19798e-19)
(0.509898 0.033561 3.02173e-21)
(0.510995 0.0341023 -5.29436e-19)
(-0.0134069 0.0174165 -5.00737e-19)
(-0.0306806 0.0454576 6.8025e-20)
(-0.0392917 0.0707304 4.86528e-19)
(-0.0398831 0.0921742 5.6967e-19)
(-0.033006 0.109828 -5.79325e-19)
(-0.0195567 0.123791 2.12407e-21)
(-0.000420994 0.134232 5.93083e-19)
(0.0235645 0.141361 -1.19234e-18)
(0.0516131 0.145432 -1.47344e-19)
(0.0829746 0.146718 1.34919e-18)
(0.116928 0.145519 -8.97274e-19)
(0.152753 0.142145 1.49415e-18)
(0.18973 0.136922 1.48682e-18)
(0.227129 0.130182 -2.96105e-19)
(0.264222 0.122274 5.88517e-19)
(0.300304 0.113548 8.7486e-19)
(0.33471 0.104354 2.87185e-19)
(0.366855 0.0950235 2.55912e-21)
(0.39625 0.0858655 2.85023e-19)
(0.422534 0.077153 2.81014e-19)
(0.445481 0.069116 -2.75287e-19)
(0.464998 0.0619332 2.75424e-19)
(0.48112 0.0557284 -5.43767e-19)
(0.493987 0.0505751 5.41128e-19)
(0.503825 0.0464971 2.89703e-21)
(0.510918 0.0434754 5.27455e-19)
(0.515591 0.0414552 3.00545e-21)
(0.518176 0.04034 -5.18063e-19)
(0.518983 0.0399643 1.71633e-21)
(0.519264 0.0406893 0)
(-0.0134367 0.0164335 0)
(-0.0302034 0.0423047 0)
(-0.0379749 0.0654575 -6.25584e-19)
(-0.0374042 0.0850316 7.07643e-20)
(-0.0291073 0.101159 0)
(-0.0140278 0.113969 5.85009e-19)
(0.00690338 0.123624 1.47471e-19)
(0.0328013 0.130312 4.46599e-19)
(0.0628247 0.134252 5.97543e-19)
(0.0961583 0.135685 -5.98461e-19)
(0.132007 0.134874 5.97996e-19)
(0.169573 0.1321 -5.96335e-19)
(0.208054 0.127658 -5.93667e-19)
(0.246647 0.121853 0)
(0.284566 0.115007 0)
(0.321069 0.107444 0)
(0.355485 0.0994831 -5.7637e-19)
(0.387243 0.0914279 8.5577e-19)
(0.415902 0.0835561 -2.82501e-19)
(0.441165 0.0761111 0)
(0.46288 0.0692949 8.31359e-19)
(0.481037 0.0632612 -2.74078e-19)
(0.495744 0.0581149 5.43767e-19)
(0.507209 0.0539147 -1.07226e-18)
(0.515707 0.0506764 1.06427e-18)
(0.521561 0.048376 -1.39128e-21)
(0.525113 0.0469585 1.61796e-21)
(0.526704 0.0463249 5.15e-19)
(0.526641 0.046287 -4.52989e-22)
(0.526156 0.0471621 5.23089e-19)
(-0.013449 0.0155101 6.20636e-20)
(-0.0295613 0.039279 -6.74303e-20)
(-0.0362889 0.0603677 1.38377e-19)
(-0.0343363 0.0781154 -8.45639e-19)
(-0.0244012 0.0927526 1.43399e-19)
(-0.00748708 0.10444 0)
(0.0154203 0.113341 5.86436e-19)
(0.0433768 0.11962 -5.90475e-19)
(0.0754752 0.123466 0)
(0.110824 0.125083 7.42224e-19)
(0.148545 0.124702 -1.48722e-19)
(0.187751 0.122569 0)
(0.227559 0.118944 -2.94536e-19)
(0.267099 0.114103 5.86346e-19)
(0.305539 0.108338 -2.915e-19)
(0.342119 0.101942 2.88371e-19)
(0.376181 0.0952026 -5.72512e-19)
(0.407198 0.0883929 6.25888e-22)
(0.434795 0.0817599 5.31759e-22)
(0.458756 0.0755187 -2.76538e-19)
(0.479018 0.0698464 -5.50416e-19)
(0.495656 0.0648759 5.13935e-22)
(0.508854 0.0606971 1.6639e-21)
(0.51888 0.0573613 5.35416e-19)
(0.526055 0.0548822 -5.28401e-19)
(0.530721 0.0532392 5.24554e-19)
(0.533227 0.0523826 -1.03497e-18)
(0.533899 0.0522126 -1.69374e-21)
(0.53303 0.0525165 -1.01221e-18)
(0.531804 0.0535461 5.20243e-19)
(-0.013433 0.0146345 0)
(-0.028727 0.0363732 -5.36707e-19)
(-0.0341873 0.0554737 0)
(-0.0306141 0.0714644 2.18176e-21)
(-0.018805 0.0846752 1.43049e-19)
(0.000161252 0.0953008 1.34511e-22)
(0.0252308 0.103503 -1.17049e-18)
(0.0553871 0.109427 4.43162e-19)
(0.0896428 0.11323 0)
(0.127018 0.115081 -7.416e-19)
(0.166541 0.115173 1.48092e-19)
(0.207236 0.113716 0)
(0.248139 0.110934 -2.93217e-19)
(0.288326 0.107071 2.92271e-19)
(0.326938 0.102384 2.88803e-19)
(0.363223 0.0971336 5.74859e-19)
(0.396561 0.0915767 -2.85283e-19)
(0.426492 0.0859546 0)
(0.452727 0.0804859 0)
(0.475145 0.0753601 5.54922e-19)
(0.49378 0.070732 -5.47613e-19)
(0.508791 0.066719 5.42648e-19)
(0.520439 0.0634012 5.38093e-19)
(0.529045 0.0608281 5.30846e-19)
(0.534965 0.0590187 -5.25471e-19)
(0.538553 0.0579673 5.21319e-19)
(0.540141 0.0576446 5.14251e-19)
(0.539993 0.0579694 -5.08684e-19)
(0.538306 0.0587581 1.32535e-21)
(0.536065 0.0601391 1.03553e-18)
(-0.0133782 0.013796 6.16011e-20)
(-0.0276723 0.0335781 4.69935e-19)
(-0.0316253 0.0507823 0)
(-0.026179 0.0651078 5.61362e-19)
(-0.0122503 0.0769815 0)
(0.00898897 0.0866294 0)
(0.0364008 0.0942116 4.3844e-19)
(0.0688799 0.0998519 6.04333e-23)
(0.105344 0.103675 1.47348e-19)
(0.144714 0.105815 1.47322e-19)
(0.185918 0.106424 -4.41707e-19)
(0.227892 0.105672 2.94062e-19)
(0.269606 0.103746 0)
(0.310097 0.100855 0)
(0.348506 0.097221 -5.78183e-19)
(0.384114 0.0930723 0)
(0.416367 0.0886338 -2.83212e-19)
(0.444894 0.0841178 2.81271e-19)
(0.469509 0.0797168 2.77931e-19)
(0.490194 0.075598 -4.96197e-22)
(0.507082 0.0718989 -2.72813e-19)
(0.520416 0.0687242 0)
(0.530521 0.0661484 -5.33451e-19)
(0.537772 0.0642226 5.28212e-19)
(0.542555 0.0629783 0)
(0.545241 0.0624322 0)
(0.546162 0.0626011 0)
(0.545554 0.063487 0)
(0.543411 0.064998 -4.99958e-19)
(0.540544 0.0677477 1.02913e-18)
(0.125797 0.0816574 -0.0155428)
(0.168693 0.0754853 -0.0159363)
(0.202181 0.0852613 -0.0160396)
(0.221594 0.10087 -0.016106)
(0.233673 0.117543 -0.0161092)
(0.239244 0.132444 -0.0160913)
(0.240618 0.144717 -0.0160473)
(0.23901 0.154874 -0.0159894)
(0.235387 0.163838 -0.0159166)
(0.230378 0.172319 -0.0158323)
(0.224336 0.180575 -0.0157413)
(0.217503 0.188628 -0.0156485)
(0.209981 0.196393 -0.0155547)
(0.201918 0.203768 -0.0154576)
(0.193322 0.210739 -0.0153596)
(0.184388 0.21724 -0.0152609)
(0.174987 0.223285 -0.0151635)
(0.165449 0.228868 -0.0150642)