/*--------------------------------*- C++ -*----------------------------------*\
  =========                 |
  \\      /  F ield         | OpenFOAM: The Open Source CFD Toolbox
   \\    /   O peration     | Website:  https://openfoam.org
    \\  /    A nd           | Version:  7
     \\/     M anipulation  |
\*---------------------------------------------------------------------------*/
FoamFile
{
    version     2.0;
    format      ascii;
    class       surfaceScalarField;
    location    "3.5";
    object      phi;
}
// * * * * * * * * * * * * * * * * * * * * * * * * * * * * * * * * * * * * * //

dimensions      [0 3 -1 0 0 0 0];

internalField   nonuniform List<scalar> 
35640
(
-4.84639e-05
0.000989784
-0.000941321
-0.000157534
0.00261427
-0.00250519
-0.000308796
0.00400301
-0.00385175
-0.000486781
0.00514416
-0.00496617
-0.0006785
0.00606557
-0.00587385
-0.000872875
0.00680321
-0.00660884
-0.00106064
0.00738883
-0.00720106
-0.00123427
0.00784675
-0.00767313
-0.00138757
0.00819391
-0.00804061
-0.00151562
0.00844183
-0.00831378
-0.00161452
0.00859828
-0.00849938
-0.00168109
0.00866922
-0.00860264
-0.00171278
0.00866008
-0.00862839
-0.00170753
0.00857652
-0.00858177
-0.00166371
0.00842481
-0.00846863
-0.0015801
0.00821201
-0.00829562
-0.00145587
0.00794578
-0.00807002
-0.00129055
0.00763432
-0.00779964
-0.00108413
0.00728623
-0.00749264
-0.000837063
0.00691019
-0.00715726
-0.00055023
0.00651484
-0.00680168
-0.000225014
0.00610859
-0.0064338
0.000136717
0.00569941
-0.00606114
0.000532617
0.00529482
-0.00569072
0.00095984
0.00490185
-0.00532907
0.00141498
0.00452706
-0.0049822
0.00189397
0.00417681
-0.0046558
0.00239176
0.00385742
-0.0043552
0.00290191
0.00357874
-0.00408889
0.00335523
0.00341551
-0.00386882
-4.40572e-05
0.00103385
-0.00014379
0.002714
-0.000283186
0.00414241
-0.000448369
0.00530934
-0.000627338
0.00624454
-0.000809595
0.00698547
-0.000986052
0.00756529
-0.00114915
0.00800986
-0.00129274
0.00833749
-0.0014118
0.00856089
-0.00150227
0.00868876
-0.00156088
0.00872782
-0.00158491
0.00868411
-0.00157216
0.00856378
-0.00152086
0.0083735
-0.0014296
0.00812075
-0.00129741
0.00781359
-0.00112376
0.00746067
-0.00090854
0.007071
-0.000652117
0.00665377
-0.000355371
0.0062181
-1.97046e-05
0.00577292
0.000352972
0.00532673
0.000760263
0.00488753
0.00119929
0.00446282
0.00166664
0.00405971
0.00215831
0.00368514
0.00266942
0.00334631
0.00319366
0.0030545
0.00282691
0.00372198
-3.89708e-05
0.00107282
-0.000127821
0.00280285
-0.000253246
0.00426784
-0.000403085
0.00545918
-0.000566457
0.00640791
-0.000733458
0.00715247
-0.000895308
0.00772714
-0.00104453
0.00815908
-0.00117495
0.00846791
-0.00128144
0.00866738
-0.00135987
0.00876719
-0.00140685
0.00877479
-0.00141954
0.0086968
-0.00139565
0.00853988
-0.00133328
0.00831113
-0.00123095
0.00801842
-0.00108761
0.00767025
-0.000902647
0.0072757
-0.000675923
0.00684428
-0.00040783
0.00638567
-9.92817e-05
0.00590955
0.00024828
0.00542536
0.000632885
0.00494212
0.00105207
0.00446835
0.0015029
0.00401199
0.00198202
0.00358059
0.00248552
0.00318164
0.00300871
0.00282312
0.00354561
0.0025176
0.00228523
0.00408729
-3.32869e-05
0.0011061
-0.000110066
0.00287963
-0.000219593
0.00437736
-0.000351689
0.00559128
-0.000496652
0.00655288
-0.000645306
0.00730113
-0.000789257
0.00787109
-0.000921107
0.00829093
-0.00103471
0.00858151
-0.00112492
0.0087576
-0.00118752
0.00882979
-0.001219
0.00880628
-0.00121651
0.0086943
-0.00117764
0.00850102
-0.00110049
0.00823397
-0.000983504
0.00790144
-0.000825626
0.00751237
-0.000626253
0.00707633
-0.000385281
0.0066033
-0.000103138
0.00610353
0.000219187
0.00558722
0.000580164
0.00506438
0.000977732
0.00454455
0.00140934
0.00403674
0.00187201
0.00354932
0.00236239
0.00309021
0.00287671
0.00266732
0.00341059
0.00228924
0.00395848
0.0019697
0.00173188
0.00451184
-2.71266e-05
0.00113323
-9.06854e-05
0.00294318
-0.000182575
0.00446925
-0.000294673
0.00570338
-0.000418584
0.00667679
-0.000545892
0.00742844
-0.000668641
0.00799384
-0.000779663
0.00840195
-0.000872835
0.00867468
-0.000942996
0.00882776
-0.000985873
0.00887266
-0.000997953
0.00881836
-0.000976327
0.00867268
-0.000918592
0.00844328
-0.000822818
0.0081382
-0.000687521
0.00776614
-0.000511672
0.00733652
-0.000294725
0.00685938
-3.6664e-05
0.00634524
0.000261975
0.00580489
0.000600095
0.0052491
0.000976051
0.00468842
0.00138766
0.00413294
0.00183227
0.00359213
0.00230685
0.00307474
0.00280803
0.00258903
0.00333219
0.00214316
0.00387526
0.00174617
0.00443228
0.00141269
0.00116885
0.0049953
-2.05758e-05
0.00115381
-6.99616e-05
0.00299257
-0.000142759
0.00454205
-0.000232882
0.0057935
-0.000333279
0.00677719
-0.000436395
0.00753155
-0.000534801
0.00809224
-0.00062159
0.00848874
-0.000690714
0.00874381
-0.000737055
0.0088741
-0.000756351
0.00889196
-0.00074508
0.00880709
-0.00070035
0.00862795
-0.000619809
0.00836274
-0.000501594
0.00801998
-0.000344307
0.00760886
-0.00014702
0.00713924
9.06782e-05
0.00662169
0.000368661
0.00606726
0.00068625
0.0054873
0.0010422
0.00489315
0.00143473
0.0042959
0.0018615
0.00370617
0.00231975
0.00313388
0.00280636
0.00258814
0.00331794
0.00207745
0.00385099
0.00161011
0.00440176
0.0011954
0.00496592
0.000848534
0.00059837
0.0055364
-1.37927e-05
0.0011676
-4.83039e-05
0.00302708
-0.000100804
0.00459455
-0.000167195
0.00585989
-0.000241861
0.00685185
-0.000318164
0.00760786
-0.000389229
0.00816331
-0.000448499
0.00854801
-0.000490091
0.0087854
-0.000508954
0.00889297
-0.000500876
0.00888388
-0.000462392
0.00876861
-0.000390684
0.00855624
-0.000283497
0.00825555
-0.000139092
0.00787558
4.37817e-05
0.00742598
0.000265874
0.00691714
0.000527414
0.00636015
0.000828086
0.00576659
0.00116703
0.00514836
0.00154281
0.00451736
0.00195346
0.00388524
0.00239651
0.00326312
0.00286905
0.00266133
0.00336786
0.00208933
0.00388952
0.00155578
0.00443059
0.00106904
0.00498763
0.000638362
0.00555694
0.000279226
2.27595e-05
0.00613255
-6.93795e-06
0.00117454
-2.61212e-05
0.00304626
-5.74205e-05
0.00462585
-9.86803e-05
0.00590115
-0.00014569
0.00689886
-0.000192798
0.00765496
-0.000233781
0.00820429
-0.000262481
0.00857671
-0.000273235
0.00879616
-0.000261137
0.00888087
-0.000222083
0.00884483
-0.00015271
0.00869923
-5.03239e-05
0.00845385
8.71718e-05
0.00811806
0.00026133
0.00770142
0.000473194
0.00721412
0.000723285
0.00666705
0.00101159
0.00607184
0.00133757
0.00544061
0.00170012
0.00478581
0.0020976
0.00411988
0.00252786
0.00345499
0.00298824
0.00280274
0.00347571
0.00217387
0.00398692
0.00157813
0.00451839
0.0010243
0.00506674
0.000520694
0.00562873
7.63701e-05
0.00620128
-0.000293323
-0.000555479
0.00677952
-1.36641e-07
0.00117467
-3.8544e-06
0.00304998
-1.34098e-05
0.00463541
-2.84947e-05
0.00591624
-4.6294e-05
0.00691666
-6.21855e-05
0.00767086
-7.06572e-05
0.00821276
-6.60215e-05
0.00857208
-4.29222e-05
0.00877306
3.34023e-06
0.00883461
7.67041e-05
0.00877146
0.00018037
0.00859557
0.000316847
0.00831738
0.000488023
0.00794688
0.00069521
0.00749423
0.000939187
0.00697014
0.00122019
0.00638605
0.00153793
0.0057541
0.00189158
0.00508696
0.00227979
0.0043976
0.00270067
0.00369899
0.00315186
0.00300381
0.00363052
0.00232408
0.00413346
0.00167092
0.00465723
0.00105435
0.00519831
0.000483225
0.0057533
-3.4299e-05
0.00631919
-0.000489514
0.00689344
-0.000867581
-0.00113414
0.00747211
6.45127e-06
0.00116822
1.80442e-05
0.00303839
3.0392e-05
0.00462306
4.21018e-05
0.00590453
5.46409e-05
0.00690412
7.1577e-05
0.00765392
9.76515e-05
0.00818669
0.000138003
0.00853172
0.000197603
0.00871346
0.000280867
0.00875134
0.000391503
0.00866083
0.000532488
0.00845458
0.000706088
0.00814378
0.000913928
0.00773904
0.00115703
0.00725113
0.00143586
0.00669131
0.00175032
0.00607158
0.00209981
0.00540462
0.00248319
0.00470358
0.00289881
0.00398197
0.00334453
0.00325327
0.00381775
0.00253059
0.00431545
0.00182637
0.00483429
0.00115208
0.00537072
0.000517918
0.00592116
-6.72092e-05
0.00648225
-0.000595395
0.00705122
-0.00105848
0.00762625
-0.00144261
-0.00171361
0.00820572
1.26861e-05
0.00115554
3.91357e-05
0.00301194
7.31419e-05
0.00458905
0.000111807
0.00586586
0.000155334
0.0068606
0.00020623
0.00760302
0.000268411
0.00812451
0.000346394
0.00845374
0.000444681
0.00861517
0.000567328
0.0086287
0.000717738
0.00851042
0.000898597
0.00827372
0.00111188
0.00793049
0.00135889
0.00749203
0.00164032
0.0069697
0.00195627
0.00637536
0.00230629
0.00572156
0.00268942
0.00502148
0.00310419
0.00428881
0.00354864
0.00353753
0.00402033
0.00278158
0.00451642
0.00203449
0.00503371
0.00130909
0.0055687
0.000617091
0.00611773
-3.11166e-05
0.00667718
-0.000626656
0.0072437
-0.00116192
0.00781463
-0.00162941
0.00838861
-0.00201659
-0.00229034
0.00896534
1.84409e-05
0.0011371
5.8989e-05
0.00297139
0.000114004
0.00453404
0.00017931
0.00580056
0.000253959
0.00678595
0.000339411
0.00751757
0.000438722
0.0080252
0.000555715
0.00833675
0.000694338
0.00847655
0.000858205
0.00846483
0.00105034
0.00831828
0.00127309
0.00805098
0.00152806
0.00767552
0.0018162
0.00720388
0.00213782
0.00664808
0.00249264
0.00602055
0.00287982
0.00533438
0.00329803
0.00460328
0.00374543
0.00384142
0.00421972
0.00306324
0.00471817
0.00228312
0.00523771
0.00151496
0.00577489
0.000771904
0.00632607
6.59073e-05
0.0068875
-0.000592543
0.00745548
-0.00119464
0.00802667
-0.00173311
0.00859846
-0.0022012
0.00916969
-0.00258782
-0.00286151
0.00974086
2.35965e-05
0.0011135
7.72095e-05
0.00291778
0.000152188
0.00445906
0.000243343
0.0057094
0.000348706
0.00668059
0.000468739
0.00739754
0.000605611
0.00788833
0.000762391
0.00817997
0.000942395
0.00829654
0.00114872
0.00825851
0.00138393
0.00808306
0.00164996
0.00778496
0.00194802
0.00737746
0.00227865
0.00687325
0.00264175
0.00628497
0.00303663
0.00562567
0.00346205
0.00490896
0.00391628
0.00414905
0.00439711
0.00336059
0.00490189
0.00255846
0.00542758
0.00175742
0.00597082
0.000971725
0.00652796
0.000214769
0.00709517
-0.000501312
0.00766862
-0.00116599
0.00824457
-0.00177059
0.00881968
-0.00230822
0.00939137
-0.00277289
0.00995871
-0.00315516
-0.00342594
0.0105231
2.80502e-05
0.00108545
9.34485e-05
0.00285238
0.000186979
0.00436553
0.000302724
0.00559366
0.000437855
0.00654546
0.000591904
0.00724349
0.000766149
0.00771408
0.000962851
0.00798326
0.00118463
0.00807476
0.00143399
0.00800915
0.00171298
0.00780407
0.00202305
0.00747489
0.00236496
0.00703555
0.00273883
0.00649939
0.00314412
0.00587969
0.0035797
0.00519008
0.00404394
0.00444472
0.0045347
0.0036583
0.00504936
0.00284593
0.00558491
0.0020229
0.00613799
0.00120434
0.00670493
0.000404788
0.00728183
-0.000362138
0.00786472
-0.0010842
0.00844963
-0.00175091
0.00903284
-0.0023538
0.00961103
-0.00288641
0.0101817
-0.00334359
0.0107442
-0.00371761
-0.00398241
0.0113006
3.17199e-05
0.00105373
0.000107418
0.00277668
0.000217764
0.00425519
0.000356412
0.00545501
0.000519849
0.00638202
0.00070677
0.00705657
0.000917571
0.00750328
0.00115368
0.00774716
0.00141697
0.00781147
0.00170928
0.00771684
0.00203209
0.00748126
0.00238632
0.00712066
0.00277225
0.00664962
0.00318952
0.00608211
0.00363716
0.00543205
0.00411361
0.00471363
0.0046168
0.00394153
0.00514417
0.00313093
0.0056927
0.00229739
0.006259
0.0014566
0.00683933
0.00062401
0.00742969
-0.000185573
0.00802593
-0.000958377
0.00862388
-0.00168215
0.0092195
-0.00234653
0.00980906
-0.00294336
0.0103893
-0.0034667
0.010958
-0.00391228
0.0115145
-0.00427411
-0.00452968
0.0120618
3.45477e-05
0.00101918
0.000118905
0.00269233
0.000244067
0.00413002
0.00040356
0.00529551
0.000593377
0.0061922
0.000811482
0.00683847
0.00105743
0.00725734
0.0013318
0.00747278
0.00163569
0.00750758
0.00197024
0.0073823
0.00233629
0.00711522
0.0027342
0.00672275
0.00316373
0.00622008
0.00362407
0.00562178
0.00411376
0.00494236
0.00463081
0.00419657
0.00517273
0.00339962
0.00573649
0.00256717
0.00631865
0.00171523
0.00691538
0.000859872
0.00752254
1.68489e-05
0.00813577
-0.000798803
0.00875063
-0.00157324
0.00936276
-0.00229427
0.00996804
-0.00295181
0.0105628
-0.00353812
0.011144
-0.00404788
0.0117095
-0.00447776
0.0122589
-0.00482353
-0.00506654
0.0127958
3.65039e-05
0.000982678
0.000127784
0.00260105
0.000265572
0.00399224
0.000443561
0.00511752
0.000657444
0.00597832
0.000904577
0.00659133
0.00118373
0.00697819
0.00149466
0.00716185
0.00183766
0.00716457
0.00221315
0.00700681
0.00262131
0.00670706
0.00306191
0.00628215
0.0035342
0.00574779
0.00403684
0.00511914
0.00456794
0.00441126
0.00512504
0.00363947
0.00570518
0.00281949
0.00630485
0.00196749
0.00692014
0.00109994
0.00754673
0.000233283
0.00818002
-0.000616443
0.00881525
-0.00143404
0.00944767
-0.00220566
0.0100727
-0.00291934
0.0106863
-0.00356539
0.0112848
-0.00413662
0.0118654
-0.00462849
0.0124263
-0.00503866
0.0129674
-0.00536464
-0.0055918
0.0134927
3.7589e-05
0.000945089
0.000134021
0.00250461
0.000282144
0.00384411
0.000476091
0.00492358
0.000711443
0.00574297
0.000985079
0.0063177
0.00129507
0.0066682
0.00164038
0.00681654
0.00202055
0.00678441
0.00243522
0.00659213
0.00288394
0.00625834
0.00336587
0.00580022
0.00387972
0.00523394
0.00442366
0.00457521
0.00499529
0.00383963
0.00559168
0.00304308
0.00620933
0.00220183
0.00684424
0.00133259
0.00749191
0.000452271
0.00814749
-0.000422296
0.00880585
-0.00127481
0.00946182
-0.00209
0.0101103
-0.00285416
0.0107467
-0.00355568
0.0113667
-0.00418544
0.0119671
-0.00473701
0.0125454
-0.00520674
0.0131001
-0.00559339
0.0136316
-0.00589612
-0.00610414
0.0141439
3.78351e-05
0.000907254
0.000137688
0.00240476
0.000293847
0.00368795
0.000501137
0.00471629
0.000755206
0.0054889
0.00105259
0.00602031
0.00139077
0.00633003
0.00176799
0.00643931
0.00218303
0.00636937
0.00263484
0.00614032
0.0031223
0.00577088
0.00364398
0.00527854
0.00419803
0.00467989
0.00478209
0.00399114
0.00539327
0.00322846
0.00602806
0.00240828
0.0066824
0.00154749
0.00735164
0.000663347
0.00803066
-0.000226748
0.00871397
-0.00110561
0.00939591
-0.00195675
0.0100708
-0.00276492
0.0107334
-0.00351671
0.0113788
-0.00420107
0.012003
-0.00480966
0.012603
-0.005337
0.0131767
-0.00578051
0.0137235
-0.00614014
0.0142441
-0.00641671
-0.00660326
0.0147432
3.73062e-05
0.000869949
0.000138955
0.00230311
0.000300951
0.00352596
0.00051902
0.00449822
0.000789042
0.00521888
0.00110736
0.00570199
0.00147096
0.00596643
0.00187747
0.00603281
0.00232497
0.00592187
0.00281175
0.00565354
0.00333604
0.00524659
0.00389582
0.00471876
0.00448868
0.00408703
0.0051117
0.00336812
0.00576139
0.00257877
0.00643361
0.00173606
0.00712359
0.000857507
0.00782598
-3.90383e-05
0.00853491
-0.00093568
0.00924421
-0.00181491
0.0099476
-0.00266014
0.010639
-0.00345634
0.0113129
-0.00419061
0.0119645
-0.00485267
0.0125901
-0.00543519
0.0131869
-0.00593385
0.0137537
-0.00634729
0.0142903
-0.00667676
0.0147984
-0.00692475
-0.00708813
0.0152832
3.60978e-05
0.000833851
0.000138094
0.00220112
0.000303927
0.00336012
0.000530392
0.00427175
0.000813752
0.00493552
0.00115029
0.00536545
0.00153662
0.0055801
0.00196986
0.00559957
0.00244747
0.00544426
0.00296711
0.00513389
0.00352642
0.00468729
0.00412277
0.0041224
0.00475315
0.00345665
0.005414
0.00270727
0.00610113
0.00189164
0.00680965
0.00102754
0.00753398
0.000133179
0.0082679
-0.000772954
0.00900472
-0.0016725
0.00973755
-0.00254774
0.0104596
-0.00338215
0.0111643
-0.00416111
0.0118462
-0.00487248
0.0125005
-0.00550703
0.013124
-0.00605867
0.0137146
-0.00652442
0.0142716
-0.0069043
0.0147957
-0.00720089
0.0152892
-0.00741825
-0.00755688
0.015758
3.43343e-05
0.000799517
0.000135471
0.00209998
0.000303437
0.00319216
0.000536224
0.00403897
0.000830604
0.00464114
0.00118292
0.00501313
0.00158957
0.00517345
0.00204724
0.00514191
0.00255286
0.00493863
0.00310354
0.00458322
0.00369629
0.00409453
0.00432789
0.00349081
0.00499463
0.00278991
0.00569221
0.00200969
0.00641563
0.00116823
0.00715906
0.000284106
0.00791596
-0.000623719
0.00867916
-0.00153615
0.00944111
-0.00243445
0.0101942
-0.00330082
0.0109311
-0.00411904
0.0116452
-0.00487521
0.0123309
-0.00555821
0.012984
-0.00616014
0.0136017
-0.00667636
0.0141827
-0.0071054
0.0147271
-0.00744872
0.0152364
-0.00771023
0.0157136
-0.00789543
-0.00800799
0.0161647
3.21652e-05
0.000767352
0.000131532
0.00200061
0.000300308
0.00302338
0.000537765
0.00380151
0.000841289
0.00433761
0.00120741
0.00464701
0.0016324
0.00474845
0.00211263
0.00466168
0.0026446
0.00440666
0.00322486
0.00400295
0.00384984
0.00346955
0.0045156
0.00282505
0.00521767
0.00208785
0.00595085
0.00127651
0.00670911
0.000409967
0.00748558
-0.000492364
0.00827261
-0.00141075
0.00906202
-0.00232556
0.00984538
-0.00321782
0.0106145
-0.00406991
0.0113617
-0.00486624
0.0120804
-0.0055939
0.0127653
-0.00624314
0.0134128
-0.00680763
0.0140208
-0.00728435
0.0145888
-0.00767348
0.0151181
-0.00797793
0.0156107
-0.0082029
0.0160705
-0.00835518
-0.0084413
0.0165038
2.97581e-05
0.000737594
0.000126783
0.00190359
0.000295495
0.00285467
0.000536485
0.00356052
0.000847834
0.00402626
0.00122635
0.0042685
0.00166829
0.00430651
0.0021698
0.00416017
0.00272697
0.00384949
0.00333584
0.00339408
0.00399217
0.00281322
0.00469122
0.00212599
0.00542758
0.00135149
0.00619497
0.000509119
0.00698619
-0.000381249
0.00779312
-0.00129929
0.00860695
-0.00222458
0.00941848
-0.00313709
0.0102185
-0.00401788
0.0109985
-0.00484984
0.0117506
-0.00561833
0.0124685
-0.00631183
0.0131476
-0.00692225
0.013785
-0.007445
0.0143795
-0.00787887
0.0149317
-0.00822567
0.0154435
-0.00848975
0.0159181
-0.00867751
0.0163598
-0.00879688
-0.00885706
0.0167756
2.72923e-05
0.000710301
0.000121769
0.00180911
0.000290035
0.0026864
0.000534001
0.00331655
0.000852491
0.00370777
0.00124266
0.00387833
0.00170084
0.00384833
0.00222296
0.00363805
0.00280477
0.00326768
0.00344172
0.00275713
0.0041288
0.00212614
0.00486033
0.00139446
0.00562975
0.000582071
0.00642951
-0.00029064
0.00725105
-0.00120279
0.00808494
-0.00213318
0.0089212
-0.00306084
0.00974972
-0.00396561
0.0105608
-0.00482893
0.0113455
-0.00563459
0.0120965
-0.00636934
0.0128081
-0.00702335
0.0134763
-0.00759045
0.0140992
-0.00806798
0.0146769
-0.00845655
0.0152108
-0.00875954
0.0157036
-0.00898261
0.0161593
-0.00913322
0.0165827
-0.0092203
-0.00925555
0.0169812
2.49497e-05
0.000685351
0.000117048
0.00171701
0.000284995
0.00251846
0.000531985
0.00306956
0.000857601
0.00338216
0.00125938
0.00347654
0.00173375
0.00337397
0.00227648
0.00309532
0.00288287
0.00266128
0.00354771
0.00209229
0.00426506
0.00140879
0.00502809
0.00063144
0.00582889
-0.000218732
0.00665846
-0.00112021
0.00750678
-0.0020511
0.00836308
-0.00298948
0.00921632
-0.00391408
0.0100557
-0.00480497
0.0108712
-0.00564443
0.0116542
-0.0064176
0.0123978
-0.00711299
0.0130973
-0.00772282
0.0137498
-0.00824298
0.0143547
-0.00867283
0.0149128
-0.0090147
0.0154267
-0.00927343
0.0158999
-0.00945576
0.0163366
-0.00956991
0.0167419
-0.00962566
-0.00963701
0.0171234
2.29065e-05
0.000662445
0.00011316
0.00162676
0.00028141
0.00235021
0.000532066
0.00281891
0.000865448
0.00304878
0.00127947
0.00306252
0.00177062
0.00288281
0.00233446
0.00253149
0.00296575
0.00202998
0.00365844
0.0013996
0.00440546
0.00066177
0.00519861
-0.000161703
0.00602844
-0.00104856
0.00688436
-0.00197613
0.00775485
-0.0029216
0.00862794
-0.00386257
0.00949171
-0.00477785
0.010335
-0.00564824
0.0111479
-0.00645733
0.0119223
-0.00719207
0.0126525
-0.00784312
0.0133346
-0.00840497
0.0139673
-0.00887571
0.0145511
-0.00925663
0.0150881
-0.00955165
0.0155814
-0.00976676
0.0160351
-0.00990945
0.0164536
-0.00998838
0.0168417
-0.0100138
-0.0100013
0.017206
2.13238e-05
0.000641121
0.000110597
0.00153748
0.000280233
0.00218057
0.000535742
0.0025634
0.000878111
0.00270641
0.00130557
0.00263506
0.00181461
0.00237377
0.00240043
0.00194567
0.00305711
0.00137331
0.00377752
0.00067919
0.00455324
-0.000113953
0.00537448
-0.000982938
0.0062301
-0.00190419
0.00710789
-0.00285392
0.00799493
-0.00380864
0.00887822
-0.00474585
0.00974532
-0.00564495
0.0105851
-0.006488
0.0113882
-0.00726041
0.0121475
-0.00795137
0.0128584
-0.00855402
0.0135187
-0.00906526
0.0141283
-0.00948539
0.0146892
-0.00981752
0.0152045
-0.0100669
0.0156779
-0.0102402
0.0161137
-0.0103452
0.0165158
-0.0103904
0.0168882
-0.0103862
-0.0103475
0.0172345
2.03406e-05
0.00062078
0.000109786
0.00144804
0.000282282
0.00200807
0.000544285
0.0023014
0.000897335
0.00235336
0.00133987
0.00219253
0.00186822
0.00184542
0.00247706
0.00133683
0.00315952
0.000690849
0.00390718
-6.84711e-05
0.00471002
-0.000916798
0.00555649
-0.00182941
0.00643371
-0.00278141
0.00732789
-0.0037481
0.00822493
-0.00470568
0.00911114
-0.00563206
0.00997398
-0.0065078
0.0108028
-0.00731677
0.0115891
-0.00804671
0.0123271
-0.00868945
0.0130139
-0.00924075
0.0136486
-0.00970004
0.014233
-0.0100698
0.0147703
-0.0103547
0.0152646
-0.0105612
0.0157206
-0.0106963
0.0161422
-0.0107668
0.0165314
-0.0107796
0.0168866
-0.0107415
-0.0106746
0.0172137
2.00653e-05
0.000600715
0.000111063
0.00135704
0.000288201
0.00183094
0.000558678
0.00203092
0.000924426
0.00198761
0.00138391
0.00173305
0.00193311
0.00129622
0.00256591
0.000704031
0.00327423
-1.7474e-05
0.0040481
-0.000842342
0.0048757
-0.0017444
0.00574363
-0.00269734
0.0066373
-0.00367508
0.00754154
-0.00465235
0.00844139
-0.00560553
0.00932291
-0.00651357
0.0101739
-0.00735878
0.0109845
-0.00812741
0.0117478
-0.00880994
0.0124594
-0.00940105
0.0131179
-0.00989932
0.0137245
-0.0103066
0.0142823
-0.0106275
0.0147958
-0.0108683
0.0152708
-0.0110362
0.0157134
-0.0111389
0.0161295
-0.0111829
0.0165229
-0.0111731
0.0168902
-0.0111087
0.0171879
-0.0109724
0.00545452
0.0159024
-0.0179414
0.00703981
0.0143451
-0.0159304
0.00809866
0.0159483
-0.0170071
0.00876382
0.0187425
-0.0194076
0.00913101
0.0218197
-0.0221869
0.00928313
0.0246176
-0.0247697
0.00928417
0.0269358
-0.0269368
0.00918276
0.028845
-0.0287436
0.00901228
0.0305096
-0.0303391
0.00879361
0.0320658
-0.0318471
0.00853966
0.033571
-0.0333171
0.00825742
0.0350377
-0.0347554
0.00795244
0.0364504
-0.0361454
0.00762799
0.0377937
-0.0374693
0.00728731
0.0390606
-0.03872
0.0069331
0.0402425
-0.0398883
0.00656705
0.0413396
-0.0409735
0.00619171
0.0423512
-0.0419759
0.00580829
0.043275
-0.0428915
0.005418
0.0441168
-0.0437265
0.00502244
0.0448645
-0.0444689
0.00462195
0.0455343
-0.0451338
0.00421731
0.0461079
-0.0457032
0.00380895
0.0466028
-0.0461945
0.0033965
0.0469993
-0.0465869
0.00298026
0.0473191
-0.0469029
0.00255838
0.0475411
-0.0471192
0.00213227
0.0476883
-0.0472622
0.00170053
0.0477826
-0.0473509
0.0478897
-0.0474623
0.00575132
0.013873
0.00731183
0.0127846
0.00834981
0.0149103
0.00899779
0.0180945
0.00935214
0.0214654
0.00949505
0.0244746
0.00948894
0.0269419
0.00938168
0.0289523
0.00920574
0.0306855
0.00898177
0.0322897
0.00872261
0.0338302
0.00843479
0.0353255
0.00812404
0.0367611
0.00779296
0.0381248
0.00744552
0.0394081
0.00708377
0.0406042
0.00670965
0.0417137
0.00632558
0.0427353
0.0059329
0.0436676
0.00553298
0.0445167
0.00512704
0.0452704
0.00471583
0.0459455
0.00430018
0.0465235
0.0038803
0.0470227
0.00345622
0.0474234
0.00302805
0.0477473
0.0025942
0.047975
0.00215581
0.0481267
0.00171183
0.0482266
0.04833
0.00608126
0.0118791
0.00760031
0.0112656
0.00860834
0.0139023
0.00923436
0.0174685
0.00957365
0.0211261
0.00970632
0.024342
0.0096927
0.0269555
0.00957951
0.0290654
0.00939828
0.0308668
0.00916924
0.0325188
0.008905
0.0340944
0.00861179
0.0356187
0.00829546
0.0370774
0.007958
0.0384623
0.00760388
0.0397622
0.00723469
0.0409734
0.00685264
0.0420957
0.00645991
0.043128
0.00605808
0.0440695
0.00564854
0.0449263
0.00523225
0.0456867
0.0048104
0.0463674
0.00438369
0.0469503
0.00395236
0.047454
0.00351664
0.0478591
0.00307649
0.0481874
0.0026307
0.0484208
0.00217988
0.0485775
0.00172359
0.0486829
0.0487834
0.00644377
0.00994712
0.00790458
0.00980475
0.00887359
0.0129333
0.00947293
0.0168691
0.00979506
0.0208039
0.00991647
0.0242206
0.00989514
0.0269768
0.00977603
0.0291846
0.0095897
0.0310531
0.00935578
0.0327527
0.00908664
0.0343636
0.00878833
0.035917
0.00846649
0.0373993
0.008123
0.0388058
0.00776219
0.040123
0.00738577
0.0413498
0.00699598
0.0424855
0.00659466
0.0435294
0.00618382
0.0444803
0.00576462
0.0453455
0.00533807
0.0461133
0.00490563
0.0467998
0.00446782
0.0473881
0.00402516
0.0478967
0.0035777
0.0483066
0.00312568
0.0486395
0.00266778
0.0488786
0.00220463
0.0490406
0.00173576
0.0491517
0.04925
0.00683818
0.00810424
0.008224
0.00841893
0.00914481
0.0120124
0.0097128
0.0163011
0.0100158
0.020501
0.0101252
0.0241112
0.010096
0.027006
0.00997092
0.0293096
0.00977965
0.0312444
0.00954117
0.0329912
0.00926735
0.0346374
0.00896417
0.0362202
0.00863691
0.0377266
0.00828777
0.0391549
0.0079204
0.0404904
0.0075369
0.0417333
0.00713949
0.0428829
0.00672971
0.0439391
0.00630996
0.0449
0.00588111
0.0457743
0.00544444
0.04655
0.00500144
0.0472428
0.00455252
0.047837
0.00409857
0.0483506
0.00363937
0.0487658
0.00317551
0.0491033
0.0027054
0.0493488
0.00222995
0.0495161
0.00174832
0.0496334
0.0497299
0.00726341
0.00637722
0.00855773
0.00712462
0.00942127
0.0111489
0.00995343
0.015769
0.0102353
0.0202191
0.010332
0.0240144
0.0102948
0.0270433
0.010164
0.0294404
0.00996795
0.0314404
0.00972518
0.0332339
0.00944692
0.0349157
0.00913911
0.036528
0.00880667
0.038059
0.00845207
0.0395095
0.0080784
0.040864
0.00768797
0.0421238
0.00728309
0.0432878
0.00686499
0.0443572
0.00643639
0.0453286
0.00599802
0.0462127
0.00555129
0.0469967
0.00509774
0.0476964
0.0046378
0.0482969
0.00417256
0.0488159
0.00370164
0.0492367
0.00322594
0.049579
0.00274362
0.0498311
0.00225581
0.0500039
0.00176132
0.0501279
0.0502233
0.0077179
0.00479187
0.00890481
0.0059377
0.0097022
0.0103515
0.0101943
0.0152769
0.0104532
0.0199602
0.0105367
0.0239309
0.0104913
0.0270887
0.0103549
0.0295768
0.0101544
0.0316409
0.00990756
0.0334808
0.00962513
0.0351981
0.00931298
0.0368401
0.00897563
0.0383964
0.00861574
0.0398694
0.00823603
0.0412437
0.00783884
0.042521
0.00742663
0.0437
0.00700043
0.0447834
0.00656302
0.0457661
0.00611528
0.0466604
0.00565856
0.0474534
0.00519451
0.0481604
0.00472359
0.0487678
0.00424709
0.0492924
0.00376448
0.0497193
0.00327694
0.0500666
0.00278242
0.0503256
0.00228221
0.0505041
0.00177473
0.0506353
0.0507302
0.00819954
0.00337184
0.00926409
0.00487316
0.00998687
0.00962873
0.0104348
0.014829
0.0106691
0.0197259
0.0107388
0.0238612
0.0106853
0.0271421
0.0105435
0.0297187
0.0103387
0.0318457
0.0100881
0.0337314
0.00980179
0.0354844
0.00948558
0.0371563
0.00914358
0.0387384
0.00877862
0.0402344
0.00839313
0.0416292
0.00798939
0.0429247
0.00757001
0.0441194
0.00713591
0.0452175
0.00668979
0.0462122
0.0062328
0.0471174
0.00576618
0.04792
0.00529168
0.0486349
0.00480983
0.0492497
0.00432211
0.0497801
0.00382786
0.0502136
0.00332847
0.0505659
0.00282176
0.0508323
0.00230913
0.0510167
0.00178859
0.0511559
0.0512509
0.00870447
0.00213948
0.00963411
0.00394352
0.0102745
0.00898834
0.0106745
0.014429
0.0108826
0.0195178
0.0109381
0.0238058
0.0108766
0.0272036
0.0107294
0.0298658
0.0105207
0.0320544
0.0102665
0.0339855
0.00997668
0.0357742
0.0096567
0.0374763
0.00931035
0.0390847
0.00894057
0.0406041
0.00854956
0.0420203
0.00813949
0.0433348
0.0077131
0.0445458
0.00727131
0.0456593
0.00681661
0.0466669
0.00635049
0.0475835
0.00587407
0.0483964
0.00538921
0.0491198
0.00489647
0.0497424
0.00439757
0.050279
0.00389174
0.0507194
0.00338052
0.0510772
0.00286161
0.0513512
0.00233655
0.0515418
0.00180292
0.0516895
0.0517855
0.00922645
0.00111874
0.0100132
0.00315673
0.0105642
0.00843741
0.0109129
0.0140803
0.0110934
0.0193372
0.0111342
0.0237649
0.0110648
0.0272731
0.0109126
0.030018
0.0107002
0.0322668
0.0104427
0.034243
0.0101496
0.0360673
0.00982616
0.0377998
0.00947576
0.0394351
0.00910142
0.0409785
0.00870515
0.0424165
0.00828902
0.0437509
0.00785579
0.044979
0.00740651
0.0461086
0.0069434
0.04713
0.00646826
0.0480587
0.00598215
0.0488825
0.00548704
0.0496149
0.00498346
0.050246
0.0044734
0.050789
0.00395604
0.0512368
0.00343303
0.0516002
0.00290196
0.0518823
0.00236444
0.0520793
0.00181772
0.0522362
0.0523342
0.00976488
0.000319203
0.0103994
0.00252222
0.010855
0.00798184
0.0111494
0.0137858
0.0113012
0.0191854
0.0113271
0.023739
0.0112498
0.0273504
0.0110928
0.0301751
0.0108769
0.0324827
0.0106165
0.0345034
0.0103204
0.0363634
0.00999377
0.0381264
0.00963963
0.0397893
0.009261
0.0413571
0.00885974
0.0428178
0.00843783
0.0441728
0.00799795
0.0454189
0.00754139
0.0465652
0.00707007
0.0476013
0.00658606
0.0485427
0.00609036
0.0493782
0.00558509
0.0501202
0.00507076
0.0507603
0.00454958
0.0513102
0.00402073
0.0517656
0.00348596
0.0521349
0.0029428
0.0524254
0.00239281
0.0526293
0.001833
0.0527961
0.0528971
0.0103151
-0.000255035
0.0107901
0.00204725
0.0111457
0.00762621
0.0113837
0.0135479
0.0115058
0.0190633
0.0115166
0.0237282
0.0114315
0.0274355
0.0112698
0.0303368
0.0110508
0.0327017
0.0107876
0.0347666
0.0104888
0.0366622
0.0101593
0.0384559
0.00980177
0.0401468
0.00941914
0.0417398
0.00901318
0.0432237
0.00858576
0.0446002
0.00813948
0.0458652
0.00767583
0.0470288
0.0071965
0.0480806
0.00670378
0.0490354
0.00619861
0.0498834
0.00568328
0.0506355
0.00515829
0.0512853
0.00462605
0.0518424
0.00408575
0.0523059
0.00353926
0.0526814
0.00298409
0.0529806
0.00242164
0.0531918
0.00184874
0.053369
0.0534745
0.0108701
-0.000602014
0.0111815
0.00173586
0.011435
0.00737268
0.0116151
0.0133678
0.0117068
0.0189716
0.0117024
0.0237325
0.0116098
0.0275281
0.0114437
0.0305029
0.0112217
0.0329237
0.010956
0.0350323
0.0106547
0.0369634
0.0103227
0.038788
0.009962
0.0405075
0.00957566
0.0421261
0.0091653
0.0436341
0.00873266
0.0450329
0.00828023
0.0463176
0.00780973
0.0474993
0.00732259
0.0485678
0.00682133
0.0495367
0.00630683
0.0503979
0.00578155
0.0511608
0.00524599
0.0518209
0.00470274
0.0523857
0.00415105
0.0528576
0.00359288
0.0532396
0.00302579
0.0535477
0.00245093
0.0537666
0.00186493
0.053955
0.0540663
0.0114254
-0.000726734
0.0115691
0.00159209
0.0117216
0.00722025
0.0118429
0.0132465
0.0119039
0.0189106
0.0118845
0.0237519
0.0117844
0.0276282
0.0116142
0.0306731
0.0113893
0.0331485
0.0111214
0.0353002
0.0108179
0.0372669
0.0104836
0.0391223
0.0101201
0.0408709
0.0097304
0.0425158
0.00931593
0.0440486
0.00887838
0.0454704
0.00842007
0.0467759
0.00794297
0.0479764
0.00744823
0.0490625
0.00693861
0.0500463
0.00641494
0.0509216
0.00587983
0.0516959
0.0053338
0.0523669