/*--------------------------------*- C++ -*----------------------------------*\
  =========                 |
  \\      /  F ield         | OpenFOAM: The Open Source CFD Toolbox
   \\    /   O peration     | Website:  https://openfoam.org
    \\  /    A nd           | Version:  7
     \\/     M anipulation  |
\*---------------------------------------------------------------------------*/
FoamFile
{
    version     2.0;
    format      ascii;
    class       surfaceScalarField;
    location    "6";
    object      phi;
}
// * * * * * * * * * * * * * * * * * * * * * * * * * * * * * * * * * * * * * //

dimensions      [0 3 -1 0 0 0 0];

internalField   nonuniform List<scalar> 
15760
(
1.63521e-05
0.000885496
-0.000901848
6.48871e-05
0.00234184
-0.00239038
0.000142777
0.00357753
-0.00365542
0.000247413
0.00464067
-0.0047453
0.000376346
0.00556684
-0.00569577
0.000527225
0.0063823
-0.00653317
0.000697773
0.00710663
-0.00727718
0.000885783
0.00775465
-0.00794266
0.00108911
0.00833766
-0.00854099
0.00130565
0.00886445
-0.00908099
0.00153337
0.00934189
-0.00956961
0.00177025
0.00977544
-0.0100123
0.00201431
0.0101695
-0.0104135
0.00226359
0.0105276
-0.0107768
0.00251618
0.0108526
-0.0111051
0.00277019
0.0111468
-0.0114008
0.0030238
0.0114124
-0.011666
0.00327526
0.0116509
-0.0119024
0.00352293
0.0118637
-0.0121113
0.0120512
0.00376521
-0.0122935
1.7039e-05
0.000868457
6.71957e-05
0.00229169
0.000148034
0.00349669
0.00025711
0.00453159
0.000392043
0.0054319
0.000550508
0.00622383
0.000730242
0.0069269
0.000929039
0.00755585
0.00114475
0.00812195
0.00137526
0.00863394
0.00161849
0.00909865
0.00187239
0.00952154
0.00213491
0.00990696
0.00240402
0.0102585
0.00267769
0.0105789
0.00295391
0.0108706
0.00323072
0.0111356
0.00350621
0.0113754
0.00377856
0.0115913
0.0117838
0.00404598
1.76651e-05
0.000850792
6.94819e-05
0.00223987
0.000153328
0.00341285
0.000266917
0.004418
0.000407928
0.00529089
0.000574062
0.0060577
0.000763062
0.0067379
0.000972727
0.00734619
0.0012009
0.00789378
0.00144547
0.00838937
0.00170433
0.00883979
0.0019754
0.00925047
0.00225658
0.00962579
0.00254576
0.00996927
0.00284081
0.0102838
0.00313961
0.0105718
0.00344003
0.0108352
0.00374
0.0110754
0.00403748
0.0112938
0.0114909
0.00433045
1.82375e-05
0.000832554
7.17675e-05
0.00218634
0.000158721
0.0033259
0.000276948
0.00429977
0.000424176
0.00514366
0.000598118
0.00588376
0.000796523
0.00653949
0.00101719
0.00712552
0.00125797
0.007653
0.00151673
0.00813061
0.00179138
0.00856514
0.0020798
0.00896205
0.00237986
0.00932572
0.0026894
0.00965974
0.0030062
0.00996703
0.00332801
0.01025
0.00365255
0.0105106
0.00397754
0.0107504
0.00430069
0.0109707
0.0111718
0.00461973
1.87772e-05
0.000813777
7.40994e-05
0.00213102
0.000164309
0.00323569
0.000287359
0.00417672
0.000441007
0.00499001
0.00062297
0.00570179
0.000830992
0.00633147
0.00106287
0.00689364
0.00131644
0.00739943
0.0015896
0.00785744
0.00188025
0.0082745
0.00218627
0.00865603
0.00250552
0.00900648
0.00283578
0.00932948
0.00317477
0.00962804
0.00352011
0.00990466
0.00386936
0.0101614
0.00422004
0.0103998
0.00456959
0.0106211
0.010826
0.00491537
1.93081e-05
0.000794469
7.65371e-05
0.00207379
0.000170204
0.00314202
0.000298334
0.00404859
0.000458691
0.00482966
0.000648978
0.00551151
0.00086692
0.00611353
0.0011103
0.00665026
0.00137697
0.00713276
0.00166482
0.0075696
0.00197176
0.00796755
0.0022957
0.00833209
0.00263449
0.00866768
0.00298591
0.00897806
0.0033476
0.00926634
0.00371712
0.00953515
0.00409183
0.00978665
0.00446904
0.0100226
0.00484588
0.0102443
0.0104526
0.00521933
1.98609e-05
0.000774608
7.91583e-05
0.00201449
0.000176552
0.00304462
0.000310101
0.00391504
0.000477553
0.00466221
0.000676571
0.00531249
0.000904847
0.00588526
0.00116014
0.00639497
0.0014403
0.0068526
0.00174322
0.00726667
0.00206685
0.00764392
0.00240912
0.00798982
0.00276791
0.00830889
0.003141
0.00860497
0.00352604
0.0088813
0.00392048
0.00914072
0.00432156
0.00938556
0.00472634
0.00961779
0.00513162
0.00983901
0.0100503
0.00553395
2.04681e-05
0.00075414
8.2051e-05
0.00195291
0.000183515
0.00294316
0.00032292
0.00377564
0.000497961
0.00448716
0.000706241
0.00510421
0.000945395
0.0056461
0.00121315
0.00612721
0.00150732
0.00655842
0.00182584
0.00694816
0.00216666
0.0073031
0.00252777
0.00762871
0.0029071
0.00792956
0.0033025
0.00820957
0.0037116
0.0084722
0.00413185
0.00872047
0.00456036
0.00895705
0.00499397
0.00918419
0.00542914
0.00940383
0.00961751
0.00586189
2.11638e-05
0.000732976
8.53113e-05
0.00188876
0.000191276
0.00283719
0.000337077
0.00362984
0.000520326
0.00430392
0.000738533
0.004886
0.000989256
0.00539538
0.00127016
0.00584631
0.00157904
0.00624954
0.00191381
0.00661339
0.00227247
0.00694444
0.00265306
0.00724813
0.00305359
0.00752903
0.003472
0.00779117
0.00390599
0.0080382
0.00435304
0.00827343
0.0048102
0.00849989
0.00527412
0.00872026
0.00574093
0.00893703
0.00915237
0.00620606
2.19828e-05
0.000710993
8.90411e-05
0.0018217
0.000200028
0.00272621
0.000352879
0.00347699
0.000545085
0.00411171
0.000774037
0.00465705
0.00103718
0.00513223
0.00133211
0.00555138
0.00165656
0.00592509
0.00200843
0.00626152
0.00238573
0.00656714
0.00278658
0.00684728
0.00320908
0.00710652
0.00365129
0.00734896
0.00411108
0.00757841
0.00458601
0.00779851
0.00507316
0.00801274
0.00556907
0.00822435
0.00606955
0.00843655
0.0086525
0.00656942
2.29604e-05
0.000688032
9.3345e-05
0.00175132
0.00020997
0.00260958
0.000370643
0.00331632
0.000572696
0.00390966
0.000813367
0.00441638
0.00108997
0.00485563
0.00139999
0.00524137
0.00174107
0.00558401
0.00211108
0.00589151
0.00250803
0.00617019
0.00293007
0.00642524
0.00337545
0.00666115
0.00384236
0.00688204
0.0043289
0.00709187
0.00483282
0.00729459
0.00535137
0.00749419
0.00588108
0.00769464
0.00641752
0.00790011
0.00811511
0.00695492
2.41313e-05
0.000663901
9.83274e-05
0.00167712
0.000221303
0.00248661
0.000390687
0.00314693
0.000603619
0.00369672
0.00085715
0.00416285
0.00114843
0.00456434
0.00147481
0.00491499
0.00183382
0.005225
0.00222324
0.00550209
0.00264106
0.00575237
0.00308546
0.00598084
0.00355477
0.00619184
0.00404739
0.00638942
0.00456166
0.0065776
0.00509567
0.00676057
0.00564699
0.00694287
0.00621235
0.00712928
0.00678722
0.00732525
0.00753707
0.00736525
2.55293e-05
0.000638372
0.00010409
0.00159856
0.000234221
0.00235648
0.000413321
0.00296783
0.0006383
0.00347175
0.000905994
0.00389515
0.00121337
0.00425697
0.00155759
0.00457077
0.00193606
0.00484652
0.00234644
0.00509171
0.00278663
0.00531218
0.00325479
0.00551268
0.00374931
0.00569732
0.00426876
0.00586998
0.00481178
0.00603457
0.00537692
0.00619544
0.00596224
0.00635755
0.00656495
0.00652657
0.00718073
0.00670947
0.00691502
0.00780277
2.71859e-05
0.000611186
0.000110727
0.00151502
0.000248903
0.0022183
0.000438831
0.0027779
0.000677153
0.00323342
0.000960468
0.00361184
0.00128553
0.00393191
0.0016493
0.004207
0.00204903
0.0044468
0.00248219
0.00465855
0.00294657
0.0048478
0.00344023
0.00501902
0.00396153
0.00517602
0.00450915
0.00532235
0.00508203
0.00546169
0.0056792
0.00559827
0.00629949
0.00573726
0.00694095
0.00588511
0.00759989
0.00605053
0.00624551
0.00826941
2.91295e-05
0.000582056
0.000118322
0.00142583
0.000265508
0.00207111
0.000467467
0.00257595
0.000720539
0.00298035
0.00102106
0.00331131
0.00136557
0.00358741
0.00175081
0.00382175
0.00217383
0.00402378
0.00263193
0.00420045
0.00312268
0.00435705
0.00364397
0.00449773
0.00419404
0.00462595
0.00477155
0.00474485
0.00537559
0.00485765
0.0060057
0.00496816
0.00666159
0.00508136
0.00734262
0.00520408
0.00804647
0.00534668
0.00552529
0.0087667
3.13846e-05
0.000550671
0.000126946
0.00133027
0.000284166
0.00191389
0.000499427
0.00236068
0.00076874
0.00271104
0.00108817
0.00299188
0.00145401
0.00322157
0.0018628
0.00341296
0.00231139
0.00357519
0.00279685
0.00371499
0.00331655
0.00383735
0.00386811
0.00394616
0.00444953
0.00404453
0.00505924
0.00413514
0.00569629
0.0042206
0.00636049
0.00430396
0.00705242
0.00438943
0.00777312
0.00448339
0.00852267
0.00459713
0.00475174
0.00929621
3.39707e-05
0.0005167
0.000136652
0.00122759
0.000304969
0.00174558
0.000534849
0.0021308
0.000821943
0.00242394
0.00116203
0.00265179
0.00155117
0.00283244
0.00198571
0.00297841
0.0024623
0.00309861
0.00297782
0.00319946
0.00352941
0.00328576
0.00411443
0.00336115
0.00473051
0.00342845
0.0053757
0.00348995
0.00604866
0.00354764
0.00674901
0.0036036
0.00747779
0.00366066
0.0082377
0.00372347
0.00903236
0.00380247
0.00392351
0.0098606
3.69016e-05
0.000479799
0.000147473
0.00111701
0.000327967
0.00156508
0.000573794
0.00188498
0.000880216
0.00211752
0.00124272
0.00228929
0.00165714
0.00241802
0.00211965
0.0025159
0.00262674
0.00259152
0.00317516
0.00265104
0.00376187
0.00269905
0.00438402
0.002739
0.00503892
0.00277354
0.00572414
0.00280473
0.00643766
0.00283412
0.0071783
0.00286296
0.0079465
0.00289245
0.00874557
0.0029244
0.00958312
0.00296493
0.00303932
0.0104673
4.01847e-05
0.000439614
0.000159419
0.000997781
0.000353162
0.00137134
0.00061624
0.0016219
0.000943495
0.00179027
0.00133011
0.00190267
0.00177171
0.00197642
0.00226432
0.0020233
0.00280433
0.00205151
0.00338844
0.00206694
0.00401355
0.00207393
0.00467679
0.00207576
0.00537538
0.00207495
0.00610663
0.00207348
0.00686795
0.0020728
0.00765707
0.00207385
0.00847261
0.00207691
0.00931539
0.00208162
0.0101937
0.00208664
0.00209291
0.0111401
4.38214e-05
0.000395793
0.000172478
0.000869124
0.000380506
0.00116331
0.000662075
0.00134033
0.00101157
0.00144077
0.00142387
0.00149037
0.00189438
0.00150591
0.00241901
0.00149867
0.00299409
0.00147643
0.00361635
0.00144468
0.00428284
0.00140744
0.0049909
0.0013677
0.00573811
0.00132774
0.00652231
0.00128928
0.00734154
0.00125357
0.00819416
0.00122123
0.00907902
0.00119206
0.00999439
0.00116625
0.0109369
0.00114415
0.0119304
0.00109939
0.0040779
0.043952
-0.0442647
0.0043013
0.0457344
-0.0459578
0.00440674
0.0470209
-0.0471263
0.00441221
0.0480282
-0.0480336
0.00432626
0.0488431
-0.0487572
0.00416566
0.0495748
-0.0494142
0.00394573
0.0502919
-0.0500719
0.003681
0.0510398
-0.0507751
0.00338412
0.0518387
-0.0515418
0.00306583
0.0526902
-0.052372
0.00273521
0.0535829
-0.0532523
0.00239978
0.0544962
-0.0541607
0.00206574
0.0554045
-0.0550705
0.00173796
0.0562796
-0.0559518
0.00141997
0.0570926
-0.0567746
0.00111392
0.0578157
-0.0575096
0.000820439
0.0584242
-0.0581307
0.000538688
0.0588971
-0.0586154
0.000266376
0.0592195
-0.0589472
0.0593793
-0.0591129
0.00441307
0.0435849
0.00468342
0.045464
0.00482728
0.046877
0.00486236
0.0479931
0.0047967
0.0489088
0.0046471
0.0497244
0.00442933
0.0505096
0.00415864
0.0513105
0.00384848
0.0521489
0.00351037
0.0530284
0.00315405
0.0539392
0.00278758
0.0548626
0.00241762
0.0557745
0.0020494
0.0566478
0.00168681
0.0574551
0.0013324
0.0581701
0.000987326
0.0587692
0.000651415
0.059233
0.00032317
0.0595477
0.0597025
0.00474876
0.0431666
0.00506494
0.0451478
0.00524682
0.0466952
0.00531181
0.0479281
0.00526717
0.0489535
0.00512944
0.0498621
0.00491466
0.0507244
0.00463864
0.0515865
0.00431558
0.0524719
0.00395776
0.0533862
0.00357562
0.0543213
0.00317785
0.0552604
0.00277159
0.0561807
0.0023625
0.0570569
0.00195491
0.0578627
0.00155179
0.0585732
0.00115484
0.0591662
0.000764532
0.0596233
0.00038016
0.0599321
0.0600826
0.00508536
0.042701
0.0054457
0.0447875
0.00566478
0.0464761
0.0057597
0.0478332
0.0057366
0.0489766
0.00561155
0.0499871
0.00540058
0.0509354
0.00511995
0.0518671
0.00478448
0.0528074
0.00440723
0.0537634
0.00399934
0.0547292
0.00357015
0.0556896
0.00312735
0.0566235
0.00267711
0.0575072
0.0022242
0.0583156
0.00177208
0.0590253
0.001323
0.0596153
0.000878081
0.0600683
0.000437376
0.0603728
0.06052
0.0054237
0.0421927
0.00582589
0.0443853
0.00608087
0.0462211
0.00620533
0.0477087
0.00620406
0.0489778
0.00609233
0.0500989
0.00588598
0.0511418
0.0056015
0.0521516
0.00525426
0.0531546
0.00485799
0.0541597
0.00442456
0.0551627
0.00396398
0.0561502
0.00348455
0.057103
0.00299299
0.0579987
0.00249455
0.0588141
0.00199324
0.0595267
0.00149182
0.0601167
0.00099208
0.060568
0.00049483
0.0608701
0.0610149
0.00576503
0.0416469
0.00620603
0.0439443
0.00649509
0.045932
0.00664827
0.0475555
0.00666878
0.0489573
0.00657084
0.0501968
0.00636984
0.0513428
0.0060823
0.0524392
0.00572399
0.053513
0.00530924
0.0545744
0.00485063
0.0556213
0.00435885
0.0566419
0.00384285
0.057619
0.00330991
0.0585317
0.00276585
0.0593581
0.00221519
0.0600773
0.00166129
0.0606706
0.00110654
0.0611228
0.000552537
0.0614241
0.0615674
0.00611106
0.0410698
0.00658703
0.0434683
0.00690778
0.0456113
0.0070883
0.047375
0.00713019
0.0489154
0.00704625
0.0502807
0.0068512
0.0515378
0.00656137
0.052729
0.00619275
0.0538816
0.00576018
0.055007
0.00527688
0.0561046
0.00475423
0.0571646
0.00420184
0.0581714
0.00362761
0.0591059
0.00303792
0.0599478
0.00243786
0.0606774
0.00183136
0.0612771
0.00122146
0.0617326
0.000610503
0.062035
0.0621779
0.00646392
0.0404678
0.00697015
0.0429621
0.00731956
0.0452619
0.00752549
0.0471691
0.00758788
0.048853
0.00751783
0.0503508
0.00732916
0.0517265
0.00703775
0.0530204
0.00665962
0.0542597
0.00620998
0.0554567
0.00570261
0.0566119
0.00514957
0.0577176
0.00456111
0.0587598
0.00394579
0.0597212
0.00331058
0.060583
0.00266113
0.0613268
0.00200198
0.0619362
0.00133683
0.0623978
0.000668722
0.0627031
0.0628466
0.00682614
0.0398477
0.00735701
0.0424312
0.00773142
0.0448875
0.00796015
0.0469404
0.00804165
0.0487715
0.00798502
0.0504074
0.00780293
0.0519086
0.00751054
0.0533128
0.00712369
0.0546466
0.00665779
0.0559225
0.00612709
0.0571426
0.00554426
0.0583005
0.0049202
0.0593839
0.00426411
0.0603773
0.00358358
0.0612636
0.00288486
0.0620256
0.00217309
0.062648
0.00145259
0.0631183
0.000727187
0.0634285
0.0635738
0.00720057
0.0392166
0.00774957
0.0418822
0.00814461
0.0444924
0.00839286
0.0466921
0.00849149
0.0486729
0.00844737
0.0504515
0.00827177
0.0520841
0.00797886
0.0536057
0.00758405
0.0550414
0.00710275
0.0564038
0.00654955
0.0576958
0.00593765
0.0589124
0.00527858
0.0600429
0.00458218
0.0610737
0.00385666
0.0619891
0.00310887
0.0627734
0.00234457
0.0634123
0.00156872
0.0638942
0.000785875
0.0642114
0.0643597
0.00759033
0.0385812
0.00815005
0.0413225
0.00856063
0.0440818
0.00882439
0.0464284
0.00893755
0.0485597
0.00890454
0.0504846
0.00873502
0.0522537
0.00844187
0.0538989
0.00803978
0.0554435
0.00754396
0.0568997
0.00696918
0.0582706
0.00632904
0.0595525
0.00563569
0.0607363
0.00489956
0.0618098
0.00412949
0.0627592
0.00333294
0.0635699
0.00251627
0.064229
0.00168511
0.0647253
0.000844755
0.0650517
0.0652044
0.00799864
0.0379478
0.00856094
0.0407602
0.00898121
0.0436616
0.00925569
0.0461539
0.00938011
0.0484353
0.0093563
0.0505084
0.00919207
0.0524179
0.00889873
0.0541922
0.00848996
0.0558522
0.0079805
0.0574091
0.00738509
0.058866
0.00671768
0.0602199
0.00599088
0.0614631
0.00521573
0.062585
0.00440169
0.0635732
0.00355679
0.0644148
0.00268803
0.0650977
0.00180168
0.0656117
0.000903782
0.0659496
0.0661082
0.00842876
0.0373218
0.00898488
0.0402041
0.00940819
0.0432383
0.00968784
0.0458742
0.00981954
0.0483036
0.00980248
0.0505254
0.00964236
0.052578
0.00934863
0.0544859
0.00893363
0.0562672
0.00841137
0.0579314
0.00779636
0.059481
0.0071027
0.0609136
0.00634342
0.0622224
0.00553011
0.0633983
0.00467278
0.0644305
0.00378009
0.0653075
0.00285961
0.0660182
0.00191828
0.066553
0.000962895
0.066905
0.0670711
0.00888378
0.0367074
0.0094246
0.0396633
0.00984343
0.0428194
0.0101219
0.0455957
0.0102562
0.0481693
0.0102429
0.0505387
0.0100853
0.0527356
0.00979072
0.0547805
0.00936981
0.0566881
0.00883553
0.0584657
0.00820195
0.0601146
0.00748317
0.0616323
0.0066925
0.0630131
0.00584199
0.0642488
0.00494223
0.0653303
0.00400241
0.0662473
0.00303073
0.0669899
0.00203474
0.067549
0.00102201
0.0679177
0.0680931
0.00936659
0.0361075
0.00988289
0.039147
0.0102888
0.0424135
0.010559
0.0453256
0.0106905
0.0480377
0.0106774
0.0505519
0.0105204
0.0528926
0.0102242
0.0550768
0.00979745
0.0571149
0.00925186
0.0590112
0.00860076
0.0607657
0.00785802
0.0623751
0.00703715
0.0638339
0.00615057
0.0651354
0.00520936
0.0662715
0.00422325
0.0672334
0.00320101
0.0680121
0.00215083
0.0685992
0.00108102
0.0689876
0.0691741
0.00987975
0.035524
0.0103625
0.0386642
0.010746
0.0420301
0.0109999
0.0450716
0.0111227
0.0479149
0.0111058
0.0505687
0.010947
0.0530515
0.010648
0.0553757
0.0102155
0.0575475
0.00965916
0.0595675
0.00899153
0.0614334
0.00822606
0.0631405
0.00737627
0.0646837
0.00645486
0.0660568
0.00547335
0.067253
0.00444196
0.0682648
0.00336999
0.0690841
0.00226624
0.0697029
0.00113978
0.070114
0.0703139
0.0104243
0.0349603
0.0108649
0.0382236
0.0112156
0.0416793
0.0114448
0.0448424
0.0115525
0.0478072
0.0115275
0.0505938
0.0113641
0.0532149
0.0110612
0.0556787
0.0106224
0.0579862
0.0100559
0.0601341
0.00937274
0.0621165
0.00858581
0.0639275
0.00770848
0.0655611
0.00675364
0.0670116
0.00573316
0.0682735
0.0046577
0.0693403
0.00353705
0.0702047
0.00238059
0.0708594
0.00119811
0.0712965
0.071512
0.010999
0.0344286
0.0113887
0.0378338
0.0116961
0.0413719
0.0118919
0.0446466
0.011978
0.0477212
0.0119405
0.0506313
0.01177
0.0533854
0.0114617
0.055987
0.0110165
0.0584314
0.0104402
0.0607103
0.00974246
0.0628142
0.0089354
0.0647345
0.00803207
0.0664644
0.00704538
0.0679983
0.00598748
0.0693314
0.0048694
0.0704584
0.00370138
0.0713727
0.00249334
0.0720674
0.00125576
0.0725341
0.0727678
0.0116134
0.0339554
0.0119386
0.0375086
0.0121893
0.0411212
0.0123417
0.0444942
0.0123995
0.0476633
0.0123451
0.0506856
0.0121645
0.053566
0.0118492
0.0563023
0.0113969
0.0588837
0.010811
0.0612962
0.0100995
0.0635257
0.00927343
0.0655606
0.0083455
0.0673923
0.00732856
0.0690153
0.00623488
0.0704251
0.00507584
0.0716174
0.00386203
0.0725866
0.00260386
0.0733256
0.00131243
0.0738255
0.0740802
0.0123013
0.0335845
0.0125415
0.0372684
0.0127097
0.0409531
0.0128056
0.0443983
0.012826
0.0476429
0.0127484
0.0507633
0.012553
0.0537614
0.0122273
0.056628
0.0117656
0.0593454
0.0111686
0.0618932
0.0104427
0.0642516
0.00959785
0.0664055
0.00864606
0.0683441
0.00760007
0.0700613
0.00647225
0.0715529
0.00527415
0.0728155
0.00401664
0.0738441
0.0027105
0.0746317
0.0013673
0.0751687
0.0754475
0.0318553
0.0378233
-0.0360941
0.0292086
0.0399151
0.0275501
0.0426116
0.0264432
0.0455052
0.0256013
0.0484847
0.0248438
0.0515208
0.0240378
0.0545674
0.023097
0.0575688
0.0219729
0.0604696
0.0206473
0.0632187
0.019124
0.0657749
0.0174204
0.068109
0.0155608
0.0702038
0.0135704
0.0720516
0.0114725
0.0736508
0.00928676
0.0750013
0.00702975
0.0761011
0.00471748
0.076944
0.00236694
0.0775192
0.0778145
0.0425336
0.0426413
-0.0473517
0.0385534
0.0438953
0.0355156
0.0456494
0.033166
0.0478548
0.0312661
0.0503846
0.029627
0.0531599
0.0280982
0.0560962
0.0265671
0.0591
0.0249583
0.0620783
0.0232292
0.0649478
0.0213624
0.0676418
0.019358
0.0701135
0.0172265
0.0723352
0.0149832
0.0742949
0.0126436
0.0759903
0.0102221
0.0774228
0.00773186
0.0785913
0.00518658
0.0794893
0.00260259
0.0801032
0.0804171
0.052039
0.0477455
-0.0571431
0.0474473
0.048487
0.0435032
0.0495935
0.0401627
0.0511953
0.0373053
0.053242
0.0347983
0.0556669
0.0325129
0.0583816
0.0303378
0.0612752
0.0281867
0.0642293
0.0260006
0.0671339
0.023744
0.0698983
0.0214008
0.0724567
0.0189674
0.0747686
0.0164478
0.0768145
0.0138491
0.078589
0.0111793
0.0800926
0.00844694
0.0813237
0.0056627
0.0822735
0.0028409
0.082925
0.083258
0.0601458
0.0527067
-0.065107
0.0553715
0.0532613
0.0509478
0.0540171
0.0469407
0.0552025
0.0433368
0.0568459
0.0400805
0.0589232
0.0370923
0.0613698
0.0342862
0.0640814
0.031583
0.0669325
0.028919
0.069798
0.0262484
0.0725689
0.0235424
0.0751627
0.0207855
0.0775255
0.0179711
0.0796289
0.0150979
0.0814622
0.0121672
0.0830233
0.00918272
0.0843082
0.00615143
0.0853048
0.00308503
0.0859914
0.086343
0.0667611
0.0573694
-0.0714238
0.062077
0.0579454
0.0574959
0.0585981
0.0531265
0.0595719
0.049024
0.0609484
0.0451991
0.0627481
0.0416271
0.0649417
0.0382602
0.0674483
0.0350407
0.0701521
0.0319124
0.0729262
0.0288283
0.075653
0.025753
0.078238
0.0226627
0.0806158
0.0195427
0.0827489
0.0163845
0.0846204
0.0131834
0.0862243
0.0099384
0.0875532
0.00665268
0.0885905
0.00333509
0.089309
0.0896781
0.0720301
0.0616734
-0.0763341
0.0675675
0.0624081
0.0630326
0.0631329
0.0585348
0.0640697
0.0541586
0.0653246
0.0499569
0.0669498
0.0459497
0.0689489
0.0421278
0.0712701
0.0384615
0.0738183
0.0349111
0.0764766
0.0314361
0.079128
0.0280013
0.0816728
0.0245795
0.0840377
0.021151
0.0861773
0.0177024
0.088069
0.0142246
0.0897021
0.0107124
0.0910654
0.00716585
0.0921371
0.00359094
0.0928839
0.093269
0.0761829
0.0656139
-0.0801234
0.0719926
0.0665984
0.0676144
0.0675112
0.0631422
0.0685419
0.058665
0.0698019
0.0542544
0.0713604
0.0499589
0.0732444
0.0457997
0.0754292
0.0417742
0.0778439
0.0378623
0.0803885
0.0340355
0.0829549
0.0302642
0.0854441
0.0265224
0.0877795
0.0227894
0.0899104
0.0190493
0.0918091
0.0152907
0.0934608
0.0115058
0.0948502
0.00769209
0.0959509
0.00385333
0.0967227
0.0971223
0.0794744
0.0692089
-0.0830695
0.0755643
0.0705085
0.0713912
0.0716843
0.067033
0.0729
0.0625708
0.0742641
0.0580795
0.0758517
0.0536204
0.0777035
0.0492343
0.0798153
0.0449393
0.0821389
0.0407339
0.0845939
0.0366034
0.0870853
0.0325273
0.0895203
0.0284842
0.0918226
0.0244556
0.0939389
0.0204263
0.0958383
0.0163846
0.0975025
0.0123218
0.0989131
0.00823398
0.100039
0.00412369
0.100833
0.101246
0.0821378
0.0724745
-0.0854034
0.078501
0.0741453
0.0745481
0.0756372
0.0703471
0.0771011
0.065969
0.0786422
0.061484
0.0803366
0.0569557
0.0822318
0.0524338
0.0843372
0.0479498
0.086623
0.0435164
0.0890273
0.0391321
0.0914697
0.0347859
0.0938665
0.0304637
0.0961448
0.0261516
0.0982511
0.0218373
0.100153
0.0175109
0.101829
0.0131647
0.103259
0.008795
0.104408
0.00440391
0.105224
0.10565
0.0843533
0.0754032
-0.087282
0.0809909
0.0775077
0.0772639
0.0793642
0.0732395
0.0811255
0.0689827
0.082899
0.0645575
0.0847618
0.0600242
0.0867651
0.0554344
0.088927
0.0508259
0.0912315
0.046221
0.0936322
0.041628
0.0960626
0.0370454
0.0984491
0.0324666
0.100724
0.0278836
0.102834
0.0232889
0.104747
0.0186761
0.106442
0.0140403
0.107895
0.00937934
0.109069
0.00469622
0.109907
0.110346
0.0862348
0.0779528
-0.0887844
0.0831714
0.080571
0.079685
0.0828506
0.0758517
0.0849589
0.0717375
0.0870132
0.0674033
0.089096
0.0629056
0.0912628
0.0582941
0.0935385
0.0536083
0.0959172
0.0488756
0.0983649
0.044111
0.100827
0.0393206
0.103239
0.0345048
0.105539
0.029662
0.107677
0.0247904
0.109619
0.0198885
0.111344
0.0149553
0.112828
0.00999175
0.114033
0.00500309
0.114896
0.115349
0.0878176
0.080033
-0.0898978
0.0851156
0.083273
0.0819096
0.0860565
0.0782932
0.0885753
0.0743422
0.0909642
0.0701207
0.0933176
0.0656843
0.0956992
0.0610809
0.0981419
0.0563497
0.100648
0.05152
0.103195
0.046611
0.105736
0.0416343
0.108216
0.0365963
0.110577
0.0315014
0.112772
0.0263539
0.114766
0.0211578
0.11654
0.0159172
0.118069
0.0106375
0.119313
0.00532725
0.120206
0.120677
0.089076
0.0815143
-0.0905573
0.0868385
0.0855106
0.0839858
0.0889092
0.0806351
0.091926
0.0768797
0.0947196
0.0727944
0.0974029
0.0684396
0.100054
0.0638644
0.102717
0.0591083
0.105405
0.0542014
0.108102
0.0491658
0.110772
0.0440165
0.113365
0.0387649
0.115829
0.033421
0.118116
0.0279948
0.120193
0.0224962
0.122038
0.0169354
0.12363
0.0113228
0.124925
0.00567173
0.125857
0.126348
0.0898842
0.0822025
-0.0905724
0.088271
0.0871238
0.0858952
0.0912849
0.0828979
0.0949233
0.0793968
0.0982207
0.0754858
0.101314
0.071238
0.104302
0.0667093
0.107246
0.0619428
0.110171
0.0569708
0.113073
0.0518178
0.115925
0.0465021
0.118681
0.0410391
0.121292
0.0354435
0.123711
0.0297309
0.125905
0.0239176
0.127852
0.0180198
0.129528
0.0120543
0.130891
0.00604011
0.131871
0.132388
0.0901136
0.0819067
-0.0898178
0.0893172
0.0879202
0.0875804
0.0930218
0.0850631
0.0974406
0.0819078
0.101376
0.0782326
0.104989
0.0741307
0.108404
0.0696725
0.111704
0.06491
0.114934
0.0598814
0.118102
0.0546151
0.121191
0.049133
0.124163
0.0434544
0.126971
0.0375987
0.129567
0.0315867
0.131917
0.025441
0.133997
0.0191846
0.135784
0.0128411
0.137234
0.00643614
0.138276
0.138824
0.0894199
0.080304
-0.0878172
0.0897207
0.0876194
0.0888711
0.0938714
0.0870332
0.0992785
0.0843719
0.104037
0.0810353
0.108326
0.0771456
0.112293
0.072797
0.116053
0.0680592
0.119671
0.0629824
0.123179
0.057603
0.126571
0.0519491
0.129817
0.046045
0.132875
0.0399148
0.135697
0.0335852
0.138247
0.0270848
0.140498
0.0204438
0.142425
0.0136934
0.143985
0.00686721
0.145102
0.145692
0.0877428
0.0772856
-0.0847244
0.0893682
0.085994
0.0896399
0.0935996
0.0887034
0.100215
0.0867246
0.106016
0.0838715
0.111179
0.0802958
0.115869
0.076122
0.120226
0.0714456
0.124348
0.0663364
0.128288
0.060845
0.132062
0.0550094
0.135653
0.0488619
0.139022
0.0424336
0.142125
0.0357579
0.144923
0.0288709
0.147385
0.0218106
0.149485
0.014616
0.151179
0.00732782
0.152391
0.15302
0.0842963
0.072207
-0.0792177
0.0876763
0.082614
0.0894893
0.0917866
0.089809
0.0998953
0.0887961
0.107029
0.0866411
0.113334
0.0835309
0.118979
0.0796313
0.124126
0.0750769
0.128902
0.06997
0.133395
0.0643841
0.137648
0.0583726
0.141664
0.0519773
0.145418
0.0452367
0.148866
0.0381907
0.151969
0.0308827
0.154693
0.0233596
0.157008
0.0156703
0.158869
0.00786996
0.160191
0.160889
0.0802589
0.0660824
-0.0741344
0.0851829
0.07769
0.0885401
0.0884295
0.0902957
0.0981396
0.0905142
0.106811
0.0893179
0.11453
0.0868777
0.12142
0.0833786
0.127625
0.0789962
0.133285
0.0738804
0.138511
0.0681496
0.143379
0.0618937
0.14792
0.055181
0.15213
0.048068
0.155979
0.0406069
0.15943
0.0328503
0.162449
0.0248523
0.165006
0.0166677
0.167053
0.00833981
0.168519
0.169229
0.0740405
-0.0651439
0.0810172
0.0862063
0.0896496
0.0913971
0.0915455
0.0902243
0.0875889
0.0838035
0.0790265
0.0734001
0.067044
0.0600568
0.0525218
0.0445139
0.0361064
0.0273739
0.0183952
0.00926494
0.0165981
-0.0392909
-0.0134013
0.019382
-0.0501355
0.0216342
-0.0593953
0.0233936
-0.0668664
0.0247162
-0.0727463
0.0256732
-0.0772911
0.0263384
-0.0807886
0.026775
-0.083506
0.0270264
-0.0856548
0.0271134
-0.087369
0.0270338
-0.0887048
0.0267668
-0.0896308
0.0262737
-0.0900641
0.0255111
-0.0898098
0.0244192
-0.088726
0.0229667
-0.0863646
0.0210743
-0.0828319
0.0187904
-0.0769338
0.0159094
-0.0712534
-0.062289
0.0171317
-0.0423024
-0.0141202
0.0197972
-0.0528011
0.0219431
-0.0615412
0.023608
-0.0685312
0.0248466
-0.073985
0.025732
-0.0781765
0.0263362
-0.0813928
0.0267187
-0.0838885
0.0269182
-0.0858543
0.0269505
-0.0874014
0.0268093
-0.0885635
0.0264708
-0.0892923
0.025894
-0.0894874
0.0250372
-0.0889531
0.0238409
-0.0875297
0.0222848
-0.0848085
0.0202796
-0.0808267
0.0179156
-0.0745698
0.0149295
-0.0682672
-0.0593868
0.0176683
-0.045232
-0.0147387
0.020224
-0.0553567
0.0222578
-0.063575
0.0238198
-0.0700932
0.0249674
-0.0751326
0.0257752
-0.0789844
0.0263137
-0.0819312
0.026638
-0.0842128
0.0267817
-0.085998
0.0267553
-0.0873751
0.026548
-0.0883562
0.0261327
-0.088877
0.0254678
-0.0888224
0.0245122
-0.0879975
0.0232108
-0.0862283
0.021548
-0.0831457
0.0194448
-0.0787235
0.0169904
-0.0721154
0.0139605
-0.0652374
-0.0563815
0.0181525
-0.0480945
-0.01529
0.0206071
-0.0578114
0.0225318
-0.0654997
0.0239913
-0.0715527
0.025048
-0.0761892
0.0257782
-0.0797146
0.0262505
-0.0824036
0.0265158
-0.0844781
0.0266021
-0.0860843
0.0265147
-0.0872877
0.0262385
-0.0880799
0.0257436
-0.0883822
0.024988
-0.0880668
0.023932
-0.0869415
0.0225263
-0.0848226
0.0207604
-0.0813798
0.0185673
-0.0765304
0.0160346
-0.0695827
0.0129646
-0.0621674
-0.0532841
0.0185875
-0.0508894
-0.0157926
0.0209379
-0.0601617
0.0227533
-0.0673151
0.0241097
-0.0729091
0.0250757
-0.0771552
0.0257291
-0.080368
0.026136
-0.0828105
0.0263424
-0.0846845
0.0263708
-0.0861126
0.0262211
-0.087138
0.0258741
-0.087733
0.0252979
-0.0878059
0.0244504
-0.0872193
0.0232944
-0.0857855
0.021787
-0.0833151
0.0199231
-0.079516
0.0176497
-0.074257
0.0150514
-0.0669844
0.0119477
-0.0590637
-0.050102
0.018971
-0.0536099
-0.0162505
0.0212087
-0.0623993
0.0229119
-0.0690184
0.0241643
-0.0741615
0.0250405
-0.0780314
0.0256187
-0.0809462
0.0259618
-0.0831535
0.0261103
-0.084833
0.0260808
-0.0860831
0.0258682
-0.0869254
0.0254495
-0.0873143
0.0247911
-0.0871474
0.0238519
-0.0862802
0.0225976
-0.0845312
0.0209925
-0.0817099
0.0190376
-0.0775612
0.0166941
-0.0719135
0.0140443
-0.0643345
0.0109143
-0.0559337
-0.0468419
0.0192937
-0.0562438
-0.0166598
0.0214099
-0.0645156
0.0229981
-0.0706066
0.0241464
-0.0753098
0.0249347
-0.0788197
0.0254404
-0.0814519
0.0257221
-0.0834351
0.0258143
-0.0849253
0.0257277
-0.0859965
0.025452
-0.0866497
0.0249613
-0.0868236
0.0242206
-0.0864067
0.0231908
-0.0852504
0.021841
-0.0831814
0.0201433
-0.0800123
0.0181054
-0.0755233
0.0157028
-0.0695109
0.0130164
-0.0616481
0.00986869
-0.052786
-0.0435096
0.0195454
-0.0587761
-0.0170131
0.0215329
-0.066503
0.0230041
-0.0720778
0.0240496
-0.0763553
0.0247533
-0.0795234
0.0251901
-0.0818887
0.0254133
-0.0836584
0.0254513
-0.0849632
0.0253084
-0.0858537
0.02497
-0.0863113
0.0244073
-0.086261
0.023585
-0.0855844
0.0224665
-0.0841319
0.0210249
-0.0817398
0.0192408
-0.0782281
0.0171285
-0.073411
0.0146782
-0.0670606
0.0119706
-0.0589405
0.00881575
-0.0496311
-0.0401114
0.0197173
-0.0611923
-0.0173011
0.0215703
-0.068356
0.0229241
-0.0734317
0.0238697
-0.0773009
0.024493
-0.0801467
0.0248652
-0.0822608
0.0250334
-0.0838266
0.0250193
-0.084949
0.0248213
-0.0856557
0.0244206
-0.0859106
0.0237865
-0.0856268
0.0228838
-0.0846818
0.0216792
-0.0829272
0.0201506
-0.0802112
0.0182867
-0.0763642
0.0161091
-0.0712334
0.0136225
-0.064574
0.0109094
-0.0562274
0.00776049
-0.0464822
-0.0366545
0.0198011
-0.0634792
-0.0175142
0.0215165
-0.0700714
0.0227542
-0.0746694
0.023604
-0.0781507
0.0241521
-0.0806948
0.0244644
-0.0825731
0.0245812
-0.0839435
0.0245172
-0.0848851
0.0242655
-0.085404
0.0238032
-0.0854483
0.0230986
-0.0849222
0.0221175
-0.0837007
0.0208301
-0.0816399
0.0192198
-0.0786009
0.0172835
-0.074428
0.0150499
-0.0689998
0.0125383
-0.0620624
0.009835
-0.0535242
0.00670862
-0.0433558
-0.0331487
0.01979
-0.0656261
-0.017643
0.0213673
-0.0716487
0.0224919
-0.075794
0.0232514
-0.0789102
0.02373
-0.0811734
0.0239874
-0.0828304
0.0240564
-0.0840125
0.0239449
-0.0847736
0.0236406
-0.0850997
0.0231178
-0.0849255