/*--------------------------------*- C++ -*----------------------------------*\
  =========                 |
  \\      /  F ield         | OpenFOAM: The Open Source CFD Toolbox
   \\    /   O peration     | Website:  https://openfoam.org
    \\  /    A nd           | Version:  7
     \\/     M anipulation  |
\*---------------------------------------------------------------------------*/
FoamFile
{
    version     2.0;
    format      ascii;
    class       volVectorField;
    location    "6";
    object      U;
}
// * * * * * * * * * * * * * * * * * * * * * * * * * * * * * * * * * * * * * //

dimensions      [0 1 -1 0 0 0 0];

internalField   nonuniform List<vector> 
2000
(
(-0.000736476 0.0307414 -6.24058e-21)
(0.00487437 0.0941726 0)
(0.0182268 0.150658 0)
(0.0348447 0.197706 -3.12609e-20)
(0.0523148 0.233858 1.02082e-20)
(0.0688483 0.259039 4.16911e-22)
(0.0834935 0.274438 -1.75965e-20)
(0.0958816 0.281956 0)
(0.106002 0.283755 0)
(0.114398 0.281919 0)
(-0.00388664 0.028854 0)
(-0.00514419 0.0878428 -2.40567e-20)
(0.001429 0.140104 2.21832e-20)
(0.0127724 0.183985 4.18306e-20)
(0.0267131 0.218367 0)
(0.0414383 0.243072 3.76914e-20)
(0.0557632 0.258981 -3.50485e-20)
(0.0689902 0.267677 0)
(0.0806985 0.271067 6.43502e-20)
(0.0907711 0.271075 -1.22523e-19)
(-0.00697077 0.0276732 0)
(-0.01449 0.0822579 1.92111e-19)
(-0.0140429 0.129834 0)
(-0.00755275 0.169809 1.67534e-19)
(0.00296561 0.201543 0)
(0.0157433 0.224884 -1.48748e-19)
(0.0294881 0.240512 0)
(0.043311 0.249749 1.34661e-19)
(0.0565042 0.254291 -1.26114e-19)
(0.0682678 0.255949 -1.21047e-19)
(-0.010134 0.0271462 -5.05153e-20)
(-0.0232441 0.0774488 -9.57926e-20)
(-0.0280201 0.120082 -4.45642e-20)
(-0.0256741 0.155637 -8.30032e-20)
(-0.0181572 0.18403 -7.80834e-20)
(-0.00717893 0.205217 7.38385e-20)
(0.00595203 0.219748 6.96612e-20)
(0.0202813 0.228741 -1.15608e-21)
(0.0349608 0.23372 1.25337e-19)
(0.048513 0.236485 1.21125e-19)
(-0.0134445 0.0271638 -5.05517e-20)
(-0.0313536 0.0733873 -9.68705e-20)
(-0.0401782 0.111031 -1.80817e-19)
(-0.0409202 0.141945 8.33338e-20)
(-0.0355927 0.166597 0)
(-0.0258757 0.185074 0)
(-0.0130463 0.197839 -1.40865e-19)
(0.00195929 0.205817 -1.33119e-19)
(0.0182985 0.210367 1.2471e-19)
(0.033891 0.213358 3.59259e-19)
(-0.0169142 0.0275643 5.07367e-20)
(-0.0386283 0.0699109 4.8859e-20)
(-0.0499947 0.102779 -2.69886e-19)
(-0.0523548 0.129216 4.20892e-19)
(-0.0479061 0.150137 -7.81721e-20)
(-0.0383636 0.165762 0)
(-0.0249816 0.176471 0)
(-0.00868188 0.182978 6.57971e-19)
(0.00978435 0.186412 -6.2126e-19)
(0.0279921 0.188636 1.19279e-19)
(-0.0204758 0.0281051 4.05377e-19)
(-0.0447498 0.0667659 0)
(-0.0567874 0.0953563 3.60142e-19)
(-0.0588262 0.117888 -3.36272e-19)
(-0.0533639 0.135585 0)
(-0.0422312 0.148791 1.48292e-19)
(-0.0267478 0.157789 -4.14136e-19)
(-0.00794519 0.163045 -5.23811e-19)
(0.0134382 0.165348 2.45226e-19)
(0.0352442 0.166282 2.3566e-19)
(-0.023985 0.0284996 -8.10295e-19)
(-0.0492925 0.0636182 -9.7278e-20)
(-0.0598035 0.0886864 -1.80312e-19)
(-0.0591334 0.108245 -4.19869e-19)
(-0.0502174 0.123739 -1.57812e-19)
(-0.0351173 0.135597 -1.46791e-19)
(-0.0154046 0.143997 2.17396e-21)
(0.00754229 0.149148 0)
(0.0326979 0.151376 0)
(0.0591121 0.151843 -2.04975e-21)
(-0.0272345 0.0284624 4.04925e-19)
(-0.051757 0.0600984 -3.86734e-19)
(-0.0583035 0.0825763 2.70068e-19)
(-0.052235 0.100367 5.88634e-19)
(-0.0370916 0.115087 -1.55915e-19)
(-0.0153571 0.127167 1.48248e-19)
(0.0108674 0.136711 1.37918e-19)
(0.0394791 0.143764 0)
(0.0687723 0.14812 0)
(0.0991733 0.151553 -1.25905e-21)
(-0.0299622 0.0277539 -5.03952e-20)
(-0.0516164 0.0559199 4.83926e-19)
(-0.0515763 0.0767986 -8.95778e-20)
(-0.0373528 0.0941975 0)
(-0.0132408 0.109764 0)
(0.0176105 0.123817 2.91115e-19)
(0.0523701 0.136392 0)
(0.0878749 0.147547 -2.51705e-19)
(0.12157 0.157089 -6.82837e-22)
(0.148738 0.171728 2.21866e-19)
(0.125155 0.273756 4.75269e-21)
(0.136528 0.265994 -4.82648e-21)
(0.127272 0.264774 -4.97853e-21)
(0.123899 0.265808 -5.09811e-21)
(0.0920618 0.26815 -5.23883e-21)
(0.0943189 0.274845 -4.30414e-24)
(0.0471339 0.276497 2.65735e-21)
(0.0621574 0.285935 8.17044e-21)
(0.00380579 0.286743 0)
(0.0337255 0.304289 -5.57471e-21)
(0.109185 0.267326 1.83139e-20)
(0.127153 0.263739 -1.95513e-20)
(0.123666 0.266274 3.45798e-20)
(0.12492 0.269726 5.10672e-21)
(0.0950297 0.273332 1.02792e-20)
(0.0981313 0.280631 1.57776e-20)
(0.051168 0.282382 -5.35621e-21)
(0.0647865 0.291863 -5.44019e-21)
(0.00677329 0.291794 1.08907e-20)
(0.0333683 0.309866 5.56181e-21)
(0.0944546 0.258422 0)
(0.11891 0.259381 -1.92316e-20)
(0.120709 0.266032 -9.92322e-21)
(0.126328 0.272503 0)
(0.098231 0.277857 -3.0917e-20)
(0.102288 0.286107 1.02709e-20)
(0.0555058 0.288288 1.04225e-20)
(0.0678446 0.29786 3.20116e-20)
(0.0100242 0.297241 -1.08552e-20)
(0.033066 0.315791 2.1776e-20)
(0.0820102 0.246783 0)
(0.112432 0.252876 1.93963e-20)
(0.118865 0.264139 0)
(0.128324 0.274205 4.0326e-20)
(0.101679 0.28168 -4.05298e-20)
(0.106652 0.29125 -2.07506e-20)
(0.0599654 0.294151 -1.44204e-22)
(0.0711057 0.303912 -3.17564e-20)
(0.0133359 0.303086 -5.31308e-21)
(0.0328069 0.322097 -2.70039e-20)
(0.073113 0.232446 2.07301e-21)
(0.108175 0.244237 -5.65952e-20)
(0.118433 0.260725 5.60549e-22)
(0.131078 0.274923 -3.97028e-20)
(0.105439 0.284827 0)
(0.111178 0.296084 -2.05774e-20)
(0.0644511 0.299939 -1.3321e-22)
(0.0744234 0.310024 4.18191e-20)
(0.0165549 0.309298 5.25996e-21)
(0.0325879 0.328697 -5.28059e-21)
(0.0696539 0.216042 -1.50258e-19)
(0.106689 0.233642 9.61021e-20)
(0.119627 0.25591 3.96471e-20)
(0.134726 0.274711 -3.96165e-20)
(0.109603 0.287298 -2.00154e-20)
(0.115896 0.300583 0)
(0.0689576 0.305593 -4.08876e-20)
(0.0777476 0.31618 2.04063e-20)
(0.0195932 0.315842 2.06273e-20)
(0.0323826 0.335763 2.06521e-20)
(0.0742801 0.199039 -1.87367e-20)
(0.108915 0.221631 0)
(0.122691 0.249906 0)
(0.139358 0.273749 0)
(0.114242 0.289255 -2.01833e-20)
(0.120833 0.304885 4.01336e-20)
(0.0734753 0.311187 4.06165e-20)
(0.0810557 0.322448 -6.08241e-20)
(0.02245 0.322642 1.01562e-20)
(0.0322571 0.34261 -3.05195e-20)
(0.089737 0.183759 1.13896e-19)
(0.116334 0.209152 7.97166e-20)
(0.12814 0.24275 -7.89561e-20)
(0.145208 0.271781 8.02252e-20)
(0.119511 0.290355 -9.9351e-20)
(0.126154 0.308682 0)
(0.0781907 0.316458 -1.98828e-20)
(0.084503 0.328665 1.95797e-22)
(0.0251122 0.329773 -1.97771e-20)
(0.0320451 0.351091 -1.97235e-20)
(0.117115 0.172459 -9.63599e-20)
(0.130195 0.198336 0)
(0.136149 0.235962 -9.06907e-20)
(0.152076 0.270168 1.60009e-19)
(0.125234 0.291751 -5.92883e-20)
(0.131559 0.312829 -9.89015e-21)
(0.0827027 0.322023 1.98396e-20)
(0.0877754 0.335307 6.99659e-23)
(0.0276414 0.336805 2.92321e-20)
(0.032204 0.355795 2.90489e-20)
(0.159578 0.166645 -7.98283e-20)
(0.156595 0.185927 7.88128e-20)
(0.150262 0.225087 1.00495e-20)
(0.161703 0.264815 0)
(0.132418 0.290122 0)
(0.138354 0.315043 9.70908e-21)
(0.0885419 0.326106 3.83138e-20)
(0.0922957 0.341074 -3.75764e-20)
(0.0305086 0.34504 -9.32163e-21)
(0.0317824 0.371718 9.15365e-21)
(0.294971 0.195702 0)
(0.246231 0.199968 0)
(0.204595 0.228766 0)
(0.192572 0.270887 0)
(0.150554 0.299566 0)
(0.149483 0.329038 0)
(0.094963 0.343922 0)
(0.0947669 0.361337 0)
(0.0313008 0.357842 0)
(0.0334954 0.345118 0)
(0.364191 0.257407 0)
(0.312986 0.263081 0)
(0.263714 0.276194 0)
(0.240822 0.306574 0)
(0.184077 0.328189 0)
(0.179193 0.357445 0)
(0.115979 0.368359 0)
(0.127447 0.387825 0)
(0.0659693 0.408859 0)
(0.0456372 0.48763 0)
(0.385503 0.299838 0)
(0.342125 0.311061 0)
(0.298382 0.325149 0)
(0.272095 0.350969 0)
(0.216241 0.376037 0)
(0.192731 0.402114 0)
(0.113708 0.420271 0)
(0.0809533 0.428116 0)
(-0.0251775 0.418528 0)
(0.0122639 0.392916 0)
(0.401046 0.332888 0)
(0.365177 0.348985 0)
(0.31914 0.358756 0)
(0.292935 0.380388 0)
(0.225982 0.398328 0)
(0.225995 0.429502 0)
(0.16307 0.450934 0)
(0.189559 0.489166 0)
(0.138511 0.518906 0)
(0.0772955 0.550532 0)
(0.420034 0.369854 0)
(0.385105 0.391807 0)
(0.352941 0.418181 0)
(0.333152 0.449325 0)
(0.270396 0.474792 0)
(0.228549 0.492162 0)
(0.12354 0.495465 0)
(0.079176 0.486464 0)
(-0.0107675 0.487727 0)
(0.0385555 0.514077 0)
(0.446158 0.390708 0)
(0.409007 0.413774 0)
(0.35026 0.425276 0)
(0.320299 0.449486 0)
(0.263097 0.483469 0)
(0.272623 0.530348 0)
(0.213246 0.568935 0)
(0.2069 0.598999 0)
(0.0960573 0.626777 0)
(0.05758 0.660052 0)
(0.47054 0.43593 0)
(0.454298 0.47729 0)
(0.434222 0.519952 0)
(0.40919 0.550305 0)
(0.31634 0.561478 0)
(0.257976 0.574573 0)
(0.149498 0.5835 0)
(0.133291 0.598712 0)
(0.0494247 0.597185 0)
(0.0451385 0.59348 0)
(0.499758 0.435244 0)
(0.442965 0.450071 0)
(0.389169 0.481798 0)
(0.396072 0.543509 0)
(0.35966 0.604592 0)
(0.354427 0.659504 0)
(0.267507 0.696962 0)
(0.22589 0.734434 0)
(0.116691 0.764626 0)
(0.0715574 0.790463 0)
(0.554904 0.506547 0)
(0.55938 0.57167 0)
(0.494006 0.596181 0)
(0.436244 0.609981 0)
(0.344151 0.633141 0)
(0.312924 0.668774 0)
(0.222117 0.696283 0)
(0.19138 0.713034 0)
(0.086952 0.731727 0)
(0.0662368 0.764287 0)
(0.440267 0.345192 0)
(0.524201 0.488275 0)
(0.532707 0.593898 0)
(0.53508 0.672407 0)
(0.462944 0.732588 0)
(0.427106 0.791828 0)
(0.31984 0.843801 0)
(0.266131 0.884866 0)
(0.132257 0.913927 0)
(0.0734271 0.951341 0)
(0.354673 0.215074 6.65424e-20)
(0.411974 0.257671 -6.55508e-20)
(0.426163 0.291971 6.77045e-21)
(0.43917 0.323503 0)
(0.454913 0.356516 0)
(0.478146 0.376484 3.78106e-21)
(0.501283 0.419611 -9.75645e-21)
(0.522287 0.412379 9.56277e-21)
(0.513954 0.430666 4.84457e-22)
(0.376454 0.240642 -4.79358e-22)
(0.396709 0.227724 -8.60275e-20)
(0.425954 0.26734 0)
(0.432368 0.296511 4.376e-20)
(0.445174 0.32656 -9.27369e-20)
(0.461299 0.355874 5.16777e-20)
(0.485302 0.376474 -3.93264e-21)
(0.505082 0.413136 5.56915e-21)
(0.517415 0.396513 6.18816e-21)
(0.488464 0.395195 -5.69554e-22)
(0.343961 0.195233 -6.79531e-22)
(0.416102 0.236429 9.77577e-20)
(0.435665 0.270235 -5.52938e-20)
(0.441773 0.29601 5.47395e-20)
(0.455241 0.325424 -4.05123e-20)
(0.471239 0.35243 3.07352e-20)
(0.493799 0.372842 0)
(0.509717 0.40251 -5.58124e-21)
(0.511957 0.377102 -3.20853e-22)
(0.461381 0.355852 -1.74473e-21)
(0.310623 0.148809 2.85641e-22)
(0.431706 0.241737 -1.53346e-20)
(0.44446 0.273538 0)
(0.448444 0.296429 0)
(0.462067 0.325128 0)
(0.47792 0.349528 2.40355e-20)
(0.498739 0.369162 -1.54665e-20)
(0.509228 0.389689 8.23552e-22)
(0.498002 0.352824 -2.03746e-21)
(0.428731 0.312775 -2.25761e-22)
(0.275307 0.101963 8.61192e-22)
(0.439899 0.244214 -5.1031e-21)
(0.45171 0.274772 -4.27873e-20)
(0.455505 0.295132 -2.15653e-20)
(0.469765 0.323236 2.15449e-20)
(0.485218 0.345372 -8.44751e-21)
(0.502814 0.362853 0)
(0.505887 0.372404 -4.8651e-21)
(0.480213 0.323935 4.9082e-21)
(0.394309 0.266445 -2.01294e-21)
(0.240634 0.055915 -6.47026e-22)
(0.446138 0.245038 -1.10198e-19)
(0.458972 0.275451 1.69024e-20)
(0.46179 0.293592 3.24705e-21)
(0.476234 0.321007 2.05972e-20)
(0.490703 0.340599 0)
(0.503781 0.354241 0)
(0.497758 0.351428 0)
(0.456566 0.29078 2.40094e-21)
(0.357018 0.217238 0)
(0.205371 0.0121491 0)
(0.451025 0.245192 0)
(0.465548 0.275153 3.47129e-20)
(0.467776 0.29128 -2.28492e-20)
(0.482267 0.317742 -1.64218e-20)
(0.495044 0.33431 1.65034e-20)
(0.502157 0.342304 4.86602e-21)
(0.485359 0.326074 -5.62249e-21)
(0.428909 0.253622 -8.60818e-21)
(0.31816 0.165945 8.16026e-22)
(0.163452 -0.027847 8.61226e-22)
(0.455468 0.244841 0)
(0.471347 0.274106 -1.18703e-20)
(0.473093 0.288548 -5.05169e-21)
(0.487004 0.313581 0)
(0.497082 0.326279 2.7513e-21)
(0.496891 0.326885 -8.86736e-21)
(0.468341 0.296851 5.35864e-21)
(0.397378 0.213355 7.34984e-22)
(0.277484 0.114472 -4.31205e-22)
(0.133408 -0.0639488 -8.57862e-22)
(0.459132 0.243945 1.32621e-20)
(0.475771 0.272236 1.05931e-20)
(0.477566 0.285156 -3.2046e-21)
(0.490331 0.308095 2.05201e-21)
(0.496632 0.315877 3.44538e-21)
(0.488075 0.307669 3.85788e-21)
(0.447292 0.263939 -8.41797e-22)
(0.363275 0.170841 -4.63212e-22)
(0.237068 0.0642195 4.32608e-22)
(0.104737 -0.0966224 -1.26587e-22)
(0.461896 0.242423 -2.91504e-21)
(0.478736 0.269538 2.97477e-21)
(0.480946 0.280962 -2.43995e-21)
(0.491862 0.301075 -2.04822e-21)
(0.493226 0.302829 1.40364e-21)
(0.47551 0.284756 -2.65496e-21)
(0.422662 0.227977 1.15478e-21)
(0.327594 0.126964 1.48003e-22)
(0.198965 0.0161743 0)
(0.0796278 -0.125304 1.26798e-22)
(0.463799 0.240219 2.88316e-21)
(0.480507 0.265909 -2.93817e-21)
(0.48326 0.275713 -2.33289e-21)
(0.491644 0.292239 -1.93274e-21)
(0.486987 0.286921 -1.3434e-21)
(0.459652 0.25838 2.3584e-22)
(0.395351 0.18954 4.45032e-22)
(0.291521 0.0823137 6.87243e-22)
(0.163343 -0.0300424 0)
(0.0574224 -0.151385 3.95751e-23)
(0.464997 0.237172 0)
(0.481375 0.261266 -1.00052e-20)
(0.484448 0.269283 1.70235e-20)
(0.489606 0.281461 1.93491e-21)
(0.478053 0.268229 2.95308e-21)
(0.440964 0.229027 3.26143e-21)
(0.366214 0.149371 -7.35471e-22)
(0.255826 0.0377378 -3.9334e-22)
(0.130679 -0.0734449 3.09216e-22)
(0.0387241 -0.175156 -3.94656e-23)
(0.465417 0.233191 0)
(0.481209 0.255571 -1.08062e-20)
(0.484269 0.261581 -4.61617e-21)
(0.485683 0.268679 0)
(0.466745 0.246972 -7.94978e-21)
(0.420123 0.197293 2.88665e-21)
(0.33613 0.108252 1.59957e-21)
(0.22117 -0.00600374 2.40598e-21)
(0.10134 -0.113457 -3.08204e-22)
(0.0236882 -0.196651 8.2204e-23)
(0.464818 0.228377 0)
(0.479903 0.248819 1.08902e-20)
(0.482736 0.252549 0)
(0.480148 0.253936 1.30389e-20)
(0.45365 0.223526 -1.311e-20)
(0.397934 0.163873 -3.28772e-21)
(0.305911 0.0669655 6.86987e-22)
(0.188441 -0.0480711 -2.19833e-21)
(0.0755592 -0.149634 -3.91497e-22)
(0.0121553 -0.215879 -1.69824e-22)
(0.463109 0.222903 1.02466e-19)
(0.478069 0.240924 -3.90125e-20)
(0.480689 0.242129 -3.77376e-21)
(0.473913 0.237395 -1.64863e-20)
(0.439718 0.198407 0)
(0.375381 0.129523 -3.16509e-21)
(0.276436 0.0262254 1.32299e-21)
(0.158162 -0.0879637 3.15669e-21)
(0.0532738 -0.181888 9.54123e-23)
(0.00378284 -0.232965 -9.51319e-23)
(0.461077 0.216782 7.36646e-21)
(0.477047 0.231682 6.03924e-20)
(0.47923 0.23038 1.64091e-20)
(0.4677 0.219461 -1.64059e-20)
(0.425603 0.172311 -5.37899e-21)
(0.353019 0.095025 0)
(0.248254 -0.0133802 -4.10354e-21)
(0.130633 -0.125397 2.09856e-21)
(0.0344768 -0.210383 8.96596e-22)
(-0.00189407 -0.248152 2.5009e-22)
(0.459838 0.209821 -1.40181e-20)
(0.476433 0.22111 0)
(0.477067 0.217682 0)
(0.46014 0.200773 0)
(0.410512 0.145984 -3.68009e-21)
(0.330314 0.0610261 9.05525e-21)
(0.221509 -0.0515 4.05521e-21)
(0.106063 -0.160262 -4.12723e-21)
(0.0190691 -0.235458 2.10927e-22)
(-0.0055358 -0.261787 -4.55751e-22)
(0.456992 0.202388 -3.22256e-20)
(0.470643 0.209973 4.36051e-20)
(0.46878 0.204588 -4.32207e-20)
(0.447384 0.181742 2.59399e-20)
(0.391875 0.119754 -3.13001e-20)
(0.306156 0.027817 0)
(0.195866 -0.0880384 -2.2849e-21)
(0.084432 -0.192718 -1.66743e-24)
(0.00692148 -0.257558 -6.10385e-22)
(-0.00762856 -0.274334 -2.75754e-22)
(0.447092 0.196273 -1.53123e-20)
(0.455325 0.199236 0)
(0.452345 0.191024 -4.21528e-20)
(0.428654 0.16207 6.38785e-20)
(0.369331 0.0932089 -2.14985e-20)
(0.280334 -0.00521587 -1.91618e-21)
(0.170969 -0.123681 2.27968e-21)
(0.0658767 -0.223344 2.71492e-22)
(-0.00192035 -0.277188 1.27106e-21)
(-0.00855806 -0.286125 4.92041e-22)
(0.440434 0.192537 -6.83323e-20)
(0.448671 0.188814 6.6536e-20)
(0.445461 0.176557 5.95068e-21)
(0.418705 0.141532 0)
(0.35425 0.0662506 0)
(0.260096 -0.0381326 2.05363e-21)
(0.149597 -0.158853 3.70951e-21)
(0.0504144 -0.252791 -3.58733e-21)
(-0.00812179 -0.294605 -2.36227e-22)
(-0.00850446 -0.297282 2.30579e-22)
(0.468693 0.17587 0)
(0.484163 0.161389 0)
(0.474867 0.140841 0)
(0.434872 0.0934121 0)
(0.353384 0.00531169 0)
(0.240446 -0.111301 0)
(0.113348 -0.238077 0)
(0.012347 -0.319891 0)
(-0.0220244 -0.331047 0)
(-0.00328016 -0.32252 0)
(0.477967 0.104543 0)
(0.454438 0.0726912 0)
(0.3993 0.0257197 0)
(0.303105 -0.0747563 0)
(0.173658 -0.206109 0)
(0.0555941 -0.324169 0)
(-0.00630413 -0.40133 0)
(-0.0138704 -0.417203 0)
(-0.00198047 -0.396466 0)
(0.00443354 -0.389705 0)
(0.470935 0.0273734 0)
(0.416749 -0.0558088 0)
(0.328515 -0.147657 0)
(0.211028 -0.270764 0)
(0.103862 -0.379399 0)
(0.0274073 -0.443691 0)
(-0.00508104 -0.458246 0)
(5.36927e-05 -0.440315 0)
(0.0108602 -0.432198 0)
(0.00411744 -0.43872 0)
(0.413094 -0.11573 0)
(0.303808 -0.241252 0)
(0.189248 -0.347718 0)
(0.0808279 -0.450944 0)
(0.0141113 -0.513703 0)
(-0.00692268 -0.526644 0)
(0.00283696 -0.509292 0)
(0.0143325 -0.486178 0)
(0.00939852 -0.49348 0)
(-0.00144763 -0.500648 0)
(0.321926 -0.297708 0)
(0.190013 -0.453299 0)
(0.0952135 -0.533429 0)
(0.0342049 -0.587867 0)
(0.0176543 -0.589613 0)
(0.0211507 -0.570285 0)
(0.0233819 -0.554559 0)
(0.0136883 -0.556645 0)
(0.000465329 -0.572509 0)
(-0.00274938 -0.571742 0)
(0.21858 -0.500795 0)
(0.0945386 -0.634993 0)
(0.0518169 -0.64335 0)
(0.0314457 -0.654673 0)
(0.0353566 -0.63531 0)
(0.0305766 -0.628534 0)
(0.0174381 -0.632632 0)
(0.00159757 -0.64379 0)
(-0.00273927 -0.650805 0)
(-0.000168294 -0.645336 0)
(0.138045 -0.654947 0)
(0.0560819 -0.733302 0)
(0.0606587 -0.700563 0)
(0.0454754 -0.715238 0)
(0.0415045 -0.710438 0)
(0.0186681 -0.724625 0)
(0.00338023 -0.732666 0)
(-0.00124925 -0.734524 0)
(0.00196772 -0.734016 0)
(0.000825957 -0.732045 0)
(0.0957479 -0.782311 0)
(0.055812 -0.824228 0)
(0.064284 -0.804161 0)
(0.03351 -0.844007 0)
(0.022667 -0.848522 0)
(0.0025461 -0.857324 0)
(0.00459923 -0.855236 0)
(0.00520444 -0.855158 0)
(0.00255557 -0.857847 0)
(-0.000815398 -0.85783 0)
(0.069825 -0.948376 0)
(0.0437619 -0.981191 0)
(0.0294688 -1.00458 0)
(0.00810916 -1.04185 0)
(0.0173621 -1.02985 0)
(0.00721345 -1.03609 0)
(0.0044601 -1.03703 0)
(0.00229935 -1.04243 0)
(-0.000195084 -1.04373 0)
(0.000121123 -1.04298 0)
(0.0267332 -1.10305 0)
(0.00496408 -1.14652 0)
(-0.000769099 -1.16673 0)
(0.0148114 -1.17669 0)
(0.0137795 -1.18838 0)
(-0.00700313 -1.20006 0)
(0.000350613 -1.19239 0)
(0.00419215 -1.20329 0)
(-0.000740432 -1.20139 0)
(7.08834e-05 -1.20173 0)
(0.433098 0.169017 7.15295e-20)
(0.47764 0.0876442 -7.04614e-20)
(0.471273 0.0169027 8.31767e-21)
(0.438822 -0.111643 0)
(0.355758 -0.281104 0)
(0.254507 -0.477489 8.11081e-21)
(0.165263 -0.647716 -3.3457e-20)
(0.1118 -0.78507 3.34447e-20)
(0.079534 -0.945002 9.39117e-21)
(0.0356317 -1.07088 -9.40604e-21)
(0.424731 0.14985 -9.36531e-20)
(0.473978 0.0684245 0)
(0.472505 0.00489034 5.61432e-20)
(0.451089 -0.115376 -1.24789e-19)
(0.371649 -0.273219 7.63013e-20)
(0.271245 -0.462202 -7.33857e-21)
(0.17786 -0.635574 1.6016e-20)
(0.119364 -0.776289 3.34137e-20)
(0.0836897 -0.933709 9.89509e-21)
(0.0389063 -1.05152 9.79873e-21)
(0.417567 0.128856 1.13044e-19)
(0.468882 0.0504229 -6.96211e-20)
(0.472869 -0.00390043 6.89304e-20)
(0.461556 -0.121604 -6.42804e-20)
(0.388634 -0.268222 4.82367e-20)
(0.290867 -0.448483 0)
(0.193228 -0.619704 -1.60567e-20)
(0.128878 -0.761457 1.25745e-21)
(0.0877558 -0.915097 -1.78322e-20)
(0.0409129 -1.02689 -1.86961e-20)
(0.410182 0.106402 -1.85139e-20)
(0.462071 0.0328948 0)
(0.472111 -0.0142209 0)
(0.469561 -0.12547 0)
(0.405418 -0.261467 5.08636e-20)
(0.312803 -0.434978 -3.35755e-20)
(0.21184 -0.604121 -1.52319e-22)
(0.140785 -0.747349 -1.94584e-20)
(0.0920638 -0.897324 -1.03169e-20)
(0.0416078 -1.00267 -1.13005e-20)
(0.40199 0.0836608 -1.96325e-21)
(0.453567 0.0158105 -5.66616e-20)
(0.469797 -0.0258311 -3.56175e-20)
(0.474901 -0.128567 3.55803e-20)
(0.421347 -0.252597 -1.70441e-20)
(0.335797 -0.418755 0)
(0.233062 -0.587291 -1.82199e-20)
(0.154789 -0.734088 4.03412e-20)
(0.0967759 -0.881742 -2.08163e-20)
(0.0411017 -0.980974 2.18758e-20)
(0.393145 0.0613435 -1.58178e-19)
(0.443298 0.00110722 2.0812e-20)
(0.465266 -0.0384851 7.33258e-22)
(0.477228 -0.131756 3.71379e-20)
(0.435859 -0.243135 0)
(0.358903 -0.399603 0)
(0.256243 -0.566895 0)
(0.17036 -0.718596 2.16794e-20)
(0.101806 -0.86581 0)
(0.0394754 -0.961112 0)
(0.384262 0.0396936 0)
(0.431509 -0.0128657 5.89508e-20)
(0.457727 -0.0515018 -3.91081e-20)
(0.476022 -0.135303 -3.86118e-20)
(0.447923 -0.234232 3.88061e-20)
(0.381178 -0.378983 2.03522e-20)
(0.281169 -0.542583 -2.0355e-20)
(0.187392 -0.698412 -7.77842e-20)
(0.107121 -0.846173 5.50496e-21)
(0.0368171 -0.941219 -1.93462e-20)
(0.375144 0.0194647 0)
(0.418705 -0.0275543 -1.98698e-20)
(0.447647 -0.0645033 -1.02418e-20)
(0.470885 -0.139409 0)
(0.456215 -0.226614 1.01762e-20)
(0.401255 -0.358262 -3.15051e-20)
(0.307491 -0.51539 3.27679e-20)
(0.206319 -0.673204 1.15094e-20)
(0.113075 -0.820987 -1.28941e-20)
(0.0334341 -0.919928 2.56514e-20)
(0.365897 0.00174352 2.14112e-20)
(0.405439 -0.0410237 2.07345e-20)
(0.435494 -0.0768547 -5.4081e-21)
(0.461746 -0.14411 5.35782e-21)
(0.459537 -0.220819 1.04095e-20)
(0.417413 -0.338535 1.6389e-20)
(0.334028 -0.486548 -5.90744e-21)
(0.227588 -0.643859 -6.29167e-21)
(0.120464 -0.790374 1.29368e-20)
(0.0300137 -0.897067 6.99826e-21)
(0.356723 -0.0136186 -5.39192e-21)
(0.39213 -0.0525362 5.38109e-21)
(0.421886 -0.0879526 -5.28551e-21)
(0.449009 -0.149105 -5.35038e-21)
(0.457156 -0.217102 5.63647e-21)
(0.427952 -0.320846 -1.13221e-20)
(0.358634 -0.457326 9.01515e-21)
(0.251076 -0.611327 3.16572e-21)
(0.130407 -0.755206 0)
(0.0274222 -0.87309 -7.01355e-21)
(0.347648 -0.0268594 5.53081e-21)
(0.379354 -0.0619994 -5.52221e-21)
(0.40755 -0.0973294 -5.63584e-21)
(0.433593 -0.153924 -5.74933e-21)
(0.449041 -0.215305 -5.86944e-21)
(0.43162 -0.306083 -1.9729e-22)
(0.378624 -0.42927 3.18555e-21)
(0.27576 -0.57659 1.0069e-20)
(0.144142 -0.716004 0)
(0.0266028 -0.847907 -7.56524e-21)
(0.338674 -0.0375488 0)
(0.367282 -0.0695698 -2.26766e-20)
(0.393124 -0.104683 4.01099e-20)
(0.416712 -0.158142 5.75865e-21)
(0.435955 -0.214883 1.21843e-20)
(0.427975 -0.294693 1.8799e-20)
(0.391466 -0.403966 -6.41549e-21)
(0.299619 -0.541192 -6.8017e-21)
(0.162466 -0.673186 1.50494e-20)
(0.0294797 -0.82032 7.54732e-21)
(0.329811 -0.0460226 0)
(0.355876 -0.0754246 -2.34581e-20)
(0.379012 -0.109946 -1.16493e-20)
(0.399531 -0.161341 0)
(0.419304 -0.215042 -3.74018e-20)
(0.417608 -0.286448 1.26888e-20)
(0.395461 -0.382537 1.35752e-20)
(0.31976 -0.507294 4.28242e-20)
(0.184556 -0.628115 -1.50007e-20)
(0.0399988 -0.78842 3.21551e-20)
(0.321142 -0.0526621 0)
(0.345035 -0.0797019 2.36557e-20)
(0.365399 -0.113223 0)
(0.382886 -0.163133 5.02207e-20)
(0.400748 -0.214921 -5.04819e-20)
(0.402039 -0.280502 -2.70832e-20)
(0.390246 -0.36529 -1.49538e-22)
(0.333091 -0.476953 -4.33327e-20)
(0.207031 -0.58347 -7.19656e-21)
(0.0621723 -0.750193 -3.99053e-20)
(0.312853 -0.0577265 1.96418e-19)
(0.334692 -0.0825503 -7.31183e-20)
(0.352359 -0.114735 8.42369e-22)
(0.367205 -0.163342 -5.04654e-20)
(0.381779 -0.213823 0)
(0.383299 -0.27574 -2.77839e-20)
(0.376909 -0.351729 -1.21071e-21)
(0.337353 -0.451382 5.85906e-20)
(0.224509 -0.542466 8.07533e-21)
(0.0945703 -0.704344 -8.10537e-21)
(0.305197 -0.0613949 -5.17541e-22)
(0.324853 -0.0841216 1.25419e-19)
(0.33995 -0.114748 5.17155e-20)
(0.352585 -0.162025 -5.16878e-20)
(0.363455 -0.211359 -2.70373e-20)
(0.363394 -0.271066 0)
(0.357646 -0.340748 -5.8859e-20)
(0.332002 -0.430495 2.89681e-20)
(0.231797 -0.507365 3.11112e-20)
(0.127305 -0.65142 3.38267e-20)
(0.298425 -0.0637993 -2.6002e-20)
(0.315589 -0.0845503 0)
(0.328267 -0.113527 0)
(0.338966 -0.159401 0)
(0.346359 -0.207529 -2.86361e-20)
(0.34389 -0.265786 5.55903e-20)
(0.335083 -0.33122 5.92462e-20)
(0.318404 -0.413266 -9.10112e-20)
(0.226478 -0.478602 1.64985e-20)
(0.147909 -0.594968 -4.985e-20)
(0.292694 -0.0651404 -5.29476e-20)
(0.306986 -0.0840041 1.07787e-19)
(0.317429 -0.111308 -1.06775e-19)
(0.326259 -0.155643 1.11133e-19)
(0.330705 -0.202356 -1.38227e-19)
(0.325769 -0.259193 0)
(0.311704 -0.3218 -2.99382e-20)
(0.299485 -0.397836 -3.45162e-22)
(0.210088 -0.4546 -3.23568e-20)
(0.150183 -0.539412 -3.35759e-20)
(0.287853 -0.0654293 -2.76048e-20)
(0.299003 -0.0824727 0)
(0.307512 -0.108317 -1.26044e-19)
(0.314457 -0.151338 2.24243e-19)
(0.316551 -0.196833 -8.37889e-20)
(0.30941 -0.252311 -1.46242e-20)
(0.28918 -0.312998 2.98732e-20)
(0.278194 -0.383644 -9.79029e-22)
(0.186855 -0.43381 4.68685e-20)
(0.138231 -0.490146 4.92533e-20)
(0.283073 -0.0628263 -1.16981e-19)
(0.290924 -0.0789515 1.13801e-19)
(0.297842 -0.103029 1.42624e-20)
(0.302675 -0.144153 0)
(0.303346 -0.188364 0)
(0.294989 -0.241775 1.45049e-20)
(0.268693 -0.301656 6.04615e-20)
(0.257758 -0.368069 -5.89459e-20)
(0.161542 -0.413826 -1.57304e-20)
(0.117902 -0.445617 1.54544e-20)
(0.270989 -0.0743384 0)
(0.273102 -0.086295 0)
(0.276854 -0.110345 0)
(0.27258 -0.150192 0)
(0.270941 -0.189774 0)
(0.257151 -0.235873 0)
(0.221287 -0.288567 0)
(0.208593 -0.336576 0)
(0.1016 -0.369482 0)
(0.0766346 -0.372113 0)
(0.252209 -0.075047 0)
(0.244624 -0.0908614 0)
(0.250684 -0.11443 0)
(0.234402 -0.14685 0)
(0.229943 -0.179187 0)
(0.211846 -0.215547 0)
(0.169283 -0.254229 0)
(0.161435 -0.285103 0)
(0.0563314 -0.304621 0)
(0.0584875 -0.308114 0)
(0.231788 -0.0610379 0)
(0.219716 -0.0783171 0)
(0.222151 -0.103804 0)
(0.203235 -0.13148 0)
(0.194816 -0.16107 0)
(0.178231 -0.192304 0)
(0.132725 -0.221396 0)
(0.13248 -0.244559 0)
(0.0372627 -0.255799 0)
(0.056361 -0.261496 0)
(0.213989 -0.05625 0)
(0.2 -0.0736215 0)
(0.198457 -0.0951241 0)
(0.179002 -0.116773 0)
(0.166147 -0.141096 0)
(0.15222 -0.167184 0)
(0.104857 -0.189627 0)
(0.111577 -0.209102 0)
(0.0251436 -0.217204 0)
(0.0530577 -0.219901 0)
(0.193804 -0.04953 0)
(0.181783 -0.066011 0)
(0.177561 -0.0856554 0)
(0.159264 -0.10371 0)
(0.143095 -0.123567 0)
(0.132207 -0.145118 0)
(0.0836277 -0.162311 0)
(0.0952062 -0.178859 0)
(0.0146903 -0.185962 0)
(0.047339 -0.186433 0)
(0.177331 -0.0425065 0)
(0.165623 -0.0564659 0)
(0.159294 -0.0732004 0)
(0.142163 -0.0886187 0)
(0.123497 -0.105172 0)
(0.115544 -0.123649 0)
(0.0662766 -0.138088 0)
(0.0813227 -0.152893 0)
(0.0049554 -0.160262 0)
(0.0409006 -0.158978 0)
(0.163307 -0.0364082 0)
(0.152588 -0.0471382 0)
(0.144461 -0.0604261 0)
(0.128 -0.0728992 0)
(0.107097 -0.0862132 0)
(0.101154 -0.101524 0)
(0.0510187 -0.115127 0)
(0.0685415 -0.128606 0)
(-0.00309892 -0.138143 0)
(0.0352134 -0.14782 0)
(0.154176 -0.0304446 0)
(0.144376 -0.0372432 0)
(0.133786 -0.0475749 0)
(0.117076 -0.0573374 0)
(0.0938489 -0.0685521 0)
(0.088156 -0.0819625 0)
(0.036543 -0.0953894 0)
(0.0559496 -0.110187 0)
(-0.0176964 -0.129557 0)
(0.0308638 -0.117416 0)
(0.182009 -0.0183302 0)
(0.175125 -0.0229582 0)
(0.156959 -0.0291794 0)
(0.135134 -0.0359144 0)
(0.104615 -0.044553 0)
(0.0955885 -0.0471279 0)
(0.0250357 -0.0668781 0)
(0.0392821 -0.070694 0)
(-0.0497082 -0.087434 0)
(-0.0399129 -0.158508 0)
(0.490057 -0.00728544 0)
(0.482618 -0.0102839 0)
(0.46043 -0.012568 0)
(0.440045 -0.0163317 0)
(0.412448 -0.0209096 0)
(0.381483 -0.025724 0)
(0.331312 -0.0409038 0)
(0.296619 -0.0501371 0)
(0.186 -0.0877987 0)
(0.183852 -0.163093 0)
(0.280566 -0.0638749 1.23762e-19)
(0.262693 -0.0587357 -1.20239e-19)
(0.239711 -0.0441375 1.51355e-20)
(0.219317 -0.0424595 0)
(0.197131 -0.0364036 0)
(0.180451 -0.0322358 1.46365e-20)
(0.16621 -0.0280458 -5.78261e-20)
(0.1597 -0.0238484 5.66836e-20)
(0.198737 -0.0152534 1.40183e-20)
(0.502824 -0.00593788 -1.43114e-20)
(0.27901 -0.0586875 -1.361e-19)
(0.260624 -0.0517698 0)
(0.237933 -0.0372289 9.8091e-20)
(0.217596 -0.0367987 -2.2244e-19)
(0.196128 -0.031122 1.38243e-19)
(0.180231 -0.0281437 -1.38588e-20)
(0.16664 -0.0246806 2.74082e-20)
(0.161848 -0.0210711 5.43555e-20)
(0.204714 -0.0141439 1.34175e-20)
(0.508184 -0.0054825 1.32294e-20)
(0.276851 -0.0515594 1.58449e-19)
(0.256398 -0.0446698 -1.08956e-19)
(0.234136 -0.0307061 1.07976e-19)
(0.214125 -0.0314436 -1.10341e-19)
(0.194094 -0.0262385 8.18371e-20)
(0.179247 -0.0243471 0)
(0.166678 -0.021556 -2.74729e-20)
(0.163823 -0.0183911 -1.0791e-22)
(0.210178 -0.0132709 -2.71568e-20)
(0.513603 -0.0051824 -2.69171e-20)
(0.277215 -0.0428668 -2.58962e-20)
(0.254608 -0.0373332 0)
(0.232123 -0.0243756 0)
(0.211736 -0.0262046 0)
(0.19274 -0.0216248 8.19112e-20)
(0.178526 -0.0207412 -5.44863e-20)
(0.166825 -0.0186259 -8.65049e-23)
(0.165615 -0.0158838 -2.73877e-20)
(0.215157 -0.0126384 -1.3648e-20)
(0.518897 -0.00504358 -1.35055e-20)
(0.277978 -0.0329647 2.55828e-21)
(0.253638 -0.02975 -7.63332e-20)
(0.231067 -0.0181039 -5.30702e-20)
(0.209995 -0.0209021 5.30503e-20)
(0.19181 -0.0171251 -2.70591e-20)
(0.177968 -0.0172061 0)
(0.167019 -0.0158152 -2.73854e-20)
(0.167126 -0.0135657 5.48776e-20)
(0.21946 -0.0121847 -2.74266e-20)
(0.523882 -0.00504774 2.74123e-20)
(0.278176 -0.0218761 -1.97779e-19)
(0.252095 -0.0217482 2.36049e-20)
(0.229938 -0.0118485 -8.45062e-22)
(0.208204 -0.0154794 5.24759e-20)
(0.190862 -0.0126685 0)
(0.177327 -0.013684 0)
(0.167112 -0.013086 0)
(0.168281 -0.0114335 2.73752e-20)
(0.222974 -0.0118272 0)
(0.528478 -0.00516631 0)
(0.277908 -0.00973718 0)
(0.249883 -0.0130011 7.56511e-20)
(0.228576 -0.00549375 -5.08836e-20)
(0.206257 -0.00989833 -5.2654e-20)
(0.189783 -0.00820621 5.2933e-20)
(0.176529 -0.0101457 2.70079e-20)
(0.167034 -0.0104231 -2.70745e-20)
(0.169019 -0.00947812 -9.59999e-20)
(0.225693 -0.011492 6.9012e-21)
(0.532697 -0.00536955 -2.07013e-20)
(0.27732 0.00282598 0)
(0.247183 -0.00339895 -2.4833e-20)
(0.227024 0.00109013 -1.26928e-20)
(0.204254 -0.00412563 0)
(0.188581 -0.00369539 1.33397e-20)
(0.175573 -0.00657622 -4.01241e-20)
(0.16675 -0.00781679 4.07993e-20)
(0.169283 -0.00769519 1.37723e-20)
(0.22765 -0.0111244 -1.38206e-20)
(0.536534 -0.0056377 2.78091e-20)
(0.276479 0.0148019 2.32869e-20)
(0.244139 0.0067193 2.47972e-20)
(0.225204 0.0079192 -6.06157e-21)
(0.202228 0.00182388 6.4442e-21)
(0.18724 0.000879509 1.31817e-20)
(0.174446 -0.00298107 2.0054e-20)
(0.166232 -0.00526114 -6.7598e-21)
(0.169044 -0.00609512 -6.83197e-21)
(0.22874 -0.0106962 1.38661e-20)
(0.53995 -0.00592971 6.93437e-21)
(0.275419 0.0253637 -5.95938e-21)
(0.24099 0.0167239 6.01692e-21)
(0.223025 0.0148838 -6.28679e-21)
(0.200172 0.00788108 -6.43554e-21)
(0.185711 0.00550099 6.57524e-21)
(0.173126 0.000614185 -1.33031e-20)
(0.165411 -0.00275569 1.0142e-20)
(0.168336 -0.00465989 3.42895e-21)
(0.228922 -0.0102261 0)
(0.54301 -0.00623422 -6.94966e-21)
(0.274141 0.0344721 5.93277e-21)
(0.238108 0.0260984 -5.99208e-21)
(0.220508 0.0218488 -6.24411e-21)
(0.198088 0.0139621 -6.39321e-21)
(0.183964 0.0101388 -6.55471e-21)
(0.171582 0.004191 -1.26908e-23)
(0.164228 -0.000307057 3.35091e-21)