/*--------------------------------*- C++ -*----------------------------------*\
  =========                 |
  \\      /  F ield         | OpenFOAM: The Open Source CFD Toolbox
   \\    /   O peration     | Website:  https://openfoam.org
    \\  /    A nd           | Version:  7
     \\/     M anipulation  |
\*---------------------------------------------------------------------------*/
FoamFile
{
    version     2.0;
    format      ascii;
    class       surfaceScalarField;
    location    "9.3";
    object      phi;
}
// * * * * * * * * * * * * * * * * * * * * * * * * * * * * * * * * * * * * * //

dimensions      [0 3 -1 0 0 0 0];

internalField   nonuniform List<scalar> 
35640
(
1.7649e-05
-0.000311266
0.000293617
6.6234e-05
-0.000679501
0.000630916
0.000144146
-0.000815862
0.00073795
0.00025055
-0.000769813
0.000663408
0.000385114
-0.00057684
0.000442276
0.000547779
-0.000263671
0.000101006
0.000738629
0.000148547
-0.000339397
0.000957791
0.00064298
-0.000862142
0.0012053
0.00120602
-0.00145353
0.00148103
0.00182635
-0.00210208
0.0017846
0.00249435
-0.00279792
0.0021153
0.00320147
-0.00353217
0.00247203
0.00393985
-0.00429657
0.00285319
0.00470198
-0.00508315
0.00325675
0.00548051
-0.00588407
0.00368014
0.00626812
-0.00669151
0.00412033
0.0070575
-0.00749769
0.00457386
0.00784137
-0.0082949
0.00503691
0.00861257
-0.00907563
0.00550545
0.00936419
-0.00983273
0.0059753
0.0100897
-0.0105596
0.00644231
0.0107832
-0.0112502
0.00690245
0.0114394
-0.0118995
0.00735197
0.0120537
-0.0125033
0.00778748
0.0126228
-0.0130583
0.00820606
0.0131438
-0.0135624
0.00860536
0.0136149
-0.0140142
0.00898372
0.0140344
-0.0144128
0.00934033
0.0144005
-0.0147571
0.0147065
0.00967548
-0.0150417
1.71083e-05
-0.000328374
6.36695e-05
-0.000726062
0.000137786
-0.000889978
0.000238512
-0.000870539
0.000365535
-0.000703862
0.000518878
-0.000417012
0.000698697
-3.12717e-05
0.000905195
0.000436482
0.00113852
0.000972694
0.00139866
0.00156621
0.0016854
0.00220761
0.00199822
0.00288865
0.00233625
0.00360181
0.00269825
0.00433998
0.0030825
0.00509626
0.00348683
0.00586379
0.00390863
0.0066357
0.00434488
0.00740512
0.00479218
0.00816527
0.00524686
0.00890951
0.00570508
0.0096315
0.00616293
0.0103253
0.00661656
0.0109857
0.00706231
0.011608
0.00749679
0.0121883
0.007917
0.0127236
0.00832046
0.0132114
0.00870531
0.0136496
0.00907044
0.0140354
0.0143613
0.00941568
1.65085e-05
-0.000344883
6.08483e-05
-0.000770402
0.000130885
-0.000960015
0.00022566
-0.000965314
0.000344933
-0.000823135
0.00048882
-0.0005609
0.000657575
-0.000200026
0.000851497
0.000242561
0.00107083
0.000753363
0.00131567
0.00132137
0.00158592
0.00193735
0.00188125
0.00259332
0.00220099
0.00328207
0.00254412
0.00399685
0.00290925
0.00473113
0.00329455
0.00547848
0.00369779
0.00623246
0.00411632
0.0069866
0.00454713
0.00773446
0.00498693
0.00846971
0.00543221
0.00918622
0.00587934
0.00987822
0.00632468
0.0105404
0.0067647
0.011168
0.00719606
0.0117569
0.00761576
0.0123039
0.00802124
0.0128059
0.00841047
0.0132604
0.00878211
0.0136637
0.0140078
0.00913556
1.58118e-05
-0.000360695
5.7619e-05
-0.000812209
0.00012322
-0.00102562
0.000211698
-0.00105379
0.000322914
-0.00093435
0.00045712
-0.000695106
0.000614693
-0.000357599
0.000796027
6.12263e-05
0.00100147
0.000547918
0.00123123
0.00109161
0.00148532
0.00168326
0.00176352
0.00231512
0.00206535
0.00298025
0.00238999
0.0036722
0.00273631
0.00438482
0.00310276
0.00511204
0.00348743
0.00584779
0.00388802
0.006586
0.0043019
0.00732058
0.00472611
0.0080455
0.00515746
0.00875487
0.00559262
0.00944306
0.00602818
0.0101048
0.00646077
0.0107354
0.00688717
0.0113305
0.0073044
0.0118866
0.00770988
0.0124005
0.00810147
0.0128688
0.00847764
0.0132875
0.0136481
0.00883736
1.49643e-05
-0.000375659
5.39276e-05
-0.000851172
0.000114679
-0.00108637
0.000196434
-0.00113555
0.000299219
-0.00103714
0.000423434
-0.00081932
0.000569606
-0.000503771
0.000738261
-0.000107428
0.000929845
0.000356335
0.00114466
0.000876795
0.00138281
0.00144511
0.00164421
0.00205372
0.0019285
0.00269595
0.00223505
0.00336565
0.0025629
0.00405697
0.00291077
0.00476416
0.00327703
0.00548154
0.00365968
0.00620336
0.00405639
0.00692387
0.00446455
0.00763734
0.00488127
0.00833814
0.00530351
0.00902082
0.0057281
0.00968023
0.00615187
0.0103116
0.00657172
0.0109107
0.00698477
0.0114736
0.00738842
0.0119968
0.00778051
0.0124767
0.0081593
0.0129087
0.013284
0.00852339
1.39575e-05
-0.000389617
4.96964e-05
-0.000886911
0.000105137
-0.00114181
0.00017969
-0.0012101
0.000273588
-0.00113103
0.00038743
-0.000933162
0.000521918
-0.000638259
0.000677713
-0.000263223
0.000855374
0.000178674
0.0010553
0.00067687
0.0012777
0.00122271
0.00152257
0.00180886
0.00178966
0.00242886
0.00207849
0.00307683
0.00238827
0.00374719
0.00271791
0.00443452
0.00306601
0.00513343
0.00343084
0.00583852
0.00381037
0.00654434
0.00420226
0.00724545
0.00460393
0.00793647
0.00501258
0.00861216
0.00542531
0.0092675
0.00583916
0.00989778
0.00625118
0.0104987
0.00665859
0.0110662
0.00705885
0.0115966
0.00744976
0.0120858
0.00782946
0.012529
0.0129173
0.00819618
1.27566e-05
-0.000402373
4.4871e-05
-0.000919025
9.44958e-05
-0.00119143
0.000161311
-0.00127691
0.000245825
-0.00121555
0.00034886
-0.0010362
0.000471312
-0.000760712
0.000614007
-0.000405918
0.000777623
1.50582e-05
0.000962656
0.000491837
0.00116941
0.00101596
0.00139796
0.0015803
0.00164816
0.00217865
0.00191964
0.00280535
0.00221173
0.00345509
0.00252353
0.00412272
0.00285383
0.00480314
0.00320111
0.00549124
0.00356359
0.00618186
0.0039392
0.00686985
0.0043256
0.00755007
0.00472028
0.00821749
0.00512055
0.00886723
0.00552367
0.00949467
0.00592686
0.0100955
0.00632747
0.0106656
0.00672303
0.011201
0.00711134
0.0116975
0.00749043
0.0121499
0.0125495
0.00785822
1.13434e-05
-0.000413716
3.94001e-05
-0.000947082
8.26738e-05
-0.00123471
0.000141193
-0.00133543
0.000215783
-0.00129014
0.000307535
-0.00112795
0.000417565
-0.000870742
0.000546871
-0.000535223
0.000696261
-0.000134333
0.000866341
0.000321757
0.0010575
0.000824805
0.0012699
0.00136791
0.00150347
0.00194508
0.00175793
0.00255089
0.00203274
0.00318028
0.00232711
0.00382835
0.00264
0.00449025
0.00297009
0.00516115
0.0033158
0.00583615
0.00367527
0.00651037
0.00404643
0.00717891
0.00442697
0.00783694
0.00481445
0.00847975
0.00520631
0.00910281
0.00559998
0.00970181
0.00599292
0.0102726
0.00638275
0.0108112
0.0067673
0.0113129
0.00714449
0.0117728
0.0121821
0.00751196
9.70208e-06
-0.000423419
3.32517e-05
-0.000970631
6.96201e-05
-0.00127107
0.000119263
-0.00138508
0.000183375
-0.00135425
0.000263349
-0.00120792
0.000360543
-0.000967935
0.000476139
-0.000650819
0.000611091
-0.000269285
0.000766116
0.000166733
0.000941689
0.000649231
0.00113805
0.00117155
0.00135522
0.00172791
0.00159297
0.00231314
0.00185087
0.00292238
0.00212824
0.00355098
0.00242416
0.00419432
0.00273748
0.00484782
0.00306679
0.00550685
0.00341043
0.00616673
0.00376652
0.00682282
0.00413299
0.00747048
0.00450758
0.00810516
0.00488793
0.00872245
0.00527165
0.00931809
0.00565633
0.00988794
0.0060397
0.0104278
0.00641959
0.010933
0.00679385
0.0113985
0.0118161
0.00715985
7.82522e-06
-0.000431244
2.64077e-05
-0.000989214
5.53113e-05
-0.00129998
9.54979e-05
-0.00142526
0.000148578
-0.00140733
0.000216278
-0.00127562
0.000300215
-0.00105187
0.00040177
-0.000752374
0.000522051
-0.000389565
0.000661891
2.6893e-05
0.000821858
0.000489264
0.00100227
0.000991133
0.00120321
0.00152697
0.00142454
0.00209181
0.00166588
0.00268104
0.00192667
0.00329019
0.00220609
0.0039149
0.00250311
0.0045508
0.00281647
0.00519348
0.00314469
0.00583852
0.00348606
0.00648145
0.00383868
0.00711785
0.0042005
0.00774334
0.00456934
0.00835361
0.00494294
0.00894449
0.00531907
0.00951182
0.0056955
0.0100513
0.00607012
0.0105584
0.00644068
0.0110279
0.0114524
0.00680431
5.70908e-06
-0.000436953
1.88665e-05
-0.00100237
3.97565e-05
-0.00132087
6.99226e-05
-0.00145543
0.000111436
-0.00144884
0.000166383
-0.00133057
0.000236655
-0.00112214
0.000323844
-0.000839562
0.000429218
-0.000494939
0.000553735
-9.76236e-05
0.000698058
0.000344941
0.000862582
0.000826608
0.00104746
0.0013421
0.00125261
0.00188666
0.00147775
0.0024559
0.00172237
0.00304558
0.00198575
0.00365152
0.00226697
0.00426958
0.0025649
0.00489555
0.00287819
0.00552523
0.00320529
0.00615435
0.00354446
0.00677868
0.00389382
0.00739398
0.00425134
0.00799609
0.00461492
0.00858091
0.00498243
0.00914431
0.00535175
0.00968203
0.00572075
0.0101894
0.00608711
0.0106616
0.0110918
0.00644773
3.35642e-06
-0.000440309
1.06448e-05
-0.00100966
2.29968e-05
-0.00133322
4.26112e-05
-0.00147504
7.20594e-05
-0.00147829
0.000113812
-0.00137232
0.000170044
-0.00117838
0.000242567
-0.000912085
0.000332818
-0.00058519
0.000441881
-0.000206687
0.000570519
0.000216302
0.000719209
0.000677918
0.000888172
0.00117313
0.00107739
0.00169744
0.00128664
0.00224665
0.0015155
0.00281672
0.00176331
0.00340371
0.00202926
0.00400363
0.00231231
0.00461251
0.00261123
0.00522631
0.00292461
0.00584097
0.00325086
0.00645243
0.00358822
0.00705662
0.00393481
0.0076495
0.00428866
0.00822705
0.00464775
0.00878522
0.00501001
0.00931977
0.00537332
0.00982609
0.00573524
0.0102997
0.0107346
0.00609248
7.75876e-07
-0.000441085
1.77734e-06
-0.00101066
5.10678e-06
-0.00133655
1.36891e-05
-0.00148362
3.06301e-05
-0.00149523
5.87988e-05
-0.00140049
0.000100666
-0.00122024
0.000158269
-0.000969688
0.000233215
-0.000660136
0.00032672
-0.000300191
0.000439649
0.000103373
0.000572565
0.000545002
0.000725758
0.00101994
0.00089928
0.00152392
0.00109297
0.00205296
0.00130645
0.00260324
0.00153917
0.00317099
0.00179037
0.00375242
0.00205912
0.00434376
0.0023443
0.00494113
0.00264459
0.00554068
0.00295853
0.00613849
0.00328449
0.00673066
0.0036207
0.00731328
0.00396532
0.00788244
0.00431638
0.00843416
0.00467188
0.00896427
0.00502965
0.00946832
0.00538716
0.00994215
0.0103808
0.0057409
-2.02017e-06
-0.000439064
-7.68486e-06
-0.001005
-1.38058e-05
-0.00133043
-1.66684e-05
-0.00148076
-1.26047e-05
-0.0014993
1.66434e-06
-0.00141476
2.89126e-05
-0.00124749
7.14021e-05
-0.00101218
0.000130914
-0.000719648
0.000208798
-0.000378075
0.000306026
6.14424e-06
0.000423249
0.000427779
0.000560833
0.000882356
0.000718895
0.00136586
0.000897336
0.00187452
0.00109585
0.00240472
0.00131395
0.00295289
0.00155096
0.00351542
0.00180601
0.0040887
0.00207808
0.00466906
0.00236597
0.00525279
0.0026683
0.00583616
0.00298356
0.00641541
0.00331008
0.00698676
0.0036461
0.00754643
0.00398972
0.00809053
0.00433895
0.00861505
0.00469159
0.00911569
0.00504495
0.00958879
0.0100304
0.00539534
-5.00868e-06
-0.000434056
-1.76707e-05
-0.000992333
-3.35995e-05
-0.0013145
-4.82368e-05
-0.00146612
-5.73311e-05
-0.0014902
-5.71869e-05
-0.0014149
-4.47284e-05
-0.00125995
-1.7466e-05
-0.00103944
2.65526e-05
-0.000763666
8.88126e-05
-0.000440335
0.000170397
-7.54407e-05
0.000272047
0.000326129
0.000394208
0.000760195
0.000537069
0.00122299
0.000700596
0.00171099
0.000884551
0.00222077
0.00108851
0.00274893
0.00131186
0.00329206
0.00155384
0.00384672
0.00181349
0.00440941
0.0020897
0.00497658
0.00238118
0.00554467
0.00268652
0.00611007
0.00300414
0.00666914
0.00333233
0.00721823
0.00366925
0.00775361
0.00401289
0.00827141
0.00436097
0.0087676
0.00471067
0.00923909
0.00968302
0.00505809
-8.16465e-06
-0.000425891
-2.80925e-05
-0.000972405
-5.41013e-05
-0.00128849
-8.07444e-05
-0.00143948
-0.000103173
-0.00146777
-0.000117275
-0.0014008
-0.000119673
-0.00125755
-0.000107657
-0.00105145
-7.9104e-05
-0.000792219
-3.23943e-05
-0.000487044
3.36683e-05
-0.000141504
0.000119919
0.000239878
0.000226886
0.000653228
0.000354835
0.00109505
0.000503802
0.00156203
0.000673617
0.00205095
0.000863925
0.00255862
0.00107419
0.0030818
0.00130372
0.0036172
0.00155163
0.00416149
0.00181691
0.00471131
0.00209834
0.00526323
0.0023946
0.00581381
0.00270418
0.00635956
0.00302542
0.00689699
0.0033565
0.00742253
0.00369537
0.00793254
0.00403967
0.00842331
0.0043864
0.00889236
0.00933796
0.00473145
-1.14559e-05
-0.000414435
-3.88453e-05
-0.000945016
-7.51078e-05
-0.00125223
-0.000113875
-0.00140071
-0.000149695
-0.00143195
-0.000178042
-0.00137245
-0.000195248
-0.00124034
-0.000198386
-0.00104832
-0.00018517
-0.000805434
-0.000153846
-0.00051837
-0.000103102
-0.000192247
-3.20089e-05
0.000168785
6.00508e-05
0.000561168
0.000173423
0.000981673
0.000308219
0.00142723
0.000464342
0.00189483
0.000641508
0.00238145
0.00083926
0.00288405
0.00105697
0.00339949
0.00129385
0.00392461
0.00154895
0.00445621
0.00182116
0.00499102
0.00210921
0.00552576
0.00241166
0.00605711
0.00272689
0.00658176
0.00305308
0.00709634
0.00338813
0.00759749
0.00372955
0.00808188
0.00407417
0.00854773
0.00899445
0.00441768
-1.48446e-05
-0.00039959
-4.98087e-05
-0.000910052
-9.63877e-05
-0.00120565
-0.000147273
-0.00134983
-0.000196408
-0.00138282
-0.000238867
-0.00132999
-0.000270698
-0.00120851
-0.000288774
-0.00103024
-0.000290649
-0.00080356
-0.000274435
-0.000534583
-0.000238712
-0.00022797
-0.000182449
0.000112521
-0.000104937
0.000483657
-5.74643e-06
0.000882482
0.000115316
0.00130617
0.000258229
0.00175192
0.000422788
0.0022169
0.000608613
0.00269822
0.000815156
0.00319294
0.00104171
0.00369806
0.0012874
0.00421052
0.0015512
0.00472722
0.00183191
0.00524505
0.00212816
0.00576087
0.00243835
0.00627156
0.00276065
0.00677404
0.00309289
0.00726525
0.00343247
0.00774231
0.00377601
0.00820419
0.00865147
0.00411899
-1.82881e-05
-0.000381302
-6.08474e-05
-0.000867492
-0.000117685
-0.00114881
-0.000180543
-0.00128697
-0.000242773
-0.00132059
-0.000299062
-0.0012737
-0.000345195
-0.00116238
-0.000377853
-0.000997582
-0.000394437
-0.000786975
-0.000392937
-0.000536083
-0.000371823
-0.000249085
-0.00032996
7.06582e-05
-0.000266548
0.000420245
-0.000181066
0.000797001
-7.32383e-05
0.00119834
5.69985e-05
0.00162168
0.00020952
0.00206437
0.000384027
0.00252371
0.000580054
0.00299692
0.000796975
0.00348114
0.00103401
0.00397349
0.0012902
0.00447103
0.00156443
0.00497081
0.00185539
0.00546992
0.0021615
0.00596545
0.00248094
0.0064546
0.00281145
0.00693473
0.0031503
0.00740346
0.0034939
0.00786059
0.00830784
0.00383753
-2.17387e-05
-0.000359563
-7.18141e-05
-0.000817417
-0.00013872
-0.00108191
-0.000213261
-0.00121243
-0.000288211
-0.00124564
-0.000357892
-0.00120402
-0.000417844
-0.00110243
-0.000464572
-0.000950854
-0.000495338
-0.000756209
-0.000508015
-0.000523407
-0.000500964
-0.000256136
-0.000472953
4.26467e-05
-0.000423083
0.000370375
-0.000350744
0.000724661
-0.000255571
0.00110317
-0.000137415
0.00150352
3.68646e-06
0.00192327
0.000167517
0.00235988
0.000353696
0.00281074
0.000561683
0.00327315
0.000790783
0.00374439
0.00104014
0.00422168
0.0013087
0.00470225
0.00159522
0.00518339
0.00189819
0.00566248
0.00221574
0.00613705
0.0025456
0.00660488
0.00288487
0.0070642
0.00322978
0.00751568
0.00796223
0.00357539
-2.51451e-05
-0.000334418
-8.25507e-05
-0.000760011
-0.0001592
-0.00100526
-0.000244977
-0.00112665
-0.000332108
-0.00115851
-0.000414573
-0.00112156
-0.000487693
-0.00102931
-0.000547812
-0.000890735
-0.000592069
-0.000711952
-0.000618225
-0.000497251
-0.000624544
-0.000249818
-0.000609693
2.7796e-05
-0.00057268
0.000333363
-0.000512802
0.000664783
-0.000429603
0.00101997
-0.000322846
0.00139677
-0.000192482
0.00179291
-3.86424e-05
0.00220604
0.000138377
0.00263372
0.000338126
0.00307341
0.000559998
0.00352252
0.000803227
0.00397845
0.00106686
0.00443862
0.00134972
0.00490053
0.00165036
0.00536184
0.00196696
0.00582045
0.00229717
0.00627466
0.00263801
0.00672336
0.00298553
0.00716816
0.00761317
0.00333458
-2.84531e-05
-0.000305965
-9.2892e-05
-0.000695572
-0.000178815
-0.000919334
-0.000275224
-0.00103024
-0.000373824
-0.00105991
-0.000468291
-0.00102709
-0.000553746
-0.000943852
-0.000626396
-0.000818084
-0.000683269
-0.000655079
-0.000722031
-0.000458489
-0.000740852
-0.000230997
-0.000738307
2.52507e-05
-0.000713311
0.000308367
-0.000665069
0.000616541
-0.000593038
0.000947938
-0.00049689
0.00130062
-0.000376492
0.00167251
-0.00023189
0.00206144
-6.32989e-05
0.00246513
0.000128917
0.00288119
0.000344244
0.00330719
0.000582006
0.00374069
0.000841351
0.00417927
0.00112121
0.00462068
0.00142021
0.00506284
0.0017366
0.00550406
0.00206806
0.0059432
0.00241156
0.00637986
0.002763
0.00681673
0.00725916
0.00311701
-3.16062e-05
-0.000274359
-0.000102669
-0.00062451
-0.000197252
-0.000824751
-0.000303521
-0.000923976
-0.000412706
-0.00095072
-0.000518206
-0.000921591
-0.000614973
-0.000847085
-0.000699099
-0.000733958
-0.000767517
-0.000586661
-0.000817812
-0.000408194
-0.000848071
-0.000200739
-0.000856785
3.39641e-05
-0.000842781
0.000294363
-0.00080518
0.00057894
-0.000743349
0.000886108
-0.000656877
0.00121414
-0.000545548
0.00156118
-0.000409334
0.00192523
-0.00024837
0.00230416
-6.29427e-05
0.00269576
0.000146514
0.00309773
0.000379417
0.00350778
0.000635015
0.00392367
0.000912355
0.00434334
0.00121021
0.00476499
0.00152694
0.00518733
0.00186034
0.00560979
0.00220742
0.00603278
0.00256402
0.00646013
0.00689861
0.00292457
-3.45475e-05
-0.000239811
-0.00011171
-0.000547347
-0.000214195
-0.000722267
-0.000329389
-0.000808781
-0.000448095
-0.000832014
-0.00056347
-0.000806216
-0.000670327
-0.000740228
-0.000764663
-0.000639623
-0.000843341
-0.000507983
-0.000903876
-0.000347659
-0.000944287
-0.000160328
-0.00096299
5.26672e-05
-0.000958737
0.00029011
-0.000930568
0.00055077
-0.000877769
0.000833309
-0.000799852
0.00113623
-0.000696529
0.00145786
-0.000567704
0.0017964
-0.000413447
0.0021499
-0.000233983
0.0025163
-2.96815e-05
0.00289343
0.000198947
0.00327915
0.000451249
0.00367137
0.000726399
0.00406819
0.00102334
0.00446805
0.00134064
0.00487003
0.00167635
0.00527408
0.00202766
0.00568147
0.0023905
0.00609728
0.00652999
0.00275913
-3.72209e-05
-0.000202591
-0.00011985
-0.000464718
-0.000229333
-0.000612783
-0.000352355
-0.000685759
-0.000479338
-0.000705031
-0.000603238
-0.000682315
-0.000718756
-0.000624711
-0.000821817
-0.000536561
-0.000909236
-0.000420565
-0.000978477
-0.000278418
-0.0010275
-0.000111302
-0.00105467
7.98354e-05
-0.00105867
0.000294107
-0.00103847
0.000530568
-0.000993282
0.000788125
-0.000922557
0.0010655
-0.000825946
0.00136125
-0.000703299
0.00167375
-0.00055464
0.00200125
-0.000380157
0.00234181
-0.000180185
0.00269346
4.4807e-05
0.00305416
0.00029423
0.00342195
0.000567371
0.00379504
0.000863362
0.00417206
0.00118108
0.00455231
0.00151897
0.0049362
0.0018747
0.00532574
0.00224457
0.00572742
0.00615185
0.00262271
-3.95727e-05
-0.000163018
-0.000126927
-0.000377364
-0.00024237
-0.00049734
-0.000371963
-0.000556167
-0.000505804
-0.000571191
-0.000636685
-0.000551433
-0.000759222
-0.000502173
-0.000869297
-0.000426487
-0.000963691
-0.000326171
-0.00103984
-0.000202271
-0.00109567
-5.54754e-05
-0.00112948
0.000113654
-0.00113993
0.000304556
-0.00112593
0.000516563
-0.00108663
0.000748826
-0.00102143
0.0010003
-0.000929928
0.00126975
-0.000811948
0.00155578
-0.000667491
0.00185679
-0.000496737
0.00217106
-0.00030003
0.00249675
-7.78518e-05
0.00283198
0.000169208
0.00317489
0.000440489
0.00352376
0.000735285
0.00387726
0.00105282
0.00423477
0.00139213
0.00459689
0.00175175
0.00496611
0.0021289
0.00535027
0.00576289
0.00251786
-4.15533e-05
-0.000121465
-0.000132793
-0.000286124
-0.000253029
-0.000377104
-0.000387786
-0.00042141
-0.000526896
-0.000432081
-0.000663023
-0.000415306
-0.000790727
-0.00037447
-0.000905866
-0.000311348
-0.00100521
-0.000226825
-0.00108618
-0.000121297
-0.00114669
5.03034e-06
-0.00118502
0.000151981
-0.00119978
0.000319313
-0.00118984
0.000506625
-0.00115433
0.000713314
-0.00109259
0.000938566
-0.00100422
0.00118138
-0.000888997
0.00144055
-0.000746934
0.00171473
-0.000578238
0.00200236
-0.000383312
0.00230183
-0.000162724
0.0026114
8.28383e-05
0.00292933
0.000352642
0.00325396
0.000646013
0.00358389
0.000962453
0.00391833
0.00130171
0.00425764
0.00166366
0.00460415
0.00204745
0.00496648
0.00536204
0.0024483
-4.31188e-05
-7.8346e-05
-0.000137316
-0.000191927
-0.00026106
-0.000253361
-0.000399436
-0.000283034
-0.000542065
-0.000289451
-0.00068152
-0.000275851
-0.000812328
-0.000243661
-0.000930347
-0.00019333
-0.00103235
-0.000124819
-0.00111577
-3.78769e-05
-0.00117851
6.77694e-05
-0.00121886
0.000192323
-0.00123539
0.000335852
-0.00122699
0.000498217
-0.00119273
0.000679057
-0.00113196
0.000877792
-0.00104423
0.00109365
-0.000929341
0.00132567
-0.000787315
0.0015727
-0.000618413
0.00183346
-0.000423133
0.00210655
-0.000202199
0.00239046
4.34864e-05
0.00268364
0.000312931
0.00298451
0.000605236
0.00329159
0.000919887
0.00360368
0.00125714
0.00392038
0.00161849
0.00424281
0.00200649
0.00457848
0.00494801
0.00242052
-4.42323e-05
-3.41138e-05
-0.000140381
-9.57779e-05
-0.000266248
-0.000127494
-0.000406574
-0.000142707
-0.000550827
-0.000145198
-0.000691518
-0.000135159
-0.000823169
-0.000112011
-0.00094165
-7.48488e-05
-0.00104376
-2.27066e-05
-0.00112695
4.53114e-05
-0.00118914
0.000129957
-0.00122862
0.000231808
-0.001244
0.000351232
-0.00123414
0.000488349
-0.00119811
0.000643033
-0.00113526
0.00081494
-0.00104514
0.00100353
-0.000927542
0.00120807
-0.000782513
0.00142767
-0.000610366
0.00166132
-0.000411699
0.00190788
-0.000187411
0.00216617
6.13124e-05
0.00243492
0.000333059
0.00271277
0.000626372
0.00299828
0.000940155
0.0032899
0.00127439
0.00358614
0.00163123
0.00388597
0.00201717
0.00419254
0.00451655
0.00244863
-4.48641e-05
1.07503e-05
-0.000141899
1.25716e-06
-0.000268418
-9.75136e-07
-0.00040892
-2.20488e-06
-0.000552772
-1.34671e-06
-0.000692453
4.52205e-06
-0.000822498
1.80333e-05
-0.000938806
4.14594e-05
-0.00103821
7.66976e-05
-0.00111819
0.000125291
-0.0011767
0.000188469
-0.00121207
0.00026718
-0.00122293
0.000362085
-0.00120813
0.000473555
-0.0011668
0.0006017
-0.00109826
0.000746402
-0.00100208
0.000907343
-0.000878038
0.00108403
-0.000726191
0.00127582
-0.000546862
0.00148199
-0.00034069
0.00170171
-0.000108663
0.00193415
0.000147852
0.0021784
0.000427122
0.0024335
0.000727145
0.00269825
0.00104604
0.00297101
0.00138289
0.00324929
0.00173854
0.00353031
0.00212052
0.00381056
0.00257268
0.00406439
0.00987178
0.0864112
-0.0866075
0.00953232
0.088384
-0.0880445
0.00896801
0.0863269
-0.0857625
0.00834832
0.0827648
-0.0821451
0.00778287
0.0788908
-0.0783254
0.007303
0.0752575
-0.0747777
0.00690328
0.0720084
-0.0716087
0.00656604
0.0691431
-0.0688058
0.00627216
0.0666352
-0.0663413
0.00600633
0.0644597
-0.0641939
0.00575678
0.0626096
-0.0623601
0.00551573
0.0610893
-0.0608483
0.00527775
0.0598961
-0.0596582
0.00503987
0.0590099
-0.058772
0.00479946
0.0583944
-0.058154
0.00455471
0.0580014
-0.0577567
0.00430468
0.0577805
-0.0575305
0.00404787
0.0576897
-0.0574329
0.00378432
0.0576905
-0.057427
0.00351384
0.0577559
-0.0574854
0.00323668
0.0578651
-0.057588
0.00295375
0.0579993
-0.0577164
0.00266503
0.0581491
-0.0578604
0.00237187
0.0582994
-0.0580063
0.0020739
0.0584456
-0.0581477
0.00177186
0.0585773
-0.0582752
0.00146522
0.058695
-0.0583883
0.00115442
0.0587976
-0.0584868
0.000840215
0.0588889
-0.0585747
0.0589366
-0.0586225
0.00976767
0.0860592
0.00953579
0.0886159
0.00904059
0.0868221
0.00845917
0.0833462
0.00791365
0.0794363
0.00744422
0.075727
0.00705045
0.0724022
0.00671653
0.069477
0.00642411
0.0669276
0.00615814
0.0647257
0.00590695
0.0628608
0.005663
0.0613333
0.00542138
0.0601378
0.00517899
0.0592523
0.00493356
0.0586399
0.0046833
0.0582517
0.00442694
0.0580369
0.00416347
0.0579532
0.0038926
0.0579614
0.00361421
0.0580343
0.00332878
0.0581506
0.00303681
0.0582913
0.00273892
0.058447
0.00243581
0.0586025
0.00212777
0.0587537
0.00181505
0.05889
0.0014976
0.0590124
0.00117555
0.0591197
0.000850017
0.0592144
0.0592623
0.00964305
0.0855517
0.00952242
0.0887365
0.00910082
0.0872437
0.00856128
0.0838858
0.00803816
0.0799594
0.00758057
0.0761846
0.00719364
0.0727891
0.00686371
0.0698069
0.00657339
0.067218
0.00630785
0.0649912
0.00605559
0.0631131
0.00580926
0.0615796
0.00556442
0.0603826
0.00531783
0.0594989
0.00506759
0.0588901
0.00481197
0.0585073
0.00454937
0.0582995
0.0042793
0.0582233
0.00400112
0.0582396
0.00371483
0.0583206
0.00342114
0.0584443
0.0031201
0.0585923
0.00281304
0.058754
0.00249994
0.0589156
0.00218182
0.0590718
0.0018584
0.0592134
0.00153012
0.0593407
0.00119681
0.059453
0.000859901
0.0595514
0.0595996
0.00949881
0.0848903
0.00949231
0.088743
0.00914841
0.0875876
0.00865427
0.0843799
0.008156
0.0804577
0.00771171
0.0766288
0.0073325
0.0731683
0.00700729
0.0701321
0.00671969
0.0675056
0.00645519
0.0652557
0.00620253
0.0633657
0.00595443
0.0618277
0.00570674
0.0606303
0.00545636
0.0597493
0.00520153
0.0591449
0.00494063
0.0587682
0.00467202
0.0585681
0.0043953
0.0585
0.00410985
0.058525
0.00381572
0.0586147
0.00351364
0.0587463
0.00320369
0.0589023
0.00288725
0.0590705
0.00256432
0.0592386
0.00223598
0.0594001
0.00190195
0.0595474
0.00156271
0.05968
0.0012182
0.0597975
0.000869849
0.0598997
0.0599487
0.00933607
0.0840776
0.00944591
0.0886331
0.00918323
0.0878503
0.00873777
0.0848254
0.00826683
0.0809286
0.00783729
0.0770584
0.00746658
0.073539
0.00714684
0.0704519
0.00686275
0.0677897
0.00659997
0.0655185
0.00634754
0.0636182
0.00609832
0.0620769
0.00584822
0.0608804
0.0055945
0.060003
0.00533535
0.0594041
0.00506925
0.0590343
0.00479481
0.0588425
0.00451147
0.0587833
0.00421876
0.0588178
0.00391683
0.0589167
0.00360628
0.0590569
0.0032875
0.059221
0.00296159
0.0593964
0.00262888
0.0595713
0.00229023
0.0597388
0.00194561
0.0598921
0.00159536
0.0600302
0.00123967
0.0601532
0.000879856
0.0602595
0.0603095
0.00915604
0.0831178
0.00938368
0.0884055
0.0092053
0.0880286
0.00881157
0.0852191
0.00837023
0.08137
0.00795687
0.0774717
0.00759558
0.0739003
0.00728203
0.0707654
0.00700217
0.0680695
0.0067419
0.0657788
0.00649044
0.0638696
0.00624077
0.0623266
0.00598882
0.0611323
0.00573214
0.0602597
0.00546896
0.0596673
0.00519788
0.0593054
0.00491769
0.0591227
0.0046278
0.0590732
0.00432786
0.0591177
0.00401811
0.0592264
0.00369911
0.0593759
0.00337144
0.0595487
0.00303607
0.0597317
0.00269354
0.0599138
0.00234459
0.0600877
0.00198936
0.0602473
0.00162811
0.0603915
0.0012612
0.0605201
0.000889907
0.0606308
0.0606822
0.00896013
0.0820158
0.00930629
0.0880593
0.00921473
0.0881202
0.00887551
0.0855583
0.00846589
0.0817796
0.0080701
0.0778675
0.00771914
0.0742513
0.0074125
0.0710721
0.00713762
0.0683444
0.0068807
0.0660357
0.00663103
0.0641193
0.0063816
0.062576
0.00612841
0.0613855
0.0058692
0.0605189
0.00560231
0.0599341
0.00532646
0.0595812
0.00504062
0.0594086
0.00474428
0.0593695
0.00443713
0.0594249
0.00411955
0.059544
0.0037921
0.0597033
0.00345551
0.0598853
0.00311068
0.0600766
0.00275828
0.0602662
0.00239904
0.060447
0.00203316
0.0606132
0.00166094
0.0607637
0.00128279
0.0608982
0.000899999
0.0610136
0.0610667
0.00874995
0.0807779
0.00921463
0.0875947
0.00921178
0.088123
0.00892952
0.0858406
0.00855357
0.0821556
0.00817665
0.0782445
0.00783687
0.0745911
0.0075379
0.071371
0.00726877
0.0686135
0.00701608
0.0662884
0.00676905
0.0643664
0.00652064
0.0628244
0.00626685
0.0616393
0.00600558
0.0607802
0.00573533
0.0602044
0.00545497
0.0598616
0.0051636
0.0596999
0.00486088
0.0596723
0.00454656
0.0597392
0.00422114
0.0598694
0.00388525
0.0600392
0.00353969
0.0602309
0.00318538
0.0604309
0.00282309
0.0606285
0.00245354
0.0608165
0.00207701
0.0609897
0.00169382
0.0611469
0.00130441
0.0612876
0.00091012
0.0614079
0.0614631
0.00852721
0.0794105
0.00910974
0.0870121
0.00919686
0.0880359
0.00897363
0.0860638
0.00863307
0.0824961
0.00827622
0.0786013
0.00794842
0.0749189
0.00765784
0.0716616
0.00739528
0.0688761
0.00714772
0.0665359
0.00690425
0.0646098
0.00665769
0.063071
0.006404
0.061893
0.00614118
0.061043
0.00586795
0.0604776
0.00558333
0.0601462
0.0052866
0.0599967
0.00497757
0.0599813
0.00465613
0.0600606
0.00432288
0.0602027
0.00397853
0.0603836
0.00362397
0.0605854
0.00326018
0.0607947
0.00288795
0.0610007
0.00250809
0.0611964
0.0021209
0.0613769
0.00172673
0.061541
0.00132608
0.0616883
0.000920264
0.0618137
0.0618715
0.00829375
0.0779211
0.0089928
0.0863131
0.0091705
0.0878582
0.00900799
0.0862263
0.0087043
0.0827998
0.00836855
0.0789371
0.00805346
0.075234
0.00777197
0.0719431
0.0075168
0.0691313
0.00727532
0.0667774
0.00703638
0.0648488
0.00679254
0.0633148
0.00653969
0.0621458
0.00627589
0.0613068
0.00600008
0.0607535
0.00571149
0.0604348
0.00540958
0.0602986
0.00509433
0.0602965
0.00476584
0.0603891
0.00442475
0.0605437
0.00407193
0.0607364
0.00370835
0.060949
0.00333505
0.061168
0.00295286
0.0613829
0.00256266
0.0615866
0.0021648
0.0617747
0.00175967
0.0619462
0.00134776
0.0621002
0.000930428
0.062231
0.0622917
0.0080515
0.0763173
0.00886516
0.0854994
0.00913341
0.08759
0.00903286
0.0863269
0.00876722
0.0830654
0.00845346
0.0792508
0.0081517
0.0755357
0.00787996
0.0722149
0.00763298
0.0693782
0.00739855
0.0670118
0.00716515
0.0650822
0.00692496
0.063555
0.00667374
0.062397
0.00640958
0.0615709
0.00613163
0.0610314
0.00583937
0.0607271
0.0055325
0.0606054
0.00521115
0.0606179
0.00487564
0.0607246
0.00452676
0.0608926
0.00416546
0.0610977
0.00379283
0.0613216
0.00340999
0.0615508
0.00301782
0.0617751
0.00261726
0.0619872
0.00220872
0.0621833
0.00179262
0.0623623
0.00136947
0.0625233
0.000940615
0.0626599
0.0627239
0.0078025
0.0746073
0.00872827
0.0845736
0.00908642
0.0872318
0.00904864
0.0863647
0.00882191
0.0832922
0.0085308
0.0795419
0.00824287
0.0758237
0.00798148
0.0724762
0.00774349
0.0696162
0.0075171
0.0672382
0.00729029
0.065309
0.00705473
0.0637906
0.00680597
0.0626458
0.00654209
0.0618348
0.00626249
0.061311
0.0059669
0.0610227
0.00565528
0.060917
0.00532797
0.0609452
0.00498554
0.061067
0.00462887
0.0612493
0.0042591
0.0614675
0.00387741
0.0617033
0.003485
0.0619432
0.00308282
0.0621773
0.00267187
0.0623981
0.00225264
0.0626025
0.00182558
0.0627893
0.00139121
0.0629577
0.000950829
0.0631003
0.0631681
0.00754883
0.0727993
0.00858371
0.0835388
0.00903052
0.086785
0.00905584
0.0863393
0.00886855
0.0834794
0.00860055
0.0798099
0.00832677
0.0760974
0.00807625
0.0727268
0.00784802
0.0698445
0.00763065
0.0674556
0.00741151
0.0655281
0.0071816
0.0640205
0.00693617
0.0628912
0.00667326
0.0620977
0.00639253
0.0615917
0.00609398
0.0613212
0.00577786
0.0612332
0.00544477
0.0612783
0.00509548
0.0614163
0.00473109
0.0616137