/*--------------------------------*- C++ -*----------------------------------*\
  =========                 |
  \\      /  F ield         | OpenFOAM: The Open Source CFD Toolbox
   \\    /   O peration     | Website:  https://openfoam.org
    \\  /    A nd           | Version:  7
     \\/     M anipulation  |
\*---------------------------------------------------------------------------*/
FoamFile
{
    version     2.0;
    format      ascii;
    class       volScalarField;
    location    "9.6";
    object      p;
}
// * * * * * * * * * * * * * * * * * * * * * * * * * * * * * * * * * * * * * //

dimensions      [0 2 -2 0 0 0 0];

internalField   nonuniform List<scalar> 
32000
(
0.180366
0.181095
0.181581
0.182069
0.1825
0.182886
0.183244
0.183588
0.183927
0.184261
0.184595
0.184938
0.185306
0.185719
0.186201
0.18677
0.187443
0.18823
0.18914
0.190184
0.191377
0.192729
0.19425
0.195942
0.197805
0.199839
0.202039
0.204401
0.206918
0.209583
0.212382
0.215304
0.218336
0.221463
0.224672
0.227946
0.231273
0.234639
0.238017
0.241338
0.18063
0.181342
0.181811
0.182276
0.18268
0.183036
0.183364
0.183678
0.183985
0.184289
0.184593
0.184903
0.185233
0.185604
0.18604
0.18656
0.187179
0.187907
0.188753
0.189726
0.19084
0.192107
0.193537
0.195134
0.196899
0.19883
0.200925
0.203179
0.205588
0.208143
0.210834
0.21365
0.216578
0.219606
0.22272
0.225904
0.229146
0.232431
0.235727
0.238976
0.180898
0.181588
0.182035
0.182474
0.182853
0.183182
0.183482
0.183767
0.184043
0.184317
0.184591
0.184869
0.185165
0.185499
0.185894
0.186369
0.186939
0.187613
0.188399
0.189307
0.190348
0.191537
0.192882
0.19439
0.196063
0.197897
0.199892
0.202043
0.204346
0.206794
0.209379
0.212091
0.214917
0.217846
0.220863
0.223956
0.22711
0.230312
0.233523
0.236697
0.181159
0.181822
0.182248
0.182662
0.183016
0.183322
0.183597
0.183855
0.184104
0.184349
0.184593
0.184841
0.185107
0.185408
0.185766
0.186201
0.186726
0.187351
0.188082
0.18893
0.189905
0.19102
0.192288
0.193713
0.195298
0.197041
0.19894
0.200993
0.203194
0.205539
0.20802
0.210629
0.213354
0.216184
0.219105
0.222104
0.225169
0.228286
0.23141
0.234507
0.181422
0.182057
0.182461
0.18285
0.183181
0.183464
0.183715
0.183948
0.18417
0.184386
0.184602
0.184824
0.185062
0.185333
0.185658
0.186057
0.186541
0.18712
0.187801
0.188593
0.189507
0.190556
0.191751
0.1931
0.194604
0.196261
0.19807
0.200028
0.202131
0.204377
0.206758
0.209266
0.211891
0.214623
0.217448
0.220353
0.223327
0.226357
0.229391
0.232409
0.181687
0.182289
0.18267
0.183036
0.183344
0.183606
0.183835
0.184042
0.184238
0.184428
0.184619
0.184816
0.185028
0.185273
0.18557
0.185936
0.186383
0.186921
0.187556
0.188297
0.189155
0.190144
0.191275
0.192553
0.193982
0.195558
0.197281
0.199149
0.201159
0.203309
0.205593
0.208003
0.210531
0.213165
0.215894
0.218706
0.221588
0.224529
0.227472
0.230408
0.181957
0.182524
0.182882
0.183222
0.183508
0.18375
0.183957
0.184142
0.184313
0.184479
0.184646
0.18482
0.18501
0.185232
0.185503
0.18584
0.186255
0.186755
0.187349
0.188044
0.188852
0.189787
0.190858
0.192073
0.193431
0.194932
0.196574
0.198356
0.200278
0.202337
0.204528
0.206843
0.209274
0.211812
0.214447
0.217164
0.219955
0.222807
0.225657
0.22851
0.182234
0.182762
0.183096
0.183411
0.183674
0.183896
0.184083
0.184246
0.184396
0.184539
0.184685
0.184837
0.185007
0.185209
0.185459
0.185771
0.186157
0.186624
0.18718
0.187834
0.188598
0.189484
0.190503
0.191659
0.192952
0.194382
0.195949
0.197651
0.199489
0.201461
0.203562
0.205785
0.208123
0.210567
0.213108
0.215732
0.218431
0.221193
0.223949
0.226717
0.182519
0.183006
0.183313
0.183602
0.183842
0.184044
0.184213
0.184357
0.184486
0.18461
0.184735
0.184869
0.185021
0.185207
0.185439
0.18573
0.18609
0.186527
0.18705
0.187667
0.188393
0.189237
0.190208
0.191311
0.192545
0.19391
0.195406
0.197034
0.198793
0.200682
0.202697
0.204831
0.207079
0.209431
0.211879
0.214412
0.21702
0.219692
0.222353
0.225035
0.182813
0.183255
0.183534
0.183796
0.184012
0.184195
0.184346
0.184473
0.184585
0.18469
0.184797
0.184915
0.185053
0.185225
0.185442
0.185716
0.186054
0.186466
0.186959
0.187546
0.188238
0.189045
0.189975
0.191029
0.192209
0.193515
0.194945
0.196503
0.198189
0.2
0.201933
0.203982
0.206142
0.208406
0.210764
0.213205
0.215723
0.218307
0.220873
0.223467
0.183117
0.183512
0.183761
0.183992
0.184185
0.184348
0.184484
0.184596
0.184692
0.184781
0.184872
0.184976
0.185103
0.185264
0.18547
0.185729
0.18605
0.186439
0.186909
0.18747
0.188133
0.188909
0.189802
0.190814
0.191945
0.193196
0.194567
0.196061
0.197677
0.199415
0.20127
0.203239
0.205315
0.207492
0.209762
0.212115
0.214545
0.217039
0.219511
0.222018
0.183431
0.183776
0.183993
0.184193
0.184361
0.184506
0.184626
0.184725
0.184808
0.184883
0.184961
0.185054
0.185172
0.185326
0.185523
0.185771
0.186077
0.186449
0.1869
0.18744
0.18808
0.188829
0.18969
0.190664
0.191752
0.192953
0.19427
0.195705
0.197259
0.198928
0.20071
0.202602
0.204598
0.206692
0.208876
0.211142
0.213485
0.215893
0.218271
0.22069
0.183756
0.184047
0.184231
0.184399
0.184542
0.184668
0.184775
0.184862
0.184933
0.184997
0.185064
0.185148
0.185261
0.18541
0.185601
0.185841
0.186136
0.186496
0.186933
0.187457
0.188079
0.188806
0.18964
0.190581
0.19163
0.192788
0.194056
0.195438
0.196933
0.198539
0.200253
0.202071
0.20399
0.206005
0.208108
0.21029
0.212548
0.21487
0.217155
0.219487
0.184091
0.184325
0.184475
0.184609
0.184727
0.184836
0.18493
0.185007
0.185069
0.185123
0.185183
0.185262
0.185371
0.185517
0.185705
0.18594
0.186229
0.186581
0.187009
0.187522
0.188131
0.188839
0.189651
0.190564
0.19158
0.192699
0.193925
0.195259
0.196701
0.198248
0.199897
0.201647
0.203494
0.205433
0.207457
0.209558
0.211734
0.213972
0.216166
0.218411
0.184435
0.184609
0.184724
0.184825
0.184918
0.18501
0.185092
0.18516
0.185215
0.185263
0.185318
0.185394
0.185502
0.185647
0.185835
0.186068
0.186355
0.186705
0.187129
0.187636
0.188235
0.18893
0.189724
0.190614
0.191601
0.192688
0.193877
0.195168
0.196562
0.198054
0.199644
0.20133
0.203109
0.204976
0.206925
0.208948
0.211045
0.213201
0.215305
0.217463
0.184786
0.184898
0.184978
0.185045
0.185115
0.185189
0.185261
0.185321
0.185371
0.185415
0.185469
0.185545
0.185655
0.185802
0.185991
0.186226
0.186515
0.186867
0.187292
0.187798
0.188392
0.189079
0.189858
0.19073
0.191694
0.192754
0.193911
0.195165
0.196514
0.197957
0.199492
0.201119
0.202834
0.204633
0.206511
0.208461
0.21048
0.212556
0.214573
0.216645
0.185145
0.18519
0.185235
0.185271
0.185317
0.185375
0.185436
0.18549
0.185537
0.185581
0.185637
0.185716
0.185828
0.185979
0.186173
0.186414
0.186709
0.187068
0.187498
0.188007
0.188601
0.189283
0.190054
0.190911
0.191858
0.192896
0.194025
0.195247
0.196557
0.197956
0.199442
0.201014
0.20267
0.204406
0.206216
0.208095
0.21004
0.212039
0.213971
0.215958
0.185507
0.185485
0.185495
0.1855
0.185523
0.185566
0.185617
0.185667
0.185713
0.18576
0.18582
0.185905
0.186023
0.18618
0.186381
0.186631
0.186937
0.187307
0.187747
0.188264
0.188862
0.189543
0.190309
0.191158
0.192092
0.193113
0.19422
0.195413
0.19669
0.19805
0.199491
0.201013
0.202615
0.204293
0.20604
0.207851
0.209725
0.211649
0.213499
0.215403
0.185872
0.18578
0.185757
0.185732
0.185734
0.185762
0.185804
0.18585
0.185898
0.18595
0.186018
0.18611
0.186237
0.186403
0.186615
0.186878
0.187198
0.187583
0.188037
0.188565
0.189172
0.189858
0.190623
0.191469
0.192395
0.193403
0.194493
0.195663
0.196911
0.198237
0.199639
0.201117
0.202669
0.204292
0.205981
0.207728
0.209535
0.211387
0.213158
0.21498
0.186238
0.186074
0.186019
0.185966
0.185947
0.185961
0.185995
0.18604
0.186091
0.186151
0.186229
0.186332
0.18647
0.186648
0.186873
0.187152
0.187491
0.187895
0.188367
0.188911
0.18953
0.190224
0.190995
0.191841
0.192764
0.193764
0.194841
0.195993
0.197218
0.198515
0.199884
0.201323
0.20283
0.204404
0.206038
0.207725
0.209467
0.211252
0.212948
0.21469
0.186602
0.186365
0.18628
0.1862
0.186162
0.186162
0.18619
0.186234
0.186291
0.186362
0.186452
0.186569
0.18672
0.186913
0.187155
0.187454
0.187814
0.18824
0.188734
0.189298
0.189934
0.190642
0.191422
0.192273
0.193197
0.194195
0.195264
0.196403
0.19761
0.198884
0.200223
0.201628
0.203096
0.204625
0.206208
0.20784
0.209522
0.211243
0.212868
0.214531
0.186963
0.186653
0.186539
0.186433
0.186376
0.186365
0.186386
0.186432
0.186497
0.18658
0.186686
0.186818
0.186986
0.187197
0.18746
0.187782
0.188167
0.188618
0.189138
0.189726
0.190383
0.191108
0.191902
0.192763
0.193693
0.194691
0.195757
0.196888
0.198083
0.199339
0.200655
0.202031
0.203464
0.204952
0.20649
0.208071
0.209697
0.211358
0.212915
0.214503
0.18732
0.186936
0.186794
0.186663
0.18659
0.186567
0.186584
0.186633
0.186707
0.186806
0.186928
0.187079
0.187266
0.187498
0.187785
0.188133
0.188546
0.189027
0.189576
0.190192
0.190874
0.191621
0.192431
0.193306
0.194246
0.195251
0.196319
0.197447
0.198634
0.199877
0.201175
0.202526
0.20393
0.205383
0.20688
0.208415
0.20999
0.211594
0.213089
0.214603
0.18767
0.187213
0.187043
0.186889
0.1868
0.186767
0.186781
0.186834
0.18692
0.187035
0.187177
0.18735
0.187559
0.187815
0.188128
0.188505
0.18895
0.189464
0.190046
0.190693
0.191404
0.192175
0.193007
0.1939
0.194855
0.19587
0.196945
0.198076
0.19926
0.200495
0.201779
0.203112
0.204491
0.205914
0.207375
0.208868
0.210396
0.211949
0.213386
0.214829
0.188011
0.187481
0.187285
0.187109
0.187004
0.186963
0.186975
0.187034
0.187134
0.187268
0.187431
0.187627
0.187862
0.188145
0.188487
0.188897
0.189376
0.189926
0.190544
0.191226
0.191968
0.192767
0.193625
0.19454
0.195513
0.196545
0.197631
0.198769
0.199955
0.201187
0.202464
0.203783
0.205143
0.206541
0.207971
0.209427
0.210913
0.212419
0.213804
0.215178
0.18834
0.187737
0.187516
0.187319
0.187201
0.187153
0.187165
0.187232
0.187346
0.1875
0.187688
0.187909
0.188171
0.188484
0.18886
0.189304
0.189821
0.19041
0.191067
0.191786
0.192562
0.193393
0.194279
0.195221
0.196218
0.197269
0.198371
0.199521
0.200714
0.201949
0.203222
0.204533
0.20588
0.207258
0.208663
0.210088
0.211537
0.213001
0.214338
0.215646
0.188654
0.18798
0.187735
0.187518
0.187388
0.187334
0.187348
0.187424
0.187555
0.18773
0.187943
0.188192
0.188484
0.18883
0.189241
0.189723
0.190281
0.190911
0.191609
0.192368
0.193182
0.194048
0.194966
0.195938
0.196962
0.198037
0.19916
0.200326
0.201531
0.202773
0.204049
0.205358
0.206696
0.208061
0.209445
0.210845
0.212262
0.213689
0.214984
0.21623
0.18895
0.188206
0.187937
0.187702
0.187561
0.187503
0.187522
0.187609
0.187757
0.187954
0.188193
0.188472
0.188797
0.189179
0.189627
0.19015
0.19075
0.191424
0.192166
0.192967
0.193821
0.194725
0.195679
0.196685
0.19774
0.198844
0.199991
0.201177
0.202399
0.203653
0.204937
0.206249
0.207586
0.208942
0.210313
0.211692
0.213082
0.214478
0.215737
0.216924
0.189225
0.188412
0.188121
0.187868
0.187718
0.187659
0.187683
0.187783
0.187949
0.18817
0.188437
0.188747
0.189106
0.189525
0.190015
0.190581
0.191226
0.191946
0.192733
0.193578
0.194475
0.19542
0.196413
0.197456
0.198546
0.199682
0.200857
0.202068
0.203311
0.204582
0.20588
0.2072
0.20854
0.209894
0.211257
0.212622
0.213992
0.215362
0.216592
0.217724
0.189474
0.188595
0.188283
0.188012
0.187856
0.187796
0.187828
0.187943
0.188129
0.188374
0.188669
0.189011
0.189407
0.189867
0.190399
0.19101
0.191702
0.192469
0.193304
0.194196
0.195137
0.196126
0.197162
0.198245
0.199373
0.200543
0.20175
0.202989
0.204257
0.205551
0.206867
0.208201
0.20955
0.210909
0.21227
0.213627
0.214983
0.216335
0.217543
0.218625
0.189695
0.188752
0.18842
0.188133
0.187971
0.187914
0.187955
0.188086
0.188293
0.188563
0.188887
0.189264
0.189698
0.190199
0.190775
0.191433
0.192173
0.19299
0.193873
0.194813
0.195802
0.196837
0.197918
0.199044
0.200213
0.201421
0.202662
0.203933
0.20523
0.20655
0.207889
0.209243
0.210607
0.211975
0.213341
0.214698
0.216047
0.217388
0.218583
0.219619
0.189884
0.188881
0.188529
0.188227
0.18806
0.188007
0.18806
0.188208
0.188438
0.188734
0.189088
0.189499
0.189973
0.190517
0.19114
0.191846
0.192635
0.193502
0.194435
0.195425
0.196463
0.197546
0.198674
0.199846
0.201058
0.202306
0.203585
0.204891
0.20622
0.20757
0.208936
0.210314
0.211698
0.213083
0.214461
0.215824
0.217175
0.218513
0.219704
0.220701
0.190037
0.188977
0.188607
0.188292
0.188122
0.188074
0.18814
0.188307
0.18856
0.188883
0.189268
0.189716
0.19023
0.190818
0.191488
0.192242
0.193082
0.193999
0.194984
0.196024
0.197112
0.198245
0.199423
0.200642
0.201899
0.203189
0.204508
0.205851
0.207216
0.208599
0.209996
0.211403
0.212813
0.21422
0.215616
0.216995
0.218356
0.219702
0.220899
0.221864
0.190151
0.189039
0.188652
0.188325
0.188153
0.188113
0.188193
0.18838
0.188656
0.189007
0.189424
0.189908
0.190464
0.191097
0.191814
0.192618
0.193508
0.194476
0.195512
0.196604
0.197743
0.198928
0.200155
0.201423
0.202727
0.204061
0.205422
0.206806
0.208208
0.209627
0.211058
0.212496
0.213937
0.215372
0.216795
0.218196
0.219578
0.220942
0.22216
0.2231
0.190222
0.189063
0.188661
0.188324
0.188151
0.188119
0.188215
0.188422
0.188723
0.189102
0.189552
0.190073
0.190671
0.191349
0.192114
0.192967
0.193907
0.194927
0.196014
0.197157
0.198349
0.199585
0.200864
0.202181
0.203532
0.204912
0.206317
0.207742
0.209184
0.210641
0.212108
0.213581
0.215056
0.216525
0.21798
0.219415
0.220827
0.222224
0.223478
0.224406
0.190248
0.189048
0.188631
0.188287
0.188114
0.188091
0.188203
0.188432
0.188757
0.189165
0.189648
0.190207
0.190847
0.191571
0.192383
0.193285
0.194274
0.195344
0.196482
0.197677
0.198921
0.200209
0.201539
0.202907
0.204306
0.205733
0.207182
0.20865
0.210133
0.211628
0.213133
0.214643
0.216155
0.217662
0.219157
0.220632
0.222088
0.223534
0.224844
0.225775
0.190225
0.18899
0.188562
0.18821
0.18804
0.188027
0.188156
0.188405
0.188755
0.189192
0.189708
0.190306
0.190987
0.191756
0.192615
0.193565
0.194604
0.195723
0.196911
0.198157
0.199452
0.200792
0.202174
0.203591
0.205039
0.206512
0.208006
0.209517
0.211041
0.212576
0.214119
0.215667
0.217217
0.218764
0.220304
0.221829
0.223341
0.224853
0.226249
0.227208
0.19015
0.188885
0.188448
0.188092
0.187926
0.187924
0.18807
0.188341
0.188716
0.189181
0.18973
0.190365
0.191088
0.191901
0.192806
0.193803
0.19489
0.196057
0.197295
0.19859
0.199936
0.201327
0.202759
0.204226
0.205721
0.207241
0.208779
0.210332
0.211897
0.21347
0.21505
0.216636
0.218224
0.219812
0.221398
0.222978
0.224556
0.226157
0.227683
0.228723
0.190019
0.188733
0.188289
0.187931
0.18777
0.187781
0.187944
0.188236
0.188635
0.189128
0.18971
0.190383
0.191146
0.192002
0.192952
0.193995
0.195128
0.196343
0.197627
0.198971
0.200367
0.201807
0.203288
0.204802
0.206344
0.207908
0.209489
0.211084
0.212687
0.214297
0.215913
0.217533
0.219155
0.22078
0.22241
0.224046
0.225701
0.227422
0.229172
0.230437
0.189831
0.188529
0.188083
0.187725
0.187571
0.187595
0.187776
0.188089
0.188512
0.189032
0.189646
0.190355
0.191158
0.192056
0.193049
0.194136
0.195314
0.196574
0.197904
0.199295
0.200737
0.202225
0.203752
0.205312
0.206898
0.208505
0.210127
0.21176
0.213399
0.215043
0.21669
0.218339
0.219988
0.221641
0.223303
0.224982
0.226707
0.228566
0.23062
0.23235
0.252741
0.269615
0.284734
0.297388
0.30775
0.316181
0.323021
0.328634
0.333273
0.337144
0.340408
0.343199
0.345616
0.347736
0.349605
0.35126
0.352745
0.354081
0.355277
0.35635
0.35732
0.358179
0.358926
0.359575
0.36013
0.360587
0.360957
0.361242
0.361435
0.361542
0.361548
0.361469
0.361289
0.361021
0.360656
0.360208
0.359679
0.359043
0.358473
0.357526
0.250484
0.267234
0.282572
0.295337
0.305835
0.31437
0.321294
0.326966
0.331654
0.335569
0.338866
0.341691
0.344139
0.346285
0.348183
0.349878
0.351389
0.352743
0.353966
0.355071
0.356063
0.356941
0.357713
0.358381
0.358952
0.359434
0.359825
0.360123
0.360334
0.36045
0.360481
0.360409
0.360248
0.359989
0.35964
0.359201
0.358684
0.358054
0.357494
0.356553
0.248301
0.264886
0.280431
0.293294
0.303922
0.31256
0.319567
0.325298
0.330035
0.333992
0.337323
0.340183
0.342661
0.344832
0.34676
0.348493
0.35003
0.351403
0.352654
0.353791
0.354803
0.355701
0.356498
0.357187
0.357775
0.358283
0.358695
0.359006
0.359236
0.359363
0.359417
0.359354
0.35921
0.358961
0.358629
0.3582
0.357695
0.357071
0.356519
0.355585
0.246204
0.262576
0.27831
0.291257
0.302018
0.310749
0.317839
0.323631
0.328416
0.332412
0.33578
0.338672
0.34118
0.343382
0.345339
0.347101
0.348667
0.350068
0.351345
0.352506
0.353541
0.354462
0.355283
0.355994
0.356604
0.357131
0.357563
0.357894
0.35814
0.358284
0.358353
0.358305
0.358176
0.357941
0.357621
0.357203
0.356709
0.356093
0.35555
0.354622
0.244192
0.260304
0.276212
0.289229
0.30012
0.30894
0.316111
0.321965
0.326797
0.330831
0.334236
0.33716
0.339699
0.341933
0.343919
0.345705
0.347301
0.348734
0.350035
0.351218
0.352278
0.353224
0.354066
0.354801
0.355435
0.35598
0.356431
0.356784
0.357046
0.35721
0.357291
0.357263
0.357145
0.356927
0.356619
0.356212
0.355729
0.355122
0.354587
0.353666
0.242264
0.258076
0.274144
0.287213
0.298227
0.307133
0.314383
0.320298
0.325177
0.329251
0.332693
0.335647
0.338217
0.340482
0.342497
0.34431
0.345935
0.347398
0.348725
0.34993
0.351016
0.351986
0.352852
0.353609
0.354268
0.354831
0.355301
0.355675
0.355955
0.356138
0.356232
0.356223
0.356118
0.355917
0.355622
0.355227
0.354756
0.354157
0.35363
0.352716
0.240423
0.255895
0.272108
0.28521
0.296342
0.305328
0.312657
0.318631
0.323559
0.327671
0.331149
0.334135
0.336736
0.339031
0.341076
0.342916
0.344569
0.346062
0.347415
0.348644
0.349755
0.350749
0.351638
0.352418
0.3531
0.353685
0.354174
0.354568
0.354867
0.355069
0.355178
0.355187
0.355096
0.354912
0.35463
0.354248
0.353788
0.353199
0.352681
0.351774
0.238673
0.253766
0.270107
0.283224
0.294465
0.303528
0.310931
0.316964
0.321941
0.326092
0.329606
0.332624
0.335255
0.33758
0.339654
0.341522
0.343203
0.344725
0.346105
0.347359
0.348494
0.349513
0.350425
0.351229
0.351934
0.35254
0.353049
0.353464
0.353781
0.354001
0.354127
0.354154
0.354079
0.35391
0.353644
0.353275
0.352827
0.352248
0.351738
0.350839
0.237018
0.251694
0.268144
0.281256
0.292598
0.301731
0.309208
0.315299
0.320325
0.324514
0.328064
0.331113
0.333775
0.33613
0.338233
0.340129
0.341839
0.343389
0.344797
0.346075
0.347235
0.348278
0.349214
0.350041
0.350769
0.351398
0.351926
0.352361
0.352698
0.352937
0.35308
0.353125
0.353067
0.352914
0.352663
0.352307
0.351871
0.351304
0.350801
0.349911
0.235459
0.249685
0.266223
0.279309
0.290742
0.29994
0.307488
0.313635
0.31871
0.322938
0.326524
0.329604
0.332296
0.33468
0.336814
0.338738
0.340477
0.342055
0.343489
0.344793
0.345978
0.347045
0.348006
0.348856
0.349606
0.350258
0.350806
0.351261
0.351618
0.351876
0.352036
0.3521
0.352059
0.351922
0.351687
0.351345
0.350921
0.350366
0.349871
0.348989
0.234
0.247742
0.264346
0.277384
0.288898
0.298154
0.305771
0.311973
0.317096
0.321364
0.324985
0.328097
0.330819
0.333232
0.335395
0.337348
0.339116
0.340722
0.342184
0.343514
0.344723
0.345815
0.346799
0.347674
0.348446
0.34912
0.349689
0.350163
0.35054
0.350817
0.350997
0.351079
0.351056
0.350934
0.350716
0.350389
0.349977
0.349434
0.348948
0.348073
0.232643
0.245872
0.262517
0.275485
0.287068
0.296375
0.304057
0.310314
0.315485
0.319792
0.323448
0.326591
0.329343
0.331786
0.333978
0.335959
0.337756
0.339391
0.34088
0.342236
0.343471
0.344587
0.345596
0.346494
0.347288
0.347985
0.348575
0.349069
0.349466
0.349763
0.349961
0.350062
0.350057
0.349952
0.34975
0.349438
0.349038
0.348509
0.348031
0.347165
0.231389
0.244079
0.260737
0.273614
0.285253
0.294604
0.302348
0.308657
0.313876
0.318223
0.321913
0.325088
0.32787
0.330341
0.332563
0.334573
0.336399
0.338062
0.339579
0.340961
0.342222
0.343363
0.344395
0.345318
0.346134
0.346853
0.347465
0.347978
0.348396
0.348712
0.348929
0.349049
0.349063
0.348975
0.348789
0.348494
0.348106
0.347589
0.347121
0.346262
0.230241
0.242368
0.25901
0.271773
0.283454
0.292841
0.300643
0.307002
0.31227
0.316656
0.320381
0.323587
0.326399
0.328899
0.33115
0.333189
0.335045
0.336736
0.33828
0.33969
0.340976
0.342142
0.343199
0.344146
0.344983
0.345725
0.346358
0.346891
0.34733
0.347666
0.347901
0.34804
0.348074
0.348003
0.347833
0.347554
0.347179
0.346676
0.346217
0.345365
0.229199
0.240745
0.257338
0.269966
0.281674
0.291086
0.298944
0.305351
0.310666
0.315091
0.318851
0.322088
0.324931
0.327459
0.32974
0.331809
0.333693
0.335413
0.336985
0.338421
0.339733
0.340925
0.342005
0.342977
0.343837
0.3446
0.345256
0.345808
0.346266
0.346623
0.346878
0.347034
0.347089
0.347035
0.346882
0.34662
0.346259
0.345769
0.34532
0.344475
0.228266
0.239214
0.255725
0.268194
0.279913
0.289342
0.297249
0.303704
0.309065
0.31353
0.317325
0.320592
0.323465
0.326023
0.328334
0.330432
0.332346
0.334094
0.335692
0.337157
0.338494
0.339712
0.340816
0.341812
0.342694
0.343478
0.344156
0.344728
0.345206
0.345584
0.345858
0.346033
0.346108
0.346073
0.345936
0.345692
0.345345
0.344867
0.344429
0.343592
0.227441
0.237779
0.254173
0.266461
0.278173
0.287608
0.295561
0.30206
0.307467
0.311972
0.315801
0.3191
0.322004
0.324592
0.326933
0.32906
0.331002
0.332778
0.334404
0.335895
0.337258
0.338502
0.339631
0.340651
0.341556
0.34236
0.34306
0.343652
0.34415
0.344548
0.344843
0.345036
0.345131
0.345114
0.344995
0.344769
0.344437
0.343972
0.343546
0.342716
0.226727
0.236447
0.252684
0.26477
0.276455
0.285887
0.293878
0.30042
0.305873
0.310417
0.314281
0.317612
0.320547
0.323164
0.325535
0.327691
0.329662
0.331467
0.333119
0.334638
0.336027
0.337297
0.338449
0.339494
0.340422
0.341246
0.341967
0.34258
0.343097
0.343516
0.343831
0.344043
0.344157
0.344161
0.34406
0.343851
0.343535
0.343083
0.342669
0.341847
0.226122
0.23522
0.251262
0.263123
0.274761
0.284179
0.292202
0.298783
0.304281
0.308865
0.312764
0.316127
0.319094
0.321742
0.324142
0.326328
0.328326
0.330159
0.331839
0.333385
0.334799
0.336095
0.337272
0.338339
0.339291
0.340135
0.340877
0.341511
0.342047
0.342486
0.342822
0.343054
0.343188
0.343212
0.343129
0.342939
0.34264
0.342202
0.3418
0.340986
0.225628
0.234104
0.249908
0.261523
0.273093
0.282485
0.290534
0.297151
0.302693
0.307317
0.311251
0.314647
0.317645
0.320324
0.322754
0.324969
0.326994
0.328856
0.330563
0.332135
0.333576
0.334898
0.336099
0.337188
0.338164
0.339028
0.33979
0.340445
0.341001
0.34146
0.341817
0.342067
0.342223
0.342266
0.342203
0.342031
0.341751
0.341327
0.340938
0.340132
0.225244
0.233102
0.248624
0.259974
0.271452
0.280806
0.288873
0.295523
0.301108
0.305772
0.309742
0.313172
0.316202
0.318911
0.32137
0.323614
0.325668
0.327557
0.329291
0.330891
0.332357
0.333704
0.334929
0.336041
0.33704
0.337924
0.338707
0.339383
0.339958
0.340437
0.340815
0.341085
0.341261
0.341325
0.341282
0.341129
0.340867
0.340459
0.340083
0.339285
0.224969
0.232218
0.247415
0.258479
0.26984
0.279144
0.287222
0.2939
0.299527
0.30423
0.308237
0.311701
0.314763
0.317504
0.319992
0.322265
0.324346
0.326263
0.328025
0.329651
0.331143
0.332515
0.333765
0.334898
0.33592
0.336824
0.337627
0.338324
0.338918
0.339417
0.339815
0.340105
0.340302
0.340388
0.340365
0.340231
0.33999
0.339597
0.339235
0.338446
0.224802
0.231454
0.246281
0.257038
0.26826
0.2775
0.285579
0.292281
0.29795
0.302692
0.306736
0.310235
0.31333
0.316102
0.318619
0.320921
0.32303
0.324974
0.326763
0.328416
0.329934
0.331331
0.332604
0.333759
0.334803
0.335728
0.33655
0.337268
0.337881
0.3384
0.338819
0.339129
0.339345
0.339453
0.339452
0.339339
0.339118
0.338743
0.338396
0.337616
0.224742
0.230813
0.245224
0.255657
0.266714
0.275876
0.283947
0.290666
0.296376
0.301157
0.30524
0.308774
0.311903
0.314706
0.317253
0.319582
0.32172
0.323691
0.325508
0.327187
0.328731
0.330151
0.331448
0.332625
0.33369
0.334635
0.335477
0.336215
0.336848
0.337385
0.337825
0.338156
0.338392
0.338522
0.338543
0.338451
0.338253
0.337896
0.337564
0.336794
0.224785
0.230296
0.244248
0.254337
0.265203
0.274274
0.282325
0.289057
0.294805
0.299626
0.303747
0.307317
0.31048
0.313315
0.315892
0.31825
0.320416
0.322414
0.324258
0.325963
0.327534
0.328977
0.330297
0.331495
0.332581
0.333547
0.334408
0.335166
0.335818
0.336374
0.336833
0.337185
0.337442
0.337594
0.337638
0.337568
0.337393
0.337057
0.33674
0.335981
0.224931
0.229905
0.243353
0.253082
0.26373
0.272696
0.280716
0.287454
0.293239
0.298099
0.302258
0.305865
0.309063
0.311929
0.314538
0.316924
0.319119
0.321143
0.323014
0.324745
0.326342
0.327809
0.329151
0.33037
0.331477
0.332463
0.333342
0.334121
0.334791
0.335366
0.335845
0.336218
0.336495
0.336669
0.336736
0.336689
0.336538
0.336225
0.335925
0.335178
0.225175
0.229641
0.24254
0.251894
0.262299
0.271143
0.279121
0.285858
0.291678
0.296575
0.300773
0.304418
0.307652
0.31055
0.31319
0.315604
0.317827
0.319879
0.321777
0.323533
0.325155
0.326646
0.328011
0.329251
0.330377
0.331384
0.332281
0.333079
0.333768
0.334362
0.334859
0.335254
0.33555
0.335746
0.335837
0.335815
0.33569
0.3354
0.335119
0.334384
0.225515
0.229503
0.241813
0.250777
0.260912
0.269619
0.277542
0.28427
0.290122
0.295056
0.299293
0.302976
0.306246
0.309177
0.311849
0.314291
0.316542
0.318621
0.320546
0.322328
0.323974
0.325488
0.326875
0.328137
0.329282
0.330309
0.331224
0.33204
0.332748
0.333361
0.333876
0.334292
0.334608
0.334826
0.334941
0.334945
0.334846
0.334583
0.334322
0.333602
0.225945
0.22949
0.241171
0.249733
0.259572
0.268126
0.275981
0.282691
0.288573
0.293541
0.297817
0.301539
0.304846
0.307811
0.310513
0.312984
0.315265
0.31737
0.319322
0.321129
0.3228
0.324337
0.325745
0.327028
0.328191
0.329238
0.330171
0.331006
0.331732
0.332363
0.332897
0.333332
0.333668
0.333908
0.334047
0.334078
0.334008
0.333772
0.333535
0.33283
0.226463
0.229598
0.240616
0.248764
0.258284
0.266667
0.274441
0.281122
0.28703
0.292031
0.296345
0.300107
0.303452
0.306451
0.309185
0.311685
0.313994
0.316126
0.318105
0.319937
0.321632
0.323192
0.324621
0.325924
0.327106
0.328172
0.329123
0.329976
0.330719
0.331369
0.33192
0.332374
0.33273
0.332992
0.333156
0.333214
0.333173
0.332968
0.332757
0.332071
0.227063
0.229825
0.240148
0.247873
0.257048
0.265245
0.272923
0.279566
0.285494
0.290525
0.294878
0.298681
0.302063
0.305098
0.307862
0.310393
0.31273
0.31489
0.316895
0.318752
0.32047
0.322053
0.323502
0.324825
0.326025
0.327111
0.32808
0.328949
0.329711
0.330378
0.330946
0.331418
0.331794
0.332077
0.332266
0.332352
0.332343
0.332172
0.33199
0.331326
0.227739
0.230164
0.239767
0.247063
0.25587
0.263863
0.27143
0.278024
0.283966
0.289024
0.293415
0.297259
0.300681
0.30375
0.306547
0.309108
0.311474
0.313661
0.315692
0.317574
0.319315
0.320919
0.322388
0.323732
0.32495
0.326054
0.32704
0.327927
0.328705
0.329389
0.329973
0.330464
0.330859
0.331164
0.331377
0.331492
0.331517
0.331382
0.331233
0.330596
0.228486
0.230608
0.239471
0.246335
0.254752
0.262524
0.269967
0.276499
0.282447
0.287528
0.291957
0.295842
0.299303
0.302409
0.30524
0.307832
0.310225
0.31244
0.314497
0.316402
0.318166
0.319792
0.321281
0.322644
0.32388
0.325001
0.326005
0.326908
0.327703
0.328403
0.329003
0.329511
0.329924
0.330251
0.330489
0.330634
0.330693
0.330598
0.330488
0.329885
0.229297
0.231148
0.239261
0.245693
0.253699
0.261233
0.268536
0.274993
0.280939
0.286039
0.290503
0.29443
0.297932
0.301075
0.303939
0.306563
0.308985
0.311227
0.313309
0.315238
0.317024
0.318671
0.320179
0.321561
0.322815
0.323952
0.324974
0.325892
0.326703
0.327418
0.328034
0.328559
0.328991
0.329339
0.329602
0.329777
0.329872
0.329821
0.329754
0.329193
0.230164
0.231775
0.239135
0.245138
0.252716
0.259991
0.26714
0.273509
0.279444
0.284558
0.289055
0.293023
0.296566
0.299747
0.302647
0.305303
0.307753
0.310023
0.31213
0.314081
0.315889
0.317555
0.319083
0.320482
0.321755
0.322908
0.323947
0.324879
0.325706
0.326435
0.327066
0.327608
0.328058
0.328427
0.328715
0.32892
0.329053
0.329049
0.329033
0.328525
0.231084
0.232478
0.239097
0.244673
0.251808
0.258805
0.265784
0.272051
0.277961
0.283085
0.287614
0.291622
0.295206
0.298427
0.301362
0.304051
0.30653
0.308826
0.310958
0.312932
0.31476
0.316447
0.317993
0.319409
0.320699
0.321868
0.322923
0.323869
0.32471
0.325454
0.326099
0.326658
0.327125
0.327515
0.327828
0.328063
0.328234
0.328281
0.328324
0.327884
0.23205
0.23325
0.239149
0.244305
0.25098
0.257679
0.26447
0.270624
0.276496
0.281623
0.28618
0.290228
0.293853
0.297115
0.300086
0.302808
0.305316
0.307639
0.309796
0.311791
0.31364
0.315345
0.316909
0.318342
0.319649
0.320832
0.321902
0.322861
0.323716
0.324474
0.325134
0.325708
0.326193
0.326603
0.32694
0.327205
0.327414
0.327516
0.327627
0.327276
0.232999
0.23404
0.239269
0.244024
0.25023
0.256614
0.263201
0.269231
0.27505
0.280173
0.284755
0.288841
0.292506
0.295809
0.298816
0.301571
0.304107
0.306457
0.308636
0.310653
0.312522
0.314244
0.315826
0.317274
0.318597
0.319795
0.320879
0.321852
0.322721
0.323492
0.324166
0.324756
0.325258
0.325688
0.326048
0.326343
0.326589
0.32675
0.326939
0.326706
0.233858
0.234766
0.239369
0.24375
0.249497
0.255559
0.261933
0.267839
0.273593
0.278708
0.28331
0.28743
0.291134
0.294479
0.297522
0.300311
0.302878
0.305255
0.30746
0.309499
0.311389
0.31313
0.314731
0.316196
0.317535
0.318748
0.319847
0.320834
0.321717
0.322501
0.32319
0.323795
0.324315
0.324764
0.325148
0.325472
0.325757
0.325978
0.326256
0.326185
0.23541
0.235956
0.239801
0.243692
0.248891
0.254561
0.260677
0.26642
0.272081
0.277167
0.281778
0.285934
0.289687
0.293088
0.296185
0.299024
0.301636
0.304052
0.306289
0.308357
0.31027
0.312032
0.313652
0.315134
0.316488
0.317716
0.318828
0.319826
0.320722
0.321518
0.32222
0.322838
0.323375
0.323841
0.324245
0.324596
0.324915
0.325195
0.325568
0.325714
0.245098
0.244296
0.245861
0.247627
0.250335
0.253843
0.258313
0.262806
0.267733
0.272475
0.277032
0.281332
0.285336
0.289024
0.292392
0.29546
0.298254
0.300803
0.303136
0.305275
0.30724
0.309043
0.310696
0.312205
0.31358
0.314828
0.315957
0.316973
0.317885
0.3187
0.319425
0.320067
0.320636
0.321139
0.321589
0.321999
0.322399
0.322819
0.323439
0.324322
0.247572
0.246599
0.247539
0.248037
0.249111
0.250924
0.253907
0.257562
0.261612
0.265922
0.270313
0.274682
0.278878
0.282798
0.286389
0.289644
0.292585
0.295244
0.297658
0.299858
0.301868
0.303707
0.305389
0.306923
0.308321
0.309589
0.310738
0.311772
0.312703
0.313535
0.314278
0.314938
0.315526
0.316049
0.316522
0.316962
0.317405
0.317909
0.318686
0.319909
0.246967
0.246127
0.246846
0.246691
0.246744
0.247282
0.249095
0.252071
0.255285
0.259178
0.263499
0.267999
0.272437
0.27663
0.280476
0.28394