/*--------------------------------*- C++ -*----------------------------------*\
  =========                 |
  \\      /  F ield         | OpenFOAM: The Open Source CFD Toolbox
   \\    /   O peration     | Website:  https://openfoam.org
    \\  /    A nd           | Version:  7
     \\/     M anipulation  |
\*---------------------------------------------------------------------------*/
FoamFile
{
    version     2.0;
    format      ascii;
    class       surfaceScalarField;
    location    "9.6";
    object      phi;
}
// * * * * * * * * * * * * * * * * * * * * * * * * * * * * * * * * * * * * * //

dimensions      [0 3 -1 0 0 0 0];

internalField   nonuniform List<scalar> 
63520
(
6.78895e-06
-0.00014812
0.000141331
2.61353e-05
-0.00032663
0.000307284
5.78063e-05
-0.0004005
0.000368828
0.000101747
-0.000389302
0.000345361
0.000158018
-0.000307636
0.000251364
0.00022675
-0.000166868
9.8136e-05
0.000308118
2.39551e-05
-0.000105323
0.000402308
0.000257446
-0.000351636
0.000509503
0.000527562
-0.000634757
0.000629859
0.000829328
-0.000949683
0.000763484
0.00115852
-0.00129214
0.000910423
0.00151151
-0.00165845
0.00107064
0.00188514
-0.00204536
0.001244
0.00227656
-0.00244992
0.00143025
0.00268312
-0.00286937
0.00162903
0.0031023
-0.00330108
0.00183984
0.00353167
-0.00374248
0.00206204
0.00396883
-0.00419103
0.00229485
0.00441139
-0.0046442
0.00253737
0.00485695
-0.00509947
0.00278856
0.00530313
-0.00555432
0.00304726
0.00574756
-0.00600626
0.00331222
0.00618789
-0.00645284
0.00358209
0.00662181
-0.00689168
0.00385548
0.00704711
-0.0073205
0.00413094
0.00746167
-0.00773714
0.00440703
0.00786351
-0.00813959
0.00468231
0.00825079
-0.00852607
0.00495538
0.00862188
-0.00889496
0.00522492
0.00897536
-0.00924489
0.00548966
0.00931
-0.00957474
0.00574846
0.00962482
-0.00988363
0.0060003
0.00991908
-0.0101709
0.00624429
0.0101922
-0.0104362
0.00647966
0.010444
-0.0106794
0.00670584
0.0106742
-0.0109004
0.00692243
0.0108826
-0.0110992
0.00712925
0.011069
-0.0112758
0.00732635
0.0112325
-0.0114296
0.0113705
0.00751411
-0.0115582
6.53876e-06
-0.000154659
2.51762e-05
-0.000345268
5.55789e-05
-0.000430902
9.76312e-05
-0.000431355
0.000151383
-0.000361388
0.000216962
-0.000232447
0.000294561
-5.36441e-05
0.000384382
0.000167626
0.000486625
0.000425319
0.000601476
0.000714476
0.00072907
0.00103092
0.000869481
0.0013711
0.00102271
0.00173191
0.00118869
0.00211059
0.00136722
0.00250459
0.00155801
0.00291151
0.00176065
0.00332904
0.00197459
0.00375489
0.00219916
0.00418682
0.00243356
0.00462255
0.00267685
0.00505983
0.00292801
0.0054964
0.00318589
0.00593001
0.00344925
0.00635845
0.00371678
0.00677958
0.00398715
0.00719131
0.00425896
0.00759169
0.00453086
0.0079789
0.00480147
0.00835127
0.00506949
0.00870733
0.00533368
0.00904581
0.00559289
0.00936562
0.00584605
0.00966592
0.00609223
0.00994606
0.00633065
0.0102056
0.00656065
0.0104442
0.00678176
0.0106615
0.00699372
0.010857
0.00719648
0.0110297
0.0111767
0.00739026
6.29822e-06
-0.000160957
2.42051e-05
-0.000363175
5.32956e-05
-0.000459993
9.3414e-05
-0.000471473
0.000144617
-0.000412591
0.000207035
-0.000294865
0.000280875
-0.000127484
0.000366359
8.21416e-05
0.000463705
0.000327973
0.000573122
0.000605059
0.000694769
0.000909274
0.000828755
0.00123711
0.000975124
0.00158554
0.00113384
0.00195188
0.00130476
0.00233366
0.00148767
0.00272861
0.00168221
0.00313449
0.00188794
0.00354916
0.00210426
0.00397049
0.00233049
0.00439633
0.00256578
0.00482454
0.00280922
0.00525296
0.00305975
0.00567948
0.00331626
0.00610195
0.00357753
0.0065183
0.00384231
0.00692653
0.00410929
0.0073247
0.00437717
0.00771101
0.00464465
0.0080838
0.00491043
0.00844155
0.00517331
0.00878293
0.00543212
0.00910681
0.00568581
0.00941224
0.00593341
0.00969847
0.00617408
0.00996492
0.00640713
0.0102111
0.00663202
0.0104366
0.00684843
0.0106406
0.00705619
0.010822
0.0109775
0.00725539
6.06496e-06
-0.000167022
2.31897e-05
-0.000380299
5.09046e-05
-0.000487708
8.90373e-05
-0.000509606
0.000137641
-0.000461195
0.000196862
-0.000354086
0.000266925
-0.000197547
0.000348075
9.91173e-07
0.00044055
0.000235498
0.000544583
0.000501027
0.00066036
0.000793496
0.000788018
0.00110945
0.000927629
0.00144593
0.00107919
0.00180031
0.00124263
0.00217023
0.00141776
0.00255347
0.00160431
0.00294794
0.0018019
0.00335158
0.00201002
0.00376237
0.00222805
0.00417829
0.00245528
0.00459731
0.00269087
0.00501738
0.00293387
0.00543647
0.00318326
0.00585256
0.00343794
0.00626363
0.00369672
0.00666775
0.00395839
0.00706303
0.0042217
0.0074477
0.00448542
0.00782008
0.0047483
0.00817866
0.00500915
0.00852208
0.00526684
0.00884913
0.00552028
0.00915879
0.00576851
0.00945023
0.00601066
0.00972276
0.006246
0.00997578
0.00647395
0.0102087
0.00669408
0.0104205
0.00690616
0.0106099
0.0107735
0.00711012
5.81312e-06
-0.000172835
2.2113e-05
-0.000396599
4.83864e-05
-0.000513981
8.44611e-05
-0.000545681
0.000130399
-0.000507134
0.000186374
-0.000410061
0.000252626
-0.000263799
0.000329427
-7.58095e-05
0.000417043
0.000147881
0.000515726
0.000402344
0.000625686
0.000683536
0.000747088
0.000988052
0.000880035
0.00131298
0.00102456
0.00165578
0.00118062
0.00201417
0.00134809
0.002386
0.00152675
0.00276928
0.00171628
0.00316206
0.00191624
0.00356241
0.00212611
0.00396842
0.00234525
0.00437817
0.0025729
0.00478972
0.00280824
0.00520114
0.00305031
0.00561048
0.00329811
0.00601583
0.00355054
0.00641531
0.00380648
0.00680709
0.00406475
0.00718943
0.00432416
0.00756067
0.00458354
0.00791929
0.00484172
0.0082639
0.00509757
0.00859327
0.00535006
0.00890631
0.00559818
0.00920211
0.00584107
0.00947988
0.00607795
0.0097389
0.0063082
0.00997842
0.00653134
0.0101974
0.00674705
0.0103942
0.0105655
0.00695511
5.54867e-06
-0.000178384
2.0961e-05
-0.000412012
4.57143e-05
-0.000538735
7.96477e-05
-0.000579614
0.00012284
-0.000550327
0.000175496
-0.000462716
0.000237883
-0.000326186
0.000310301
-0.000148228
0.000393046
6.51364e-05
0.000486389
0.000309002
0.000590568
0.000579356
0.000705773
0.000872846
0.000832133
0.00118662
0.000969711
0.00151821
0.0011185
0.00186537
0.00127842
0.00222608
0.00144929
0.00259841
0.00163085
0.0029805
0.00182273
0.00337053
0.00202448
0.00376667
0.00223553
0.00416712
0.00245522
0.00457004
0.00268278
0.00497357
0.00291739
0.00537588
0.00315809
0.00577513
0.0034039
0.0061695
0.00365376
0.00655724
0.00390656
0.00693662
0.0041612
0.00730603
0.00441653
0.00766396
0.00467144
0.00800899
0.00492484
0.00833987
0.00517569
0.00865546
0.00542302
0.00895479
0.00566592
0.00923697
0.00590363
0.0095012
0.00613547
0.00974658
0.00636091
0.00997191
0.00657956
0.0101755
0.010354
0.00679104
5.25822e-06
-0.000183642
1.97183e-05
-0.000426472
4.2865e-05
-0.000561882
7.45596e-05
-0.000611309
0.000114912
-0.000590679
0.000164164
-0.000511968
0.000222616
-0.000384638
0.0002906
-0.000216213
0.000368443
-1.27058e-05
0.000456441
0.000221003
0.000554859
0.000480939
0.000663907
0.000763798
0.000783741
0.00106679
0.000914453
0.00138749
0.00105607
0.00172376
0.00120853
0.00207362
0.00137172
0.00243522
0.00154541
0.00280681
0.0017293
0.00318664
0.00192299
0.00357298
0.00212598
0.00396413
0.0023377
0.00435832
0.00255745
0.00475382
0.00278448
0.00514885
0.00301793
0.00554167
0.0032569
0.00593054
0.00350039
0.00631375
0.00374738
0.00668962
0.00399683
0.00705659
0.00424765
0.00741314
0.00449877
0.00775787
0.00474914
0.00808949
0.00499775
0.00840685
0.00524363
0.00870891
0.00548589
0.00899471
0.00572373
0.00926336
0.00595646
0.00951384
0.00618352
0.00974486
0.00640442
0.00995463
0.0101397
0.00661866
4.93632e-06
-0.000188579
1.83717e-05
-0.000439907
3.98153e-05
-0.000583325
6.91644e-05
-0.000640658
0.00010657
-0.000628085
0.000152318
-0.000557716
0.000206751
-0.000439071
0.000270236
-0.000279698
0.000343131
-8.56008e-05
0.000425763
0.00013837
0.000518421
0.000388281
0.000621339
0.000660879
0.000734695
0.000953433
0.000858609
0.00126358
0.00099313
0.00158924
0.00113824
0.00192851
0.00129384
0.00227962
0.00145977
0.00264088
0.00163576
0.00301065
0.00182147
0.00338727
0.00201647
0.00376913
0.00222023
0.00415455
0.00243216
0.00454189
0.00265156
0.00492946
0.00287765
0.00531558
0.0031096
0.00569859
0.00334651
0.00607684
0.00358741
0.00644872
0.00383132
0.00681268
0.00407723
0.00716723
0.00432411
0.00751099
0.00457094
0.00784265
0.00481676
0.00816104
0.0050606
0.00846507
0.00530159
0.00875372
0.00553893
0.00902602
0.00577191
0.00928087
0.00599991
0.00951685
0.0062224
0.00973215
0.0099234
0.00643874
4.57848e-06
-0.000193157
1.69102e-05
-0.000452239
3.65452e-05
-0.00060296
6.34318e-05
-0.000667545
9.77734e-05
-0.000662426
0.000139907
-0.00059985
0.000190223
-0.000489387
0.000249129
-0.000338604
0.000317019
-0.00015349
0.000394249
6.11399e-05
0.000481134
0.000301396
0.000577934
0.00056408
0.000684848
0.000846519
0.000802018
0.00114641
0.000929519
0.00146174
0.00106736
0.00179067
0.00121548
0.0021315
0.00137374
0.00248262
0.00154193
0.00284246
0.00171976
0.00320945
0.00190683
0.00358205
0.0021027
0.00395868
0.00230682
0.00433777
0.00251857
0.00471771
0.00273724
0.00509691
0.00296207
0.00547376
0.00319222
0.00584669
0.00342681
0.00621413
0.00366491
0.00657458
0.00390557
0.00692657
0.00414782
0.00726874
0.00439068
0.00759979
0.00463322
0.00791851
0.0048745
0.00822378
0.00511366
0.00851456
0.00534991
0.00878977
0.00558251
0.00904826
0.00581084
0.00928852
0.00603427
0.00950872
0.00970558
0.00625209
4.18033e-06
-0.000197337
1.53236e-05
-0.000463383
3.30382e-05
-0.000620675
5.73373e-05
-0.000691844
8.84881e-05
-0.000693577
0.000126888
-0.000638249
0.000172981
-0.000535481
0.000227218
-0.000392842
0.000290032
-0.000216304
0.000361812
-1.06407e-05
0.000442901
0.000220308
0.000533579
0.000473401
0.000634072
0.000746026
0.000744542
0.00103594
0.000865087
0.00134119
0.000995741
0.00166001
0.00113647
0.00199077
0.00128717
0.00233192
0.00144766
0.00268196
0.0016177
0.00303942
0.00179694
0.00340281
0.00198498
0.00377064
0.00218134
0.00414141
0.00238546
0.0045136
0.00259668
0.00488568
0.00281433
0.00525612
0.00303762
0.0056234
0.00326573
0.00598602
0.00349781
0.0063425
0.00373295
0.00669143
0.00397025
0.00703145
0.00420877
0.00736127
0.0044476
0.00767967
0.00468586
0.00798553
0.0049227
0.00827772
0.00515731
0.00855515
0.00538899
0.00881658
0.00561705
0.00906046
0.00584083
0.00928495
0.0094869
0.00605951
3.74019e-06
-0.000201078
1.3605e-05
-0.000473247
2.92806e-05
-0.000636351
5.08609e-05
-0.000713424
7.86887e-05
-0.000721405
0.000113228
-0.000672788
0.000154982
-0.000577235
0.000204453
-0.000442313
0.000262112
-0.000273963
0.000328385
-7.69133e-05
0.00040364
0.000145053
0.000488185
0.000388856
0.000582267
0.000651944
0.000686069
0.00093214
0.00079971
0.00122755
0.000923248
0.00153647
0.00105667
0.00185734
0.00119991
0.00218869
0.00135281
0.00252906
0.00151515
0.00287707
0.00168666
0.0032313
0.00186697
0.00359033
0.00205563
0.00395274
0.00225215
0.00431708
0.00245595
0.00468188
0.00266639
0.00504569
0.00288275
0.00540704
0.00310428
0.00576448
0.00333018
0.0061166
0.00355961
0.006462
0.0037917
0.00679936
0.00402557
0.00712739
0.00426036
0.00744489
0.0044952
0.00775068
0.00472928
0.00804365
0.0049618
0.00832263
0.00519204
0.00858634
0.0054193
0.00883319
0.00564287
0.00906138
0.00926793
0.00586184
3.25538e-06
-0.000204333
1.17479e-05
-0.00048174
2.52629e-05
-0.000649866
4.39891e-05
-0.000732151
6.83562e-05
-0.000745772
9.89037e-05
-0.000703336
0.000136201
-0.000614533
0.000180801
-0.000486913
0.00023322
-0.000326382
0.000293919
-0.000137613
0.000363298
7.56747e-05
0.000441687
0.000310466
0.000529359
0.000564273
0.000626515
0.000834984
0.000733297
0.00112077
0.00084978
0.00141999
0.000975978
0.00173115
0.00111184
0.00205282
0.00125724
0.00238366
0.00141201
0.0027223
0.00157589
0.00306742
0.00174855
0.00341767
0.00192961
0.00377168
0.00211861
0.00412808
0.00231503
0.00448546
0.00251827
0.00484244
0.00272769
0.00519762
0.00294258
0.00554959
0.00316221
0.00589698
0.00338577
0.00623844
0.00361246
0.00657267
0.00384146
0.0068984
0.00407192
0.00721443
0.00430302
0.00751958
0.00453396
0.00781271
0.00476398
0.00809261
0.00499234
0.00835798
0.00521833
0.0086072
0.00544119
0.00883853
0.00904919
0.00565993
2.72518e-06
-0.000207058
9.74934e-06
-0.000488764
2.09789e-05
-0.000661095
3.67133e-05
-0.000747885
5.74814e-05
-0.00076654
8.39051e-05
-0.000729759
0.000116623
-0.000647251
0.000156246
-0.000526536
0.000203336
-0.000373473
0.000258392
-0.000192669
0.000321844
1.22234e-05
0.00039405
0.00023826
0.000475304
0.000483019
0.000565829
0.000744459
0.000665785
0.00102081
0.000775268
0.00131051
0.000894312
0.0016121
0.00102288
0.00192425
0.00116089
0.00224565
0.00130819
0.00257501
0.00146454
0.00291107
0.00162967
0.00325254
0.00180322
0.00359813
0.00198479
0.00394651
0.00217389
0.00429636
0.00236999
0.00464635
0.00257248
0.00499512
0.00278073
0.00534134
0.00299402
0.00568368
0.00321164
0.00602082
0.00343281
0.0063515
0.00365675
0.00667446
0.00388267
0.00698851
0.00410977
0.00729248
0.00433729
0.00758519
0.00456446
0.00786544
0.00479057
0.00813187
0.00501488
0.00838289
0.00523657
0.00861683
0.00883114
0.00545462
2.14889e-06
-0.000209207
7.60739e-06
-0.000494223
1.64264e-05
-0.000669914
2.90321e-05
-0.000760491
4.60632e-05
-0.000783571
6.82314e-05
-0.000751928
9.62498e-05
-0.000675269
0.000130789
-0.000561075
0.000172461
-0.000415145
0.000221802
-0.00024201
0.000279274
-4.5249e-05
0.000345265
0.000172269
0.000420089
0.000408195
0.000503991
0.000660556
0.000597151
0.000927651
0.000699682
0.00120798
0.000811635
0.00150015
0.000933002
0.00180289
0.00106371
0.00211494
0.00120363
0.00243509
0.00135257
0.00276213
0.00151028
0.00309483
0.00167644
0.00343197
0.00185068
0.00377227
0.00203256
0.00411448
0.00222158
0.00445732
0.00241721
0.0047995
0.00261883
0.00513972
0.0028258
0.00547671
0.00303743
0.00580919
0.003253
0.00613592
0.00347178
0.00645569
0.003693
0.00676729
0.00391591
0.00706956
0.00413977
0.00736133
0.00436384
0.00764137
0.00458738
0.00790833
0.00480965
0.00816062
0.00502981
0.00839667
0.00861419
0.00524676
1.52669e-06
-0.000210734
5.32252e-06
-0.000498018
1.16072e-05
-0.000676199
2.095e-05
-0.000769834
3.41097e-05
-0.000796731
5.18946e-05
-0.000769713
7.50963e-05
-0.000698471
0.000104449
-0.000590428
0.000140615
-0.000451311
0.000184171
-0.000285565
0.000235612
-9.66903e-05
0.000295353
0.000112528
0.000363734
0.000339814
0.000441019
0.000583271
0.000527406
0.000841264
0.000623027
0.00111235
0.000727951
0.00139523
0.000842187
0.00168865
0.000965686
0.00199144
0.00109834
0.00230244
0.00123998
0.00262049
0.00139038
0.00294443
0.00154927
0.00327308
0.00171629
0.00360525
0.00189106
0.00393972
0.00207311
0.00427527
0.00226195
0.00461067
0.002457
0.00494467
0.00265768
0.00527603
0.00286334
0.00560354
0.00307329
0.00592596
0.00328685
0.00624213
0.00350329
0.00655085
0.00372189
0.00685096
0.00394193
0.0071413
0.00416268
0.00742063
0.00438341
0.0076876
0.00460337
0.00794066
0.00482167
0.00817837
0.00839869
0.00503717
8.59344e-07
-0.000211593
2.89716e-06
-0.000500056
6.52712e-06
-0.000679829
1.24781e-05
-0.000775785
2.1638e-05
-0.000805891
3.49184e-05
-0.000782993
5.31933e-05
-0.000716746
7.72629e-05
-0.000614498
0.000107841
-0.000481888
0.000145545
-0.00032327
0.000190906
-0.000142051
0.000244367
5.90673e-05
0.00030629
0.000277891
0.000376962
0.000512599
0.000456598
0.000761628
0.000545349
0.0010236
0.000643301
0.00129727
0.000750481
0.00158147
0.000866858
0.00187506
0.000992344
0.00217695
0.0011268
0.00248604
0.00127002
0.00280121
0.00142175
0.00312135
0.00158169
0.00344531
0.00174946
0.00377194
0.00192466
0.00410007
0.00210681
0.00442852
0.0022954
0.00475608
0.00248986
0.00508157
0.00268959
0.0054038
0.00289396
0.0057216
0.0031023
0.00603379
0.00331393
0.00633922
0.00352815
0.00663674
0.00374426
0.00692518
0.00396156
0.00720333
0.0041793
0.00746985
0.00439673
0.00772324
0.00461292
0.00796218
0.00818492
0.00482669
1.4613e-07
-0.000211739
3.36058e-07
-0.000500246
1.19644e-06
-0.00068069
3.63403e-06
-0.000778223
8.67468e-06
-0.000810932
1.73387e-05
-0.000791658
3.05862e-05
-0.000729994
4.9285e-05
-0.000633197
7.42011e-05
-0.000506805
0.000105997
-0.000355066
0.000145235
-0.00018129
0.000192388
1.19141e-05
0.000247843
0.000222436
0.000311908
0.000448534
0.000384817
0.000688719
0.000466737
0.000941683
0.000557773
0.00120624
0.000657967
0.00148127
0.000767308
0.00176572
0.000885727
0.00205853
0.0010131
0.00235866
0.00114926
0.00266505
0.00129397
0.00297664
0.00144695
0.00329233
0.00160788
0.00361102
0.00177635
0.0039316
0.00195195
0.00425292
0.00213418
0.00457384
0.00232253
0.00489322
0.00251643
0.00520991
0.00271528
0.00552275
0.00291845
0.00583062
0.00312528
0.00613238
0.00333512
0.0064269
0.00354727
0.00671303
0.00376103
0.00698957
0.00397569
0.0072552
0.00419043
0.00750849
0.00440433
0.00774828
0.0079731
0.00461616
-6.06546e-07
-0.000211133
-2.35502e-06
-0.000498498
-4.37075e-06
-0.000678674
-5.55798e-06
-0.000777036
-4.74467e-06
-0.000811745
-7.96345e-07
-0.000795606
7.33547e-06
-0.000738126
2.0588e-05
-0.000646449
3.97805e-05
-0.000525997
6.56189e-05
-0.000380904
9.87012e-05
-0.000214372
0.000139528
-2.89132e-05
0.000188512
0.000173452
0.000245981
0.000391065
0.000312189
0.000622511
0.00038732
0.000866552
0.000471495
0.00112206
0.000564776
0.00138799
0.000667167
0.00166333
0.000778619
0.00194708
0.000899031
0.00223825
0.00102825
0.00253583
0.00116607
0.00283881
0.00131224
0.00314616
0.00146645
0.00345681
0.00162835
0.0037697
0.00179754
0.00408373
0.00197356
0.00439782
0.00215594
0.00471085
0.00234412
0.00502172
0.00253756
0.00532931
0.00273564
0.00563253
0.00293776
0.00593027
0.00314325
0.00622141
0.00335146
0.00650483
0.00356168
0.00677934
0.00377319
0.00704369
0.00398518
0.00729651
0.00419666
0.0075368
0.00776336
0.0044064
-1.40074e-06
-0.000209732
-5.16664e-06
-0.000494732
-1.01556e-05
-0.000673685
-1.50671e-05
-0.000772124
-1.85752e-05
-0.000808237
-1.9427e-05
-0.000794754
-1.64837e-05
-0.000741069
-8.7379e-06
-0.000654195
4.68382e-06
-0.000539419
2.45308e-05
-0.000400751
5.14364e-05
-0.000241278
8.59302e-05
-6.3407e-05
0.000128448
0.000130935
0.00017934
0.000340172
0.000238879
0.000562972
0.000307267
0.000798163
0.000384643
0.00104469
0.000471085
0.00130155
0.000566614
0.0015678
0.000671201
0.00184249
0.000784764
0.00212469
0.000907171
0.00241343
0.00103824
0.00270774
0.00117774
0.00300665
0.0013254
0.00330915
0.00148088
0.00361421
0.00164382
0.0039208
0.00181379
0.00422785
0.00199034
0.0045343
0.00217296
0.00483909
0.00236113
0.00514115
0.00255426
0.0054394
0.00275176
0.00573277
0.002953
0.00602017
0.00315734
0.0063005
0.00336406
0.00657261
0.00357244
0.00683531
0.00378165
0.0070873
0.00399068
0.00732777
0.00755579
0.00419825
-2.23229e-06
-0.0002075
-8.08828e-06
-0.000488876
-1.61355e-05
-0.000665638
-2.48559e-05
-0.000763404
-3.27629e-05
-0.00080033
-3.84816e-05
-0.000789036
-4.07818e-05
-0.000738769
-3.8585e-05
-0.000656392
-3.09639e-05
-0.000547041
-1.71259e-05
-0.00041459
3.59738e-06
-0.000262001
3.17641e-05
-9.15737e-05
6.78338e-05
9.48648e-05
0.000112179
0.000295827
0.000165091
0.00051006
0.00022679
0.000736464
0.000297434
0.000974044
0.000377116
0.00122187
0.000465877
0.00147904
0.000563704
0.00174467
0.000670536
0.00201785
0.000786261
0.0022977
0.000910719
0.00258328
0.0010437
0.00287367
0.00118496
0.0031679
0.00133419
0.00346499
0.00149105
0.00376394
0.00165514
0.00406375
0.00182604
0.0043634
0.00200328
0.00466186
0.00218634
0.00495809
0.00237468
0.00525106
0.00256773
0.00553972
0.00276486
0.00582304
0.00296543
0.00609992
0.00316876
0.00636929
0.00337408
0.00662998
0.00358055
0.00688083
0.00378713
0.00712119
0.0073504
0.00399252
-3.09778e-06
-0.000204402
-1.11069e-05
-0.000480867
-2.22836e-05
-0.000654461
-3.48807e-05
-0.000750807
-4.72452e-05
-0.000787966
-5.78774e-05
-0.000778404
-6.54551e-05
-0.000731191
-6.88293e-05
-0.000653018
-6.70183e-05
-0.000548852
-5.91874e-05
-0.000422421
-4.46337e-05
-0.000276555
-2.27708e-05
-0.000113437
6.88476e-06
6.52092e-05
4.47264e-05
0.000257986
9.1066e-05
0.00046372
0.000146142
0.000681387
0.000210129
0.000910057
0.000283139
0.00114886
0.00036523
0.00139695
0.000456409
0.00165349
0.000556632
0.00191763
0.00066581
0.00218852
0.000783802
0.00246529
0.000910426
0.00274705
0.00104545
0.00303287
0.0011886
0.00332183
0.00133956
0.00361298
0.00149797
0.00390535
0.00166341
0.00419795
0.00183546
0.00448982
0.00201361
0.00477994
0.00219735
0.00506732
0.00238611
0.00535096
0.00257931
0.00562984
0.00277628
0.00590295
0.00297635
0.00616922
0.00317874
0.00642759
0.00338258
0.006677
0.00358679
0.00691697
0.00714714
0.00379005
-3.99315e-06
-0.000200409
-1.42073e-05
-0.000470653
-2.85689e-05
-0.000640099
-4.50916e-05
-0.000734284
-6.1951e-05
-0.000771107
-7.75208e-05
-0.000762834
-9.03869e-05
-0.000718325
-9.93307e-05
-0.000644075
-0.000103317
-0.000544866
-0.000101469
-0.000424268
-9.30507e-05
-0.000284973
-7.74483e-05
-0.000129039
-5.41545e-05
4.19155e-05
-2.2755e-05
0.000226586
1.70821e-05
0.000423883
6.56142e-05
0.000632855
0.000123033
0.000852639
0.000189468
0.00108242
0.000264998
0.00132142
0.000349648
0.00156884
0.000443393
0.00182389
0.000546163
0.00208575
0.000657841
0.00235361
0.000778265
0.00262662
0.000907229
0.00290391
0.00104448
0.00318458
0.00118974
0.00346773
0.00134265
0.00375243
0.00150284
0.00403776
0.0016699
0.00432276
0.00184335
0.00460648
0.0020227
0.00488797
0.00220741
0.00516626
0.00239687
0.00544038
0.00259045
0.00570936
0.00278745
0.00597222
0.00298708
0.00622797
0.00318843
0.00647565
0.00339041
0.006715
0.0069459
0.00359165
-4.9136e-06
-0.000195495
-1.73723e-05
-0.000458194
-3.49569e-05
-0.000622515
-5.54331e-05
-0.000713808
-7.68011e-05
-0.000749739
-9.73083e-05
-0.000742327
-0.000115448
-0.000700185
-0.000129934
-0.000629589
-0.000139679
-0.000535122
-0.000143765
-0.000420182
-0.000141425
-0.000287313
-0.000132017
-0.000138447
-0.000115011
2.49095e-05
-8.99718e-05
0.000201547
-5.65485e-05
0.000390459
-1.44644e-05
0.000590771
3.64898e-05
0.000801684
9.6464e-05
0.00102245
0.000165554
0.00125233
0.000243803
0.00149059
0.000331209
0.00173648
0.00042772
0.00198924
0.000533242
0.00224809
0.000647635
0.00251223
0.000770716
0.00278083
0.000902261
0.00305303
0.001042
0.00332799
0.00118962
0.00360481
0.00134478
0.0038826
0.00150707
0.00416047
0.00167605
0.0044375
0.00185125
0.00471277
0.00203212
0.00498539
0.00221809
0.00525441
0.00240851
0.00551894
0.00260266
0.00577806
0.00279975
0.00603088
0.00299882
0.00627657
0.00319876
0.00651506
0.0067465
0.00339816
-5.85362e-06
-0.000189642
-2.05828e-05
-0.000443465
-4.14094e-05
-0.000601688
-6.5844e-05
-0.000689374
-9.17094e-05
-0.000723873
-0.000117127
-0.00071691
-0.000140498
-0.000676814
-0.000160472
-0.000609615
-0.000175908
-0.000519686
-0.000185852
-0.000410238
-0.000189505
-0.00028366
-0.000186199
-0.000141752
-0.000175383
1.40928e-05
-0.0001566
0.000182764
-0.00012948
0.000363339
-9.37272e-05
0.000555018
-4.91142e-05
0.000757071
4.52773e-06
0.000968807
6.73135e-05
0.00118954
0.000139307
0.00141859
0.000220525
0.00165526
0.000310937
0.00189883
0.00041047
0.00214856
0.000519007
0.00240369
0.000636389
0.00266344
0.000762417
0.00292701
0.000896846
0.00319356
0.00103939
0.00346226
0.00118973
0.00373227
0.00134748
0.00400272
0.00151223
0.00427275
0.00168351
0.00454149
0.00186081
0.00480809
0.00204353
0.00507169
0.00223105
0.00533143
0.00242262
0.00558649
0.00261742
0.00583609
0.00281447
0.00607952
0.0030126
0.00631693
0.00654869
0.00321041
-6.80696e-06
-0.000182835
-2.38179e-05
-0.000426454
-4.78849e-05
-0.000577621
-7.62585e-05
-0.000661
-0.000106583
-0.000693549
-0.000136854
-0.000686638
-0.000165386
-0.000648283
-0.000190761
-0.00058424
-0.000211792
-0.000498655
-0.000227488
-0.000394542
-0.000237021
-0.000274128
-0.000239698
-0.000139075
-0.000234944
9.33948e-06
-0.000222286
0.000170106
-0.000201334
0.000342386
-0.000171772
0.000525456
-0.000133355
0.000718654
-8.58952e-05
0.000921347
-2.9258e-05
0.00113291
3.66403e-05
0.0013527
0.000111836
0.00158007
0.000196321
0.00181434
0.000290044
0.00205484
0.00039291
0.00230083
0.000504786
0.00255157
0.000625495
0.0028063
0.000754822
0.00306423
0.000892506
0.00332458
0.00103825
0.00358653
0.00119169
0.00384927
0.00135245
0.00411199
0.00152007
0.00437387
0.00169405
0.00463412
0.0018738
0.00489193
0.00205869
0.00514654
0.00224797
0.00539721
0.00244077
0.00564328
0.00263609
0.0058842
0.00283273
0.00612029
0.00635219
0.00302923
-7.76681e-06
-0.000175068
-2.70551e-05
-0.000407166
-5.4339e-05
-0.000550338
-8.66061e-05
-0.000628733
-0.000121322
-0.000658833
-0.000156362
-0.000651599
-0.00018995
-0.000614695
-0.00022061
-0.000553581
-0.000247108
-0.000472157
-0.000268418
-0.000373232
-0.000283684
-0.000258862
-0.000292191
-0.000130568
-0.000293345
1.0493e-05
-0.000286651
0.000163411
-0.000271701
0.000327436
-0.000248163
0.000501918
-0.000215771
0.000686262
-0.000174318
0.000879894
-0.000123652
0.00108224
-6.36675e-05
0.00129271
5.69174e-06
0.00151071
8.44385e-05
0.0017356
0.000172543
0.00196673
0.000269936
0.00220343
0.000376506
0.002445
0.000492103
0.0026907
0.000616538
0.0029398
0.000749577
0.00319154
0.000890945
0.00344516
0.00104032
0.0036999
0.00119733
0.00395498
0.00136154
0.00420966
0.00153246
0.0044632
0.00170953
0.00471486
0.00189208
0.00496398
0.00207937
0.00520992
0.0022705
0.00545216
0.00246442
0.00569028
0.0026599
0.00592482
0.00615665
0.00285544
-8.72584e-06
-0.000166342
-3.02704e-05
-0.000385621
-6.07243e-05
-0.000519884
-9.68126e-05
-0.000592645
-0.000135824
-0.000619821
-0.000175514
-0.000611909
-0.000214023
-0.000576186
-0.000249815
-0.000517788
-0.000281617
-0.000440355
-0.000308369
-0.000346481
-0.000329189
-0.000238042
-0.000343341
-0.000116415
-0.000350212
1.73634e-05
-0.000349288
0.000162487
-0.000340144
0.000318292
-0.00032243
0.000484204
-0.000295863
0.000659694
-0.000260215
0.000844247
-0.000215315
0.00103734
-0.000161038
0.00123844
-9.73086e-05
0.00144698
-2.40916e-05
0.00166238
5.86053e-05
0.00188404
0.000150735
0.0021113
0.000252213
0.00234352
0.000362913
0.00258
0.000482672
0.00282004
0.000611286
0.00306293
0.000748505
0.00330794
0.000894035
0.00355437
0.00104753
0.00380149
0.00120858
0.00404861
0.00137671
0.00429507
0.00155136
0.00454021
0.00173188
0.00478346
0.0019175
0.00502431
0.00210729
0.00526236
0.00230019
0.00549738
0.00249489
0.00573011
0.00596167
0.00268988
-9.67632e-06
-0.000156666
-3.34384e-05
-0.000361859
-6.69915e-05
-0.000486331
-0.0001068
-0.000552836
-0.00014998
-0.000576642
-0.000194168
-0.00056772
-0.000237428
-0.000532927
-0.000278167
-0.000477049
-0.000315074
-0.000403448
-0.000347058
-0.000314497
-0.000373215
-0.000211885
-0.00039279
-9.68399e-05
-0.000405151
2.9724e-05
-0.000409767
0.000167104
-0.000406198
0.000314723
-0.000394075
0.000472081
-0.000373096
0.000638716
-0.000343018
0.000814169
-0.000303649
0.00099797
-0.000254846
0.00118963
-0.000196511
0.00138864
-0.000128591
0.00159446
-5.10704e-05
0.00180651
3.60268e-05
0.00202421
0.000132639
0.00224691
0.000238667
0.00247397
0.000353974
0.00270473
0.000478383
0.00293852
0.000611675
0.00317465
0.000753583
0.00341246
0.000903789
0.00365128
0.00106191
0.00389049
0.0012275
0.00412948
0.00140001
0.0043677
0.00157878
0.00460468
0.00176305
0.00484004
0.00195187
0.00507354
0.00214413
0.00530512
0.00233849
0.00553576
0.00576678
0.00253337
-1.06101e-05
-0.000146056
-3.65328e-05
-0.000335937
-7.30897e-05
-0.000449774
-0.00011649
-0.000509436
-0.000163677
-0.000529454
-0.00021218
-0.000519218
-0.000259983
-0.000485124
-0.000305447
-0.000431586
-0.000347221
-0.000361674
-0.000384191
-0.000277527
-0.00041543
-0.000180646
-0.000440166
-7.21042e-05
-0.00045775
4.73083e-05
-0.000467638
0.000176991
-0.000469371
0.000316456
-0.000462566
0.000465276
-0.000446904
0.000623054
-0.000422123
0.000789388
-0.000388014
0.000963861
-0.000344415
0.00114603
-0.00029121
0.00133544
-0.000228324
0.00153157
-0.000155721
0.00173391
-7.34036e-05
0.00194189
1.85901e-05
0.00215491
0.000120186
0.00237238
0.000231273
0.00259365
0.000351702
0.00281809
0.000481284
0.00304507
0.000619785
0.00327396
0.000766916
0.00350415
0.000922329
0.00373508
0.0010856
0.00396621
0.00125621
0.0041971
0.00143352
0.00442737
0.00161675
0.00465681
0.00180495
0.00488534
0.00199698
0.00511309
0.00219145
0.00534128
0.00557149
0.00238674
-1.15189e-05
-0.000134537
-3.95265e-05
-0.000307929
-7.89665e-05
-0.000410334
-0.000125798
-0.000462604
-0.000176802
-0.000478451
-0.000229399
-0.000466621
-0.000281505
-0.000433018
-0.000331431
-0.00038166
-0.000377797
-0.000315308
-0.000419465
-0.000235859
-0.000455489
-0.000144622
-0.000485082
-4.25114e-05
-0.000507581
6.98076e-05
-0.000522427
0.000191837
-0.000529148
0.000323176
-0.000527346
0.000463474
-0.000516685
0.000612393
-0.000496887
0.00076959
-0.000467726
0.0009347
-0.000429023
0.00110733
-0.000380643
0.00128706
-0.000322493
0.00147342
-0.000254517
0.00166594
-0.000176697
0.00186407
-8.90502e-05
0.00206727
8.37271e-06
0.00227495
0.000115486
0.00248653
0.000232167
0.00270141
0.000358257
0.00291898
0.000493553
0.00313866
0.000637805
0.0033599
0.0007907
0.00358218
0.000951849
0.00380506
0.00112077
0.00402818
0.00129685
0.00425129
0.00147934
0.00447432
0.00166727
0.0046974
0.00185949
0.00492088
0.00205456
0.00514621
0.00537526
0.00225079
-1.2394e-05
-0.000122143
-4.23918e-05
-0.000277931
-8.45692e-05
-0.000368156
-0.000134644
-0.000412529
-0.000189239
-0.000423855
-0.000245675
-0.000410186
-0.000301804
-0.000376889
-0.000355894
-0.00032757
-0.000406535
-0.000264667
-0.000452571
-0.000189823
-0.00049304
-0.000104152
-0.000527142
-8.40978e-06
-0.000554202
9.68672e-05
-0.000573648
0.000211283
-0.000584995
0.000334523
-0.000587832
0.00046631
-0.000581808
0.000606369
-0.000566631
0.000754413
-0.000542059
0.000910128
-0.000507897
0.00107317
-0.000463994
0.00124315
-0.000410239
0.00141967
-0.000346559
0.00160226
-0.000272917
0.00179043
-0.000189312
0.00198366
-9.57745e-05
0.00218141
7.63183e-06
0.00238313
0.00012081
0.00258823
0.000243629
0.00279616
0.000375919
0.00300637
0.000517466
0.00321835
0.000668002
0.00343165
0.000827187
0.00364588
0.000994585
0.00386078
0.00116964
0.00407624
0.00135162
0.00429234
0.00153961
0.00450942
0.00173242
0.00472807
0.00192859
0.00495004
0.0051775
0.00212635
-1.32265e-05
-0.000108916
-4.51013e-05
-0.000246057
-8.9845e-05
-0.000323413
-0.000142944
-0.00035943
-0.000200874
-0.000365926
-0.000260858