/*--------------------------------*- C++ -*----------------------------------*\
  =========                 |
  \\      /  F ield         | OpenFOAM: The Open Source CFD Toolbox
   \\    /   O peration     | Website:  https://openfoam.org
    \\  /    A nd           | Version:  7
     \\/     M anipulation  |
\*---------------------------------------------------------------------------*/
FoamFile
{
    version     2.0;
    format      ascii;
    class       volScalarField;
    location    "37";
    object      p;
}
// * * * * * * * * * * * * * * * * * * * * * * * * * * * * * * * * * * * * * //

dimensions      [0 2 -2 0 0 0 0];

internalField   nonuniform List<scalar> 
2000
(
-0.0196355
-0.0186762
-0.0182436
-0.018083
-0.0182709
-0.0187722
-0.0194881
-0.0203027
-0.0211102
-0.0218079
-0.0195623
-0.0186327
-0.018179
-0.0179768
-0.0181197
-0.0185895
-0.0193031
-0.0201548
-0.0210473
-0.0218819
-0.0194621
-0.0185549
-0.0180654
-0.0177991
-0.0178673
-0.0182705
-0.0189422
-0.0197896
-0.020723
-0.0216548
-0.0193403
-0.0184407
-0.0179007
-0.0175507
-0.0175201
-0.0178278
-0.0184246
-0.0192314
-0.0201656
-0.0211581
-0.0191987
-0.0182868
-0.0176837
-0.0172354
-0.0170896
-0.0172816
-0.0177786
-0.0185144
-0.0194171
-0.0204393
-0.0190368
-0.0180887
-0.0174123
-0.0168574
-0.0165889
-0.0166564
-0.0170404
-0.0176874
-0.0185319
-0.0195589
-0.0188501
-0.0178396
-0.0170828
-0.0164196
-0.0160307
-0.0159767
-0.0162475
-0.0167984
-0.0175688
-0.0185846
-0.0186283
-0.0175298
-0.0166886
-0.015922
-0.0154239
-0.0152626
-0.0154335
-0.0158967
-0.0165944
-0.0175959
-0.0183549
-0.0171465
-0.0162206
-0.015361
-0.0147707
-0.0145211
-0.0146092
-0.0149987
-0.0156415
-0.0166721
-0.0180074
-0.0166746
-0.015668
-0.0147316
-0.0140695
-0.0137468
-0.0137507
-0.0140364
-0.014569
-0.0155944
-0.022784
-0.021981
-0.0186523
-0.0131993
-0.00696244
7.91281e-05
0.00649675
0.0134606
0.0177351
0.0217738
-0.0231761
-0.0232283
-0.020568
-0.0156516
-0.00985873
-0.00313156
0.00301687
0.00977392
0.0140326
0.017917
-0.0232592
-0.0241439
-0.0221375
-0.0177669
-0.0124028
-0.0059867
-9.23545e-05
0.0064536
0.0106372
0.0144218
-0.0230663
-0.0247227
-0.0233515
-0.0195326
-0.0145861
-0.00848602
-0.00283542
0.00348721
0.00756205
0.0112747
-0.0226473
-0.0249741
-0.0242141
-0.02094
-0.0163992
-0.0106142
-0.00520186
0.000892462
0.00485247
0.00848824
-0.0220672
-0.024923
-0.0247496
-0.0220101
-0.0178713
-0.0124033
-0.00723751
-0.00137987
0.00246412
0.00603549
-0.0213989
-0.0246116
-0.0249839
-0.0227408
-0.0189844
-0.013826
-0.00891128
-0.00328615
0.00042524
0.00393004
-0.020722
-0.0241001
-0.0249844
-0.023225
-0.0198504
-0.0150035
-0.0103481
-0.00494965
-0.00137479
0.00210951
-0.0201863
-0.0234526
-0.0247125
-0.0233589
-0.0203477
-0.0158181
-0.01143
-0.00626078
-0.00285223
0.000591822
-0.0197128
-0.0227721
-0.0244863
-0.0235701
-0.0209238
-0.0166962
-0.0125306
-0.00755654
-0.00422566
-0.000745985
-0.0141337
-0.0177537
-0.0206909
-0.0211931
-0.0198104
-0.0167664
-0.0133272
-0.00923881
-0.00619359
-0.003267
-0.0145412
-0.0156209
-0.0168083
-0.0171397
-0.0163432
-0.0144159
-0.0121114
-0.00943607
-0.00723756
-0.00525907
-0.0133265
-0.0131857
-0.0132503
-0.0130169
-0.0122562
-0.0108878
-0.00939843
-0.00782006
-0.00670489
-0.00558314
-0.011633
-0.0104647
-0.00986446
-0.00933077
-0.00857974
-0.00752985
-0.00652907
-0.00551709
-0.00506958
-0.00458574
-0.00980388
-0.00800356
-0.00695316
-0.00631548
-0.00568772
-0.00491737
-0.00429147
-0.00368346
-0.00347181
-0.00308826
-0.00770856
-0.00574245
-0.00458535
-0.00396532
-0.00346308
-0.00290081
-0.00249027
-0.00216272
-0.00226542
-0.00202889
-0.00545801
-0.00357298
-0.00256926
-0.00212223
-0.00182229
-0.00148068
-0.00123925
-0.00103021
-0.00126576
-0.00120241
-0.00309495
-0.00174966
-0.00105286
-0.000771286
-0.00063497
-0.000468456
-0.000383178
-0.000306435
-0.00058839
-0.000541485
-0.00111799
-0.000227991
1.10571e-05
4.11186e-05
1.6415e-05
6.74758e-05
8.68592e-05
0.000131464
-0.00017396
-0.000113474
-9.52438e-05
0.000328717
0.000444454
0.000398029
0.00031096
0.000269664
0.000190313
0.000189879
-6.95625e-05
-1.23004e-05
-0.0122833
-0.0130196
-0.0125764
-0.0116824
-0.0103141
-0.00833639
-0.0058486
-0.0036748
-0.0015831
-0.000417764
-0.0117913
-0.0127118
-0.0125552
-0.0118827
-0.0105976
-0.00863168
-0.00617525
-0.00389408
-0.00175076
-0.000531814
-0.0115859
-0.0126624
-0.0126937
-0.0121482
-0.0108858
-0.00891445
-0.00645692
-0.00409049
-0.00190762
-0.000625869
-0.0115316
-0.0126728
-0.0128496
-0.0124013
-0.0111513
-0.00917805
-0.00671037
-0.00428203
-0.00205884
-0.000709277
-0.0115305
-0.0126842
-0.0129759
-0.0126145
-0.0113742
-0.00940452
-0.00692799
-0.00445827
-0.00220064
-0.000783454
-0.0114678
-0.0126418
-0.0130306
-0.012756
-0.0115303
-0.00957591
-0.00710155
-0.0046119
-0.00233097
-0.000849635
-0.0112378
-0.0124824
-0.0129675
-0.0127915
-0.0115954
-0.009677
-0.00722428
-0.00473787
-0.00244778
-0.000911287
-0.0107711
-0.0121581
-0.0127496
-0.0126953
-0.0115517
-0.00969721
-0.00729096
-0.00483265
-0.00254769
-0.000967126
-0.0100152
-0.0116551
-0.0123678
-0.0124519
-0.0113926
-0.0096301
-0.00730062
-0.0048932
-0.00263474
-0.000990188
-0.00900053
-0.0109606
-0.0118151
-0.012063
-0.0111185
-0.00947643
-0.00725267
-0.00491836
-0.00270156
-0.000979825
-0.00777121
-0.0100932
-0.0111067
-0.0115408
-0.0107386
-0.0092409
-0.00714656
-0.00490423
-0.00274334
-0.000960058
-0.00637349
-0.00908753
-0.0102687
-0.0109052
-0.0102691
-0.00893339
-0.00698753
-0.00485195
-0.00275974
-0.000934707
-0.00485479
-0.00797739
-0.00933289
-0.0101796
-0.00973013
-0.00856805
-0.00678526
-0.00476659
-0.00275248
-0.000905029
-0.00326002
-0.00679252
-0.00833096
-0.00938698
-0.00914089
-0.00815749
-0.00654692
-0.00465116
-0.00272231
-0.000872183
-0.00162665
-0.00555627
-0.00729122
-0.00854823
-0.00851802
-0.00771306
-0.00627925
-0.00450933
-0.00267093
-0.000837127
1.14619e-05
-0.0042877
-0.00623853
-0.00768144
-0.00787474
-0.00724474
-0.00598842
-0.00434519
-0.00260059
-0.000800405
0.00161711
-0.00300396
-0.00519202
-0.00680115
-0.00722137
-0.00676142
-0.00567988
-0.00416272
-0.00251355
-0.000762231
0.00318944
-0.00168926
-0.00414784
-0.00591201
-0.00656481
-0.00627322
-0.00536122
-0.00396739
-0.00241287
-0.000722514
0.00480799
-0.000259169
-0.00306825
-0.00500084
-0.00589916
-0.00578378
-0.00503948
-0.00376634
-0.00230221
-0.000680164
0.00616353
0.00116512
-0.00200418
-0.00408383
-0.00520006
-0.00525644
-0.00468212
-0.00354119
-0.00217037
-0.000632217
0.00718117
0.00357952
0.000199854
-0.00199982
-0.00341666
-0.00384827
-0.00363696
-0.00284858
-0.00175898
-0.000522027
0.0090265
0.00572159
0.00258756
0.000425868
-0.00115176
-0.0018957
-0.00209726
-0.00172335
-0.00103213
-0.000216154
0.0116517
0.00827401
0.00504475
0.00274497
0.00092233
-0.000131582
-0.00069091
-0.000649103
-0.000289141
0.000130857
0.0144838
0.0108821
0.00747413
0.00494821
0.00284162
0.00147083
0.000594173
0.000372825
0.000472173
0.000529657
0.0175209
0.0135485
0.00986508
0.00703984
0.00461615
0.00292919
0.00177623
0.00135462
0.00126093
0.000984971
0.0207232
0.0162897
0.0122288
0.00902158
0.00626269
0.00427284
0.00288874
0.00231166
0.00207326
0.00147803
0.02404
0.0190241
0.0144821
0.010864
0.0078102
0.00554844
0.00397451
0.00324158
0.00283814
0.001891
0.0270425
0.0211408
0.0164405
0.0125768
0.00928071
0.00677686
0.00502977
0.00406583
0.00333404
0.001964
0.0296548
0.0241782
0.0187679
0.0141971
0.0105208
0.00780479
0.00588134
0.00457944
0.00337298
0.00166216
0.0319541
0.0245925
0.0190021
0.0145873
0.0110733
0.00839514
0.00639014
0.00482927
0.00328785
0.00139846
0.010061
0.0118411
0.0143291
0.0171792
0.0204245
0.0238928
0.0273996
0.0319258
0.0329043
0.0377384
0.0112018
0.0132801
0.015868
0.0188394
0.0222407
0.0258693
0.0295582
0.0339295
0.0353509
0.0394068
0.0121577
0.0146676
0.0175617
0.0208612
0.0245606
0.0284696
0.0324371
0.0363705
0.0386336
0.0408185
0.0130445
0.015838
0.0190053
0.0226456
0.0266526
0.0308529
0.0350986
0.0389465
0.0417399
0.042925
0.0139773
0.0170122
0.0203933
0.0243036
0.0285544
0.0329841
0.0374588
0.0414827
0.0445629
0.0456893
0.0149449
0.0182838
0.0219073
0.0260588
0.0305106
0.0351195
0.03977
0.0440239
0.0473052
0.0487827
0.0159267
0.0196241
0.0235586
0.0279748
0.0326376
0.0374272
0.0422387
0.0466893
0.0501487
0.051981
0.0169334
0.0210069
0.0253031
0.0300128
0.0349204
0.0399252
0.0449217
0.0495485
0.0531723
0.0552264
0.0179843
0.0224322
0.0271201
0.0321324
0.0373136
0.042567
0.0477871
0.0526024
0.0563821
0.0585507
0.0190948
0.0239017
0.0290093
0.0343174
0.0397921
0.0453123
0.0507885
0.0558188
0.0597571
0.0619965
0.0202773
0.0254029
0.0309717
0.036558
0.042349
0.0481427
0.0539009
0.0591717
0.0632799
0.0655877
0.021532
0.0269047
0.0329943
0.0388341
0.0449761
0.0510475
0.0571124
0.0626454
0.066941
0.0693276
0.0228255
0.0283756
0.0350435
0.0411213
0.0476555
0.0540257
0.0604277
0.0662443
0.0707467
0.073218
0.0241035
0.0298007
0.0370698
0.0434015
0.0503609
0.0570754
0.0638385
0.0699671
0.0747079
0.0772653
0.0253027
0.0311792
0.03902
0.0456712
0.0530643
0.0602268
0.0673565
0.0738187
0.0788106
0.0814662
0.0263502
0.0325126
0.0408238
0.0479628
0.0557698
0.0633822
0.0709233
0.077759
0.0830326
0.0858104
0.0271767
0.0337895
0.0425671
0.0501968
0.0584364
0.0665241
0.0745397
0.0817958
0.0873848
0.0903125
0.0276737
0.0350364
0.0441162
0.0522457
0.0609504
0.0695561
0.0781081
0.0858567
0.0918316
0.0949596
0.0278546
0.036289
0.0455127
0.0541903
0.0633926
0.0725645
0.0816962
0.0899864
0.0963983
0.099786
0.027396
0.0369327
0.0463286
0.05556
0.0652669
0.0750599
0.0848833
0.093901
0.100953
0.104747
0.0288375
0.0406697
0.0504842
0.0607535
0.0714731
0.0825351
0.0937456
0.10423
0.112587
0.117286
0.0407411
0.051672
0.0617225
0.073433
0.0858233
0.0989428
0.1124
0.125059
0.135182
0.140775
0.0530713
0.0643732
0.075524
0.088956
0.103221
0.118755
0.134651
0.149532
0.161363
0.167926
0.0652579
0.0775802
0.0906157
0.106169
0.12285
0.141359
0.15994
0.177215
0.190762
0.19811
0.077497
0.0912924
0.106609
0.124602
0.144247
0.166127
0.187594
0.207451
0.222658
0.231006
0.0902534
0.105763
0.123578
0.144327
0.167379
0.1928
0.217275
0.239761
0.256322
0.264961
0.103133
0.120598
0.140976
0.16473
0.191325
0.220084
0.247618
0.272463
0.289815
0.299411
0.115925
0.135297
0.158325
0.185107
0.215069
0.246814
0.277577
0.304553
0.32207
0.329844
0.125845
0.146909
0.172076
0.201194
0.233692
0.267788
0.301412
0.33022
0.348276
0.356759
0.13302
0.155098
0.181636
0.212283
0.246459
0.282418
0.318563
0.35087
0.372904
0.365635
0.0241531
0.0353836
0.0465272
0.0581695
0.069608
0.081845
0.0935119
0.105747
0.114986
0.12185
0.0232997
0.0348559
0.0456753
0.0570441
0.0681397
0.0800637
0.0912111
0.103093
0.111773
0.118354
0.0232803
0.0354343
0.0462554
0.05751
0.0683995
0.0800007
0.0907308
0.102054
0.109937
0.116057
0.0227963
0.0352206
0.0460626
0.05731
0.0680789
0.0794488
0.0898635
0.100712
0.107997
0.113695
0.0220451
0.0345694
0.0453274
0.0564943
0.0671027
0.0782238
0.0883277
0.0987741
0.105659
0.111029
0.0212647
0.0338283
0.044587
0.0556226
0.0660353
0.0768603
0.0866209
0.0966732
0.103232
0.108331
0.0204372
0.0330359
0.0439708
0.0549019
0.0651647
0.0757176
0.0851457
0.094838
0.101076
0.105933
0.0195343
0.0322267
0.0433856
0.0542977
0.0644973
0.0748553
0.0840239
0.0934285
0.0993763
0.104015
0.018576
0.031443
0.0428128
0.053758
0.0639843
0.0742184
0.0832403
0.0923975
0.0981606
0.102592
0.0175964
0.0307109
0.0423003
0.0533161
0.0635999
0.0737588
0.0827831
0.0916347
0.0973956
0.101598
0.0166268
0.0300473
0.0418809
0.0530096
0.0633619
0.0735059
0.0825573
0.0911914
0.0969945
0.100989
0.0156505
0.0294216
0.0415422
0.0528344
0.0632844
0.0734701
0.0825509
0.0910837
0.0969126
0.100761
0.0146155
0.0287802
0.0412493
0.0527642
0.0633626
0.0736494
0.0827865
0.0913081
0.0971542
0.100911
0.0135017
0.0281065
0.0409852
0.052779
0.0635848
0.0740331
0.0832713
0.091847
0.0977231
0.101434
0.0123037
0.0274078
0.0407468
0.0528718
0.0639482
0.0746169
0.0840124
0.0926998
0.0986282
0.102322
0.0109898
0.0266633
0.0405035
0.0530154
0.064428
0.0753714
0.0849828
0.0938342
0.0998474
0.103561
0.00954198
0.0258842
0.0402521
0.0532112
0.0650287
0.0763056
0.0862017
0.0952625
0.101392
0.105145
0.00782275
0.02494
0.0398725
0.053359
0.065652
0.0773208
0.087575
0.0969047
0.103211
0.107063
0.00600942
0.0240206
0.0394947
0.0535537
0.0663764
0.0784895
0.0891699
0.0988107
0.105341
0.109319
0.00324266
0.0222841
0.0384756
0.0532344
0.0666766
0.0793253
0.0905679
0.100686
0.107629
0.111905
0.00171985
0.0212469
0.0384012
0.0544703
0.0692942
0.0830914
0.095576
0.106585
0.11443
0.119097
0.00987777
0.0295409
0.0470858
0.0643103
0.0805281
0.0959186
0.110225
0.122879
0.131998
0.137063
0.0212102
0.0420368
0.060504
0.0791989
0.0967811
0.114064
0.130505
0.145177
0.155796
0.161379
0.0334815
0.0557091
0.0758602
0.0965779
0.116189
0.136427
0.155781
0.173314
0.186158
0.192645
0.0458403
0.0696771
0.0919943
0.115046
0.137604
0.161801
0.185023
0.206814
0.223173
0.231376
0.0582276
0.083724
0.108612
0.134366
0.160824
0.189661
0.217948
0.245666
0.267564
0.279542
0.069934
0.0973744
0.124833
0.15365
0.1846
0.218578
0.253256
0.288574
0.318953
0.339125
0.0810489
0.110043
0.140163
0.172411
0.208106
0.247603
0.289914
0.334893
0.378096
0.415299
0.0884329
0.118751
0.151002
0.186045
0.225714
0.270407
0.320927
0.377842
0.440881
0.509497
0.0926576
0.125313
0.159444
0.196947
0.240053
0.289767
0.348561
0.419973
0.511337
0.625646
-0.00522863
0.00154254
0.0100515
0.020098
0.0302842
0.0418837
0.0516756
0.0627326
0.0699264
0.0722453
-0.00777102
-0.00136658
0.00652814
0.0161217
0.0257112
0.0368612
0.0458102
0.0567638
0.0633881
0.0666096
-0.00984776
-0.00355909
0.00422134
0.0136816
0.0232685
0.0338667
0.0421951
0.0527057
0.0584996
0.0637494
-0.012014
-0.00608711
0.0014185
0.0105771
0.0201786
0.0303498
0.0382718
0.0483218
0.0535209
0.0599586
-0.0141719
-0.00881424
-0.00180179
0.0068447
0.0160644
0.0259876
0.0334981
0.0431305
0.0479066
0.0545227
-0.0162054
-0.011493
-0.00504294
0.00303606
0.0116592
0.0211872
0.0283721
0.0375343
0.0419331
0.0481525
-0.0180579
-0.0140366
-0.00815597
-0.000613971
0.00742365
0.0163255
0.0234662
0.0320217
0.0360966
0.0417662
-0.0196803
-0.0164041
-0.0111142
-0.00408601
0.00346353
0.0117605
0.018815
0.0268259
0.0307521
0.0359003
-0.0210275
-0.0185454
-0.0138834
-0.00737318
-0.000258607
0.00753311
0.0144308
0.0219567
0.0260357
0.0306747
-0.0220678
-0.0204145
-0.0164119
-0.0104299
-0.00374659
0.00363606
0.0103142
0.0175091
0.0217252
0.0260033
-0.0175548
-0.0160958
-0.0150192
-0.0140299
-0.013324
-0.0129486
-0.0128638
-0.0129922
-0.0132398
-0.0134188
-0.0169468
-0.0153857
-0.0142613
-0.0132534
-0.0125437
-0.0121586
-0.0120384
-0.0120968
-0.0122518
-0.0123808
-0.0161576
-0.0145298
-0.0133841
-0.0123971
-0.0117301
-0.0113864
-0.0112909
-0.0113548
-0.0115035
-0.0116624
-0.0151542
-0.013509
-0.0123731
-0.0114488
-0.0108706
-0.010617
-0.0105984
-0.0107231
-0.0109132
-0.011117
-0.0139032
-0.0123029
-0.0112107
-0.0103889
-0.00993914
-0.00981403
-0.00991131
-0.0101357
-0.0104042
-0.010682
-0.0123772
-0.0108929
-0.00987832
-0.00919283
-0.00890047
-0.00892845
-0.00916414
-0.00950975
-0.00988022
-0.0102559
-0.0105582
-0.00926382
-0.00835948
-0.00783669
-0.00771922
-0.00791132
-0.00829331
-0.0087671
-0.00925034
-0.00973624
-0.00843932
-0.00740736
-0.00664365
-0.0063032
-0.00636928
-0.00672637
-0.00725216
-0.00785111
-0.00844772
-0.0090423
-0.00603122
-0.00532726
-0.00473103
-0.00458785
-0.00484072
-0.00535777
-0.00601898
-0.00673371
-0.00743654
-0.00814128
-0.00338262
-0.00304919
-0.00263865
-0.00270433
-0.00314136
-0.00381117
-0.00459753
-0.00541683
-0.00621533
-0.00701518
-0.000587475
-0.000617887
-0.000406027
-0.000680758
-0.00129817
-0.00211235
-0.0030133
-0.00392558
-0.00480648
-0.00568468
0.0023965
0.00194961
0.00193457
0.0014411
0.000645824
-0.000304291
-0.00130897
-0.00230185
-0.00324986
-0.00419034
0.00547437
0.00458296
0.00432431
0.00360853
0.002641
0.00156441
0.000467067
-0.000593981
-0.00159348
-0.00258081
0.00854875
0.00720738
0.00669711
0.00576149
0.00463082
0.00343939
0.00226176
0.00114581
0.000111003
-0.000906982
0.011525
0.00974443
0.0089835
0.00783758
0.00655769
0.00526632
0.00402297
0.00286653
0.00181339
0.000783058
0.0143065
0.0121135
0.0111143
0.0097764
0.00836702
0.00699462
0.00570271
0.00452076
0.00346756
0.0024456
0.0167995
0.0142368
0.013025
0.0115233
0.0100107
0.00858074
0.00726057
0.00606668
0.0050335
0.00403955
0.018918
0.0160442
0.0146593
0.0130324
0.0114498
0.00999072
0.00866967
0.00749982
0.00647859
0.00552063
0.0205886
0.0174763
0.0159722
0.0142692
0.0126563
0.0111995
0.00989872
0.00874476
0.00774222
0.00683204
0.0217533
0.0184877
0.0169306
0.0152119
0.0136174
0.0122009
0.0109459
0.00981059
0.00879733
0.00796705
0.0223713
0.0190466
0.0175128
0.0158487
0.0143352
0.0130227
0.011897
0.0109136
0.0100997
0.00974826
0.0224138
0.0191317
0.0177033
0.0161657
0.0147908
0.0136253
0.0126554
0.0118375
0.0111937
0.0109619
0.0218748
0.0187405
0.0174987
0.0161562
0.0149712
0.0139876
0.0131926
0.0125454
0.0120485
0.0118699
0.0207726
0.017887
0.0169084
0.0158259
0.0148806
0.0141166
0.0135255
0.0130732
0.0127483
0.0126627
0.0191466
0.0166009
0.0159554
0.0151938
0.0145364
0.0140311
0.0136764
0.0134466
0.0133238
0.0133818
0.0170548
0.0149264
0.0146747
0.0142897
0.013966
0.013757
0.0136704
0.013689
0.0137932
0.0140317
0.01457
0.0129195
0.0131109
0.0131508
0.0132024
0.0133247
0.0135353
0.0138266
0.0141805
0.0146277
0.0117748
0.0106436
0.0113142
0.0118187
0.0122814
0.0127656
0.0132993
0.0138853
0.0145098
0.0151911
0.00875758
0.00816535
0.0093373
0.0103359
0.0112385
0.0121098
0.0129883
0.0138874
0.0148012
0.0157403
0.00562551
0.0055565
0.00723331
0.00874314
0.0101061
0.0113835
0.0126236
0.0138508
0.0150689
0.0162876
0.00252084
0.00290701
0.00506225
0.00708274
0.00891547
0.0106106
0.0122233
0.0137886
0.0153214
0.0168377
-0.000619607
0.000226495
0.00285244
0.00538099
0.0076873
0.00980572
0.0117972
0.013706
0.0155575
0.017384
-0.00370517
-0.00242529
0.00064453
0.00366509
0.00643959
0.00897989
0.0113499
0.0136015
0.015768
0.0179064
-0.00666096
-0.00499575
-0.00152555
0.00195678
0.00518442
0.00813765
0.0108798
0.0134675
0.0159368
0.0183752
-0.00944432
-0.0074442
-0.0036314
0.000272617
0.00392925
0.007279
0.0103807
0.0132928
0.0160457
0.0187571
-0.0120173
-0.00972712
-0.00566606
-0.00137526
0.00267818
0.00640069
0.00984393
0.0130653
0.0160784
0.019017
-0.0143584
-0.0118348
-0.00759136
-0.00297982
0.00143274
0.0054978
0.00925965
0.0127752
0.0160314
0.0191289
-0.016453
-0.0137574
-0.00939117
-0.00452578
0.000189491
0.00456435
0.00861651
0.012409
0.0159131
0.0190838
-0.0182932
-0.0154813
-0.0110605
-0.00601282
-0.00104802
0.00359605
0.00790788
0.0119535
0.0157594
0.0189817
-0.0198767
-0.0169987
-0.0125921
-0.00743675
-0.00228247
0.00258431
0.00712146
0.0113937
0.0154368
0.0190325
-0.0212112
-0.0183097
-0.0139811
-0.00879327
-0.00351532
0.00152324
0.00624738
0.010714
0.0151012
0.019475
-0.0223363
-0.0194286
-0.0152273
-0.0100781
-0.00474748
0.000396271
0.00523617
0.00977781
0.0141555
0.0184166
-0.0232345
-0.0203496
-0.0163238
-0.0112825
-0.0059701
-0.000787497
0.00410853
0.00868344
0.0130251
0.0171587
-0.0239106
-0.0210773
-0.0172674
-0.0123951
-0.00716376
-0.0019946
0.0029254
0.00754157
0.0119187
0.0160366
-0.0243815
-0.0216234
-0.0180577
-0.0134044
-0.00830865
-0.00319727
0.00171888
0.00636634
0.0107898
0.0149296
-0.0246664
-0.0220016
-0.0186971
-0.014302
-0.00938983
-0.00437919
0.000500413
0.00515341
0.00960291
0.0137758
-0.024785
-0.0222276
-0.0191912
-0.0150829
-0.0103958
-0.00552728
-0.000718073
0.00391429
0.0083696
0.0125741
-0.0247583
-0.0223191
-0.0195486
-0.0157452
-0.0113173
-0.00662866
-0.0019227
0.00266419
0.00710696
0.0113341
-0.024608
-0.0222954
-0.0197815
-0.0162908
-0.0121475
-0.00767195
-0.00310085
0.00141538
0.0058273
0.0100675
-0.0243449
-0.0221699
-0.0199009
-0.0167236
-0.0128831
-0.00864941
-0.00424348
0.000176557
0.0045393
0.00878416
-0.0239616
-0.021938
-0.0199035
-0.0170374
-0.013514
-0.00954889
-0.00533884
-0.00104248
0.00325034
0.00748955
-0.0235481
-0.0216625
-0.0198342
-0.0172603
-0.0140532
-0.0103728
-0.00638436
-0.00223865
0.00196023
0.00617486
-0.0231057
-0.0213481
-0.0197021
-0.0174004
-0.0145047
-0.0111213
-0.00737867
-0.003412
0.000664193
0.0048227
-0.0226432
-0.0210045
-0.0195196
-0.0174697
-0.014877
-0.0117986
-0.00832353
-0.00456469
-0.00064252
0.00342243
-0.022177
-0.0206468
-0.0193027
-0.0174826
-0.0151806
-0.0124105
-0.0092212
-0.00569797
-0.00196268
0.00196718
-0.0217236
-0.0202894
-0.0190668
-0.0174546
-0.0154281
-0.012965
-0.0100755
-0.00681363
-0.00329978
0.00044541
-0.0212975
-0.0199451
-0.018827
-0.0174013
-0.0156336
-0.0134725
-0.0108925
-0.00791433
-0.00465632
-0.00115337
-0.0209112
-0.0196254
-0.0185971
-0.0173389
-0.0158129
-0.013946
-0.011681
-0.0090043
-0.00603273
-0.00283997
-0.0205748
-0.0193403
-0.01839
-0.0172828
-0.0159822
-0.0143999
-0.0124522
-0.0100881
-0.00741908
-0.00459731
-0.0202952
-0.0190976
-0.0182165
-0.017247
-0.0161572
-0.0148491
-0.0132199
-0.0111804
-0.00879869
-0.00637179
-0.0200756
-0.0189027
-0.0180852
-0.0172437
-0.0163529
-0.0153091
-0.0139994
-0.0123079
-0.0101407
-0.00785784
-0.0199179
-0.0187597
-0.0180016
-0.0172799
-0.016577
-0.0157882
-0.014796
-0.0134936
-0.0117521
-0.00974697
-0.0198138
-0.0186646
-0.017964
-0.0173555
-0.0168303
-0.0162849
-0.0155971
-0.0146615
-0.0133418
-0.0116859
-0.0197542
-0.0186125
-0.0179677
-0.017466
-0.0171065
-0.0167885
-0.016384
-0.0157792
-0.0148331
-0.0135477
-0.0197278
-0.0185961
-0.0180049
-0.0176018
-0.0173937
-0.0172837
-0.0171398
-0.0168394
-0.0162397
-0.0153201
-0.0197223
-0.0186056
-0.0180648
-0.0177493
-0.0176751
-0.01775
-0.017841
-0.0178193
-0.0175434
-0.0169723
-0.0197249
-0.0186303
-0.0181338
-0.0178919
-0.0179297
-0.0181622
-0.0184571
-0.0186829
-0.0187021
-0.0184546
-0.0197234
-0.0186589
-0.0181983
-0.0180121
-0.0181356
-0.018493
-0.018956
-0.0193926
-0.0196719
-0.0197167
-0.0197078
-0.0186805
-0.0182453
-0.0180933
-0.0182723
-0.0187177
-0.0193083
-0.0199148
-0.0204142
-0.0207156
-0.0196755
-0.0186869
-0.0182632
-0.018121
-0.0183222
-0.018816
-0.0194912
-0.020224
-0.0208999
-0.021419
)
;

boundaryField
{
    inlet
    {
        type            zeroGradient;
    }
    outlet
    {
        type            fixedValue;
        value           uniform 0;
    }
    cylinder
    {
        type            zeroGradient;
    }
    top
    {
        type            symmetryPlane;
    }
    bottom
    {
        type            symmetryPlane;
    }
    defaultFaces
    {
        type            empty;
    }
}


// ************************************************************************* //
