1.11936e-18 	0.5125 	0.5 	0.02926 	0.000221269 	0
1.11936e-18 	0.5375 	0.5 	0.0815099 	0.00199989 	0
1.11936e-18 	0.5625 	0.5 	0.128646 	0.00549787 	-7.27902e-22
1.11936e-18 	0.5875 	0.5 	0.171264 	0.00974509 	0
1.11936e-18 	0.6125 	0.5 	0.209862 	0.0144644 	0
1.11936e-18 	0.6375 	0.5 	0.244845 	0.0193591 	-7.83823e-22
1.11936e-18 	0.6625 	0.5 	0.276551 	0.0242259 	0
1.11936e-18 	0.6875 	0.5 	0.305267 	0.0289199 	0
1.11936e-18 	0.7125 	0.5 	0.331243 	0.0333395 	0
1.11936e-18 	0.7375 	0.5 	0.354704 	0.0374172 	0
1.11936e-18 	0.7625 	0.5 	0.37585 	0.0411108 	0
1.11936e-18 	0.7875 	0.5 	0.394866 	0.0443981 	-8.58581e-22
1.11936e-18 	0.8125 	0.5 	0.411923 	0.0472722 	0
1.11936e-18 	0.8375 	0.5 	0.427181 	0.0497374 	0
1.11936e-18 	0.8625 	0.5 	0.44079 	0.0518061 	0
1.11936e-18 	0.8875 	0.5 	0.452889 	0.0534967 	0
1.11936e-18 	0.9125 	0.5 	0.463611 	0.0548323 	-2.22954e-22
1.11936e-18 	0.9375 	0.5 	0.47308 	0.0558393 	2.23413e-22
1.11936e-18 	0.9625 	0.5 	0.481413 	0.0565453 	0
1.11936e-18 	0.9875 	0.5 	0.488719 	0.0569786 	0
1.11936e-18 	1.0125 	0.5 	0.495101 	0.0571675 	8.98104e-22
1.11936e-18 	1.0375 	0.5 	0.500652 	0.0571403 	0
1.11936e-18 	1.0625 	0.5 	0.505461 	0.0569245 	0
1.11936e-18 	1.0875 	0.5 	0.509611 	0.0565457 	0
1.11936e-18 	1.1125 	0.5 	0.513176 	0.056028 	0
1.11936e-18 	1.1375 	0.5 	0.516224 	0.0553945 	0
1.11936e-18 	1.1625 	0.5 	0.518821 	0.0546668 	0
1.11936e-18 	1.1875 	0.5 	0.521022 	0.0538637 	8.85481e-22
1.11936e-18 	1.2125 	0.5 	0.52288 	0.0530024 	0
1.11936e-18 	1.2375 	0.5 	0.524442 	0.0520987 	-8.77154e-22
1.11936e-18 	1.2625 	0.5 	0.525751 	0.0511674 	0
1.11936e-18 	1.2875 	0.5 	0.526844 	0.0502206 	0
1.11936e-18 	1.3125 	0.5 	0.527756 	0.0492688 	0
1.11936e-18 	1.3375 	0.5 	0.528517 	0.0483215 	-4.28087e-22
1.11936e-18 	1.3625 	0.5 	0.529153 	0.047387 	4.25776e-22
1.11936e-18 	1.3875 	0.5 	0.529688 	0.0464719 	0
1.11936e-18 	1.4125 	0.5 	0.530142 	0.0455821 	0
1.11936e-18 	1.4375 	0.5 	0.530534 	0.0447216 	0
1.11936e-18 	1.4625 	0.5 	0.530878 	0.0438929 	0
1.11936e-18 	1.4875 	0.5 	0.531184 	0.0431048 	0
1.11936e-18 	1.55625 	0.5 	0.531961 	0.041083 	2.98846e-22
1.11936e-18 	1.66875 	0.5 	0.533716 	0.0381554 	0
1.11936e-18 	1.78125 	0.5 	0.536516 	0.0357117 	0
1.11936e-18 	1.89375 	0.5 	0.540666 	0.0339912 	2.89472e-22
1.11936e-18 	2.00625 	0.5 	0.546027 	0.032855 	2.84348e-22
1.11936e-18 	2.11875 	0.5 	0.55246 	0.0323308 	-2.788e-22
1.11936e-18 	2.23125 	0.5 	0.559764 	0.0322833 	1.3497e-22
1.11936e-18 	2.34375 	0.5 	0.567797 	0.032667 	-4.01724e-22
