0.362837 	0.362837 	0.5 	0.00282657 	-0.00250956 	-1.69748e-23
0.380512 	0.380512 	0.5 	0.01071 	-0.00764376 	5.66973e-21
0.398188 	0.398188 	0.5 	0.0209159 	-0.0120404 	-2.91964e-21
0.415863 	0.415863 	0.5 	0.0325953 	-0.0160565 	2.41912e-20
0.433538 	0.433538 	0.5 	0.0454272 	-0.0196356 	0
0.451213 	0.451213 	0.5 	0.0590855 	-0.0228171 	1.90749e-20
0.468888 	0.468888 	0.5 	0.0733218 	-0.0256302 	3.24715e-20
0.486563 	0.486563 	0.5 	0.0879369 	-0.028103 	1.98722e-20
0.504238 	0.504238 	0.5 	0.102769 	-0.0302622 	-1.35031e-20
0.521913 	0.521913 	0.5 	0.117685 	-0.0321316 	-3.42039e-20
0.539588 	0.539588 	0.5 	0.132577 	-0.0337323 	0
0.557263 	0.557263 	0.5 	0.147353 	-0.0350828 	2.80918e-20
0.574938 	0.574938 	0.5 	0.161939 	-0.0361988 	1.4199e-20
0.592613 	0.592613 	0.5 	0.176271 	-0.0370939 	3.96635e-23
0.610288 	0.610288 	0.5 	0.190296 	-0.0377795 	-4.33326e-23
0.627963 	0.627963 	0.5 	0.203971 	-0.0382653 	5.80872e-20
0.645638 	0.645638 	0.5 	0.217259 	-0.0385594 	-1.45737e-20
0.663313 	0.663313 	0.5 	0.23013 	-0.0386689 	4.40345e-20
0.680988 	0.680988 	0.5 	0.24256 	-0.0385993 	-1.46956e-20
0.698663 	0.698663 	0.5 	0.254529 	-0.0383558 	4.43139e-20
0.716338 	0.716338 	0.5 	0.266023 	-0.0379425 	-2.95631e-20
0.734013 	0.734013 	0.5 	0.277031 	-0.0373631 	4.44272e-20
0.751688 	0.751688 	0.5 	0.287546 	-0.036621 	1.48201e-20
0.769363 	0.769363 	0.5 	0.297564 	-0.035719 	-4.44495e-20
0.787038 	0.787038 	0.5 	0.307086 	-0.0346599 	0
0.804713 	0.804713 	0.5 	0.316111 	-0.0334463 	-2.95997e-20
0.822388 	0.822388 	0.5 	0.324646 	-0.0320809 	0
0.840063 	0.840063 	0.5 	0.332697 	-0.0305661 	-2.94854e-20
0.857738 	0.857738 	0.5 	0.340272 	-0.0289043 	0
0.875413 	0.875413 	0.5 	0.347381 	-0.0270981 	2.9321e-20
0.893088 	0.893088 	0.5 	0.354038 	-0.02515 	0
0.910763 	0.910763 	0.5 	0.360255 	-0.0230628 	2.91167e-20
0.928438 	0.928438 	0.5 	0.366048 	-0.0208394 	-2.9003e-20
0.946113 	0.946113 	0.5 	0.371432 	-0.0184833 	0
0.963788 	0.963788 	0.5 	0.376425 	-0.015998 	-2.87617e-20
0.981463 	0.981463 	0.5 	0.381042 	-0.0133921 	2.86389e-20
0.999138 	0.999138 	0.5 	0.385288 	-0.0106866 	0
1.01681 	1.01681 	0.5 	0.389181 	-0.00787093 	0
1.03449 	1.03449 	0.5 	0.392882 	-0.00477274 	-2.83932e-20
1.05216 	1.05216 	0.5 	0.396344 	-0.00155366 	3.2924e-20
1.061 	1.061 	0.5 	0.397946 	0.00256409 	-0.000858237
1.12274 	1.12274 	0.5 	0.414691 	0.00458802 	-0.00166567
1.19698 	1.19698 	0.5 	0.436612 	0.0254923 	-0.00166674
1.25871 	1.25871 	0.5 	0.422299 	0.0376981 	-0.00172968
1.33295 	1.33295 	0.5 	0.438994 	0.0506974 	-0.00170363
1.39469 	1.39469 	0.5 	0.423893 	0.0642629 	-0.00173025
1.46893 	1.46893 	0.5 	0.437637 	0.0756647 	-0.00170498
1.53066 	1.53066 	0.5 	0.423489 	0.0902589 	-0.00172843
1.6049 	1.6049 	0.5 	0.436093 	0.100677 	-0.001702
1.66664 	1.66664 	0.5 	0.423492 	0.115469 	-0.00171941
