/*--------------------------------*- C++ -*----------------------------------*\
  =========                 |
  \\      /  F ield         | OpenFOAM: The Open Source CFD Toolbox
   \\    /   O peration     | Website:  https://openfoam.org
    \\  /    A nd           | Version:  7
     \\/     M anipulation  |
\*---------------------------------------------------------------------------*/
FoamFile
{
    version     2.0;
    format      ascii;
    class       volScalarField;
    location    "2.9";
    object      p;
}
// * * * * * * * * * * * * * * * * * * * * * * * * * * * * * * * * * * * * * //

dimensions      [0 2 -2 0 0 0 0];

internalField   nonuniform List<scalar> 
18000
(
1.49729
1.49613
1.49672
1.49774
1.49914
1.50075
1.50249
1.50439
1.50649
1.50883
1.51144
1.51432
1.51749
1.52092
1.52462
1.52854
1.53265
1.53691
1.54129
1.54575
1.55024
1.55473
1.55917
1.56353
1.56778
1.5719
1.57586
1.57967
1.58332
1.58662
1.49187
1.49093
1.49157
1.49265
1.49404
1.49557
1.49718
1.49889
1.50073
1.50277
1.50503
1.50755
1.51035
1.51342
1.51677
1.52037
1.52421
1.52823
1.53241
1.53671
1.54108
1.54548
1.54986
1.55419
1.55842
1.56254
1.5665
1.57032
1.57398
1.57731
1.48627
1.48559
1.4863
1.48742
1.48881
1.49027
1.49175
1.49326
1.49484
1.49657
1.49849
1.50064
1.50306
1.50576
1.50876
1.51204
1.51558
1.51936
1.52334
1.52747
1.53172
1.53603
1.54036
1.54465
1.54888
1.55299
1.55697
1.56079
1.56447
1.56783
1.48052
1.48012
1.48091
1.48209
1.48347
1.48487
1.48622
1.48754
1.48887
1.49029
1.49186
1.49363
1.49566
1.49798
1.50062
1.50356
1.50682
1.51034
1.51412
1.51809
1.52221
1.52644
1.53071
1.53497
1.53919
1.5433
1.54729
1.55113
1.55481
1.55818
1.47469
1.4746
1.47547
1.47669
1.47807
1.4794
1.48063
1.48176
1.48283
1.48394
1.48516
1.48656
1.4882
1.49014
1.49241
1.49502
1.49797
1.50125
1.50481
1.50861
1.51261
1.51675
1.52096
1.5252
1.5294
1.53351
1.5375
1.54135
1.54505
1.54844
1.46881
1.46903
1.46997
1.47124
1.47262
1.47389
1.475
1.47594
1.47677
1.47757
1.47844
1.47947
1.48073
1.48228
1.48418
1.48646
1.48911
1.49213
1.49547
1.49911
1.50298
1.50702
1.51117
1.51537
1.51955
1.52366
1.52765
1.5315
1.53521
1.53862
1.46292
1.46343
1.46445
1.46578
1.46715
1.46837
1.46936
1.47013
1.47072
1.47122
1.47176
1.47241
1.47328
1.47446
1.476
1.47794
1.48029
1.48304
1.48617
1.48963
1.49337
1.49731
1.50139
1.50554
1.5097
1.51379
1.51777
1.52162
1.52532
1.52874
1.45704
1.45783
1.45893
1.46031
1.46169
1.46286
1.46375
1.46435
1.46471
1.46493
1.46513
1.46543
1.46593
1.46673
1.46792
1.46952
1.47157
1.47406
1.47697
1.48024
1.48384
1.48767
1.49167
1.49577
1.49988
1.50395
1.5079
1.51173
1.51542
1.51884
1.45119
1.45225
1.45342
1.45486
1.45624
1.45738
1.45818
1.45863
1.45878
1.45873
1.45861
1.45856
1.4587
1.45915
1.45998
1.46125
1.463
1.46523
1.46791
1.471
1.47444
1.47816
1.48207
1.48609
1.49015
1.49417
1.49808
1.50187
1.50552
1.50892
1.44539
1.4467
1.44793
1.44943
1.45084
1.45195
1.45267
1.45299
1.45294
1.45264
1.45223
1.45185
1.45164
1.45174
1.45223
1.45318
1.45463
1.45659
1.45904
1.46194
1.46522
1.46881
1.47262
1.47655
1.48053
1.48448
1.48834
1.49207
1.49567
1.49903
1.43964
1.44118
1.44248
1.44404
1.44548
1.44658
1.44724
1.44744
1.44722
1.44669
1.446
1.44531
1.44478
1.44455
1.44471
1.44534
1.4465
1.4482
1.45042
1.45311
1.45622
1.45967
1.46335
1.46718
1.47106
1.47493
1.47871
1.48236
1.48588
1.48917
1.43397
1.43571
1.43708
1.4387
1.44017
1.44127
1.44189
1.442
1.44162
1.44088
1.43994
1.43897
1.43814
1.43758
1.43743
1.43776
1.43863
1.44007
1.44205
1.44454
1.44747
1.45075
1.4543
1.458
1.46177
1.46553
1.4692
1.47275
1.47616
1.47937
1.42839
1.43029
1.43173
1.43341
1.43492
1.43604
1.43664
1.43666
1.43616
1.43524
1.43407
1.43283
1.43171
1.43086
1.43041
1.43045
1.43104
1.43221
1.43396
1.43623
1.43898
1.44209
1.44548
1.44903
1.45266
1.45629
1.45984
1.46325
1.46653
1.46964
1.42288
1.42493
1.42643
1.42818
1.42973
1.43088
1.43147
1.43143
1.43082
1.42974
1.42836
1.42689
1.42551
1.42438
1.42364
1.4234
1.42372
1.42464
1.42615
1.42821
1.43075
1.43368
1.43689
1.44028
1.44375
1.44722
1.45061
1.45387
1.45701
1.45998
1.41747
1.41962
1.42117
1.42298
1.4246
1.42578
1.42637
1.4263
1.4256
1.42438
1.42282
1.42113
1.4195
1.41811
1.41711
1.4166
1.41666
1.41733
1.41861
1.42045
1.42279
1.42552
1.42854
1.43175
1.43504
1.43833
1.44154
1.44463
1.44758
1.45041
1.41213
1.41436
1.41596
1.41784
1.41951
1.42074
1.42135
1.42126
1.42048
1.41914
1.41742
1.41553
1.41368
1.41205
1.41079
1.41003
1.40984
1.41027
1.41132
1.41294
1.41507
1.4176
1.42042
1.42342
1.42651
1.4296
1.43262
1.43551
1.43827
1.44092
1.40687
1.40914
1.41079
1.41273
1.41447
1.41575
1.41638
1.41627
1.41544
1.41399
1.41212
1.41006
1.408
1.40615
1.40466
1.40366
1.40324
1.40344
1.40426
1.40567
1.40758
1.40989
1.41249
1.41528
1.41815
1.42103
1.42383
1.42652
1.42907
1.43153
1.40166
1.40396
1.40565
1.40764
1.40945
1.41078
1.41144
1.41133
1.41044
1.4089
1.40691
1.40468
1.40244
1.40038
1.39867
1.39745
1.39681
1.39679
1.3974
1.39859
1.40029
1.40238
1.40475
1.40731
1.40995
1.4126
1.41518
1.41764
1.41997
1.42223
1.39651
1.3988
1.40052
1.40258
1.40444
1.40583
1.40651
1.40639
1.40546
1.40384
1.40173
1.39936
1.39695
1.3947
1.39279
1.39136
1.39051
1.39029
1.3907
1.39168
1.39316
1.39502
1.39716
1.39948
1.40189
1.4043
1.40665
1.40889
1.41099
1.41303
1.39138
1.39365
1.39541
1.39751
1.39944
1.40086
1.40157
1.40143
1.40046
1.39877
1.39655
1.39405
1.39148
1.38906
1.38697
1.38536
1.38432
1.38391
1.38412
1.3849
1.38616
1.38779
1.38969
1.39177
1.39394
1.39612
1.39824
1.40024
1.40211
1.40394
1.38626
1.38849
1.39028
1.39244
1.39441
1.39587
1.39659
1.39643
1.39541
1.39365
1.39134
1.38871
1.386
1.38343
1.38118
1.3794
1.3782
1.37761
1.37763
1.37821
1.37925
1.38066
1.38232
1.38416
1.38608
1.38802
1.38991
1.39169
1.39335
1.39498
1.38113
1.38331
1.38513
1.38733
1.38934
1.39082
1.39154
1.39136
1.39029
1.38846
1.38605
1.38331
1.38048
1.37777
1.37538
1.37346
1.3721
1.37135
1.37119
1.37157
1.3724
1.37358
1.37501
1.37661
1.37829
1.38
1.38167
1.38324
1.38469
1.38615
1.37596
1.37809
1.37994
1.38217
1.38421
1.38571
1.38641
1.38619
1.38506
1.38315
1.38066
1.37781
1.37487
1.37205
1.36954
1.3675
1.366
1.3651
1.36477
1.36496
1.36558
1.36653
1.36773
1.36908
1.37054
1.37202
1.37347
1.37485
1.37614
1.37745
1.37074
1.37282
1.37469
1.37695
1.37901
1.38049
1.38116
1.38089
1.3797
1.37771
1.37513
1.3722
1.36916
1.36624
1.36364
1.36149
1.35987
1.35883
1.35834
1.35834
1.35876
1.35948
1.36044
1.36156
1.36278
1.36404
1.3653
1.36651
1.36765
1.36886
1.36545
1.36749
1.36938
1.37166
1.37371
1.37517
1.37579
1.37546
1.37419
1.37212
1.36945
1.36644
1.36332
1.36033
1.35765
1.35542
1.3537
1.35252
1.35188
1.3517
1.3519
1.35239
1.35311
1.354
1.35499
1.35605
1.35713
1.35819
1.35922
1.36034
1.36006
1.36208
1.36399
1.36627
1.36831
1.36973
1.37028
1.36986
1.36851
1.36636
1.36362
1.36053
1.35736
1.35431
1.35158
1.34927
1.34746
1.34616
1.34536
1.345
1.34499
1.34525
1.34573
1.34637
1.34714
1.34799
1.3489
1.34984
1.3508
1.35194
1.35457
1.35658
1.3585
1.36078
1.36279
1.36415
1.36462
1.36411
1.36266
1.36043
1.35762
1.35448
1.35126
1.34818
1.34541
1.34304
1.34115
1.33974
1.33879
1.33823
1.338
1.33803
1.33825
1.33864
1.33917
1.33981
1.34056
1.3414
1.34234
1.34357
1.34897
1.35098
1.35292
1.35519
1.35715
1.35843
1.3588
1.35819
1.35665
1.35434
1.35146
1.34828
1.34504
1.34194
1.33914
1.33673
1.33476
1.33324
1.33214
1.3314
1.33095
1.33072
1.33067
1.33079
1.33105
1.33145
1.33201
1.33274
1.33369
1.3351
1.34323
1.34528
1.34723
1.34949
1.35139
1.35257
1.35283
1.35211
1.35047
1.34808
1.34516
1.34195
1.3387
1.3356
1.33279
1.33034
1.3283
1.32668
1.32543
1.32449
1.32381
1.32332
1.32299
1.3228
1.32275
1.32284
1.32312
1.32366
1.32466
1.32643
1.33737
1.33948
1.34144
1.34367
1.3455
1.34657
1.34671
1.34587
1.34414
1.34168
1.33872
1.3355
1.33226
1.32917
1.32635
1.32388
1.32178
1.32005
1.31864
1.31752
1.3166
1.31584
1.3152
1.31468
1.31426
1.31395
1.31375
1.31374
1.31416
1.3161
1.59636
1.6103
1.61877
1.62612
1.63114
1.63477
1.63712
1.63841
1.63881
1.63851
1.63764
1.63633
1.63467
1.6328
1.63076
1.62864
1.6265
1.62449
1.62254
1.62079
1.61905
1.61764
1.61625
1.61533
1.61435
1.61405
1.61339
1.61396
1.61355
1.61617
1.58709
1.60185
1.61077
1.61856
1.62389
1.62774
1.63026
1.63171
1.63229
1.63211
1.63133
1.63012
1.62858
1.62681
1.62484
1.6228
1.62074
1.61879
1.61689
1.6152
1.6135
1.61211
1.61072
1.6098
1.60878
1.60843
1.6077
1.60821
1.60773
1.61033
1.57764
1.59327
1.60268
1.61091
1.61658
1.62065
1.62335
1.62499
1.62573
1.62567
1.625
1.6239
1.62246
1.6208
1.6189
1.61695
1.61497
1.61309
1.61125
1.6096
1.60796
1.60661
1.60522
1.60431
1.60326
1.60289
1.6021
1.60256
1.602
1.60459
1.5678
1.58457
1.59452
1.6032
1.60919
1.61351
1.61642
1.61824
1.61912
1.61921
1.61866
1.61767
1.61633
1.61476
1.61296
1.61109
1.6092
1.60739
1.60561
1.60402
1.60243
1.60112
1.59975
1.59886
1.5978
1.59741
1.59658
1.59699
1.59639
1.59896
1.558
1.57576
1.58628
1.59542
1.60173
1.60633
1.60945
1.61145
1.61249
1.61272
1.6123
1.61142
1.61018
1.60869
1.607
1.60523
1.60341
1.60169
1.59998
1.59844
1.59691
1.59564
1.59432
1.59344
1.5924
1.59199
1.59114
1.59151
1.59088
1.59343
1.54806
1.56686
1.57797
1.58758
1.59424
1.59912
1.60246
1.60464
1.60584
1.60621
1.60592
1.60515
1.60402
1.60262
1.60103
1.59935
1.59762
1.59598
1.59434
1.59287
1.5914
1.59019
1.58892
1.58807
1.58705
1.58664
1.58578
1.58612
1.58546
1.588
1.538
1.55788
1.56958
1.5797
1.58672
1.59187
1.59544
1.59781
1.59917
1.59968
1.59953
1.59887
1.59784
1.59654
1.59505
1.59347
1.59183
1.59027
1.58872
1.58731
1.58591
1.58476
1.58354
1.58274
1.58175
1.58136
1.58049
1.58081
1.58014
1.58267
1.52786
1.54875
1.56114
1.57179
1.57917
1.5846
1.5884
1.59096
1.59248
1.59314
1.59312
1.59258
1.59166
1.59045
1.58906
1.58758
1.58603
1.58456
1.58309
1.58176
1.58043
1.57935
1.5782
1.57744
1.57651
1.57614
1.57528
1.5756
1.57492
1.57744
1.51766
1.53945
1.55266
1.56384
1.57159
1.57731
1.58134
1.5841
1.58578
1.58659
1.58671
1.58628
1.58547
1.58436
1.58307
1.5817
1.58024
1.57885
1.57747
1.57623
1.57496
1.57396
1.57289
1.5722
1.57131
1.57098
1.57015
1.57047
1.56979
1.57231
1.50742
1.53024
1.54415
1.55586
1.564
1.57002
1.57428
1.57722
1.57908
1.58004
1.58028
1.57998
1.57928
1.57827
1.57708
1.57581
1.57445
1.57315
1.57185
1.5707
1.56952
1.5686
1.56761
1.56699
1.56616
1.56589
1.5651
1.56543
1.56475
1.56728
1.49718
1.52104
1.53562
1.54788
1.55641
1.56272
1.56721
1.57035
1.57237
1.57348
1.57386
1.57367
1.57308
1.57218
1.57109
1.56992
1.56866
1.56745
1.56624
1.56518
1.56409
1.56326
1.56236
1.56182
1.56107
1.56085
1.56011
1.56049
1.55981
1.56236
1.48695
1.51186
1.52709
1.53989
1.54881
1.55542
1.56015
1.56349
1.56567
1.56693
1.56745
1.56737
1.56689
1.5661
1.5651
1.56404
1.56287
1.56176
1.56063
1.55967
1.55868
1.55794
1.55713
1.55669
1.55602
1.55588
1.55521
1.55563
1.55497
1.55753
1.47674
1.5027
1.51858
1.53191
1.54122
1.54813
1.55309
1.55663
1.55898
1.5604
1.56104
1.56108
1.56071
1.56002
1.55913
1.55816
1.55709
1.55607
1.55504
1.55417
1.55328
1.55265
1.55194
1.55159
1.55103
1.55097
1.55038
1.55086
1.55022
1.55281
1.46659
1.49358
1.51009
1.52394
1.53365
1.54085
1.54606
1.54979
1.55231
1.55387
1.55464
1.5548
1.55453
1.55396
1.55316
1.55229
1.55131
1.55039
1.54945
1.54869
1.5479
1.54737
1.54678
1.54654
1.54608
1.54613
1.54563
1.54619
1.54559
1.5482
1.45649
1.48446
1.50162
1.51599
1.52611
1.5336
1.53905
1.54297
1.54566
1.54736
1.54826
1.54853
1.54837
1.5479
1.5472
1.54642
1.54554
1.54471
1.54388
1.54322
1.54254
1.54212
1.54164
1.54152
1.54117
1.54134
1.54095
1.54161
1.54106
1.5437
1.44646
1.47536
1.4932
1.50808
1.51859
1.52637
1.53207
1.53618
1.53903
1.54088
1.5419
1.54228
1.54223
1.54186
1.54126
1.54057
1.53978
1.53905
1.53831
1.53776
1.5372
1.53689
1.53653
1.53653
1.53631
1.53661
1.53634
1.53712
1.53664
1.53932
1.43652
1.46627
1.48483
1.5002
1.51111
1.51918
1.52512
1.52943
1.53244
1.53441
1.53555
1.53605
1.5361
1.53584
1.53533
1.53472
1.53403
1.5334
1.53276
1.53231
1.53186
1.53167
1.53144
1.53157
1.53149
1.53194
1.53181
1.53273
1.53233
1.53506
1.42669
1.45723
1.47652
1.49237
1.50367
1.51204
1.51822
1.52271
1.52588
1.52799
1.52924
1.52985
1.53
1.52984
1.52941
1.52889
1.52829
1.52775
1.52722
1.52688
1.52654
1.52647
1.52636
1.52664
1.52671
1.52732
1.52736
1.52843
1.52814
1.53092
1.41697
1.44794
1.4683
1.4846
1.49629
1.50496
1.51137
1.51605
1.51936
1.5216
1.52296
1.52368
1.52392
1.52385
1.52352
1.52308
1.52256
1.52212
1.52169
1.52146
1.52123
1.52129
1.5213
1.52173
1.52196
1.52274
1.52297
1.52423
1.52407
1.52693
1.40741
1.43863
1.46017
1.4769
1.48897
1.49794
1.50459
1.50944
1.5129
1.51525
1.51672
1.51754
1.51787
1.51789
1.51763
1.51728
1.51685
1.51651
1.51617
1.51605
1.51593
1.51611
1.51626
1.51683
1.51724
1.51821
1.51865
1.52013
1.52014
1.52308
1.39807
1.42999
1.45214
1.46928
1.48173
1.49099
1.49787
1.50289
1.50649
1.50896
1.51053
1.51144
1.51186
1.51195
1.51178
1.5115
1.51116
1.5109
1.51066
1.51064
1.51063
1.51094
1.51122
1.51195
1.51254
1.51373
1.51439
1.51612
1.51635
1.51939
1.38899
1.42152
1.44423
1.46175
1.47457
1.48412
1.49123
1.49642
1.50014
1.50272
1.50438
1.50538
1.50587
1.50603
1.50594
1.50574
1.50547
1.50531
1.50516
1.50525
1.50534
1.50578
1.5062
1.50709
1.50786
1.50928
1.5102
1.51222
1.5127
1.51588
1.3802
1.41322
1.43647
1.45433
1.46751
1.47735
1.48467
1.49002
1.49387
1.49655
1.49828
1.49937
1.49993
1.50015
1.50013
1.5
1.49981
1.49973
1.49967
1.49986
1.50006
1.50061
1.50117
1.50223
1.5032
1.50486
1.50607
1.50842
1.50921
1.51256
1.3717
1.40514
1.42887
1.44704
1.46057
1.47068
1.47821
1.4837
1.48767
1.49043
1.49224
1.4934
1.49402
1.49431
1.49435
1.49428
1.49416
1.49417
1.49419
1.49447
1.49477
1.49545
1.49615
1.49737
1.49855
1.50046
1.50198
1.50471
1.50588
1.50947
1.36307
1.39729
1.42144
1.4399
1.45375
1.46414
1.47186
1.47749
1.48155
1.48439
1.48626
1.48748
1.48816
1.4885
1.4886
1.48858
1.48854
1.48861
1.48871
1.48908
1.48948
1.49028
1.49112
1.49251
1.4939
1.49608
1.49794
1.50108
1.50271
1.50661
1.35531
1.38971
1.4142
1.43293
1.4471
1.45774
1.46563
1.47139
1.47553
1.47844
1.48036
1.48163
1.48235
1.48273
1.48288
1.48292
1.48293
1.48307
1.48324
1.48369
1.4842
1.48511
1.48608
1.48764
1.48925
1.4917
1.49392
1.49754
1.49973
1.50404
1.34801
1.38242
1.40719
1.42616
1.44062
1.4515
1.45955
1.46541
1.46962
1.47257
1.47454
1.47584
1.4766
1.47701
1.47719
1.47728
1.47734
1.47755
1.47778
1.47831
1.4789
1.47992
1.48104
1.48276
1.48459
1.48732
1.48992
1.49406
1.49691
1.50179
1.34118
1.37531
1.40028
1.4195
1.43424
1.44534
1.45354
1.4595
1.46376
1.46676
1.46876
1.47007
1.47086
1.47129
1.47151
1.47163
1.47175
1.472
1.4723
1.4729
1.47358
1.47471
1.47596
1.47785
1.47989
1.48291
1.48592
1.49061
1.49426
1.49993
1.33455
1.36802
1.39317
1.41266
1.42771
1.43905
1.44742
1.45348
1.45781
1.46085
1.46288
1.46422
1.46503
1.46549
1.46574
1.46592
1.46608
1.46639
1.46675
1.46742
1.4682
1.46944
1.47083
1.47288
1.47514
1.47843
1.48187
1.48716
1.49176
1.49852
1.32845
1.36096
1.38624
1.40595
1.42122
1.43275
1.44126
1.44743
1.45182
1.4549
1.45698
1.45835
1.45918
1.45968
1.45997
1.46019
1.4604
1.46075
1.46119
1.46192
1.46279
1.46413
1.46565
1.46785
1.47031
1.47387
1.47773
1.48362
1.48931
1.49757
1.31153
1.34392
1.3694
1.38933
1.40473
1.41636
1.4249
1.43107
1.43545
1.43853
1.4406
1.44196
1.4428
1.4433
1.4436
1.44386
1.44412
1.44454
1.44508
1.44594
1.44699
1.44854
1.45036
1.45291
1.45587
1.46007
1.46503
1.47255
1.48154
1.49517
1.27582
1.30759
1.33256
1.35207
1.36745
1.3794
1.38839
1.39504
1.39992
1.40347
1.40601
1.40783
1.40913
1.4101
1.41088
1.41161
1.41235
1.41324
1.41425
1.41559
1.41714
1.4192
1.42157
1.42473
1.42841
1.43347
1.43959
1.44867
1.45994
1.47626
1.2407
1.27099
1.29505
1.31411
1.32944
1.34162
1.35096
1.35804
1.36339
1.36741
1.37044
1.37275
1.37455
1.37603
1.37732
1.37857
1.37983
1.38123
1.38276
1.38462
1.38669
1.38929
1.3922
1.39595
1.40024
1.40597
1.41278
1.4226
1.43465
1.45187
1.20512
1.23392
1.257
1.2756
1.29082
1.30312
1.31274
1.3202
1.32598
1.33046
1.33397
1.33678
1.33908
1.34107
1.34288
1.34465
1.34642
1.34835
1.3504
1.35278
1.35537
1.35849
1.36192
1.36619
1.37099
1.37721
1.38444
1.39459
1.4068
1.42424
1.16885
1.19629
1.21845
1.23656
1.25162
1.26398
1.27384
1.28164
1.28782
1.29275
1.29675
1.30005
1.30288
1.3054
1.30773
1.31002
1.31232
1.31476
1.31732
1.3202
1.32328
1.32688
1.33078
1.33548
1.34067
1.34723
1.35471
1.36496
1.37705
1.39442
1.13165
1.15794
1.17926
1.19688
1.21172
1.2241
1.23415
1.24226
1.24883
1.25421
1.25869
1.26251
1.26586
1.26891
1.27178
1.2746
1.27742
1.28038
1.28344
1.2868
1.29034
1.29437
1.29867
1.30373
1.30923
1.31601
1.3236
1.33381
1.34568
1.36287
1.09339
1.1187
1.13927
1.15641
1.17104
1.18344
1.19366
1.20205
1.209
1.21482
1.21978
1.22411
1.22798
1.23157
1.23497
1.23833
1.24166
1.24512
1.24866
1.25249
1.25646
1.26089
1.26554
1.2709
1.27664
1.28356
1.29118
1.30129
1.31287
1.32981
1.05397
1.07846
1.09838
1.1151
1.12955
1.14196
1.15233
1.161
1.16831
1.17455
1.17998
1.18481
1.18921
1.19333
1.19726
1.20113
1.20498
1.20893
1.21294
1.2172
1.22158
1.22637
1.23134
1.23696
1.24289
1.24992
1.25753
1.26748
1.27873
1.29538
1.01335
1.03715
1.05651
1.07288
1.08716
1.09959
1.11012
1.11904
1.1267
1.13336
1.13925
1.14457
1.14949
1.15413
1.15858
1.16297
1.16731
1.17174
1.1762
1.18089
1.18565
1.19079
1.19605
1.2019
1.20799
1.21509
1.22267
1.23245
1.24333
1.25963
0.971507
0.994723
1.01363
1.02969
1.04383
1.05628
1.06696
1.07614
1.08414
1.0912
1.09754
1.10335
1.10877
1.11392
1.11889
1.12377
1.1286
1.1335
1.1384
1.14349
1.14862
1.15408
1.15963
1.16569
1.17193
1.17909
1.18662
1.19621
1.20671
1.2226
0.928442
0.951151
0.969673
0.985476
0.999499
1.01198
1.02282
1.03225
1.04057
1.04803
1.05481
1.06109
1.067
1.07265
1.07811
1.08349
1.0888
1.09414
1.09947
1.10496
1.11045
1.11623
1.12204
1.12831
1.13469
1.1419
1.14938
1.15877
1.16887
1.18432
0.884154
0.906415
0.924615
0.940202
0.954129
0.966656
0.977652
0.987324
0.995972
1.00381
1.01101
1.01775
1.02413
1.03027
1.03622
1.04208
1.04785
1.05363
1.05938
1.06525
1.07109
1.07717
1.08324
1.08971
1.09623
1.1035
1.11092
1.12012
1.12981
1.14479
0.838661
0.86051
0.878432
0.893838
0.907686
0.920267
0.931423
0.941333
0.950291
0.958497
0.966112
0.973289
0.980135
0.986745
0.993167
0.999486
1.0057
1.01191
1.01806
1.0243
1.03048
1.03686
1.04318
1.04985
1.05651
1.06383
1.07121
1.08022
1.08951
1.10398
0.791964
0.813428
0.831105
0.846357
0.86014
0.872778
0.884094
0.894235
0.903492
0.912055
0.920067
0.927669
0.934959
0.942022
0.948897
0.955659
0.962301
0.968926
0.975459
0.982059
0.988566
0.995231
1.0018
1.00867
1.01547
1.02284
1.03019
1.03903
1.04795
1.0619
0.744098
0.765174
0.782624
0.797739
0.811464
0.824159
0.835634
0.846
0.855544
0.864448
0.87284
0.880849
0.888563
0.896057
0.903363
0.910548
0.917601
0.924617
0.93152
0.93846
0.945279
0.952222
0.959035
0.966086
0.973019
0.980443
0.987772
0.996439
1.005
1.01842
0.695071
0.715751
0.732978
0.747967
0.761637
0.774387
0.786016
0.796598
0.806415
0.815643
0.824395
0.832787
0.840901
0.848803
0.856516
0.8641
0.871538
0.87892
0.886167
0.893429
0.900544
0.907749
0.914792
0.922025
0.929097
0.936589
0.943915
0.952444
0.96068
0.973566
0.644909
0.665165
0.682163
0.69703
0.710645
0.723442
0.735216
0.746003
0.756074
0.765604
0.774694
0.783446
0.791933
0.800215
0.808305
0.816258
0.824048
0.831764
0.839327
0.846884
0.85427
0.861714
0.868964
0.876357
0.883541
0.891069
0.898363
0.90674
0.9147
0.927055
0.593627
0.613417
0.63017
0.644916
0.658472
0.671305
0.683213
0.694189
0.704493
0.714304
0.723707
0.732791
0.741621
0.750248
0.758676
0.766959
0.775062
0.783076
0.790919
0.798735
0.806361
0.814021
0.821469
0.829026
0.836348
0.843954
0.851271
0.859525
0.867181
0.878997
0.541239
0.560511
0.576996
0.591616
0.605107
0.617961
0.629989
0.641138
0.651654
0.661721
0.671409
0.680791
0.689922
0.698852
0.707577
0.716143
0.724514
0.732777
0.74085
0.748875
0.756691
0.764514
0.772097
0.779741
0.787104
0.794683
0.801936
0.810054
0.817571
0.828854
0.487751
0.506443
0.522642
0.537128
0.550543
0.563401
0.575534
0.586841
0.597545
0.607837
0.617771
0.627409
0.636798
0.645984
0.654954
0.663748
0.672328
0.68078
0.689024
0.697204
0.705172
0.71314
0.720871
0.728647
0.736132
0.743762
0.750987
0.758892
0.766045
0.776843
0.433172
0.451212
0.467115
0.48146
0.494782
0.507623
0.519844
0.531288
0.542152
0.55263
0.56277
0.572619
0.582217
0.591602
0.600755
0.609709
0.618426
0.626988
0.635316
0.643552
0.651553
0.659523
0.667234
0.674957
0.68239
0.689964
0.697182
0.705036
0.712126
0.722142
0.377571
0.394867
0.41046
0.424641
0.437839
0.450637
0.462921
0.474477
0.485468
0.496092
0.506393
0.516401
0.526145
0.535661
0.544923
0.553959
0.562727
0.571314
0.579652
0.587896
0.595919
0.603923
0.611681
0.619414
0.626777
0.634117
0.640963
0.648352
0.655218
0.665096
0.321158
0.337577
0.352803
0.366742
0.379754
0.392468
0.404784
0.416423
0.427503
0.438228
0.448635
0.458739
0.468561
0.478131
0.487415
0.496431
0.505129
0.513592
0.521757
0.52978
0.537557
0.545307
0.55287
0.5605
0.567939
0.575481
0.582578
0.589859
0.595906
0.603923
0.264567
0.279849
0.294476
0.307959
0.320649
0.333202
0.345495
0.357168
0.368285
0.379048
0.389492
0.399618
0.409432
0.41896
0.428162
0.437055
0.445596
0.453873
0.461838
0.46965
0.477199
0.484666
0.491848
0.498951
0.50572
0.512493
0.518905
0.525767
0.532386
0.540774
0.209244
0.222848
0.236256
0.248786
0.260864
0.273082
0.285215
0.296816
0.30789
0.318616
0.329018
0.339077
0.348784
0.358155
0.367132
0.375714
0.383845
0.391615
0.399014
0.406247
0.41331
0.420449
0.427558
0.434772
0.441713
0.448387
0.45419
0.459725
0.464291
0.470546
0.157536
0.168587
0.179702
0.190399
0.201281
0.212728
0.224342
0.235618
0.246481
0.257025
0.267236
0.277081
0.286547
0.295649
0.304316
0.31254
0.320249
0.327509
0.334262
0.340674
0.34673
0.352709
0.358632
0.364797
0.371088
0.377627
0.383849
0.389792
0.394515
0.399404
0.111771
0.11937
0.127044
0.134889
0.143708
0.153577
0.163959
0.174368
0.184627
0.19469
0.204479
0.213913
0.222923
0.231471
0.239473
0.246922
0.253803
0.260246
0.26629
0.272126
0.277721
0.283194
0.288383
0.29339
0.298063
0.302691
0.307083
0.311529
0.315294
0.318735
0.0730306
0.0768779
0.0806824
0.0850669
0.090987
0.0982043
0.106204
0.114659
0.12336
0.132151
0.140904
0.149523
0.15787
0.165792
0.173068
0.179581
0.185248
0.190194
0.194534
0.198598
0.202583
0.206801
0.211321
0.2162
0.221089
0.225728
0.229554
0.232488
0.233708
0.234135
0.040713
0.0414371
0.0419216
0.0431543
0.0462105
0.0502448
0.0549972
0.0603858
0.0662266
0.0723516
0.078681
0.085176
0.0917457
0.0982654
0.104483
0.110161
0.115027
0.118963
0.121878
0.123975
0.125505
0.127011
0.128944
0.13172
0.135251
0.139195
0.142773
0.145482
0.145788
0.143351
0.0128201
0.0116193
0.00835726
0.00738477
0.00888714
0.0101985
0.011633
0.0134298
0.0155399
0.0178915
0.0204712
0.0232858
0.0263114
0.0295234
0.0327906
0.0359964
0.03893
0.0414653
0.0434212
0.0448097
0.0456238
0.0461234
0.0465179
0.0471411
0.048089
0.0493976
0.0507794
0.05214
0.0524283
0.0496286
1.28576
1.24964
1.21512
1.17996
1.14426
1.10749
1.0696
1.03054
0.990259
0.948754
0.906051
0.862127
0.817027
0.770758
0.723357
0.674858
0.625268
0.574636
0.522985
0.470374
0.416866
0.362629
0.308011
0.253702
0.201004
0.151942
0.108433
0.0714574
0.040294
0.0133631
1.2767
1.24076
1.20654
1.17161
1.13616
1.09961
1.0619
1.02302
0.982905
0.941564
0.899029
0.855271
0.810341
0.764252
0.717033
0.668732
0.619347
0.568937
0.517526
0.465182
0.411974
0.358075
0.303856
0.25003
0.197918
0.149552
0.106806
0.0705902
0.0399962
0.0134397
1.26752
1.23216
1.19822
1.16352
1.1283
1.09197
1.05445
1.01574
0.975805
0.934635
0.892269
0.848682
0.803929
0.758027
0.710995
0.662894
0.613718
0.563531
0.512358
0.460277
0.407362
0.353793
0.299959
0.246589
0.195011
0.147239
0.10513
0.0696033
0.0396093
0.0134402
1.2583
1.2237
1.19007
1.15558
1.12059
1.08446
1.04714
1.00859
0.968823
0.927816
0.885612
0.842193
0.797611
0.751895
0.705047
0.657142
0.608173
0.558207
0.507269
0.455443
0.402816
0.349568
0.296105
0.243179
0.192137
0.144983
0.103539
0.0686894
0.0392533
0.0134272
1.24917
1.21541
1.18213
1.14786
1.11307
1.07713
1.03998
1.0016
0.961984
0.921129
0.87908
0.835825
0.791407
0.745869
0.699202
0.651489
0.602722
0.552971
0.502264
0.450688
0.398343
0.345411
0.292313
0.239827
0.18932
0.142789
0.102024
0.0678479
0.0389391
0.0133971
1.24018
1.20728
1.17438
1.14032
1.10572
1.06996
1.03298
0.994754
0.955287
0.914577
0.872674
0.829576
0.785316
0.739947
0.69346
0.645931
0.597362
0.547819
0.497341
0.446008
0.393938
0.341317
0.288579
0.236536
0.186565
0.140663
0.100584
0.0670663
0.038659
0.0133547
1.23134
1.1993
1.16681
1.13298
1.09855
1.06297
1.02614
0.988057
0.948732
0.908162
0.8664
0.823449
0.779341
0.734134
0.687822
0.640471
0.592094
0.542753
0.492499
0.441406
0.389605
0.33729
0.284915
0.233317
0.183885
0.138616
0.0992223
0.0663441
0.0384116
0.0133017
1.22268
1.19147
1.15941
1.12583
1.09156
1.05614
1.01946
0.981513
0.942323
0.901888
0.860259
0.817447
0.773487
0.728435
0.682289
0.63511
0.58692
0.537775
0.48774
0.436881
0.385344
0.333333
0.281321
0.230175
0.181286
0.136652
0.0979394
0.0656812
0.0381955
0.0132402
1.21423
1.18381
1.15217
1.11885
1.08474
1.04948
1.01294
0.975124
0.936064
0.895755
0.854253
0.811574
0.767757
0.722852
0.676866
0.62985
0.581842
0.532889
0.483064
0.432432
0.381153
0.329444
0.277796
0.227103
0.178763
0.134769
0.096732
0.0650752
0.038008
0.0131718
1.20599
1.17631
1.1451
1.11206
1.0781
1.04298
1.00658
0.968891
0.929954
0.889763
0.848385
0.805834
0.762156
0.71739
0.671553
0.624695
0.576864
0.528097
0.478471
0.42806
0.377032
0.325619
0.274333
0.224097
0.176314
0.132963
0.0955964
0.0645222
0.0378457
0.0130982
1.19798
1.16899
1.13819
1.10544
1.07164
1.03665
1.00038
0.962813
0.923995
0.883917
0.842657
0.800231
0.756683
0.71205
0.666357
0.619651
0.571987
0.523398
0.473964
0.423765
0.372982
0.32186
0.270934
0.221155
0.173938
0.131234
0.0945308
0.0640192
0.0377064
0.0130209
1.1902
1.16185
1.13145
1.09898
1.06536
1.0305
0.994344
0.95689
0.918185
0.878216
0.837071
0.794764
0.75134
0.706833
0.661279
0.614722
0.567215
0.518797
0.469546
0.419555
0.369008
0.318172
0.267604
0.218285
0.171639
0.129584
0.0935346
0.063564
0.0375888
0.0129416
1.18266
1.1549
1.12489
1.0927
1.05925
1.02451
0.988477
0.951126
0.912528
0.872665
0.831628
0.789434
0.746128
0.701743
0.656322
0.609907
0.56255
0.514295
0.465223
0.415434
0.36512
0.314565
0.264354
0.215496
0.169424
0.128016
0.0926078
0.063155
0.0374944
0.012862
1.17538
1.14815
1.11851
1.0866
1.05331
1.0187
0.982779
0.945525
0.907027
0.867266
0.82633
0.784241
0.741047
0.696782
0.651487
0.605209
0.557993
0.509894
0.460998
0.411408
0.361322
0.311045
0.261192
0.212797
0.167298
0.126531
0.0917496
0.0627898
0.0374165
0.012783
1.16835
1.14161
1.11232
1.08068
1.04756
1.01307
0.977253
0.940093
0.901687
0.862022
0.821178
0.779188
0.7361
0.69195
0.646775
0.600626
0.553544
0.505596
0.456872
0.407475
0.357614
0.307614
0.258118
0.210189
0.165261
0.125128
0.0909577
0.0624656
0.0373517
0.0127053
1.16159
1.13529
1.10632
1.07494
1.042
1.00762
0.971904
0.934833
0.896511
0.856934
0.816174
0.774277
0.73129
0.687249
0.642185
0.596157
0.549205
0.5014
0.452841
0.403631
0.353993
0.30427
0.25513
0.207668
0.16331
0.123802
0.0902286
0.0621788
0.0372996
0.0126298
1.15509
1.12919
1.10053
1.06939
1.03662
1.00235
0.966734
0.929747
0.891503
0.852004
0.811324
0.769511
0.726619
0.682677
0.637718
0.591802
0.544974
0.497305
0.448903
0.399873
0.350452
0.301006
0.252223
0.205229
0.161441
0.122552
0.0895583
0.0619264
0.0372582
0.0125572
1.14886
1.12332
1.09495
1.06403
1.03143
0.997269
0.961745
0.924836
0.886662
0.847235
0.806629
0.764894
0.722088
0.678236
0.633374
0.587562
0.540851
0.49331
0.445055
0.396197
0.34699
0.297821
0.249393
0.20287
0.15965
0.121373
0.0889439
0.0617054
0.0372258
0.0124882
1.14292
1.11769
1.08958
1.05888
1.02644
0.992378
0.956938
0.920102
0.881992
0.842629
0.802092
0.760427
0.7177
0.673928
0.629157
0.583442
0.536841
0.489417
0.441301
0.392609
0.343609
0.294714
0.246643
0.20059
0.157937
0.120265
0.0883827
0.0615138
0.0372007
0.0124233
1.13726
1.11231
1.08443
1.05393
1.02164
0.987677
0.952316
0.915544
0.877494
0.838189
0.797717
0.756113
0.713456
0.669758
0.625071
0.579445
0.532946
0.485633
0.437647
0.389113
0.340316
0.291692
0.243976
0.198392
0.156304
0.119227
0.0878728
0.0613496
0.0371815
0.012363
1.13189
1.10719
1.07952
1.04919
1.01704
0.983167
0.947878
0.911164
0.87317
0.833916
0.793502
0.751954
0.70936
0.665728
0.62112
0.575576
0.52917
0.481962
0.434097
0.385718
0.337115
0.288757
0.241397
0.196281
0.154751
0.118257
0.0874119
0.0612106
0.0371669
0.0123078
1.12682
1.10233
1.07484
1.04466
1.01264
0.97885
0.943628
0.906965
0.86902
0.829811
0.78945
0.74795
0.705412
0.661843
0.617305
0.571837
0.525516
0.478407
0.430657
0.382427
0.334011
0.285914
0.238907
0.194259
0.153274
0.117354
0.0869969
0.0610946
0.0371557
0.012258
1.12206
1.09774
1.0704
1.04036
1.00845
0.97473
0.939566
0.902947
0.865046
0.825873
0.785558
0.744103
0.701616
0.658102
0.613626
0.568227
0.521983
0.474968
0.427326
0.379239
0.331003
0.28316
0.236506
0.192311
0.151884
0.116515
0.0866243
0.060999
0.0371471
0.0122137
1.1176
1.09342
1.06621
1.03628
1.00446
0.970807
0.935695
0.899111
0.861246
0.822104
0.781828
0.740412
0.69797
0.654506
0.610083
0.564744
0.51857
0.471642
0.424101
0.376148
0.328086
0.280492
0.234189
0.190444
0.150566
0.115735
0.0862903
0.0609214
0.0371403
0.0121752
1.11345
1.08938
1.06227
1.03242
1.00069
0.967086
0.932016
0.895459
0.857624
0.818505
0.778262
0.736881
0.694476
0.651053
0.606673
0.561386
0.515274
0.468425
0.420976
0.373148
0.325255
0.277904
0.231951
0.188652
0.149315
0.115009
0.0859916
0.0608604
0.037135
0.0121428
1.10962
1.08561
1.05859
1.0288
0.99714
0.963568
0.928532
0.891993
0.85418
0.81508
0.774862
0.733509
0.691133
0.647743
0.603397
0.558153
0.512095
0.465313
0.417947
0.370235
0.322505
0.275394
0.229789
0.186932
0.148126
0.114334
0.0857255
0.060813
0.0371311
0.0121165
1.10611
1.08212
1.05516
1.02541
0.993805
0.960258
0.925246
0.888718
0.85092
0.811832
0.771632
0.730301
0.687943
0.644577
0.600257
0.555047
0.509031
0.462306
0.415012
0.367406
0.319835
0.27296
0.2277
0.18528
0.146998
0.113708
0.0854898
0.0607782
0.037128
0.012097
1.10292
1.07892
1.052
1.02226
0.990692
0.957159
0.922162
0.885638
0.847848
0.808766
0.768577
0.727258
0.684909
0.641558
0.597256
0.55207
0.506087
0.459406
0.412174
0.364664
0.317249
0.270603
0.225681
0.183696
0.145927
0.113129
0.0852833
0.060755
0.0371254
0.0120812
1.10007
1.07601
1.0491
1.01935