/*--------------------------------*- C++ -*----------------------------------*\
  =========                 |
  \\      /  F ield         | OpenFOAM: The Open Source CFD Toolbox
   \\    /   O peration     | Website:  https://openfoam.org
    \\  /    A nd           | Version:  7
     \\/     M anipulation  |
\*---------------------------------------------------------------------------*/
FoamFile
{
    version     2.0;
    format      ascii;
    class       volScalarField;
    location    "6.9";
    object      p;
}
// * * * * * * * * * * * * * * * * * * * * * * * * * * * * * * * * * * * * * //

dimensions      [0 2 -2 0 0 0 0];

internalField   nonuniform List<scalar> 
18000
(
0.556516
0.55722
0.557614
0.557973
0.55826
0.558505
0.558773
0.559128
0.559623
0.560299
0.561188
0.562323
0.563733
0.56544
0.56745
0.569757
0.57235
0.575215
0.578337
0.581695
0.585261
0.589001
0.592881
0.596865
0.600922
0.60502
0.609131
0.613229
0.617276
0.621197
0.555979
0.556609
0.556963
0.557281
0.557529
0.557737
0.557967
0.558282
0.558733
0.559362
0.5602
0.561274
0.562612
0.564233
0.566145
0.568344
0.570821
0.573563
0.576551
0.579766
0.58318
0.586763
0.590482
0.594302
0.598193
0.602126
0.606073
0.610009
0.613889
0.617666
0.555458
0.556007
0.556316
0.556592
0.556805
0.556981
0.557183
0.557467
0.557882
0.558472
0.559267
0.56029
0.561564
0.563109
0.56493
0.567028
0.569395
0.572017
0.574875
0.577949
0.581213
0.584638
0.588192
0.591844
0.595565
0.599326
0.603101
0.606866
0.610569
0.61419
0.554932
0.555395
0.555666
0.555903
0.556087
0.556241
0.556422
0.556684
0.557074
0.557633
0.558392
0.559373
0.560593
0.562068
0.563807
0.565811
0.568073
0.570579
0.57331
0.576244
0.579359
0.582624
0.586013
0.589494
0.593039
0.596622
0.600218
0.6038
0.607315
0.610766
0.554422
0.554797
0.555027
0.555228
0.555386
0.555523
0.555689
0.555937
0.556309
0.556847
0.557579
0.558523
0.559695
0.56111
0.562775
0.564692
0.566856
0.56925
0.571855
0.574652
0.577616
0.580723
0.583943
0.58725
0.590615
0.594013
0.597422
0.600813
0.60413
0.607399
0.553918
0.5542
0.554391
0.554559
0.554696
0.554821
0.55498
0.555221
0.555586
0.556111
0.556822
0.557737
0.55887
0.560231
0.561832
0.563671
0.565741
0.568026
0.570508
0.573169
0.575986
0.578933
0.581985
0.585114
0.588295
0.591502
0.594714
0.597905
0.601015
0.60409
0.553422
0.55361
0.553763
0.5539
0.554019
0.554138
0.554296
0.554539
0.554904
0.555424
0.556122
0.557015
0.558115
0.559433
0.560977
0.562745
0.564726
0.566906
0.569269
0.571796
0.574466
0.577255
0.580136
0.583086
0.586079
0.589089
0.592096
0.595079
0.597972
0.600843
0.552932
0.553025
0.553141
0.553249
0.553353
0.55347
0.553636
0.553888
0.554261
0.554783
0.555475
0.556353
0.557428
0.558711
0.560207
0.561909
0.563807
0.565886
0.568133
0.57053
0.573056
0.575686
0.578398
0.581167
0.583967
0.586774
0.589572
0.592337
0.595006
0.597663
0.552442
0.552443
0.552521
0.552602
0.552695
0.552816
0.552995
0.553265
0.553652
0.554183
0.554877
0.555747
0.556807
0.558063
0.559517
0.561159
0.562978
0.564962
0.567098
0.569367
0.571751
0.574226
0.576768
0.579355
0.581959
0.584561
0.587142
0.589685
0.592124
0.594555
0.55195
0.551859
0.551902
0.551958
0.552044
0.552172
0.552371
0.552664
0.553073
0.55362
0.554323
0.555194
0.556246
0.557483
0.5589
0.560488
0.562235
0.56413
0.566158
0.568304
0.570549
0.572871
0.575246
0.577649
0.580058
0.58245
0.584813
0.587127
0.589331
0.591527
0.551451
0.55127
0.551278
0.551312
0.551395
0.551536
0.551759
0.552082
0.552519
0.553089
0.553808
0.554689
0.555741
0.556964
0.558351
0.559892
0.561573
0.563384
0.565309
0.567336
0.569446
0.571618
0.573827
0.576049
0.578262
0.580445
0.582586
0.584669
0.586635
0.588588
0.550939
0.55067
0.550647
0.550662
0.550745
0.550905
0.551157
0.551514
0.551985
0.552585
0.553328
0.554225
0.555283
0.556499
0.557863
0.559363
0.560985
0.562717
0.564546
0.566459
0.568438
0.570464
0.57251
0.574553
0.576571
0.578546
0.580465
0.582316
0.584041
0.585744
0.550408
0.550056
0.550004
0.550003
0.550091
0.550273
0.550559
0.550955
0.551466
0.552102
0.552874
0.553794
0.554864
0.55608
0.557428
0.558893
0.560462
0.562121
0.563859
0.565664
0.567519
0.569403
0.57129
0.573158
0.574985
0.576754
0.578452
0.580071
0.581558
0.583006
0.549853
0.549421
0.549343
0.549331
0.549428
0.549635
0.549959
0.550399
0.550954
0.551631
0.552439
0.553388
0.554477
0.555699
0.557036
0.558473
0.559993
0.561586
0.56324
0.564944
0.566681
0.568428
0.570162
0.571859
0.573499
0.575066
0.576547
0.577937
0.579192
0.580383
0.549268
0.54876
0.54866
0.54864
0.54875
0.548987
0.549353
0.54984
0.550443
0.551165
0.552014
0.552998
0.554113
0.555345
0.556678
0.558091
0.55957
0.561103
0.56268
0.56429
0.565914
0.567531
0.569117
0.570649
0.572108
0.573479
0.574749
0.575917
0.576945
0.577881
0.548648
0.548069
0.54795
0.547926
0.548052
0.548322
0.548732
0.54927
0.549925
0.550697
0.551592
0.552615
0.55376
0.555009
0.556341
0.557737
0.55918
0.56066
0.562167
0.563689
0.565208
0.566701
0.568144
0.569518
0.570804
0.571986
0.573054
0.574009
0.574822
0.575507
0.547987
0.547341
0.547207
0.547183
0.547329
0.547635
0.548092
0.548682
0.549392
0.550218
0.551163
0.552231
0.55341
0.55468
0.556016
0.557399
0.558812
0.560246
0.56169
0.563131
0.56455
0.565925
0.567232
0.568454
0.569575
0.570579
0.571455
0.572208
0.572819
0.573261
0.547281
0.546574
0.546428
0.546408
0.546577
0.54692
0.547424
0.54807
0.548837
0.54972
0.55072
0.551837
0.553053
0.554346
0.55569
0.557064
0.558454
0.559847
0.561234
0.5626
0.563925
0.565187
0.566365
0.567443
0.568408
0.569245
0.569942
0.570505
0.57093
0.571141
0.546526
0.545762
0.545608
0.545596
0.54579
0.546172
0.546725
0.547426
0.548253
0.549196
0.550255
0.551422
0.552678
0.553996
0.555351
0.556722
0.558091
0.55945
0.560785
0.562081
0.563316
0.564471
0.565526
0.566469
0.567287
0.567968
0.568498
0.568888
0.569143
0.569141
0.545714
0.544899
0.544742
0.544741
0.544962
0.545384
0.545986
0.546744
0.547632
0.548639
0.549758
0.550978
0.552275
0.553621
0.554988
0.556357
0.557712
0.55904
0.560327
0.561556
0.562706
0.563758
0.564696
0.565511
0.566192
0.566728
0.567106
0.567337
0.567443
0.567247
0.544843
0.543982
0.543824
0.543839
0.54409
0.544552
0.545204
0.546018
0.546969
0.54804
0.549221
0.550494
0.551833
0.553206
0.554588
0.555958
0.5573
0.5586
0.559842
0.561007
0.562075
0.563028
0.563855
0.564549
0.565101
0.565502
0.565741
0.565831
0.565807
0.565444
0.543905
0.543005
0.54285
0.542883
0.543167
0.543671
0.544373
0.545244
0.546256
0.547393
0.548636
0.549962
0.55134
0.552741
0.554139
0.555511
0.556841
0.558114
0.559311
0.560414
0.561402
0.56226
0.56298
0.563557
0.563987
0.564264
0.564377
0.564341
0.564209
0.563708
0.542897
0.541964
0.541816
0.54187
0.542187
0.542735
0.543487
0.544414
0.545489
0.54669
0.547993
0.54937
0.550788
0.552215
0.553627
0.555001
0.556319
0.557564
0.558717
0.559757
0.560665
0.56143
0.562044
0.562509
0.562822
0.562982
0.56298
0.562834
0.562616
0.562011
0.541814
0.540855
0.540716
0.540795
0.541147
0.541739
0.542541
0.543525
0.544661
0.545925
0.547286
0.54871
0.550164
0.551616
0.553041
0.554415
0.555719
0.556934
0.558039
0.559015
0.559843
0.560513
0.561023
0.561375
0.561575
0.561622
0.561514
0.561273
0.56099
0.560319
0.540653
0.539675
0.539548
0.539652
0.540042
0.540678
0.54153
0.54257
0.543766
0.54509
0.546505
0.547974
0.54946
0.550933
0.552368
0.553738
0.555025
0.556206
0.557261
0.558169
0.558913
0.559486
0.559888
0.560127
0.56021
0.560145
0.559935
0.55961
0.559284
0.558589
0.53941
0.538419
0.538307
0.53844
0.538868
0.539548
0.540451
0.541545
0.5428
0.544181
0.545645
0.547152
0.548666
0.550157
0.551596
0.552959
0.554222
0.555365
0.556364
0.557198
0.557853
0.558323
0.558611
0.558729
0.55869
0.558508
0.558194
0.55779
0.557436
0.556767
0.53808
0.537086
0.536992
0.537156
0.537622
0.538347
0.539298
0.540447
0.541757
0.54319
0.544697
0.546238
0.547774
0.549276
0.550714
0.552063
0.553297
0.554394
0.55533
0.556084
0.556641
0.556999
0.557165
0.557151
0.556976
0.556662
0.556231
0.55574
0.555363
0.554774
0.536661
0.535672
0.5356
0.535797
0.536303
0.537072
0.538071
0.539271
0.540633
0.542111
0.543656
0.545223
0.546775
0.548281
0.549712
0.551038
0.552235
0.553278
0.554142
0.554806
0.555256
0.555491
0.55552
0.555358
0.555026
0.554552
0.553974
0.553367
0.55296
0.55252
0.535149
0.534176
0.53413
0.534363
0.534909
0.535721
0.536766
0.538013
0.539422
0.54094
0.542515
0.544101
0.54566
0.547162
0.548576
0.549871
0.551022
0.552
0.552782
0.553346
0.553678
0.553777
0.553652
0.553318
0.552796
0.552117
0.55133
0.550544
0.550082
0.549927
0.533543
0.532596
0.532581
0.532852
0.533439
0.534292
0.535381
0.536672
0.538121
0.539671
0.541268
0.542864
0.544422
0.54591
0.547295
0.548549
0.549641
0.550545
0.551233
0.551685
0.551887
0.551837
0.551541
0.551009
0.550253
0.549292
0.548159
0.546964
0.546039
0.545688
0.634152
0.651031
0.662942
0.671969
0.677908
0.682309
0.685255
0.687266
0.688489
0.68913
0.689276
0.68898
0.688317
0.68736
0.686138
0.684678
0.683036
0.681234
0.679284
0.677199
0.674985
0.672655
0.670226
0.667712
0.66513
0.662497
0.659862
0.657271
0.655002
0.653159
0.630495
0.647052
0.659037
0.668167
0.674247
0.678778
0.681835
0.683967
0.685303
0.686031
0.686242
0.686035
0.685454
0.684561
0.68339
0.681992
0.680398
0.678642
0.676735
0.67469
0.672513
0.670214
0.667812
0.665317
0.662752
0.660131
0.657505
0.654922
0.652644
0.650803
0.626836
0.643044
0.655082
0.664318
0.670548
0.67522
0.6784
0.680663
0.682116
0.682935
0.683211
0.683092
0.682592
0.681762
0.680644
0.67931
0.677767
0.676058
0.674195
0.672191
0.670052
0.667787
0.665415
0.662943
0.660398
0.657791
0.655177
0.652605
0.650318
0.648481
0.623158
0.639003
0.651085
0.660426
0.666806
0.671636
0.674958
0.677354
0.67892
0.679838
0.680199
0.680156
0.679727
0.678964
0.677908
0.676632
0.675144
0.673483
0.671664
0.669702
0.667601
0.665372
0.663033
0.660589
0.658069
0.655481
0.652881
0.650315
0.648026
0.646188
0.619463
0.634935
0.647038
0.656488
0.663023
0.668027
0.671507
0.674041
0.67572
0.676743
0.677199
0.677225
0.676865
0.676168
0.675179
0.673959
0.672527
0.670915
0.669141
0.667222
0.665161
0.662969
0.660666
0.658256
0.655763
0.6532
0.650614
0.648056
0.645767
0.643925
0.615758
0.63084
0.642933
0.6525
0.659202
0.664395
0.668045
0.670725
0.672524
0.673653
0.674203
0.674301
0.674011
0.673378
0.672455
0.671293
0.669915
0.668354
0.666628
0.664751
0.662733
0.66058
0.658314
0.655942
0.653478
0.650944
0.648375
0.645827
0.64354
0.641692
0.612041
0.62672
0.638766
0.648461
0.655341
0.660739
0.664572
0.667408
0.669333
0.670569
0.671213
0.671384
0.671165
0.670596
0.669737
0.668633
0.667309
0.6658
0.664122
0.66229
0.660316
0.658206
0.655979
0.653646
0.651215
0.648712
0.646164
0.643628
0.641345
0.639491
0.608311
0.622577
0.634538
0.644367
0.651438
0.657058
0.661087
0.66409
0.666149
0.667492
0.66823
0.668475
0.668327
0.667824
0.667026
0.665982
0.664712
0.663254
0.661626
0.65984
0.657911
0.655846
0.653661
0.65137
0.648974
0.646505
0.643982
0.641459
0.639181
0.637321
0.604571
0.618414
0.630247
0.640217
0.647489
0.653349
0.657592
0.660771
0.66297
0.664423
0.665257
0.665577
0.6655
0.665061
0.664324
0.66334
0.662125
0.660718
0.65914
0.657401
0.655518
0.6535
0.65136
0.649113
0.646755
0.644322
0.641827
0.639322
0.637049
0.635183
0.600824
0.614236
0.625895
0.636007
0.643493
0.649613
0.654084
0.657452
0.659798
0.661365
0.662294
0.662691
0.662684
0.66231
0.661633
0.660707
0.659547
0.658192
0.656662
0.654973
0.653138
0.651168
0.649075
0.646875
0.644558
0.642163
0.639701
0.637215
0.634949
0.633076
0.597076
0.610048
0.621482
0.631737
0.639447
0.645845
0.650565
0.654133
0.656634
0.658318
0.659343
0.659818
0.65988
0.65957
0.658953
0.658086
0.656979
0.655676
0.654195
0.652556
0.65077
0.648851
0.646807
0.644656
0.642383
0.640028
0.637602
0.635139
0.63288
0.631001
0.593338
0.605857
0.617014
0.627405
0.635348
0.642046
0.647032
0.650815
0.653479
0.655286
0.656407
0.656959
0.657089
0.656842
0.656285
0.655474
0.654421
0.653169
0.651738
0.650148
0.648416
0.646547
0.644554
0.642454
0.64023
0.637918
0.635531
0.633094
0.630845
0.628959
0.589618
0.601672
0.612496
0.623011
0.631195
0.638211
0.643486
0.647498
0.650334
0.652267
0.653485
0.654116
0.654313
0.654129
0.65363
0.652875
0.651874
0.650673
0.649292
0.647753
0.646074
0.644256
0.642317
0.64027
0.638097
0.635831
0.633488
0.631081
0.628844
0.62695
0.585929
0.597504
0.607937
0.618557
0.626988
0.634339
0.639925
0.644182
0.6472
0.649263
0.65058
0.651288
0.651552
0.65143
0.650989
0.650286
0.649338
0.648187
0.646857
0.645368
0.643744
0.64198
0.640095
0.638104
0.635986
0.63377
0.631474
0.6291
0.626877
0.624976
0.582286
0.593365
0.603348
0.614044
0.622727
0.63043
0.636349
0.640866
0.644078
0.646275
0.647692
0.648478
0.648808
0.648748
0.648362
0.64771
0.646813
0.645712
0.644434
0.642995
0.641428
0.639717
0.637889
0.635955
0.633895
0.631731
0.629487
0.62715
0.624945
0.623038
0.578702
0.58927
0.598745
0.60948
0.618412
0.626482
0.632757
0.637551
0.640967
0.643303
0.644821
0.645685
0.646081
0.646081
0.64575
0.645147
0.644299
0.643248
0.642022
0.640634
0.639123
0.637467
0.635696
0.633823
0.631823
0.629716
0.627526
0.625233
0.62305
0.621136
0.575195
0.585237
0.594144
0.604873
0.614048
0.622497
0.629148
0.634237
0.637867
0.640347
0.641969
0.642912
0.643372
0.643431
0.643152
0.642596
0.641798
0.640796
0.639621
0.638284
0.636828
0.63523
0.633517
0.631704
0.629769
0.627722
0.625592
0.623348
0.621192
0.619274
0.57178
0.581284
0.589566
0.600235
0.609641
0.618478
0.625523
0.630925
0.634781
0.637409
0.639137
0.640158
0.640682
0.640797
0.640568
0.640059
0.639308
0.638354
0.637232
0.635944
0.634544
0.633004
0.63135
0.629599
0.62773
0.625748
0.623683
0.621496
0.619373
0.617453
0.568474
0.577431
0.585033
0.595581
0.605198
0.614427
0.621884
0.627615
0.631707
0.634492
0.636326
0.637427
0.638012
0.638179
0.637999
0.637535
0.636831
0.635923
0.634852
0.633616
0.632269
0.630789
0.629194
0.627505
0.625706
0.623793
0.621798
0.619676
0.617595
0.615677
0.565293
0.573701
0.580571
0.590929
0.600731
0.61035
0.618232
0.624308
0.628648
0.631595
0.633537
0.634717
0.635362
0.635579
0.635445
0.635025
0.634366
0.633504
0.632482
0.631297
0.630004
0.628582
0.627046
0.625421
0.623694
0.621855
0.619938
0.61789
0.615861
0.613949
0.562253
0.570114
0.576207
0.586299
0.596254
0.606252
0.61457
0.621003
0.625603
0.628719
0.630772
0.63203
0.632732
0.632997
0.632908
0.63253
0.631914
0.631095
0.630121
0.628988
0.627746
0.626382
0.624907
0.623346
0.621693
0.619934
0.618101
0.616137
0.614172
0.612274
0.559369
0.566689
0.571968
0.581714
0.591784
0.602144
0.610901
0.617701
0.622571
0.625864
0.628029
0.629367
0.630123
0.630434
0.630387
0.630049
0.629474
0.628698
0.62777
0.626688
0.625496
0.624189
0.622774
0.621279
0.619702
0.618028
0.616285
0.614417
0.612532
0.610657
0.556656
0.563443
0.567881
0.5772
0.587338
0.598035
0.607229
0.614405
0.619554
0.62303
0.62531
0.626727
0.627537
0.627891
0.627883
0.627582
0.627046
0.626312
0.625429
0.624396
0.623253
0.622002
0.620647
0.619218
0.617719
0.616134
0.614489
0.61273
0.610943
0.609104
0.554129
0.560391
0.56397
0.572783
0.582937
0.593938
0.603559
0.611116
0.616552
0.620217
0.622615
0.624111
0.624973
0.625368
0.625397
0.62513
0.624632
0.623938
0.623097
0.62211
0.621015
0.619819
0.618524
0.617162
0.615742
0.61425
0.612711
0.611074
0.609406
0.607624
0.551804
0.557543
0.560258
0.568492
0.578603
0.589869
0.5999
0.607838
0.613565
0.617426
0.619945
0.621521
0.622434
0.622866
0.622929
0.622694
0.622231
0.621576
0.620774
0.619832
0.618782
0.61764
0.616404
0.61511
0.613769
0.612372
0.610946
0.609447
0.607923
0.606227
0.549703
0.554907
0.556763
0.564354
0.574362
0.585844
0.596262
0.604577
0.610598
0.614659
0.617303
0.618958
0.619919
0.620386
0.620479
0.620274
0.619844
0.619224
0.618459
0.61756
0.616554
0.615463
0.614286
0.613059
0.611796
0.610498
0.609192
0.607845
0.606495
0.604925
0.54785
0.552486
0.553499
0.560393
0.570241
0.581885
0.592659
0.601341
0.607654
0.611919
0.61469
0.616422
0.61743
0.617928
0.618049
0.617871
0.617471
0.616883
0.616152
0.615293
0.61433
0.613288
0.612167
0.611007
0.609823
0.608623
0.607442
0.606262
0.60512
0.603736
0.546273
0.550281
0.550488
0.556641
0.566264
0.577991
0.589074
0.598102
0.604707
0.609183
0.612085
0.613897
0.614952
0.615481
0.615628
0.615476
0.615103
0.614545
0.613846
0.613025
0.612103
0.611109
0.610044
0.608949
0.607843
0.606741
0.605688
0.60469
0.603794
0.602681
0.54498
0.548242
0.547702
0.553069
0.562371
0.574077
0.585401
0.594761
0.601668
0.606376
0.609429
0.611333
0.612444
0.613011
0.613187
0.613062
0.612717
0.612191
0.611525
0.610742
0.609861
0.608914
0.607906
0.606875
0.605845
0.604842
0.60392
0.603113
0.602503
0.601788
0.544279
0.546253
0.544965
0.549534
0.558487
0.570163
0.58173
0.59143
0.598647
0.603593
0.6068
0.608796
0.609962
0.610562
0.610763
0.610663
0.610343
0.609844
0.609207
0.608457
0.607615
0.606712
0.605757
0.604786
0.603827
0.602916
0.602119
0.601506
0.601217
0.601075
0.544465
0.540148
0.535875
0.53845
0.547124
0.559541
0.572326
0.583179
0.591262
0.596749
0.600211
0.602271
0.603406
0.60395
0.6041
0.603974
0.603643
0.603155
0.602545
0.601843
0.601068
0.600252
0.599411
0.598578
0.597792
0.597108
0.596628
0.596531
0.597184
0.599204
0.522819
0.521201
0.519352
0.523658
0.53322
0.545631
0.558118
0.56875
0.57678
0.58235
0.585977
0.588227
0.589551
0.59027
0.590582
0.590613
0.590438
0.590111
0.589666
0.589137
0.588545
0.587918
0.587281
0.58667
0.58613
0.585737
0.585619
0.58601
0.587378
0.590362
0.500108
0.502947
0.505121
0.511579
0.52149
0.533118
0.544593
0.554472
0.562126
0.567617
0.571341
0.573766
0.575289
0.576203
0.576703
0.576913
0.576915
0.576762
0.576494
0.576143
0.575733
0.575293
0.574849
0.574437
0.574108
0.573937
0.574052
0.574681
0.576299
0.579549
0.479863
0.486451
0.491874
0.499573
0.50929
0.520025
0.530522
0.539697
0.54701
0.55245
0.556293
0.558911
0.560646
0.56177
0.562473
0.56288
0.563073
0.563108
0.563025
0.562857
0.562629
0.562369
0.562105
0.561871
0.561715
0.561709
0.561972
0.562711
0.564379
0.567666
0.461334
0.470348
0.477863
0.486287
0.495845
0.505953
0.5157
0.524291
0.531315
0.536733
0.540727
0.543577
0.545569
0.546948
0.547894
0.548531
0.548943
0.549186
0.549302
0.549323
0.549276
0.549188
0.549086
0.549004
0.548984
0.549095
0.549442
0.550219
0.551838
0.555034
0.443424
0.453787
0.462596
0.471599
0.481142
0.490833
0.500011
0.508141
0.514944
0.520372
0.524543
0.527659
0.529952
0.531631
0.532862
0.533766
0.534427
0.534901
0.535231
0.53545
0.535585
0.535664
0.535711
0.535758
0.535847
0.536037
0.536427
0.537196
0.538721
0.541774
0.425661
0.436752
0.446374
0.455801
0.465331
0.474703
0.483466
0.491274
0.49794
0.503417
0.507779
0.511176
0.513788
0.515793
0.517336
0.518534
0.519466
0.52019
0.520749
0.521175
0.521497
0.521739
0.521926
0.52209
0.522268
0.522516
0.522923
0.52366
0.52507
0.527952
0.407854
0.419341
0.429434
0.4391
0.448577
0.45771
0.466197
0.473805
0.480404
0.485958
0.490515
0.494187
0.497117
0.49945
0.501316
0.502818
0.504034
0.50502
0.505818
0.506459
0.506971
0.507379
0.507706
0.507981
0.508241
0.508537
0.508952
0.509644
0.51093
0.513622
0.38988
0.401558
0.411886
0.421657
0.431073
0.440043
0.448352
0.45584
0.462419
0.468064
0.472809
0.476742
0.479974
0.482626
0.484809
0.486616
0.488118
0.48937
0.49041
0.491272
0.491978
0.492554
0.493022
0.49341
0.493752
0.494097
0.494518
0.495165
0.49632
0.498789
0.371655
0.383394
0.393813
0.40362
0.412984
0.42184
0.430032
0.437449
0.444035
0.449775
0.454699
0.458872
0.462386
0.465339
0.467827
0.469929
0.471712
0.473225
0.474507
0.475588
0.476491
0.477239
0.477853
0.478359
0.478787
0.479184
0.479617
0.480223
0.481255
0.483497
0.353133
0.364854
0.375285
0.385089
0.394404
0.403177
0.411289
0.418667
0.425279
0.431117
0.436207
0.4406
0.444372
0.447604
0.450377
0.452759
0.454811
0.456578
0.458095
0.45939
0.460487
0.461406
0.462167
0.462795
0.463317
0.463776
0.46423
0.464802
0.465712
0.467704
0.33429
0.345943
0.356339
0.366117
0.375386
0.384097
0.392157
0.399519
0.406168
0.412103
0.417346
0.42194
0.425946
0.429433
0.432469
0.435114
0.437419
0.439425
0.441166
0.442668
0.443953
0.445041
0.445949
0.446699
0.447317
0.44784
0.448323
0.448879
0.449699
0.451461
0.315108
0.32666
0.336996
0.346733
0.355962
0.364627
0.372655
0.380017
0.386711
0.39274
0.398123
0.402897
0.407115
0.410834
0.414109
0.416995
0.419534
0.421764
0.423715
0.425411
0.426875
0.428124
0.429175
0.43005
0.430769
0.431365
0.431882
0.43242
0.433146
0.434676
0.295569
0.307001
0.317266
0.326959
0.336152
0.344786
0.352796
0.360169
0.36691
0.373028
0.378539
0.383476
0.387883
0.391807
0.395299
0.398402
0.401155
0.403591
0.405737
0.407615
0.409246
0.410646
0.411829
0.412816
0.413628
0.414295
0.41486
0.415407
0.416083
0.417406
0.275667
0.286965
0.297158
0.306808
0.315973
0.324585
0.332587
0.339976
0.346766
0.352966
0.358591
0.363672
0.368245
0.372352
0.376035
0.379331
0.382275
0.384896
0.387217
0.38926
0.391044
0.392585
0.393899
0.394999
0.395902
0.396631
0.397224
0.397757
0.398369
0.39949
0.255399
0.266552
0.276683
0.286297
0.295438
0.304033
0.312031
0.319439
0.326275
0.332549
0.338275
0.34348
0.348195
0.352458
0.356306
0.35977
0.362883
0.365668
0.368146
0.370336
0.372253
0.373913
0.375332
0.376527
0.377515
0.378319
0.378965
0.379517
0.380094
0.381029
0.234772
0.245771
0.255855
0.265441
0.274558
0.283137
0.291134
0.29856
0.305436
0.311772
0.317582
0.32289
0.327724
0.332117
0.336102
0.339706
0.342959
0.345882
0.348494
0.350814
0.352857
0.354633
0.356153
0.357428
0.35847
0.359303
0.359956
0.360488
0.361018
0.361762
0.21382
0.224647
0.234699
0.244261
0.253349
0.261907
0.269899
0.277338
0.284245
0.29063
0.296505
0.301892
0.306818
0.311312
0.315402
0.319119
0.322485
0.325521
0.328241
0.330659
0.332789
0.334647
0.336248
0.337605
0.338723
0.339615
0.340299
0.340824
0.34131
0.341877
0.192609
0.203234
0.213258
0.222787
0.231829
0.240353
0.248331
0.255775
0.262701
0.269118
0.275038
0.280479
0.285467
0.29003
0.294193
0.297986
0.301431
0.304551
0.30736
0.309869
0.312084
0.31401
0.315656
0.317035
0.318163
0.319057
0.319732
0.320225
0.320648
0.321
0.171273
0.181632
0.191599
0.201062
0.210024
0.21849
0.226441
0.233877
0.240805
0.247233
0.253169
0.258631
0.263646
0.268241
0.272443
0.276278
0.279767
0.282928
0.285774
0.28832
0.290581
0.292565
0.294276
0.295713
0.296878
0.297781
0.298437
0.298888
0.299248
0.299414
0.150021
0.159999
0.169822
0.179145
0.187969
0.19634
0.204241
0.21165
0.218561
0.224975
0.230898
0.23635
0.241355
0.24594
0.250134
0.253968
0.257468
0.260652
0.263527
0.266094
0.268357
0.270324
0.272012
0.273431
0.274583
0.275468
0.276081
0.276451
0.276695
0.276591
0.129157
0.138569
0.148073
0.157123
0.165717
0.173936
0.181752
0.189108
0.195969
0.20233
0.208198
0.213593
0.218542
0.223073
0.227215
0.230993
0.234436
0.237569
0.240409
0.242969
0.245249
0.247241
0.24894
0.250349
0.251476
0.252329
0.252901
0.253203
0.25334
0.253002
0.109041
0.117627
0.126544
0.135118
0.143349
0.15133
0.159008
0.16627
0.173049
0.179325
0.185102
0.190396
0.195234
0.19965
0.203686
0.207375
0.210743
0.2138
0.21655
0.219004
0.221181
0.223091
0.224733
0.226096
0.227171
0.227953
0.228428
0.228594
0.228541
0.227845
0.090018
0.0974827
0.105469
0.113302
0.12099
0.128611
0.136059
0.143156
0.149784
0.155908
0.161529
0.166662
0.171329
0.175564
0.179409
0.18291
0.186111
0.18904
0.191706
0.194103
0.196219
0.198054
0.199616
0.200909
0.201932
0.202673
0.203094
0.203147
0.202883
0.201852
0.0723488
0.0784115
0.0851152
0.0919094
0.0988271
0.105919
0.113017
0.119862
0.126279
0.132199
0.137605
0.142503
0.146922
0.150912
0.154526
0.157798
0.160755
0.163425
0.16584
0.168024
0.169977
0.171681
0.173121
0.174287
0.175182
0.175811
0.176134
0.176044
0.175497
0.17397
0.0561707
0.0606419
0.0657769
0.0712422
0.0771311
0.0834583
0.0899801
0.0963738
0.102423
0.108024
0.113123
0.117696
0.121761
0.125382
0.128641
0.131607
0.134318
0.136784
0.139003
0.140981
0.142733
0.144268
0.145579
0.146644
0.147448
0.147995
0.148256
0.148062
0.147214
0.145242
0.0414862
0.0443475
0.0477605
0.0516479
0.0562768
0.0616233
0.0673456
0.0730872
0.0786099
0.083758
0.0884269
0.092568
0.096193
0.0993559
0.102128
0.10459
0.10682
0.108866
0.110735
0.112414
0.113891
0.115167
0.116244
0.117109
0.117745
0.118161
0.118351
0.118088
0.116923
0.114376
0.0281715
0.0295955
0.0313447
0.0334762
0.036598
0.0405982
0.0450734
0.0497604
0.0544621
0.0589431
0.0629933
0.0665168
0.0695381
0.0721461
0.0744324
0.0764645
0.0782849
0.079919
0.0813885
0.0827119
0.0838935
0.0849239
0.085789
0.0864703
0.0869432
0.0872207
0.08736
0.0871561
0.0858578
0.0829721
0.0159247
0.0162229
0.0164993
0.0170903
0.0190636
0.0216732
0.0245661
0.027782
0.0312454
0.034691
0.0378277
0.0404679
0.0425774
0.0442627
0.0456898
0.0469829
0.0481782
0.0492582
0.0502094
0.0510472
0.0517936
0.0524522
0.0530095
0.0534454
0.053726
0.0538308
0.0538421
0.0537358
0.0526477
0.0497164
0.00474287
0.00368728
0.000187559
-0.000600111
0.00158584
0.00323109
0.0045114
0.00602469
0.00786641
0.00984129
0.011711
0.0132972
0.0145255
0.0154326
0.0161221
0.0166943
0.0172074
0.0176724
0.018083
0.0184409
0.0187557
0.019031
0.0192627
0.0194468
0.0195675
0.0195763
0.0194819
0.019458
0.0192061
0.017222
0.525108
0.505626
0.486182
0.467827
0.450266
0.432757
0.415152
0.397413
0.37948
0.361309
0.342872
0.32414
0.305102
0.285746
0.266073
0.246102
0.225852
0.205396
0.184814
0.164249
0.143898
0.124018
0.104915
0.0868575
0.0700663
0.0546588
0.0406362
0.0278724
0.0160543
0.00505438
0.523232
0.502279
0.482783
0.464291
0.446649
0.429127
0.411553
0.393869
0.375999
0.357896
0.339531
0.320874
0.301913
0.282637
0.263047
0.243166
0.223011
0.202663
0.182207
0.161797
0.141643
0.122003
0.103189
0.0854522
0.068998
0.0539205
0.0401954
0.0276724
0.0160238
0.00512056
0.52067
0.49853
0.479137
0.460666
0.443029
0.425538
0.408008
0.390376
0.372567
0.354527
0.336231
0.317645
0.298761
0.279566
0.260061
0.24027
0.220212
0.199974
0.179646
0.159387
0.139419
0.119999
0.101441
0.0839871
0.0678386
0.0530785
0.0396604
0.0274003
0.0159399
0.00516077
0.517547
0.494735
0.475487
0.457065
0.439435
0.421982
0.404501
0.386924
0.369174
0.351197
0.332967
0.314452
0.295643
0.276527
0.257104
0.237401
0.21744
0.197312
0.177112
0.157009
0.137234
0.118046
0.0997558
0.0825947
0.0667546
0.0523028
0.0391719
0.0271523
0.0158609
0.00518792
0.514043
0.490934
0.471833
0.453485
0.435873
0.418466
0.401039
0.383518
0.365826
0.34791
0.329744
0.311298
0.292562
0.273523
0.25418
0.234565
0.214699
0.19468
0.174611
0.154667
0.13509
0.11614
0.0981246
0.0812646
0.0657378
0.0515909
0.0387336
0.026934
0.0157922
0.00520509
0.510224
0.487129
0.468179
0.449928
0.432347
0.414993
0.397622
0.380157
0.362523
0.344667
0.326565
0.308186
0.289519
0.270555
0.251291
0.231761
0.21199
0.192081
0.172145
0.152363
0.13299
0.114284
0.0965492
0.0799947
0.0647812
0.0509334
0.0383368
0.0267388
0.0157306
0.00521345
0.50615
0.483318
0.464531
0.446399
0.428861
0.411565
0.394252
0.376844
0.359267
0.34147
0.323429
0.305115
0.286515
0.267623
0.248437
0.228991
0.209315
0.189515
0.169715
0.150101
0.130936
0.112481
0.0950333
0.0787883
0.0638861
0.0503292
0.0379789
0.0265643
0.0156755
0.00521474
0.501888
0.479506
0.460894
0.442901
0.425417
0.408183
0.390931
0.373578
0.356058
0.33832
0.32034
0.302087
0.283554
0.264732
0.24562
0.226256
0.206675
0.186986
0.167324
0.147882
0.128932
0.110735
0.0935794
0.077647
0.0630533
0.0497783
0.0376593
0.0264101
0.0156266
0.00521098
0.497497
0.475694
0.457274
0.439435
0.422018
0.404847
0.387657
0.370362
0.352899
0.335219
0.317296
0.299105
0.280635
0.261881
0.242841
0.223558
0.204071
0.184495
0.164974
0.145709
0.12698
0.109046
0.0921885
0.0765705
0.0622815
0.0492789
0.0373757
0.0262749
0.0155834
0.00520698
0.493031
0.47189
0.453677
0.436002
0.418667
0.40156
0.384433
0.367197
0.34979
0.332166
0.314301
0.296169
0.277762
0.259073
0.240103
0.220898
0.201507
0.182044
0.162666
0.143583
0.12508
0.107416
0.0908604
0.0755571
0.0615681
0.0488276
0.0371247
0.0261567
0.0155447
0.00519696
0.488538
0.468098
0.45011
0.432605
0.415363
0.398323
0.38126
0.364082
0.346732
0.329163
0.311355
0.293281
0.274934
0.256308
0.237407
0.21828
0.198984
0.179635
0.160403
0.141506
0.123235
0.105846
0.089595
0.0746051
0.0609101
0.0484206
0.036903
0.0260532
0.0155101
0.00518548
0.484058
0.464327
0.446579
0.429247
0.412107
0.395138
0.378138
0.361018
0.343724
0.326211
0.308458
0.290442
0.272154
0.253588
0.234755
0.215705
0.196503
0.177271
0.158188
0.139482
0.121448
0.104338
0.0883928
0.0737135
0.0603053
0.048055
0.0367076
0.0259625
0.0154789
0.00517359
0.479622
0.460583
0.443087
0.425931
0.408902
0.392005
0.37507
0.358007
0.340767
0.323309
0.305611
0.287652
0.26942
0.250915
0.232148
0.213176
0.194068
0.174954
0.156024
0.137515
0.119723
0.102895
0.0872552
0.0728822
0.0597522
0.0477282
0.0365364
0.0258833
0.0154512
0.00516195
0.475256
0.456876
0.43964
0.42266
0.405748
0.388926
0.372055
0.355048
0.337863
0.320461
0.302816
0.28491
0.266734
0.248288
0.229588
0.210692
0.191679
0.172686
0.153914
0.135607
0.118062
0.101519
0.0861839
0.0721117
0.0592495
0.0474378
0.0363871
0.0258142
0.0154265
0.00515107
0.47098
0.453215
0.436244
0.419439
0.402649
0.385902
0.369096
0.352146
0.335014
0.317665
0.300072
0.282219
0.264098
0.24571
0.227077
0.208257
0.189339
0.170469
0.151861
0.133762
0.116468
0.100212
0.0851797
0.0714015
0.0587952
0.0471815
0.0362575
0.0257538
0.0154046
0.00514124
0.466807
0.449609
0.432904
0.416271
0.399605
0.382936
0.366194
0.349301
0.332222
0.314925
0.297382
0.27958
0.261512
0.243182
0.224614
0.205869
0.187049
0.168306
0.149865
0.131979
0.114941
0.0989752
0.0842422
0.0707501
0.0583868
0.0469561
0.0361451
0.0257008
0.0153851
0.00513258
0.462746
0.446065
0.429625
0.41316
0.396618
0.380029
0.36335
0.346514
0.329487
0.31224
0.294746
0.276994
0.258979
0.240705
0.2222
0.203531
0.184809
0.166197
0.147929
0.13026
0.113482
0.0978069
0.0833697
0.0701549
0.0580211
0.0467583
0.0360476
0.025654
0.0153678
0.00512518
0.458805
0.442592
0.426409
0.410107
0.39369
0.377181
0.360567
0.343787
0.32681
0.309612
0.292166
0.274462
0.256499
0.238278
0.219837
0.201244
0.182623
0.164144
0.146052
0.128606
0.112092
0.0967067
0.0825603
0.0696129
0.0576947
0.0465852
0.0359629
0.0256125
0.0153526
0.00511905
0.454987
0.439195
0.423261
0.407117
0.390823
0.374395
0.357845
0.34112
0.324193
0.307043
0.289644
0.271987
0.254073
0.235905
0.217525
0.199009
0.18049
0.162148
0.144237
0.127018
0.110769
0.0956741
0.0818122
0.0691212
0.0574046