-0.365783 	0.365783 	0.5 	0.0317744 	0.0298184 	4.84854e-21
-0.38935 	0.38935 	0.5 	0.0836285 	0.0746948 	3.62794e-20
-0.412917 	0.412917 	0.5 	0.128071 	0.107602 	0
-0.436483 	0.436483 	0.5 	0.165908 	0.1316 	4.28427e-20
-0.46005 	0.46005 	0.5 	0.198394 	0.148463 	0
-0.483617 	0.483617 	0.5 	0.2264 	0.159691 	0
-0.507183 	0.507183 	0.5 	0.250641 	0.166457 	3.30408e-20
-0.53075 	0.53075 	0.5 	0.271711 	0.169704 	2.50752e-23
-0.554317 	0.554317 	0.5 	0.290103 	0.170189 	1.12214e-20
-0.577883 	0.577883 	0.5 	0.306234 	0.168531 	1.12161e-20
-0.60145 	0.60145 	0.5 	0.320453 	0.16523 	-3.36654e-20
-0.625017 	0.625017 	0.5 	0.33306 	0.160693 	2.24362e-20
-0.648583 	0.648583 	0.5 	0.344307 	0.155248 	0
-0.67215 	0.67215 	0.5 	0.354409 	0.14916 	0
-0.695717 	0.695717 	0.5 	0.363546 	0.142638 	-4.39176e-20
-0.719283 	0.719283 	0.5 	0.371872 	0.135851 	0
-0.74285 	0.74285 	0.5 	0.379518 	0.128929 	-2.16812e-20
-0.766417 	0.766417 	0.5 	0.386591 	0.121972 	2.15501e-20
-0.789983 	0.789983 	0.5 	0.393184 	0.115058 	2.12375e-20
-0.81355 	0.81355 	0.5 	0.399374 	0.108244 	-8.92998e-23
-0.837117 	0.837117 	0.5 	0.405228 	0.101573 	-2.0825e-20
-0.860683 	0.860683 	0.5 	0.410801 	0.0950738 	0
-0.88425 	0.88425 	0.5 	0.41614 	0.0887664 	-4.03622e-20
-0.907817 	0.907817 	0.5 	0.421288 	0.0826626 	3.99893e-20
-0.931383 	0.931383 	0.5 	0.426284 	0.0767685 	0
-0.95495 	0.95495 	0.5 	0.431163 	0.071089 	0
-0.978517 	0.978517 	0.5 	0.435967 	0.0656279 	0
-1.00208 	1.00208 	0.5 	0.440797 	0.0603444 	0
-1.02565 	1.02565 	0.5 	0.445917 	0.0551899 	-3.65687e-20
-1.04922 	1.04922 	0.5 	0.451513 	0.050767 	1.96553e-22
-1.061 	1.061 	0.5 	0.46886 	0.0445785 	1.57025e-20
-1.14332 	1.14332 	0.5 	0.460194 	0.0380481 	0
-1.22563 	1.22563 	0.5 	0.485243 	0.0288256 	0
-1.30795 	1.30795 	0.5 	0.489621 	0.0055048 	0
-1.39027 	1.39027 	0.5 	0.51097 	0.00678688 	0
-1.47258 	1.47258 	0.5 	0.51138 	-0.0150545 	0
-1.5549 	1.5549 	0.5 	0.531515 	-0.0130667 	0
-1.63722 	1.63722 	0.5 	0.534086 	-0.0330347 	0
-1.71953 	1.71953 	0.5 	0.55287 	-0.0299205 	0
