/*--------------------------------*- C++ -*----------------------------------*\
  =========                 |
  \\      /  F ield         | OpenFOAM: The Open Source CFD Toolbox
   \\    /   O peration     | Website:  https://openfoam.org
    \\  /    A nd           | Version:  7
     \\/     M anipulation  |
\*---------------------------------------------------------------------------*/
FoamFile
{
    version     2.0;
    format      ascii;
    class       volScalarField;
    location    "1.4";
    object      p;
}
// * * * * * * * * * * * * * * * * * * * * * * * * * * * * * * * * * * * * * //

dimensions      [0 2 -2 0 0 0 0];

internalField   nonuniform List<scalar> 
18000
(
2.59071
2.59141
2.59405
2.59703
2.60011
2.60342
2.60725
2.61191
2.61763
2.62444
2.6322
2.6406
2.64934
2.65813
2.66677
2.67515
2.68319
2.69083
2.69806
2.7049
2.71139
2.71756
2.72348
2.7292
2.73474
2.74014
2.74541
2.75057
2.75566
2.7606
2.57909
2.58013
2.58281
2.58576
2.5887
2.59176
2.59528
2.59963
2.60506
2.61163
2.61918
2.62743
2.63605
2.64475
2.65334
2.66165
2.66961
2.67717
2.68431
2.69106
2.69744
2.70351
2.70931
2.71489
2.72029
2.72554
2.73065
2.73565
2.74057
2.74536
2.5674
2.56882
2.57156
2.57451
2.5773
2.58009
2.58329
2.58731
2.59244
2.59875
2.60609
2.61417
2.62266
2.63127
2.63978
2.64802
2.65589
2.66335
2.6704
2.67704
2.68331
2.68925
2.69492
2.70036
2.70562
2.71071
2.71565
2.72048
2.72522
2.72983
2.55568
2.5575
2.56033
2.56326
2.56591
2.56844
2.5713
2.57499
2.57981
2.58585
2.59296
2.60085
2.60921
2.61772
2.62613
2.63428
2.64205
2.6494
2.65634
2.66286
2.66901
2.67482
2.68035
2.68564
2.69074
2.69566
2.70043
2.70508
2.70963
2.71406
2.544
2.54623
2.54914
2.55206
2.55455
2.5568
2.55934
2.56268
2.56719
2.57295
2.57982
2.58753
2.59574
2.60413
2.61243
2.62046
2.62811
2.63535
2.64216
2.64855
2.65456
2.66023
2.66561
2.67075
2.67567
2.68042
2.68501
2.68947
2.69383
2.69807
2.53236
2.53497
2.53796
2.54087
2.54321
2.54522
2.54743
2.55044
2.55462
2.56009
2.56672
2.57424
2.58229
2.59054
2.5987
2.60659
2.61411
2.62121
2.62788
2.63413
2.63998
2.6455
2.65072
2.65569
2.66044
2.665
2.6694
2.67367
2.67784
2.68188
2.52079
2.52375
2.52683
2.52973
2.53193
2.53369
2.53559
2.53825
2.54211
2.54729
2.55368
2.561
2.56887
2.57696
2.58496
2.5927
2.60006
2.60701
2.61353
2.61962
2.62531
2.63066
2.63571
2.6405
2.64506
2.64944
2.65364
2.65771
2.66167
2.66551
2.50929
2.51258
2.51574
2.51864
2.52071
2.52223
2.52382
2.52615
2.52968
2.53458
2.54072
2.54783
2.55552
2.56342
2.57124
2.5788
2.586
2.59278
2.59912
2.60503
2.61055
2.61572
2.62059
2.62519
2.62956
2.63374
2.63775
2.64161
2.64536
2.64898
2.49785
2.50145
2.5047
2.50759
2.50954
2.51084
2.51213
2.51413
2.51735
2.52196
2.52786
2.53475
2.54223
2.54993
2.55755
2.56492
2.57193
2.57852
2.58467
2.5904
2.59574
2.60072
2.60539
2.60979
2.61397
2.61794
2.62174
2.62539
2.62892
2.63232
2.48649
2.49037
2.49369
2.49659
2.49842
2.4995
2.5005
2.50219
2.50511
2.50945
2.51511
2.52176
2.52902
2.5365
2.54391
2.55107
2.55787
2.56425
2.57021
2.57574
2.58087
2.58565
2.59012
2.59432
2.59829
2.60205
2.60563
2.60907
2.61237
2.61555
2.47517
2.47932
2.48272
2.48561
2.48734
2.4882
2.48894
2.49034
2.49296
2.49704
2.50245
2.50887
2.51589
2.52314
2.53032
2.53725
2.54383
2.54999
2.55573
2.56105
2.56598
2.57055
2.57481
2.5788
2.58255
2.58609
2.58945
2.59266
2.59574
2.59868
2.4639
2.46829
2.47176
2.47465
2.47626
2.47693
2.47742
2.47854
2.4809
2.48472
2.48989
2.49607
2.50285
2.50985
2.51679
2.52348
2.52981
2.53574
2.54126
2.54636
2.55107
2.55542
2.55947
2.56324
2.56677
2.57009
2.57322
2.57621
2.57904
2.58174
2.45265
2.45726
2.46079
2.46368
2.46519
2.46567
2.46592
2.4668
2.46891
2.47249
2.47743
2.48337
2.4899
2.49664
2.50331
2.50975
2.51583
2.52152
2.5268
2.53166
2.53615
2.54028
2.5441
2.54765
2.55096
2.55405
2.55696
2.55971
2.5623
2.56476
2.4414
2.44622
2.4498
2.45268
2.45409
2.45439
2.45443
2.45508
2.45697
2.46034
2.46505
2.47075
2.47702
2.48349
2.4899
2.49606
2.50189
2.50733
2.51236
2.51698
2.52124
2.52514
2.52874
2.53206
2.53514
2.53801
2.54068
2.5432
2.54555
2.54775
2.43013
2.43515
2.43878
2.44163
2.44294
2.44309
2.44294
2.44339
2.44508
2.44825
2.45274
2.45821
2.46422
2.47042
2.47654
2.48243
2.48799
2.49316
2.49794
2.50232
2.50634
2.51001
2.51338
2.51648
2.51934
2.52197
2.52442
2.52669
2.5288
2.53075
2.41884
2.42402
2.4277
2.43053
2.43173
2.43173
2.43141
2.43169
2.43322
2.43621
2.4405
2.44573
2.45148
2.4574
2.46324
2.46885
2.47413
2.47903
2.48355
2.48768
2.49145
2.49489
2.49804
2.50091
2.50355
2.50596
2.50818
2.51022
2.51207
2.51377
2.40748
2.41283
2.41653
2.41933
2.42043
2.4203
2.41984
2.41998
2.42137
2.42421
2.42831
2.43331
2.4388
2.44443
2.44999
2.4553
2.4603
2.46494
2.46919
2.47307
2.4766
2.4798
2.48272
2.48538
2.4878
2.48999
2.49198
2.49379
2.4954
2.49686
2.39604
2.40155
2.40527
2.40803
2.40903
2.40878
2.4082
2.40825
2.40953
2.41223
2.41616
2.42093
2.42615
2.43151
2.43677
2.4418
2.44652
2.45088
2.45486
2.45848
2.46177
2.46475
2.46745
2.46989
2.4721
2.47408
2.47585
2.47743
2.47881
2.48003
2.3845
2.39016
2.3939
2.3966
2.39751
2.39716
2.3965
2.39648
2.39768
2.40027
2.40403
2.40858
2.41355
2.41862
2.4236
2.42834
2.43277
2.43684
2.44056
2.44392
2.44697
2.44972
2.45221
2.45445
2.45645
2.45823
2.45979
2.46116
2.46233
2.46332
2.37286
2.37866
2.3824
2.38504
2.38585
2.38542
2.38471
2.38466
2.38582
2.38832
2.39192
2.39626
2.40097
2.40577
2.41046
2.4149
2.41904
2.42284
2.42628
2.4294
2.4322
2.43474
2.43702
2.43906
2.44087
2.44245
2.44383
2.44501
2.44597
2.44677
2.36109
2.36703
2.37076
2.37333
2.37406
2.37357
2.37284
2.37279
2.37394
2.37636
2.37982
2.38395
2.38842
2.39294
2.39734
2.4015
2.40535
2.40886
2.41204
2.4149
2.41747
2.41979
2.42187
2.42372
2.42535
2.42676
2.42796
2.42898
2.42977
2.4304
2.34919
2.35527
2.35897
2.36148
2.36213
2.3616
2.36089
2.36087
2.36203
2.3644
2.36773
2.37167
2.37589
2.38015
2.38426
2.38813
2.39169
2.39492
2.39783
2.40043
2.40278
2.40488
2.40677
2.40844
2.40989
2.41114
2.4122
2.41308
2.41374
2.41424
2.33715
2.34337
2.34704
2.34947
2.35006
2.34952
2.34885
2.34891
2.3501
2.35243
2.35564
2.3594
2.36339
2.36738
2.37121
2.37478
2.37805
2.38101
2.38365
2.386
2.38811
2.39001
2.3917
2.39319
2.39448
2.3956
2.39654
2.39732
2.3979
2.39832
2.32498
2.33133
2.33496
2.33732
2.33786
2.33734
2.33675
2.33691
2.33815
2.34046
2.34357
2.34716
2.35093
2.35465
2.3582
2.36148
2.36446
2.36713
2.3695
2.3716
2.37348
2.37515
2.37665
2.37796
2.37911
2.38011
2.38097
2.38169
2.38224
2.38267
2.31268
2.31916
2.32273
2.32503
2.32554
2.32507
2.3246
2.32488
2.3262
2.32851
2.33152
2.33495
2.33849
2.34196
2.34522
2.34821
2.3509
2.35329
2.35539
2.35723
2.35886
2.36032
2.36161
2.36274
2.36375
2.36463
2.36543
2.36615
2.36674
2.36727
2.30024
2.30686
2.31038
2.31262
2.31312
2.31272
2.3124
2.31283
2.31425
2.31656
2.3195
2.32276
2.3261
2.32931
2.33229
2.33499
2.33739
2.33949
2.34131
2.34289
2.34427
2.34548
2.34656
2.3475
2.34835
2.34913
2.34988
2.35062
2.35133
2.3521
2.2877
2.29445
2.2979
2.30009
2.3006
2.30031
2.30017
2.30077
2.3023
2.30464
2.30751
2.31062
2.31375
2.31671
2.31941
2.32183
2.32393
2.32574
2.32728
2.32858
2.32969
2.33064
2.33147
2.3322
2.33286
2.33351
2.33422
2.33501
2.33591
2.33707
2.27505
2.28193
2.28532
2.28745
2.288
2.28786
2.28793
2.28873
2.29039
2.29275
2.29556
2.29853
2.30145
2.30417
2.3066
2.30872
2.31054
2.31205
2.31329
2.3143
2.31512
2.31579
2.31634
2.31681
2.31723
2.31769
2.31829
2.31913
2.32029
2.32203
2.26232
2.26932
2.27264
2.27474
2.27535
2.27539
2.2757
2.27671
2.27851
2.28091
2.28366
2.2865
2.28922
2.29169
2.29386
2.2957
2.29722
2.29843
2.29937
2.30007
2.30058
2.30094
2.30116
2.30129
2.30138
2.30152
2.30186
2.30259
2.30404
2.3068
2.24952
2.25664
2.25989
2.26196
2.26267
2.26292
2.26349
2.26474
2.26669
2.26914
2.27184
2.27454
2.27707
2.27931
2.28121
2.28277
2.28399
2.2849
2.28553
2.28591
2.28609
2.2861
2.28595
2.28568
2.28531
2.28493
2.28464
2.28461
2.28527
2.28875
2.77652
2.80264
2.82503
2.84744
2.86852
2.88888
2.90828
2.92685
2.94488
2.96243
2.97969
2.99677
3.01379
3.0309
3.04832
3.06612
3.08435
3.10323
3.12243
3.14271
3.1627
3.1848
3.20517
3.22961
3.24976
3.27706
3.29658
3.3279
3.34536
3.38489
2.76101
2.78812
2.81094
2.8339
2.85543
2.87605
2.89561
2.91432
2.93255
2.95021
2.96751
2.98464
3.00174
3.01894
3.03638
3.0542
3.07248
3.0914
3.11059
3.1309
3.15092
3.17303
3.19338
3.21781
3.23797
3.2653
3.28487
3.31626
3.33379
3.37346
2.7452
2.77336
2.79667
2.82021
2.84216
2.86304
2.88279
2.90166
2.92008
2.93785
2.9552
2.97239
2.98958
3.00687
3.02433
3.0422
3.06053
3.07948
3.09869
3.11904
3.1391
3.16123
3.18158
3.20604
3.22623
3.25362
3.27325
3.30474
3.32234
3.36215
2.72911
2.75838
2.78225
2.80637
2.82871
2.84989
2.86986
2.8889
2.90745
2.92535
2.94279
2.96006
2.97731
2.99468
3.01219
3.03012
3.0485
3.06749
3.08676
3.10714
3.12724
3.14939
3.1698
3.19431
3.21454
3.24201
3.26171
3.29331
3.31101
3.35097
2.71277
2.74321
2.76767
2.79239
2.81513
2.8366
2.85681
2.87605
2.8947
2.91272
2.93029
2.94763
2.96495
2.98238
2.99996
3.01797
3.0364
3.05544
3.07477
3.09518
3.11534
3.13753
3.15802
3.18261
3.20291
3.23048
3.25027
3.28198
3.29979
3.3399
2.69623
2.72785
2.75294
2.77828
2.80144
2.82321
2.84365
2.86309
2.88186
2.9
2.91768
2.9351
2.95249
2.97
2.98765
3.00573
3.02422
3.04332
3.06273
3.08319
3.10341
3.12567
3.14625
3.17093
3.19132
3.21901
3.2389
3.27076
3.28868
3.32896
2.67949
2.71233
2.73809
2.76406
2.78765
2.80973
2.83039
2.85003
2.86893
2.88719
2.90498
2.92249
2.93995
2.95753
2.97526
2.99341
3.01198
3.03114
3.05063
3.07115
3.09146
3.1138
3.13447
3.15927
3.17978
3.2076
3.22762
3.25965
3.27769
3.31813
2.66258
2.69667
2.72311
2.74974
2.77378
2.79616
2.81705
2.83689
2.85592
2.8743
2.8922
2.9098
2.92733
2.945
2.9628
2.98103
2.99967
3.01891
3.03848
3.05908
3.07948
3.10192
3.1227
3.14763
3.16827
3.19626
3.21643
3.24864
3.26681
3.30743
2.64551
2.68088
2.70805
2.73534
2.75984
2.78253
2.80365
2.82368
2.84285
2.86134
2.87935
2.89704
2.91465
2.93239
2.95028
2.96858
2.9873
3.00662
3.02629
3.04698
3.06747
3.09003
3.11093
3.13601
3.15681
3.18498
3.20532
3.23774
3.25605
3.29686
2.62831
2.66499
2.69292
2.72088
2.74584
2.76884
2.79018
2.81041
2.82972
2.84832
2.86644
2.88422
2.90191
2.91973
2.93769
2.95608
2.97488
2.99429
3.01405
3.03484
3.05544
3.07813
3.09916
3.12442
3.14538
3.17377
3.19429
3.22694
3.24542
3.28641
2.611
2.64901
2.67773
2.70637
2.73179
2.75511
2.77667
2.79709
2.81655
2.83525
2.85348
2.87134
2.88912
2.90701
2.92506
2.94353
2.9624
2.98191
3.00177
3.02268
3.04339
3.06622
3.08739
3.11284
3.134
3.16263
3.18336
3.21625
3.23491
3.27609
2.59359
2.63297
2.66252
2.69183
2.71771
2.74134
2.76312
2.78374
2.80334
2.82215
2.84047
2.85843
2.87628
2.89425
2.91238
2.93093
2.94989
2.9695
2.98946
3.01048
3.03131
3.0543
3.07563
3.10129
3.12265
3.15154
3.1725
3.20568
3.22452
3.26591
2.57612
2.61688
2.6473
2.67727
2.7036
2.72755
2.74955
2.77036
2.7901
2.80901
2.82743
2.84547
2.86341
2.88145
2.89965
2.9183
2.93734
2.95705
2.97711
2.99825
3.01921
3.04236
3.06386
3.08974
3.11133
3.14052
3.16173
3.19521
3.21426
3.25587
2.55861
2.60079
2.6321
2.66271
2.68948
2.71375
2.73598
2.75697
2.77684
2.79585
2.81436
2.83249
2.85051
2.86862
2.8869
2.90563
2.92475
2.94457
2.96472
2.98599
3.00708
3.03041
3.05209
3.07821
3.10005
3.12955
3.15105
3.18485
3.20414
3.24597
2.54109
2.5847
2.61693
2.64817
2.67536
2.69996
2.7224
2.74358
2.76357
2.78269
2.80129
2.8195
2.83759
2.85576
2.87411
2.89293
2.91213
2.93205
2.95231
2.9737
2.99493
3.01844
3.04031
3.06669
3.08879
3.11863
3.14045
3.17461
3.19416
3.23623
2.52359
2.56865
2.60183
2.63367
2.66127
2.68619
2.70884
2.7302
2.75032
2.76953
2.78821
2.8065
2.82465
2.84289
2.86131
2.88021
2.89949
2.91951
2.93986
2.96138
2.98275
3.00644
3.02852
3.05517
3.07757
3.10777
3.12993
3.16448
3.18432
3.22665
2.50616
2.55268
2.58682
2.61921
2.64722
2.67246
2.69532
2.71685
2.73708
2.75638
2.77515
2.7935
2.81171
2.83
2.84849
2.86747
2.88682
2.90693
2.92739
2.94903
2.97054
2.99443
3.01672
3.04365
3.06636
3.09695
3.11949
3.15447
3.17462
3.21723
2.48882
2.53679
2.57191
2.60483
2.63322
2.65877
2.68183
2.70354
2.72388
2.74327
2.7621
2.78051
2.79878
2.81712
2.83567
2.85472
2.87414
2.89433
2.91489
2.93665
2.95832
2.9824
3.00492
3.03214
3.05518
3.08619
3.10913
3.14458
3.16509
3.20799
2.47164
2.52104
2.55713
2.59054
2.61929
2.64516
2.6684
2.69029
2.71072
2.73019
2.74909
2.76754
2.78586
2.80424
2.82285
2.84196
2.86145
2.88171
2.90238
2.92425
2.94607
2.97034
2.9931
3.02063
3.04401
3.07546
3.09885
3.13481
3.15573
3.19895
2.45465
2.50545
2.5425
2.57635
2.60545
2.63162
2.65505
2.6771
2.69762
2.71715
2.73611
2.7546
2.77297
2.79138
2.81004
2.8292
2.84875
2.86908
2.88984
2.91183
2.9338
2.95827
2.98127
3.00912
3.03285
3.06477
3.08863
3.12516
3.14654
3.19011
2.43792
2.49005
2.52803
2.5623
2.59172
2.61819
2.6418
2.664
2.68459
2.70418
2.72319
2.7417
2.76011
2.77854
2.79724
2.81644
2.83605
2.85643
2.87729
2.89938
2.9215
2.94617
2.96942
2.99759
3.02169
3.0541
3.07848
3.11562
3.13754
3.18149
2.42152
2.47489
2.51376
2.5484
2.57812
2.60487
2.62866
2.65099
2.67165
2.69129
2.71033
2.72886
2.74729
2.76574
2.78446
2.80369
2.82334
2.84378
2.86472
2.88692
2.90919
2.93406
2.95755
2.98605
3.01053
3.04345
3.06839
3.10619
3.12873
3.17313
2.40551
2.46
2.49969
2.53469
2.56469
2.59169
2.61566
2.63811
2.65881
2.67849
2.69754
2.71607
2.73452
2.75297
2.77171
2.79096
2.81064
2.83112
2.85213
2.87445
2.89685
2.92192
2.94565
2.97449
2.99935
3.0328
3.05834
3.09687
3.12014
3.16505
2.38998
2.44541
2.48586
2.52117
2.55145
2.57867
2.60282
2.62537
2.6461
2.66579
2.68484
2.70337
2.72181
2.74025
2.75898
2.77824
2.79795
2.81846
2.83954
2.86196
2.88449
2.90976
2.93373
2.96291
2.98815
3.02215
3.04834
3.08765
3.11178
3.15729
2.37504
2.43115
2.47228
2.5079
2.53842
2.56582
2.59017
2.61278
2.63351
2.65321
2.67223
2.69074
2.70916
2.72758
2.7463
2.76555
2.78527
2.8058
2.82694
2.84945
2.87211
2.89757
2.92177
2.95129
2.97693
3.01147
3.03835
3.07851
3.10365
3.1499
2.36081
2.41731
2.45901
2.49491
2.52566
2.55314
2.57775
2.60036
2.62109
2.64077
2.65975
2.67822
2.69659
2.71498
2.73367
2.7529
2.77261
2.79316
2.81433
2.83694
2.85971
2.88535
2.90978
2.93962
2.96566
3.00076
3.02837
3.06945
3.09579
3.14294
2.34749
2.40399
2.44614
2.48231
2.51324
2.5406
2.56557
2.58817
2.60886
2.62851
2.6474
2.66581
2.68412
2.70246
2.7211
2.74029
2.75998
2.78053
2.80173
2.82442
2.8473
2.87311
2.89777
2.92791
2.95436
2.98999
3.01839
3.06044
3.08819
3.13649
2.33507
2.39085
2.43334
2.4698
2.50095
2.52817
2.55347
2.57601
2.59664
2.61622
2.63502
2.65337
2.6716
2.68988
2.70846
2.7276
2.74726
2.76782
2.78904
2.8118
2.83479
2.86075
2.88564
2.91608
2.94294
2.9791
3.00832
3.0514
3.08084
3.13063
2.32294
2.37706
2.41984
2.4567
2.48818
2.51552
2.54101
2.56349
2.58407
2.60361
2.62233
2.64062
2.65879
2.67702
2.69556
2.71467
2.7343
2.75488
2.77613
2.79898
2.82208
2.8482
2.87333
2.90405
2.93134
2.96801
2.99811
3.04227
3.07373
3.12548
2.31116
2.36347
2.40646
2.44363
2.4753
2.50241
2.52845
2.55097
2.57157
2.59109
2.60976
2.62801
2.64614
2.66433
2.68283
2.7019
2.72153
2.74211
2.76339
2.78629
2.80951
2.83575
2.86111
2.89204
2.91977
2.95684
2.98782
3.03296
3.06674
3.12107
2.2783
2.33161
2.37482
2.41231
2.4441
2.47183
2.49675
2.51897
2.53929
2.55843
2.57677
2.59464
2.61243
2.63032
2.64854
2.66735
2.68678
2.70722
2.72843
2.75131
2.77474
2.80107
2.82691
2.8582
2.88692
2.92481
2.95801
3.00546
3.04612
3.10897
2.21413
2.26749
2.31018
2.34743
2.3791
2.40661
2.43111
2.45322
2.47361
2.49281
2.51117
2.52918
2.54705
2.5651
2.58357
2.6026
2.62235
2.64314
2.66483
2.68816
2.71219
2.73917
2.76583
2.79799
2.82791
2.86724
2.90267
2.95276
2.99792
3.06427
2.15194
2.20343
2.24494
2.28141
2.31239
2.33976
2.36413
2.38621
2.40668
2.42587
2.44434
2.46245
2.48047
2.49875
2.51748
2.5368
2.55696
2.57815
2.60033
2.62416
2.64882
2.67645
2.7039
2.73687
2.76783
2.80828
2.84512
2.89655
2.94319
3.01016
2.08951
2.13868
2.17874
2.21465
2.24579
2.27228
2.29623
2.31816
2.33849
2.35771
2.37625
2.39447
2.4127
2.43121
2.45018
2.46985
2.49037
2.51197
2.53462
2.55897
2.58422
2.61245
2.6406
2.67426
2.70605
2.7472
2.78486
2.83677
2.88372
2.95054
2.02638
2.07331
2.11193
2.14698
2.17742
2.20359
2.2272
2.2489
2.26912
2.28837
2.307
2.32539
2.34383
2.36259
2.38186
2.40188
2.42278
2.44481
2.46793
2.49278
2.51856
2.54732
2.57606
2.61024
2.6426
2.68412
2.72212
2.77403
2.82068
2.887
1.96206
2.00691
2.04395
2.07803
2.10791
2.13368
2.15694
2.1784
2.19853
2.21778
2.2365
2.25504
2.27369
2.2927
2.31229
2.33266
2.35395
2.3764
2.39997
2.42528
2.45155
2.48075
2.50997
2.54455
2.57725
2.61896
2.657
2.70865
2.75472
2.82042
1.89621
1.93916
1.9747
2.00785
2.03719
2.06253
2.08541
2.10664
2.12665
2.14587
2.16466
2.18334
2.2022
2.22147
2.24136
2.26207
2.28373
2.30658
2.33057
2.3563
2.383
2.41259
2.44218
2.47704
2.50997
2.55173
2.58963
2.64091
2.68625
2.75129
1.82872
1.86994
1.90405
1.93627
1.96508
1.98999
2.01252
2.0335
2.05337
2.07254
2.09139
2.1102
2.12925
2.14876
2.16894
2.18998
2.21199
2.23521
2.25958
2.28569
2.31276
2.34269
2.37258
2.40766
2.4407
2.48246
2.52012
2.57101
2.61554
2.67994
1.75944
1.79908
1.83187
1.86319
1.8915
1.916
1.93817
1.95891
1.97862
1.99773
2.0166
2.03551
2.05473
2.07447
2.09491
2.11625
2.13859
2.16215
2.18687
2.21332
2.24072
2.27093
2.30108
2.33632
2.36943
2.41116
2.44854
2.49905
2.54276
2.60654
1.68835
1.72653
1.75806
1.7885
1.81634
1.84047
1.86229
1.88277
1.90232
1.92134
1.94021
1.95919
1.97854
1.99848
2.01916
2.04077
2.0634
2.08727
2.11231
2.13906
2.16676
2.19722
2.22759
2.26298
2.29613
2.33783
2.37493
2.42509
2.46798
2.53121
1.61539
1.65221
1.68256
1.71215
1.73953
1.7633
1.7848
1.80502
1.82438
1.8433
1.86212
1.88114
1.9006
1.92069
1.94157
1.96342
1.98631
2.01046
2.03578
2.06281
2.09077
2.12147
2.15203
2.18756
2.22074
2.26243
2.29927
2.34913
2.39125
2.45396
1.54058
1.5761
1.60532
1.63406
1.66099
1.68444
1.70562
1.72557
1.74474
1.76351
1.78226
1.80128
1.8208
1.841
1.86205
1.88409
1.90721
1.9316
1.95718
1.98445
2.01265
2.04356
2.07431
2.10997
2.14321
2.1849
2.22152
2.27113
2.31255
2.3748
1.46393
1.49817
1.5263
1.5542
1.58068
1.60381
1.62468
1.64437
1.66332
1.68192
1.70056
1.71953
1.73904
1.75931
1.78048
1.80267
1.82598
1.85058
1.87637
1.90386
1.93229
1.96338
1.99432
2.03011
2.06342
2.10514
2.1416
2.19101
2.23181
2.29366
1.38546
1.41844
1.44549
1.47254
1.49854
1.52136
1.54193
1.56134
1.58005
1.59846
1.61694
1.63579
1.65526
1.67553
1.69676
1.71907
1.74252
1.76728
1.79326
1.82093
1.84955
1.88083
1.91194
1.94787
1.98127
2.02305
2.05939
2.10865
2.14893
2.21041
1.3052
1.33691
1.36289
1.38905
1.41455
1.43705
1.4573
1.47643
1.49489
1.51305
1.53132
1.55001
1.56936
1.58958
1.6108
1.63315
1.65669
1.68158
1.7077
1.73553
1.76432
1.79575
1.82703
1.86309
1.89661
1.93845
1.97476
2.02389
2.06375
2.12491
1.2232
1.25361
1.27851
1.30374
1.32869
1.35084
1.37077
1.38959
1.40775
1.42564
1.44365
1.4621
1.48127
1.50136
1.5225
1.54483
1.5684
1.59335
1.61956
1.64751
1.67643
1.70799
1.73942
1.7756
1.80926
1.85117
1.8875
1.93653
1.97611
2.03694
1.13952
1.16859
1.19238
1.21662
1.24093
1.2627
1.28228
1.30076
1.31861
1.33617
1.35386
1.37202
1.39092
1.41078
1.43176
1.45399
1.47751
1.50247
1.52871
1.55672
1.58572
1.61737
1.64893
1.6852
1.71901
1.76097
1.79739
1.84634
1.88574
1.94625
1.05421
1.08189
1.10453
1.12771
1.1513
1.17261
1.1918
1.20992
1.2274
1.24459
1.2619
1.27968
1.29822
1.31777
1.3385
1.36053
1.38391
1.40878
1.43498
1.46298
1.49201
1.52369
1.55533
1.59165
1.62559
1.66759
1.70414
1.753
1.79236
1.85252
0.967333
0.993561
1.015
1.03704
1.05981
1.08059
1.09932
1.11701
1.13409
1.15085
1.16771
1.18503
1.20313
1.22226
1.24261
1.26433
1.28746
1.31214
1.33821
1.36611
1.39508
1.42671
1.45836
1.49467
1.52871
1.5707
1.60741
1.65616
1.69558
1.75537
0.878996
0.903684
0.923864
0.944682
0.966496
0.986633
1.00482
1.02201
1.03862
1.0549
1.07124
1.08803
1.10558
1.12417
1.14402
1.16529
1.18804
1.2124
1.23821
1.2659
1.2947
1.32618
1.35775
1.39395
1.42803
1.46992
1.50678
1.55539
1.59498
1.65435
0.789256
0.81232
0.831192
0.850696
0.871424
0.890781
0.908319
0.924919
0.940973
0.956695
0.972447
0.988607
1.00551
1.02345
1.04265
1.06332
1.08553
1.10941
1.13481
1.16213
1.19063
1.22182
1.25317
1.28911
1.32311
1.36478
1.40175
1.4501
1.48992
1.54875
0.6982
0.719567
0.737074
0.755181
0.774672
0.79309
0.809844
0.825738
0.841138
0.856212
0.871286
0.886731
0.902878
0.920031
0.938442
0.958334
0.979803
1.00302
1.02782
1.05459
1.08259
1.1133
1.14426
1.17976
1.21352
1.25477
1.29175
1.33973
1.37986
1.43804
0.60592
0.625521
0.641619
0.65826
0.676361
0.693655
0.709461
0.7245
0.739114
0.753429
0.767727
0.782358
0.797638
0.813871
0.831327
0.850257
0.870786
0.893105
0.91706
0.943049
0.970313
1.0003
1.03061
1.06539
1.09864
1.13916
1.17585
1.22306
1.26332
1.32056
0.512568
0.530406
0.545014
0.560128
0.576678
0.592639
0.607295
0.621285
0.634943
0.64836
0.661764
0.675467
0.689759
0.704939
0.721282
0.739058
0.75841
0.779559
0.802383
0.827284
0.853512
0.882466
0.911827
0.945575
0.978049
1.01753
1.0538
1.10009
1.14044
1.19625
0.418458
0.434754
0.447685
0.461218
0.475992
0.490345
0.503616
0.51631
0.528776
0.541093
0.553446
0.566086
0.579266
0.593254
0.608317
0.624734
0.642654
0.662335
0.683687
0.707126
0.731917
0.759418
0.787353
0.819531
0.850556
0.888171
0.922931
0.967014
1.00682
1.06101
0.324574
0.337799
0.350458
0.36243
0.37513
0.387522
0.399068
0.410139
0.421076
0.431991
0.44306
0.454444
0.466333
0.478954
0.492553
0.507392
0.5236
0.541479
0.560975
0.582523
0.605445
0.631044
0.65721
0.687466
0.716947
0.752551
0.785974
0.827597
0.865176
0.915048
0.234614
0.244858
0.255813
0.265742
0.276061
0.285982
0.29528
0.304272
0.313176
0.322221
0.331598
0.34136
0.351626
0.362582
0.374466
0.387443
0.401598
0.417289
0.434418
0.45346
0.473732
0.496547
0.519772
0.546816
0.573055
0.604788
0.63474
0.671767
0.707926
0.753802
0.153587
0.159201
0.166037
0.174647
0.182275
0.189181
0.195689
0.202038
0.208303
0.214821
0.221797
0.229243
0.237215
0.245868
0.255439
0.265971
0.277565
0.290571
0.304911
0.321026
0.338368
0.358028
0.378195
0.401617
0.424262
0.451252
0.475999
0.505725
0.532418
0.568987
0.0851091
0.0869873
0.0901313
0.0944034
0.098721
0.102243
0.10566
0.109116
0.112441
0.115952
0.119798
0.12406
0.128804
0.134144
0.140145
0.146884
0.154525
0.163255
0.173025
0.184374
0.196782
0.211476
0.226807
0.245306
0.26391
0.286085
0.307459
0.330559
0.348097
0.364757
0.0272158
0.026744
0.027035
0.0277516
0.0282812
0.0280097
0.0285761
0.029753
0.0304816
0.0312149
0.0320664
0.0331
0.0343514
0.0358607
0.0376335
0.0397216
0.0422148
0.0451741
0.0485484
0.0527166
0.0573295
0.0633417
0.0694621
0.0779201
0.0861476
0.0972669
0.108363
0.120866
0.132204
0.137449
2.23189
2.16763
2.1076
2.0462
1.98446
1.92119
1.85628
1.78969
1.72127
1.65108
1.57901
1.50518
1.42956
1.35218
1.27309
1.19235
1.10997
1.02608
0.940702
0.853955
0.765943
0.676778
0.586646
0.495835
0.404894
0.315033
0.229112
0.151505
0.0844181
0.028469
2.21546
2.15162
2.09242
2.03148
1.97027
1.90746
1.84295
1.77676
1.70872
1.63892
1.56723
1.4938
1.4186
1.34165
1.26301
1.18272
1.10082
1.01741
0.932546
0.846323
0.758866
0.670286
0.58078
0.490641
0.400468
0.311536
0.226607
0.150056
0.0837328
0.0286532
2.19914
2.1362
2.07781
2.01735
1.95667
1.89432
1.83025
1.76447
1.69682
1.62742
1.55614
1.48312
1.40833
1.33181
1.25362
1.17379
1.09235
1.00943
0.925057
0.839338
0.752409
0.66438
0.575456
0.48594
0.396468
0.308351
0.224237
0.148521
0.0828898
0.0286651
2.18286
2.12105
2.06345
2.00349
1.94331
1.88142
1.81776
1.75239
1.68513
1.61612
1.54524
1.47263
1.39826
1.32216
1.24441
1.16503
1.08405
1.0016
0.917722
0.832503
0.746091
0.658602
0.570247
0.481333
0.392526
0.305174
0.221874
0.147019
0.0821042
0.0286404
2.16681
2.10628
2.04946
1.98999
1.93029
1.86884
1.80559
1.74061
1.67372
1.60511
1.53461
1.46239
1.38842
1.31274
1.23541
1.15647
1.07595
0.993957
0.910561
0.825832
0.739923
0.652959
0.565158
0.476829
0.388667
0.302045
0.219554
0.145541
0.0813662
0.0286007
2.15102
2.09185
2.03582
1.97686
1.9176
1.85658
1.79371
1.72911
1.66259
1.59435
1.52423
1.45239
1.37882
1.30354
1.22662
1.14811
1.06803
0.986486
0.903554
0.819303
0.733883
0.647428
0.560161
0.472396
0.38486
0.298941
0.217252
0.14408
0.0806527
0.0285381
2.13554
2.07775
2.02252
1.96409
1.90525
1.84463
1.78215
1.71792
1.65174
1.58386
1.5141
1.44263
1.36944
1.29457
1.21805
1.13996
1.0603
0.979192
0.896709
0.812924
0.727979
0.642013
0.555256
0.468029
0.381099
0.29586
0.214967
0.142636
0.0799584
0.0284515
2.1204
2.064
2.00954
1.95167
1.89324
1.83301
1.77089
1.70702
1.64118
1.57364
1.50423
1.43313
1.36031
1.28582
1.20969
1.132
1.05277
0.972079
0.890031
0.806698
0.722214
0.636719
0.550448
0.463732
0.377391
0.292807
0.212703
0.14121
0.0792831
0.0283439
2.10561
2.05059
1.99689
1.9396
1.88156
1.82172
1.75994
1.69641
1.6309
1.5637
1.49463
1.42388
1.35141
1.2773
1.20155
1.12426
1.04542
0.965148
0.883525
0.800633
0.716596
0.631555
0.545748
0.459524
0.373751
0.289796
0.210471
0.139804
0.0786266
0.0282183
2.09121
2.03752
1.98456
1.92786
1.87023
1.81076
1.74931
1.68612
1.62092
1.55404
1.4853
1.41489
1.34276
1.26901
1.19363
1.11672
1.03828
0.958403
0.877195
0.794731
0.711129
0.626528
0.541169
0.455418
0.370185
0.286842
0.208275
0.138421
0.0779881
0.0280767
2.0772
2.02481
1.97257
1.91647
1.85924
1.80013
1.73899
1.67613
1.61123
1.54468
1.47624
1.40616
1.33435
1.26096
1.18593
1.10939
1.03133
0.951846
0.871044
0.788992
0.705813
0.621639
0.536713
0.451417
0.366684
0.28395
0.206118
0.13706
0.0773668
0.0279212
2.06362
2.01246
1.96092
1.90542
1.84858
1.78983
1.729
1.66646
1.60186
1.5356
1.46747
1.39769
1.32621
1.25315
1.17846
1.10228
1.02459
0.945478
0.865068
0.783411
0.700645
0.616882
0.53237
0.447519
0.363241
0.28111
0.203996
0.135721
0.0767614
0.0277537
2.05048
2.00049
1.94961
1.8947
1.83826
1.77987
1.71934
1.6571
1.59279
1.52682
1.45898
1.38951
1.31833
1.24558
1.17122
1.09538
1.01804
0.939299
0.859267
0.777986
0.695619
0.612248
0.528129
0.443708
0.359859
0.278315
0.201909
0.134405
0.0761719
0.0275765
2.03779
1.98891
1.93865
1.88433
1.82828
1.77024
1.71
1.64806
1.58403
1.51834
1.45079
1.38159
1.31071
1.23827
1.16422
1.0887
1.01171
0.933314
0.853638
0.772718
0.690733
0.607735
0.523992
0.439969
0.356547
0.27557
0.199861
0.133116
0.075599
0.0273921
2.02557
1.97772
1.92805
1.8743
1.81864
1.76094
1.70099
1.63934
1.57558
1.51016
1.44289
1.37396
1.30336
1.2312
1.15746
1.08225
1.00559
0.927526
0.84819
0.767612
0.685994
0.603349
0.519964
0.43631
0.353318
0.272884
0.197856
0.131858
0.0750442
0.0272029
2.01382
1.96693
1.91783
1.86462
1.80935
1.75198
1.69231
1.63094
1.56744
1.50228
1.43528
1.36662
1.29628
1.22439
1.15095
1.07603
0.999682
0.921938
0.842932
0.762679
0.681407
0.599099
0.516052
0.432755
0.350178
0.270264
0.195902
0.130632
0.0745092
0.027011
2.00256
1.95655
1.90798
1.8553
1.8004
1.74335
1.68395
1.62285
1.55962
1.49472
1.42795
1.35955
1.28948
1.21784
1.14468
1.07004
0.993997
0.916555
0.837868
0.757934
0.676973
0.594994
0.512266
0.429319
0.347134
0.267718
0.194
0.129444
0.0739953
0.0268184
1.9918
1.9466
1.89852
1.84633
1.79181
1.73507
1.67593
1.61508
1.55211
1.48746
1.42092
1.35277
1.28295
1.21156
1.13866
1.06429
0.988534
0.911385
0.832994
0.753371
0.672698
0.591033
0.508623
0.426004
0.34419
0.265248
0.192154
0.128294
0.0735036
0.0266267
1.98155
1.93709
1.88945
1.83773
1.78357
1.72714
1.66824
1.60764
1.54492
1.48051
1.41419
1.34627
1.27669
1.20555
1.13289
1.05878
0.983282
0.90642
0.828308
0.748976
0.668586
0.587223
0.505116
0.422809
0.341346
0.262856
0.190365
0.127186
0.0730356
0.0264375
1.9718
1.92801
1.8808
1.82949
1.7757
1.71955
1.66089
1.60053
1.53804
1.47386
1.40775
1.34005
1.27071
1.19978
1.12737
1.0535
0.978239
0.901649
0.8238
0.744753
0.664635
0.583556
0.501739
0.41973
0.338601
0.260542
0.188637
0.126121
0.0725926
0.0262521
1.96258
1.91937
1.87255
1.82164
1.76819
1.71231
1.65389
1.59376
1.53148
1.46751
1.40161
1.33413
1.26502
1.19425
1.12208
1.04845
0.973416
0.897076
0.819476
0.740693
0.660836
0.580027
0.498488
0.416766
0.335957
0.258313
0.186974
0.125103
0.0721766
0.0260719
1.9539
1.91117
1.86473
1.81418
1.76103
1.70541
1.64722
1.58733
1.52524
1.46145
1.39576
1.32849
1.25957
1.18902
1.11705
1.04362
0.968811
0.892698
0.815332
0.736795
0.657187
0.576635
0.495362
0.413919
0.33342
0.256175
0.185384
0.124135
0.0717892
0.0258981
1.94577
1.90341
1.85734
1.80712
1.75423
1.69886
1.6409
1.58123
1.51931
1.45572
1.39022
1.32315
1.25439
1.18405
1.11226
1.03904
0.964425
0.888521
0.811373
0.733063
0.653693
0.573386
0.492368
0.411198
0.331002
0.25414
0.183872
0.123222
0.0714321
0.0257316
1.9382
1.89607
1.85036
1.80045
1.7478
1.69267
1.63493
1.57545
1.51372
1.45032
1.385
1.31809
1.24951
1.17935
1.10773
1.03469
0.960264
0.884552
0.807606
0.729509
0.650362
0.570288
0.489513
0.40861
0.328711
0.252214
0.182446
0.122367
0.071106
0.025573
1.93107
1.88931
1.84381
1.79418
1.74175
1.68684
1.62931
1.57002
1.50845
1.44524
1.38008
1.31334
1.2449
1.17492
1.10346
1.03059
0.956333
0.880798
0.804041
0.726141
0.647201
0.567345
0.486804
0.406162
0.326555
0.250406
0.181111
0.121571
0.0708099
0.025423
1.92448
1.88302
1.83769
1.7883
1.73608
1.68137
1.62404
1.56492
1.50352
1.44047
1.37547
1.30887
1.24059
1.17076
1.09945
1.02673
0.952637
0.877266
0.800683
0.722966
0.644215
0.564563
0.484243
0.403855
0.324538
0.24872
0.179869
0.120836
0.0705459
0.0252823
1.91843
1.8772
1.83201
1.78282
1.7308
1.67627
1.61912
1.56016
1.49892
1.43602
1.37117
1.30471
1.23657
1.16688
1.09571
1.02312
0.949176
0.873956
0.797534
0.719982
0.641402
0.561938
0.481828
0.401687
0.322658
0.247157
0.178724
0.120163
0.0703147
0.0251515
1.91292
1.87184
1.82678
1.77774
1.72591
1.67153
1.61455
1.55573
1.49465
1.43188
1.36717
1.30084
1.23283
1.16327
1.09222
1.01976
0.94595
0.870868
0.794589
0.717187
0.638757
0.559465
0.479553
0.399654
0.320912
0.245718
0.177677
0.119554
0.0701139
0.0250315
1.90794
1.86696
1.82199
1.77307
1.7214
1.66715
1.61033
1.55164
1.4907
1.42806
1.36348
1.29727
1.22937
1.15993
1.08899
1.01665
0.942955
0.867996
0.791843
0.714571
0.636273
0.557135
0.477411
0.397746
0.319294
0.244403
0.17673
0.11901
0.0699432
0.0249229
1.9035
1.86254
1.81763
1.76881
1.71728
1.66314
1.60647
1.54789
1.48708
1.42456
1.3601
1.294
1.22621
1.15686
1.08602
1.01378
0.940189
0.865336
0.789291
0.712128
0.633943
0.554943
0.475395
0.395958
0.317799
0.24321
0.175884
0.118532
0.0698025
0.0248265
1.89959
1.8586
1.81372
1.76496
1.71355
1.6595
1.60296
1.54448
1.4838
1.42138
1.35703
1.29102
1.22333
1.15407
1.08331
1.01115
0.937652
0.862887
0.786928
0.709855
0.631766