/*--------------------------------*- C++ -*----------------------------------*\
  =========                 |
  \\      /  F ield         | OpenFOAM: The Open Source CFD Toolbox
   \\    /   O peration     | Website:  https://openfoam.org
    \\  /    A nd           | Version:  7
     \\/     M anipulation  |
\*---------------------------------------------------------------------------*/
FoamFile
{
    version     2.0;
    format      ascii;
    class       surfaceScalarField;
    location    "1.4";
    object      phi;
}
// * * * * * * * * * * * * * * * * * * * * * * * * * * * * * * * * * * * * * //

dimensions      [0 3 -1 0 0 0 0];

internalField   nonuniform List<scalar> 
35640
(
-2.49077e-05
0.00300003
-0.00297512
-7.47765e-05
0.00647489
-0.00642503
-0.000124965
0.00815014
-0.00809995
-0.000147007
0.00846147
-0.00843943
-0.000114939
0.0078339
-0.00786597
-9.10505e-06
0.0066125
-0.00671833
0.000182248
0.0050585
-0.00524986
0.000462984
0.00336482
-0.00364556
0.000829925
0.00167257
-0.00203951
0.00127424
8.22012e-05
-0.00052652
0.00178329
-0.0013392
0.000830155
0.00234251
-0.00255265
0.00199343
0.00293709
-0.00354239
0.00294781
0.00355327
-0.0043108
0.00369462
0.00417922
-0.00487327
0.00424733
0.00480546
-0.00525326
0.00462702
0.00542494
-0.00547819
0.00485871
0.00603277
-0.00557616
0.00496833
0.00662597
-0.00557385
0.00498064
0.00720304
-0.00549506
0.00491799
0.00776356
-0.0053602
0.00479968
0.00830787
-0.00518603
0.00464172
0.00883679
-0.00498595
0.00445703
0.00935142
-0.00477035
0.00425573
0.00985295
-0.00454703
0.00404549
0.0103426
-0.00432169
0.00383204
0.0108215
-0.00409834
0.00361947
0.0112906
-0.00387962
0.0034105
0.0117507
-0.00366566
0.00320552
-0.00344889
0.0122021
0.00299755
-1.18107e-05
0.00301184
-3.562e-05
0.0064987
-5.2626e-05
0.00816714
-3.83969e-05
0.00844724
3.05417e-05
0.00776496
0.000172253
0.00647079
0.000397413
0.00483335
0.000709011
0.00305323
0.00110314
0.00127845
0.00157039
-0.000385043
0.00209765
-0.00186646
0.00267007
-0.00312507
0.00327281
-0.00414513
0.00389238
-0.00493037
0.00451746
-0.00549836
0.00513927
-0.00587507
0.00575147
-0.00609039
0.00634993
-0.00617462
0.00693236
-0.00615628
0.00749787
-0.00606058
0.00804658
-0.00590891
0.00857924
-0.0057187
0.00909699
-0.00550371
0.00960114
-0.00527451
0.0100931
-0.00503894
0.010574
-0.00480263
0.0110452
-0.00456952
0.0115076
-0.00434205
0.0119621
-0.00412015
-0.00389573
0.0124089
5.46291e-07
0.00301129
2.5577e-06
0.00649669
1.88872e-05
0.00815081
7.00796e-05
0.00839605
0.00017692
0.00765812
0.000355677
0.00629204
0.000615855
0.00457317
0.00095946
0.00270962
0.00138169
0.000856221
0.00187231
-0.000875665
0.00241763
-0.00241178
0.00300254
-0.00370998
0.0036123
-0.00475488
0.00423382
-0.00555189
0.00485643
-0.00612097
0.00547211
-0.00649076
0.00607537
-0.00669365
0.00666293
-0.00676218
0.00723325
-0.0067266
0.0077861
-0.00661343
0.00832209
-0.0064449
0.00884239
-0.00623899
0.00934842
-0.00600974
0.00984169
-0.00576778
0.0103237
-0.00552091
0.0107957
-0.00527469
0.0112591
-0.00503285
0.0117147
-0.00479768
0.0121634
-0.00456889
-0.00433794
0.0126056
1.20972e-05
0.00299919
3.9122e-05
0.00646967
8.87186e-05
0.00810122
0.000177308
0.00830746
0.000322925
0.00751251
0.000539929
0.00607503
0.000836351
0.00427675
0.00121298
0.002333
0.00166389
0.000405309
0.00217795
-0.00138972
0.00274086
-0.00297469
0.0033373
-0.00430642
0.00395272
-0.0053703
0.00457458
-0.00617375
0.00519299
-0.00673938
0.00580085
-0.00709862
0.00639362
-0.00728642
0.00696891
-0.00733747
0.00752598
-0.00728367
0.00806523
-0.00715268
0.0085878
-0.00696747
0.00909521
-0.0067464
0.00958915
-0.00650368
0.0100713
-0.00624992
0.0105432
-0.00599283
0.0110063
-0.00573777
0.0114617
-0.0054883
0.0119106
-0.00524651
0.0123536
-0.0050119
-0.00477556
0.0127912
2.26477e-05
0.00297655
7.38553e-05
0.00641846
0.00015624
0.00801883
0.00028235
0.00818135
0.000467336
0.00732752
0.000723459
0.00581891
0.00105706
0.00394315
0.00146746
0.0019226
0.0019474
-7.46332e-05
0.00248473
-0.00192705
0.00306453
-0.00355449
0.00367134
-0.00491324
0.00429094
-0.0059899
0.0049115
-0.0067943
0.00552405
-0.00735193
0.00612251
-0.00769708
0.00670339
-0.00786729
0.00726523
-0.00789932
0.0078081
-0.00782654
0.00833303
-0.00767762
0.00884165
-0.00747609
0.00933584
-0.00724059
0.0098175
-0.00698534
0.0102884
-0.00672085
0.0107503
-0.00645466
0.0112044
-0.0061919
0.011652
-0.00593593
0.0120941
-0.0056886
0.0125314
-0.00544924
-0.00520866
0.0129645
3.22947e-05
0.00294425
0.000106496
0.00634426
0.000220919
0.00790441
0.000384382
0.00801789
0.000609115
0.00710279
0.000905056
0.00552297
0.00127654
0.00357166
0.00172114
0.001478
0.00223013
-0.000583616
0.00279023
-0.00248715
0.00338594
-0.00415021
0.00400179
-0.00552909
0.00462402
-0.00661213
0.00524162
-0.00741191
0.0058467
-0.00795701
0.00643432
-0.0082847
0.00700208
-0.00843505
0.0075495
-0.00844674
0.00807743
-0.00835447
0.00858754
-0.00818773
0.00908192
-0.00797046
0.00956272
-0.0077214
0.0100321
-0.00745468
0.0104918
-0.00718061
0.0109436
-0.00690649
0.0113889
-0.00663719
0.0118288
-0.00637582
0.0122643
-0.00612403
0.012696
-0.00588096
-0.00563725
0.0131246
4.09675e-05
0.00290328
0.000136889
0.00624834
0.000282412
0.00775889
0.000482857
0.00781744
0.000747433
0.00683821
0.00108352
0.00518688
0.00149324
0.00316195
0.00197214
0.0009991
0.00250985
-0.00112133
0.00309196
-0.00306926
0.00370243
-0.00476069
0.00432587
-0.00615252
0.00494912
-0.00723539
0.00556217
-0.00802496
0.0061583
-0.00855313
0.0067338
-0.0088602
0.0072874
-0.00898865
0.00781962
-0.00897896
0.00833211
-0.00886696
0.00882711
-0.00868274
0.00930712
-0.00845047
0.00977457
-0.00818885
0.0102317
-0.0079118
0.0106804
-0.00762936
0.0111224
-0.00734849
0.0115591
-0.00707381
0.0119914
-0.00680814
0.0124203
-0.00655292
0.0128464
-0.00630711
-0.00606131
0.0132705
4.86443e-05
0.00285464
0.000164945
0.00613204
0.000340484
0.00758335
0.000577285
0.00758064
0.00088151
0.00653399
0.0012578
0.00481059
0.00170575
0.002714
0.00221872
0.000486133
0.00278456
-0.00168716
0.00338768
-0.00367238
0.00401158
-0.00538458
0.00464105
-0.006782
0.00526371
-0.00785805
0.00587066
-0.0086319
0.00645646
-0.00913894
0.00701872
-0.00942246
0.00755735
-0.00952728
0.00807383
-0.00949544
0.00857056
-0.0093637
0.00905037
-0.00916255
0.00951608
-0.00891619
0.00997035
-0.00864312
0.0104155
-0.00835696
0.0108535
-0.00806736
0.011286
-0.00778093
0.0117141
-0.00750198
0.012139
-0.00723305
0.0125615
-0.00697536
0.0129821
-0.00672774
-0.00648085
0.0134016
5.53632e-05
0.00279928
0.000190648
0.00599676
0.000394976
0.00737902
0.000667318
0.0073083
0.00101075
0.00619056
0.00142697
0.00439437
0.00191286
0.00222811
0.00245936
-6.03674e-05
0.00305245
-0.00228025
0.00367535
-0.00429528
0.00431117
-0.0060204
0.00494504
-0.00741587
0.00556547
-0.00847849
0.00616483
-0.00923126
0.00673909
-0.00971319
0.00728718
-0.00997054
0.00781019
-0.0100503
0.00831059
-0.00999584
0.00879148
-0.0098446
0.00925619
-0.00962725
0.00970785
-0.00936785
0.0101493
-0.00908454
0.0105828
-0.0087905
0.0110104
-0.00849497
0.0114336
-0.00820414
0.0118536
-0.00792199
0.0122713
-0.00765076
0.0126875
-0.00739149
0.0131026
-0.00714289
-0.00689583
0.0135176
6.11726e-05
0.00273811
0.000214043
0.00584389
0.000445853
0.00714722
0.000752755
0.0070014
0.00113472
0.00580859
0.00159036
0.00393873
0.00211359
0.00170488
0.0026928
-0.000639572
0.00331198
-0.00289942
0.00395319
-0.00493649
0.00459925
-0.00666646
0.00523578
-0.0080524
0.00585236
-0.00909507
0.00644272
-0.00982163
0.00700432
-0.0102748
0.00753748
-0.0105037
0.00804447
-0.0105573
0.00852865
-0.01048
0.00899381
-0.0103098
0.00944369
-0.0100771
0.00988168
-0.00980584
0.0103107
-0.00951354
0.0107331
-0.00921289
0.0111507
-0.00891262
0.0115651
-0.00861851
0.0119772
-0.00833413
0.012388
-0.00806151
0.0127979
-0.00780145
0.0132077
-0.00755262
-0.00730622
0.0136181
6.61442e-05
0.00267196
0.000235245
0.00567479
0.000493192
0.00688927
0.000833557
0.00666103
0.0012532
0.00538895
0.00174749
0.00344445
0.0023072
0.00114517
0.00291798
-0.00125035
0.0035618
-0.00354324
0.00421962
-0.00559431
0.00487408
-0.00732092
0.00551145
-0.00868977
0.00612254
-0.00970616
0.0067026
-0.0104017
0.00725059
-0.0108228
0.00776825
-0.0110214
0.00825897
-0.011048
0.008727
-0.0109481
0.00917672
-0.0107595
0.00961221
-0.0105126
0.0100371
-0.0102307
0.0104542
-0.00993069
0.010866
-0.00962468
0.0112742
-0.00932082
0.0116801
-0.00902445
0.0120848
-0.00873877
0.0124888
-0.00846554
0.0128927
-0.0082054
0.0132971
-0.007957
-0.00771203
0.0137029
7.03719e-05
0.00260159
0.000254428
0.00549073
0.000537178
0.00660652
0.000909836
0.00628838
0.00136616
0.00493263
0.00189809
0.00291251
0.00249314
0.00055012
0.00313408
-0.00189129
0.00380081
-0.00420998
0.00447328
-0.00626677
0.00513412
-0.00798176
0.00577046
-0.00932611
0.00637446
-0.0103102
0.00694297
-0.0109702
0.00747656
-0.0113564
0.00797832
-0.0115231
0.00845275
-0.0115224
0.00890488
-0.0114002
0.0093396
-0.0111942
0.00976128
-0.0109343
0.0101736
-0.010643
0.0105795
-0.0103366
0.0109813
-0.0100265
0.0113806
-0.00972011
0.0117786
-0.00942243
0.0121761
-0.00913628
0.0125737
-0.00886314
0.0129718
-0.0086035
0.0133709
-0.0083561
-0.00811325
0.0137721
7.39653e-05
0.00252763
0.000271816
0.00529288
0.000578094
0.00630024
0.000981844
0.00588463
0.00147371
0.00444077
0.00204211
0.00234411
0.00267108
-7.88471e-05
0.00334043
-0.00256064
0.00402806
-0.0048976
0.00471299
-0.0069517
0.00537806
-0.00864683
0.00601142
-0.00995947
0.00660677
-0.0109055
0.00716264
-0.0115261
0.00768118
-0.0118749
0.00816682
-0.0120088
0.0086251
-0.0119807
0.00906174
-0.0118368
0.00948205
-0.0116145
0.00989061
-0.0113429
0.0102912
-0.0110436
0.0106866
-0.010732
0.011079
-0.0104189
0.01147
-0.0101111
0.0118605
-0.00981297
0.0122513
-0.00952706
0.0126428
-0.0092546
0.0130352
-0.00899599
0.0134292
-0.00875006
-0.00850997
0.0138259
7.70451e-05
0.00245058
0.00028768
0.00508225
0.000616303
0.00597162
0.00104995
0.00545098
0.00157612
0.00391459
0.0021796
0.00174064
0.00284081
-0.000740052
0.00353655
-0.00325639
0.00424276
-0.00560381
0.00493774
-0.00764669
0.00560476
-0.00931385
0.00623318
-0.0105879
0.00681837
-0.0114907
0.00736061
-0.0120683
0.00786362
-0.0123779
0.00833311
-0.0124783
0.00877555
-0.0124232
0.00919725
-0.0122585
0.00960386
-0.0120211
0.0100001
-0.0117391
0.0103896
-0.0114331
0.0107753
-0.0111177
0.0111591
-0.0108027
0.0115424
-0.0104943
0.011926
-0.0101966
0.0123105
-0.00991154
0.0126961
-0.00964027
0.0130833
-0.00938311
0.0134723
-0.00913906
-0.00890233
0.0138646
7.97381e-05
0.00237084
0.000302315
0.00485967
0.000652226
0.00562171
0.0011146
0.00498861
0.00167377
0.00335542
0.00231075
0.00110366
0.00300223
-0.00143154
0.00372202
-0.00397618
0.00444423
-0.00632602
0.00514667
-0.00834913
0.00581325
-0.00998043
0.00643478
-0.0112094
0.0070084
-0.0120643
0.00753615
-0.012596
0.00802331
-0.0128651
0.00847677
-0.0129317
0.00890383
-0.0128502
0.00931127
-0.012666
0.00970499
-0.0124148
0.0100897
-0.0121239
0.0104692
-0.0118126
0.0108459
-0.0114944
0.0112217
-0.0111785
0.0115979
-0.0108705
0.0119751
-0.0105738
0.0123538
-0.0102902
0.012734
-0.0100205
0.0131161
-0.00976517
0.0135004
-0.00952337
-0.00929057
0.0138886
8.21727e-05
0.00228867
0.000316033
0.00462581
0.000686317
0.00525143
0.0011763
0.00449863
0.00176708
0.00276464
0.00243579
0.000434957
0.00315532
-0.00215107
0.00389654
-0.00471739
0.00463191
-0.00706139
0.00533904
-0.00905626
0.00600275
-0.0106441
0.00661546
-0.0118221
0.00717619
-0.012625
0.00768876
-0.0131086
0.00815991
-0.0133362
0.00859762
-0.0133694
0.00900987
-0.0132625
0.00940384
-0.0130599
0.00978555
-0.0127965
0.0101597
-0.012498
0.0105298
-0.0121827
0.0108984
-0.011863
0.0112671
-0.0115472
0.0116368
-0.0112403
0.0120082
-0.0109452
0.0123815
-0.0106634
0.0127567
-0.0103958
0.0131341
-0.0101425
0.013514
-0.0099033
-0.00967499
0.0138984
8.44748e-05
0.0022042
0.000329146
0.00438114
0.000719036
0.00486154
0.00123556
0.00398211
0.00185649
0.0021437
0.00255496
-0.000263507
0.00330004
-0.00289615
0.00405978
-0.00547713
0.00480528
-0.00780689
0.00551421
-0.00976519
0.0061726
-0.0113025
0.00677465
-0.0124242
0.0073213
-0.0131717
0.00781814
-0.0136055
0.00827327
-0.0137914
0.00869564
-0.0137918
0.00909378
-0.0136606
0.00947513
-0.0134413
0.00984574
-0.0131672
0.0102103
-0.0128625
0.010572
-0.0125444
0.0109332
-0.0122243
0.0112954
-0.0119094
0.0116593
-0.0116042
0.0120254
-0.0113113
0.0123938
-0.0110318
0.0127645
-0.0107664
0.0131375
-0.0105155
0.0135134
-0.0102792
-0.010056
0.0138943
8.67633e-05
0.00211743
0.000341951
0.00412595
0.000750823
0.00445267
0.00129286
0.00344008
0.0019424
0.00149416
0.00266846
-0.000989568
0.00343635
-0.00366404
0.00421147
-0.00625225
0.00496388
-0.00855929
0.00567166
-0.010473
0.00632229
-0.0119532
0.00691193
-0.0130138
0.00744348
-0.0137032
0.0079242
-0.0140862
0.00836346
-0.0142306
0.00877101
-0.0141993
0.0091558
-0.0140454
0.00952544
-0.0138109
0.00988591
-0.0135276
0.0102417
-0.0132183
0.0105959
-0.0128986
0.0109506
-0.0125789
0.011307
-0.0122658
0.0116657
-0.011963
0.012027
-0.0116726
0.012391
-0.0113958
0.0127575
-0.0111329
0.0131265
-0.0108846
0.0134988
-0.0106515
-0.0104338
0.0138767
8.91455e-05
0.00202829
0.000354722
0.00386038
0.000782078
0.00402531
0.00134863
0.00287353
0.00202514
0.000817652
0.00277644
-0.00174087
0.00356414
-0.00445174
0.00435129
-0.0070394
0.00510726
-0.00931526
0.00581092
-0.0111766
0.00645145
-0.0125937
0.00702708
-0.0135895
0.00754266
-0.0142188
0.00800704
-0.0145506
0.0084307
-0.0146543
0.00882404
-0.0145927
0.00919632
-0.0144177
0.00955517
-0.0141698
0.00990644
-0.0138789
0.0102544
-0.0135663
0.0106019
-0.0132461
0.0109508
-0.0129278
0.0113021
-0.0126171
0.0116562
-0.0123171
0.0120133
-0.0120297
0.0123733
-0.0117558
0.012736
-0.0114956
0.0131015
-0.0112501
0.0134704
-0.0110204
-0.0108089
0.0138455
9.17141e-05
0.00193657
0.000367694
0.00358439
0.000813141
0.00357986
0.00140322
0.00228345
0.00210493
0.000115937
0.00287891
-0.00251484
0.00368322
-0.00525604
0.00447889
-0.00783508
0.00523503
-0.0100714
0.00593164
-0.0118732
0.00655985
-0.0132219
0.00712002
-0.0141496
0.00761894
-0.0147177
0.0080669
-0.0149985
0.00847534
-0.0150627
0.00885517
-0.0149725
0.0092158
-0.0147783
0.00956478
-0.0145188
0.00990778
-0.0142219
0.0102488
-0.0139073
0.0105904
-0.0135878
0.0109342
-0.0132717
0.0112811
-0.0129639
0.0116312
-0.0126672
0.0119846
-0.0123831
0.012341
-0.0121122
0.0127002
-0.0118549
0.0130624
-0.0116122
0.0134281
-0.0113862
-0.0111814
0.0138006
9.45449e-05
0.00184203
0.000381057
0.00329788
0.000844276
0.00311664
0.00145686
0.00167087
0.0021819
-0.000609103
0.00297581
-0.00330875
0.00379334
-0.00607357
0.00459392
-0.00863566
0.00534682
-0.0108243
0.00603355
-0.01256
0.00664738
-0.0138357
0.00719085
-0.0146931
0.00767257
-0.0151995
0.00810418
-0.0154301
0.00849788
-0.0154564
0.00886492
-0.0153396
0.00921476
-0.0151282
0.00955478
-0.0148588
0.00989039
-0.0145575
0.0102253
-0.0142421
0.0105618
-0.0139243
0.0109012
-0.0136111
0.0112442
-0.0133069
0.0115909
-0.0130139
0.011941
-0.0127332
0.0122942
-0.0124654
0.0126503
-0.012211
0.0130092
-0.0119712
0.013372
-0.0117489
-0.0115511
0.0137417
9.76957e-05
0.00174433
0.000394953
0.00300063
0.000875663
0.00263593
0.00150969
0.00103685
0.00225603
-0.00135544
0.00306693
-0.00411965
0.00389416
-0.0069008
0.00469598
-0.00943748
0.0054423
-0.0115706
0.00611648
-0.0132342
0.00671405
-0.0144333
0.00723976
-0.0152188
0.00770394
-0.0156637
0.00811937
-0.0158456
0.00849888
-0.0158359
0.00885389
-0.0156946
0.00919379
-0.0154681
0.00952571
-0.0151907
0.00985474
-0.0148866
0.0101843
-0.0145717
0.0105164
-0.0142564
0.0108521
-0.0139468
0.0111919
-0.0136466
0.0115356
-0.0133575
0.0118828
-0.0130805
0.0122333
-0.0128158
0.0125864
-0.0125641
0.0129422
-0.012327
0.0133017
-0.0121083
-0.0119179
0.0136684
0.000101206
0.00164313
0.000409472
0.00269236
0.000907397
0.00213801
0.00156171
0.00038253
0.00232718
-0.00212091
0.00315199
-0.00494446
0.00398528
-0.00773408
0.00478468
-0.0102369
0.00552121
-0.0123071
0.00618032
-0.0138933
0.00676
-0.015013
0.0072671
-0.0157259
0.00771355
-0.0161101
0.0081131
-0.0162451
0.00847899
-0.0162018
0.00882272
-0.0160383
0.00915347
-0.0157988
0.00947806
-0.0155153
0.00980128
-0.0152098
0.0101262
-0.0148966
0.0104545
-0.0145847
0.0107872
-0.0142795
0.0111243
-0.0139837
0.0114656
-0.0136988
0.0118105
-0.0134254
0.0121585
-0.0131638
0.0125089
-0.0129145
0.0128615
-0.0126796
0.0132174
-0.0124642
-0.0122809
0.0135805
0.000105096
0.00153803
0.000424655
0.0023728
0.000939485
0.00162318
0.00161284
-0.000290823
0.00239511
-0.00290318
0.0032306
-0.00577995
0.00406627
-0.00856975
0.00485966
-0.0110303
0.00558333
-0.0130308
0.00622512
-0.0145351
0.00678547
-0.0155733
0.00727332
-0.0162138
0.007702
-0.0165388
0.00808602
-0.0166291
0.0084389
-0.0165547
0.00877205
-0.0163715
0.00909437
-0.0161211
0.00941235
-0.0158333
0.00973039
-0.0155278
0.0100513
-0.0152175
0.0103765
-0.0149099
0.0107066
-0.0146096
0.0110417
-0.0143188
0.0113812
-0.0140383
0.0117244
-0.0137686
0.0120704
-0.0135098
0.0124183
-0.0132625
0.0127677
-0.013029
0.0131194
-0.0128159
-0.0126394
0.0134779
0.000109371
0.00142866
0.000440492
0.00204168
0.000971852
0.00109182
0.00166286
-0.000981833
0.00245945
-0.00369976
0.00330229
-0.0066228
0.00413667
-0.00940414
0.00492058
-0.0118142
0.00562853
-0.0137388
0.00625097
-0.0151575
0.00679083
-0.0161132
0.00725897
-0.0166819
0.00766995
-0.0169498
0.00803886
-0.016998
0.00837932
-0.0168952
0.00870253
-0.0166947
0.00901706
-0.0164357
0.009329
-0.0161452
0.00964241
-0.0158412
0.00995976
-0.0155348
0.0102823
-0.0152325
0.0106105
-0.0149378
0.0109442
-0.0146524
0.0112826
-0.0143768
0.0116249
-0.0141109
0.0119697
-0.0138546
0.0123158
-0.0136085
0.012662
-0.0133752
0.0130089
-0.0131628
-0.0129919
0.0133614
0.000114019
0.00131464
0.000456932
0.00169877
0.00100435
0.000544402
0.00171149
-0.00168897
0.00251976
-0.00450804
0.00336656
-0.00746959
0.00419603
-0.0102336
0.00496716
-0.0125853
0.00565678
-0.0144284
0.00625811
-0.0157588
0.00677654
-0.0166316
0.00722469
-0.01713
0.00761814
-0.0173432
0.00797237
-0.0173523
0.00830096
-0.0172238
0.00861479
-0.0170085
0.00892203
-0.0167429
0.00922838
-0.0164516
0.00953757
-0.0161504
0.0098518
-0.015849
0.0101722
-0.0155529
0.010499
-0.0152646
0.0108319
-0.0149853
0.0111701
-0.014715
0.0115124
-0.0144532
0.0118572
-0.0141994
0.0122025
-0.0139538
0.0125463
-0.013719
0.0128882
-0.0135047
-0.0133365
0.0132328
0.000119016
0.00119562
0.000473883
0.0013439
0.00103677
-1.84865e-05
0.00175835
-0.00241055
0.00257556
-0.00532524
0.00342288
-0.00831691
0.00424392
-0.0110546
0.00499916
-0.0133406
0.00566812
-0.0150973
0.00624687
-0.0163376
0.00674315
-0.0171279
0.00717118
-0.0175581
0.00754735
-0.0177194
0.00788734
-0.0176923
0.00820453
-0.017541
0.00850943
-0.0173134
0.00880975
-0.0170432
0.0091108
-0.0167526
0.00941601
-0.0164556
0.00972736
-0.0161604
0.0100458
-0.0158714
0.0103717
-0.0155905
0.0107046
-0.0153182
0.0110436
-0.015054
0.0113874
-0.0147969
0.0117339
-0.0145459
0.0120803
-0.0143003
0.0124236
-0.0140623
0.0127612
-0.0138423
-0.0136712
0.0130958
0.000124328
0.00107129
0.000491226
0.000977003
0.00106885
-0.000596115
0.00180303
-0.00314473
0.00262631
-0.00614852
0.00347074
-0.00916133
0.00427996
-0.0118639
0.00501646
-0.0140771
0.00566271
-0.0157436
0.00621766
-0.0168925
0.00669129
-0.0176015
0.00709919
-0.017966
0.00745837
-0.0180786
0.00778453
-0.0180184
0.00809073
-0.0178472
0.00838701
-0.0176097
0.00868062
-0.0173368
0.00897648
-0.0170485
0.00927774
-0.0167569
0.00958624
-0.0164689
0.00990296
-0.0161881
0.0102282
-0.0159157
0.0105617
-0.0156517
0.0109027
-0.0153951
0.0112499
-0.0151441
0.0116009
-0.0148969
0.011952
-0.0146514
0.0122982
-0.0144084
0.0126344
-0.0141786
-0.0139945
0.0129578
0.00012992
0.000941375
0.000508821
0.000598103
0.0011003
-0.0011876
0.00184507
-0.0038895
0.00267148
-0.00697493
0.00350964
-0.00999949
0.00430384
-0.0126581
0.00501903
-0.0147923
0.0056408
-0.0163654
0.006171
-0.0174227
0.00662166
-0.0180522
0.00700955
-0.0183539
0.00735205
-0.0184211
0.00766474
-0.0183311
0.00796023
-0.0181427
0.00824807
-0.0178975
0.00853499
-0.0176238
0.00882556
-0.0173391
0.00912268
-0.017054
0.00942811
-0.0167743
0.00974285
-0.0165028
0.0100674
-0.0162403
0.0104019
-0.0159862
0.0107461
-0.0157393
0.0110993
-0.0154973
0.0114594
-0.0152571
0.0118223
-0.0150143
0.0121789
-0.014765
0.0125116
-0.0145112
-0.0143089
0.012826
0.000135758
0.000805616
0.00052652
0.000207342
0.0011308
-0.00179188
0.00188401
-0.00464271
0.00271056
-0.00780148
0.00353916
-0.0108281
0.00431534
-0.0134342
0.00500691
-0.0154838
0.00560276
-0.0169612
0.00610748
-0.0179274
0.00653503
-0.0184797
0.00690308
-0.0187219
0.00722923
-0.0187472
0.00752873
-0.0186306
0.00781371
-0.0184276
0.00809311
-0.0181769
0.0083732
-0.0179039
0.00865817
-0.017624
0.00895069
-0.0173465
0.00925248
-0.0170761
0.00956462
-0.016815
0.00988788
-0.0165635
0.0102229
-0.0163213
0.0105704
-0.0160868
0.0109311
-0.015858
0.0113058
-0.0156317
0.0116947
-0.0154033
0.0120952
-0.0151655
0.0124918
-0.0149078
0.0127753
-0.0145924
0.0128057
-0.0127594
0.0121558
0.0131709
-0.0076688
0.00730359
0.0133638
-0.00307104
0.00287814
0.0134562
9.67137e-05
-0.000189077
0.013482
0.00240549
-0.00243127
0.0134436
0.00439471
-0.00435631
0.0133587
0.00635296
-0.00626812
0.0132344
0.00828362
-0.00815932
0.0130795
0.0102015
-0.0100466
0.0128984
0.0120309
-0.0118498
0.012695
0.0137836
-0.0135803
0.0124722
0.01544
-0.0152171
0.0122323
0.0170066
-0.0167668
0.011976
0.0184852
-0.0182289
0.0117064
0.0198661
-0.0195965
0.0114237
0.0211614
-0.0208787
0.0111298
0.0223623
-0.0220684
0.0108256
0.02347
-0.0231658
0.0105129
0.0244784
-0.0241656
0.0101915
0.0253945
-0.0250731
0.00986429
0.0261986
-0.0258715
0.00952876
0.0269212
-0.0265856
0.00918962
0.0275101
-0.0271709
0.0088422
0.0280302
-0.0276828
0.00848715
0.0284506
-0.0280955
0.00812867
0.0286476
-0.0282891
0.0077464
0.0292143
-0.028832
0.00736637
0.0286536
-0.0282736
0.00695396
0.029607
-0.0291946
0.0294717
-0.0290331
0.012954
-0.0133044
0.0132901
-0.00800487
0.0134686
-0.00324947
0.0135558
9.47415e-06
0.0135812
0.00238014
0.0135441
0.0044317
0.0134612
0.00643581
0.0133385
0.00840634
0.0131855
0.0103545
0.0130055
0.0122109
0.0128025
0.0139866
0.0125793
0.0156632
0.0123383
0.0172476
0.0120804
0.018743
0.0118082
0.0201383
0.0115219
0.0214477
0.0112239
0.0226602
0.010915
0.0237789
0.0105963
0.024797
0.0102689
0.0257219
0.00993488
0.0265326
0.00959213
0.0272639
0.00924509
0.0278571
0.00888958
0.0283857
0.00852608
0.0288141
0.00815933
0.0290144
0.00776869
0.029605
0.00738136
0.0290409
0.00696104
0.0300274
0.0299169
0.0130926
-0.0137914
0.0134004
-0.00831274
0.0135653
-0.00341427
0.0136481
-7.33572e-05
0.0136733
0.00235495
0.0136382
0.00446677
0.0135579
0.00651612
0.0134374
0.00852684
0.0132866
0.0105053
0.013108
0.0123895
0.0129059
0.0141887
0.0126828
0.0158863
0.0124409
0.0174895
0.0121819
0.0190021
0.0119073
0.0204128
0.0116179
0.0217371
0.011316
0.022962
0.0110026
0.0240923
0.0106784
0.0251213
0.010345
0.0260553
0.0100044
0.0268732
0.00965462
0.0276137
0.0092999
0.0282118
0.0089366
0.028749
0.00856487
0.0291858
0.00819012
0.0293891
0.00779138
0.0300037
0.00739696
0.0294354
0.00696901
0.0304553
0.0303682
0.0132211
-0.0142213
0.0135017
-0.00859331
0.0136534
-0.00356607
0.0137327
-0.00015261
0.0137582
0.00232943
0.0137259
0.00449912
0.0136486
0.00659345
0.0135309
0.00864454
0.0133825
0.0106537
0.013206
0.012566
0.0130052
0.0143895
0.0127825
0.016109
0.0125404
0.0177316
0.0122804
0.0192621
0.0120038
0.0206894
0.0117116
0.0220293
0.0114063
0.0232674
0.0110885
0.0244101
0.0107592
0.0254505
0.01042
0.0263946
0.0100731
0.02722
0.00971631
0.0279706
0.00935433
0.0285738
0.00898334
0.02912
0.0086037
0.0295654
0.00822115
0.0297717
0.00781464
0.0304102
0.00741328
0.0298367
0.00697812
0.0308905
0.0308256
0.0133388
-0.0145955
0.0135931
-0.00884761
0.013733
-0.00370598
0.0138096
-0.000229219
0.0138359
0.00230315
0.0138067
0.00452826
0.013733
0.00666718
0.0136187
0.00875881
0.0134733
0.0107991
0.0132991
0.0127402
0.0131002
0.0145884
0.0128785
0.0163308
0.0126364
0.0179736
0.0123757
0.0195228
0.0120975
0.0209677
0.0118031
0.0223237
0.0114945
0.023576
0.0111725
0.0247322
0.0108387
0.0257843
0.0104937
0.0267396
0.0101409
0.0275729
0.00977713
0.0283343
0.00940815
0.0289428
0.00902966
0.0294985
0.00864245
0.0299527
0.00825232
0.0301618
0.00783833
0.0308242
0.00743023
0.0302448
0.00698816
0.0313326
0.0312888
0.0134453
-0.0149163
0.0136744
-0.00907669
0.0138036
-0.00383522
0.0138784
-0.000303981
0.0139061
0.0022755
0.0138808
0.00455356
0.0138111
0.00673689
0.0137008
0.00886907
0.0135587
0.0109412
0.0133874
0.0129115
0.0131907
0.0147851
0.0129705
0.016551
0.0127289
0.0182152
0.012468
0.0197837
0.0121885
0.0212472
0.0118921
0.02262
0.0115807
0.0238874
0.0112547
0.0250581
0.0109166
0.0261223
0.0105663
0.02709
0.0102076
0.0279315
0.00983727
0.0287046
0.00946142
0.0293187
0.00907569
0.0298842
0.00868115
0.0303472
0.0082836
0.0305594
0.00786245
0.0312454
0.00744792
0.0306593
0.00699916
0.0317814
0.0317575
0.0135404
-0.0151863
0.0137453
-0.00928162
0.0138653
-0.00395518
0.0139391
-0.000377753
0.0139687
0.00224584
0.0139478
0.00457448
0.0138826
0.00680214
0.0137768
0.00897482
0.0136386
0.0110794
0.0134707
0.0130794
0.0132767
0.0149791
0.0130584
0.0167693
0.0128177
0.0184558
0.012557
0.0200445
0.0122766
0.0215276
0.0119787
0.0229179
0.0116647
0.0242014
0.0113352
0.0253877
0.010993
0.0264645
0.0106375
0.0274455
0.0102733
0.0282958
0.00989669
0.0290813
0.00951414
0.0297012
0.00912137
0.030277
0.00871973
0.0307488
0.00831495
0.0309642
0.00788694
0.0316734
0.00746628
0.03108
0.00701107
0.0322366
0.0322314
0.0136236
-0.0154082
0.0138057
-0.00946371
0.013918
-0.00406746
0.0139916
-0.000451419
0.0140239
0.00221359
0.0140078
0.00459051
0.0139475
0.00686247
0.0138467
0.00907564
0.0137129
0.0112133
0.0135488
0.0132434
0.013358
0.01517
0.0131421
0.0169852
0.0129028
0.0186951
0.0126427
0.0203046
0.0123619
0.0218084
0.0120626
0.0232172
0.0117465
0.0245176
0.0114138
0.0257204
0.0110678
0.0268104
0.0107075
0.0278058
0.0103379
0.0286654
0.00995533
0.0294639
0.00956628
0.0300902
0.00916665
0.0306766
0.00875817
0.0311573
0.00834635
0.031376
0.00791176
0.032108
0.00748522
0.0315065
0.00702387
0.0326979
0.0327104
0.0136946
-0.0155852
0.0138554
-0.00962453
0.0139618
-0.00417382
0.0140362
-0.000525864
0.0140716
0.00217827
0.0140608
0.00460127
0.0140058
0.00691746
0.0139103
0.00917111
0.0137815
0.0113421
0.0136217
0.0134031
0.0134345
0.0153572
0.0132215
0.0171982
0.012984
0.0189326
0.0127249
0.0205637
0.0124441
0.0220892
0.012144
0.0235173
0.011826
0.0248356
0.0114905
0.0260559
0.011141
0.0271599
0.0107762
0.0281705
0.0104015
0.0290401
0.0100132
0.0298522
0.00961781
0.0304856
0.0092115
0.0310829
0.00879642
0.0315724
0.00837776
0.0317947
0.00793686
0.0325489
0.00750469
0.0319387
0.00703749
0.0331651
0.0331941
0.0137534
-0.0157205
0.0138948
-0.00976601
0.0139972
-0.00427616
0.0140733
-0.000601936
0.014112
0.00213949
0.0141068
0.00460649
0.0140575
0.00696683
0.0139677
0.00926087
0.0138442
0.0114656
0.0136893
0.0135581
0.0135062
0.0155403
0.0132964
0.017408
0.0130612
0.0191678
0.0128036
0.0208213
0.0125232
0.0223695
0.0122227
0.0238178
0.0119032
0.0251551
0.0115652
0.0263939
0.0112124
0.0275127
0.0108435
0.0285394
0.0104639
0.0294198
0.0100701
0.030246
0.0096687
0.030887
0.00925589
0.0314957
0.00883443
0.0319939
0.0084091
0.03222
0.0079622
0.0329958
0.00752459
0.0323763
0.00705189
0.0336378
0.0336822
0.0137999
-0.0158175
0.0139244
-0.00989049
0.0140247
-0.00437653
0.0141032
-0.000680404
0.0141456
0.00209706
0.0141461
0.00460607
0.0141025
0.00701037
0.0140188
0.00934458
0.0139012
0.0115832
0.0137514
0.0137078
0.0135728
0.0157188
0.0133668
0.017614
0.0131344
0.0194002
0.0128786
0.0210771
0.0125992
0.022649
0.0122985
0.0241185
0.0119779
0.0254757
0.0116379
0.0267339
0.0112821
0.0278685
0.0109095
0.0289121
0.0105251
0.0298041
0.0101262
0.030645
0.00971891
0.0312943
0.00929978
0.0319148
0.00887215
0.0324215
0.00844031
0.0326518
0.00798771
0.0334484
0.00754486
0.0328192
0.00706699
0.0341157
0.0341743
0.0138346
-0.01588
0.0139448
-0.0100007
0.0140453
-0.00447701
0.0141268
-0.000761906
0.0141728
0.002051
0.0141788
0.00460009
0.0141411
0.00704803
0.0140637
0.00942203
0.0139522
0.0116947
0.0138081
0.013852
0.0136345
0.0158924
0.0134326
0.017816
0.0132035
0.0196293
0.01295
0.0213306
0.0126718
0.0229271
0.0123715
0.0244188
0.0120502
0.025797
0.0117085
0.0270755
0.01135
0.0282271
0.0109739
0.0292882
0.0105852
0.0301928
0.0101813
0.0310489
0.0097684
0.0317071
0.00934312
0.0323401
0.00890955
0.0328551
0.00847131
0.0330901
0.00801333
0.0339064
0.00756541
0.0332671
0.00708272
0.0345984
0.0346701
0.0138579
-0.015912
0.013957
-0.0100998
0.0140597
-0.00457966
0.0141447
-0.000846906
0.0141941
0.00200156
0.0142054
0.00458882
0.0141736
0.00707987
0.0141025
0.00949304
0.0139975
0.0117997
0.0138593
0.0139902
0.0136911
0.0160606
0.0134937
0.0180134
0.0132683
0.0198547
0.0130175
0.0215814
0.0127411
0.0232035
0.0124416
0.0247182
0.0121199
0.0261187
0.011777
0.0274184
0.0114161
0.028588
0.0110369
0.0296674
0.010644
0.0305856
0.0102353
0.0314576
0.00981713
0.0321253
0.00938585
0.0327714
0.00894655
0.0332944
0.00850201
0.0335346
0.00803898
0.0343694
0.00758614
0.0337199
0.00709899
0.0350855
0.0351691
0.0138707
-0.015918
0.0139621
-0.0101912
0.0140689
-0.00468643
0.0141576
-0.000935673
0.01421
0.00194915
0.0142262
0.00457264
0.0142001
0.00710604
0.0141356
0.00955753
0.0140372
0.0118981
0.0139052
0.0141222
0.0137427
0.0162231
0.0135502
0.0182059
0.013329
0.0200759
0.0130812
0.0218292
0.012807
0.0234777
0.0125087
0.0250165
0.012187
0.0264404
0.0118433
0.0277622
0.0114803
0.028951
0.0110982
0.0300495
0.0107016
0.0309822
0.0102884
0.0318708
0.00986504
0.0325486
0.00942789
0.0332085
0.00898309
0.0337392
0.00853232
0.0339854
0.00806455
0.0348372
0.00760694
0.0341776
0.00711571
0.0355768
0.0356709
0.0138736
-0.015903
0.0139609
-0.0102785
0.0140734
-0.00479896
0.014166
-0.00102828
0.0142209
0.00189427
0.0142416
0.00455199
0.0142209
0.00712672
0.014163
0.0096154
0.0140714
0.0119896
0.013946
0.0142477
0.0137895
0.0163796
0.0136022
0.0183932
0.0133854
0.0202927
0.0131411
0.0220735
0.0128694
0.0237494
0.0125727
0.0253132
0.0122514
0.0267616
0.0119072
0.0281064
0.0115425