/*--------------------------------*- C++ -*----------------------------------*\
  =========                 |
  \\      /  F ield         | OpenFOAM: The Open Source CFD Toolbox
   \\    /   O peration     | Website:  https://openfoam.org
    \\  /    A nd           | Version:  7
     \\/     M anipulation  |
\*---------------------------------------------------------------------------*/
FoamFile
{
    version     2.0;
    format      ascii;
    class       volVectorField;
    location    "1.4";
    object      U;
}
// * * * * * * * * * * * * * * * * * * * * * * * * * * * * * * * * * * * * * //

dimensions      [0 1 -1 0 0 0 0];

internalField   nonuniform List<vector> 
18000
(
(-0.00205734 0.0896499 2.96179e-20)
(-0.00599507 0.193563 0)
(-0.0104066 0.243834 0)
(-0.0128096 0.253597 0)
(-0.012069 0.235593 -9.79893e-21)
(-0.00742204 0.200101 4.95273e-20)
(0.00133968 0.15485 -1.00408e-20)
(0.0139894 0.10551 1.01095e-20)
(0.0299714 0.0562023 0)
(0.0485251 0.00985052 -3.06087e-20)
(0.0688052 -0.0315996 -1.02657e-20)
(0.0899834 -0.0670178 0)
(0.111323 -0.0959422 2.05037e-20)
(0.132219 -0.118434 2.06088e-20)
(0.152218 -0.134931 -4.11387e-20)
(0.17101 -0.146105 -4.1051e-20)
(0.188415 -0.152745 0)
(0.204362 -0.155663 -6.12162e-20)
(0.218857 -0.15563 2.03044e-20)
(0.231961 -0.153338 -6.05753e-20)
(0.243772 -0.149383 2.00678e-20)
(0.2544 -0.144256 0)
(0.263964 -0.138352 -1.9685e-20)
(0.27258 -0.131976 -1.96345e-20)
(0.280355 -0.12536 0)
(0.28739 -0.118676 0)
(0.29377 -0.112042 -3.82202e-20)
(0.299574 -0.105539 -3.7876e-20)
(0.304902 -0.0991735 -3.76639e-20)
(0.309619 -0.0927278 3.92718e-20)
(-0.00407431 0.0901963 4.19864e-20)
(-0.00942489 0.194612 7.32548e-20)
(-0.01316 0.244689 -7.50276e-20)
(-0.01379 0.253544 -7.65415e-20)
(-0.0106386 0.233989 -1.95058e-20)
(-0.00330607 0.196488 5.89878e-20)
(0.00816758 0.148999 -7.96858e-20)
(0.0233824 0.0974167 -8.03621e-20)
(0.0416609 0.0460533 8.08996e-20)
(0.0621612 -0.00202671 8.13584e-20)
(0.0839901 -0.0447874 -4.07697e-20)
(0.1063 -0.0810625 -8.18296e-20)
(0.12836 -0.110406 -4.11745e-20)
(0.149598 -0.13293 8.19396e-20)
(0.16961 -0.149143 -8.18126e-20)
(0.188145 -0.159797 8.19273e-20)
(0.205086 -0.165757 -1.6317e-19)
(0.220418 -0.1679 1.21943e-19)
(0.2342 -0.167053 -8.06983e-20)
(0.246537 -0.163949 4.03308e-20)
(0.257558 -0.159211 -7.9741e-20)
(0.267404 -0.153347 0)
(0.276211 -0.146762 3.98029e-20)
(0.284108 -0.139764 -7.81247e-20)
(0.29121 -0.132586 7.73575e-20)
(0.29762 -0.125393 0)
(0.303424 -0.118303 -3.78037e-20)
(0.308705 -0.111387 3.75978e-20)
(0.313552 -0.104643 1.49416e-19)
(0.317804 -0.097843 7.78714e-20)
(-0.00611853 0.0901997 -6.73904e-20)
(-0.0129176 0.19464 -7.32529e-20)
(-0.0159615 0.244447 1.12477e-19)
(-0.0147388 0.252454 1.90785e-19)
(-0.00904215 0.231485 0)
(0.00114032 0.19215 -7.88405e-20)
(0.0155033 0.142614 7.9682e-20)
(0.033457 0.0889845 2.40311e-19)
(0.0541868 0.0357635 -8.08954e-20)
(0.0767508 -0.013841 -8.13126e-20)
(0.100197 -0.0577101 2.44043e-19)
(0.123657 -0.0946529 8.18252e-20)
(0.146416 -0.124245 0)
(0.167944 -0.146655 -1.63793e-19)
(0.187895 -0.16247 2.44445e-19)
(0.206086 -0.172521 -8.11692e-20)
(0.222472 -0.177749 8.1419e-20)
(0.237103 -0.179095 8.09867e-20)
(0.250092 -0.177435 3.16425e-22)
(0.261591 -0.17354 0)
(0.271765 -0.168054 2.38971e-19)
(0.28078 -0.161501 -1.57789e-19)
(0.28879 -0.154288 7.86078e-20)
(0.295935 -0.146726 0)
(0.302338 -0.139043 -7.73554e-20)
(0.308103 -0.131401 3.05663e-19)
(0.313319 -0.123909 -2.26662e-19)
(0.318065 -0.116633 -7.53328e-20)
(0.322418 -0.109564 7.37904e-20)
(0.326192 -0.102461 7.74817e-20)
(-0.00816774 0.0898754 0)
(-0.01645 0.193998 3.64039e-20)
(-0.0187943 0.243318 4.19391e-23)
(-0.0156433 0.250419 -1.90401e-19)
(-0.00727554 0.22809 0)
(0.00591936 0.187053 -1.56253e-19)
(0.0233475 0.135647 0)
(0.0442042 0.0801808 -2.39801e-19)
(0.0675161 0.0253288 8.02261e-20)
(0.0922315 -0.0255717 -1.61007e-19)
(0.117335 -0.0703266 -1.62414e-19)
(0.141941 -0.107728 -8.13279e-20)
(0.165358 -0.137384 8.11663e-20)
(0.187106 -0.15953 8.07491e-20)
(0.20691 -0.174832 -8.1766e-20)
(0.224667 -0.184203 -1.61466e-19)
(0.240409 -0.188656 1.61326e-19)
(0.254257 -0.189191 0)
(0.266382 -0.186731 0)
(0.276983 -0.182076 0)
(0.286261 -0.175888 0)
(0.294407 -0.168699 0)
(0.30159 -0.160918 0)
(0.307962 -0.152854 -1.54289e-19)
(0.313651 -0.144729 -1.5358e-19)
(0.318762 -0.136697 -5.64003e-22)
(0.32338 -0.128861 -1.50604e-19)
(0.327587 -0.12128 -5.08183e-22)
(0.331444 -0.113935 -1.48914e-19)
(0.334732 -0.106584 3.07937e-19)
(-0.010196 0.0891185 0)
(-0.0199641 0.192457 3.25385e-19)
(-0.021602 0.241134 4.23963e-23)
(-0.0164663 0.247339 -1.13566e-19)
(-0.00531846 0.22376 3.83981e-19)
(0.0110284 0.181186 2.34232e-19)
(0.0316732 0.128113 2.35567e-19)
(0.0555746 0.0710291 0)
(0.0815778 0.0147795 0)
(0.108509 -0.0371754 2.41403e-19)
(0.135288 -0.0825795 2.27685e-22)
(0.161016 -0.120222 -5.64752e-19)
(0.185032 -0.149756 4.84146e-19)
(0.20692 -0.171489 -1.62172e-19)
(0.226487 -0.186168 1.60475e-19)
(0.243721 -0.194789 1.61162e-19)
(0.258736 -0.198432 -1.60085e-19)
(0.271726 -0.198154 1.60253e-19)
(0.282925 -0.194915 3.18052e-19)
(0.292578 -0.18954 -1.58159e-19)
(0.300923 -0.182702 -3.13824e-19)
(0.308172 -0.174938 3.11635e-19)
(0.314512 -0.166654 -3.09301e-19)
(0.3201 -0.158153 1.54285e-19)
(0.325067 -0.149649 0)
(0.32952 -0.14129 0)
(0.333541 -0.133169 1.1192e-21)
(0.337209 -0.125336 -5.92992e-19)
(0.340573 -0.117769 2.93389e-19)
(0.343374 -0.110224 -3.06364e-19)
(-0.0121808 0.0880358 0)
(-0.0234208 0.190193 -2.89136e-19)
(-0.0243454 0.238018 2.94862e-19)
(-0.0171732 0.24327 0)
(-0.0031479 0.2185 -6.12774e-19)
(0.0164835 0.174528 -7.76235e-20)
(0.0404813 0.11998 -1.57489e-19)
(0.0675424 0.0615105 -7.89667e-20)
(0.0963176 0.00411854 0)
(0.125501 -0.0486287 -1.59991e-19)
(0.153946 -0.0944306 1.6014e-19)
(0.180748 -0.132088 3.22268e-19)
(0.205288 -0.161309 -3.22641e-19)
(0.227226 -0.182479 0)
(0.246464 -0.196432 -3.2228e-19)
(0.263085 -0.204239 3.19864e-19)
(0.277294 -0.207048 3.20544e-19)
(0.289361 -0.205964 4.76889e-19)
(0.299583 -0.201978 -4.75833e-19)
(0.308252 -0.19593 6.29417e-19)
(0.315638 -0.188502 3.13294e-19)
(0.321976 -0.180227 -3.11627e-19)
(0.327463 -0.171508 6.16847e-19)
(0.332265 -0.162637 0)
(0.336513 -0.15382 3.02535e-19)
(0.340312 -0.145194 6.00911e-19)
(0.343742 -0.136846 -2.96066e-19)
(0.346876 -0.128816 2.96179e-19)
(0.349753 -0.121078 -6.53438e-22)
(0.35207 -0.113392 -3.04987e-19)
(-0.0141005 0.0866283 -3.30061e-20)
(-0.0267706 0.187193 0)
(-0.0269679 0.233951 -3.68449e-19)
(-0.0177084 0.238193 7.49912e-20)
(-0.000717331 0.212295 2.29416e-19)
(0.0223063 0.167069 7.72088e-20)
(0.0497657 0.111248 3.11341e-19)
(0.0800754 0.0516379 0)
(0.111673 -0.00662814 1.58394e-19)
(0.143116 -0.0598962 1.58349e-19)
(0.173191 -0.105837 -1.59753e-19)
(0.200999 -0.14328 4.78602e-19)
(0.225975 -0.171998 0)
(0.247867 -0.192462 0)
(0.266681 -0.205591 4.78967e-19)
(0.282604 -0.212533 -7.97255e-19)
(0.295935 -0.214493 3.17099e-19)
(0.307025 -0.212619 -3.17494e-19)
(0.31623 -0.207924 -3.14175e-19)
(0.323889 -0.201259 -9.40006e-19)
(0.330303 -0.193304 -1.20891e-21)
(0.335725 -0.184588 3.08134e-19)
(0.340363 -0.175503 -6.13341e-19)
(0.344385 -0.16633 3.03332e-19)
(0.347924 -0.157264 -1.76048e-21)
(0.35108 -0.148432 -2.99887e-19)
(0.353929 -0.139911 2.97179e-19)
(0.356541 -0.131737 0)
(0.358941 -0.123876 2.8985e-19)
(0.360779 -0.116101 4.9498e-22)
(-0.0159399 0.0849362 -6.57102e-20)
(-0.0299725 0.183506 7.15289e-20)
(-0.0294123 0.228974 -4.38719e-19)
(-0.0180154 0.232133 -2.235e-19)
(0.00201701 0.205151 3.02983e-19)
(0.0285241 0.158809 -4.60657e-19)
(0.0595305 0.101922 -1.56076e-19)
(0.0931477 0.0414228 -3.12274e-19)
(0.127589 -0.0174413 3.14139e-19)
(0.161267 -0.0709491 -6.32721e-19)
(0.192914 -0.116764 -3.16616e-19)
(0.221641 -0.15376 -1.63851e-21)
(0.246951 -0.181789 1.59464e-19)
(0.268694 -0.20141 -4.76519e-19)
(0.286988 -0.213628 -6.36021e-19)
(0.302133 -0.219662 4.14458e-22)
(0.314523 -0.220771 -1.30235e-21)
(0.32459 -0.218133 3.14027e-19)
(0.332751 -0.212776 3.14166e-19)
(0.339388 -0.205553 5.43309e-22)
(0.344827 -0.19714 -6.33698e-22)
(0.34934 -0.188053 3.05187e-19)
(0.35314 -0.178671 3.05788e-19)
(0.356399 -0.169263 -6.30876e-22)
(0.359245 -0.160009 -9.00509e-19)
(0.361774 -0.151029 5.93337e-19)
(0.364058 -0.14239 5.8947e-19)
(0.366162 -0.134119 -5.83084e-19)
(0.368097 -0.12618 -2.89846e-19)
(0.369465 -0.118365 -2.99488e-19)
(-0.0176829 0.0829903 -5.87501e-19)
(-0.0329835 0.179181 -7.12126e-20)
(-0.0316214 0.223128 3.6512e-19)
(-0.0180336 0.225115 2.98154e-19)
(0.00510836 0.197085 -3.02975e-19)
(0.0351726 0.14976 3.06832e-19)
(0.0697868 0.0920135 -1.54638e-19)
(0.106742 0.0308817 4.67958e-19)
(0.144017 -0.0282963 -3.14126e-19)
(0.17988 -0.0817572 3.15557e-19)
(0.213013 -0.12718 1.58489e-19)
(0.242551 -0.163501 -1.59266e-19)
(0.26808 -0.190659 -9.49142e-19)
(0.289564 -0.209309 6.33787e-19)
(0.307244 -0.22054 3.17152e-19)
(0.321535 -0.225637 0)
(0.332932 -0.225901 0)
(0.341942 -0.222532 -2.97028e-21)
(0.349044 -0.216565 -3.10178e-19)
(0.354657 -0.208849 0)
(0.359131 -0.200046 0)
(0.362751 -0.190659 -3.06363e-19)
(0.365735 -0.181049 0)
(0.368252 -0.171469 -5.99549e-19)
(0.370427 -0.162089 0)
(0.372352 -0.153015 -2.96337e-19)
(0.374091 -0.144306 5.85864e-19)
(0.375703 -0.135984 -5.79517e-19)
(0.37719 -0.128009 0)
(0.378099 -0.1202 0)
(-0.0193166 0.080824 5.22087e-19)
(-0.0357625 0.174269 0)
(-0.0335362 0.216459 -7.26255e-20)
(-0.0176976 0.217175 7.40036e-20)
(0.00861675 0.188123 -4.50067e-19)
(0.0422964 0.139942 6.34246e-23)
(0.0805561 0.0815428 -1.53826e-19)
(0.120852 0.0200396 0)
(0.160918 -0.0391641 0)
(0.198885 -0.0922896 -1.56773e-19)
(0.23339 -0.137055 1.56919e-19)
(0.263613 -0.172477 -3.15282e-19)
(0.289235 -0.198594 3.1794e-19)
(0.310346 -0.216158 0)
(0.327319 -0.226339 0)
(0.340688 -0.230479 0)
(0.351046 -0.229913 3.10666e-19)
(0.358979 -0.225855 -1.76255e-21)
(0.365018 -0.219337 3.11903e-19)
(0.369617 -0.211194 -6.14158e-19)
(0.373146 -0.202072 3.06199e-19)
(0.375898 -0.192453 -1.517e-18)
(0.378094 -0.18268 1.25919e-21)
(0.379899 -0.172991 5.99541e-19)
(0.381432 -0.163539 -2.22188e-21)
(0.382778 -0.154421 5.86871e-19)
(0.383994 -0.145689 -5.80048e-19)
(0.385136 -0.137355 -5.76674e-19)
(0.386191 -0.129383 1.45473e-21)
(0.386657 -0.121622 -5.89969e-19)
(-0.02083 0.0784687 -6.48153e-20)
(-0.0382707 0.168821 0)
(-0.0350966 0.209019 1.4461e-19)
(-0.0169381 0.208358 -1.47354e-19)
(0.0126088 0.178302 1.34829e-18)
(0.0499482 0.129389 4.88331e-23)
(0.0918678 0.0705426 -1.53118e-19)
(0.135476 0.00893029 1.54354e-19)
(0.17826 -0.05001 -7.74167e-19)
(0.218218 -0.102513 0)
(0.253958 -0.146362 0)
(0.284719 -0.180671 -3.11178e-19)
(0.310296 -0.205588 3.15543e-19)
(0.330918 -0.221964 -3.13811e-19)
(0.347093 -0.231045 3.12472e-19)
(0.359479 -0.234221 0)
(0.368765 -0.232851 -1.24419e-18)
(0.375611 -0.228152 6.17619e-19)
(0.380595 -0.221144 3.08367e-19)
(0.384201 -0.212642 9.18905e-19)
(0.386815 -0.20327 0)
(0.388734 -0.193486 6.05632e-19)
(0.390177 -0.183613 5.98671e-19)
(0.391304 -0.17387 5.93713e-19)
(0.392227 -0.164399 -3.5945e-21)
(0.393023 -0.155283 -5.81884e-19)
(0.393742 -0.146567 5.80043e-19)
(0.394435 -0.138258 0)
(0.395078 -0.130323 1.49664e-21)
(0.395119 -0.122648 1.17745e-18)
(-0.0222139 0.0759532 -5.1498e-19)
(-0.0404707 0.162891 0)
(-0.0362421 0.200867 -5.74273e-19)
(-0.0156823 0.198719 -7.32686e-19)
(0.0171565 0.16767 -4.48795e-19)
(0.0581874 0.118144 1.51004e-19)
(0.103758 0.0590564 4.93945e-23)
(0.15062 -0.00240324 -1.53503e-19)
(0.196016 -0.0607925 2.99387e-21)
(0.237819 -0.112391 3.10408e-19)
(0.274631 -0.155074 3.0979e-19)
(0.305766 -0.18807 -3.0884e-19)
(0.331153 -0.211644 3.11408e-19)
(0.351166 -0.226746 -9.33913e-19)
(0.36646 -0.234691 9.31615e-19)
(0.37781 -0.236908 6.19183e-19)
(0.386003 -0.234769 1.547e-18)
(0.391762 -0.229482 -3.11034e-19)
(0.395711 -0.222047 -6.10853e-19)
(0.398356 -0.213255 -3.51333e-21)
(0.400092 -0.2037 -6.05265e-19)
(0.401218 -0.193814 1.79907e-18)
(0.401949 -0.183899 -1.19466e-18)
(0.402437 -0.174154 1.17894e-18)
(0.402786 -0.164708 -5.87209e-19)
(0.403064 -0.155634 1.16014e-18)
(0.403314 -0.146969 2.14751e-21)
(0.403582 -0.138718 -1.13807e-18)
(0.403834 -0.130848 1.12467e-18)
(0.40347 -0.123295 5.82132e-19)
(-0.0234605 0.0733045 5.14978e-19)
(-0.0423275 0.156531 0)
(-0.0369121 0.192065 1.28931e-18)
(-0.0138556 0.188319 4.39795e-19)
(0.0223361 0.156286 0)
(0.0670779 0.106265 0)
(0.116267 0.0471392 0)
(0.166294 -0.0139076 0)
(0.21416 -0.0714629 3.08558e-19)
(0.257633 -0.121885 3.08327e-19)
(0.295327 -0.163164 -6.20468e-19)
(0.326658 -0.194664 6.21604e-19)
(0.351701 -0.216771 9.29445e-19)
(0.37099 -0.230531 3.12122e-19)
(0.385323 -0.237319 3.06635e-19)
(0.395596 -0.238594 -9.27515e-19)
(0.402684 -0.235727 -1.23046e-18)
(0.40737 -0.22991 -6.14141e-19)
(0.410313 -0.222114 6.10845e-19)
(0.412036 -0.213097 -1.21299e-18)
(0.412941 -0.203423 6.00675e-19)
(0.413321 -0.193494 -1.1957e-18)
(0.413386 -0.183588 5.90158e-19)
(0.413277 -0.173889 -2.80132e-21)
(0.41309 -0.164508 -5.81422e-19)
(0.412884 -0.155511 -1.15504e-18)
(0.412695 -0.146928 1.14344e-18)
(0.412564 -0.13876 0)
(0.412447 -0.130981 -1.5612e-21)
(0.411702 -0.12358 -1.16209e-18)
(-0.0245629 0.0705464 6.39304e-20)
(-0.0438073 0.149793 0)
(-0.0370469 0.182676 -5.7171e-19)
(-0.0113823 0.177226 1.45523e-19)
(0.0282249 0.144219 -1.47755e-19)
(0.0766848 0.0938204 0)
(0.129436 0.0348578 -1.51026e-19)
(0.182505 -0.0255195 1.52057e-19)
(0.232667 -0.0819657 3.06002e-19)
(0.277604 -0.130951 -9.19363e-19)
(0.31597 -0.170608 -3.08255e-19)
(0.347306 -0.200448 -7.47031e-22)
(0.371848 -0.220984 -1.59633e-21)
(0.390299 -0.233352 -6.16834e-19)
(0.403601 -0.238978 -3.09958e-19)
(0.412766 -0.239339 0)
(0.418749 -0.235794 1.0434e-21)
(0.422386 -0.229508 6.10623e-19)
(0.424362 -0.221416 -6.05006e-19)
(0.425212 -0.212238 0)
(0.425337 -0.202503 0)
(0.425023 -0.192584 0)
(0.424469 -0.182736 0)
(0.423809 -0.173121 -3.59142e-21)
(0.423126 -0.163841 0)
(0.422471 -0.154949 0)
(0.421874 -0.146473 5.65522e-19)
(0.421369 -0.13841 5.59927e-19)
(0.420908 -0.130744 5.56323e-19)
(0.419811 -0.123521 -1.67356e-21)
(-0.0255151 0.0676992 6.36356e-20)
(-0.0448782 0.142727 -1.38659e-19)
(-0.036588 0.172766 8.50479e-19)
(-0.00818806 0.165515 -1.4474e-19)
(0.0348996 0.131547 1.47129e-19)
(0.0870714 0.0808881 1.12281e-26)
(0.143301 0.0222901 4.49466e-19)
(0.199258 -0.037166 -6.03949e-19)
(0.251507 -0.0922388 9.11639e-19)
(0.297674 -0.139544 1.42908e-21)
(0.336484 -0.177382 -3.05111e-19)
(0.367624 -0.205422 6.12151e-19)
(0.39151 -0.224305 -6.12411e-19)
(0.409014 -0.23525 6.11968e-19)
(0.421226 -0.239726 0)
(0.429263 -0.23921 6.09074e-19)
(0.434154 -0.235043 0)
(0.436775 -0.228349 3.43553e-21)
(0.437832 -0.220025 -6.00402e-19)
(0.437863 -0.210746 -5.96575e-19)
(0.437263 -0.201005 5.92371e-19)
(0.436309 -0.191145 -5.87843e-19)
(0.435189 -0.181394 -5.83042e-19)
(0.434024 -0.171899 -1.15961e-18)
(0.432886 -0.162747 -5.72785e-19)
(0.431819 -0.153985 5.69483e-19)
(0.430844 -0.145636 -1.12895e-18)
(0.429994 -0.137696 -5.59927e-19)
(0.429215 -0.130159 0)
(0.427797 -0.123138 -5.74669e-19)
(-0.026311 0.0647798 0)
(-0.0455097 0.135376 5.50422e-19)
(-0.0354791 0.162402 -4.2517e-19)
(-0.00420097 0.153265 -7.19419e-19)
(0.0424326 0.118355 0)
(0.0982955 0.0675573 0)
(0.157894 0.00952439 -8.98945e-19)
(0.21655 -0.048766 1.20486e-18)
(0.270646 -0.102215 -9.08571e-19)
(0.317785 -0.147618 0)
(0.356795 -0.183463 3.06028e-19)
(0.387534 -0.209589 -3.07177e-19)
(0.41061 -0.226761 3.16704e-21)
(0.42707 -0.236274 -3.08759e-19)
(0.438143 -0.239623 -3.0332e-19)
(0.445045 -0.238279 -3.33676e-21)
(0.448865 -0.233548 6.03319e-19)
(0.450514 -0.226511 6.03796e-19)
(0.450705 -0.218015 1.23855e-21)
(0.449977 -0.208692 1.1909e-18)
(0.448712 -0.198994 -1.18338e-18)
(0.447176 -0.189233 1.1735e-18)
(0.445542 -0.179614 5.83041e-19)
(0.443918 -0.170267 5.78009e-19)
(0.442367 -0.161267 3.59624e-21)
(0.440924 -0.152654 0)
(0.439604 -0.144448 5.60306e-19)
(0.438437 -0.136644 -1.66358e-18)
(0.437367 -0.129249 5.46174e-19)
(0.435662 -0.12245 5.70631e-19)
(-0.0269447 0.0618021 -3.77058e-19)
(-0.0456728 0.127785 -1.23568e-18)
(-0.0336671 0.151649 -1.89497e-22)
(0.000645784 0.140556 2.55293e-21)
(0.0508895 0.104736 -4.35961e-19)
(0.110406 0.053926 0)
(0.173234 -0.00334256 -2.96302e-19)
(0.234369 -0.060232 -1.79881e-18)
(0.290042 -0.111825 9.05423e-19)
(0.337875 -0.155127 -6.03508e-19)
(0.376831 -0.188834 9.0868e-19)
(0.406964 -0.212958 -3.03423e-19)
(0.429084 -0.228385 6.09228e-19)
(0.444413 -0.236474 -1.51814e-18)
(0.45431 -0.238736 9.10158e-19)
(0.46008 -0.23662 -1.05396e-21)
(0.462864 -0.231388 -1.80427e-18)
(0.46359 -0.224071 5.99169e-19)
(0.462977 -0.215461 -5.94688e-19)
(0.461551 -0.206143 0)
(0.459684 -0.196531 5.85326e-19)
(0.457623 -0.186905 0)
(0.455527 -0.177447 -5.78003e-19)
(0.453492 -0.16827 5.72332e-19)
(0.45157 -0.159441 5.6919e-19)
(0.449787 -0.150991 5.60196e-19)
(0.448153 -0.142939 0)
(0.446697 -0.135282 0)
(0.445364 -0.12804 -1.09421e-18)
(0.44341 -0.121479 1.69817e-18)
(-0.0274097 0.0587768 3.77517e-19)
(-0.04534 0.119993 6.84358e-19)
(-0.0311029 0.140572 -5.58739e-19)
(0.00641232 0.127474 1.14264e-18)
(0.0603263 0.0907883 1.47833e-19)
(0.123439 0.0400994 1.46781e-19)
(0.18933 -0.0162075 2.83862e-21)
(0.252691 -0.0714722 -5.93828e-19)
(0.309646 -0.120997 -2.98473e-19)
(0.357877 -0.162026 2.98689e-21)
(0.396521 -0.193478 -3.03285e-21)
(0.425847 -0.215541 -9.0535e-19)
(0.446875 -0.229214 -3.01004e-19)
(0.460998 -0.235907 3.20508e-21)
(0.469697 -0.237133 6.01011e-19)
(0.474352 -0.234307 5.99084e-19)
(0.47614 -0.22864 3.36712e-21)
(0.476002 -0.221103 -5.93536e-19)
(0.474649 -0.212433 5.92185e-19)
(0.472592 -0.203167 -5.87407e-19)
(0.470185 -0.193677 -1.16714e-18)
(0.467657 -0.184215 -5.79304e-19)
(0.465152 -0.17494 1.1462e-18)
(0.462751 -0.165952 0)
(0.460498 -0.157306 -5.62031e-19)
(0.45841 -0.14903 -1.11681e-18)
(0.456494 -0.14114 -1.10608e-18)
(0.454778 -0.133636 5.48674e-19)
(0.453211 -0.126556 -1.62661e-18)
(0.451046 -0.120247 5.63644e-19)
(-0.0276992 0.0557121 -6.23348e-19)
(-0.0444851 0.112034 1.35837e-19)
(-0.027742 0.129234 5.58743e-19)
(0.0131504 0.114105 -4.27791e-19)
(0.0707867 0.076614 1.45822e-19)
(0.137417 0.0261872 6.13889e-23)
(0.206172 -0.0289634 1.47435e-18)
(0.271478 -0.0823933 5.952e-19)
(0.329398 -0.12966 5.98255e-19)
(0.377723 -0.168273 9.00249e-19)
(0.415796 -0.197385 -9.02052e-19)
(0.444124 -0.217357 6.02834e-19)
(0.463938 -0.22929 1.2049e-18)
(0.476796 -0.234632 6.01342e-19)
(0.484287 -0.234883 -1.04635e-21)
(0.487854 -0.231415 -1.19593e-18)
(0.488698 -0.225378 1.19197e-18)
(0.487758 -0.21768 2.20177e-21)
(0.485732 -0.209001 -5.88709e-19)
(0.483111 -0.199826 5.8396e-19)
(0.480226 -0.19049 5.8182e-19)
(0.477289 -0.181214 -5.73703e-19)
(0.474425 -0.172141 -1.14323e-18)
(0.471703 -0.163353 -4.8856e-22)
(0.469157 -0.154899 5.63583e-19)
(0.466799 -0.146803 5.56618e-19)
(0.46463 -0.139079 1.09887e-18)
(0.462682 -0.131734 -1.08339e-18)
(0.460907 -0.124823 0)
(0.458569 -0.118777 5.60501e-19)
(-0.0278055 0.0526137 2.45263e-21)
(-0.0430836 0.103944 0)
(-0.0235452 0.117698 -4.14627e-19)
(0.0209019 0.100537 -1.4139e-19)
(0.0823006 0.0623179 -5.73315e-19)
(0.152345 0.0123022 0)
(0.223736 -0.0415017 -8.81687e-19)
(0.29068 -0.0929025 2.95408e-19)
(0.34923 -0.137748 0)
(0.397339 -0.173834 -5.94537e-19)
(0.434591 -0.200552 0)
(0.461741 -0.218429 -8.96079e-19)
(0.480236 -0.228658 8.95467e-19)
(0.491785 -0.23271 -5.99109e-19)
(0.498074 -0.232058 -5.94513e-19)
(0.500591 -0.228019 0)
(0.500547 -0.221678 0)
(0.498872 -0.213874 5.88854e-19)
(0.496242 -0.205229 7.90554e-22)
(0.493124 -0.196179 5.7987e-19)
(0.489824 -0.187022 -5.76236e-19)
(0.486533 -0.177952 1.14592e-18)
(0.483359 -0.169091 -5.66804e-19)
(0.480359 -0.160511 0)
(0.477558 -0.152254 1.67224e-18)
(0.474962 -0.144339 -2.75455e-18)
(0.472568 -0.136785 5.47186e-19)
(0.470411 -0.1296 5.41859e-19)
(0.468453 -0.122862 5.32575e-19)
(0.465979 -0.11709 1.11114e-18)
(-0.0277202 0.0494851 -4.90918e-19)
(-0.0411122 0.0957498 1.07482e-18)
(-0.0184796 0.106024 5.53394e-19)
(0.029698 0.0868548 1.26419e-18)
(0.0948826 0.0480059 1.57128e-18)
(0.168209 -0.00144234 2.89307e-19)
(0.241981 -0.0537145 -1.45686e-18)
(0.31023 -0.10291 0)
(0.369068 -0.145199 -1.17877e-18)
(0.416654 -0.178677 -5.88567e-19)
(0.452844 -0.202978 0)
(0.478656 -0.218786 -5.90542e-19)
(0.495743 -0.227368 -1.00322e-21)
(0.505956 -0.230203 -1.77925e-18)
(0.511061 -0.228726 5.94518e-19)
(0.512574 -0.22419 5.91305e-19)
(0.511706 -0.217607 -1.17216e-18)
(0.509366 -0.20975 -1.17005e-18)
(0.506202 -0.201179 -7.27681e-22)
(0.502652 -0.192283 -2.07668e-21)
(0.498997 -0.183325 0)
(0.495405 -0.174473 -5.68687e-19)
(0.491968 -0.165831 -5.60281e-19)
(0.488731 -0.157463 0)
(0.48571 -0.149402 0)
(0.482905 -0.141668 1.64526e-18)
(0.480312 -0.134281 -1.621e-18)
(0.477968 -0.127257 0)
(0.475847 -0.120696 1.5873e-18)
(0.473268 -0.115204 -1.10391e-18)
(-0.0274341 0.046329 5.17175e-21)
(-0.0385496 0.0874813 -1.07455e-18)
(-0.0125182 0.0942712 -1.37216e-19)
(0.0395578 0.0731465 -1.40359e-18)
(0.108531 0.0337837 -8.5645e-19)
(0.184981 -0.014934 2.8785e-19)
(0.260847 -0.0654972 5.83862e-19)
(0.330054 -0.112333 1.45933e-18)
(0.388831 -0.151959 1.17877e-18)
(0.435594 -0.182783 1.18311e-18)
(0.470499 -0.204674 0)
(0.494831 -0.218461 6.1292e-21)
(0.510441 -0.22547 0)
(0.519309 -0.227173 1.1855e-18)
(0.523259 -0.224954 0)
(0.523824 -0.219995 -5.87987e-19)
(0.522199 -0.213232 5.91103e-19)
(0.519265 -0.205369 0)
(0.515636 -0.196907 0)
(0.511718 -0.18819 -1.71878e-18)
(0.507765 -0.179446 5.6933e-19)
(0.503924 -0.170819 0)
(0.50027 -0.1624 1.11971e-18)
(0.496835 -0.154241 1.11333e-18)
(0.493627 -0.146373 -2.19855e-18)
(0.490641 -0.138815 2.17684e-18)
(0.48787 -0.131589 3.75697e-21)
(0.485355 -0.124721 1.06259e-18)
(0.483086 -0.118337 -1.05813e-18)
(0.480428 -0.113131 0)
(-0.0269375 0.0431471 1.22679e-18)
(-0.0353764 0.0791649 -1.33166e-19)
(-0.00564136 0.0824967 -1.09025e-18)
(0.0504884 0.0594973 0)
(0.123228 0.0197552 -1.1293e-18)
(0.202611 -0.028064 0)
(0.280262 -0.0767511 -1.44203e-18)
(0.350065 -0.121096 -8.75898e-19)
(0.408434 -0.157982 -1.1669e-18)
(0.454089 -0.186136 0)
(0.487506 -0.205654 2.94451e-19)
(0.510237 -0.217491 3.01363e-19)
(0.524324 -0.223018 -5.88369e-19)
(0.531851 -0.223681 -1.17283e-18)
(0.534688 -0.220807 -5.82791e-19)
(0.534366 -0.215498 -2.33379e-18)
(0.532054 -0.208614 1.16566e-18)
(0.528597 -0.200788 -6.79409e-22)
(0.52457 -0.192466 -6.02629e-22)
(0.520346 -0.183947 1.71479e-18)
(0.516152 -0.175428 0)
(0.512111 -0.167031 0)
(0.508283 -0.158833 -3.16187e-21)
(0.504688 -0.150878 3.85863e-21)
(0.501325 -0.143194 -1.08878e-18)
(0.498182 -0.135801 -1.08165e-18)
(0.495252 -0.128725 3.26734e-21)
(0.492577 -0.122004 -1.0626e-18)
(0.490165 -0.115793 -1.04782e-18)
(0.487449 -0.110873 3.46712e-21)
(-0.0262202 0.0399411 0)
(-0.0315754 0.0708271 1.05853e-18)
(0.00216355 0.0707579 9.54264e-19)
(0.0624844 0.0459913 1.38573e-19)
(0.138939 0.00602151 2.25272e-18)
(0.221036 -0.0407284 -2.84903e-19)
(0.30014 -0.0873851 2.30013e-18)
(0.37017 -0.129131 1.1549e-18)
(0.427792 -0.163233 1.74894e-18)
(0.472071 -0.188732 8.73308e-19)
(0.50382 -0.205938 2.92936e-19)
(0.524856 -0.215917 1.46869e-18)
(0.537391 -0.220063 9.33704e-22)
(0.543599 -0.219788 5.88473e-19)
(0.545373 -0.216345 1.1697e-18)
(0.54423 -0.210758 1.1653e-18)
(0.541303 -0.203808 0)
(0.537392 -0.19606 0)
(0.533033 -0.187904 0)
(0.528563 -0.1796 0)
(0.524179 -0.171312 1.1219e-18)
(0.519986 -0.163147 0)
(0.516026 -0.155165 -3.80503e-21)
(0.512308 -0.147406 2.18791e-18)
(0.508821 -0.139893 1.08507e-18)
(0.505547 -0.132649 1.07424e-18)
(0.502473 -0.125704 2.12687e-18)
(0.499644 -0.11911 0)
(0.497085 -0.11306 -2.0785e-18)
(0.494323 -0.108416 2.17508e-18)
(-0.0252715 0.0367133 9.66462e-19)
(-0.0271318 0.0624942 -1.05855e-18)
(0.0109018 0.0591109 0)
(0.0755282 0.0327103 -1.10039e-18)
(0.155617 -0.00732045 -2.86046e-19)
(0.240177 -0.0528303 -8.47297e-19)
(0.320384 -0.0973175 -2.5742e-18)
(0.390271 -0.136383 -6.0643e-21)
(0.446819 -0.167686 -8.65606e-19)
(0.489478 -0.190574 -2.03374e-18)
(0.519406 -0.205553 -2.91023e-19)
(0.538675 -0.213783 -1.16284e-18)
(0.549649 -0.21666 -1.16228e-18)
(0.554572 -0.215548 0)
(0.555344 -0.211625 -1.15689e-18)
(0.55345 -0.20583 -1.73037e-18)
(0.549978 -0.198865 5.74594e-19)
(0.545682 -0.191231 -1.13983e-18)
(0.541052 -0.183265 -1.13226e-18)
(0.536391 -0.175188 0)
(0.53187 -0.167139 -2.23692e-18)
(0.52757 -0.159203 0)
(0.523521 -0.151432 -2.20202e-18)
(0.519718 -0.143857 -1.08913e-18)
(0.516141 -0.136498 -2.1566e-18)
(0.512761 -0.129379 1.06768e-18)
(0.509562 -0.122536 -3.16934e-18)
(0.506579 -0.116037 1.04195e-18)
(0.503858 -0.110122 6.75305e-21)
(0.501055 -0.105731 -1.08076e-18)
(-0.0240809 0.0334664 -9.66482e-19)
(-0.0220335 0.0541933 1.31374e-19)
(0.0205712 0.0476113 9.38736e-19)
(0.0895901 0.0197339 1.10041e-18)
(0.173198 -0.0201785 -1.11748e-18)
(0.259944 -0.0642805 6.03564e-21)
(0.34089 -0.106477 1.1411e-18)
(0.410268 -0.142808 -2.29213e-18)
(0.465435 -0.171326 -2.82211e-19)
(0.506255 -0.191673 2.60154e-18)
(0.534235 -0.204532 -1.73571e-18)
(0.551689 -0.211132 2.89915e-18)
(0.561114 -0.21286 2.89846e-18)
(0.564799 -0.211017 -5.78174e-19)
(0.564632 -0.2067 1.15692e-18)
(0.562058 -0.200762 1.72712e-18)
(0.558112 -0.193831 5.68638e-19)
(0.553494 -0.186343 6.69113e-21)
(0.548651 -0.178587 5.67649e-19)
(0.543853 -0.17075 5.60079e-19)
(0.539242 -0.162944 -5.49008e-19)
(0.534882 -0.155237 5.50893e-19)
(0.530787 -0.14767 -1.08864e-18)
(0.52694 -0.140265 1.08538e-18)
(0.52331 -0.13304 7.04444e-21)
(0.519858 -0.126016 1.05699e-18)
(0.516555 -0.119233 6.97116e-21)
(0.513422 -0.112779 -1.03837e-18)
(0.510516 -0.106951 3.52236e-21)
(0.50767 -0.102765 0)
(-0.0226379 0.0302046 0)
(-0.0162714 0.0459526 0)
(0.031162 0.0363145 -1.20701e-18)
(0.104629 0.00713949 1.36376e-19)
(0.191606 -0.0324657 0)
(0.280234 -0.0749988 1.12477e-18)
(0.361548 -0.114803 2.83061e-19)
(0.43006 -0.148372 8.58108e-19)
(0.483562 -0.174147 1.14912e-18)
(0.522353 -0.192047 -1.15335e-18)
(0.548288 -0.202909 1.1559e-18)
(0.563903 -0.208011 -1.15682e-18)
(0.571805 -0.208711 -1.15617e-18)
(0.574308 -0.206243 0)
(0.573272 -0.201615 0)
(0.570089 -0.195598 0)
(0.565734 -0.188744 -1.14001e-18)
(0.560855 -0.181433 1.69831e-18)
(0.555855 -0.173907 -5.6089e-19)
(0.550968 -0.166321 0)
(0.546314 -0.158764 1.66059e-18)
(0.541938 -0.151288 -5.47451e-19)
(0.537842 -0.143921 1.08867e-18)
(0.533999 -0.136674 -2.14629e-18)
(0.530363 -0.129558 2.1319e-18)
(0.52688 -0.12259 -3.3667e-21)
(0.523504 -0.115809 3.65518e-21)
(0.520226 -0.109321 1.03141e-18)
(0.51711 -0.103496 -4.48855e-22)
(0.514206 -0.0993989 1.06893e-18)
(-0.0209323 0.0269332 1.19349e-19)
(-0.00984003 0.0378021 -1.29665e-19)
(0.0426566 0.0252765 2.66228e-19)
(0.120593 -0.00499761 -1.62523e-18)
(0.210755 -0.0441011 2.75572e-19)
(0.30094 -0.0849142 0)
(0.382247 -0.122246 1.12308e-18)
(0.449551 -0.153052 -1.13119e-18)
(0.501128 -0.176152 0)
(0.537731 -0.19172 1.42781e-18)
(0.561551 -0.200724 -2.86565e-19)
(0.575325 -0.204465 0)
(0.581746 -0.204262 -5.73838e-19)
(0.58313 -0.20127 1.14469e-18)
(0.581297 -0.196412 -5.70235e-19)
(0.577575 -0.190374 5.68316e-19)
(0.572875 -0.18364 -1.13016e-18)
(0.567791 -0.176533 -3.34771e-22)
(0.562682 -0.169256 -2.71238e-22)
(0.557751 -0.161934 -5.5018e-19)
(0.553096 -0.154635 -1.09796e-18)
(0.54875 -0.147396 -2.87649e-22)
(0.544703 -0.140229 3.40433e-21)
(0.540919 -0.133135 1.07132e-18)
(0.53734 -0.126109 -1.05726e-18)
(0.533892 -0.119154 1.05005e-18)
(0.530494 -0.11229 -2.07109e-18)
(0.527081 -0.105644 -3.69405e-21)
(0.523717 -0.0996425 -2.02464e-18)
(0.520732 -0.0953717 1.06329e-18)
(-0.0189536 0.0236587 0)
(-0.00273667 0.0297735 -1.03031e-18)
(0.0550306 0.014553 0)
(0.137421 -0.0166055 6.04888e-21)
(0.230549 -0.0550115 2.7409e-19)
(0.321948 -0.0939668 2.0877e-23)
(0.402875 -0.12877 -2.24012e-18)
(0.468648 -0.156839 8.49221e-19)
(0.518073 -0.177355 0)
(0.552359 -0.190724 -1.42637e-18)
(0.574019 -0.198015 2.85091e-19)
(0.585971 -0.200538 0)
(0.590964 -0.199555 -5.70779e-19)
(0.591301 -0.19614 5.68975e-19)
(0.588742 -0.191127 5.6405e-19)
(0.584547 -0.185123 1.12977e-18)
(0.57956 -0.178547 -5.61674e-19)
(0.57432 -0.17167 0)
(0.569145 -0.164662 0)
(0.564209 -0.157618 1.10355e-18)
(0.559594 -0.150591 -1.09102e-18)
(0.55532 -0.143602 1.08115e-18)
(0.551374 -0.136649 1.07464e-18)
(0.547717 -0.129719 1.06067e-18)
(0.544287 -0.122784 -1.04993e-18)
(0.540993 -0.115812 1.04275e-18)
(0.537706 -0.108782 1.02837e-18)
(0.534229 -0.101792 -1.01723e-18)
(0.530458 -0.0951892 2.94822e-21)
(0.526865 -0.090011 2.1164e-18)
(-0.016695 0.0203925 1.18058e-19)
(0.0050366 0.0219019 9.0235e-19)
(0.068253 0.00419993 0)
(0.155044 -0.0276171 1.0768e-18)
(0.250889 -0.0651323 0)
(0.343142 -0.102107 0)
(0.423323 -0.134347 8.38684e-19)
(0.487267 -0.159728 -1.97727e-22)
(0.534339 -0.177773 2.82051e-19)
(0.56621 -0.18909 2.834e-19)
(0.585695 -0.194823 -8.51674e-19)
(0.595859 -0.196271 5.6767e-19)
(0.59949 -0.19463 0)
(0.598852 -0.190887 0)
(0.595639 -0.18579 -1.13182e-18)
(0.591033 -0.179871 0)
(0.585812 -0.173487 -5.58793e-19)
(0.580459 -0.166866 5.54984e-19)
(0.575254 -0.160145 5.51136e-19)
(0.570346 -0.153397 6.72249e-23)
(0.565801 -0.146661 -5.42049e-19)
(0.561635 -0.139945 0)
(0.557836 -0.133237 -1.06402e-18)
(0.554373 -0.126509 1.05357e-18)
(0.551199 -0.119712 0)
(0.548249 -0.112768 0)
(0.545413 -0.105576 0)
(0.542461 -0.0980821 0)
(0.538938 -0.0904135 -9.99401e-19)
(0.535897 -0.0819246 2.10264e-18)
(0.323064 -0.0682689 -0.0306084)
(0.330572 -0.0411095 -0.0318067)
(0.337693 -0.0164769 -0.0322039)
(0.34011 0.000537334 -0.0325878)
(0.341068 0.0129724 -0.032924)
(0.340486 0.0236514 -0.0332334)
(0.338454 0.0342091 -0.0335062)
(0.335456 0.0446274 -0.0337638)
(0.331552 0.0550078 -0.0340116)
(0.326957 0.0649223 -0.0342525)
(0.321784 0.0744271 -0.0344947)
(0.316086 0.0834058 -0.0347406)
(0.309945 0.0919069 -0.0349978)
(0.303413 0.0999322 -0.0352795)
(0.296494 0.107434 -0.0355878)
(0.289329 0.114464 -0.0359128)
(0.28173 0.120987 -0.0362721)
(0.274201 0.127008 -0.0366336)
(0.265782 0.132487 -0.037048)
(0.25854 0.137463 -0.0374168)
(0.248533 0.14184 -0.0379078)
(0.243154 0.145763 -0.0382563)
(0.229463 0.148974 -0.0388408)
(0.229035 0.15179 -0.0391387)