/*--------------------------------*- C++ -*----------------------------------*\
  =========                 |
  \\      /  F ield         | OpenFOAM: The Open Source CFD Toolbox
   \\    /   O peration     | Website:  https://openfoam.org
    \\  /    A nd           | Version:  7
     \\/     M anipulation  |
\*---------------------------------------------------------------------------*/
FoamFile
{
    version     2.0;
    format      ascii;
    class       volScalarField;
    location    "5";
    object      p;
}
// * * * * * * * * * * * * * * * * * * * * * * * * * * * * * * * * * * * * * //

dimensions      [0 2 -2 0 0 0 0];

internalField   nonuniform List<scalar> 
32000
(
0.565408
0.5649
0.56472
0.564559
0.564521
0.564626
0.56488
0.565269
0.56578
0.566422
0.56722
0.568194
0.569337
0.570626
0.57204
0.573567
0.575208
0.576966
0.578841
0.580825
0.582903
0.58506
0.58728
0.58955
0.591862
0.594204
0.596563
0.598922
0.601267
0.603584
0.605864
0.608099
0.610282
0.612406
0.614467
0.616459
0.618382
0.620247
0.622041
0.623655
0.565254
0.564713
0.564516
0.564342
0.564301
0.564412
0.564673
0.565064
0.56557
0.566202
0.566987
0.567942
0.569062
0.570321
0.571698
0.573181
0.574768
0.576463
0.578267
0.580173
0.582167
0.584234
0.586357
0.588526
0.590731
0.592961
0.595206
0.59745
0.599682
0.601886
0.604053
0.606177
0.608249
0.610265
0.612219
0.614107
0.61593
0.617696
0.619394
0.620929
0.565072
0.564507
0.564295
0.56411
0.564069
0.564186
0.564455
0.564851
0.565353
0.565979
0.566754
0.567693
0.568787
0.570014
0.571352
0.572788
0.574322
0.575955
0.577688
0.579515
0.581422
0.583395
0.58542
0.587484
0.589578
0.591693
0.593819
0.595945
0.598057
0.600143
0.602194
0.604202
0.60616
0.608063
0.609907
0.611688
0.613406
0.615071
0.61667
0.618122
0.564856
0.564268
0.564046
0.563855
0.563818
0.563946
0.564224
0.564625
0.56513
0.565753
0.56652
0.567442
0.568511
0.569704
0.571001
0.572391
0.573871
0.575442
0.577103
0.578848
0.580665
0.582542
0.584465
0.586421
0.588401
0.590397
0.592401
0.594403
0.596392
0.598355
0.600285
0.602173
0.604012
0.605799
0.607529
0.609199
0.61081
0.612371
0.613868
0.615232
0.564616
0.564015
0.563787
0.563594
0.563563
0.563702
0.563988
0.564394
0.564903
0.565526
0.566285
0.56719
0.568231
0.569389
0.570645
0.571988
0.573414
0.574921
0.576508
0.578169
0.579895
0.581673
0.583491
0.585335
0.587197
0.58907
0.590949
0.592824
0.594685
0.596522
0.598326
0.600089
0.601806
0.603472
0.605085
0.606642
0.608143
0.609597
0.61099
0.612262
0.564344
0.563733
0.563502
0.563313
0.563291
0.563442
0.563738
0.564151
0.564667
0.565291
0.566042
0.566931
0.567945
0.569067
0.570282
0.571577
0.572948
0.57439
0.575902
0.577479
0.579111
0.580788
0.582497
0.584224
0.585964
0.587712
0.589461
0.591207
0.592938
0.594644
0.596318
0.597952
0.599542
0.601085
0.602577
0.604018
0.605406
0.606752
0.608038
0.609215
0.564042
0.563428
0.5632
0.563019
0.563009
0.563171
0.563478
0.563901
0.564424
0.56505
0.565796
0.566667
0.567654
0.568741
0.569914
0.571161
0.572474
0.57385
0.575285
0.576776
0.578314
0.579887
0.581482
0.583089
0.584704
0.586322
0.587941
0.589553
0.59115
0.592722
0.594261
0.595762
0.597222
0.598638
0.600008
0.601329
0.602603
0.603836
0.605016
0.606093
0.563708
0.563098
0.562879
0.562711
0.562713
0.562889
0.563208
0.563641
0.564172
0.564803
0.565543
0.566397
0.567358
0.568409
0.56954
0.570736
0.571991
0.573299
0.574658
0.576063
0.577504
0.578968
0.580446
0.58193
0.583416
0.584903
0.586388
0.587864
0.589322
0.590756
0.592157
0.593521
0.594848
0.596135
0.59738
0.59858
0.599736
0.600856
0.601927
0.602901
0.563341
0.562744
0.562536
0.562385
0.562403
0.562593
0.562925
0.56337
0.563911
0.564546
0.565281
0.56612
0.567055
0.568071
0.569158
0.570303
0.571498
0.572738
0.57402
0.575337
0.576678
0.578032
0.57939
0.580748
0.582104
0.583458
0.584806
0.586142
0.587458
0.588749
0.590008
0.591233
0.592424
0.593579
0.594697
0.595774
0.596811
0.597817
0.598779
0.599647
0.562942
0.562364
0.562171
0.562041
0.562077
0.562282
0.56263
0.563088
0.563638
0.564277
0.565008
0.565833
0.566744
0.567725
0.568768
0.56986
0.570995
0.572166
0.57337
0.574598
0.575838
0.577078
0.578315
0.579545
0.58077
0.581988
0.583196
0.584389
0.585561
0.586705
0.587819
0.588903
0.589956
0.590977
0.591966
0.592919
0.593835
0.594725
0.595579
0.596339
0.562508
0.561956
0.561782
0.561676
0.561734
0.561958
0.562321
0.562791
0.563351
0.563995
0.564724
0.565537
0.566423
0.56737
0.568368
0.569407
0.570481
0.571584
0.572711
0.573848
0.574983
0.576109
0.577222
0.578325
0.579416
0.580496
0.581563
0.582611
0.583634
0.58463
0.585597
0.586536
0.587449
0.588336
0.589194
0.59002
0.590816
0.591591
0.592337
0.592987
0.562041
0.561519
0.561368
0.56129
0.561374
0.561619
0.561998
0.562481
0.56305
0.5637
0.564428
0.56523
0.566093
0.567006
0.567958
0.568944
0.569957
0.570993
0.572041
0.573086
0.574115
0.575126
0.576116
0.57709
0.578047
0.578988
0.579911
0.580811
0.581683
0.582528
0.583346
0.58414
0.584912
0.585662
0.586388
0.587088
0.587763
0.588423
0.589065
0.589605
0.56154
0.561054
0.560928
0.560881
0.560995
0.561263
0.561658
0.562154
0.562734
0.563391
0.564119
0.564911
0.565752
0.566631
0.567539
0.568472
0.569426
0.570393
0.571361
0.572313
0.573237
0.574132
0.575
0.575844
0.576666
0.577467
0.578244
0.578994
0.579715
0.580408
0.581076
0.581723
0.582353
0.582965
0.58356
0.584134
0.584687
0.585235
0.585776
0.586207
0.561005
0.56056
0.560462
0.560451
0.560596
0.560889
0.561302
0.561811
0.562403
0.563068
0.563797
0.56458
0.5654
0.566245
0.56711
0.567991
0.568886
0.569785
0.570673
0.57153
0.572349
0.57313
0.573876
0.574592
0.575279
0.575939
0.57657
0.577169
0.577737
0.578277
0.578795
0.579295
0.579783
0.580258
0.58072
0.581169
0.581603
0.582039
0.582483
0.582807
0.560439
0.560038
0.559971
0.559998
0.560178
0.560496
0.560927
0.561452
0.562056
0.56273
0.563462
0.564236
0.565036
0.56585
0.566672
0.567504
0.56834
0.56917
0.569976
0.57074
0.571456
0.572124
0.57275
0.573338
0.573891
0.57441
0.574894
0.575342
0.575758
0.576146
0.576514
0.576868
0.577214
0.577551
0.577883
0.578207
0.578524
0.578852
0.579202
0.579422
0.559843
0.559488
0.559455
0.559523
0.559738
0.560083
0.560534
0.561074
0.561692
0.562376
0.563111
0.563878
0.56466
0.565444
0.566227
0.56701
0.567788
0.568549
0.569273
0.569945
0.570559
0.571117
0.571624
0.572087
0.572507
0.572886
0.573224
0.573523
0.573787
0.574025
0.574245
0.574455
0.574659
0.574861
0.575062
0.575264
0.575466
0.575688
0.575951
0.576072
0.559219
0.558914
0.558915
0.559025
0.559277
0.55965
0.560122
0.560679
0.561311
0.562006
0.562744
0.563505
0.564271
0.565029
0.565776
0.566512
0.567232
0.567923
0.568566
0.569147
0.569662
0.570112
0.570505
0.570844
0.571133
0.571374
0.571568
0.57172
0.571836
0.571927
0.572002
0.572068
0.572133
0.572201
0.572274
0.572356
0.572447
0.572567
0.572747
0.572773
0.558569
0.558315
0.558352
0.558505
0.558794
0.559196
0.559691
0.560267
0.560914
0.561619
0.562361
0.563118
0.563869
0.564604
0.565318
0.566009
0.566672
0.567294
0.567857
0.56835
0.568768
0.569114
0.569395
0.569614
0.569775
0.569881
0.569935
0.569944
0.569916
0.569863
0.569796
0.569723
0.569651
0.569587
0.569536
0.569501
0.569483
0.569504
0.569607
0.569545
0.557895
0.557693
0.557766
0.557963
0.55829
0.558722
0.559241
0.559837
0.5605
0.561216
0.561962
0.562716
0.563456
0.564171
0.564854
0.565503
0.56611
0.566663
0.567148
0.567555
0.567881
0.568128
0.5683
0.568403
0.56844
0.568414
0.568333
0.568204
0.568037
0.567846
0.56764
0.567431
0.567227
0.567036
0.566863
0.566716
0.566593
0.566519
0.566548
0.566406
0.557199
0.55705
0.557159
0.557398
0.557763
0.558227
0.558772
0.55939
0.56007
0.560797
0.561548
0.5623
0.563033
0.56373
0.564386
0.564993
0.565546
0.566033
0.566443
0.566768
0.567004
0.567156
0.567225
0.567216
0.567132
0.566981
0.566769
0.566508
0.566209
0.565884
0.565546
0.565207
0.564875
0.564561
0.564272
0.564015
0.563791
0.563626
0.563587
0.563371
0.556484
0.556388
0.556532
0.556812
0.557214
0.557712
0.558285
0.558927
0.559625
0.560364
0.56112
0.561873
0.562599
0.563282
0.563912
0.564481
0.564982
0.565406
0.565743
0.565989
0.566142
0.566202
0.566172
0.566055
0.565857
0.565586
0.565251
0.564865
0.564439
0.563987
0.563523
0.56306
0.562607
0.562175
0.561775
0.561414
0.561095
0.560842
0.560737
0.560454
0.555752
0.555707
0.555884
0.556204
0.556645
0.557176
0.55778
0.558447
0.559164
0.559915
0.560679
0.561434
0.562155
0.562826
0.563433
0.563967
0.564419
0.564782
0.565051
0.565222
0.565294
0.565268
0.565144
0.564925
0.564619
0.564234
0.563784
0.563279
0.562733
0.562162
0.56158
0.560999
0.560432
0.55989
0.559384
0.558925
0.558515
0.558179
0.558012
0.557669
0.555005
0.555009
0.555218
0.555576
0.556054
0.556621
0.557257
0.55795
0.558688
0.559453
0.560226
0.560984
0.561703
0.562363
0.562949
0.56345
0.563856
0.564162
0.564366
0.564467
0.564464
0.564356
0.564143
0.563829
0.56342
0.56293
0.56237
0.561755
0.561097
0.560415
0.559722
0.559032
0.558359
0.557713
0.557109
0.556558
0.556062
0.555648
0.55542
0.555023
0.554244
0.554293
0.554532
0.554928
0.555443
0.556046
0.556715
0.557436
0.558197
0.558978
0.55976
0.560523
0.561241
0.561892
0.56246
0.56293
0.563293
0.563546
0.563689
0.563724
0.56365
0.563466
0.56317
0.562766
0.562263
0.561674
0.561013
0.560294
0.559533
0.558747
0.557953
0.557163
0.556391
0.55565
0.554955
0.554318
0.553743
0.553254
0.552968
0.552523
0.553469
0.553558
0.553826
0.554259
0.554811
0.55545
0.556154
0.556906
0.55769
0.558488
0.559282
0.560051
0.560769
0.561413
0.561964
0.562406
0.56273
0.562934
0.56302
0.562993
0.562852
0.562597
0.562224
0.561737
0.561147
0.560466
0.559711
0.558897
0.558041
0.557161
0.556273
0.555391
0.55453
0.553702
0.552924
0.552208
0.551559
0.551001
0.550659
0.550171
0.55268
0.552806
0.553102
0.553569
0.554158
0.554834
0.555574
0.556358
0.557167
0.557985
0.558792
0.559567
0.560287
0.560925
0.561461
0.561877
0.562165
0.562323
0.562356
0.562272
0.56207
0.561748
0.561304
0.56074
0.560069
0.559304
0.558463
0.557561
0.556618
0.555651
0.554679
0.553715
0.552772
0.551866
0.551012
0.550226
0.54951
0.548888
0.548493
0.547967
0.551876
0.552035
0.552357
0.552858
0.553483
0.554197
0.554974
0.555791
0.556628
0.557466
0.558287
0.55907
0.559792
0.560426
0.560949
0.561342
0.561596
0.561711
0.561696
0.561559
0.5613
0.560916
0.560405
0.55977
0.559024
0.558183
0.557262
0.556281
0.555258
0.554214
0.553165
0.552126
0.551111
0.550134
0.549214
0.548365
0.547591
0.54691
0.546465
0.545907
0.551058
0.551246
0.551593
0.552127
0.552788
0.553539
0.554354
0.555206
0.556072
0.556931
0.557767
0.558559
0.559284
0.559915
0.560426
0.560798
0.561021
0.561097
0.561037
0.56085
0.560537
0.560096
0.559522
0.558822
0.558008
0.557095
0.556101
0.555047
0.553953
0.552838
0.551721
0.550615
0.549536
0.548498
0.54752
0.546617
0.545792
0.545061
0.54457
0.543984
0.550225
0.550437
0.550809
0.551373
0.55207
0.55286
0.553713
0.554601
0.555497
0.556379
0.55723
0.558032
0.55876
0.559389
0.55989
0.560242
0.560436
0.560476
0.560374
0.56014
0.559777
0.55928
0.558649
0.557887
0.557009
0.556031
0.554971
0.553851
0.552691
0.551513
0.550335
0.54917
0.548034
0.546944
0.545917
0.544969
0.544102
0.543328
0.542798
0.542192
0.549376
0.549609
0.550003
0.550598
0.551331
0.55216
0.55305
0.553974
0.554901
0.555808
0.556676
0.557487
0.558219
0.558845
0.559336
0.559669
0.559836
0.559842
0.559701
0.559423
0.559012
0.558463
0.557776
0.556957
0.55602
0.554981
0.55386
0.55268
0.551461
0.550226
0.548993
0.547776
0.546592
0.545457
0.54439
0.543406
0.542506
0.5417
0.541138
0.540521
0.54851
0.548759
0.549175
0.549802
0.550571
0.551437
0.552365
0.553326
0.554284
0.555215
0.5561
0.556921
0.557657
0.55828
0.55876
0.559074
0.559215
0.559189
0.559011
0.558691
0.558233
0.557633
0.556893
0.55602
0.555027
0.553932
0.552755
0.55152
0.550248
0.548961
0.547679
0.546417
0.545192
0.544021
0.542923
0.541911
0.540988
0.540161
0.539578
0.538959
0.547624
0.547885
0.548325
0.548982
0.549787
0.550691
0.551657
0.552653
0.553643
0.554598
0.555499
0.556331
0.55707
0.557688
0.558157
0.558452
0.558568
0.558511
0.558296
0.557936
0.557431
0.556783
0.555991
0.555065
0.554019
0.552872
0.551643
0.550357
0.549037
0.547704
0.546378
0.545077
0.543818
0.542618
0.541496
0.540467
0.539531
0.538693
0.538102
0.537497
0.546714
0.546987
0.547449
0.548139
0.548979
0.549921
0.550924
0.551954
0.552973
0.553952
0.55487
0.55571
0.556452
0.557065
0.55752
0.557796
0.557886
0.557799
0.557549
0.557147
0.556598
0.5559
0.555058
0.554081
0.552985
0.551787
0.550511
0.549178
0.547813
0.546438
0.545073
0.543738
0.54245
0.541228
0.540091
0.539052
0.538114
0.537279
0.536693
0.536121
0.545779
0.546061
0.546547
0.547269
0.548146
0.549124
0.550164
0.551226
0.552273
0.553274
0.554207
0.555056
0.555798
0.556404
0.556845
0.5571
0.557163
0.557044
0.556759
0.556317
0.555722
0.554976
0.554084
0.553057
0.551911
0.550666
0.549344
0.547967
0.546561
0.545147
0.543747
0.542383
0.541071
0.539833
0.538686
0.537645
0.536715
0.535898
0.535334
0.534816
0.544815
0.545106
0.545616
0.546371
0.547284
0.548299
0.549374
0.550467
0.551539
0.55256
0.553507
0.554363
0.555103
0.5557
0.556124
0.556355
0.556391
0.55624
0.555918
0.555435
0.554794
0.554
0.553058
0.551981
0.550787
0.549495
0.548129
0.546711
0.545266
0.543816
0.542385
0.540993
0.539661
0.53841
0.537258
0.536222
0.535309
0.534522
0.534001
0.533564
0.543818
0.544117
0.544652
0.545441
0.546391
0.547443
0.548551
0.549672
0.550768
0.551807
0.552766
0.553626
0.554362
0.554947
0.555351
0.555557
0.555562
0.555378
0.555018
0.554492
0.553805
0.552962
0.55197
0.550843
0.549601
0.548264
0.546855
0.545398
0.543916
0.542433
0.540972
0.539555
0.538203
0.536939
0.535783
0.534755
0.533865
0.53312
0.532658
0.532336
0.542783
0.543093
0.543653
0.544477
0.545465
0.546553
0.547693
0.54884
0.549957
0.551011
0.55198
0.552841
0.55357
0.554139
0.55452
0.554698
0.554671
0.554451
0.554051
0.553481
0.552746
0.551853
0.55081
0.549634
0.548345
0.546963
0.545513
0.544017
0.5425
0.540984
0.539494
0.538052
0.536679
0.5354
0.534237
0.533214
0.532347
0.531648
0.531261
0.531088
0.541708
0.542029
0.542617
0.543477
0.544503
0.545627
0.546796
0.547966
0.549101
0.550169
0.551144
0.552003
0.552721
0.553271
0.553626
0.553772
0.55371
0.553451
0.553009
0.552393
0.551609
0.550664
0.549571
0.548346
0.54701
0.545584
0.544093
0.542561
0.54101
0.539462
0.537943
0.536473
0.535075
0.533773
0.532592
0.531562
0.530708
0.530056
0.529765
0.529793
0.540587
0.540923
0.541541
0.542439
0.543504
0.544662
0.545857
0.547049
0.548199
0.549277
0.550254
0.551107
0.551812
0.552338
0.552663
0.552774
0.552673
0.552372
0.551885
0.551221
0.550387
0.54939
0.548246
0.546972
0.54559
0.544123
0.542593
0.541025
0.53944
0.537862
0.536311
0.53481
0.533379
0.532041
0.530822
0.529753
0.528872
0.528238
0.528075
0.528441
0.539421
0.539776
0.540425
0.541363
0.542466
0.543655
0.544874
0.546084
0.547248
0.548331
0.549307
0.550151
0.550836
0.551335
0.551626
0.551697
0.551555
0.55121
0.550676
0.549961
0.549074
0.548026
0.546832
0.545511
0.544085
0.542576
0.54101
0.539408
0.537792
0.536182
0.534599
0.533063
0.531592
0.530202
0.528913
0.527748
0.526735
0.525938
0.525616
0.526071
0.628708
0.636853
0.641919
0.647139
0.650682
0.653967
0.656508
0.658691
0.660458
0.661939
0.663167
0.664204
0.665061
0.665759
0.666321
0.666757
0.667087
0.667289
0.667392
0.667394
0.667301
0.667113
0.666851
0.666496
0.666053
0.665527
0.664886
0.664154
0.663316
0.662358
0.661303
0.66011
0.658813
0.65739
0.655849
0.654196
0.65246
0.650649
0.648946
0.647204
0.625884
0.634143
0.639392
0.644827
0.648541
0.651967
0.654605
0.65686
0.658679
0.660204
0.66147
0.66253
0.663402
0.664127
0.664719
0.665168
0.665508
0.665742
0.665875
0.665891
0.665813
0.665647
0.665395
0.665071
0.664642
0.664117
0.663499
0.662774
0.661947
0.661008
0.65995
0.658781
0.657486
0.656073
0.654538
0.652897
0.651172
0.649366
0.647677
0.645949
0.62295
0.631363
0.636802
0.642477
0.646374
0.649951
0.652692
0.655023
0.656898
0.658467
0.659771
0.660853
0.661742
0.662493
0.663113
0.663578
0.663929
0.664192
0.664351
0.664384
0.664322
0.664178
0.663937
0.663643
0.663228
0.662706
0.662113
0.661396
0.660579
0.659661
0.658603
0.657458
0.656168
0.654766
0.653241
0.651614
0.649903
0.648105
0.646432
0.644718
0.619902
0.628514
0.634146
0.640087
0.64418
0.647918
0.650771
0.653183
0.655116
0.656727
0.658064
0.659173
0.660086
0.660859
0.661498
0.661985
0.662355
0.662638
0.662816
0.662871
0.66283
0.662707
0.662484
0.662204
0.661809
0.661302
0.660724
0.660023
0.659218
0.658313
0.657268
0.656134
0.654858
0.653471
0.651959
0.650347
0.648651
0.646868
0.645209
0.643506
0.616736
0.625592
0.631426
0.637658
0.641959
0.645868
0.648842
0.651338
0.653333
0.654985
0.656353
0.65749
0.658431
0.659223
0.659878
0.66039
0.660782
0.661081
0.661274
0.661355
0.661336
0.661233
0.661033
0.660761
0.660388
0.659902
0.659336
0.658653
0.657862
0.656968
0.655943
0.654816
0.653557
0.652186
0.650691
0.649094
0.647417
0.645651
0.644006
0.642313
0.613454
0.622599
0.628643
0.635188
0.639712
0.643803
0.646903
0.649488
0.651546
0.65324
0.654641
0.655806
0.656773
0.657585
0.658257
0.658792
0.659204
0.659522
0.659732
0.659837
0.65984
0.659758
0.65958
0.65932
0.658968
0.658503
0.65795
0.657286
0.65651
0.65563
0.654623
0.65351
0.652268
0.650915
0.649438
0.647858
0.646199
0.64445
0.64282
0.641137
0.610056
0.619534
0.625795
0.632677
0.637438
0.641721
0.644956
0.647634
0.649757
0.651495
0.652929
0.654121
0.655114
0.655946
0.656635
0.657192
0.657624
0.65796
0.658189
0.658317
0.658343
0.65828
0.658126
0.65788
0.657548
0.657104
0.656566
0.655922
0.655163
0.654297
0.65331
0.652213
0.650989
0.649656
0.6482
0.646638
0.644998
0.643266
0.64165
0.639977
0.606545
0.616399
0.622885
0.630125
0.635138
0.639624
0.642999
0.645774
0.647965
0.649748
0.651216
0.652436
0.653453
0.654306
0.655014
0.655591
0.656042
0.656399
0.656647
0.656797
0.656845
0.656801
0.65667
0.656441
0.656129
0.655707
0.655185
0.65456
0.653819
0.652971
0.652004
0.650926
0.649722
0.648409
0.646975
0.645433
0.643813
0.642098
0.640497
0.638833
0.602924
0.613197
0.619912
0.627533
0.63281
0.63751
0.641033
0.64391
0.646171
0.648001
0.649503
0.65075
0.651792
0.652666
0.653391
0.653989
0.65446
0.654837
0.655106
0.655276
0.655347
0.655322
0.655214
0.655004
0.654711
0.65431
0.653805
0.6532
0.652481
0.651652
0.650705
0.649649
0.648466
0.647175
0.645764
0.644243
0.642643
0.640946
0.639358
0.637706
0.5992
0.609931
0.616881
0.6249
0.630455
0.63538
0.639057
0.642041
0.644374
0.646252
0.647789
0.649065
0.65013
0.651026
0.651769
0.652387
0.652878
0.653275
0.653565
0.653755
0.653849
0.653843
0.653757
0.653567
0.653292
0.652914
0.652429
0.651844
0.651146
0.650338
0.649415
0.648381
0.647223
0.645954
0.644567
0.643068
0.641487
0.63981
0.638236
0.636594
0.595384
0.606606
0.613794
0.622228
0.628073
0.633233
0.637072
0.640168
0.642575
0.644503
0.646074
0.647379
0.648467
0.649385
0.650146
0.650784
0.651296
0.651713
0.652026
0.652235
0.652351
0.652365
0.652301
0.652132
0.651875
0.65152
0.651055
0.650492
0.649816
0.649031
0.648132
0.647122
0.64599
0.644745
0.643384
0.641909
0.640347
0.63869
0.63713
0.635499
0.591486
0.60323
0.610656
0.619519
0.625666
0.631069
0.635078
0.638289
0.640774
0.642752
0.64436
0.645693
0.646805
0.647743
0.648523
0.649181
0.649714
0.650152
0.650487
0.650716
0.650854
0.650888
0.650845
0.650699
0.65046
0.650128
0.649684
0.649143
0.648492
0.647731
0.646858
0.645873
0.644769
0.643549
0.642214
0.640763
0.639222
0.637587
0.636041
0.634419
0.587522
0.599811
0.607474
0.616773
0.623234
0.628889
0.633075
0.636404
0.638969
0.641
0.642644
0.644006
0.645141
0.6461
0.646899
0.647578
0.648133
0.648591
0.648949
0.649198
0.649358
0.649413
0.64939
0.649266
0.649046
0.648738
0.648317
0.647798
0.647174
0.646438
0.645591
0.644633
0.643559
0.642364
0.641056
0.639632
0.638113
0.6365
0.634969
0.633354
0.583509
0.596359
0.604255
0.613995
0.620778
0.626692
0.631061
0.634514
0.637161
0.639247
0.640929
0.642319
0.643478
0.644457
0.645276
0.645975
0.646553
0.647032
0.647411
0.647681
0.647863
0.647939
0.647936
0.647836
0.647635
0.64735
0.646953
0.646457
0.64586
0.645151
0.644331
0.643401
0.642357
0.64119
0.639909
0.638515
0.637019
0.635428
0.633913
0.632306
0.579466
0.592886
0.601007
0.611188
0.6183
0.624478
0.629038
0.632617
0.635351
0.637493
0.639215
0.640633
0.641816
0.642815
0.643654
0.644374
0.644974
0.645473
0.645874
0.646166
0.646368
0.646467
0.646483
0.646406
0.646225
0.645963
0.645592
0.64512
0.64455
0.643869
0.643077
0.642176
0.641165
0.640027
0.638774
0.637411
0.63594
0.634371
0.632873
0.631274
0.575416
0.589405
0.59774
0.608355
0.615802
0.62225
0.627005
0.630716
0.633538
0.635739
0.637502
0.638948
0.640156
0.641174
0.642034
0.642775
0.643396
0.643916
0.644338
0.644652
0.644875
0.644997
0.645032
0.644977
0.644818
0.644578
0.644235
0.643788
0.643243
0.642593
0.641831
0.640959
0.639979
0.638873
0.63765
0.636319
0.634876
0.633329
0.631851
0.630258
0.571382
0.585929
0.594466
0.605503
0.613288
0.620007
0.624962
0.628809
0.631723
0.633985
0.63579
0.637266
0.638498
0.639536
0.640417
0.641178
0.64182
0.642361
0.642803
0.643139
0.643383
0.643528
0.643582
0.64355
0.643413
0.643195
0.642879
0.642459
0.64194
0.641321
0.64059
0.639748
0.638801
0.637728
0.636538
0.635239
0.633826
0.632303
0.630845
0.629259
0.567389
0.582473
0.591196
0.602637
0.61076
0.617751
0.622911
0.626896
0.629905
0.632231
0.63408
0.635585
0.636842
0.637901
0.638803
0.639583
0.640245
0.640807
0.641269
0.641627
0.641891
0.64206
0.642133
0.642123
0.642011
0.641814
0.641525
0.641133
0.640641
0.640052
0.639354
0.638542
0.637629
0.636591
0.635435
0.634171
0.632789
0.631291
0.629854
0.628276
0.563463
0.579053
0.587941
0.599764
0.608221
0.615483
0.620851
0.624978
0.628086
0.630477
0.632371
0.633907
0.635188
0.636269
0.63719
0.637991
0.638673
0.639255
0.639738
0.640118
0.640401
0.640593
0.640686
0.640696
0.640611
0.640436
0.640173
0.63981
0.639345
0.638787
0.638122
0.637342
0.636463
0.635461
0.634342
0.633113
0.631766
0.630294
0.62888
0.627308
0.55963
0.575684
0.584717
0.596889
0.605675
0.613206
0.618784
0.623056
0.626264
0.628724
0.630664
0.632231
0.633537
0.634639
0.63558
0.636401
0.637102
0.637705
0.638208
0.63861
0.638913
0.639127
0.639241
0.639271
0.639213
0.63906
0.638823
0.638489
0.638052
0.637525
0.636894
0.636145
0.635302
0.634338
0.633257
0.632065
0.630756
0.629312
0.627921
0.626357
0.555915
0.572382
0.581534
0.59402
0.603125
0.610919
0.61671
0.621128
0.624441
0.626972
0.628958
0.630559
0.63189
0.633013
0.633973
0.634814
0.635534
0.636157
0.63668
0.637103
0.637426
0.637662
0.637798
0.637847
0.637815
0.637686
0.637474
0.63717
0.636762
0.636265
0.635668
0.634953
0.634146
0.633221
0.632181
0.631027
0.629757
0.628344
0.626977
0.625422
0.552341
0.56916
0.578406
0.591164
0.600577
0.608626
0.61463
0.619197
0.622616
0.62522
0.627256
0.62889
0.630247
0.63139
0.632369
0.63323
0.63397
0.634613
0.635156
0.635599
0.635941
0.636198
0.636357
0.636425
0.636419
0.636313
0.636127
0.635853
0.635474
0.635007
0.634444
0.633763
0.632994
0.63211
0.631111
0.629998
0.62877
0.62739
0.62605
0.624504
0.54893
0.566032
0.575346
0.588328
0.598034
0.60633
0.612544
0.617262
0.620789
0.62347
0.625556
0.627226
0.628609
0.629773
0.630771
0.631651
0.632411
0.633072
0.633634
0.634097
0.63446
0.634735
0.634917
0.635004
0.635023
0.634941
0.634781
0.634536
0.634186
0.63375
0.633221
0.632576
0.631844
0.631003
0.630049
0.628979
0.627795
0.626451
0.625139
0.623605
0.5457
0.56301
0.572364
0.585521
0.595501
0.604034
0.610455
0.615325
0.618961
0.621722
0.623861
0.625567
0.626977
0.628161
0.629179
0.630077
0.630857
0.631536
0.632115
0.632597
0.632982
0.633275
0.63348
0.633585
0.633628
0.633571
0.633436
0.633219
0.632899
0.632493
0.631999
0.631391
0.630698
0.629901
0.628993
0.627969
0.626831
0.625528
0.624247
0.622725
0.542665
0.560104
0.569471
0.58275
0.592982
0.601739
0.608363
0.613385
0.617133
0.619977
0.622169
0.623913
0.62535
0.626555
0.627594
0.628509
0.629307
0.630003
0.630601
0.631101
0.631506
0.631817
0.632043
0.632168
0.632233
0.632201
0.632091
0.631903
0.631612
0.631237
0.630778
0.630208
0.629555
0.628803
0.627944
0.626968
0.62588
0.62462
0.623373
0.621865
0.539836
0.557322
0.566675
0.580022
0.590483
0.59945
0.60627
0.611444
0.615305
0.618234
0.620482
0.622266
0.62373
0.624957
0.626015
0.626948
0.627764
0.628476
0.62909
0.629608
0.630033
0.630362
0.630608
0.630752
0.63084
0.630832
0.630747
0.630587
0.630325
0.629982
0.629555
0.629025
0.628413
0.627708
0.6269
0.625975
0.62494
0.623729
0.622519
0.621028
0.537219
0.55467
0.563983
0.577346
0.588009
0.597169
0.604178
0.609503
0.613479
0.616494
0.618801
0.620624
0.622117
0.623365
0.624444
0.625393
0.626225
0.626953
0.627583
0.628119
0.628562
0.628908
0.629174
0.629339
0.629447
0.629464
0.629402
0.62927
0.629038
0.628725
0.628333
0.627843
0.627273
0.626616
0.62586
0.62499
0.624012
0.622855
0.621687
0.620214
0.534816
0.552153
0.561402
0.574727
0.585565
0.594899
0.60209
0.607564
0.611657
0.61476
0.617127
0.61899
0.620512
0.621782
0.622881
0.623845
0.624693
0.625435
0.626081
0.626633
0.627094
0.627457
0.627742
0.627927
0.628054
0.628096
0.628057
0.627952
0.627749
0.627468
0.627109
0.626661
0.626134
0.625526
0.624824
0.624012
0.623093
0.621997
0.620878
0.619426
0.532626
0.54977
0.558936
0.572171
0.583154
0.592644
0.600007
0.605628
0.609839
0.613031
0.61546
0.617365
0.618916
0.620209
0.621325
0.622305
0.623167
0.623924
0.624584
0.625152
0.625629
0.626009
0.626311
0.626517
0.626662
0.626729
0.626712
0.626634
0.626459
0.62621
0.625884
0.625477
0.624994
0.624436
0.623789
0.623037
0.622185
0.621155
0.620093
0.618665
0.530647
0.547523
0.556588
0.569685
0.580781
0.590406
0.597931
0.603697
0.608026
0.611309
0.613802
0.615749
0.617331
0.618646
0.619779
0.620773
0.621648
0.622419
0.623092
0.623675
0.624167
0.624564
0.624883
0.625109
0.625271
0.625361
0.625366
0.625313
0.625166
0.624949
0.624657
0.624291
0.623852
0.623344
0.622754
0.622066
0.621285
0.62033
0.619333
0.617935
0.528876
0.545409
0.554358
0.567273
0.578449
0.588189
0.595864
0.601771
0.606219
0.609594
0.612152
0.614144
0.615756
0.617093
0.618243
0.619251
0.620137
0.620921
0.621606
0.622202
0.622708
0.623121
0.623456
0.623702
0.623881
0.623993
0.62402
0.623991
0.623872
0.623685
0.623428
0.623102
0.622708
0.622251
0.621719
0.621098
0.620393
0.619519
0.618599
0.61724
0.527311
0.543423
0.552244
0.564938
0.57616
0.585994
0.593809
0.599853
0.60442
0.607887
0.610512
0.61255
0.614194
0.615552
0.616717
0.617737
0.618634
0.619429
0.620126
0.620734
0.621253
0.621681
0.62203
0.622295
0.622492
0.622624
0.622673
0.622666
0.622576
0.622419
0.622196
0.62191
0.62156
0.621154
0.620681
0.620129
0.619506
0.618724
0.617892
0.616584
0.52595
0.541562
0.550245
0.562684
0.573919
0.583825
0.591768
0.597945
0.602631
0.606191
0.608884
0.61097
0.612645
0.614023
0.615203
0.616234
0.617139
0.617945
0.618652
0.61927
0.619801
0.620243
0.620606
0.620889
0.621104
0.621253
0.621325
0.621338
0.621277
0.621149
0.62096
0.620713
0.620407
0.620052
0.619639
0.61916
0.618624
0.617943
0.617215
0.615972
0.524793
0.539819
0.548355
0.560511
0.571727
0.581684
0.589744
0.59605
0.600854
0.604508
0.60727
0.609405
0.61111
0.612508
0.613702
0.614743
0.615655
0.616469
0.617184
0.617811
0.618353
0.618807
0.619184
0.619483
0.619715
0.619881
0.619975
0.620009
0.619975
0.619875
0.61972
0.619512
0.619249
0.618945
0.618592
0.618187
0.617743
0.617175
0.616567
0.615412
0.523847
0.538188
0.546573
0.558422
0.569589
0.579575
0.587742
0.594171
0.599093
0.602841
0.605673
0.607856
0.609591
0.611009
0.612214
0.613263
0.614181
0.615001
0.615724
0.616357
0.616909
0.617374
0.617763
0.618078
0.618326
0.618508
0.618623
0.618677
0.618669
0.618597
0.618475
0.618305
0.618084
0.617831
0.617538
0.617209
0.616861
0.616417
0.615951
0.61491
0.523116
0.536663
0.544896
0.556421
0.567512
0.57751
0.58577
0.592318
0.597354
0.601194
0.604096
0.606326
0.60809
0.609527
0.610742
0.611797
0.612719
0.613543
0.614271
0.614909
0.61547
0.615944
0.616345
0.616673
0.616938
0.617134
0.61727
0.617342
0.61736
0.617315
0.617225
0.617093
0.616912
0.616708
0.616476
0.616225
0.615974
0.615666
0.615365
0.614479
0.52261
0.535243
0.543321
0.554515
0.565504
0.575495
0.583835
0.590495
0.595642
0.599572
0.602543
0.604818
0.60661
0.608064
0.609288
0.610346
0.611271
0.612095
0.612826
0.613468
0.614035
0.614517
0.61493
0.615269
0.615549
0.615759
0.615915
0.616006
0.616048
0.61603
0.61597
0.615873
0.615733
0.615578
0.615404
0.61523
0.61508
0.614918
0.61481
0.614131
0.522364
0.533916
0.541816
0.552651
0.563502
0.573467
0.581879
0.588649
0.59391
0.597931
0.600975
0.6033
0.605122
0.606595
0.607828
0.608889
0.609815
0.610639
0.611373
0.612018
0.61259
0.61308
0.613503
0.613854
0.614148
0.614373
0.614547
0.614657
0.614722
0.614731
0.614701
0.614638
0.614538
0.61443
0.614314
0.614216
0.614168
0.614161
0.614278
0.613882
0.522393
0.53261
0.540292
0.550729
0.561404
0.571325
0.579807
0.586693
0.592079
0.596203
0.599328
0.601712
0.603573
0.605071
0.606319
0.607386
0.608317
0.609143
0.60988
0.61053
0.611108
0.611608
0.612042
0.612408
0.612717
0.612959
0.613151
0.613282
0.613371
0.613408
0.613407
0.613378
0.613319
0.613256
0.613198
0.613174
0.613229
0.613384
0.61376
0.613757
0.522581
0.531376
0.538921
0.549068
0.559615
0.569489
0.578004
0.584959
0.590424
0.594616
0.597795
0.600214
0.602096
0.603604
0.604854
0.60592
0.60685
0.607675
0.608412
0.609067
0.609649
0.610157
0.6106
0.610978
0.611298
0.611556
0.611764
0.611914
0.612022
0.612084
0.61211
0.61211
0.612087
0.612065
0.61206
0.612104
0.612254
0.612565
0.613219
0.613742
0.520811
0.527217
0.534746
0.544857
0.555554
0.565554
0.574195
0.581271
0.586858
0.591147
0.59437
0.596761
0.598548
0.599928
0.601051
0.602013
0.602871
0.603647
0.604351
0.604988
0.605557
0.606063
0.606506
0.606893
0.607223
0.607502
0.607733
0.607917
0.608063
0.608173
0.608256
0.608321
0.60838
0.608453
0.608568
0.608767
0.609133
0.609818
0.611213
0.613539
0.512502
0.519396
0.52752
0.537151
0.546952
0.556092
0.564125
0.570871
0.576346
0.580674
0.584031
0.586614
0.588617
0.590214
0.591539
0.592682
0.593697
0.594613
0.595446
0.596203
0.596888
0.597505
0.598058
0.598551
0.598986
0.599367
0.599698
0.599982
0.600224
0.600432
0.600611
0.600774
0.600935
0.601115
0.601348
0.601688
0.602239
0.603229
0.605162
0.608333
0.503109
0.510938
0.519329
0.528392
0.537392
0.545857
0.553445
0.559963
0.565383
0.56978
0.573291
0.576078
0.578307
0.580128
0.581663
0.582995
0.584179
0.585249