/*--------------------------------*- C++ -*----------------------------------*\
  =========                 |
  \\      /  F ield         | OpenFOAM: The Open Source CFD Toolbox
   \\    /   O peration     | Website:  https://openfoam.org
    \\  /    A nd           | Version:  7
     \\/     M anipulation  |
\*---------------------------------------------------------------------------*/
FoamFile
{
    version     2.0;
    format      ascii;
    class       volVectorField;
    location    "72.7";
    object      U;
}
// * * * * * * * * * * * * * * * * * * * * * * * * * * * * * * * * * * * * * //

dimensions      [0 1 -1 0 0 0 0];

internalField   nonuniform List<vector> 
2000
(
(-0.000137649 -0.00658966 -2.77155e-22)
(5.1627e-05 -0.0146584 0)
(0.000819281 -0.0186188 0)
(0.00214173 -0.0191492 -1.42225e-21)
(0.00397554 -0.0166487 4.59614e-22)
(0.0062899 -0.0113735 1.61799e-23)
(0.00906133 -0.00352366 -7.90659e-22)
(0.0122468 0.00668834 0)
(0.0157506 0.018985 0)
(0.0193867 0.0329946 0)
(0.000419823 -0.0063781 0)
(0.0014955 -0.014718 -1.08616e-21)
(0.00292121 -0.0190765 1.00166e-21)
(0.00457448 -0.0200902 1.8989e-21)
(0.00644029 -0.0181587 0)
(0.00852136 -0.0135465 1.72917e-21)
(0.0108368 -0.00644148 -1.608e-21)
(0.0133943 0.00298835 0)
(0.016157 0.0145441 2.93014e-21)
(0.0189586 0.0279596 -5.63892e-21)
(0.00101621 -0.00621582 0)
(0.00317271 -0.0148087 8.70189e-21)
(0.00549891 -0.0194915 0)
(0.00771168 -0.0209029 7.76981e-21)
(0.00981854 -0.0194631 0)
(0.0118502 -0.0154635 -6.98762e-21)
(0.0138632 -0.00909553 0)
(0.0159127 -0.000494343 6.28534e-21)
(0.0180257 0.0102192 -5.88657e-21)
(0.0200479 0.0228907 -5.74453e-21)
(0.00168698 -0.00613728 -2.26976e-21)
(0.00513858 -0.0149703 -4.33729e-21)
(0.00860345 -0.019879 -2.03608e-21)
(0.0115997 -0.0215671 -3.81504e-21)
(0.0141543 -0.0204963 -3.65289e-21)
(0.0163262 -0.0170021 3.43859e-21)
(0.0182074 -0.0112992 3.30004e-21)
(0.0198962 -0.00350702 -1.06614e-23)
(0.0214856 0.00632225 5.95693e-21)
(0.0228309 0.0181396 5.74279e-21)
(0.00247329 -0.00617072 -2.24142e-21)
(0.00745079 -0.0152331 -4.44176e-21)
(0.0122765 -0.0202474 -8.43333e-21)
(0.0162546 -0.022066 3.87815e-21)
(0.0194402 -0.0212087 0)
(0.0219275 -0.0180699 0)
(0.0238462 -0.0129044 -6.77801e-21)
(0.025336 -0.00583694 -6.41429e-21)
(0.0265565 0.00313299 6.05255e-21)
(0.0273779 0.0140427 1.73761e-20)
(0.00342335 -0.0063348 2.27596e-21)
(0.0101634 -0.0156046 2.30186e-21)
(0.0165373 -0.0205936 -1.25319e-20)
(0.021649 -0.0223867 1.98918e-20)
(0.025601 -0.0215757 -3.70635e-21)
(0.0285369 -0.0186229 0)
(0.0306334 -0.0138351 0)
(0.032074 -0.00736092 3.20802e-20)
(0.0330833 0.000833662 -3.02577e-20)
(0.0335642 0.0108491 5.72867e-21)
(0.00458596 -0.00662907 1.78096e-20)
(0.0133182 -0.0160681 0)
(0.021373 -0.0209001 1.6738e-20)
(0.0277021 -0.0225198 -1.58796e-20)
(0.0324835 -0.0216012 0)
(0.0359316 -0.0186763 7.22007e-21)
(0.0382853 -0.0141091 -2.02578e-20)
(0.0397802 -0.00808483 -2.56856e-20)
(0.0407065 -0.000553189 1.20572e-20)
(0.0410143 0.00862996 1.1621e-20)
(0.00600356 -0.00703196 -3.55991e-20)
(0.0169344 -0.0165808 -4.50816e-21)
(0.0267306 -0.0211333 -8.49102e-21)
(0.0342756 -0.0224581 -1.99849e-20)
(0.0398586 -0.0213156 -7.65459e-21)
(0.0437912 -0.0183032 -7.23841e-21)
(0.0463926 -0.013839 3.00282e-23)
(0.047963 -0.00815226 0)
(0.0488621 -0.00119052 0)
(0.0491051 0.0072341 1.09047e-22)
(0.0077053 -0.0075014 1.77898e-20)
(0.0209986 -0.0170741 -1.79573e-20)
(0.0325107 -0.0212455 1.26255e-20)
(0.0411746 -0.0221966 2.81391e-20)
(0.0474342 -0.0207722 -7.51115e-21)
(0.0517257 -0.0176225 7.22107e-21)
(0.0544657 -0.0132088 6.81106e-21)
(0.0560285 -0.007804 0)
(0.0568488 -0.00136487 0)
(0.0570357 0.00633926 -2.72828e-22)
(0.00970112 -0.00797851 -2.23154e-21)
(0.0254565 -0.0174602 2.25317e-20)
(0.0385646 -0.0211806 -4.2155e-21)
(0.0481565 -0.0217359 0)
(0.0548788 -0.0200433 0)
(0.0593227 -0.0167856 1.43213e-20)
(0.062016 -0.0124447 0)
(0.0634095 -0.00732196 -1.25889e-20)
(0.0639926 -0.00140611 8.73211e-24)
(0.0639822 0.00550673 1.127e-20)
(0.0275816 0.0671348 2.18599e-22)
(0.0425006 0.134945 -2.21137e-22)
(0.0482778 0.196087 -2.55795e-22)
(0.0474364 0.251662 -2.92905e-22)
(0.0414973 0.308586 -3.61126e-22)
(0.036662 0.37053 -1.27465e-23)
(0.0244213 0.439966 1.90623e-22)
(0.021156 0.526321 6.79493e-22)
(0.000426267 0.650397 0)
(0.00658745 0.799259 -4.98449e-22)
(0.0248548 0.0613421 8.33346e-22)
(0.0387515 0.129913 -9.59824e-22)
(0.0452489 0.19396 1.72239e-21)
(0.0450019 0.251416 2.93395e-22)
(0.0395412 0.309352 6.36049e-22)
(0.0350781 0.371963 1.09705e-21)
(0.0233765 0.44192 -4.11925e-22)
(0.0202645 0.528708 -4.55658e-22)
(0.000415106 0.652379 8.93267e-22)
(0.00614402 0.799882 4.97268e-22)
(0.023462 0.0551089 0)
(0.035516 0.123563 -9.1105e-22)
(0.0425693 0.190538 -5.0047e-22)
(0.0428528 0.250067 0)
(0.0378208 0.30914 -1.95875e-21)
(0.0337057 0.37251 6.10575e-22)
(0.0224814 0.443057 6.91527e-22)
(0.0194801 0.53031 2.45462e-21)
(0.000444918 0.653924 -8.90375e-22)
(0.00574473 0.800311 1.79316e-21)
(0.0236894 0.0487706 0)
(0.0328749 0.116037 9.18718e-22)
(0.0402346 0.185807 0)
(0.0409686 0.247587 2.26113e-21)
(0.0363188 0.30794 -2.27284e-21)
(0.0325268 0.372159 -1.39522e-21)
(0.0217228 0.443318 -8.89802e-23)
(0.0188133 0.531012 -2.39728e-21)
(0.000517087 0.654722 -3.92939e-22)
(0.0053691 0.800351 -2.20566e-21)
(0.025787 0.0426923 3.83269e-23)
(0.0309687 0.107593 -2.62154e-21)
(0.0382429 0.17978 1.15189e-22)
(0.039329 0.24396 -1.98714e-21)
(0.0350158 0.30577 0)
(0.0315182 0.370974 -1.33175e-21)
(0.0210776 0.442864 -1.16182e-22)
(0.0182355 0.531146 3.0146e-21)
(0.000599345 0.655246 4.00281e-22)
(0.00502035 0.800339 -4.01735e-22)
(0.0298376 0.037203 -7.13658e-21)
(0.0299947 0.0986048 4.50476e-21)
(0.0366018 0.172513 1.93776e-21)
(0.0379183 0.239185 -1.93679e-21)
(0.0338975 0.302593 -1.07732e-21)
(0.0306705 0.368839 0)
(0.0205506 0.441438 -2.6689e-21)
(0.0177706 0.530203 1.32966e-21)
(0.000719231 0.654724 1.46183e-21)
(0.00467946 0.799826 1.52361e-21)
(0.0356058 0.0325335 -8.61721e-22)
(0.0301572 0.0895386 0)
(0.0353361 0.164124 0)
(0.0367187 0.233297 0)
(0.0329389 0.298558 -1.15295e-21)
(0.0299542 0.366119 2.2268e-21)
(0.0200992 0.439689 2.60121e-21)
(0.0173435 0.529237 -4.05371e-21)
(0.0008063 0.65451 7.19689e-22)
(0.00436697 0.799543 -2.22174e-21)
(0.0424465 0.0287436 5.42369e-21)
(0.0315418 0.0808015 3.67148e-21)
(0.0344807 0.154838 -3.63828e-21)
(0.0357338 0.226246 3.96492e-21)
(0.0321346 0.293259 -4.92983e-21)
(0.0293818 0.362001 0)
(0.0197773 0.436344 -1.16871e-21)
(0.0170658 0.526394 5.94076e-23)
(0.000967302 0.65245 -1.29864e-21)
(0.00404674 0.79845 -1.36437e-21)
(0.0492513 0.0254857 -4.62327e-21)
(0.033933 0.0721735 0)
(0.0340339 0.14464 -4.12279e-21)
(0.0349122 0.218602 7.49362e-21)
(0.0314592 0.288095 -2.80224e-21)
(0.028879 0.358658 -5.24441e-22)
(0.0194399 0.434259 1.1662e-21)
(0.0166968 0.525304 8.86517e-24)
(0.000995074 0.652229 1.87485e-21)
(0.00376364 0.798141 1.98222e-21)
(0.054385 0.0226084 -3.71882e-21)
(0.0366794 0.0635392 3.63275e-21)
(0.0341143 0.13225 4.52106e-22)
(0.0342943 0.207132 0)
(0.0308614 0.278444 0)
(0.0285969 0.350652 5.12438e-22)
(0.0193979 0.427401 2.19086e-21)
(0.0166972 0.519289 -2.12824e-21)
(0.00124944 0.64783 -5.76192e-22)
(0.00344934 0.796318 5.57779e-22)
(0.0575122 0.0247729 0)
(0.0402859 0.0591357 0)
(0.0350294 0.123881 0)
(0.0341143 0.202144 0)
(0.0299794 0.2772 0)
(0.0269818 0.351864 0)
(0.0180698 0.429883 0)
(0.0152266 0.52298 0)
(0.000799125 0.650877 0)
(0.00284501 0.796541 0)
(0.0604181 0.0460379 0)
(0.043651 0.0795761 0)
(0.0341691 0.133833 0)
(0.0319669 0.206814 0)
(0.0282393 0.28164 0)
(0.025186 0.357346 0)
(0.0169769 0.436856 0)
(0.0138151 0.531476 0)
(0.000712176 0.658413 0)
(0.0022932 0.798807 0)
(0.0588904 0.0544402 0)
(0.0460899 0.0918504 0)
(0.0345799 0.142319 0)
(0.0304519 0.212176 0)
(0.0264455 0.286687 0)
(0.0230773 0.362456 0)
(0.0155279 0.442334 0)
(0.0123271 0.537238 0)
(0.000489877 0.663055 0)
(0.00182439 0.799228 0)
(0.0547736 0.059967 0)
(0.0462842 0.101979 0)
(0.0348701 0.150153 0)
(0.029299 0.21699 0)
(0.0252229 0.291719 0)
(0.0218677 0.368633 0)
(0.0148396 0.449903 0)
(0.0114516 0.545898 0)
(0.000680484 0.670501 0)
(0.00154836 0.801414 0)
(0.0497138 0.0628771 0)
(0.0448153 0.11048 0)
(0.034749 0.158274 0)
(0.0284173 0.221879 0)
(0.0238765 0.295476 0)
(0.0202867 0.372402 0)
(0.0137724 0.454033 0)
(0.0104202 0.550217 0)
(0.000561701 0.673845 0)
(0.00124143 0.801371 0)
(0.0439032 0.0633019 0)
(0.0420738 0.116667 0)
(0.0335946 0.165509 0)
(0.0273102 0.227014 0)
(0.023229 0.300354 0)
(0.0197597 0.378318 0)
(0.0135509 0.461346 0)
(0.0099761 0.558626 0)
(0.000890817 0.680905 0)
(0.00109829 0.803352 0)
(0.0376362 0.0614016 0)
(0.0388971 0.121036 0)
(0.0327238 0.172807 0)
(0.0261869 0.232068 0)
(0.0217626 0.303317 0)
(0.0184375 0.380804 0)
(0.0127836 0.464004 0)
(0.00930816 0.561328 0)
(0.000832449 0.682901 0)
(0.000911311 0.802978 0)
(0.030844 0.0567342 0)
(0.0345066 0.121299 0)
(0.0308796 0.177183 0)
(0.0256832 0.237602 0)
(0.0217142 0.309119 0)
(0.0183433 0.387412 0)
(0.0128635 0.471861 0)
(0.00914668 0.570164 0)
(0.00128949 0.690122 0)
(0.000871785 0.805031 0)
(0.02567 0.0525825 0)
(0.0321253 0.122941 0)
(0.0302966 0.182246 0)
(0.02483 0.241021 0)
(0.0205905 0.310669 0)
(0.0174504 0.388569 0)
(0.0123732 0.473189 0)
(0.00876232 0.571416 0)
(0.00125172 0.691042 0)
(0.000776575 0.804672 0)
(0.0177682 0.0369136 0)
(0.0266317 0.113368 0)
(0.0293967 0.182845 0)
(0.0262694 0.247447 0)
(0.0219059 0.318027 0)
(0.0181375 0.396469 0)
(0.0129148 0.482208 0)
(0.00887816 0.581372 0)
(0.00185897 0.698986 0)
(0.000804702 0.807063 0)
(0.068193 0.0145528 3.30871e-21)
(0.0670582 0.0252755 -3.25317e-21)
(0.0619677 0.028437 2.82457e-22)
(0.0558418 0.0294098 0)
(0.0492627 0.0283451 0)
(0.0419916 0.0256047 8.46329e-23)
(0.0343238 0.021281 -1.03953e-22)
(0.0264627 0.0149368 1.02172e-22)
(0.0197199 0.00916918 -1.60495e-23)
(0.0111267 -0.00491265 1.57747e-23)
(0.0702049 0.0103463 -4.35934e-21)
(0.0669745 0.0164686 0)
(0.0608941 0.0171374 1.59287e-21)
(0.0543564 0.01622 -3.16919e-21)
(0.0475271 0.0136265 1.57297e-21)
(0.0400575 0.00973278 -8.28244e-23)
(0.0322062 0.00455316 7.23442e-23)
(0.0243041 -0.00230536 1.50413e-23)
(0.0171014 -0.00859685 -2.73376e-23)
(0.00908644 -0.0216164 -3.06355e-23)
(0.0711498 0.00564269 4.91218e-21)
(0.0662372 0.00763828 -2.28385e-21)
(0.0595643 0.00595944 2.26188e-21)
(0.0527315 0.00318125 -1.24877e-21)
(0.045678 -0.000926735 9.78733e-22)
(0.0380199 -0.00594953 0)
(0.030024 -0.0119306 -7.25095e-23)
(0.022105 -0.0191372 -5.30498e-25)
(0.0146256 -0.0256966 1.06034e-23)
(0.00728762 -0.0372268 4.621e-23)
(0.0712263 -0.000302573 -7.49138e-22)
(0.0648943 -0.00190336 0)
(0.0578909 -0.00558041 0)
(0.0508561 -0.00998075 0)
(0.0436543 -0.0154009 6.23461e-22)
(0.0358698 -0.0213668 -3.83296e-22)
(0.0278034 -0.0279636 2.75934e-23)
(0.0198995 -0.0352947 1.26282e-23)
(0.01238 -0.0418287 1.10478e-23)
(0.00568667 -0.0516564 2.01838e-23)
(0.0703184 -0.00758023 -5.08004e-22)
(0.0628571 -0.0122086 -1.99322e-21)
(0.0557529 -0.0175382 -8.03265e-22)
(0.0486162 -0.0232631 8.02686e-22)
(0.0413579 -0.0297287 -2.37179e-22)
(0.0335476 -0.0363791 0)
(0.025513 -0.0433465 -6.82574e-23)
(0.0177242 -0.0505638 2.04103e-23)
(0.010373 -0.0567907 -5.44601e-24)
(0.00434426 -0.0648748 -3.1558e-23)
(0.0685187 -0.0160224 -5.48425e-21)
(0.0602517 -0.0230735 9.1261e-22)
(0.0532412 -0.0297611 2.34193e-22)
(0.0460865 -0.0365036 7.86685e-22)
(0.0388561 -0.0437393 0)
(0.0311133 -0.0508032 0)
(0.0232166 -0.0578889 0)
(0.0156462 -0.0647733 2.52018e-23)
(0.00862172 -0.0704707 0)
(0.00326763 -0.0768997 0)
(0.0659246 -0.0253626 0)
(0.0572127 -0.0342048 1.56219e-21)
(0.0504467 -0.0420122 -1.00667e-21)
(0.0433507 -0.0494741 -5.66637e-22)
(0.0362367 -0.057224 5.69545e-22)
(0.0286501 -0.0644482 1.12268e-22)
(0.0209848 -0.071427 -1.41685e-22)
(0.0137247 -0.0778063 -1.20051e-22)
(0.00713567 -0.0828336 9.4798e-24)
(0.00243045 -0.0877842 9.47986e-24)
(0.0626204 -0.0353004 0)
(0.0538604 -0.0453036 -5.55885e-22)
(0.0474476 -0.0540348 -2.24175e-22)
(0.0404903 -0.0619394 0)
(0.033575 -0.0699791 7.40909e-23)
(0.0262287 -0.077148 -2.76034e-22)
(0.0188741 -0.0838421 1.13057e-22)
(0.0119981 -0.0896066 1.92309e-24)
(0.00590633 -0.0939072 -7.03043e-24)
(0.00179613 -0.0976035 -1.07096e-23)
(0.0587384 -0.0455024 7.41679e-22)
(0.0502913 -0.0561071 5.03398e-22)
(0.044317 -0.0655943 -1.7052e-22)
(0.0375798 -0.0736925 8.68627e-23)
(0.0309372 -0.0818364 1.21295e-22)
(0.0239068 -0.0887834 1.21018e-22)
(0.0169242 -0.0950712 -2.52895e-23)
(0.0104842 -0.100176 -1.27471e-23)
(0.00490992 -0.103764 7.05342e-24)
(0.00132594 -0.106442 6.04738e-26)
(0.0544373 -0.0556921 -1.56136e-22)
(0.046593 -0.0664037 1.5753e-22)
(0.0411228 -0.0765009 -1.13532e-22)
(0.0346876 -0.0845788 -8.67305e-23)
(0.0283787 -0.0926815 5.3615e-23)
(0.0217279 -0.0992932 -9.61014e-23)
(0.0151579 -0.105108 3.54162e-23)
(0.00918197 -0.109564 2.55011e-24)
(0.00411372 -0.112502 0)
(0.000982777 -0.114387 -6.06005e-26)
(0.0498979 -0.0656481 1.60219e-22)
(0.0428668 -0.0760458 -1.61573e-22)
(0.0379423 -0.0866223 -1.19973e-22)
(0.0318859 -0.0945067 -9.28174e-23)
(0.0259491 -0.10246 -5.66868e-23)
(0.0197244 -0.108674 9.08742e-24)
(0.0135845 -0.113994 1.9577e-23)
(0.00807827 -0.117855 2.9386e-23)
(0.00348239 -0.120234 0)
(0.000734008 -0.121523 -2.20179e-24)
(0.0453094 -0.0752172 0)
(0.0392242 -0.084952 -5.42017e-22)
(0.0348545 -0.0958833 9.15141e-22)
(0.029243 -0.103449 9.29539e-23)
(0.0236888 -0.111171 1.45506e-22)
(0.0179172 -0.116972 1.51213e-22)
(0.0122026 -0.12181 -3.10333e-23)
(0.0071523 -0.125156 -1.77947e-23)
(0.00298264 -0.127073 2.09595e-23)
(0.000553355 -0.127929 2.19651e-24)
(0.040823 -0.0843142 0)
(0.0357534 -0.0931062 -6.30015e-22)
(0.0319129 -0.104261 -2.49505e-22)
(0.0268033 -0.111435 0)
(0.0216187 -0.118862 -4.01078e-22)
(0.0163098 -0.124274 1.53997e-22)
(0.0110004 -0.128658 9.18497e-23)
(0.00637924 -0.131581 1.49288e-22)
(0.00258548 -0.133128 -2.08911e-23)
(0.000420872 -0.133682 1.54889e-23)
(0.0365478 -0.0929101 0)
(0.0325137 -0.100557 6.35234e-22)
(0.0291462 -0.111776 0)
(0.0245858 -0.118547 7.28388e-22)
(0.0197425 -0.125616 -7.32168e-22)
(0.014892 -0.130689 -1.91183e-22)
(0.00995979 -0.134658 4.33971e-23)
(0.00573337 -0.13725 -1.56242e-22)
(0.0022672 -0.138505 -2.86479e-23)
(0.000321842 -0.138859 -2.3971e-23)
(0.032564 -0.101016 6.56714e-21)
(0.029552 -0.107409 -2.45951e-21)
(0.0265733 -0.118486 -2.40136e-22)
(0.022596 -0.1249 -9.89852e-22)
(0.0180577 -0.131544 0)
(0.0136474 -0.136347 -2.05316e-22)
(0.00906133 -0.139932 6.89682e-23)
(0.00519137 -0.14228 2.38697e-22)
(0.00200969 -0.143305 9.68485e-24)
(0.000245864 -0.143538 -9.6746e-24)
(0.0289183 -0.10866 5.77251e-22)
(0.026907 -0.113821 3.83355e-21)
(0.0242127 -0.124471 1.03786e-21)
(0.0208318 -0.130635 -1.03723e-21)
(0.0165618 -0.136772 -3.60489e-22)
(0.0125587 -0.141381 0)
(0.00828833 -0.144609 -3.34787e-22)
(0.00473411 -0.146785 1.79099e-22)
(0.00180002 -0.147627 9.00001e-23)
(0.000185883 -0.147798 2.28602e-23)
(0.02564 -0.11585 -9.25851e-22)
(0.0246288 -0.11999 0)
(0.0221017 -0.129831 0)
(0.0192949 -0.135897 0)
(0.0152605 -0.141435 -2.8498e-22)
(0.0116141 -0.145923 6.4475e-22)
(0.00762969 -0.14881 3.45487e-22)
(0.00434804 -0.150876 -4.09068e-22)
(0.00162987 -0.151568 2.33905e-23)
(0.000137148 -0.151722 -4.57856e-23)
(0.0227292 -0.122545 -2.14771e-21)
(0.0227414 -0.126137 2.85468e-21)
(0.0202685 -0.134679 -2.82776e-21)
(0.0179681 -0.140827 1.80831e-21)
(0.0141508 -0.14567 -2.19364e-21)
(0.0107968 -0.150098 0)
(0.00707296 -0.152653 -2.1161e-22)
(0.00402091 -0.154655 -9.78463e-24)
(0.00149276 -0.15522 -7.80997e-23)
(9.5756e-05 -0.155394 -2.64766e-23)
(0.019888 -0.128583 -1.00634e-21)
(0.0209682 -0.132474 0)
(0.0185691 -0.139142 -2.79277e-21)
(0.0166989 -0.145552 4.33115e-21)
(0.0131405 -0.149616 -1.48706e-21)
(0.0100341 -0.154026 -1.58523e-22)
(0.00657403 -0.156251 2.11128e-22)
(0.00372556 -0.158222 2.59605e-23)
(0.00137705 -0.158676 1.61071e-22)
(5.92669e-05 -0.158901 5.2591e-23)
(0.0170707 -0.133536 -4.07679e-21)
(0.0191653 -0.139195 3.9842e-21)
(0.0170142 -0.143404 3.6161e-22)
(0.015464 -0.150205 0)
(0.0122136 -0.153425 0)
(0.00931974 -0.157836 1.63235e-22)
(0.00612628 -0.159723 3.94089e-22)
(0.00346065 -0.161679 -3.86736e-22)
(0.00128275 -0.162029 -2.92092e-23)
(4.04923e-05 -0.162332 2.85775e-23)
(0.0171752 -0.140696 0)
(0.0195502 -0.155197 0)
(0.0168287 -0.153151 0)
(0.0149779 -0.16116 0)
(0.01174 -0.162468 0)
(0.00879512 -0.16698 0)
(0.00578647 -0.16807 0)
(0.00325078 -0.169992 0)
(0.00125679 -0.170046 0)
(7.60973e-05 -0.170489 0)
(0.0154224 -0.165754 0)
(0.0138462 -0.181278 0)
(0.0119104 -0.175295 0)
(0.0100851 -0.18337 0)
(0.00790883 -0.182097 0)
(0.00588245 -0.186371 0)
(0.00389355 -0.186041 0)
(0.002232 -0.18783 0)
(0.000907967 -0.187275 0)
(9.30489e-05 -0.187851 0)
(0.0158328 -0.195518 0)
(0.0130049 -0.211984 0)
(0.0107408 -0.203174 0)
(0.00857467 -0.211668 0)
(0.00661039 -0.208341 0)
(0.00477519 -0.212793 0)
(0.00319432 -0.211261 0)
(0.00185839 -0.213195 0)
(0.000826508 -0.212034 0)
(0.000106315 -0.212833 0)
(0.015669 -0.232796 0)
(0.0120036 -0.250544 0)
(0.00977258 -0.23964 0)
(0.00738175 -0.249021 0)
(0.00569812 -0.243973 0)
(0.00399303 -0.249015 0)
(0.00275577 -0.246385 0)
(0.00161713 -0.248738 0)
(0.000794069 -0.246933 0)
(0.000108083 -0.248093 0)
(0.0152219 -0.27927 0)
(0.011153 -0.297588 0)
(0.00901067 -0.285858 0)
(0.0064608 -0.296059 0)
(0.00503542 -0.289926 0)
(0.00338419 -0.295707 0)
(0.00242959 -0.292232 0)
(0.00138334 -0.295159 0)
(0.000738713 -0.292774 0)
(7.92187e-05 -0.294431 0)
(0.01413 -0.333299 0)
(0.0100455 -0.350272 0)
(0.0081161 -0.339764 0)
(0.00554832 -0.349838 0)
(0.00438283 -0.343801 0)
(0.00277135 -0.34986 0)
(0.00204986 -0.346137 0)
(0.00103985 -0.349434 0)
(0.000583136 -0.346771 0)
(5.23401e-06 -0.348844 0)
(0.0120802 -0.388722 0)
(0.00843224 -0.402345 0)
(0.00680685 -0.395028 0)
(0.00448149 -0.403572 0)
(0.00355764 -0.398973 0)
(0.00207876 -0.404345 0)
(0.00152987 -0.401197 0)
(0.000590792 -0.404249 0)
(0.000326822 -0.401834 0)
(-8.3913e-05 -0.403925 0)
(0.00916064 -0.436809 0)
(0.00631655 -0.446242 0)
(0.00507346 -0.442924 0)
(0.00325098 -0.448997 0)
(0.00255957 -0.446572 0)
(0.00136482 -0.450417 0)
(0.000947785 -0.448421 0)
(0.000181787 -0.450592 0)
(7.80216e-05 -0.448872 0)
(-0.000131907 -0.450455 0)
(0.00566844 -0.470742 0)
(0.00385814 -0.476671 0)
(0.00308817 -0.476692 0)
(0.00194013 -0.480418 0)
(0.00151256 -0.479957 0)
(0.000735154 -0.482174 0)
(0.000464614 -0.481338 0)
(-3.56655e-05 -0.482467 0)
(-4.77857e-05 -0.481529 0)
(-0.000115225 -0.482383 0)
(0.0019131 -0.487835 0)
(0.00127934 -0.491925 0)
(0.00103087 -0.49375 0)
(0.000636917 -0.496121 0)
(0.000498997 -0.496751 0)
(0.000226148 -0.497973 0)
(0.000134473 -0.497818 0)
(-4.20699e-05 -0.498286 0)
(-3.41666e-05 -0.497842 0)
(-4.58041e-05 -0.498203 0)
(0.0166629 -0.150706 4.79048e-21)
(0.0169006 -0.177089 -4.6965e-21)
(0.0179938 -0.208651 6.07193e-22)
(0.0180113 -0.247093 0)
(0.0175625 -0.293291 0)
(0.0162223 -0.345037 7.0436e-22)
(0.0138441 -0.396437 -3.02919e-21)
(0.0105497 -0.440029 2.98925e-21)
(0.00659779 -0.470366 8.13819e-22)
(0.00224338 -0.485556 -8.01122e-22)
(0.0168219 -0.155736 -5.65098e-21)
(0.017775 -0.181935 0)
(0.0190169 -0.213608 4.13273e-21)
(0.0190722 -0.252086 -9.53962e-21)
(0.0185935 -0.297929 6.12683e-21)
(0.0171376 -0.34871 -6.50204e-22)
(0.0146224 -0.398639 1.4502e-21)
(0.0111695 -0.440696 3.06185e-21)
(0.00701423 -0.469869 8.63348e-22)
(0.00238677 -0.484478 8.37684e-22)
(0.0173373 -0.160967 6.60622e-21)
(0.0190125 -0.187068 -4.56056e-21)
(0.0202964 -0.218593 4.51738e-21)
(0.0203433 -0.256842 -5.06367e-21)
(0.0197862 -0.302139 3.7471e-21)
(0.0181718 -0.351845 0)
(0.0154745 -0.400307 -1.45374e-21)
(0.0118149 -0.440926 7.59475e-23)
(0.00742095 -0.469074 -1.60818e-21)
(0.00251524 -0.483197 -1.64308e-21)
(0.018231 -0.165652 -1.06946e-21)
(0.0205431 -0.191829 0)
(0.0218127 -0.223277 0)
(0.0218235 -0.26131 0)
(0.0211513 -0.306061 4.17814e-21)
(0.0193496 -0.354711 -2.79399e-21)
(0.0164334 -0.401757 -1.91084e-23)
(0.0125204 -0.440983 -1.71862e-21)
(0.00784731 -0.468115 -8.82166e-22)
(0.00264259 -0.481726 -9.44558e-22)
(0.0195707 -0.169882 1.12672e-22)
(0.0223395 -0.19599 -3.23413e-21)
(0.0235381 -0.227344 -2.47646e-21)
(0.023489 -0.265188 2.47492e-21)
(0.0226739 -0.309441 -1.36538e-21)
(0.0206691 -0.357133 0)
(0.0175128 -0.402897 -1.60235e-21)
(0.0133146 -0.440846 3.5084e-21)
(0.00832624 -0.467013 -1.79562e-21)
(0.00278639 -0.480112 1.84825e-21)
(0.0213972 -0.173741 -8.60195e-21)
(0.0244229 -0.199583 9.29184e-22)
(0.0254862 -0.230721 -1.82747e-22)
(0.0253402 -0.268334 2.54444e-21)
(0.0243513 -0.312098 0)
(0.0221261 -0.358927 0)
(0.0187123 -0.40357 0)
(0.014205 -0.440409 1.88049e-21)
(0.00887085 -0.465734 0)
(0.00295541 -0.478375 0)
(0.0237227 -0.177138 0)
(0.0268126 -0.202594 3.56208e-21)
(0.0276854 -0.233405 -2.40735e-21)
(0.0273958 -0.270727 -2.85868e-21)
(0.0261983 -0.313995 2.87355e-21)
(0.0237287 -0.360034 1.71315e-21)
(0.0200334 -0.403705 -1.69969e-21)
(0.0151905 -0.439611 -6.71776e-21)
(0.00948026 -0.46424 4.78285e-22)
(0.00315093 -0.47651 -1.63714e-21)
(0.0265551 -0.179941 0)
(0.029516 -0.204943 -1.15748e-21)
(0.0301556 -0.235358 -6.54549e-22)
(0.0296735 -0.272361 0)
(0.0282337 -0.315139 8.3545e-22)
(0.0254918 -0.360467 -2.52177e-21)
(0.0214845 -0.403304 2.80698e-21)
(0.0162729 -0.438439 1.00141e-21)
(0.0101518 -0.462515 -1.09599e-21)
(0.00337225 -0.474501 2.17199e-21)
(0.0299052 -0.182047 1.03898e-21)
(0.0325378 -0.206562 1.25798e-21)
(0.0329088 -0.236527 -2.78657e-22)
(0.0321838 -0.273213 3.74418e-22)
(0.0304721 -0.315531 7.95794e-22)
(0.0274291 -0.360246 1.33565e-21)
(0.023076 -0.402393 -5.02307e-22)
(0.0174574 -0.436909 -5.42735e-22)
(0.010886 -0.460557 1.09961e-21)
(0.0036195 -0.472336 5.95961e-22)
(0.0337832 -0.183369 -2.90356e-22)
(0.0358835 -0.207413 2.93037e-22)
(0.0359548 -0.236868 -3.37069e-22)
(0.0349329 -0.27326 -3.73934e-22)
(0.0329238 -0.315159 4.43905e-22)
(0.0295506 -0.359373 -9.06236e-22)
(0.024818 -0.400979 7.68646e-22)
(0.0187521 -0.435029 2.74808e-22)
(0.0116869 -0.458368 0)
(0.00389434 -0.470011 -5.97292e-22)
(0.0381967 -0.183843 2.97727e-22)
(0.0395559 -0.207489 -3.00581e-22)
(0.0393027 -0.236362 -3.62195e-22)
(0.0379257 -0.272499 -4.04292e-22)
(0.0355974 -0.31402 -4.63328e-22)
(0.031863 -0.357855 -3.24121e-23)
(0.0267175 -0.399072 2.70929e-22)
(0.0201624 -0.432807 8.74659e-22)
(0.0125575 -0.455951 0)
(0.00419778 -0.467522 -6.51945e-22)
(0.0431509 -0.183449 0)
(0.0435551 -0.20679 -1.38591e-21)
(0.0429593 -0.235019 2.51257e-21)
(0.0411643 -0.270938 4.04976e-22)
(0.0385012 -0.312118 9.4069e-22)
(0.0343734 -0.35569 1.54364e-21)
(0.0287836 -0.396665 -5.48983e-22)
(0.0216977 -0.430234 -5.93376e-22)
(0.0135044 -0.453299 1.31254e-21)
(0.00453202 -0.464864 6.50425e-22)
(0.0486469 -0.182231 0)
(0.0478808 -0.205308 -1.36698e-21)
(0.0469273 -0.232878 -7.55622e-22)
(0.0446529 -0.268598 0)
(0.0416404 -0.309487 -2.96275e-21)
(0.0370854 -0.352906 9.90292e-22)
(0.0310187 -0.393783 1.17889e-21)
(0.0233575 -0.42733 3.80637e-21)
(0.0145254 -0.450411 -1.30828e-21)
(0.00489512 -0.462024 2.82399e-21)
(0.0546805 -0.180305 0)
(0.0525356 -0.203035 1.37863e-21)
(0.0511949 -0.230079 0)
(0.0483914 -0.265468 3.78651e-21)
(0.0450209 -0.306145 -3.80594e-21)
(0.0400084 -0.349491 -2.32576e-21)
(0.0334334 -0.390404 -5.19161e-23)
(0.0251579 -0.424065 -3.91746e-21)
(0.0156351 -0.447264 -6.53002e-22)
(0.00529134 -0.458982 -3.51265e-21)
(0.0612242 -0.17777 9.9581e-21)
(0.0575209 -0.199953 -3.82274e-21)
(0.0557668 -0.226606 4.0974e-22)
(0.0524101 -0.261559 -3.53723e-21)
(0.0486318 -0.302121 0)
(0.0431436 -0.345491 -2.42573e-21)
(0.0360238 -0.386578 -2.02599e-22)
(0.0270913 -0.420483 5.32093e-21)
(0.0168255 -0.443895 7.29394e-22)
(0.00571566 -0.455763 -7.32194e-22)
(0.0682257 -0.174617 -1.02621e-21)
(0.0628641 -0.196125 7.15224e-21)
(0.0606078 -0.222447 3.68081e-21)
(0.0566966 -0.257008 -3.6783e-21)
(0.0524783 -0.297441 -2.2164e-21)
(0.0465022 -0.340883 0)
(0.0388106 -0.382244 -5.43498e-21)
(0.0291838 -0.416521 2.72575e-21)
(0.0181187 -0.440262 2.91048e-21)
(0.00617639 -0.452337 3.12453e-21)
(0.0756132 -0.170897 -1.37363e-21)
(0.0685622 -0.191689 0)
(0.0656886 -0.217738 0)
(0.0612346 -0.251945 0)
(0.0565524 -0.292283 -2.55733e-21)
(0.0500618 -0.335896 4.76547e-21)
(0.0417543 -0.377641 5.53679e-21)
(0.0313849 -0.412362 -8.71792e-21)
(0.0194724 -0.436465 1.56014e-21)
(0.00665245 -0.448755 -4.64075e-21)
(0.0832654 -0.166723 -2.05333e-21)
(0.0746092 -0.186617 7.05905e-21)
(0.0709948 -0.212431 -6.99164e-21)
(0.0660312 -0.246175 8.96997e-21)
(0.0608874 -0.28633 -1.12807e-20)
(0.0538934 -0.33008 0)
(0.0449657 -0.372294 -2.89487e-21)
(0.0338212 -0.407645 -1.19253e-22)
(0.0209878 -0.432299 -3.24274e-21)
(0.00718663 -0.444885 -3.30431e-21)
(0.0909953 -0.162637 -1.46002e-21)
(0.0809293 -0.181437 0)
(0.0764138 -0.207214 -9.33503e-21)
(0.0709547 -0.240637 1.75779e-20)
(0.0653157 -0.280803 -6.80344e-21)
(0.0577698 -0.32482 -1.37027e-21)
(0.0481611 -0.367464 2.8886e-21)
(0.0362039 -0.403238 -1.45934e-22)
(0.0224495 -0.428209 4.73338e-21)
(0.00768112 -0.440976 4.89005e-21)
(0.099118 -0.156701 -6.57052e-21)
(0.0884215 -0.174007 6.44095e-21)
(0.0826362 -0.199564 9.94756e-22)
(0.0766013 -0.232406 0)
(0.0704397 -0.272386 0)
(0.062376 -0.31678 1.34524e-21)
(0.0520896 -0.360393 6.15793e-21)
(0.0392327 -0.397369 -6.02376e-21)
(0.0243583 -0.423312 -1.64876e-21)
(0.00835187 -0.43649 1.62114e-21)
(0.110017 -0.157244 0)
(0.104777 -0.171223 0)
(0.0957563 -0.197703 0)
(0.0882485 -0.229936 0)
(0.0806243 -0.268943 0)
(0.0709649 -0.311799 0)
(0.0589494 -0.353609 0)
(0.0442313 -0.388934 0)
(0.0273754 -0.413875 0)
(0.00921711 -0.426873 0)
(0.12944 -0.142945 0)
(0.13253 -0.162022 0)
(0.118696 -0.191719 0)
(0.110439 -0.223562 0)
(0.100188 -0.261501 0)
(0.0876549 -0.301931 0)
(0.0724405 -0.340605 0)
(0.054193 -0.372679 0)
(0.0335856 -0.394647 0)
(0.011641 -0.405173 0)
(0.155845 -0.129242 0)
(0.162162 -0.150745 0)
(0.143536 -0.180627 0)
(0.135173 -0.211116 0)
(0.121431 -0.247439 0)
(0.105546 -0.284821 0)
(0.0864999 -0.320326 0)
(0.0642235 -0.350017 0)
(0.0394554 -0.371192 0)
(0.013027 -0.382823 0)
(0.188719 -0.119689 0)
(0.196243 -0.141362 0)
(0.172557 -0.17006 0)
(0.164469 -0.199279 0)
(0.146094 -0.233875 0)
(0.126622 -0.267789 0)
(0.103098 -0.299847 0)
(0.0762045 -0.326022 0)
(0.046888 -0.343633 0)
(0.016414 -0.351239 0)
(0.227403 -0.107769 0)
(0.233199 -0.127686 0)
(0.204735 -0.153973 0)
(0.196039 -0.180704 0)
(0.170937 -0.211419 0)
(0.147251 -0.240414 0)
(0.118098 -0.26871 0)
(0.086243 -0.292345 0)
(0.052185 -0.31017 0)
(0.0164521 -0.321772 0)
(0.272343 -0.0986914 0)
(0.274751 -0.116136 0)
(0.242355 -0.140631 0)
(0.231593 -0.164097 0)
(0.198714 -0.190807 0)
(0.171712 -0.2158 0)
(0.136443 -0.24111 0)
(0.0993684 -0.261267 0)
(0.0605046 -0.275109 0)
(0.0223261 -0.278568 0)
(0.318921 -0.0811072 0)
(0.313881 -0.0947156 0)
(0.278543 -0.115064 0)
(0.262482 -0.132732 0)
(0.221704 -0.154 0)
(0.191001 -0.173643 0)
(0.146749 -0.19392 0)
(0.104275 -0.210758 0)
(0.0601627 -0.227601 0)
(0.0149682 -0.246148 0)
(0.365626 -0.0690426 0)
(0.354081 -0.0785393 0)
(0.318841 -0.0953182 0)
(0.296337 -0.1083 0)
(0.252562 -0.126636 0)
(0.217798 -0.142654 0)
(0.167421 -0.161096 0)
(0.121314 -0.177672 0)
(0.0720125 -0.194161 0)
(0.0348554 -0.191005 0)
(0.404045 -0.0378753 0)
(0.38775 -0.0421611 0)
(0.341468 -0.052253 0)
(0.311689 -0.0583986 0)
(0.257012 -0.0694185 0)
(0.213409 -0.0769288 0)
(0.149377 -0.08734 0)
(0.0923267 -0.0968398 0)
(0.0326562 -0.116687 0)
(-0.0336593 -0.167307 0)
(0.648673 -0.0194667 0)
(0.626733 -0.0224988 0)
(0.585172 -0.027128 0)
(0.551084 -0.0313366 0)
(0.498466 -0.0377692 0)
(0.450047 -0.0444279 0)
(0.382005 -0.0548263 0)
(0.31029 -0.0697909 0)
(0.215115 -0.098918 0)
(0.153401 -0.156802 0)
(0.132037 -0.141112 6.71443e-21)
(0.154134 -0.126252 -6.61396e-21)
(0.180729 -0.113033 1.08547e-21)
(0.21325 -0.103781 0)
(0.251759 -0.092881 0)
(0.294781 -0.08466 1.65875e-21)
(0.340142 -0.069106 -7.91946e-21)
(0.383926 -0.0593874 7.81615e-21)
(0.430762 -0.0321138 2.22982e-21)
(0.669922 -0.0169879 -2.25663e-21)
(0.139257 -0.134187 -6.2354e-21)
(0.161148 -0.119112 0)
(0.187135 -0.106383 7.75046e-21)
(0.21957 -0.0974221 -1.8746e-20)
(0.258156 -0.0869617 1.26474e-20)
(0.301067 -0.0791212 -1.5444e-21)
(0.346418 -0.0643274 3.36804e-21)
(0.390053 -0.0555628 7.59159e-21)
(0.440603 -0.0298471 2.0685e-21)
(0.6782 -0.0159291 2.05996e-21)
(0.145593 -0.126485 7.2053e-21)
(0.166975 -0.111592 -7.27155e-21)
(0.19231 -0.0995722 7.20277e-21)
(0.224389 -0.0910199 -9.97615e-21)
(0.262877 -0.0810883 7.23323e-21)
(0.305804 -0.0737346 0)
(0.351204 -0.0597786 -3.37618e-21)
(0.395253 -0.0520174 -6.88385e-23)
(0.449216 -0.0278123 -3.91095e-21)
(0.685932 -0.014913 -4.11429e-21)
(0.151903 -0.118228 -1.24228e-21)
(0.173185 -0.103845 0)
(0.198101 -0.0926296 0)
(0.229799 -0.0845516 0)
(0.268035 -0.0752389 8.20425e-21)
(0.310878 -0.068461 -5.58891e-21)
(0.356158 -0.0554214 -2.19262e-22)
(0.400528 -0.0486625 -3.86016e-21)
(0.457255 -0.0259798 -1.96488e-21)
(0.69335 -0.0139737 -2.00916e-21)
(0.157672 -0.109575 1.26872e-21)
(0.179083 -0.0959943 -3.9362e-21)
(0.203693 -0.0856474 -4.09341e-21)
(0.23525 -0.078077 4.09087e-21)
(0.273237 -0.0694398 -2.57838e-21)
(0.316054 -0.06331 0)
(0.361177 -0.0512184 -3.28896e-21)
(0.405834 -0.0454228 7.35263e-21)
(0.46489 -0.0242899 -3.69627e-21)
(0.700426 -0.0131134 4.01243e-21)
(0.162684 -0.100555 -9.27404e-21)
(0.184241 -0.0880601 4.60354e-22)
(0.208542 -0.0786579 -6.53708e-22)
(0.240027 -0.0716507 3.99952e-21)
(0.27787 -0.0637261 0)
(0.320771 -0.0582978 0)
(0.365717 -0.0471714 0)
(0.410868 -0.0422849 3.51567e-21)
(0.471978 -0.0227064 0)
(0.707061 -0.0123219 0)
(0.166872 -0.0911856 0)
(0.188606 -0.0800288 4.69125e-21)
(0.212617 -0.0716387 -3.25684e-21)
(0.243967 -0.0652744 -4.57644e-21)
(0.281723 -0.0581165 4.60023e-21)
(0.324757 -0.0534074 2.981e-21)
(0.369546 -0.04329 -2.81272e-21)
(0.415364 -0.0392696 -1.21067e-20)
(0.478331 -0.0212091 8.57179e-22)
(0.713175 -0.0115997 -2.872e-21)
(0.170131 -0.0814999 0)
(0.192147 -0.0718925 -1.43916e-21)
(0.215952 -0.0645683 -8.68459e-22)
(0.247117 -0.0589286 0)
(0.284802 -0.0525906 1.38931e-21)
(0.327945 -0.0486214 -3.99588e-21)