/*--------------------------------*- C++ -*----------------------------------*\
  =========                 |
  \\      /  F ield         | OpenFOAM: The Open Source CFD Toolbox
   \\    /   O peration     | Website:  https://openfoam.org
    \\  /    A nd           | Version:  7
     \\/     M anipulation  |
\*---------------------------------------------------------------------------*/
FoamFile
{
    version     2.0;
    format      ascii;
    class       volScalarField;
    location    "3.3";
    object      p;
}
// * * * * * * * * * * * * * * * * * * * * * * * * * * * * * * * * * * * * * //

dimensions      [0 2 -2 0 0 0 0];

internalField   nonuniform List<scalar> 
32000
(
0.865148
0.863988
0.863876
0.863976
0.864376
0.865015
0.865843
0.866824
0.86793
0.869136
0.870424
0.871787
0.873236
0.874785
0.876439
0.878196
0.880049
0.881986
0.883998
0.886071
0.888196
0.890366
0.892573
0.894811
0.89707
0.899338
0.901604
0.903856
0.906086
0.908285
0.910446
0.91256
0.91462
0.916622
0.918561
0.920432
0.92223
0.923962
0.925615
0.927022
0.86342
0.862359
0.862284
0.862417
0.862841
0.86349
0.864311
0.865266
0.866331
0.867483
0.868699
0.869974
0.871321
0.872754
0.87428
0.875901
0.877611
0.879402
0.881266
0.883194
0.885176
0.887207
0.889283
0.8914
0.893549
0.895721
0.897902
0.90008
0.902244
0.904389
0.906504
0.90858
0.91061
0.912588
0.914509
0.916366
0.918154
0.919877
0.921522
0.922927
0.861617
0.860678
0.860645
0.860813
0.861262
0.861922
0.862737
0.863664
0.864684
0.865777
0.866916
0.8681
0.869342
0.870656
0.872051
0.87353
0.875093
0.876732
0.878443
0.880219
0.882054
0.883943
0.885885
0.887877
0.889915
0.891988
0.894083
0.896185
0.898286
0.900375
0.902445
0.904485
0.906487
0.908446
0.910352
0.9122
0.91398
0.915698
0.91734
0.918749
0.859762
0.858937
0.858948
0.859157
0.859633
0.860306
0.861115
0.862017
0.862991
0.864018
0.865078
0.866169
0.867303
0.868495
0.869756
0.87109
0.8725
0.873982
0.875536
0.877157
0.878839
0.880583
0.882387
0.884254
0.886179
0.888151
0.890158
0.892184
0.894219
0.896254
0.898279
0.900285
0.902263
0.904204
0.9061
0.90794
0.909717
0.911434
0.913079
0.914493
0.857874
0.857177
0.857232
0.857482
0.857983
0.858664
0.859464
0.860338
0.861262
0.86222
0.863197
0.864191
0.865215
0.866283
0.867405
0.86859
0.869843
0.871166
0.872558
0.874019
0.875546
0.877139
0.878805
0.880544
0.882354
0.884225
0.88614
0.888088
0.890057
0.892037
0.894019
0.895993
0.897949
0.899876
0.901763
0.903598
0.905374
0.907093
0.908745
0.910169
0.855942
0.855375
0.855476
0.855767
0.856292
0.856982
0.857773
0.858619
0.859494
0.860384
0.861276
0.862172
0.863084
0.864025
0.865006
0.86604
0.867135
0.868295
0.869523
0.87082
0.872186
0.873628
0.875153
0.876764
0.878458
0.880224
0.882047
0.883914
0.885815
0.88774
0.88968
0.891624
0.893559
0.895473
0.897352
0.899186
0.900963
0.902687
0.904349
0.905786
0.853981
0.853552
0.8537
0.854034
0.854584
0.855282
0.856062
0.856878
0.857704
0.858524
0.859331
0.860126
0.860924
0.861736
0.862575
0.863457
0.864391
0.865386
0.866445
0.867574
0.868778
0.870067
0.87145
0.872932
0.874508
0.876166
0.877894
0.879679
0.881512
0.883382
0.88528
0.887194
0.889109
0.89101
0.892884
0.894717
0.896498
0.898229
0.899903
0.901354
0.851996
0.851712
0.851911
0.852288
0.852863
0.853569
0.854337
0.855122
0.855897
0.856648
0.857369
0.858064
0.858745
0.859427
0.860124
0.860852
0.861625
0.862452
0.86334
0.864298
0.865338
0.866474
0.867716
0.869068
0.870522
0.872071
0.873701
0.875403
0.877167
0.878983
0.880839
0.882723
0.884617
0.886505
0.888373
0.890207
0.891993
0.893732
0.89542
0.896887
0.849997
0.84986
0.85011
0.850533
0.851132
0.851846
0.852603
0.853357
0.854082
0.854765
0.8554
0.855994
0.856559
0.857111
0.857665
0.85824
0.858851
0.859509
0.860224
0.861011
0.861888
0.862871
0.863971
0.865189
0.866521
0.867957
0.86949
0.871108
0.872803
0.874564
0.876378
0.87823
0.880102
0.881977
0.883839
0.885673
0.887464
0.889212
0.890916
0.892399
0.847987
0.848001
0.848304
0.848772
0.849397
0.850118
0.850864
0.851588
0.852265
0.852882
0.853434
0.853927
0.854376
0.854799
0.855212
0.855635
0.856084
0.856573
0.857115
0.857732
0.858447
0.859277
0.860234
0.861318
0.862525
0.863849
0.865282
0.866817
0.868443
0.870147
0.871917
0.873735
0.875584
0.877444
0.879299
0.881133
0.882929
0.884685
0.886403
0.887903
0.845974
0.84614
0.846496
0.84701
0.84766
0.848389
0.849124
0.849821
0.850453
0.851007
0.851477
0.851872
0.852208
0.852504
0.852778
0.853051
0.853339
0.853659
0.85403
0.85448
0.855035
0.855714
0.856526
0.857474
0.858556
0.859767
0.861102
0.862552
0.864107
0.865754
0.867478
0.869262
0.871084
0.872928
0.874775
0.876607
0.878406
0.880167
0.881898
0.883414
0.843965
0.84428
0.84469
0.84525
0.845925
0.84666
0.847388
0.848061
0.848653
0.849147
0.84954
0.84984
0.850066
0.850238
0.850376
0.850501
0.850631
0.850784
0.850987
0.851273
0.851671
0.852198
0.852866
0.853679
0.854636
0.855735
0.856971
0.858335
0.859819
0.861408
0.863084
0.86483
0.866624
0.868448
0.870284
0.872112
0.873911
0.875675
0.877416
0.878942
0.841964
0.842427
0.84289
0.843496
0.844195
0.844938
0.845661
0.846314
0.846869
0.847308
0.847628
0.847838
0.847958
0.848011
0.848017
0.847998
0.847973
0.847964
0.848004
0.84813
0.848373
0.84875
0.849275
0.849953
0.850786
0.851773
0.85291
0.85419
0.855602
0.85713
0.858756
0.860461
0.862223
0.864025
0.865847
0.867667
0.869461
0.871223
0.87297
0.874507
0.839978
0.840582
0.841098
0.841748
0.842472
0.843226
0.843947
0.844584
0.845107
0.845497
0.845749
0.845875
0.845895
0.845833
0.845712
0.845554
0.845378
0.845213
0.845096
0.845067
0.845157
0.845387
0.84577
0.846315
0.847026
0.847903
0.848942
0.850136
0.851475
0.85294
0.854514
0.856174
0.857902
0.859678
0.861481
0.863288
0.865074
0.866828
0.868574
0.870116
0.83801
0.83875
0.839317
0.840011
0.840761
0.841527
0.84225
0.842876
0.843372
0.843718
0.843909
0.843957
0.843882
0.843712
0.84347
0.843178
0.842859
0.842545
0.842277
0.842098
0.84204
0.842124
0.842368
0.842783
0.843374
0.844142
0.845084
0.846193
0.847457
0.848858
0.850375
0.851988
0.853678
0.855424
0.857204
0.858993
0.860763
0.862504
0.864242
0.865784
0.836064
0.83693
0.837548
0.838285
0.839063
0.839845
0.840574
0.841193
0.841668
0.841977
0.842114
0.84209
0.841929
0.841657
0.8413
0.840881
0.840426
0.83997
0.839559
0.839235
0.839032
0.838976
0.839085
0.839371
0.839844
0.840506
0.841353
0.842377
0.843564
0.844897
0.846355
0.847918
0.849567
0.851279
0.85303
0.854795
0.856542
0.858261
0.859984
0.86152
0.834141
0.835124
0.835791
0.836571
0.837379
0.838181
0.838919
0.839538
0.839998
0.840276
0.840367
0.84028
0.840039
0.839671
0.839206
0.838668
0.838086
0.837498
0.83695
0.836487
0.836146
0.835953
0.83593
0.836093
0.836451
0.837009
0.837761
0.838699
0.839808
0.841071
0.842467
0.843978
0.845581
0.847254
0.848971
0.850704
0.852422
0.854111
0.85581
0.857334
0.832243
0.833332
0.834046
0.83487
0.835711
0.836536
0.837289
0.837911
0.838363
0.838619
0.838671
0.838529
0.838215
0.837759
0.837193
0.836544
0.835844
0.835132
0.834456
0.833861
0.833385
0.833061
0.832911
0.832955
0.833203
0.833659
0.834317
0.835169
0.836198
0.837389
0.838722
0.840177
0.84173
0.843359
0.845035
0.846729
0.848409
0.850061
0.851727
0.853232
0.830372
0.831556
0.832314
0.833183
0.834058
0.834911
0.835682
0.836314
0.836763
0.837005
0.837027
0.836838
0.836458
0.835923
0.835264
0.834513
0.833703
0.832876
0.832078
0.831357
0.830755
0.830304
0.830034
0.829964
0.830106
0.830462
0.831028
0.831793
0.832742
0.83386
0.835127
0.836522
0.838022
0.8396
0.841228
0.842876
0.844512
0.846117
0.847741
0.84922
0.828528
0.829793
0.830594
0.831507
0.83242
0.833303
0.834097
0.834744
0.835199
0.835433
0.835433
0.835204
0.834768
0.83416
0.833417
0.832572
0.831662
0.830728
0.829817
0.828977
0.828254
0.827684
0.827298
0.82712
0.82716
0.827421
0.827895
0.828573
0.829442
0.830485
0.831685
0.833017
0.834458
0.835981
0.837555
0.83915
0.840732
0.842283
0.843855
0.8453
0.82671
0.828043
0.828885
0.829843
0.830796
0.831712
0.832533
0.8332
0.833666
0.8339
0.833885
0.833624
0.83314
0.832469
0.83165
0.83072
0.829718
0.828684
0.827667
0.826717
0.825879
0.825197
0.824703
0.824422
0.824365
0.824532
0.824916
0.825509
0.826298
0.827267
0.828396
0.829663
0.831041
0.832502
0.834016
0.83555
0.837072
0.83856
0.840072
0.841476
0.824915
0.826305
0.827186
0.828188
0.829182
0.830136
0.830988
0.83168
0.832163
0.832402
0.832379
0.832094
0.83157
0.830845
0.829958
0.828951
0.827863
0.826737
0.825622
0.824569
0.823626
0.822838
0.822242
0.821864
0.821713
0.82179
0.822087
0.822597
0.823307
0.824201
0.825258
0.826455
0.827766
0.829161
0.830609
0.832077
0.833531
0.83495
0.836392
0.837746
0.823142
0.824575
0.825492
0.82654
0.827577
0.828571
0.829458
0.83018
0.830684
0.830934
0.830908
0.830607
0.830051
0.829279
0.828333
0.827256
0.82609
0.824879
0.823674
0.822525
0.821485
0.820599
0.819908
0.819437
0.819197
0.819187
0.819401
0.819829
0.820462
0.821281
0.822265
0.82339
0.82463
0.825954
0.827332
0.828727
0.830107
0.83145
0.832816
0.834113
0.821388
0.822852
0.823804
0.824895
0.825977
0.827014
0.827941
0.828695
0.829224
0.829489
0.829466
0.829154
0.828574
0.827763
0.826765
0.825624
0.824387
0.823099
0.821811
0.820575
0.819444
0.818467
0.817687
0.81713
0.816805
0.816713
0.816846
0.817197
0.817754
0.818498
0.819408
0.820459
0.821625
0.822876
0.824178
0.825497
0.826798
0.828059
0.829341
0.830574
0.819649
0.821134
0.822117
0.823251
0.824379
0.825461
0.82643
0.82722
0.827778
0.828061
0.828045
0.827728
0.82713
0.826286
0.825242
0.824044
0.822742
0.821384
0.820021
0.818705
0.817491
0.81643
0.815568
0.814929
0.814525
0.814354
0.814412
0.814689
0.815172
0.815842
0.816677
0.817653
0.818743
0.819917
0.821141
0.82238
0.823598
0.824773
0.825967
0.827131
0.817923
0.819417
0.820428
0.821604
0.822779
0.823908
0.824921
0.82575
0.826338
0.826642
0.826637
0.826319
0.825707
0.824836
0.823751
0.822502
0.821141
0.819719
0.818287
0.816899
0.815609
0.814473
0.813534
0.812821
0.812342
0.812098
0.812084
0.81229
0.812702
0.813301
0.814062
0.814962
0.815975
0.817071
0.818214
0.819369
0.820502
0.821589
0.822692
0.823786
0.816205
0.817698
0.818734
0.81995
0.821173
0.82235
0.823408
0.824277
0.824897
0.825224
0.825232
0.824916
0.824293
0.823398
0.822277
0.820981
0.819567
0.818088
0.816595
0.815141
0.813784
0.812579
0.811571
0.810788
0.810241
0.809929
0.809848
0.809988
0.810332
0.81086
0.811548
0.812374
0.81331
0.814326
0.815387
0.816456
0.817502
0.818499
0.819509
0.820533
0.814489
0.815973
0.817031
0.818285
0.819555
0.820781
0.821885
0.822795
0.823448
0.823799
0.82382
0.823508
0.822877
0.82196
0.820805
0.819468
0.818007
0.816476
0.814928
0.813416
0.811998
0.810732
0.809662
0.808817
0.808206
0.807832
0.807689
0.807766
0.808045
0.808505
0.809123
0.809875
0.810735
0.811671
0.812649
0.813632
0.814591
0.815498
0.816413
0.81735
0.812768
0.814235
0.815315
0.816605
0.817922
0.819197
0.820347
0.821296
0.821981
0.822355
0.822392
0.822083
0.821444
0.820507
0.819322
0.817947
0.816443
0.814867
0.81327
0.811707
0.810236
0.808916
0.807791
0.80689
0.806223
0.805792
0.805591
0.805609
0.805826
0.806222
0.806771
0.807451
0.808236
0.809093
0.809989
0.810888
0.811761
0.812582
0.813408
0.814276
0.811036
0.812481
0.813579
0.814906
0.816268
0.81759
0.818786
0.819774
0.820489
0.820886
0.820936
0.82063
0.819983
0.819027
0.817813
0.816405
0.814863
0.813247
0.811607
0.809999
0.808483
0.807116
0.805944
0.804993
0.804276
0.803793
0.803539
0.803501
0.80366
0.803993
0.804477
0.805087
0.805798
0.806578
0.807393
0.808211
0.809003
0.809745
0.810488
0.81129
0.809285
0.810705
0.811821
0.813181
0.814587
0.815957
0.817196
0.818221
0.818964
0.819381
0.819442
0.819138
0.818481
0.817506
0.816267
0.814828
0.813253
0.811601
0.809924
0.808278
0.806724
0.805319
0.804106
0.803113
0.80235
0.801821
0.801518
0.801428
0.801531
0.801805
0.802224
0.802767
0.803406
0.804111
0.804849
0.805591
0.806308
0.806975
0.807643
0.808384
0.807509
0.808902
0.810034
0.811426
0.812874
0.814289
0.81557
0.816629
0.817397
0.817831
0.817901
0.817596
0.816928
0.815934
0.814671
0.813204
0.8116
0.809917
0.808209
0.806532
0.804947
0.80351
0.802264
0.801234
0.800433
0.799861
0.799513
0.799374
0.799423
0.799639
0.799997
0.800473
0.801042
0.801675
0.802342
0.803013
0.803662
0.804265
0.804868
0.805556
0.805701
0.807066
0.808214
0.809635
0.811124
0.812582
0.813901
0.814991
0.815782
0.81623
0.816304
0.815994
0.815314
0.814301
0.813014
0.811522
0.809893
0.808185
0.806451
0.80475
0.803141
0.80168
0.800407
0.799346
0.798511
0.797901
0.797511
0.797325
0.797323
0.797483
0.79778
0.798191
0.798692
0.799256
0.799855
0.800462
0.801054
0.801603
0.802155
0.802805
0.803853
0.805192
0.806355
0.807805
0.809332
0.810829
0.812183
0.8133
0.814111
0.814569
0.814643
0.814325
0.813629
0.812596
0.811287
0.809774
0.808124
0.806395
0.804642
0.802922
0.801297
0.799817
0.798523
0.797438
0.796573
0.79593
0.7955
0.795269
0.795217
0.795321
0.795558
0.795905
0.796339
0.796837
0.797373
0.797924
0.798467
0.798976
0.799494
0.800124
0.801959
0.803276
0.804454
0.805932
0.807493
0.809026
0.81041
0.811551
0.812378
0.81284
0.812909
0.812579
0.811865
0.810812
0.809483
0.807951
0.806284
0.804539
0.802773
0.801042
0.799405
0.797914
0.796605
0.7955
0.79461
0.793936
0.793469
0.793194
0.793091
0.793139
0.793316
0.793598
0.793967
0.7944
0.794877
0.795377
0.795881
0.796366
0.796869
0.797504
0.800012
0.801313
0.802507
0.804011
0.805605
0.807167
0.808578
0.809738
0.810574
0.811036
0.811096
0.81075
0.810017
0.808943
0.807595
0.806048
0.804368
0.802613
0.800839
0.799103
0.797461
0.795964
0.794645
0.793525
0.792613
0.791911
0.791408
0.791089
0.790935
0.790926
0.791039
0.791256
0.791558
0.791926
0.792346
0.7928
0.793274
0.793745
0.794256
0.794925
0.798006
0.799298
0.800509
0.80204
0.803662
0.80525
0.806681
0.807855
0.808695
0.809152
0.809199
0.808833
0.808079
0.806985
0.805621
0.804061
0.802372
0.800613
0.798837
0.797101
0.79546
0.793962
0.792638
0.791506
0.790575
0.789846
0.789308
0.788945
0.788738
0.788669
0.788717
0.788864
0.789095
0.789397
0.789757
0.790166
0.790613
0.791083
0.791619
0.792355
0.795937
0.797229
0.798458
0.800014
0.80166
0.803269
0.804716
0.805898
0.806737
0.807183
0.807212
0.806826
0.806048
0.804935
0.803557
0.801988
0.800295
0.798536
0.796764
0.795034
0.793401
0.791906
0.790579
0.789438
0.78849
0.787735
0.787162
0.786753
0.786492
0.786359
0.786337
0.78641
0.786565
0.786792
0.787084
0.787439
0.787857
0.788333
0.788921
0.789766
0.7938
0.795101
0.796349
0.797928
0.799596
0.801222
0.80268
0.803865
0.804696
0.805127
0.805135
0.804725
0.803925
0.802793
0.801404
0.79983
0.798138
0.796383
0.794621
0.792903
0.79128
0.789793
0.788466
0.787317
0.786354
0.785573
0.784963
0.784508
0.784189
0.78399
0.783894
0.783885
0.783954
0.784093
0.784299
0.784577
0.784938
0.785408
0.786092
0.78717
0.791596
0.792914
0.794181
0.795783
0.79747
0.799108
0.800572
0.801752
0.80257
0.802982
0.802967
0.802531
0.801708
0.800561
0.799164
0.797589
0.795902
0.794158
0.79241
0.790709
0.789101
0.787623
0.786299
0.785144
0.784164
0.783357
0.782709
0.782205
0.781827
0.781559
0.781384
0.781286
0.781258
0.781293
0.781386
0.781539
0.781765
0.782099
0.782656
0.783911
0.931308
0.938718
0.942677
0.946884
0.949691
0.952153
0.954056
0.955694
0.95708
0.958258
0.959246
0.960124
0.960861
0.961453
0.961905
0.96224
0.962477
0.962601
0.962656
0.962635
0.962554
0.962392
0.962152
0.961849
0.961475
0.96102
0.960458
0.959785
0.959003
0.958084
0.957027
0.955815
0.95443
0.9529
0.951198
0.949387
0.947419
0.945451
0.943406
0.941874
0.927238
0.935196
0.939452
0.943913
0.946869
0.949457
0.951439
0.953139
0.954558
0.955806
0.956852
0.957766
0.958515
0.959153
0.959654
0.96002
0.960266
0.960427
0.960517
0.960528
0.960466
0.960327
0.960117
0.959843
0.959491
0.959053
0.958515
0.957857
0.95708
0.956178
0.955129
0.953925
0.95255
0.951021
0.949327
0.947525
0.945564
0.943595
0.941561
0.94003
0.923071
0.931623
0.936183
0.940908
0.944023
0.946739
0.948804
0.950571
0.952026
0.953338
0.954441
0.95539
0.956159
0.956842
0.95739
0.957788
0.95805
0.958251
0.958375
0.95842
0.958378
0.958264
0.958085
0.95784
0.957508
0.957088
0.956573
0.955933
0.955163
0.95428
0.953243
0.95205
0.950689
0.949166
0.947485
0.945696
0.943744
0.941778
0.939756
0.938228
0.918812
0.928
0.932868
0.937872
0.941156
0.943998
0.946152
0.947988
0.949497
0.950854
0.952007
0.952993
0.953805
0.954523
0.955106
0.955541
0.95584
0.956075
0.956227
0.956302
0.956291
0.956205
0.956057
0.955836
0.955526
0.955128
0.954629
0.954012
0.95326
0.952391
0.95137
0.950191
0.948846
0.947337
0.945673
0.943893
0.941957
0.939998
0.937987
0.936467
0.914468
0.924332
0.929512
0.934807
0.93827
0.941235
0.943485
0.945391
0.946965
0.948358
0.949557
0.950583
0.951448
0.952197
0.95281
0.953285
0.953629
0.953896
0.954076
0.95418
0.954204
0.954149
0.954029
0.953832
0.953546
0.95317
0.952689
0.952094
0.951366
0.950512
0.949509
0.948347
0.947023
0.945532
0.943889
0.942119
0.940201
0.938253
0.936252
0.934742
0.910044
0.920622
0.926121
0.931716
0.935361
0.938455
0.940802
0.942781
0.944419
0.945854
0.947099
0.948167
0.94908
0.949864
0.95051
0.951025
0.951413
0.951713
0.951924
0.952057
0.952115
0.952092
0.952001
0.951829
0.951567
0.951214
0.950755
0.950182
0.949477
0.948643
0.947661
0.94652
0.945218
0.943749
0.942128
0.940373
0.938474
0.936539
0.934549
0.933051
0.905549
0.916872
0.922695
0.9286
0.932431
0.935659
0.938106
0.94016
0.941861
0.943341
0.944633
0.945744
0.946702
0.947524
0.948206
0.948761
0.949191
0.949526
0.949769
0.949933
0.950026
0.950036
0.949973
0.949828
0.94959
0.949263
0.948826
0.948277
0.947597
0.946785
0.945826
0.944708
0.943432
0.941987
0.940391
0.938653
0.936776
0.934858
0.932879
0.931392
0.900994
0.913087
0.91924
0.925461
0.929481
0.932846
0.935396
0.937527
0.939293
0.940822
0.942161
0.943315
0.944317
0.945178
0.945897
0.946493
0.946964
0.947334
0.947611
0.947808
0.947935
0.947979
0.947944
0.947828
0.947616
0.947314
0.946902
0.946378
0.945725
0.944937
0.944003
0.942912
0.941663
0.940245
0.938677
0.93696
0.935106
0.933207
0.931241
0.929765
0.896392
0.909269
0.915757
0.922299
0.926512
0.930018
0.932675
0.934883
0.936716
0.938297
0.939684
0.940881
0.941926
0.942827
0.943585
0.94422
0.944732
0.945138
0.94545
0.945681
0.945842
0.945923
0.945917
0.945829
0.945644
0.945369
0.944985
0.944486
0.94386
0.943099
0.942193
0.941131
0.93991
0.938522
0.936986
0.935293
0.933462
0.931585
0.929636
0.928168
0.891759
0.905423
0.91225
0.919116
0.923526
0.927175
0.929942
0.932231
0.934131
0.935766
0.937201
0.938442
0.939531
0.940471
0.94127
0.941944
0.942495
0.942938
0.943285
0.943553
0.943749
0.943865
0.943888
0.943831
0.943675
0.943427
0.943072
0.9426
0.942003
0.94127
0.940393
0.939363
0.938173
0.936818
0.935314
0.93365
0.931846
0.929993
0.928062
0.926602
0.887094
0.901554
0.908725
0.915914
0.920524
0.924319
0.927199
0.929571
0.931541
0.93323
0.934716
0.936
0.937132
0.938112
0.938953
0.939665
0.940255
0.940735
0.941117
0.941424
0.941655
0.941807
0.94186
0.941833
0.941708
0.941488
0.941162
0.940717
0.940151
0.93945
0.938602
0.937607
0.936451
0.935132
0.933662
0.932031
0.930256
0.928427
0.926517
0.925065
0.882395
0.897666
0.905185
0.912695
0.917508
0.921452
0.924447
0.926905
0.928947
0.930692
0.932229
0.933556
0.934733
0.935753
0.936637
0.937387
0.938014
0.93853
0.938948
0.939293
0.939558
0.939747
0.939831
0.939837
0.939743
0.93955
0.939255
0.93884
0.938304
0.937637
0.936822
0.935863
0.934742
0.933462
0.93203
0.930435
0.928691
0.926889
0.925002
0.923559
0.87773
0.893768
0.901634
0.90946
0.914479
0.918574
0.921687
0.924234
0.926349
0.928153
0.929741
0.931113
0.932334
0.933395
0.93432
0.935108
0.935771
0.936325
0.936778
0.937162
0.937461
0.937685
0.937802
0.937839
0.937779
0.937614
0.937351
0.936967
0.936462
0.935829
0.935051
0.934131
0.933046
0.931809
0.930417
0.928862
0.92715
0.925378
0.923517
0.922083
0.873079
0.889864
0.898078
0.906213
0.91144
0.915687
0.918921
0.921561
0.92375
0.925614
0.927253
0.928671
0.929936
0.931039
0.932005
0.93283
0.933528
0.934119
0.934608
0.93503
0.935362
0.935622
0.935772
0.935842
0.935815
0.935679
0.935448
0.935097
0.934625
0.934028
0.933288
0.93241
0.931364
0.930171
0.928823
0.927311
0.925634
0.923894
0.92206
0.920637
0.868455
0.885883
0.894521
0.902956
0.908391
0.912794
0.91615
0.918886
0.92115
0.923075
0.924765
0.92623
0.92754
0.928685
0.929691
0.930552
0.931285
0.931913
0.932438
0.932897
0.933263
0.933558
0.933743
0.933842
0.933852
0.933745
0.933546
0.93323
0.932794
0.932234
0.931533
0.930698
0.929696
0.92855
0.927248
0.925781
0.924143
0.922438
0.920633
0.919222
0.863879
0.881953
0.890972
0.899692
0.905334
0.909896
0.913376
0.91621
0.91855
0.920538
0.922279
0.923793
0.925147
0.926333
0.927378
0.928275
0.929043
0.929708
0.930269
0.930764
0.931164
0.931493
0.931713
0.931842
0.931887
0.931813
0.931645
0.931364
0.930968
0.930445
0.929786
0.928996
0.928041
0.926944
0.92569
0.924273
0.922677
0.92101
0.919236
0.917836
0.859366
0.878126
0.887433
0.896424
0.902273
0.906994
0.910602
0.913535
0.915953
0.918004
0.919796
0.92136
0.922757
0.923985
0.925067
0.926
0.926804
0.927504
0.928101
0.928631
0.929066
0.929426
0.929683
0.929842
0.929921
0.929882
0.929746
0.929501
0.929146
0.928662
0.928045
0.927302
0.926397
0.925352
0.924149
0.922785
0.921235
0.91961
0.917867
0.916482
0.854924
0.874318
0.88391
0.893155
0.89921
0.90409
0.907828
0.910863
0.913359
0.915474
0.917319
0.918933
0.920373
0.921641
0.922761
0.923729
0.924568
0.925304
0.925935
0.926499
0.926968
0.927358
0.927653
0.927842
0.927953
0.92795
0.927849
0.927639
0.927327
0.926884
0.92631
0.925616
0.924765
0.923775
0.922625
0.921319
0.919819
0.918237
0.916529
0.915161
0.850564
0.870525
0.880403
0.889889
0.896147
0.901186
0.905058
0.908194
0.910771
0.912951
0.914849
0.916512
0.917996
0.919303
0.920461
0.921464
0.922337
0.923107
0.923772
0.924368
0.924873
0.925291
0.925622
0.925844
0.925984
0.926018
0.925953
0.92578
0.925509
0.92511
0.924581
0.923937
0.923142
0.92221
0.921118
0.919872
0.918428
0.916894
0.915222
0.913872
0.846291
0.866764
0.87692
0.886629
0.893088
0.898287
0.902292
0.905532
0.90819
0.910435
0.912387
0.9141
0.915628
0.916974
0.918169
0.919206
0.920112
0.920915
0.921613
0.92224
0.922779
0.923224
0.92359
0.923845
0.924014
0.924086
0.924058
0.923922
0.923693
0.923338
0.922857
0.922265
0.921528
0.920657
0.919627
0.918446
0.917063
0.915581
0.913948
0.912618
0.842114
0.863054
0.873468
0.883378
0.890034
0.895393
0.899534
0.902879
0.905617
0.907929
0.909935
0.911698
0.913269
0.914654
0.915886
0.916955
0.917893
0.918729
0.919457
0.920115
0.920688
0.921159
0.921557
0.921848
0.922045
0.922153
0.922163
0.922066
0.921878
0.921569
0.921137
0.9206
0.919922
0.919116
0.918152
0.917041
0.915722
0.914298
0.912708
0.911398
0.838038
0.859407
0.870049
0.880141
0.886988
0.892509
0.896785
0.900235
0.903055
0.905435
0.907494
0.909307
0.91092
0.912343
0.913612
0.914711
0.91568
0.916547
0.917307
0.917992
0.918598
0.919096
0.919524
0.91985
0.920077
0.920222
0.920267
0.92021
0.920065
0.919802
0.919421
0.918939
0.918324
0.917584
0.916691
0.915654
0.914407
0.913046
0.911502
0.910213
0.83407
0.855816
0.866663
0.876919
0.883953
0.889635
0.894047
0.897605
0.900508
0.902954
0.905067
0.906929
0.908583
0.910044
0.911347
0.912475
0.913474
0.914372
0.915161
0.915874
0.916509
0.917035
0.917491
0.917853
0.918109
0.91829
0.918371
0.918355
0.918251
0.918036
0.917707
0.917281
0.916732
0.916062
0.915244
0.914286
0.913115
0.911824
0.910332
0.909064
0.830215
0.852134
0.863307
0.873713
0.880931
0.886775
0.891326
0.89499
0.897978
0.90049
0.902656
0.904566
0.906259
0.907756
0.909091
0.910248
0.911275
0.912202
0.913021
0.913759
0.914421
0.914975
0.915459
0.915855
0.916141
0.916358
0.916475
0.916498
0.916437
0.91627
0.915994
0.915627
0.915144
0.914546
0.913807
0.912933
0.911846
0.910631
0.909198
0.907952
0.826484
0.848342
0.859981
0.870524
0.877926
0.883931
0.888622
0.892392
0.895466
0.898043
0.900263
0.902219
0.903951
0.905481
0.906845
0.908029
0.909083
0.910039
0.910886
0.911649
0.912336
0.912918
0.913428
0.913858
0.914173
0.914425
0.914579
0.914641
0.914623
0.914503
0.914282
0.913974
0.91356
0.913037
0.91238
0.911596
0.9106
0.909468
0.9081
0.906878
0.822911
0.844823
0.856688
0.867354
0.87494
0.881106
0.885938
0.889815
0.892974
0.895617
0.897889
0.89989
0.901659
0.903221
0.904611
0.905822
0.906902
0.907884
0.908758
0.909544
0.910255
0.910864
0.911399
0.911861
0.912206
0.912491
0.912681
0.912782
0.912806
0.912736
0.91257
0.912321
0.911977
0.911531
0.910962
0.910272
0.909375
0.908333
0.90704
0.905846
0.81949
0.84137
0.853431
0.864205
0.871975
0.878304
0.883275
0.88726
0.890504
0.893212
0.895536
0.897582
0.899385
0.900975
0.90239
0.903626
0.90473
0.905738
0.906637
0.907445
0.908179
0.908813
0.909373
0.909863
0.910239
0.910556
0.910783
0.910921
0.910988
0.910966
0.910857
0.910669
0.910395
0.910028
0.90955
0.908961
0.908171
0.907229
0.906019
0.904859
0.815971
0.83797
0.850214
0.861082
0.869034
0.875525
0.880636
0.884729
0.888057
0.890831
0.893206
0.895294
0.89713
0.898746
0.900183
0.901442
0.902571
0.903601
0.904524
0.905351
0.906108
0.906765
0.907348
0.907865
0.908273
0.908619
0.908882
0.909058
0.909167
0.909194
0.909142
0.909015
0.908813
0.908528
0.908143
0.907661
0.906987
0.906155
0.905038
0.90392
0.812818
0.83464
0.84704
0.857988
0.866121
0.872775
0.878023
0.882225
0.885636
0.888476
0.890901
0.893029
0.894894
0.896534
0.897992
0.899273
0.900423
0.901473
0.902418
0.903264
0.904041
0.90472
0.905326
0.905867
0.906306
0.90668
0.906979
0.907193
0.907343
0.907419
0.907423
0.907359
0.907229
0.907028
0.906741
0.90637
0.905821
0.905112
0.904101
0.903033
0.80978
0.83138
0.84391
0.854928
0.863241
0.870055
0.875441
0.87975
0.883246
0.88615
0.888622
0.890788
0.892679
0.894341
0.895818
0.897118
0.898288
0.899355
0.900322
0.901183
0.90198
0.902678
0.903306
0.903869
0.904339
0.904739
0.905072
0.905324
0.905516
0.905641
0.905699
0.905699
0.905643
0.905527
0.905341
0.905088
0.904672
0.9041
0.90321
0.902204
0.806857
0.828198
0.840829
0.851906
0.860399
0.867369
0.872893
0.877309
0.880888
0.883856
0.886373
0.888574
0.890488
0.892168
0.893663
0.89498
0.896168
0.897249
0.898234
0.89911
0.899923
0.900639
0.901289
0.901871
0.90237
0.902796
0.903162
0.903453
0.903685
0.903858
0.903971
0.904035
0.904052
0.904024
0.903942
0.90381
0.903536
0.903119
0.902368
0.901437
0.804073
0.825096
0.8378
0.848928
0.8576
0.864722
0.870382
0.874904
0.878566
0.881597
0.884156
0.886387
0.888321
0.890018
0.891527
0.892858
0.894063
0.895156
0.896156
0.897046
0.897873
0.898605
0.899275
0.899874
0.9004
0.900852
0.90125
0.901578
0.901848
0.902071
0.902238
0.902366
0.902457
0.902518
0.90254
0.902536
0.902412
0.902168
0.901578
0.900741
0.801436
0.822071
0.834826
0.846
0.854848
0.862117
0.867911
0.872539
0.876283
0.879374
0.881973
0.88423
0.88618
0.887892
0.889412
0.890755
0.891975
0.893076
0.894088
0.89499
0.895829
0.896576
0.897263
0.897878
0.898428
0.898907
0.899333
0.899699
0.900006
0.900278
0.900499
0.90069
0.900854
0.901005
0.901134
0.90126
0.901296
0.901243
0.900844
0.900124
0.798953
0.819124
0.831912
0.843131
0.852147
0.859562
0.865485
0.870219
0.874041
0.877189
0.879824
0.882103
0.884067
0.88579
0.887319
0.888671
0.889902
0.891011
0.892032
0.892945
0.893792
0.894552
0.895255
0.895884
0.896455
0.89696
0.897413
0.897815
0.898159
0.898479
0.898752
0.899006
0.899244
0.899484
0.89972
0.899981
0.900185
0.900343
0.900169
0.899599
0.796631
0.816255
0.829065
0.840331
0.849508
0.857062
0.863111
0.867948
0.871845
0.875044
0.877713
0.88001
0.881985
0.883716
0.88525
0.886609
0.887848
0.888962
0.889988
0.89091
0.891762
0.892534
0.893248
0.893891
0.894482
0.895011
0.895489
0.895926
0.896306
0.896672
0.896998
0.897313
0.897625
0.897952
0.898297
0.898694
0.899074
0.899461
0.899553
0.89918
0.794482
0.813475
0.826303
0.837618
0.846944
0.85463
0.860801
0.865733
0.869702
0.872947
0.875644
0.877955
0.879938
0.881672
0.883209
0.884572
0.885815
0.886932
0.887958
0.888886
0.889741
0.890521
0.891245
0.8919
0.892507
0.893059
0.89356
0.894031
0.894448
0.894858
0.895235
0.895611
0.895995
0.896409
0.89686
0.897394
0.897958
0.898595
0.898998
0.898885
0.792523
0.810796
0.823645
0.835011
0.84447
0.852278
0.858564
0.863585
0.867618
0.870905
0.873624
0.875943
0.87793
0.879663
0.881199
0.882562
0.883804
0.884921
0.885944
0.886874
0.887729
0.888515
0.889245
0.889912
0.890531
0.891104
0.891628
0.892131
0.892584
0.893036
0.893464
0.893899
0.894353
0.894852
0.895409
0.896079
0.896832
0.897737
0.898503
0.898741
0.790746
0.808163
0.821021
0.832435
0.842015
0.849941
0.856338
0.861447
0.865544
0.868871
0.871611
0.873937
0.875924
0.877653
0.879185
0.880547
0.881785
0.882898
0.883916
0.884846
0.8857
0.88649
0.887224
0.887901
0.888533
0.889125
0.889673
0.890206
0.890696
0.891188
0.891667
0.892161
0.892685
0.893266
0.893929
0.894733
0.895678
0.896868
0.898057
0.898776
0.789026
0.805394
0.818258
0.829724
0.839424
0.847477
0.853994
0.859201
0.863369
0.866746
0.869515
0.871852
0.873842
0.875572
0.877103
0.878465
0.879699
0.880812
0.881826
0.882758
0.883612
0.884408
0.885148
0.885838
0.886484
0.887097
0.887671
0.888233
0.888762
0.889296
0.889829
0.890382
0.890975
0.891639
0.892404
0.893342
0.89448
0.895971
0.897647
0.899029
0.787628
0.802944
0.815818
0.827289
0.837043
0.845174
0.85177
0.857041
0.861253
0.864654
0.867438
0.869778
0.87177
0.873503
0.875033
0.876399
0.87763
0.878743
0.879755
0.880687
0.881543
0.882343
0.883088
0.883788
0.884448
0.885078
0.885677
0.886263
0.886829
0.8874
0.88798
0.888587
0.889244
0.889983
0.89084
0.891899
0.893215
0.895002
0.897204
0.899467
0.782947
0.797191
0.810198
0.821673
0.831442
0.839664
0.846385
0.851735
0.855933
0.85924
0.861911
0.864146
0.866073
0.867769
0.869276
0.870622
0.871829
0.872918
0.873906
0.874816
0.875654
0.876443
0.877183
0.87789
0.878566
0.879223
0.879865
0.880501
0.88114
0.881794
0.882476
0.883204
0.884003
0.884911
0.885978
0.88731
0.88904
0.891553
0.8952
0.900447
0.769621
0.783204
0.795596
0.80655
0.81602
0.824136
0.830904
0.836419
0.840868
0.84447
0.847438
0.849945
0.852114
0.854025
0.855728
0.857257
0.858641
0.859903
0.861061
0.862137
0.863142
0.86409
0.864993
0.865858
0.866693
0.867506
0.868306
0.869099
0.869896
0.870709
0.871552
0.872446
0.873419
0.874517
0.875803
0.877407
0.879522
0.882689
0.887424
0.894163
0.75574
0.768669
0.780409
0.79094
0.800166
0.808185
0.814991
0.82066
0.825347
0.829228
0.832477
0.835247
0.837656
0.839786
0.841694
0.84342
0.844996
0.846445