/*--------------------------------*- C++ -*----------------------------------*\
  =========                 |
  \\      /  F ield         | OpenFOAM: The Open Source CFD Toolbox
   \\    /   O peration     | Website:  https://openfoam.org
    \\  /    A nd           | Version:  7
     \\/     M anipulation  |
\*---------------------------------------------------------------------------*/
FoamFile
{
    version     2.0;
    format      ascii;
    class       surfaceScalarField;
    location    "3.3";
    object      phi;
}
// * * * * * * * * * * * * * * * * * * * * * * * * * * * * * * * * * * * * * //

dimensions      [0 3 -1 0 0 0 0];

internalField   nonuniform List<scalar> 
63520
(
-1.96356e-05
0.000566299
-0.000546663
-6.58335e-05
0.00154317
-0.00149697
-0.000132069
0.00240199
-0.00233576
-0.000212906
0.00313341
-0.00305257
-0.000303662
0.00374476
-0.003654
-0.000400147
0.00424918
-0.0041527
-0.000498617
0.00466093
-0.00456246
-0.000595743
0.00499319
-0.00489606
-0.000688606
0.00525752
-0.00516466
-0.000774689
0.00546332
-0.00537724
-0.000851839
0.00561799
-0.00554084
-0.000918246
0.00572728
-0.00566087
-0.000972396
0.0057956
-0.00574145
-0.00101303
0.00582644
-0.00578581
-0.0010391
0.00582272
-0.00579666
-0.00104974
0.00578707
-0.00577643
-0.00104427
0.00572199
-0.00572746
-0.00102215
0.00562995
-0.00565208
-0.000982949
0.0055135
-0.00555269
-0.000926402
0.00537528
-0.00543183
-0.00085235
0.00521801
-0.00529206
-0.000760756
0.00504447
-0.00513606
-0.000651715
0.0048575
-0.00496654
-0.000525452
0.00465995
-0.00478622
-0.000382303
0.00445463
-0.00459778
-0.000222719
0.00424427
-0.00440385
-4.72753e-05
0.00403149
-0.00420693
0.000143336
0.00381879
-0.0040094
0.000348323
0.00360848
-0.00381347
0.000566799
0.00340271
-0.00362118
0.000797788
0.0032034
-0.00343439
0.00104023
0.00301228
-0.00325472
0.00129298
0.00283088
-0.00308364
0.00155484
0.00266055
-0.00292241
0.00182451
0.00250248
-0.00277215
0.00210061
0.00235779
-0.00263388
0.00238157
0.00222756
-0.00250853
0.00266564
0.00211284
-0.00239691
0.00295073
0.0020168
-0.00230189
0.00194485
0.00323416
-0.00222829
-1.81591e-05
0.000584458
-6.10519e-05
0.00158606
-0.000122766
0.00246371
-0.000198427
0.00320907
-0.000283737
0.00383007
-0.000374785
0.00434023
-0.00046799
0.00475413
-0.000560129
0.00508532
-0.000648318
0.00534571
-0.000730051
0.00554506
-0.00080318
0.00569112
-0.000865875
0.00578997
-0.000916582
0.00584631
-0.000954002
0.00586386
-0.00097706
0.00584578
-0.000984855
0.00579487
-0.000976648
0.00571379
-0.000951855
0.00560516
-0.000910027
0.00547167
-0.000850834
0.00531609
-0.000774083
0.00514126
-0.000679717
0.0049501
-0.000567797
0.00474558
-0.000438508
0.00453066
-0.000292169
0.00430829
-0.000129229
0.00408133
4.97428e-05
0.00385252
0.000244062
0.00362447
0.000452933
0.00339961
0.000675454
0.00318019
0.000910633
0.00296822
0.00115739
0.00276552
0.00141459
0.00257369
0.00168099
0.00239414
0.00195532
0.00222815
0.00223617
0.00207693
0.00252202
0.00194171
0.00281111
0.00182375
0.00310136
0.00172655
0.00165617
0.00339005
-1.6524e-05
0.000600982
-5.57138e-05
0.00162525
-0.00011238
0.00252037
-0.000182202
0.00327889
-0.000261299
0.00390916
-0.000346057
0.00442499
-0.000433073
0.00484114
-0.000519259
0.00517151
-0.00060179
0.00542824
-0.000678181
0.00562145
-0.000746276
0.00575922
-0.000804219
0.00584792
-0.00085044
0.00589253
-0.000883614
0.00589703
-0.000902621
0.00586479
-0.000906532
0.00579878
-0.000894576
0.00570183
-0.000866129
0.00557671
-0.000820702
0.00542624
-0.000757941
0.00525333
-0.000677624
0.00506094
-0.000579657
0.00485214
-0.000464081
0.00463
-0.000331075
0.00439766
-0.000180945
0.00415816
-1.41215e-05
0.0039145
0.000168831
0.00366957
0.000367216
0.00342608
0.000580225
0.0031866
0.000806949
0.00295346
0.00104639
0.00272878
0.00129744
0.00251446
0.00155896
0.00231217
0.00182971
0.00212339
0.0021084
0.00194946
0.00239366
0.00179167
0.00268399
0.00165139
0.00297766
0.00153007
0.00327261
0.0014316
0.00136264
0.00356613
-1.47342e-05
0.000615716
-4.99242e-05
0.00166044
-0.000101076
0.00257152
-0.00016446
0.00334228
-0.000236624
0.00398133
-0.000314269
0.00450263
-0.000394214
0.00492109
-0.000473496
0.00525079
-0.000549363
0.00550411
-0.000619364
0.00569145
-0.000681356
0.00582121
-0.000733478
0.00590004
-0.000774131
0.00593318
-0.000801965
0.00592487
-0.000815839
0.00587866
-0.000814792
0.00579773
-0.000798021
0.00568506
-0.000764877
0.00554357
-0.000714851
0.00537622
-0.000647558
0.00518603
-0.000562751
0.00497614
-0.000460331
0.00474971
-0.000340324
0.00451
-0.000202889
0.00426022
-4.83241e-05
0.0040036
0.000122933
0.00374325
0.000310312
0.00348219
0.000513114
0.00322328
0.000730523
0.00296919
0.000961616
0.00272237
0.00120537
0.00248503
0.00146069
0.00225915
0.00172639
0.00204647
0.00200126
0.00184852
0.00228401
0.00166671
0.00257328
0.0015024
0.00286762
0.00135705
0.00316536
0.00123233
0.00346451
0.00113245
0.00106479
0.00376236
-1.28355e-05
0.000628551
-4.37193e-05
0.00169132
-8.8915e-05
0.00261672
-0.000145282
0.00339864
-0.000209825
0.00404587
-0.000279573
0.00457238
-0.000351572
0.00499309
-0.000422999
0.00532222
-0.000491213
0.00557232
-0.000553805
0.00575404
-0.000608637
0.00587604
-0.000653849
0.00594525
-0.000687838
0.00596717
-0.000709231
0.00594626
-0.00071686
0.00588629
-0.000709747
0.00579062
-0.000687077
0.00566239
-0.000648174
0.00550467
-0.000592508
0.00532055
-0.000519688
0.00511321
-0.000429458
0.00488591
-0.000321703
0.00464196
-0.000196444
0.00438474
-5.38402e-05
0.00411762
0.000105807
0.00384395
0.000282056
0.003567
0.00047433
0.00328991
0.000681919
0.00301569
0.000903994
0.00274712
0.00113962
0.00248675
0.00138775
0.00223689
0.00164728
0.00199962
0.00191704
0.00177672
0.00219578
0.00156978
0.00248225
0.00138025
0.00277511
0.00120953
0.00307297
0.00105919
0.00337423
0.000931079
0.00367697
0.000829701
0.000763179
0.00397858
-1.08249e-05
0.000639376
-3.71432e-05
0.00171764
-7.59948e-05
0.00265557
-0.000124838
0.00344749
-0.000181127
0.00410216
-0.000242232
0.00463348
-0.000305455
0.00505631
-0.000368129
0.00538489
-0.000427716
0.00563191
-0.000481868
0.00580819
-0.00052848
0.00592265
-0.000565698
0.00598247
-0.000591906
0.00599338
-0.000605724
0.00596008
-0.000605981
0.00588655
-0.00059168
0.00577632
-0.00056199
0.0056327
-0.000516233
0.00545891
-0.000453872
0.00525819
-0.00037451
0.00503385
-0.00027789
0.00478929
-0.000163897
0.00452797
-3.25569e-05
0.0042534
0.000115964
0.0039691
0.000281358
0.00367856
0.000463172
0.00338518
0.000660813
0.00309227
0.000873559
0.00280295
0.00110057
0.00252011
0.00134088
0.00224643
0.00159345
0.00198432
0.00185716
0.00173591
0.00213081
0.00150306
0.00241318
0.0012874
0.00270302
0.00109041
0.00299904
0.000913516
0.00329989
0.000758344
0.00360407
0.000626899
0.00390978
0.000523985
0.000458454
0.00421451
-8.73964e-06
0.000648116
-3.02802e-05
0.00173918
-6.24435e-05
0.00268773
-0.000103288
0.00348833
-0.00015074
0.00414961
-0.000202514
0.00468526
-0.000256166
0.00510996
-0.000309206
0.00543793
-0.000359221
0.00568192
-0.000403934
0.0058529
-0.000441276
0.00596
-0.000469409
0.0060106
-0.000486728
0.0060107
-0.000491852
0.0059652
-0.0004836
0.0058783
-0.000460977
0.0057537
-0.000423151
0.00559487
-0.000369444
0.0054052
-0.000299321
0.00518807
-0.000212392
0.00494692
-0.000108413
0.00468531
1.27231e-05
0.00440683
0.000150978
0.00411514
0.000306173
0.0038139
0.000477981
0.00350675
0.00066593
0.00319723
0.000869413
0.00288879
0.00108769
0.00258467
0.0013199
0.0022879
0.00156507
0.00200126
0.00182213
0.00172726
0.00208996
0.00146808
0.00236736
0.00122566
0.00265311
0.00100166
0.00294597
0.000797547
0.0032447
0.000614792
0.003548
0.000455038
0.00385449
0.00032041
0.00416251
0.000215968
0.00015129
0.00446967
-6.61045e-06
0.000654726
-2.32015e-05
0.00175577
-4.83872e-05
0.00271292
-8.08313e-05
0.00352077
-0.000118919
0.0041877
-0.000160718
0.00472705
-0.000204056
0.0051533
-0.000246635
0.00548051
-0.000286167
0.00572145
-0.000320464
0.0058872
-0.000347511
0.00598704
-0.000365498
0.00602859
-0.000372835
0.00601803
-0.000368148
0.00596052
-0.000350266
0.00586042
-0.000318201
0.00572163
-0.000271129
0.0055478
-0.00020838
0.00534245
-0.000129435
0.00510912
-3.39259e-05
0.00485141
7.8375e-05
0.00457301
0.000207555
0.00427765
0.000353556
0.00396914
0.000516173
0.00365129
0.000695057
0.00332787
0.000889712
0.00300258
0.00109951
0.00267899
0.00132369
0.00236049
0.00156136
0.00205022
0.00181155
0.00175108
0.00207317
0.00146564
0.00234508
0.00119618
0.00262608
0.000944662
0.00291496
0.000712777
0.00321049
0.000502013
0.00351148
0.000313809
0.0038167
0.000149816
0.00412487
1.22362e-05
0.0044345
-9.36604e-05
-0.0001576
0.00474339
-4.45893e-06
0.000659185
-1.59854e-05
0.0017673
-3.39716e-05
0.0027309
-5.76759e-05
0.00354448
-8.59433e-05
0.00421596
-0.000117194
0.00475831
-0.000149537
0.00518564
-0.000180874
0.00551184
-0.000209061
0.00574964
-0.000232013
0.00591015
-0.000247777
0.00600281
-0.000254585
0.00603539
-0.000250875
0.00601432
-0.000235294
0.00594493
-0.000206686
0.00583181
-0.00016408
0.00567903
-0.000106671
0.00549039
-3.38112e-05
0.00526959
5.49902e-05
0.00502032
0.000160075
0.00474633
0.000281642
0.00445144
0.000419751
0.00413954
0.000574311
0.00381458
0.000745086
0.00348051
0.000931696
0.00314126
0.00113362
0.00280066
0.00135019
0.00246242
0.00158064
0.00213005
0.00182404
0.00180681
0.00207941
0.00149571
0.00234564
0.0011994
0.00262159
0.000920232
0.00290605
0.000660201
0.00319781
0.000421012
0.00349568
0.000204142
0.00379849
1.10012e-05
0.0041051
-0.00015679
0.00441433
-0.000296998
0.00472487
-0.0004042
-0.000467473
0.00503474
-2.30941e-06
0.000661494
-8.71012e-06
0.0017737
-1.93466e-05
0.00274154
-3.40506e-05
0.00355918
-5.21176e-05
0.00423403
-7.23249e-05
0.00477851
-9.30607e-05
0.00520638
-0.000112443
0.00553123
-0.000128486
0.00576568
-0.000139216
0.00592088
-0.00014276
0.00600635
-0.000137406
0.00603004
-0.00012163
0.00599855
-9.41099e-05
0.00591742
-5.37181e-05
0.00579142
4.88986e-07
0.00562482
6.92867e-05
0.00542159
0.000153288
0.00518559
0.000252948
0.00492066
0.000368571
0.00463071
0.000500319
0.00431969
0.00064821
0.00399165
0.000812116
0.00365068
0.00099176
0.00330087
0.00118673
0.00294629
0.00139645
0.00259093
0.00162026
0.00223861
0.00185732
0.00189298
0.00210671
0.00155742
0.00236741
0.00123501
0.00263832
0.0009285
0.00291826
0.000640289
0.00320605
0.000372415
0.00350047
0.000126589
0.00380035
-9.57401e-05
0.00410457
-0.000293213
0.00441204
-0.000464268
0.00472173
-0.000606687
0.0050325
-0.000714964
-0.000777589
0.00534261
-1.87257e-07
0.000661681
-1.45641e-06
0.00177497
-4.66639e-06
0.00274475
-1.0194e-05
0.00356471
-1.77691e-05
0.00424161
-2.65213e-05
0.00478726
-3.51227e-05
0.00521498
-4.19178e-05
0.00553802
-4.50892e-05
0.00576885
-4.27907e-05
0.00591858
-3.3243e-05
0.0059968
-1.48029e-05
0.0060116
1.40003e-05
0.00596974
5.44471e-05
0.00587697
0.000107625
0.00573824
0.000174439
0.005558
0.000255625
0.00534041
0.000351749
0.00508947
0.00046322
0.00480919
0.000590297
0.00450363
0.000733095
0.00417689
0.000891582
0.00383316
0.00106558
0.00347668
0.00125477
0.00311168
0.00145869
0.00274237
0.00167674
0.00237288
0.00190819
0.00200716
0.00215221
0.00164897
0.00240783
0.0013018
0.00267402
0.000968823
0.00294965
0.00065287
0.00323355
0.000356385
0.00352453
8.14354e-05
0.00382139
-0.000170274
0.00412298
-0.000397327
0.00442821
-0.000598438
0.00473607
-0.000772136
0.00504565
-0.000916267
0.00535601
-0.00102532
-0.00108727
0.00566569
1.89001e-06
0.000659791
5.6963e-06
0.00177116
9.91031e-06
0.00274054
1.36474e-05
0.00356097
1.67635e-05
0.00423849
1.97822e-05
0.00478425
2.37482e-05
0.00521101
3.00847e-05
0.00553169
4.04263e-05
0.00575851
5.64772e-05
0.00590253
7.99084e-05
0.00597337
0.000112281
0.00597923
0.000155
0.00592703
0.000209289
0.00582268
0.000276185
0.00567134
0.000356544
0.00547765
0.000451049
0.0052459
0.000560212
0.0049803
0.000684384
0.00468502
0.00082377
0.00436424
0.000978429
0.00402223
0.00114827
0.00366332
0.00133306
0.00329189
0.00153243
0.00291231
0.00174585
0.00252894
0.00197271
0.00214603
0.00221221
0.00176765
0.00246349
0.00139769
0.00272557
0.00103972
0.00299737
0.000697017
0.00327778
0.000372468
0.0035656
6.85634e-05
0.00385964
-0.000212612
0.00415874
-0.000469365
0.00446174
-0.000700328
0.0047676
-0.000904303
0.00507541
-0.00107994
0.00538434
-0.0012252
0.00569369
-0.00133466
-0.00139604
0.00600245
3.89259e-06
0.000655898
1.26676e-05
0.00176239
2.42275e-05
0.00272898
3.7226e-05
0.00354797
5.11314e-05
0.00422458
6.61345e-05
0.00476924
8.29996e-05
0.00519415
0.00010291
0.00551177
0.000127306
0.00573412
0.000157737
0.0058721
0.000195752
0.00593536
0.000242814
0.00593216
0.000300249
0.00586959
0.000369209
0.00575372
0.000450672
0.00558988
0.000545431
0.00538289
0.000654105
0.00513723
0.000777141
0.00485727
0.000914828
0.00454733
0.00106731
0.00421176
0.00123457
0.00385497
0.00141645
0.00348144
0.00161267
0.00309567
0.00182279
0.00270219
0.00204624
0.0023055
0.00228233
0.00190994
0.00253024
0.00151974
0.00278907
0.00113886
0.0030578
0.000770991
0.00333534
0.000419475
0.00362055
8.72587e-05
0.00391225
-0.000223132
0.00420924
-0.000509604
0.00451036
-0.000770484
0.0048145
-0.00100447
0.00512065
-0.00121045
0.00542795
-0.00138724
0.0057357
-0.00153295
0.00604337
-0.00164234
-0.00170293
0.00635027
5.80183e-06
0.000650096
1.93815e-05
0.00174881
3.81312e-05
0.00271023
6.02938e-05
0.00352581
8.49844e-05
0.00419989
0.000112078
0.00474215
0.000142061
0.00516416
0.000175876
0.00547796
0.000214758
0.00569523
0.00026009
0.00582677
0.000313283
0.00588216
0.000375688
0.00586976
0.000448535
0.00579674
0.000532898
0.00566936
0.000629677
0.0054931
0.000739593
0.00527297
0.000863191
0.00501363
0.00100085
0.00471961
0.00115277
0.00439541
0.00131904
0.0040455
0.00149956
0.00367445
0.00169411
0.00328688
0.00190233
0.00288745
0.00212371
0.00248081
0.00235763
0.00207157
0.00260335
0.00166423
0.00285999
0.00126309
0.00312661
0.000872236
0.00340217
0.000495436
0.00368555
0.000136098
0.00397558
-0.00020278
0.0042711
-0.000518647
0.00457091
-0.000809413
0.00487386
-0.00107344
0.00517888
-0.00130948
0.00548498
-0.00151656
0.00579138
-0.00169364
0.00609748
-0.00183904
0.00640291
-0.00194778
-0.00200735
0.00670733
7.5964e-06
0.0006425
2.5765e-05
0.00173064
5.14728e-05
0.00268452
8.26096e-05
0.00349467
0.000117976
0.00416453
0.000157153
0.00470297
0.000200358
0.00512096
0.000248288
0.00543003
0.000301969
0.00564155
0.000362603
0.00576613
0.00043145
0.00581332
0.000509736
0.00579147
0.000598581
0.0057079
0.000698964
0.00556897
0.000811698
0.00538037
0.00093742
0.00514725
0.00107659
0.00487446
0.0012295
0.0045667
0.0013963
0.00422861
0.00157695
0.00386484
0.00177131
0.0034801
0.00197906
0.00307913
0.00219976
0.00266674
0.00243286
0.00224772
0.00267764
0.00182679
0.00293332
0.00140855
0.00319897
0.000997438
0.0034736
0.00059761
0.00375612
0.000212913
0.0040454
-0.000153185
0.00434027
-0.00049765
0.00463954
-0.000817918
0.00494204
-0.00111191
0.00524664
-0.00137803
0.00555228
-0.00161512
0.00585804
-0.00182233
0.00616318
-0.00199878
0.0064672
-0.00214306
0.00676992
-0.0022505
-0.00230878
0.00707135
9.25681e-06
0.000633243
3.17499e-05
0.00170815
6.41121e-05
0.00265216
0.000103943
0.00345484
0.000149773
0.0041187
0.000200912
0.00465183
0.00025732
0.00506455
0.000319452
0.0053679
0.000388116
0.00557289
0.000464326
0.00568993
0.000549177
0.00572846
0.000643755
0.0056969
0.000749059
0.00560259
0.000865957
0.00545207
0.000995164
0.00525116
0.00113722
0.00500519
0.0012925
0.00471918
0.00146121
0.004398
0.00164339
0.00404644
0.00183893
0.0036693
0.0020476
0.00327143
0.002269
0.00285773
0.00250261
0.00243313
0.00274779
0.00200254
0.00300377
0.0015708
0.00326968
0.00114264
0.00354456
0.000722558
0.00382736
0.000314813
0.00411695
-7.66843e-05
0.00441219
-0.00044842
0.00471187
-0.000797336
0.00501482
-0.00112087
0.00531988
-0.00141696
0.00562592
-0.00168408
0.00593195
-0.00192115
0.00623708
-0.00212746
0.00654063
-0.00230233
0.0068422
-0.00244462
0.00714177
-0.00255008
-0.0026067
0.0074397
1.07655e-05
0.000622477
3.72744e-05
0.00168164
7.59203e-05
0.00261351
0.00012408
0.00340668
0.000180059
0.00406272
0.000242926
0.00458897
0.000312395
0.00499508
0.000388687
0.00529161
0.000472388
0.00548919
0.000564313
0.005598
0.000665384
0.00562739
0.000776533
0.00558575
0.000898623
0.00548051
0.0010324
0.0053183
0.00117847
0.00510509
0.00133728
0.00484638
0.00150908
0.00454737
0.001694
0.00421308
0.00189197
0.00384846
0.00210281
0.00345846
0.00232617
0.00304807
0.00256158
0.00262233
0.00280843
0.00218628
0.00306599
0.00174498
0.00333343
0.00130336
0.00360981
0.000866261
0.00389409
0.000438273
0.00418518
2.37216e-05
0.00448192
-0.000373425
0.00478312
-0.00074962
0.00508758
-0.00110179
0.00539411
-0.0014274
0.00570156
-0.00172442
0.00600886
-0.00199138
0.00631504
-0.00222733
0.00661926
-0.00243168
0.00692091
-0.00260398
0.00721967
-0.00274339
0.0075157
-0.00284611
-0.00290067
0.00780967
1.21074e-05
0.00061037
4.22847e-05
0.00165146
8.67833e-05
0.00256901
0.000142827
0.00335064
0.000208545
0.003997
0.000282795
0.00451472
0.000365065
0.00491281
0.000455345
0.00520133
0.000554001
0.00539053
0.000661644
0.00549036
0.000779013
0.00551002
0.000906873
0.00545789
0.00104594
0.00534144
0.00119684
0.0051674
0.00136003
0.00494189
0.00153587
0.00467055
0.00172449
0.00435875
0.00192592
0.00401166
0.00213999
0.00363439
0.00236642
0.00323203
0.00260477
0.00280973
0.00285446
0.00237264
0.0031148
0.00192594
0.00338498
0.0014748
0.00366407
0.00102427
0.00395108
0.000579259
0.00424489
0.000144461
0.00454435
-0.000275742
0.00484826
-0.000677338
0.0051554
-0.00105676
0.00546456
-0.00141095
0.00577454
-0.00173738
0.00608423
-0.0020341
0.00639257
-0.00229973
0.00669865
-0.00253341
0.00700169
-0.00273471
0.00730114
-0.00290344
0.00759678
-0.00303902
0.0078889
-0.00313823
-0.00319027
0.00817849
1.32698e-05
0.0005971
4.67357e-05
0.00161799
9.66039e-05
0.00251914
0.000160017
0.00328723
0.000234975
0.00392204
0.000320161
0.00442953
0.000414853
0.00481812
0.000518825
0.00509736
0.000632222
0.00527713
0.000755451
0.00536713
0.000889057
0.00537642
0.00103363
0.00531331
0.00118974
0.00518533
0.00135784
0.0049993
0.0015383
0.00476143
0.00173132
0.00447753
0.00193695
0.00415312
0.00215507
0.00379353
0.00238545
0.00340401
0.00262767
0.00298981
0.0028812
0.0025562
0.00314537
0.00210847
0.00341938
0.00165193
0.00370234
0.00119184
0.00399323
0.000733374
0.00429096
0.000281525
0.00459437
-0.000158947
0.00490223
-0.000583603
0.0052133
-0.000988402
0.00552631
-0.00136978
0.00584005
-0.00172469
0.00615333
-0.00205066
0.00646505
-0.00234582
0.0067742
-0.00260888
0.00707992
-0.00283912
0.00738149
-0.00303629
0.00767846
-0.0032004
0.00797067
-0.00333124
0.00825856
-0.00342611
-0.00347512
0.0085434
1.42434e-05
0.000582856
5.05928e-05
0.00158164
0.000105305
0.00246443
0.000175512
0.00321702
0.000259135
0.00383842
0.000354714
0.00433395
0.000461344
0.00471149
0.000578592
0.00498011
0.000706392
0.00514933
0.000844942
0.00522858
0.000994592
0.00522677
0.00115575
0.00515215
0.00132882
0.00501227
0.00151411
0.00481401
0.00171183
0.0045637
0.00192208
0.00426729
0.00214477
0.00393043
0.00237969
0.00355861
0.00262647
0.00315723
0.0028846
0.00273168
0.00315343
0.00228736
0.00343219
0.0018297
0.00371999
0.00136413
0.00401582
0.00089601
0.00431859
0.000430611
0.0046271
-2.69869e-05
0.00494011
-0.00047196
0.00525634
-0.00089983
0.00557448
-0.00130654
0.00589325
-0.00168854
0.0062114
-0.00204284
0.00652777
-0.00236703
0.00684128
-0.00265933
0.00715098
-0.00291858
0.00745605
-0.0031442
0.00775587
-0.00333612
0.00805006
-0.00349459
0.00833857
-0.00361974
0.00862194
-0.00370948
-0.00375491
0.00890173
1.50222e-05
0.000567834
5.38326e-05
0.00154283
0.000112832
0.00240543
0.000189211
0.00314064
0.000280857
0.00374677
0.000386206
0.0042286
0.000504194
0.0045935
0.000634196
0.0048501
0.000775944
0.00500759
0.000929429
0.00507509
0.0010948
0.00506139
0.00127229
0.00497466
0.00146212
0.00482245
0.00166444
0.00461168
0.00187934
0.0043488
0.00210675
0.00403988
0.00234647
0.0036907
0.00259818
0.00330691
0.00286138
0.00289403
0.00313544
0.00245761
0.00341963
0.00200318
0.00371304
0.00153629
0.00401467
0.0010625
0.00432341
0.00058727
0.00463805
0.000115966
0.00495732
-0.000346258
0.00527989
-0.000794524
0.00560438
-0.00122433
0.00592946
-0.00163162
0.0062538
-0.00201288
0.00657615
-0.00236519
0.00689534
-0.00268623
0.00721035
-0.00297434
0.00752028
-0.0032285
0.00782439
-0.00344831
0.00812215
-0.00363388
0.00841327
-0.00378571
0.0086978
-0.00390427
0.0089764
-0.00398808
-0.0040294
0.00925089
1.5604e-05
0.00055223
5.64443e-05
0.00150199
0.000119155
0.00234272
0.000201049
0.00305875
0.000300028
0.00364779
0.000414458
0.00411417
0.000543142
0.00446481
0.000685286
0.00470796
0.000840424
0.00485245
0.00100835
0.00490717
0.00118902
0.00488072
0.00138247
0.00478121
0.00158875
0.00461617
0.00180786
0.00439257
0.00203972
0.00411695
0.00228413
0.00379547
0.00254077
0.00343406
0.00280918
0.0030385
0.00308875
0.00261447
0.00337873
0.00216763
0.00367824
0.00170367
0.00398628
0.00122825
0.00430173
0.000747054
0.00462334
0.000265655
0.00494981
-0.000210503
0.00527975
-0.000676196
0.00561173
-0.00112651
0.00594432
-0.00155692
0.00627611
-0.00196341
0.00660576
-0.00234253
0.00693199
-0.00269143
0.00725368
-0.00300792
0.00756984
-0.00329049
0.00787963
-0.00353829
0.00818242
-0.0037511
0.00847777
-0.00392923
0.00876551
-0.00407345
0.0090458
-0.00418455
0.0093194
-0.00426169
-0.00429836
0.00958837
1.59906e-05
0.000536239
5.843e-05
0.00145955
0.000124269
0.00227688
0.000211002
0.00297201
0.00031659
0.0035422
0.000439365
0.0039914
0.000578025
0.00432615
0.000731622
0.00455436
0.000899513
0.00468456
0.0010813
0.00472538
0.00127674
0.00468528
0.0014857
0.00457226
0.00170803
0.00439384
0.00194358
0.00415702
0.00219212
0.00386841
0.00245331
0.00353428
0.00272668
0.00316069
0.00301164
0.00275354
0.00330746
0.00231865
0.00361326
0.00186183
0.00392803
0.0013889
0.00425063
0.000905652
0.0045798
0.000417881
0.00491419
-6.87309e-05
0.00525235
-0.000548661
0.00559278
-0.00101663
0.00593396
-0.00146769
0.00627437
-0.00189734
0.00661257
-0.0023016
0.00694715
-0.00267712
0.00727688
-0.00302116
0.00760065
-0.00333168
0.00791751
-0.00360736
0.00822674
-0.00384752
0.0085278
-0.00405216
0.00882038
-0.00422181
0.00910441
-0.00435748
0.00938017
-0.00446031
0.00964855
-0.00453008
-0.00456161
0.0099118
1.61877e-05
0.000520052
5.98055e-05
0.00141594
0.000128196
0.00220849
0.000219091
0.00288112
0.000330551
0.00343074
0.000460907
0.00386104
0.000608781
0.00417828
0.000773093
0.00439005
0.000953037
0.00450461
0.00114803
0.00453038
0.00135766
0.00447565
0.00158159
0.00434834
0.00181951
0.00415592
0.0020711
0.00390543
0.00233598
0.00360353
0.00261365
0.00325661
0.00290351
0.00287082
0.00320483
0.00245221
0.00351674
0.00200674
0.00383822
0.00154035
0.00416812
0.001059
0.00450514
0.000568628
0.00484789
7.51327e-05
0.00519486
-0.000415704
0.00554448
-0.000898281
0.00589513
-0.00136727
0.00624517
-0.00181773
0.00659303
-0.00224519
0.00693719
-0.00264576
0.00727625
-0.00301618
0.00760897
-0.00335388
0.0079343
-0.00365701
0.00825136
-0.00392443
0.00855954
-0.0041557
0.0088584
-0.00435102
0.00914778
-0.00451119
0.00942775
-0.00463744
0.0096987
-0.00473126
0.00996166
-0.00479303
-0.00481896
0.010219
1.62048e-05
0.000503847
6.05998e-05
0.00137154
0.000130986
0.0021381
0.000225379
0.00278672
0.000341978
0.00331415
0.000479149
0.00372387
0.000635458
0.00402197
0.000809719
0.00421579
0.00100098
0.00431335
0.0012085
0.00432287
0.00143168
0.00425248
0.00167
0.00411001
0.00192301
0.00390291
0.00219019
0.00363824
0.00247102
0.0033227
0.00276485
0.00296278
0.00307094
0.00256474
0.00338839
0.00213476
0.00371618
0.00167895
0.00405315
0.00120338
0.00439798
0.000714171
0.00474922
0.000217388
0.00510531
-0.000280954
0.00546458
-0.00077498
0.00582532
-0.00125903
0.00618579
-0.00172774
0.00654424
-0.00217619
0.00689903
-0.00259998
0.00724859
-0.00299532
0.00759153
-0.00335912
0.00792662
-0.00368898
0.00825289
-0.00398327
0.00856955
-0.00424109
0.00887611
-0.00446225
0.00917227
-0.00464718
0.00945801
-0.00479693
0.00973354
-0.00491298
0.00999941
-0.00499713
0.0102568
-0.00505036
-0.00507031
0.0105081
1.60557e-05
0.000487791
6.0855e-05
0.00132674
0.000132713
0.00206624
0.000229972
0.00268946
0.000351007
0.00319311
0.00049424
0.00358064
0.000658216
0.003858
0.000841663
0.00403235
0.00104351
0.0041115
0.00126285
0.00410353
0.00149892
0.0040164
0.00175106
0.00385788
0.00201861
0.00363536
0.00230094
0.00335591
0.00259732
0.00302632
0.00290697
0.00265313
0.00322898
0.00224274
0.00356229
0.00180144
0.00390573
0.00133551
0.00425795
0.000851166
0.00461745
0.000354666
0.00498262
-0.000147776
0.0053517
-0.000650037
0.00572288
-0.00114616
0.00609428
-0.00163042
0.00646402
-0.00209748
0.00683027
-0.00254244
0.00719132
-0.00296102
0.00754557
-0.00334958
0.00789165
-0.00370519
0.00822838
-0.00402571
0.00855486
-0.00430975
0.00887044
-0.00455667
0.00917474
-0.00476655
0.00946764
-0.00494008
0.00974927
-0.00507856
0.01002
-0.00518372
0.0102805
-0.00525766
0.0105321
-0.00530191
-0.00531553
0.0107773
1.57583e-05
0.000472032
6.06252e-05
0.00128187
0.000133477
0.00199339
0.000233021
0.00258992
0.000357832
0.0030683
0.000506418
0.00343205
0.000677326
0.00368709
0.000869222
0.00384045
0.00108093
0.0038998
0.0013114
0.00387305
0.00155974
0.00376806
0.00182511
0.00359251
0.0021067
0.00335376
0.00240371
0.00305891
0.00271525
0.00271477
0.00304037
0.00232801
0.00337799
0.00190512
0.00372689
0.00145255
0.00408568
0.00097671
0.00445285
0.000484002
0.00482669
-1.91746e-05
0.00520538
-0.000526469
0.00558699
-0.00103165
0.00596953
-0.00152869
0.00635095
-0.00201184
0.00672926
-0.00247579
0.00710253
-0.00291572
0.00746901
-0.0033275
0.0078271
-0.00370766
0.00817544
-0.00405353
0.00851295
-0.00436322
0.00883882
-0.00463563
0.00915255
-0.0048704
0.00945392
-0.00506791
0.00974297
-0.00522913
0.01002
-0.0053556
0.0102856
-0.0054493
0.0105406
-0.00551262
0.0107863
-0.00554761
-0.0055546
0.0110253
1.53337e-05
0.000456698
5.99762e-05
0.00123723
0.000133403
0.00191997
0.000234713
0.00248861
0.000362706
0.00294031
0.000515999
0.00327876
0.000693163
0.00350992
0.000892827
0.00364079
0.00111372
0.0036789
0.0013547
0.00363207
0.00161471
0.00350806
0.00189276
0.00331445
0.00218791
0.00305862
0.00249917
0.00274765
0.00282549
0.00238845
0.00316574
0.00198776
0.00351865
0.00155221
0.00388281
0.0010884
0.00425662
0.000602897
0.00463834
0.000102278
0.00502607
-0.000406903
0.00541777
-0.000918164
0.00581129
-0.00142518
0.00620447
-0.00192186
0.0065951
-0.00240248
0.00698109
-0.00286177
0.00736043
-0.00329507
0.00773134
-0.0036984
0.00809223
-0.00406856
0.00844183
-0.00440313
0.00877914
-0.00470054
0.00910351
-0.00495999
0.00941456
-0.00518146
0.00971227
-0.00536562
0.00999686
-0.00551373
0.0102688
-0.00562757
0.0105289
-0.00570938
0.0107781
-0.00576183
0.011018
-0.00578748
-0.00578822
0.0112516
1.48063e-05
0.000441892
5.89836e-05
0.00119305
0.000132636
0.00184631
0.000235273
0.00238597
0.000365936
0.00280964
0.000523372
0.00312132
0.0007062
0.0033271
0.000913029
0.00343396
0.00114252
0.00344941
0.00139343
0.00338116
0.00166458
0.00323691
0.00195485
0.00302419
0.00226312
0.00275035
0.00258823
0.00242253
0.00292898
0.0020477
0.00328402
0.00163272
0.00365188
0.00118435
0.00403092
0.000709354
0.00441934
0.000214483
0.00481513
-0.000293519
0.00521617
-0.000807939
0.00562018
-0.00132217
0.00602482
-0.00182982
0.00642773
-0.00232477
0.00682658
-0.00280133
0.00721915
-0.00325435
0.00760342
-0.00367934
0.00797758
-0.00407256
0.00834012
-0.0044311
0.00868984
-0.00475286
0.0090259
-0.00503659
0.00934777
-0.00528186
0.0096553
-0.00548899
0.00994862
-0.00565894
0.0102282
-0.00579327
0.0104946
-0.005894
0.0107488
-0.00596361
0.010992
-0.00600501
0.0112258
-0.00602123
-0.00601552
0.0114531
1.42023e-05
0.000427689
5.77317e-05
0.00114952
0.000131338
0.00177271
0.000234952
0.00228236
0.000367871
0.00267672
0.000528989
0.00296021
0.000716991
0.00313909
0.000930483
0.00322047
0.00116808
0.00321181
0.00142845
0.00312079
0.0017103
0.00295506
0.00201237
0.00272212
0.00233338
0.00242934
0.00267201
0.0020839
0.00302685
0.00169287
0.00339633
0.00126323
0.00377877
0.000801913
0.00417227
0.000315853
0.00457476
-0.000188015
0.00498401
-0.000702768
0.00539761
-0.00122154
0.00581307
-0.00173763
0.00622783
-0.00224458
0.00663935
-0.00273629
0.00704519
-0.00320717
0.00744307
-0.00365222
0.00783094
-0.0040672
0.00820703
-0.00444866
0.00856993
-0.00479399
0.00891855
-0.00510148
0.00925222
-0.00537026
0.00957062
-0.00560026
0.00987375
-0.00579212
0.010162
-0.00594716
0.0104359
-0.0060672
0.0106964
-0.00615449
0.0109445
-0.00621173
0.0111815
-0.00624204
0.0114092
-0.00624887
-0.00623673
0.0116304
1.35501e-05
0.000414139
5.63109e-05
0.00110676
0.000129685
0.00169933
0.000234026
0.00217802
0.000368897
0.00254185
0.000533352
0.00279575
0.000726155
0.00294629
0.000945926
0.0030007
0.00119125
0.00296649
0.00146071
0.00285133
0.00175291
0.00266285
0.00206646
0.00240857
0.00239991
0.00209589
0.00275175
0.00173206
0.00312035
0.00132428
0.00350391
0.000879662
0.00390049
0.000405336
0.00430792
-9.15783e-05
0.00472386
-0.000603952
0.00514577
-0.00112468
0.00557101
-0.00164678
0.00599684
-0.00216345
0.00642049
-0.00266824
0.0068393
-0.0031551
0.00725072
-0.00361859
0.00765243
-0.00405393
0.0080424
-0.00445718
0.00841897
-0.00482523
0.00878083
-0.00515585
0.00912708
-0.00544773
0.00945722
-0.0057004
0.00977113
-0.00591417
0.0100691
-0.00609004
0.0103515
-0.00622963
0.0106194
-0.00633503
0.0108736
-0.00640872
0.0111154
-0.00645357
0.0113463
-0.00647291
0.011568
-0.00647054
-0.00645222
0.0117835
1.28789e-05
0.00040126
5.48158e-05
0.00106483
0.000127859
0.00162629
0.000232783
0.00207309
0.000369422
0.00240521
0.000536995
0.00262818
0.000734355
0.00274893
0.00096015
0.0027749
0.00121294
0.0027137
0.00149124
0.00257303
0.00179356
0.00236053
0.00211835
0.00208379
0.00246398
0.00175025
0.00282875
0.00136729
0.00321078
0.000942249
0.00360802
0.000482424
0.00401822
-4.86548e-06
0.00443893
-0.000512289
0.0048675
-0.00103252
0.00530111
-0.0015583
0.00573684
-0.00208252
0.00617173
-0.00259835
0.00660285
-0.00309936
0.0070274
-0.00357964
0.00744277
-0.00403396
0.00784667
-0.00445784
0.00823715