/*--------------------------------*- C++ -*----------------------------------*\
  =========                 |
  \\      /  F ield         | OpenFOAM: The Open Source CFD Toolbox
   \\    /   O peration     | Website:  https://openfoam.org
    \\  /    A nd           | Version:  7
     \\/     M anipulation  |
\*---------------------------------------------------------------------------*/
FoamFile
{
    version     2.0;
    format      ascii;
    class       volVectorField;
    location    "3.3";
    object      U;
}
// * * * * * * * * * * * * * * * * * * * * * * * * * * * * * * * * * * * * * //

dimensions      [0 1 -1 0 0 0 0];

internalField   nonuniform List<vector> 
32000
(
(-0.000840533 0.0222488 -7.50769e-22)
(-0.00419589 0.0607624 0)
(-0.0097815 0.0946746 -6.68394e-21)
(-0.0162091 0.123587 0)
(-0.0230969 0.147781 6.9619e-21)
(-0.0300243 0.167779 0)
(-0.036686 0.184145 7.19919e-21)
(-0.0428517 0.197402 -5.47444e-21)
(-0.048354 0.208006 2.46508e-24)
(-0.0530757 0.216325 2.6861e-24)
(-0.0569405 0.222651 -1.89015e-21)
(-0.0599025 0.227207 7.62665e-21)
(-0.0619404 0.230162 0)
(-0.0630549 0.231654 -1.93901e-21)
(-0.0632597 0.231793 1.94707e-21)
(-0.062577 0.230681 0)
(-0.0610374 0.228413 9.83061e-21)
(-0.0586765 0.225087 -1.97308e-21)
(-0.0555332 0.220801 0)
(-0.0516498 0.215657 3.97724e-21)
(-0.0470707 0.209761 3.9712e-21)
(-0.0418415 0.203222 0)
(-0.0360104 0.196151 0)
(-0.0296275 0.188657 0)
(-0.0227439 0.18085 0)
(-0.0154113 0.172838 0)
(-0.00768214 0.164721 0)
(0.000390779 0.156597 0)
(0.00875409 0.148555 -7.92598e-21)
(0.0173546 0.140679 0)
(0.0261397 0.133044 7.89016e-21)
(0.0350573 0.125717 0)
(0.0440563 0.118756 0)
(0.0530874 0.112214 0)
(0.062102 0.106137 -7.7896e-21)
(0.0710494 0.100566 -3.89195e-21)
(0.0798783 0.0955415 1.16194e-20)
(0.0885538 0.0911004 -9.79789e-24)
(0.0970348 0.0873626 7.67984e-21)
(0.105019 0.0845299 -1.26463e-23)
(-0.00125267 0.0230066 0)
(-0.00517611 0.0625126 1.30273e-20)
(-0.0110804 0.0970943 3.34376e-21)
(-0.0176848 0.126452 -1.09637e-24)
(-0.0246493 0.150903 -3.48396e-21)
(-0.0315908 0.170996 0)
(-0.0382297 0.187315 7.17166e-21)
(-0.044351 0.200403 -7.27475e-21)
(-0.0497957 0.210735 0)
(-0.054453 0.218698 -1.49331e-20)
(-0.0582489 0.224598 0)
(-0.0611372 0.228672 -2.2844e-20)
(-0.0630963 0.231105 0)
(-0.0641246 0.232039 0)
(-0.0642339 0.231597 7.78266e-21)
(-0.0634455 0.229886 -7.8078e-21)
(-0.0617883 0.227008 -7.85972e-21)
(-0.0592961 0.223065 0)
(-0.0560076 0.21816 2.3684e-20)
(-0.0519649 0.2124 -7.90984e-21)
(-0.0472117 0.205895 -4.47031e-24)
(-0.0417946 0.198758 -2.37867e-20)
(-0.0357631 0.191103 -1.58639e-20)
(-0.0291678 0.183045 -7.95847e-21)
(-0.0220604 0.174697 2.37997e-20)
(-0.0144956 0.166171 -2.38032e-20)
(-0.00652831 0.157571 2.38116e-20)
(0.00178674 0.148998 -3.1638e-20)
(0.0103948 0.140545 -7.85731e-21)
(0.01924 0.132299 5.34149e-23)
(0.0282667 0.124337 -2.35638e-20)
(0.0374208 0.116727 -1.5684e-20)
(0.0466498 0.109531 3.12892e-20)
(0.0559027 0.102804 -3.115e-20)
(0.0651287 0.096592 -7.71966e-21)
(0.0742768 0.0909409 -3.09472e-20)
(0.0832956 0.0858961 1.99926e-23)
(0.092148 0.0815021 7.67226e-21)
(0.100792 0.0778913 -3.05116e-20)
(0.108921 0.0752834 -4.34282e-20)
(-0.00168512 0.0236633 -2.98815e-21)
(-0.00618481 0.0640183 -6.51817e-21)
(-0.0123918 0.099223 -2.99568e-20)
(-0.0191431 0.129012 0)
(-0.026142 0.153727 3.47181e-21)
(-0.0330464 0.173933 -3.53091e-21)
(-0.0396042 0.190231 -4.30535e-20)
(-0.0456184 0.203181 1.45759e-20)
(-0.0509408 0.213271 -7.37943e-21)
(-0.0554689 0.220906 4.47291e-20)
(-0.0591301 0.226406 1.50687e-20)
(-0.0618778 0.230024 7.62254e-21)
(-0.063691 0.231953 -3.06025e-20)
(-0.0645678 0.232349 0)
(-0.0645177 0.231342 0)
(-0.0635604 0.229045 1.56014e-20)
(-0.0617244 0.225569 2.86315e-23)
(-0.0590431 0.221019 -1.56913e-20)
(-0.0555535 0.215503 -1.57749e-20)
(-0.051298 0.209133 -3.15119e-20)
(-0.0463218 0.202024 4.73839e-20)
(-0.0406715 0.194292 4.61942e-23)
(-0.0343969 0.186057 1.2632e-23)
(-0.027551 0.177438 1.58169e-20)
(-0.0201879 0.168551 -3.17097e-20)
(-0.0123636 0.159512 6.32184e-20)
(-0.00413511 0.15043 0)
(0.00444075 0.141409 1.58112e-20)
(0.0133062 0.132547 1.57827e-20)
(0.022403 0.123932 3.14809e-20)
(0.0316737 0.115644 5.32805e-23)
(0.0410623 0.107755 0)
(0.0505143 0.100327 1.55809e-20)
(0.0599767 0.0934161 -1.54612e-20)
(0.0693981 0.0870721 -1.53659e-20)
(0.0787269 0.0813429 4.63043e-20)
(0.087911 0.0762777 -4.59099e-20)
(0.0969136 0.0719294 3.05899e-20)
(0.105692 0.0684441 -4.54986e-20)
(0.113934 0.0660599 1.72059e-20)
(-0.00213582 0.0242663 2.38401e-20)
(-0.00722341 0.0654187 -2.59491e-20)
(-0.0137202 0.101194 5.31968e-20)
(-0.020592 0.131384 0)
(-0.0275859 0.156351 2.07539e-20)
(-0.0344039 0.176671 3.52262e-20)
(-0.040824 0.192956 7.22247e-21)
(-0.0466699 0.205782 7.90573e-24)
(-0.0518059 0.215647 2.20553e-20)
(-0.0561356 0.222972 -7.50959e-21)
(-0.0595916 0.228092 3.75534e-20)
(-0.0621301 0.231271 -4.54784e-20)
(-0.0637293 0.232716 4.58748e-20)
(-0.0643858 0.23259 -1.53944e-20)
(-0.0641096 0.231033 1.54586e-20)
(-0.0629189 0.228166 -3.10428e-20)
(-0.060841 0.224104 -4.67825e-20)
(-0.057909 0.218959 1.56432e-20)
(-0.0541607 0.212844 -1.57116e-20)
(-0.0496385 0.205875 4.72249e-20)
(-0.0443877 0.198171 -3.15582e-20)
(-0.0384567 0.189853 -3.14667e-20)
(-0.0318971 0.181045 0)
(-0.024763 0.17187 0)
(-0.0171104 0.162451 -3.14575e-20)
(-0.00899801 0.152905 -3.15673e-20)
(-0.000485262 0.143347 -3.13904e-20)
(0.00836873 0.133884 0)
(0.0175039 0.124618 0)
(0.0268597 0.115639 -6.25285e-20)
(0.0363764 0.107031 -7.00193e-23)
(0.0459963 0.0988674 3.11899e-20)
(0.0556629 0.0912129 -3.09856e-20)
(0.0653218 0.0841241 -3.09471e-20)
(0.0749212 0.0776523 3.09157e-20)
(0.0844091 0.0718475 0)
(0.0937328 0.066763 3.06256e-20)
(0.102856 0.0624594 -6.07945e-20)
(0.111737 0.0590953 6.06014e-20)
(0.120059 0.0569308 -6.86579e-20)
(-0.00259956 0.0247681 -1.19354e-20)
(-0.00827964 0.0665995 1.94655e-20)
(-0.0150516 0.102885 -2.65716e-20)
(-0.0220166 0.13345 0)
(-0.0289673 0.158663 -3.46009e-20)
(-0.035653 0.179108 -2.11425e-20)
(-0.0418817 0.195403 2.86291e-20)
(-0.0474992 0.20813 0)
(-0.052385 0.2178 -4.41096e-20)
(-0.0564513 0.224846 -1.48955e-20)
(-0.0596353 0.229615 -1.50274e-20)
(-0.0618953 0.232383 3.03179e-20)
(-0.0632114 0.233368 -3.04921e-20)
(-0.0635804 0.232745 1.53343e-20)
(-0.0630106 0.230661 0)
(-0.0615201 0.227245 4.6552e-20)
(-0.0591365 0.222617 1.56166e-20)
(-0.0558929 0.216894 -3.12363e-20)
(-0.0518269 0.210196 6.25747e-20)
(-0.0469819 0.202642 -6.26874e-20)
(-0.0414051 0.194356 6.26762e-20)
(-0.035146 0.185465 3.14661e-20)
(-0.0282574 0.176096 0)
(-0.0207959 0.166378 3.14389e-20)
(-0.0128204 0.156436 1.00348e-22)
(-0.00439172 0.146393 0)
(0.00442853 0.136368 3.13898e-20)
(0.0135786 0.126473 -3.13022e-20)
(0.0229957 0.116812 3.11718e-20)
(0.0326171 0.107479 6.23795e-20)
(0.0423814 0.0985608 -6.21114e-20)
(0.0522285 0.0901323 6.19749e-20)
(0.0621006 0.0822597 0)
(0.0719423 0.0750005 0)
(0.0817008 0.0684078 6.13069e-20)
(0.0913247 0.0625323 0)
(0.100761 0.0574307 0)
(0.109975 0.0531708 -6.04578e-20)
(0.118926 0.0499238 6.02148e-20)
(0.127291 0.0479723 3.41907e-20)
(-0.00307307 0.0251918 5.93992e-21)
(-0.0093477 0.0676046 0)
(-0.0163802 0.10434 5.29255e-20)
(-0.0234151 0.135246 6.76892e-21)
(-0.0302886 0.160694 6.90823e-21)
(-0.0367974 0.181268 4.20921e-20)
(-0.0427834 0.197587 5.70327e-20)
(-0.0481163 0.210236 0)
(-0.0526902 0.219736 1.46678e-20)
(-0.0564272 0.226529 4.44166e-20)
(-0.0592715 0.230973 5.98109e-20)
(-0.0611849 0.233357 -1.51051e-20)
(-0.0621487 0.233908 -4.5556e-20)
(-0.0621604 0.232813 0)
(-0.0612288 0.230225 6.14527e-20)
(-0.0593721 0.226281 0)
(-0.0566176 0.221108 9.29767e-20)
(-0.0529993 0.214829 -3.10871e-20)
(-0.0485561 0.207567 0)
(-0.0433326 0.199447 -3.12522e-20)
(-0.0373771 0.190598 -8.47949e-23)
(-0.0307409 0.181151 -3.11234e-20)
(-0.0234796 0.171238 -3.12538e-20)
(-0.0156523 0.160992 3.13014e-20)
(-0.00732023 0.150543 -3.12194e-20)
(0.00145318 0.140019 0)
(0.0106038 0.129543 -3.12064e-20)
(0.0200671 0.11923 3.10871e-20)
(0.0297777 0.109187 0)
(0.0396709 0.099514 0)
(0.0496834 0.090298 0)
(0.0597531 0.0816169 -6.16985e-20)
(0.0698205 0.0735377 6.1372e-20)
(0.0798299 0.0661191 0)
(0.0897284 0.0594143 -3.05786e-20)
(0.0994644 0.0534753 0)
(0.108986 0.0483603 6.05757e-20)
(0.118258 0.0441437 -2.99956e-20)
(0.127243 0.0410091 -6.00247e-20)
(0.135617 0.0392621 6.77133e-20)
(-0.00355147 0.0255229 4.14286e-20)
(-0.0104198 0.0684066 -5.80212e-20)
(-0.017699 0.105525 -9.91309e-20)
(-0.0247796 0.136735 -5.39692e-20)
(-0.0315426 0.162405 -1.3779e-20)
(-0.0378346 0.183113 -2.80937e-20)
(-0.0435301 0.199469 -1.28186e-19)
(-0.0485228 0.212064 -4.32746e-20)
(-0.0527251 0.221421 -7.30784e-20)
(-0.0560702 0.22799 -7.40311e-20)
(-0.0585088 0.23214 -1.04555e-19)
(-0.0600074 0.23417 -6.01718e-20)
(-0.0605504 0.234318 1.52882e-22)
(-0.0601366 0.232779 -6.09689e-20)
(-0.0587753 0.229715 -6.14514e-20)
(-0.0564854 0.225271 -9.23628e-20)
(-0.0532954 0.219579 6.16423e-20)
(-0.0492403 0.212768 -3.09852e-20)
(-0.0443607 0.204965 0)
(-0.0387023 0.196303 6.21041e-20)
(-0.0323156 0.186913 0)
(-0.0252545 0.176933 1.24599e-19)
(-0.0175773 0.166497 0)
(-0.00934581 0.155745 -3.11619e-20)
(-0.00062411 0.14481 3.12809e-20)
(0.00852176 0.133824 -6.20856e-20)
(0.0180248 0.122915 0)
(0.0278179 0.112203 -6.20049e-20)
(0.0378331 0.101798 6.17467e-20)
(0.0480035 0.0918016 0)
(0.0582637 0.082305 0)
(0.0685502 0.0733872 0)
(0.0788025 0.0651163 -6.09771e-20)
(0.088964 0.0575519 0)
(0.098982 0.0507467 -6.07644e-20)
(0.108806 0.044753 1.20931e-19)
(0.118383 0.0396301 -1.20432e-19)
(0.127681 0.0354574 5.96913e-20)
(0.136667 0.03243 1.19355e-19)
(0.145011 0.0308771 -6.72499e-20)
(-0.00403122 0.0257618 -5.32667e-20)
(-0.0114887 0.069 1.11642e-22)
(-0.0189999 0.106431 5.28136e-20)
(-0.0261048 0.137906 1.07826e-19)
(-0.0327279 0.163782 -1.37511e-20)
(-0.0387646 0.184623 -5.59196e-20)
(-0.0441242 0.201032 5.69036e-20)
(-0.0487255 0.213593 8.65613e-20)
(-0.0524993 0.222834 2.92586e-20)
(-0.0553908 0.229209 7.37257e-20)
(-0.0573593 0.233097 5.96728e-20)
(-0.0583773 0.234805 9.01355e-20)
(-0.0584324 0.234582 1.81571e-19)
(-0.0575254 0.23263 9.13407e-20)
(-0.0556673 0.229121 0)
(-0.0528787 0.224206 3.07986e-20)
(-0.0491893 0.218025 3.06076e-20)
(-0.0446361 0.21071 3.0776e-20)
(-0.0392612 0.202397 6.19098e-20)
(-0.0331127 0.19322 -3.12107e-20)
(-0.0262434 0.183317 0)
(-0.0187104 0.172829 -2.57612e-22)
(-0.0105749 0.161898 -6.1894e-20)
(-0.00190184 0.150664 6.18525e-20)
(0.00724164 0.139268 1.23863e-19)
(0.0167867 0.127845 1.23617e-19)
(0.0266637 0.116528 -9.09978e-23)
(0.0368022 0.10544 6.1487e-20)
(0.0471319 0.0946948 6.13522e-20)
(0.0575837 0.0843976 -6.12021e-20)
(0.0680907 0.0746411 6.10374e-20)
(0.0785875 0.065506 6.08587e-20)
(0.089013 0.0570618 1.21642e-19)
(0.0993105 0.0493679 -2.18489e-22)
(0.109427 0.0424768 1.81028e-19)
(0.119313 0.0364397 -9.10576e-23)
(0.128918 0.0313162 -5.97611e-20)
(0.138208 0.0271892 -5.98039e-20)
(0.147159 0.0242644 5.92336e-20)
(0.155438 0.0228937 6.66648e-20)
(-0.00450748 0.0259066 4.7132e-20)
(-0.0125463 0.0693809 6.43064e-20)
(-0.0202758 0.10705 3.94306e-20)
(-0.0273853 0.138746 -4.0402e-20)
(-0.0338417 0.164808 -6.85262e-20)
(-0.0395888 0.18578 5.59067e-20)
(-0.0445708 0.202253 0)
(-0.0487322 0.214801 5.74885e-20)
(-0.0520234 0.223953 0)
(-0.054403 0.230166 -1.17814e-19)
(-0.0558399 0.233824 2.97436e-20)
(-0.0563133 0.235244 -1.4987e-19)
(-0.055815 0.234683 -6.04456e-20)
(-0.0543491 0.232352 3.02061e-20)
(-0.051929 0.228432 2.00886e-23)
(-0.0485775 0.22308 -3.06152e-20)
(-0.0443264 0.216441 -6.15387e-20)
(-0.0392148 0.208656 -1.23165e-19)
(-0.0332876 0.199863 0)
(-0.0265952 0.190204 -8.6561e-23)
(-0.0191934 0.17982 -6.17478e-20)
(-0.0111429 0.168857 -6.19108e-20)
(-0.00250829 0.15746 6.18926e-20)
(0.00664225 0.145775 -6.20364e-20)
(0.0162384 0.133948 6.15068e-20)
(0.0262083 0.122118 -1.23214e-19)
(0.036479 0.110421 -9.18258e-23)
(0.0469774 0.0989845 -1.22763e-19)
(0.0576305 0.0879263 -6.13508e-20)
(0.0683671 0.0773535 9.1127e-23)
(0.0791185 0.0673614 -2.18174e-22)
(0.0898185 0.0580321 -6.08574e-20)
(0.100405 0.049436 -6.06649e-20)
(0.110822 0.041632 -3.09771e-22)
(0.121016 0.0346719 -6.0239e-20)
(0.130939 0.0286054 -3.06587e-22)
(0.140541 0.0234907 -5.95728e-20)
(0.149791 0.0194129 1.77785e-19)
(0.158672 0.0165867 -5.92325e-20)
(0.16685 0.0153857 -6.65194e-20)
(-0.00497568 0.0259578 -4.71317e-20)
(-0.0135844 0.0695462 1.28214e-20)
(-0.0215193 0.107374 -3.94526e-20)
(-0.0286164 0.139244 -1.34187e-20)
(-0.0348826 0.165469 5.4813e-20)
(-0.0403095 0.186567 -1.39401e-20)
(-0.0448761 0.203111 1.41503e-20)
(-0.0485531 0.215666 -8.6213e-20)
(-0.0513112 0.224755 2.90602e-20)
(-0.0531239 0.230835 5.88409e-20)
(-0.0539706 0.234297 0)
(-0.0538381 0.235464 1.19613e-19)
(-0.0527237 0.234601 0)
(-0.0506357 0.231928 -1.21112e-19)
(-0.0475907 0.227632 -6.07506e-20)
(-0.0436142 0.221879 0)
(-0.0387412 0.21482 0)
(-0.0330136 0.2066 1.22742e-19)
(-0.0264789 0.197364 6.14814e-20)
(-0.0191908 0.187258 -1.23026e-19)
(-0.0112088 0.176429 6.15055e-20)
(-0.00259736 0.165026 0)
(0.00657525 0.153199 -6.15287e-20)
(0.0162374 0.141099 1.22599e-19)
(0.0263153 0.128875 -6.13169e-20)
(0.0367338 0.116672 -6.13173e-20)
(0.0474166 0.104628 6.11056e-20)
(0.0582877 0.0928752 0)
(0.0692716 0.0815345 1.21689e-19)
(0.0802951 0.0707157 -6.06771e-20)
(0.0912879 0.0605159 -6.06328e-20)
(0.102183 0.0510188 -1.26726e-22)
(0.112918 0.042295 2.407e-19)
(0.123436 0.0344033 -1.80005e-19)
(0.133686 0.0273938 0)
(0.14362 0.021314 -5.96982e-20)
(0.153191 0.0162199 -1.18722e-19)
(0.162369 0.0121969 5.8779e-20)
(0.171145 0.00946664 5.86333e-20)
(0.179188 0.00842358 0)
(-0.00543165 0.0259165 -9.38147e-20)
(-0.0145952 0.0694953 -1.2792e-20)
(-0.0227232 0.107401 1.04731e-19)
(-0.0297931 0.139393 -1.07044e-19)
(-0.0358497 0.165752 0)
(-0.04093 0.186967 0)
(-0.0450476 0.203589 -2.82663e-20)
(-0.0481999 0.216167 -2.24198e-23)
(-0.0503788 0.225216 2.89987e-20)
(-0.0515734 0.231194 0)
(-0.0517749 0.234494 0)
(-0.0509787 0.235443 -2.98967e-20)
(-0.0491889 0.234315 1.11369e-23)
(-0.0464186 0.231338 3.02824e-20)
(-0.0426886 0.226706 6.07493e-20)
(-0.0380283 0.22059 0)
(-0.0324762 0.21315 6.10538e-20)
(-0.0260775 0.204534 -6.124e-20)
(-0.018883 0.194895 -1.22476e-19)
(-0.0109502 0.184382 1.22557e-19)
(-0.00234297 0.173148 4.41929e-23)
(0.00687014 0.161344 -6.12419e-20)
(0.0166171 0.149127 6.12572e-20)
(0.0268227 0.136651 -1.22422e-19)
(0.0374092 0.124069 0)
(0.0482978 0.11153 6.10228e-20)
(0.059409 0.099177 -1.21723e-19)
(0.0706639 0.0871441 6.06777e-20)
(0.0819845 0.0755557 -6.07371e-20)
(0.0932954 0.0645241 -6.04886e-20)
(0.104525 0.054148 -6.04436e-20)
(0.115606 0.0445125 2.4032e-19)
(0.126475 0.0356884 -1.7969e-19)
(0.137077 0.0277338 -1.19491e-19)
(0.147361 0.0206969 1.18806e-19)
(0.157281 0.0146224 0)
(0.166793 0.00956282 1.18112e-19)
(0.175866 0.0056021 -1.17372e-19)
(0.184505 0.00296692 -5.86321e-20)
(0.192382 0.00207048 0)
(-0.00587117 0.0257848 1.99123e-19)
(-0.0155709 0.0692305 8.92453e-20)
(-0.0238808 0.10713 -1.0473e-19)
(-0.0309117 0.139188 9.3671e-20)
(-0.0367426 0.165649 -1.36502e-20)
(-0.0414541 0.186967 2.77419e-20)
(-0.0450937 0.203667 0)
(-0.0476859 0.216282 -2.86041e-20)
(-0.049244 0.225314 2.89375e-20)
(-0.0497738 0.231218 2.9265e-20)
(-0.0492792 0.234388 -2.95211e-20)
(-0.0477658 0.235157 -2.97628e-20)
(-0.0452451 0.233803 2.99497e-20)
(-0.0417361 0.23056 0)
(-0.037265 0.225632 0)
(-0.0318655 0.219195 -6.06993e-20)
(-0.0255806 0.211415 6.08426e-20)
(-0.0184592 0.202447 -6.09602e-20)
(-0.010556 0.192447 6.10098e-20)
(-0.00193311 0.181571 6.10595e-20)
(0.00734092 0.169974 -1.2209e-19)
(0.0171934 0.157814 1.22031e-19)
(0.0275483 0.14525 5.2885e-23)
(0.0383262 0.132441 -6.0858e-20)
(0.0494453 0.119544 0)
(0.060823 0.106712 6.07318e-20)
(0.0723767 0.09409 9.18776e-23)
(0.0840244 0.0818168 -6.03823e-20)
(0.0956855 0.070019 0)
(0.107283 0.0588111 1.20364e-19)
(0.118744 0.0482936 -1.1979e-19)
(0.13 0.0385521 0)
(0.140989 0.0296576 1.19283e-19)
(0.151656 0.0216673 -1.18625e-19)
(0.161951 0.0146273 0)
(0.171833 0.00857873 0)
(0.181256 0.00356961 0)
(0.190195 -0.000319584 -1.17003e-19)
(0.198666 -0.00286004 1.16253e-19)
(0.206351 -0.00362443 1.29857e-19)
(-0.00629053 0.0255659 -9.3592e-20)
(-0.0165046 0.0687561 -1.02007e-19)
(-0.0249858 0.106562 -1.30539e-20)
(-0.0319681 0.138626 4.00219e-20)
(-0.0375611 0.165152 -5.44205e-20)
(-0.0418862 0.186555 5.53941e-20)
(-0.0450237 0.203332 -5.62764e-20)
(-0.0470254 0.215992 -8.54993e-20)
(-0.047926 0.225026 0)
(-0.0477492 0.230884 -2.92e-20)
(-0.0465128 0.233956 2.94554e-20)
(-0.0442332 0.23458 0)
(-0.0409307 0.233038 5.97595e-20)
(-0.0366313 0.229571 -6.0069e-20)
(-0.0313671 0.224389 -1.808e-19)
(-0.0251776 0.217674 1.57817e-24)
(-0.0181103 0.209598 1.21312e-19)
(-0.0102187 0.200322 -6.07498e-20)
(-0.0015621 0.190008 0)
(0.00779233 0.178815 0)
(0.0177711 0.166902 1.21379e-19)
(0.0282972 0.154432 6.07834e-20)
(0.03929 0.141568 -6.06832e-20)
(0.0506656 0.128473 -6.06494e-20)
(0.0623383 0.115307 1.21046e-19)
(0.0742215 0.102227 -6.03705e-20)
(0.0862291 0.0893812 1.20645e-19)
(0.0982762 0.076911 -2.40557e-19)
(0.11028 0.0649455 2.3995e-19)
(0.122161 0.0536011 -2.39301e-19)
(0.133846 0.0429795 2.38609e-19)
(0.145266 0.0331672 -2.37876e-19)
(0.156359 0.024235 1.18428e-19)
(0.167071 0.0162387 1.18266e-19)
(0.177356 0.00922184 2.47523e-22)
(0.187173 0.00322182 2.44251e-22)
(0.196481 -0.00171885 -1.16666e-19)
(0.205255 -0.00552507 4.09547e-22)
(0.213524 -0.00796922 -1.1566e-19)
(0.220986 -0.00861532 0)
(-0.00668637 0.0252639 1.16575e-20)
(-0.0173899 0.0680787 -1.27128e-20)
(-0.0260324 0.105703 3.90703e-20)
(-0.032959 0.137709 -5.32444e-20)
(-0.0383054 0.164257 2.71425e-20)
(-0.042231 0.185723 0)
(-0.0448474 0.202567 0)
(-0.0462332 0.215279 1.14022e-19)
(-0.0464453 0.224332 1.44018e-19)
(-0.0455255 0.230167 -2.91249e-20)
(-0.0435066 0.233172 1.4685e-19)
(-0.0404172 0.233686 -2.96168e-20)
(-0.0362873 0.231994 0)
(-0.0311506 0.228345 0)
(-0.0250465 0.222951 1.20476e-19)
(-0.0180208 0.216003 0)
(-0.0101264 0.207677 6.02944e-20)
(-0.00142171 0.198141 -6.03539e-20)
(0.00802831 0.18756 0)
(0.0181512 0.176098 -1.20981e-19)
(0.0288686 0.163919 -6.07949e-20)
(0.0400983 0.151189 -1.81325e-19)
(0.051755 0.138075 -6.04694e-20)
(0.0637505 0.124743 6.03392e-20)
(0.0759944 0.111358 1.20243e-19)
(0.0883963 0.0980788 0)
(0.100867 0.0850571 1.19718e-19)
(0.113317 0.0724363 2.39217e-19)
(0.125663 0.0603477 1.96561e-22)
(0.137823 0.0489092 -1.18957e-19)
(0.149723 0.0382239 -1.18825e-19)
(0.161294 0.0283785 1.18226e-19)
(0.172475 0.0194432 1.18075e-19)
(0.183213 0.0114725 -2.35091e-19)
(0.193464 0.00450717 2.34233e-19)
(0.20319 -0.00141979 -1.16955e-19)
(0.212355 -0.00627185 1.16075e-19)
(0.220936 -0.00998096 2.31408e-19)
(0.228974 -0.0123232 1.14904e-19)
(0.236185 -0.012857 1.2751e-19)
(-0.0070559 0.024884 -9.29382e-20)
(-0.0182212 0.0672068 8.86439e-20)
(-0.0270156 0.10456 -7.78621e-20)
(-0.0338814 0.136441 7.95788e-20)
(-0.038976 0.162966 1.35373e-19)
(-0.0424933 0.184464 -1.1023e-19)
(-0.0445746 0.201364 1.40023e-19)
(-0.0453246 0.214127 8.51522e-20)
(-0.0448225 0.223211 -2.01361e-19)
(-0.0431292 0.229044 5.80226e-20)
(-0.040293 0.232011 2.90748e-20)
(-0.0363559 0.232448 5.91001e-20)
(-0.0313583 0.230646 5.93279e-20)
(-0.0253433 0.226854 -1.19382e-19)
(-0.018358 0.221293 1.19837e-19)
(-0.0104553 0.214157 1.80329e-19)
(-0.00169407 0.205628 -1.81053e-19)
(0.0078612 0.19588 2.4144e-19)
(0.0181397 0.185083 1.20581e-19)
(0.0290634 0.173403 1.81359e-19)
(0.0405485 0.161009 6.013e-20)
(0.0525076 0.148071 1.20808e-19)
(0.0648504 0.134759 -1.20176e-19)
(0.0774838 0.121244 0)
(0.0903131 0.107691 -3.60002e-19)
(0.103244 0.094264 2.39457e-19)
(0.116182 0.0811165 -1.1957e-19)
(0.129038 0.0683939 -1.19253e-19)
(0.141723 0.0562292 -1.84024e-22)
(0.154156 0.0447419 0)
(0.16626 0.0340355 0)
(0.177967 0.0241968 1.17478e-19)
(0.189218 0.0152954 -1.17489e-19)
(0.199961 0.00738364 1.16841e-19)
(0.210155 0.000499508 -1.16654e-19)
(0.219766 -0.00532838 -1.16212e-19)
(0.228761 -0.0100702 0)
(0.237121 -0.0136662 -1.15012e-19)
(0.244899 -0.015899 -1.14684e-19)
(0.251839 -0.0163254 -3.80864e-19)
(-0.00739685 0.0244318 9.29269e-20)
(-0.0189941 0.0661514 -8.86919e-20)
(-0.0279311 0.103145 1.0384e-19)
(-0.0347329 0.134831 -1.85572e-19)
(-0.0395734 0.161279 -1.35317e-19)
(-0.0426777 0.182776 1.10229e-19)
(-0.0442146 0.199713 -2.23752e-19)
(-0.0443143 0.212524 -1.13559e-19)
(-0.0430782 0.221647 1.43661e-19)
(-0.0405866 0.227496 -2.61083e-19)
(-0.0369045 0.230449 -1.75732e-19)
(-0.0320877 0.230842 -5.88434e-20)
(-0.0261886 0.228964 -1.78117e-19)
(-0.01926 0.225071 1.79007e-19)
(-0.0113579 0.219385 -1.19834e-19)
(-0.0025431 0.212107 -1.2017e-19)
(0.00711879 0.203424 0)
(0.0175568 0.193514 -1.2053e-19)
(0.0286938 0.18255 -1.80759e-19)
(0.0404456 0.170705 6.01877e-20)
(0.0527227 0.158149 -1.20477e-19)
(0.0654325 0.145057 0)
(0.0784793 0.131603 1.20173e-19)
(0.0917649 0.117958 1.19754e-19)
(0.10519 0.104292 -1.18948e-19)
(0.118656 0.0907707 0)
(0.132066 0.0775499 0)
(0.145325 0.0647767 0)
(0.158345 0.0525855 -5.36247e-22)
(0.17104 0.0410966 0)
(0.183336 0.0304139 -2.34979e-19)
(0.195164 0.0206237 -3.89652e-22)
(0.206466 0.0117945 -2.33445e-19)
(0.217192 0.00397653 2.32783e-19)
(0.227305 -0.00279533 -1.15843e-19)
(0.236775 -0.00849706 1.15798e-19)
(0.245574 -0.0131058 0)
(0.253686 -0.0165717 2.29504e-19)
(0.261179 -0.0186862 -1.13933e-19)
(0.267827 -0.0190088 0)
(-0.00770756 0.0239142 1.15764e-20)
(-0.0197048 0.0649249 0)
(-0.0287754 0.101469 -1.29295e-19)
(-0.0355114 0.132888 1.58854e-19)
(-0.0400982 0.159205 8.08742e-20)
(-0.0427884 0.18066 -1.09792e-19)
(-0.0437762 0.197611 1.11764e-19)
(-0.0432163 0.21046 -1.13111e-19)
(-0.041232 0.219623 0)
(-0.0379235 0.225501 1.1592e-19)
(-0.0333728 0.228463 -1.1671e-19)
(-0.0276508 0.22884 2.49366e-22)
(-0.0208224 0.226922 0)
(-0.0129511 0.222966 1.18816e-19)
(-0.0041029 0.217198 -5.95658e-20)
(0.00565322 0.209824 1.19496e-19)
(0.016244 0.201035 5.97619e-20)
(0.0275914 0.191012 -1.19819e-19)
(0.0396113 0.179935 0)
(0.0522135 0.167977 1.79732e-19)
(0.0653025 0.155315 5.97122e-20)
(0.0787797 0.142124 0)
(0.0925441 0.128582 0)
(0.106492 0.114864 0)
(0.12052 0.101141 1.1923e-19)
(0.134525 0.0875807 0)
(0.148405 0.074341 -1.18467e-19)
(0.162064 0.0615703 2.36173e-19)
(0.17541 0.0494039 -2.35674e-19)
(0.188357 0.0379626 0)
(0.20083 0.02735 1.17297e-19)
(0.212761 0.0176516 -1.16384e-19)
(0.224093 0.00893431 1.16524e-19)
(0.23478 0.00124614 0)
(0.244787 -0.00538147 0)
(0.254091 -0.0109292 1.15074e-19)
(0.262668 -0.0153813 -1.14373e-19)
(0.270507 -0.0186989 2.2822e-19)
(0.277688 -0.0206847 -2.26756e-19)
(0.284025 -0.0209053 0)
(-0.00798696 0.0233382 8.07315e-20)
(-0.0203509 0.0635415 2.51817e-20)
(-0.0295459 0.0995495 1.03405e-19)
(-0.0362152 0.130627 1.05508e-19)
(-0.0405508 0.156752 -1.0785e-19)
(-0.042829 0.178122 1.09791e-19)
(-0.043267 0.195056 1.11329e-19)
(-0.0420429 0.207927 1.1311e-19)
(-0.0393018 0.217128 0)
(-0.0351634 0.223044 1.15462e-19)
(-0.0297278 0.226033 1.16708e-19)
(-0.0230812 0.226419 1.17562e-19)
(-0.015302 0.224493 0)
(-0.00646546 0.220511 -2.65519e-22)
(0.0033523 0.214703 1.19235e-19)
(0.0140729 0.207278 -5.98676e-20)
(0.025615 0.19843 -6.01202e-20)
(0.0378928 0.188345 1.79615e-19)
(0.0508152 0.177206 -4.55898e-23)
(0.064285 0.165189 -6.01771e-20)
(0.0782009 0.152475 -1.19644e-19)
(0.0924582 0.139242 0)
(0.10695 0.125669 0)
(0.121567 0.111935 0)
(0.136201 0.0982123 0)
(0.150744 0.0846698 0)
(0.165092 0.0714671 0)
(0.179143 0.0587534 1.17653e-19)
(0.192804 0.0466647 -1.17163e-19)
(0.205989 0.0353216 0)
(0.218621 0.0248269 0)
(0.230634 0.0152649 1.16381e-19)
(0.241974 0.00670027 0)
(0.252598 -0.000821369 1.15417e-19)
(0.262475 -0.00727216 -1.14756e-19)
(0.271586 -0.0126375 0)
(0.279915 -0.0169092 2.28115e-19)
(0.287455 -0.0200599 -2.26687e-19)
(0.294301 -0.0219054 0)
(0.30031 -0.0220232 0)
(-0.00823464 0.0227117 -9.22966e-20)
(-0.0209308 0.0620167 -2.5156e-20)
(-0.0302406 0.0974034 2.57587e-20)
(-0.0368427 0.128064 -1.05508e-19)
(-0.0409311 0.153934 0)
(-0.0428018 0.175168 0)
(-0.0426929 0.192051 -8.35129e-20)
(-0.0408045 0.204923 -2.81854e-20)
(-0.0373027 0.214155 -5.70878e-20)
(-0.0323271 0.220111 -5.77942e-20)
(-0.0259961 0.22314 -5.81737e-20)
(-0.0184117 0.223559 5.86074e-20)
(-0.00966636 0.221653 5.8841e-20)
(0.000152171 0.217681 -5.93192e-20)
(0.0109568 0.211871 0)
(0.0226594 0.204438 0)
(0.0351697 0.195578 -1.19408e-19)
(0.0483937 0.185481 0)
(0.0622329 0.17433 0)
(0.0765833 0.162309 1.18821e-19)
(0.0913368 0.149598 -7.55151e-23)
(0.106382 0.136379 -2.19964e-22)
(0.121607 0.122833 -1.1863e-19)
(0.136897 0.109141 1.18375e-19)
(0.152136 0.0954763 1.1787e-19)
(0.167214 0.0820092 -1.17554e-19)
(0.182021 0.0689005 0)
(0.196454 0.0562996 1.17169e-19)
(0.210416 0.0443427 1.44867e-22)
(0.223822 0.0331495 -1.16303e-19)
(0.236593 0.0228214 0)
(0.248667 0.0134409 0)
(0.25999 0.00507045 1.15313e-19)
(0.270524 -0.00224744 -1.14678e-19)
(0.280242 -0.00848866 -1.14462e-19)
(0.289134 -0.0136435 1.13784e-19)
(0.297189 -0.017711 0)
(0.304406 -0.0206757 0)
(0.310892 -0.0223686 0)
(0.316557 -0.022381 -1.2291e-19)
(-0.00845078 0.0220427 1.14902e-19)
(-0.021444 0.0603669 -5.01755e-20)
(-0.0308584 0.0950504 2.57048e-20)
(-0.0373925 0.125218 0)
(-0.0412384 0.150767 1.34057e-19)
(-0.0427078 0.171813 2.7502e-23)
(-0.0420576 0.188603 1.10931e-19)
(-0.0395083 0.20145 -8.44336e-20)
(-0.0352465 0.210698 1.13937e-19)
(-0.0294316 0.216694 -5.75577e-20)
(-0.0221999 0.219771 0)
(-0.0136699 0.22024 5.84705e-20)
(-0.00394888 0.21838 -1.76599e-19)
(0.00686259 0.214449 0)
(0.0186658 0.208676 1.7767e-19)
(0.0313625 0.201276 -1.18742e-19)
(0.0448528 0.192449 -1.1896e-19)
(0.0590341 0.182387 5.95391e-20)
(0.0738001 0.171277 0)
(0.0890394 0.159304 -1.19041e-19)
(0.104637 0.146651 -1.18665e-19)
(0.120476 0.133503 -1.4661e-22)
(0.136435 0.120042 1.18056e-19)
(0.152396 0.106449 1.17964e-19)
(0.168238 0.0929007 -2.35523e-19)
(0.183842 0.0795675 1.17551e-19)
(0.199098 0.0666104 0)
(0.213898 0.0541789 -1.1643e-19)
(0.228145 0.0424085 1.16062e-19)
(0.24175 0.0314174 1.15683e-19)
(0.254637 0.0213052 -1.15293e-19)
(0.266744 0.0121519 1.14891e-19)
(0.278023 0.00401718 0)
(0.288439 -0.00305984 1.14396e-19)
(0.297972 -0.00905907 2.27779e-19)
(0.306616 -0.0139757 -2.26563e-19)
(0.31437 -0.017816 2.2603e-19)
(0.321239 -0.0205761 4.16833e-22)
(0.327345 -0.0221037 -1.11941e-19)
(0.33265 -0.0220068 2.44681e-19)
(-0.00863612 0.0213393 -6.89224e-20)
(-0.0218908 0.0586093 -1.50118e-19)
(-0.0313985 0.0925117 1.02525e-19)
(-0.0378633 0.122112 -7.86447e-20)
(-0.0414711 0.147271 -2.70006e-20)
(-0.0425463 0.16807 2.72474e-20)
(-0.0413622 0.184723 -5.54831e-20)
(-0.0381582 0.197514 -5.61593e-20)
(-0.0331408 0.206759 5.68756e-20)
(-0.0264883 0.212788 -1.14911e-19)
(-0.0183555 0.215918 9.54692e-24)
(-0.0088773 0.216449 5.83837e-20)
(0.00182407 0.214657 0)
(0.0136344 0.210795 -5.89331e-20)
(0.0264431 0.205093 -5.92451e-20)
(0.0401411 0.197765 1.18677e-19)
(0.0546187 0.189014 0)
(0.0697642 0.179035 0)
(0.0854628 0.168015 1.18598e-19)
(0.101596 0.156142 -1.18612e-19)
(0.118041 0.143602 0)
(0.134673 0.13058 1.18099e-19)
(0.151366 0.117261 -1.18109e-19)
(0.167993 0.103826 -2.35164e-19)
(0.184428 0.0904529 -7.75633e-24)
(0.200549 0.0773121 1.17133e-19)
(0.216238 0.0645646 -2.32921e-19)
(0.231387 0.0523595 1.16428e-19)
(0.245895 0.0408305 -1.16059e-19)
(0.259675 0.0300939 -1.46053e-22)
(0.27265 0.0202468 3.07086e-22)
(0.284762 0.0113662 -1.14889e-19)
(0.295966 0.0035085 -1.14015e-19)
(0.306232 -0.00329125 -1.13582e-19)
(0.315549 -0.00901697 -4.72058e-22)
(0.323916 -0.0136689 0)
(0.331343 -0.0172601 -1.12179e-19)
(0.337841 -0.0197982 2.24026e-19)
(0.343544 -0.0211487 -3.34236e-19)
(0.348476 -0.0209379 2.27387e-23)
(-0.00879198 0.0206097 -2.28969e-20)
(-0.0222723 0.0567617 1.99889e-19)
(-0.031861 0.0898095 -1.02553e-19)
(-0.0382534 0.118768 7.86664e-20)
(-0.0416267 0.143469 -2.13834e-19)
(-0.0423146 0.163962 2.71952e-20)
(-0.0406046 0.180429 -1.10495e-19)
(-0.0367539 0.193126 0)
(-0.0309877 0.202345 0)
(-0.0235029 0.208393 -1.14612e-19)
(-0.0144721 0.211575 5.78459e-20)
(-0.00404699 0.212178 -9.59402e-23)
(0.00763504 0.210471 5.86134e-20)
(0.020446 0.206703 0)
(0.0342628 0.201103 -1.76932e-19)
(0.0489655 0.193884 5.91817e-20)
(0.0644339 0.185251 -1.18286e-19)
(0.0805468 0.175398 0)
(0.0971808 0.164517 0)
(0.114209 0.152795 7.91749e-23)
(0.1315 0.140421 -1.18105e-19)
(0.148924 0.12758 1.17633e-19)
(0.166345 0.11446 -1.17487e-19)
(0.18363 0.101241 1.17234e-19)
(0.200646 0.0881014 1.84366e-22)
(0.217266 0.0752115 1.99851e-22)
(0.233369 0.0627317 1.16372e-19)
(0.248843 0.0508097 -1.15605e-19)
(0.263585 0.0395769 0)
(0.277509 0.0291468 -1.15098e-19)
(0.29054 0.0196135 1.1455e-19)
(0.302623 0.0110503 0)
(0.313717 0.00350955 1.14013e-19)
(0.323801 -0.00297773 -1.1332e-19)
(0.332868 -0.00840011 1.1247e-19)
(0.340929 -0.0127627 0)
(0.348001 -0.0160848 3.36246e-19)
(0.354103 -0.0183856 -2.22667e-19)
(0.359384 -0.0195484 0)
(0.363931 -0.0192196 1.20979e-19)
(-0.00892014 0.0198623 1.82587e-19)
(-0.0225906 0.0548418 -9.984e-20)
(-0.0322459 0.0869669 -2.55757e-20)
(-0.0385607 0.115212 2.61237e-20)
(-0.0417012 0.139387 1.06798e-19)
(-0.0420072 0.159511 0)
(-0.0397793 0.17574 1.10495e-19)
(-0.0352904 0.188303 1.67717e-19)
(-0.0287836 0.197466 5.66466e-20)
(-0.0204736 0.203518 5.7357e-20)
(-0.0105505 0.206746 5.77541e-20)
(0.000817208 0.207425 -1.74572e-19)
(0.0134771 0.205817 5.8507e-20)
(0.0272872 0.202164 2.34724e-19)
(0.0421118 0.196693 5.90651e-20)
(0.0578194 0.189617 5.90625e-20)
(0.0742792 0.18114 1.18285e-19)
(0.09136 0.171457 0)
(0.108929 0.16076 0)
(0.12685 0.149239 2.35949e-19)
(0.144985 0.137083 -4.70632e-19)
(0.163193 0.124478 -9.66215e-23)
(0.181332 0.111612 0)
(0.199262 0.0986665 0)
(0.216842 0.0858185 1.16697e-19)
(0.23394 0.0732377 0)
(0.250431 0.0610831 0)
(0.2662 0.0495001 -1.14842e-19)
(0.281143 0.0386173 -2.29652e-19)
(0.295175 0.0285448 0)
(0.308224 0.0193725 -2.28013e-19)
(0.320238 0.0111698 -4.54907e-19)
(0.331185 0.00398424 2.26538e-19)
(0.341048 -0.00215755 -2.254e-19)
(0.349831 -0.007249 2.25092e-19)
(0.357553 -0.0113 -2.23761e-19)
(0.364242 -0.0143358 -2.22511e-19)
(0.369927 -0.0163861 0)
(0.374766 -0.0173528 0)