/*--------------------------------*- C++ -*----------------------------------*\
  =========                 |
  \\      /  F ield         | OpenFOAM: The Open Source CFD Toolbox
   \\    /   O peration     | Website:  https://openfoam.org
    \\  /    A nd           | Version:  7
     \\/     M anipulation  |
\*---------------------------------------------------------------------------*/
FoamFile
{
    version     2.0;
    format      ascii;
    class       surfaceScalarField;
    location    "2.2";
    object      phi;
}
// * * * * * * * * * * * * * * * * * * * * * * * * * * * * * * * * * * * * * //

dimensions      [0 3 -1 0 0 0 0];

internalField   nonuniform List<scalar> 
3880
(
0.000179163
0.00272366
-0.00290282
0.000752941
0.0059318
-0.00650558
0.00169368
0.00805399
-0.00899473
0.00295614
0.00953553
-0.010798
0.00448527
0.0106261
-0.0121552
0.00622056
0.0114745
-0.0132098
0.00809894
0.0121768
-0.0140552
0.0100565
0.0128
-0.0147575
0.0120285
0.0133924
-0.0153645
0.0139894
0.0139479
-0.0159087
0.000194168
0.0025295
0.000816772
0.0053092
0.00183903
0.00703173
0.00321519
0.00815937
0.00489032
0.00895093
0.00680402
0.00956078
0.00889255
0.0100883
0.0110898
0.0106027
0.0133264
0.0111558
0.0117893
0.0155265
0.000215038
0.00231446
0.000897542
0.00462669
0.00201409
0.00591518
0.00351629
0.00665717
0.00534815
0.00711908
0.00744913
0.0074598
0.0097557
0.00778174
0.0122014
0.00815701
0.0147145
0.00864274
0.00929128
0.0172126
0.000243116
0.00207135
0.000998554
0.00387126
0.00222418
0.00468956
0.00386628
0.00501507
0.00586603
0.00511933
0.008162
0.00516383
0.0106913
0.00525246
0.0133889
0.00545938
0.016184
0.0058476
0.00648427
0.018991
0.00027952
0.00179183
0.00112246
0.00302831
0.00247359
0.00333844
0.00427078
0.00321787
0.00645004
0.00294007
0.00894746
0.00266641
0.0117004
0.00249948
0.0146471
0.00251277
0.0177211
0.00277352
0.00336644
0.020839
0.000325117
0.00146671
0.00127109
0.00208233
0.002765
0.00184453
0.00473305
0.00124982
0.00710331
0.000569812
0.00980707
-3.73553e-05
0.0127806
-0.00047403
0.0159654
-0.000672073
0.0193039
-0.000565003
-5.08481e-05
0.0227212
0.000380297
0.00108641
0.00144472
0.00101791
0.00309815
0.000191101
0.00525199
-0.000904012
0.00782356
-0.00200176
0.0107365
-0.00295029
0.013923
-0.00366058
0.0173268
-0.00407579
0.0209011
-0.00413935
-0.00373853
0.0245888
0.000444781
0.000641634
0.00164149
-0.000178797
0.00346869
-0.00163609
0.0058203
-0.00325563
0.00860071
-0.00478217
0.0117231
-0.00607271
0.0151119
-0.00704933
0.0187076
-0.00767152
0.0224739
-0.00790567
-0.00765167
0.0263871
0.000517462
0.000124173
0.00185697
-0.0015183
0.0038671
-0.00364622
0.00642264
-0.00581117
0.00941443
-0.00777396
0.0127448
-0.00940312
0.0163277
-0.0106322
0.0200917
-0.0114355
0.0239961
-0.0118101
-0.0117434
0.0280878
0.000596304
-0.00047213
0.00208377
-0.00300577
0.00427786
-0.00584032
0.00703358
-0.00856689
0.0102302
-0.0109706
0.0137649
-0.0129378
0.0175503
-0.0144176
0.0215106
-0.0153958
0.0255723
-0.0158718
0.0297176
-0.0158887
0.0157834
0.0578051
-0.0596407
0.0163546
0.0642489
-0.0648202
0.0157389
0.0709816
-0.0703658
0.014314
0.0772308
-0.0758059
0.0124043
0.0828918
-0.080982
0.0101419
0.0878565
-0.0855941
0.00773444
0.0919012
-0.0894937
0.00519179
0.0957751
-0.0932324
0.00258468
0.0992187
-0.0966116
0.103657
-0.101072
0.0176008
0.0557308
0.0182865
0.0635632
0.0176705
0.0715976
0.016143
0.0787582
0.0140486
0.0849862
0.0115342
0.0903708
0.00882209
0.0946133
0.00593316
0.098664
0.00295353
0.102198
0.10661
0.0194758
0.0534675
0.0202489
0.0627901
0.0196314
0.0722151
0.0180058
0.0803838
0.0157329
0.0872591
0.0129667
0.0931371
0.0099503
0.0976297
0.00670639
0.101908
0.00334425
0.10556
0.109954
0.0213881
0.0510705
0.0222189
0.0619593
0.0216009
0.0728331
0.0198857
0.082099
0.0174454
0.0896993
0.0144315
0.096151
0.0111153
0.100946
0.00751042
0.105513
0.00375717
0.109314
0.113712
0.0233134
0.0485961
0.024171
0.0611016
0.0235551
0.0734491
0.0217626
0.0838915
0.0191708
0.0922912
0.0159184
0.0994033
0.0123109
0.104553
0.00834246
0.109481
0.00419168
0.113464
0.117903
0.0252201
0.0460972
0.0260765
0.0602452
0.025467
0.0740585
0.0236133
0.0857452
0.0208904
0.0950141
0.0174137
0.10288
0.0135284
0.108439
0.00919748
0.113812
0.00464599
0.118016
0.122549
0.0270603
0.0436257
0.0278971
0.0594084
0.0273036
0.074652
0.0254094
0.0876393
0.0225809
0.0978427
0.0188991
0.106562
0.014755
0.112583
0.0100675
0.1185
0.0051167
0.122967
0.127666
0.0287563
0.0412565
0.0295732
0.0585915
0.0290185
0.0752067
0.0271134
0.0895445
0.0242111
0.100745
0.0203503
0.110423
0.0159726
0.116961
0.0109405
0.123532
0.00559833
0.128309
0.133264
0.0302411
0.0391032
0.031056
0.0577766
0.0305736
0.0756891
0.0286913
0.0914267
0.0257495
0.103687
0.0217387
0.114433
0.017158
0.121541
0.0117995
0.12889
0.00608296
0.134026
0.139347
0.0315448
0.037276
0.0324056
0.0569158
0.0319774
0.0761173
0.030132
0.0932722
0.0271602
0.106659
0.0230258
0.118568
0.018265
0.126302
0.0126135
0.134542
0.00655171
0.140087
0.145899
0.124471
0.0539772
-0.141172
0.11035
0.0710373
0.097329
0.0891378
0.084694
0.105907
0.0716688
0.119684
0.0584237
0.131813
0.0444834
0.140242
0.0301035
0.148922
0.0152789
0.154912
0.161178
0.143968
0.0704488
-0.160439
0.128252
0.086753
0.113292
0.104098
0.0985403
0.120659
0.0833631
0.134861
0.0678097
0.147366
0.0514832
0.156569
0.0348405
0.165564
0.017832
0.17192
0.17901
0.160175
0.0861889
-0.175915
0.144325
0.102603
0.128588
0.119834
0.11265
0.136597
0.0959124
0.151598
0.0784325
0.164846
0.059813
0.175188
0.0406867
0.184691
0.0208697
0.191737
0.199879
0.176606
0.101029
-0.191446
0.160862
0.118347
0.144556
0.13614
0.1275
0.153653
0.109255
0.169844
0.0897839
0.184317
0.068762
0.19621
0.0467505
0.206702
0.0237778
0.21471
0.223657
0.19441
0.11538
-0.208761
0.178644
0.134113
0.161752
0.153032
0.143582
0.171824
0.123765
0.18966
0.102199
0.205883
0.0787842
0.219625
0.0540097
0.231477
0.0277959
0.240924
0.251453
0.213101
0.129416
-0.227137
0.197387
0.149826
0.180159
0.17026
0.161129
0.190854
0.139902
0.210887
0.116317
0.229468
0.0902924
0.24565
0.0621301
0.259639
0.031934
0.27112
0.283387
0.234838
0.143021
-0.248442
0.219178
0.165486
0.201485
0.187953
0.181364
0.210975
0.158143
0.234108
0.131277
0.256334
0.100568
0.276358
0.0667736
0.293434
0.0325862
0.305308
0.315973
0.254307
0.155435
-0.266721
0.239418
0.180374
0.222795
0.204576
0.203717
0.230053
0.181462
0.256363
0.155763
0.282033
0.126385
0.305736
0.0924835
0.327335
0.0506996
0.347091
0.366673
0.278688
0.156956
-0.280209
0.268822
0.190241
0.251886
0.221512
0.229111
0.252828
0.200628
0.284846
0.166362
0.316299
0.12643
0.345668
0.0836808
0.370085
0.0408073
0.389965
0.40748
0.265266
-0.237847
0.279115
0.280549
0.270963
0.251337
0.221385
0.180995
0.128739
0.0672226
0.03891
-0.147456
-0.0326258
0.0426051
-0.164134
0.045033
-0.178343
0.0468561
-0.193269
0.0480808
-0.209985
0.0489438
-0.228
0.048561
-0.24806
0.0473056
-0.265465
0.0396291
-0.272532
-0.224677
0.0381823
-0.152758
-0.0328802
0.0413958
-0.167348
0.0435762
-0.180523
0.0452212
-0.194914
0.0463173
-0.211082
0.0470418
-0.228724
0.0465437
-0.247561
0.044844
-0.263765
0.0365248
-0.264213
-0.210915
0.0370771
-0.157329
-0.0325061
0.0398314
-0.170102
0.0417668
-0.182458
0.0432429
-0.196391
0.0442416
-0.21208
0.0448443
-0.229327
0.0442724
-0.24699
0.0421143
-0.261607
0.0333157
-0.255415
-0.196593
0.0354288
-0.161226
-0.0315322
0.037764
-0.172437
0.0394766
-0.184171
0.0408151
-0.197729
0.0417559
-0.213021
0.0422867
-0.229858
0.0416751
-0.246378
0.0391179
-0.25905
0.0299479
-0.246244
-0.181838
0.0331893
-0.164473
-0.029942
0.0351407
-0.174389
0.0366655
-0.185696
0.0379129
-0.198976
0.0388466
-0.213955
0.0393634
-0.230374
0.0387507
-0.245765
0.035865
-0.256164
0.0264563
-0.236836
-0.166778
0.0303399
-0.167095
-0.0277179
0.0319551
-0.176004
0.0333384
-0.187079
0.0345498
-0.200188
0.0355304
-0.214935
0.0360905
-0.230934
0.0355133
-0.245188
0.0323703
-0.253021
0.0228952
-0.227361
-0.151524
0.0268985
-0.169128
-0.0248654
0.0282365
-0.177342
0.0295299
-0.188373
0.0307612
-0.201419
0.0318404
-0.216015
0.0324963
-0.23159
0.0319835
-0.244675
0.0286385
-0.249676
0.0193215
-0.218044
-0.136213
0.0229127
-0.170622
-0.0214191
0.0240373
-0.178467
0.0252924
-0.189628
0.0265957
-0.202722
0.0278194
-0.217238
0.0286178
-0.232389
0.0281919
-0.244249
0.0246741
-0.246159
0.0157053
-0.209075
-0.121217
0.0184537
-0.171634
-0.017442
0.0194277
-0.179441
0.0206906
-0.190891
0.0221103
-0.204142
0.0235177
-0.218646
0.0245005
-0.233371
0.0241876
-0.243936
0.0205546
-0.242526
0.0118267
-0.200347
-0.107495
0.0136121
-0.172223
-0.0130224
0.0144913
-0.18032
0.0157983
-0.192197
0.0173684
-0.205712
0.0189905
-0.220268
0.0201956
-0.234577
0.0200338
-0.243775
0.0164082
-0.2389
0.00794097
-0.19188
-0.0955378
0.00850381
-0.172446
-0.00828161
0.00933106
-0.181147
0.0107049
-0.193571
0.0124463
-0.207454
0.0143044
-0.222126
0.0157645
-0.236037
0.0158017
-0.243812
0.0123086
-0.235407
0.00420454
-0.183776
-0.0852244
0.00321283
-0.17234
-0.00331825
0.00402066
-0.181955
0.00547143
-0.195022
0.00739332
-0.209376
0.00950206
-0.224235
0.0112474
-0.237782
0.0115415
-0.244106
0.00828869
-0.232154
0.000291873
-0.175779
-0.0766573
-0.00212761
-0.171937
0.00172445
-0.00133264
-0.18275
0.000184685
-0.196539
0.00228756
-0.211478
0.00465125
-0.226598
0.00670306
-0.239834
0.0073025
-0.244705
0.00441433
-0.229266
-0.00257925
-0.168785
-0.0687643
-0.00739266
-0.171258
0.00671395
-0.00663418
-0.183508
-0.00506082
-0.198113
-0.00280398
-0.213735
-0.000190627
-0.229212
0.00218407
-0.242209
0.00311221
-0.245633
0.000706941
-0.226861
-0.00561007
-0.162468
-0.0616434
-0.0124901
-0.170293
0.0115248
-0.0118009
-0.184198
-0.0102066
-0.199707
-0.00781918
-0.216123
-0.00497021
-0.232061
-0.00227829
-0.2449
-0.000987179
-0.246925
-0.00303059
-0.224817
-0.00867892
-0.15682
-0.0552802
-0.0173229
-0.169013
0.0160431
-0.0167584
-0.184762
-0.0151796
-0.201286
-0.0126975
-0.218605
-0.00963517
-0.235123
-0.00662277
-0.247913
-0.00492872
-0.248619
-0.00656841
-0.223178
-0.0116901
-0.151698
-0.0495934
-0.0217866
-0.167401
0.0201744
-0.0214049
-0.185144
-0.0198821
-0.202809
-0.0173499
-0.221137
-0.0141092
-0.238364
-0.0107953
-0.251227
-0.00872956
-0.250684
-0.00994241
-0.221965
-0.014606
-0.147035
-0.0444896
-0.0257179
-0.165529
0.0238462
-0.0255817
-0.18528
-0.0241751
-0.204215
-0.0216599
-0.223652
-0.0183017
-0.241722
-0.0147336
-0.254795
-0.0123304
-0.253087
-0.0131485
-0.221147
-0.0174108
-0.142772
-0.0398775
-0.0290913
-0.16346
0.0270224
-0.0293113
-0.18506
-0.0281023
-0.205424
-0.0256779
-0.226077
-0.0222624
-0.245137
-0.0184778
-0.258579
-0.0157546
-0.255811
-0.016198
-0.220703
-0.020106
-0.138864
-0.0356786
-0.0322066
-0.160954
0.0296998
-0.032912
-0.184354
-0.0319826
-0.206354
-0.0297017
-0.228358
-0.0262374
-0.248602
-0.0222013
-0.262616
-0.0190169
-0.258995
-0.0191161
-0.220604
-0.0225871
-0.135393
-0.0316863
-0.0152834
-0.157302
0.0116313
-0.0183629
-0.181275
-0.019042
-0.205675
-0.0180371
-0.229362
-0.0172151
-0.249424
-0.0213149
-0.258516
-0.036939
-0.243371
-0.0674229
-0.19012
-0.100949
-0.101867
-0.0141657
-0.042715
-0.154104
0.0395177
-0.044394
-0.179596
-0.04466
-0.205409
-0.0440145
-0.230008
-0.0453923
-0.248046
-0.0547164
-0.249192
-0.0780186
-0.220069
-0.113422
-0.154717
-0.146404
-0.068885
-0.00254361
-0.0680722
-0.150527
0.0644947
-0.070734
-0.176934
-0.0719708
-0.204172
-0.0730292
-0.228949
-0.0780928
-0.242982
-0.0937827
-0.233502
-0.123702
-0.19015
-0.161148
-0.117271
-0.190053
-0.03998
0.00370315
-0.094847
-0.145067
0.089387
-0.0995169
-0.172264
-0.102817
-0.200871
-0.106835
-0.224932
-0.116996
-0.232821
-0.139723
-0.210775
-0.174956
-0.154916
-0.211574
-0.0806525
-0.233772
-0.0177823
0.00534825
-0.122657
-0.13627
0.11386
-0.130759
-0.164162
-0.137959
-0.193671
-0.147142
-0.21575
-0.164336
-0.215627
-0.194069
-0.181042
-0.231683
-0.117302
-0.263529
-0.0488067
-0.277517
-0.00379447
0.00396624
-0.151221
-0.123028
0.137978
-0.164946
-0.150437
-0.178768
-0.179849
-0.195892
-0.198626
-0.22147
-0.190049
-0.256429
-0.146082
-0.292156
-0.081576
-0.315696
-0.0252661
-0.321497
0.00200587
0.00136066
-0.180536
-0.102249
0.159757
-0.202165
-0.128808
-0.225525
-0.156489
-0.253143
-0.171007
-0.287284
-0.155908
-0.324406
-0.108961
-0.354193
-0.0517888
-0.368046
-0.0114131
-0.367971
0.00193044
-0.000777906
-0.206953
-0.0761963
0.180901
-0.238191
-0.0975693
-0.274186
-0.120495
-0.315059
-0.130133
-0.358367
-0.1126
-0.39612
-0.0712073
-0.419013
-0.028896
-0.425272
-0.00515386
-0.422916
-0.000426122
-0.00156214
-0.223067
-0.0407385
0.18761
-0.266359
-0.0542775
-0.318729
-0.068126
-0.376656
-0.0722058
-0.430444
-0.0588119
-0.468077
-0.0335743
-0.484826
-0.0121469
-0.487278
-0.00270191
-0.486089
-0.00161523
-0.00103208
-0.230044
0.189306
-0.284322
-0.352448
-0.424654
-0.483465
-0.51704
-0.529187
-0.531888
-0.533504
-0.0375648
0.0171563
0.0320397
-0.041229
0.0431819
-0.0432761
0.0665417
-0.0436662
0.0897771
-0.0421126
0.112307
-0.038482
0.134348
-0.0324074
0.153682
-0.0234347
0.171928
-0.0125924
0.176767
0.176713
-0.0376023
0.0216973
0.0330613
-0.0405017
0.0460813
-0.0419745
0.0680145
-0.041826
0.0896286
-0.039867
0.110347
-0.0359572
0.130438
-0.029962
0.147687
-0.0213341
0.1633
-0.011397
0.16683
0.165316
-0.0374361
0.0256803
0.0334531
-0.0396818
0.048327
-0.0405815
0.0689143
-0.0399188
0.088966
-0.0375885
0.108017
-0.0334803
0.12633
-0.0275518
0.141758
-0.0194012
0.155149
-0.0102493
0.157678
0.155067
-0.0367844
0.0292001
0.0332646
-0.0384994
0.0500419
-0.0389025
0.0693174
-0.0378119
0.0878754
-0.0351997
0.105405
-0.0309855
0.122116
-0.025204
0.135977
-0.0175613
0.147507
-0.00918019
0.149297
0.145887
-0.0356691
0.0322962
0.032573
-0.0369537
0.0513266
-0.0369487
0.0693123
-0.0355299
0.0864566
-0.0327309
0.102606
-0.0285008
0.117885
-0.0229304
0.130406
-0.0158219
0.140398
-0.00818073
0.141656
0.137706
-0.0341693
0.0350163
0.0314492
-0.0351084
0.0522657
-0.0347747
0.0689786
-0.0331197
0.0848017
-0.0302196
0.0997057
-0.0260514
0.113717
-0.0207437
0.125099
-0.0141804
0.133835
-0.00724593
0.134722
0.13046
-0.0323556
0.0374099
0.029962
-0.033026
0.0529361
-0.032439
0.0683915
-0.0306306
0.0829932
-0.027704
0.0967791
-0.0236613
0.109675
-0.0186553
0.120093
-0.0126348
0.127814
-0.00637336
0.12846
0.124087
-0.0302925
0.0395204
0.028182
-0.0307612
0.0534048
-0.0299927
0.067623
-0.0281047
0.0811052
-0.025216
0.0938904
-0.0213499
0.105809
-0.0166736
0.115416
-0.0111854
0.122326
-0.00556234
0.122837
0.118525
-0.0280446
0.0413839
0.0261811
-0.0283676
0.0537278
-0.0274827
0.0667382
-0.0255788
0.0792013
-0.0227823
0.0910939
-0.0191328
0.102159
-0.0148048
0.111088
-0.00983315
0.117355
-0.00481326
0.117817
0.113711
-0.0256764
0.0430296
0.0240307
-0.0258982
0.0539495
-0.0249536
0.0657936
-0.0230862
0.0773339
-0.0204256
0.0884333
-0.0170221
0.0987557
-0.013054
0.10712
-0.00857921
0.11288
-0.00412673
0.113365
0.109585
-0.0232523
0.0444795
0.0218024
-0.023407
0.0541042
-0.0224497
0.0648363
-0.0206599
0.075544
-0.0181685
0.085942
-0.0150309
0.095618
-0.0114268
0.103516
-0.00742571
0.108879
-0.00350349
0.109443
0.106081
-0.0208219
0.045748
0.0195533
-0.020932
0.0542143
-0.0199989
0.0639032
-0.0183172
0.0738623
-0.0160197
0.0836445
-0.0131599
0.0927582
-0.00992017
0.100276
-0.00636857
0.105327
-0.00294076
0.106015
0.10314
-0.0184371
0.0468439
0.0173412
-0.0185148
0.054292
-0.0176332
0.0630216
-0.0160807
0.0723099
-0.0139933
0.0815571
-0.0114158
0.0901806
-0.00853567
0.0973963
-0.00540689
0.102198
-0.00243701
0.103045
0.100703
-0.0161383
0.0477711
0.0152111
-0.0161856
0.0543393
-0.0153735
0.0622094
-0.0139631
0.0708995
-0.0120949
0.079689
-0.00979824
0.0878839
-0.00726976
0.0948678
-0.00453627
0.0994648
-0.001989
0.100498
0.0987142
-0.0139565
0.0485307
0.0131969
-0.013966
0.0543488
-0.0132329
0.0614763
-0.0119706
0.0696372
-0.010325
0.0780434
-0.00830312
0.0858621
-0.00611615
0.0926808
-0.00375062
0.0970993
-0.00159299
0.0983399
0.0971212
-0.0119114
0.0491224
0.0113197
-0.0118688
0.0543062
-0.0112167
0.0608242
-0.0101031
0.0685235
-0.00867869
0.076619
-0.00692243
0.0841058
-0.00506589
0.0908243
-0.00304248
0.0950759
-0.0012451
0.0965425
0.0958762
-0.01001
0.0495446
0.00958792
-0.00989833
0.0541945
-0.00932346
0.0602494
-0.00835525
0.0675553
-0.0071471
0.0754108
-0.00564501
0.0826037
-0.00410777
0.089287
-0.00240334
0.0933715
-0.000941461
0.0950807
0.0949347
-0.00824761
0.0497932
0.007999
-0.00805374
0.0540006
-0.0075485
0.0597441
-0.00671931
0.0667261
-0.00571883
0.0744104
-0.00445781
0.0813427
-0.00322895
0.0880582
-0.00182388
0.0919664
-0.000678271
0.0939351
0.0942564
-0.00662103
0.049867
0.00654723
-0.00633373
0.0537133
-0.00588585
0.0592962
-0.00518543
0.0660257
-0.00438067
0.0736056
-0.00334549
0.0803075
-0.00241511
0.0871278
-0.00129354
0.0908448
-0.000451547
0.0930931
0.0938049
-0.00511526
0.0497332
0.00524901
-0.0047218
0.0533199
-0.00430953
0.058884
-0.00373346
0.0654496
-0.00310868
0.0729808
-0.00229536
0.0794942
-0.00164631
0.0864787
-0.000806795
0.0900053
-0.000255062
0.0925413
0.0935498
-0.0636665
0.0414509
0.0719488
-0.0575908
0.0472442
-0.052071
0.0533641
-0.0463191
0.0596978
-0.0396251
0.0662868
-0.0323506
0.0722197
-0.0240404
0.0781686
-0.0157068
0.0816717
-0.00743495
0.0842695
0.0861149
-0.0583839
0.0350959
0.0647389
-0.0524346
0.0412949
-0.0466562
0.0475857
-0.0406729
0.0537146
-0.0342578
0.0598716
-0.027597
0.0655589
-0.0203995
0.0709712
-0.0136192
0.0748914
-0.00686092
0.0775112
0.0792539
-0.0518266
0.0297792
0.0571434
-0.046464
0.0359323
-0.0409272
0.0420489
-0.0351786
0.047966
-0.029171
0.053864
-0.0231459
0.0595338
-0.0168664
0.0646917
-0.0112256
0.0692506
-0.00566729
0.0719529
0.0735867
-0.045492
0.0252025
0.0500687
-0.0405104
0.0309507
-0.0351472
0.0366857
-0.0295302
0.042349
-0.0237734
0.0481072
-0.0181678
0.0539281
-0.0126282
0.0591521
-0.00793573
0.0645581
-0.00378145
0.0677986
0.0698052
-0.0395386
0.0211653
0.0435758
-0.0348214
0.0262335
-0.0295461
0.0314104
-0.023921
0.0367238
-0.0181726
0.0423589
-0.0127128
0.0484683
-0.0076935
0.0541328
-0.00377151
0.0606361
-0.00136867
0.0653958
0.0684365
-0.0343951
0.0174119
0.0381485
-0.0297308
0.0215692
-0.0243297
0.0260092
-0.0184635
0.0308576
-0.0124096
0.036305
-0.0066765
0.0427352
-0.00194826
0.0494045
0.00157569
0.0571122
0.00196873
0.0650027
0.0704053
-0.0315568
0.0137048
0.0352639
-0.026612
0.0166245
-0.0207311
0.0201283
-0.0141973
0.0243239
-0.00730817
0.0294158
-0.00039677
0.0358238
0.00498962
0.0440181
0.00851598
0.0535858
0.00720107
0.0663177
0.0776063
-0.0384601
0.00933414
0.0428308
-0.0327439
0.0109083
-0.0259002
0.0132846
-0.0180201
0.0164437
-0.00926557
0.0206613
0.00021245
0.0263458
0.00874394
0.0354866
0.01539
0.0469398
0.0147428
0.0669648
0.0923492
-0.0853483
0.00352887
0.0911535
-0.0788102
0.00437017
-0.0710394
0.0055139
-0.0616228
0.00702715
-0.0502155
0.00925396
-0.0367595
0.0128898
-0.0205559
0.019283
-0.00158136
0.0279652
0.0124067
0.0529767
0.104756
-0.244036
0.247565
-0.239666
-0.234152
-0.227125
-0.217871
-0.204981
-0.185698
-0.157733
-0.104756
-0.00409318
0.0714346
0.00460737
-0.00292648
0.0635722
-0.00175229
0.0559692
-0.00070759
0.049024
6.28379e-05
0.0428054
0.000465408
0.0377459
0.000288795
0.0354405
-0.000878203
0.0439978
-0.00254517
0.0928205
0.24502
-0.00328242
0.0710687
0.00364838
-0.0023723
0.062662
-0.00139982
0.0549967
-0.000527329
0.0481515
0.000107193
0.0421709
0.000409457
0.0374436
0.000195986
0.035654
-0.00085712
0.0450509
-0.00229116
0.0942545
0.242728
-0.00249829
0.070842
0.00272498
-0.00181163
0.0619754
-0.00104403
0.0542291
-0.000345559
0.047453
0.000155864
0.0416694
0.000372883
0.0372266
0.00014183
0.035885
-0.000790075
0.0459828
-0.00201626
0.0954807
0.240712
-0.00177925
0.0707372
0.00188398
-0.001304
0.0615001
-0.000723035
0.0536482
-0.000181462
0.0469114
0.000206025
0.041282
0.000359453
0.0370732
0.00013337
0.0361111
-0.000669569
0.0467857
-0.00170741
0.0965186
0.239005
-0.00115134
0.0707369
0.00115172
-0.000865014
0.0612138
-0.000446955
0.0532301
-3.9204e-05
0.0465037
0.000257021
0.0409857
0.000367803
0.0369624
0.00016623
0.0363127
-0.000502734
0.0474547
-0.00137076
0.0973866
0.237634
-0.000620349
0.0708142
0.000543033
-0.000493602
0.0610871
-0.000212645
0.0529491
8.56518e-05
0.0462054
0.000310438
0.0407609
0.000396458
0.0368764
0.000234288
0.0364749
-0.00029913
0.0479881
-0.00101375
0.0981012
0.23662
-0.000185609
0.0709261
7.36747e-05
-0.000188613
0.0610901
-1.59629e-05
0.0527765
0.000193075
0.0459963
0.000366955
0.0405871
0.000442841
0.0368005
0.000330617
0.0365871
-6.70561e-05
0.0483858
-0.000642647
0.0986768
0.235978
0.000144097
0.0710764
-0.000294341
4.78052e-05
0.0611863
0.000145932
0.0526784
0.000288176
0.0458541
0.000425934
0.0404493
0.000502848
0.0367236
0.00044738
0.0366426
0.000181742
0.0486514
-0.000263159
0.0991217
0.235714
0.00037976
0.0712338
-0.000537169
0.000253413
0.0613127
0.000278827
0.0526529
0.000371816
0.0457611
0.000485202
0.0403359
0.000571088
0.0366377
0.000576357
0.0366373
0.000441461
0.0487863
0.000119467
0.0994437
0.235834
0.000548887
0.0713649
-0.000680044
0.000402605
0.061459
0.000386767
0.0526688
0.00044428
0.0457036
0.00054142
0.0402388
0.00064132
0.0365378
0.000709014
0.0365696
0.00070247
0.0487929
0.000499649
0.0996465
0.236334
0.000653744
0.0714557
-0.00074456
0.000512849
0.0615999
0.000471176
0.0527105
0.000503051
0.0456717
0.000589064
0.0401528
0.000705823
0.0364211
0.000836092
0.0364393
0.000955239
0.0486737
0.000870647
0.0997311
0.237204
0.000723488
0.0715041
-0.00077183
0.000603319
0.06172
0.0005415
0.0527723
0.000550958
0.0456623
0.000626718
0.040077
0.000760271
0.0362875
0.000951824
0.0362478
0.0011942
0.0484313
0.00122955
0.0996958
0.238434
0.000774093
0.071516
-0.000786035
0.000681449
0.0618127
0.000599427
0.0528543
0.000585437
0.0456763
0.00064917
0.0400133
0.000797791
0.0361389
0.00104858
0.035997
0.00141137
0.0480685
0.00156975
0.0995374
0.240003
0.000826051
0.0715072
-0.000817206
0.00075743
0.0618813
0.000649769
0.052962
0.000606701
0.0457193
0.000653637
0.0399663
0.000813664
0.0359789
0.00112087
0.0356898
0.00160092
0.0475885
0.00188604
0.0992523
0.24189
0.0009007
0.0715016
-0.000895132
0.000842221
0.0619398
0.000698676
0.0531055
0.000616502
0.0458015
0.00063884
0.039944
0.000804533
0.0358132
0.00116452
0.0353298
0.00175825
0.0469948
0.00217357
0.0988369
0.244063
0.00102136
0.0715296
-0.00104936
0.000948688
0.0620125
0.000754364
0.0532998
0.000618737
0.0459371
0.000605403
0.0399573
0.000768547
0.03565
0.00117652
0.0349218
0.00187999
0.0462913
0.0024281
0.0982888
0.246491
0.00121511
0.071624
-0.00130951
0.00109293
0.0621347
0.000827752
0.053565
0.000619933
0.0461449
0.000556176
0.0400211
0.000705363
0.0355008
0.00115448
0.0344727
0.00196352
0.0454822
0.00264579
0.0976066
0.249137
0.00150946
0.0718187
-0.00170413
0.00129274
0.0623514
0.000931419
0.0539263
0.000628866
0.0464475
0.000496105
0.0401538
0.000615666
0.0353813
0.00109549
0.0339929
0.00200618
0.0445716
0.00282234
0.0967904
0.251959
0.00192144
0.0721465
-0.00224922
0.00156234
0.0627105
0.00107515
0.0544135
0.000653545
0.0468691
0.000430469
0.0403769
0.000499814
0.0353119
0.000994525
0.0334982
0.00200617
0.0435599
0.00295755
0.095839
0.254917
0.00250979
0.0725529
-0.00291624
0.00191394
0.0633063
0.00126734
0.0550601
0.000702335
0.0474341
0.000368039
0.0407112
0.000364443
0.0353155
0.000856595
0.033006
0.00198102
0.0424355
0.00307233
0.0947477
0.257989
-0.0486487
0.060059
0.0611426
-0.0385332
0.0531908
-0.0305931
0.04712
-0.0240817
0.0409228
-0.0184787
0.0351082
-0.0134849
0.0303217
-0.00911422
0.0286353
-0.00560916
0.0389304
-0.00314026
0.0922788
0.254849
-0.052146
0.0505193
0.0616857
-0.043931
0.0449759
-0.0365302
0.0397191
-0.0298487
0.0342412
-0.0236945
0.028954
-0.017891
0.0245182
-0.0124424
0.0231868
-0.00760124
0.0340893
-0.00348611
0.0881637
0.251363
-0.0556095
0.0422819
0.0638469
-0.0485361
0.0379025
-0.0416226
0.0328057
-0.0349577
0.0275763
-0.0284146
0.0224109
-0.0218405
0.0179441
-0.0152338
0.0165801
-0.00890697
0.0277624
-0.00346267
0.0827194
0.2479
-0.0598443
0.0353834
0.0667428
-0.0533194
0.0313776
-0.0467176
0.0262039
-0.0400881
0.0209469
-0.0332707
0.0155935
-0.0260577
0.0107311
-0.0183736
0.00889604
-0.010589
0.0199778
-0.00373426
0.0758646
0.244166
-0.0646049
0.0285935
0.0713948
-0.0583123
0.025085
-0.0519945
0.0198862
-0.0455295
0.0144818
-0.0386192
0.00868313
-0.0309554
0.00306731
-0.0223705
0.000311108
-0.0130456
0.0106529
-0.00454996
0.067369
0.239616
-0.0690575
0.0229429
0.0747081
-0.0633124
0.0193399
-0.0575943
0.0141681
-0.0517181
0.00860563
-0.045161
0.00212604
-0.037262
-0.00483173
-0.0277252
-0.00922566
-0.016741
-0.000331252
-0.00635823
0.0569862
0.233258
-0.0739553
0.016578
0.0803201
-0.0681499
0.0135345
-0.0628568
0.00887495
-0.0577827
0.00353158
-0.0526743
-0.0029824
-0.0462299
-0.0112761
-0.0374252
-0.0180303
-0.0264831
-0.0112734
-0.0129523
0.0434555
0.220305
-0.078182
0.0114554
0.0833047
-0.0733799
0.00873236
-0.0693813
0.00487638
-0.0657664
-8.333e-05
-0.0622422
-0.00650661
-0.0582341
-0.0152842
-0.0523174
-0.0239471
-0.0428371
-0.0207537
-0.0263574
0.0269758
0.193948
-0.0821661
0.00564625
0.0879753
-0.0775208
0.00408703
-0.0744796
0.00183514
-0.0734955
-0.00106738
-0.0742456
-0.00575653
-0.0768021
-0.0127277
-0.0800781
-0.020671
-0.0797767
-0.0210551
-0.0647977
0.0119967
0.12915
-0.0857915
0.0914377
-0.0817045
-0.0798693
-0.0809367
-0.0866932
-0.0994209
-0.120092
-0.141147
-0.12915
0.00211656
0.0621728
-0.00314678
0.00125527
0.062547
0.00068003
0.0644221
0.000163199
0.0672597
-0.000115441
0.0716734
-0.000442834
0.0750355
-0.000352449
0.0802297
-0.000376899
0.0833291
-0.000112116
0.0877105
0.0913256
0.00313102
0.0630656
-0.00402385
0.00232524
0.0633528
0.0017091
0.0650383
0.00113588
0.0678329
0.000739378
0.0720699
0.000252384
0.0755224
0.000177554
0.0803045
-3.80623e-05
0.0835447
8.0652e-05
0.0875918
0.0914063
0.00430344
0.0637143
-0.00495213
0.00356374
0.0640925
0.00289478
0.0657072
0.00222101
0.0685067
0.00167654
0.0726144
0.00106996
0.076129
0.000784846
0.0805896
0.000426386
0.0839032
0.000293695
0.0877245
0.0917
0.00551956
0.0640843
-0.00588953
0.00488719
0.0647249
0.00418807
0.0664064
0.0034147
0.06928
0.00271781
0.0733113
0.00195752
0.0768893
0.00145677
0.0810904
0.000899884
0.0844601
0.000523186
0.0881012
0.0922232
0.00675709
0.0641611
-0.00683395
0.00627649
0.0652054
0.005573
0.0671099
0.00470866
0.0701444
0.00385538
0.0741645
0.00292398
0.0778207
0.00219027
0.0818241
0.0014109
0.0852394
0.000768199
0.0887439
0.0929914
0.00804227
0.0639227
-0.0078038
0.00774263
0.0655051
0.00705215
0.0678003
0.00610119
0.0710953
0.00508627
0.0751795
0.0039669
0.0789401
0.00298402
0.082807
0.00195907
0.0862644
0.00102905
0.0896739
0.0940204
0.00940004
0.0633506
-0.00882801
0.0092949
0.0656102
0.00862583
0.0684694
0.00758806
0.0721331
0.00640506
0.0763625
0.00508148
0.0802636
0.00383484
0.0840536
0.00254216
0.0875571
0.00130588
0.0909102
0.0953263
0.0108483
0.0624392
-0.00993682
0.0109367
0.0655218
0.0102897
0.0691164
0.00916194
0.0732609
0.00780421
0.0777202
0.00626188
0.081806
0.00473867
0.0855768
0.00315805
0.0891377
0.001599
0.0924692
0.0969253
0.0123969
0.0611959
-0.0111536
0.0126667
0.065252
0.012037
0.0697461
0.0108143
0.0744835
0.00927592
0.0792586
0.00750242
0.0835795
0.00569188
0.0873874
0.00380533
0.0910242
0.00190914
0.0943654
0.0988344
0.0140463
-0.0124911
0.0144782
0.0138585
0.0125362
0.0108127
0.00879812
0.00669179
0.00448361
0.00223748
0.000679715
-0.00115185
0.00231403
-0.00464008
0.00468133
-0.00820762
0.00761606
-0.0115016
0.0109883
-0.0143428
0.0146978
-0.0166474
0.0186771
-0.0183969
0.0229038
-0.0196226
0.0274525
-0.0204204
-0.021062
0.000758827
-0.00191067