/*--------------------------------*- C++ -*----------------------------------*\
  =========                 |
  \\      /  F ield         | OpenFOAM: The Open Source CFD Toolbox
   \\    /   O peration     | Website:  https://openfoam.org
    \\  /    A nd           | Version:  7
     \\/     M anipulation  |
\*---------------------------------------------------------------------------*/
FoamFile
{
    version     2.0;
    format      ascii;
    class       surfaceScalarField;
    location    "46.8";
    object      phi;
}
// * * * * * * * * * * * * * * * * * * * * * * * * * * * * * * * * * * * * * //

dimensions      [0 3 -1 0 0 0 0];

internalField   nonuniform List<scalar> 
3880
(
-0.000130916
0.000250818
-0.000119902
-0.00023827
0.000632305
-0.000524951
-0.000228673
0.00105331
-0.00106291
-5.01997e-05
0.00156848
-0.00174695
0.000330257
0.00223311
-0.00261357
0.000936409
0.00308771
-0.00369386
0.00178195
0.00415932
-0.00500485
0.00286769
0.00546156
-0.0065473
0.00417598
0.0069959
-0.00830419
0.00875245
0.00565993
-0.0102364
-0.000120076
0.000370895
-0.000199115
0.000711344
-0.000155416
0.00100962
5.33511e-05
0.00135971
0.000453716
0.00183275
0.00106715
0.00247427
0.00191067
0.0033158
0.00299353
0.00437869
0.00430999
0.00567944
0.0072394
0.00582303
-9.53942e-05
0.000466289
-0.000119054
0.000735004
-5.00883e-06
0.00089557
0.000273484
0.00108122
0.000734208
0.00137202
0.00139098
0.0018175
0.00225879
0.00244799
0.00335122
0.00328626
0.0046735
0.00435717
0.00570969
0.00620321
-5.65462e-05
0.000522836
3.50842e-06
0.000674949
0.000224616
0.000674462
0.000619751
0.00068608
0.00119047
0.00080131
0.0019395
0.00106846
0.00287436
0.00151313
0.00400723
0.00215339
0.00535083
0.00301357
0.0041589
0.00690162
-7.80978e-07
0.000523616
0.000167278
0.000506889
0.000533565
0.000308176
0.00109048
0.000129162
0.00182349
6.82999e-05
0.00272057
0.000171386
0.00377709
0.00045661
0.00499786
0.000932621
0.00639718
0.00161425
0.00256498
0.0079911
6.24451e-05
0.000461172
0.000366479
0.000202855
0.000910514
-0.000235859
0.00166878
-0.000629105
0.00260989
-0.000872808
0.00370606
-0.000924787
0.00493821
-0.00077554
0.00629942
-0.000428587
0.00779884
0.000114824
0.000896121
0.0094677
0.000137466
0.000323705
0.000593255
-0.000252934
0.00133732
-0.000979924
0.00232252
-0.00161431
0.00350009
-0.00205037
0.00482697
-0.00225167
0.00627009
-0.00221866
0.00780952
-0.00196801
0.0094442
-0.00151986
-0.000871044
0.0112114
0.000219373
0.000104333
0.000836658
-0.000870219
0.00178934
-0.00193261
0.00300671
-0.00283168
0.00442235
-0.00346601
0.00597974
-0.00380907
0.00763446
-0.00387337
0.00935537
-0.00368893
0.0111297
-0.00329423
-0.00273179
0.0129905
0.000304841
-0.000200509
0.00108389
-0.00164927
0.00223709
-0.00308581
0.00366742
-0.004262
0.00529116
-0.00508975
0.00704183
-0.00555974
0.00886911
-0.00570066
0.010735
-0.00555486
0.0126136
-0.00517281
-0.00464892
0.0145308
0.000390302
-0.000590811
0.00132073
-0.0025797
0.00264799
-0.00441307
0.00424628
-0.00586029
0.00601638
-0.00685985
0.00788788
-0.00743124
0.00981549
-0.00762827
0.011771
-0.00751035
0.0137259
-0.00712774
0.0156021
-0.00652512
0.00960159
0.047966
-0.0519077
0.0119103
0.0796724
-0.0819811
0.011892
0.106541
-0.106523
0.0106726
0.12918
-0.127961
0.00900368
0.151281
-0.149613
0.00720292
0.17532
-0.173519
0.00535261
0.203414
-0.201563
0.00340585
0.236508
-0.234561
0.00152096
0.278076
-0.276191
0.325479
-0.323958
0.010071
0.043718
0.0131749
0.0765685
0.0136545
0.106061
0.012614
0.13022
0.0109429
0.152952
0.00902685
0.177236
0.00696715
0.205473
0.00468882
0.238786
0.00227868
0.280486
0.327757
0.0104794
0.0394419
0.0143259
0.072722
0.0153713
0.105016
0.0145607
0.131031
0.0129018
0.154611
0.0108722
0.179265
0.00859438
0.207751
0.00597778
0.241403
0.00303856
0.283425
0.330796
0.0108888
0.0354547
0.0153236
0.0682873
0.0169946
0.103345
0.0164726
0.131553
0.01485
0.156234
0.012714
0.181401
0.0102215
0.210244
0.00726683
0.244357
0.00379811
0.286894
0.334594
0.0113832
0.0320626
0.0161438
0.0635266
0.0184786
0.10101
0.0183116
0.13172
0.0167587
0.157787
0.0145263
0.183634
0.0118252
0.212945
0.00853953
0.247643
0.00454904
0.290885
0.339143
0.0120406
0.0294897
0.0167905
0.0587767
0.0197821
0.0980184
0.0200326
0.13147
0.0185917
0.159228
0.0162854
0.18594
0.0133911
0.215839
0.00978834
0.251246
0.00528697
0.295386
0.34443
0.0128965
0.0278046
0.0173003
0.0543729
0.0208765
0.0944422
0.0216137
0.130732
0.0203383
0.160503
0.0179763
0.188302
0.0149007
0.218915
0.0109953
0.255151
0.00600356
0.300378
0.350434
0.0139108
0.0268844
0.0177284
0.0505553
0.0217248
0.0904458
0.0229737
0.129484
0.0219256
0.161551
0.0195558
0.190672
0.01633
0.222141
0.0121497
0.259332
0.00669253
0.305835
0.357126
0.0149287
0.0264864
0.0181032
0.0473808
0.0223868
0.0861621
0.0242143
0.127656
0.023436
0.16233
0.0210595
0.193048
0.0176923
0.225508
0.0132481
0.263776
0.00735199
0.311731
0.364478
0.015705
0.0263834
0.018358
0.0447279
0.0226815
0.0818386
0.0250851
0.125253
0.0247448
0.16267
0.0224699
0.195323
0.0190328
0.228945
0.0143193
0.268489
0.00803722
0.318013
0.372515
0.0491475
0.0349523
-0.0577164
0.0407819
0.0530935
0.0369144
0.0857061
0.0332915
0.128875
0.0278421
0.168119
0.0215928
0.201572
0.0154863
0.235052
0.0095599
0.274416
0.00397459
0.323598
0.37649
0.0501009
0.0399487
-0.0550972
0.0425307
0.0606638
0.0371559
0.0910809
0.0331395
0.132892
0.0276597
0.173599
0.0211447
0.208087
0.0148204
0.241376
0.00894259
0.280294
0.0036792
0.328862
0.380169
0.0465103
0.0429713
-0.0495329
0.0406516
0.0665225
0.0350069
0.0967255
0.0305374
0.137361
0.0254951
0.178641
0.0196286
0.213954
0.0138579
0.247147
0.00843891
0.285712
0.00352316
0.333778
0.383692
0.0396792
0.0448639
-0.0415719
0.0358997
0.0703021
0.031549
0.101076
0.0277126
0.141198
0.0233036
0.18305
0.0179093
0.219348
0.0123683
0.252688
0.00731746
0.290763
0.00294962
0.338145
0.386642
0.0310945
0.0462695
-0.0325001
0.0284721
0.0729245
0.0252357
0.104313
0.0225302
0.143903
0.0195663
0.186014
0.0156488
0.223266
0.0112325
0.257104
0.00682993
0.295166
0.00278587
0.342189
0.389428
0.022179
0.0471752
-0.0230847
0.0207919
0.0743117
0.0190991
0.106005
0.0177122
0.14529
0.0157933
0.187933
0.0126111
0.226448
0.00874543
0.26097
0.0050698
0.298841
0.00195333
0.345306
0.391381
0.0130867
0.0483971
-0.0143087
0.0115698
0.0758287
0.0107896
0.106786
0.0112926
0.144787
0.0118562
0.187369
0.0108616
0.227442
0.00816064
0.26367
0.00481955
0.302183
0.00180499
0.34832
0.393186
0.00604865
0.0495256
-0.00717718
0.00460687
0.0772705
0.00402602
0.107366
0.00483351
0.14398
0.00618017
0.186023
0.0063646
0.227258
0.00499805
0.265037
0.00294698
0.304234
0.00100449
0.350263
0.394191
-0.000781686
0.0515171
-0.00120986
-0.0024094
0.0788982
-0.00223533
0.107192
0.000148827
0.141596
0.00359906
0.182573
0.00549238
0.225365
0.00485394
0.265675
0.00288871
0.306199
0.000929562
0.352222
0.39512
-0.00527612
0.00222906
-0.00838843
-0.00959931
-0.00781663
-0.00381356
-8.10135e-05
0.00161461
0.00121683
0.000308972
0.0164534
-0.0576361
-0.0165337
0.0150025
-0.0536464
0.0131424
-0.0476728
0.0113435
-0.039773
0.00989868
-0.0310553
0.00890715
-0.0220932
0.00843965
-0.0138412
0.00838418
-0.0071217
0.00885256
-0.00167824
0.00150899
0.0148004
-0.0567434
-0.0156931
0.0130075
-0.0518535
0.011075
-0.0457402
0.00930057
-0.0379986
0.00790692
-0.0296616
0.00696691
-0.0211532
0.00650627
-0.0133805
0.0064154
-0.00703084
0.00677457
-0.00203741
0.000979122
0.0127618
-0.0553721
-0.0141332
0.0107936
-0.0498853
0.00883946
-0.0437861
0.007094
-0.0362531
0.00574968
-0.0283173
0.00485304
-0.0202565
0.00440348
-0.012931
0.00429894
-0.0069263
0.00455585
-0.00229432
0.000590387
0.0103583
-0.0536966
-0.0120338
0.0083123
-0.0478392
0.00639477
-0.0418686
0.00472112
-0.0345795
0.00344785
-0.027044
0.0026041
-0.0194128
0.00217206
-0.0124989
0.00206121
-0.00681545
0.00223712
-0.00247022
0.000314224
0.0076663
-0.0518201
-0.00954282
0.00560961
-0.0457825
0.00376834
-0.0400273
0.00219727
-0.0330084
0.00101899
-0.0258657
0.000255807
-0.0186496
-0.00013822
-0.0121049
-0.000261185
-0.00669248
-0.000128477
-0.00260293
0.000150741
0.00477521
-0.049808
-0.00678731
0.00275694
-0.0437643
0.00102238
-0.0382928
-0.000422807
-0.0315632
-0.00152025
-0.0247683
-0.00222151
-0.0179483
-0.00258095
-0.0117454
-0.00267487
-0.00659857
-0.00260353
-0.00267426
1.24308e-05
0.00179822
-0.0477289
-0.00387732
-0.000152956
-0.0418131
-0.00179507
-0.0366506
-0.0031418
-0.0302165
-0.00411431
-0.0237958
-0.00472699
-0.0173357
-0.00503238
-0.0114401
-0.00510767
-0.00652328
-0.00506234
-0.0027196
-9.67154e-05
-0.00120298
-0.0456245
-0.000901386
-0.00308819
-0.0399279
-0.00460629
-0.0351325
-0.00583214
-0.0289907
-0.00669303
-0.0229349
-0.00721932
-0.0168094
-0.00747299
-0.0111864
-0.00752868
-0.00646759
-0.00749448
-0.00275379
-0.00019535
-0.00416272
-0.0434955
0.00203365
-0.0059307
-0.0381599
-0.00733337
-0.0337299
-0.00844259
-0.0278814
-0.00920239
-0.0221751
-0.00964991
-0.0163619
-0.00985856
-0.0109777
-0.00989587
-0.00643029
-0.0098615
-0.00278816
-0.000299549
-0.006956
-0.0414054
0.00486593
-0.00861837
-0.0364975
-0.00991427
-0.032434
-0.0109147
-0.026881
-0.0115889
-0.021501
-0.0119701
-0.0159806
-0.012144
-0.0108038
-0.012166
-0.00640829
-0.0121248
-0.0028293
-0.000420003
-0.00952742
-0.0393935
0.00751548
-0.0110924
-0.0349325
-0.0122987
-0.0312277
-0.0131979
-0.0259817
-0.0138059
-0.020893
-0.0141354
-0.0156511
-0.0142867
-0.0106525
-0.0142986
-0.0063964
-0.0142486
-0.00287934
-0.000559534
-0.0118535
-0.0374764
0.00993637
-0.0133168
-0.0334692
-0.0144474
-0.0300971
-0.0152565
-0.0251727
-0.0158168
-0.0203327
-0.01611
-0.0153579
-0.0162512
-0.0105114
-0.0162602
-0.00638735
-0.0162044
-0.00293513
-0.000712776
-0.0138986
-0.035669
0.0120913
-0.015259
-0.0321088
-0.0163286
-0.0290275
-0.0170623
-0.024439
-0.017592
-0.019803
-0.0178668
-0.0150831
-0.0180102
-0.010368
-0.0180266
-0.00637097
-0.0179737
-0.002988
-0.0008667
-0.0156461
-0.0339787
0.0139558
-0.0169015
-0.0308534
-0.0179245
-0.0280045
-0.0185994
-0.0237641
-0.0191135
-0.0192889
-0.019389
-0.0148076
-0.0195475
-0.0102095
-0.0195849
-0.00633355
-0.0195485
-0.00302439
-0.00100235
-0.0170922
-0.0323999
0.0155133
-0.0182404
-0.0297052
-0.0192287
-0.0270162
-0.0198638
-0.0231289
-0.0203749
-0.0187779
-0.0206709
-0.0145116
-0.0208584
-0.010022
-0.0209338
-0.00625816
-0.0209314
-0.0030268
-0.00109674
-0.0182443
-0.0309079
0.0167523
-0.0192861
-0.0286633
-0.0202457
-0.0260567
-0.0208626
-0.022512
-0.0213804
-0.01826
-0.0217172
-0.0141747
-0.0219484
-0.00979077
-0.0220814
-0.0061252
-0.0221333
-0.00297492
-0.00112459
-0.0191153
-0.0294566
0.0176641
-0.0200588
-0.0277199
-0.0209864
-0.0251291
-0.0216091
-0.0218893
-0.0221421
-0.017727
-0.0225401
-0.0137767
-0.0228315
-0.00949937
-0.0230435
-0.00591324
-0.0231719
-0.00284651
-0.00105969
-0.0196863
-0.0280135
0.0182431
-0.0205615
-0.0268446
-0.0214543
-0.0242363
-0.0221144
-0.0212293
-0.0226752
-0.0171662
-0.0231559
-0.013296
-0.0235265
-0.00912877
-0.0238402
-0.00559952
-0.0240688
-0.00261792
-0.00087577
-0.0199226
-0.0266013
0.0185105
-0.0208073
-0.02596
-0.0216663
-0.0233773
-0.0223962
-0.0204994
-0.0230013
-0.0165611
-0.023585
-0.0127122
-0.0240553
-0.00865852
-0.0244938
-0.00516105
-0.0248473
-0.00226438
-0.000546428
-0.0199409
-0.0252265
0.0185661
-0.0209001
-0.0250008
-0.0216605
-0.022617
-0.0224513
-0.0197086
-0.023111
-0.0159014
-0.023815
-0.0120082
-0.0244187
-0.00805476
-0.0250155
-0.00456427
-0.0255365
-0.00174337
-5.04586e-05
-0.078156
-0.021946
0.0748755
-0.0837488
-0.0194079
-0.0885299
-0.0178359
-0.0932785
-0.0149599
-0.0970307
-0.0121492
-0.100115
-0.00892386
-0.102141
-0.00602835
-0.103369
-0.00333717
-0.103796
-0.00131563
-6.1116e-05
-0.0966194
-0.018711
0.0933844
-0.10039
-0.0156375
-0.103887
-0.0143387
-0.107362
-0.0114846
-0.110157
-0.00935473
-0.112415
-0.00666573
-0.113882
-0.00456173
-0.114737
-0.00248138
-0.115007
-0.00104608
-6.139e-05
-0.114298
-0.0159119
0.111498
-0.117148
-0.0127866
-0.119935
-0.0115524
-0.12252
-0.00889898
-0.1246
-0.00727556
-0.126219
-0.005046
-0.127241
-0.00353981
-0.127807
-0.00191616
-0.12796
-0.000893044
-5.67068e-05
-0.134141
-0.0137953
0.132024
-0.136353
-0.0105742
-0.138496
-0.00940923
-0.140398
-0.00699723
-0.141919
-0.00575471
-0.143079
-0.00388637
-0.143788
-0.00283087
-0.144177
-0.00152688
-0.144269
-0.000800784
-4.91591e-05
-0.157727
-0.0117675
0.155699
-0.159504
-0.00879658
-0.161199
-0.00771486
-0.162641
-0.00555456
-0.163805
-0.00459167
-0.164682
-0.00300931
-0.165235
-0.00227696
-0.16557
-0.00119186
-0.165678
-0.000693109
-1.41411e-05
-0.185744
-0.00969952
0.183676
-0.187335
-0.00720609
-0.188871
-0.00617907
-0.190109
-0.00431615
-0.191122
-0.00357914
-0.191878
-0.00225252
-0.192426
-0.00172944
-0.192817
-0.000800719
-0.193037
-0.000472713
4.53546e-05
-0.216118
-0.00754633
0.213965
-0.21815
-0.0051739
-0.219886
-0.00444291
-0.221075
-0.00312734
-0.222038
-0.00261661
-0.222762
-0.00152854
-0.223373
-0.00111756
-0.223842
-0.000332644
-0.224141
-0.000173575
0.000121201
-0.246579
-0.00502341
0.244056
-0.247837
-0.00391548
-0.249036
-0.00324382
-0.250072
-0.00209159
-0.251021
-0.0016675
-0.251709
-0.000840356
-0.252278
-0.000548588
-0.252642
3.10508e-05
-0.252863
4.71672e-05
0.000151939
-0.265495
-0.00260927
0.263081
-0.267908
-0.00150215
-0.269868
-0.00128412
-0.2711
-0.000859149
-0.272035
-0.000732636
-0.272515
-0.00036095
-0.27286
-0.000203351
-0.272921
9.26396e-05
-0.272955
8.05124e-05
8.91936e-05
-0.278363
0.275753
-0.279865
-0.281149
-0.282008
-0.282741
-0.283102
-0.283305
-0.283212
-0.283132
-0.0211087
0.0765957
0.0193885
-0.0219088
0.0941845
-0.0222228
0.111812
-0.0220339
0.131835
-0.0213183
0.154983
-0.0197137
0.182072
-0.0169946
0.211246
-0.0115536
0.238615
-0.00675828
0.258285
0.268995
-0.0199129
0.0775241
0.0189845
-0.0205553
0.0948269
-0.0207577
0.112015
-0.0204597
0.131537
-0.0196451
0.154169
-0.0180147
0.180441
-0.0152925
0.208523
-0.0110534
0.234376
-0.00597359
0.253206
0.263022
-0.018979
0.0782694
0.0182337
-0.0194597
0.0953077
-0.0195337
0.112089
-0.019165
0.131169
-0.0183169
0.153321
-0.016726
0.178851
-0.0140961
0.205893
-0.0102231
0.230503
-0.00543824
0.248421
0.257583
-0.0179144
0.0789461
0.0172377
-0.0182671
0.0956604
-0.0182011
0.112023
-0.0177444
0.130712
-0.0168603
0.152437
-0.0153106
0.177301
-0.0128196
0.203402
-0.00929403
0.226977
-0.00488624
0.244013
0.252697
-0.0166716
0.0795486
0.0160691
-0.016924
0.0959128
-0.016749
0.111848
-0.0162225
0.130186
-0.0153167
0.151531
-0.01382
0.175804
-0.0115011
0.201083
-0.00830344
0.22378
-0.00434105
0.240051
0.248356
-0.0152872
0.0800596
0.0147762
-0.0154297
0.0960553
-0.0151643
0.111583
-0.0145912
0.129612
-0.0136846
0.150624
-0.0122635
0.174383
-0.0101443
0.198964
-0.00728063
0.220916
-0.00379765
0.236568
0.244558
-0.0138
0.0804674
0.0133923
-0.0138222
0.0960775
-0.0134697
0.11123
-0.0128611
0.129004
-0.0119693
0.149732
-0.0106458
0.17306
-0.00874875
0.197067
-0.00623982
0.218407
-0.00324805
0.233576
0.24131
-0.0122362
0.0807557
0.0119478
-0.0121389
0.0959803
-0.0117008
0.110792
-0.011061
0.128364
-0.0101923
0.148864
-0.00898232
0.17185
-0.00732371
0.195409
-0.00518863
0.216272
-0.00269164
0.231079
0.238619
-0.0106213
0.0809023
0.0104747
-0.0104109
0.0957699
-0.00988946
0.11027
-0.00922278
0.127697
-0.0083816
0.148022
-0.00729577
0.170764
-0.00588516
0.193998
-0.0041341
0.214521
-0.00213231
0.229077
0.236486
-0.00898199
0.080879
0.00900533
-0.00866953
0.0954574
-0.00806227
0.109663
-0.00737494
0.12701
-0.00656231
0.14721
-0.00560887
0.16981
-0.00445082
0.19284
-0.00308596
0.213156
-0.00157656
0.227568
0.23491
-0.00735125
0.0806511
0.00757913
-0.00695363
0.0950598
-0.0062513
0.108961
-0.00554907
0.126308
-0.00476177
0.146422
-0.00394457
0.168993
-0.00303753
0.191933
-0.00205421
0.212173
-0.00102989
0.226543
0.23388
-0.00579126
0.0802236
0.0062188
-0.00529882
0.0945673
-0.00450827
0.10817
-0.00378457
0.125584
-0.00302246
0.14566
-0.00232956
0.1683
-0.00166389
0.191267
-0.00105336
0.211562
-0.000499139
0.225989
0.233381
-0.00434694
0.0796129
0.00495756
-0.00374333
0.0939637
-0.00287955
0.107307
-0.00212583
0.12483
-0.00139401
0.144929
-0.000814255
0.16772
-0.000381846
0.190835
-0.000124887
0.211305
-1.66987e-05
0.225881
0.233364
-0.00304538
0.0788454
0.00381294
-0.002308
0.0932264
-0.0014012
0.1064
-0.000611741
0.124041
4.31489e-05
0.144274
0.000615138
0.167148
0.000860838
0.190589
0.000797569
0.211369
0.000478386
0.2262
0.233842
-0.00190606
0.0779604
0.00279106
-0.00101334
0.0923336
-0.000134247
0.105521
0.00082853
0.123078
0.00157824
0.143524
0.00200806
0.166719
0.00204715
0.19055
0.00166597
0.21175
0.000936883
0.226929
0.234779
-0.000939834
0.0770142
0.00188604
9.50707e-05
0.0912987
0.00119541
0.10442
0.00217012
0.122103
0.00290386
0.14279
0.00326014
0.166362
0.00312287
0.190687
0.0024558
0.212417
0.00135257
0.228032
0.236132
-0.000168443
0.0761064
0.00107624
0.00121632
0.089914
0.0023342
0.103302
0.00335477
0.121083
0.00409891
0.142046
0.00440581
0.166055
0.00412061
0.190973
0.00319409
0.213343
0.0017428
0.229484
0.237875
0.000632429
0.0751491
0.000324824
0.00211698
0.0884294
0.0032726
0.102147
0.00433515
0.12002
0.00509033
0.141291
0.00536025
0.165786
0.00495753
0.191375
0.00381638
0.214484
0.00206829
0.231232
0.239943
0.00138086
0.074174
-0.000405711
0.00295233
0.0868579
0.00415607
0.100943
0.00526178
0.118915
0.00603817
0.140514
0.00628267
0.165541
0.00577032
0.191888
0.00442112
0.215834
0.00238683
0.233266
0.24233
0.00172012
0.0735698
-0.00111596
0.00334039
0.0852377
0.00458744
0.099696
0.00571546
0.117787
0.00651003
0.13972
0.00676279
0.165288
0.00621393
0.192437
0.00476078
0.217287
0.00255483
0.235472
0.244885
-0.0644629
0.066587
0.0714458
-0.0578382
0.078613
-0.0530491
0.0949069
-0.0479511
0.112689
-0.0425307
0.1343
-0.0363398
0.159097
-0.0289019
0.184999
-0.0201131
0.208498
-0.0102743
0.225633
0.23461
-0.0758409
0.0610254
0.0814024
-0.0700604
0.0728325
-0.0646377
0.0894842
-0.0585298
0.106581
-0.0522218
0.127991
-0.0447517
0.151627
-0.0356929
0.17594
-0.0249861
0.197791
-0.0129876
0.213635
0.221623
-0.0891123
0.0555007
0.094637
-0.0833346
0.0670548
-0.0770978
0.0832473
-0.0702091
0.099692
-0.0627842
0.120567
-0.0535555
0.142399
-0.0425063
0.164891
-0.029517
0.184802
-0.0149679
0.199086
0.206655
-0.105441
0.0501362
0.110806
-0.0992609
0.0608743
-0.0924386
0.076425
-0.0847888
0.0920422
-0.0758426
0.11162
-0.0645208
0.131077
-0.0511758
0.151546
-0.0356025
0.169229
-0.018463
0.181946
0.188192
-0.124277
0.0440049
0.130409
-0.11777
0.0543669
-0.110061
0.0687163
-0.100778
0.0827592
-0.0893862
0.100228
-0.0753799
0.11707
-0.0592373
0.135403
-0.0405382
0.15053
-0.0202481
0.161656
0.167944
-0.148027
0.0381393
0.153893
-0.140468
0.0468074
-0.131245
0.0594936
-0.119779
0.0712931
-0.105794
0.0862431
-0.0891326
0.100409
-0.0698479
0.116118
-0.0478568
0.128538
-0.0247506
0.13855
0.143193
-0.172677
0.0307425
0.180073
-0.163613
0.0377442
-0.152183
0.0480631
-0.137953
0.057063
-0.120857
0.0691475
-0.100532
0.0800841
-0.0768188
0.0924055
-0.0506078
0.102327
-0.0241843
0.112126
0.119009
-0.200619
0.0228822
0.208479
-0.189817
0.0269423
-0.176232
0.0344784
-0.159592
0.0404226
-0.139673
0.049228
-0.115995
0.0564067
-0.088959
0.0653693
-0.0601539
0.0735224
-0.0317146
0.0836869
0.0872941
-0.220731
0.0110077
0.232605
-0.207121
0.0133325
-0.189823
0.0171804
-0.169497
0.0200965
-0.145027
0.0247582
-0.116919
0.0282993
-0.0850256
0.0334754
-0.0496733
0.0381702
-0.0135668
0.0475804
0.0737273
-0.29662
0.307628
-0.283288
-0.266107
-0.246011
-0.221253
-0.192953
-0.159478
-0.121308
-0.0737273
-0.00135352
0.0733523
-0.000552975
-0.00285104
0.0828999
-0.00403221
0.0958181
-0.00491164
0.111685
-0.005426
0.130923
-0.00552672
0.153994
-0.00505203
0.179599
-0.00394292
0.20737
-0.0031143
0.231776
0.304514
-0.00088345
0.0753077
-0.00107193
-0.00251524
0.0845317
-0.00378084
0.0970837
-0.00468491
0.112589
-0.00523848
0.131477
-0.00535004
0.154105
-0.00493718
0.179186
-0.0038509
0.206284
-0.00284839
0.230774
0.301665
-0.000265357
0.077169
-0.00159596
-0.00186629
0.0861327
-0.00313197
0.0983494
-0.0040269
0.113484
-0.00460944
0.132059
-0.00474763
0.154243
-0.00443641
0.178875
-0.00344771
0.205295
-0.00259315
0.229919
0.299072
0.00034748
0.0789604
-0.00213892
-0.00121634
0.0876965
-0.00237663
0.0995097
-0.0032356
0.114343
-0.003798
0.132621
-0.00398597
0.154431
-0.00375559
0.178644
-0.00294177
0.204481
-0.00225855
0.229236
0.296814
0.000945241
0.0807186
-0.00270339
-0.000588426
0.0892302
-0.00164394
0.100565
-0.00244417
0.115144
-0.00296868
0.133146
-0.0031772
0.15464
-0.00301703
0.178484
-0.00237701
0.203841
-0.00187621
0.228735
0.294937
0.00157027
0.0824244
-0.00327611
8.76145e-05
0.0907128
-0.00084921
0.101502
-0.00159157
0.115886
-0.00208071
0.133635
-0.00230377
0.154863
-0.00222552
0.178406
-0.00175721
0.203373
-0.00145676
0.228435
0.293481
0.00223646
0.0840382
-0.00385023
0.000935926
0.0920133
1.38381e-05
0.102424
-0.000653674
0.116553
-0.00110377
0.134085
-0.00134487
0.155104
-0.00134978
0.178411
-0.00107863
0.203102
-0.000998335
0.228355
0.292482
0.00292814
0.0855305
-0.00442044
0.00178265
0.0931588
0.000981928
0.103225
0.000370092
0.117165
-3.30231e-05
0.134488
-0.000314047
0.155385
-0.00037568
0.178472
-0.000352169
0.203078
-0.000497336
0.2285
0.291985
0.00363842
0.0868695
-0.0049774
0.00264964
0.0941476
0.00195915
0.103915
0.00145957
0.117665
0.00108524
0.134863
0.000808136
0.155662
0.000629057
0.178651
0.00044935
0.203258
5.27953e-05
0.228896
0.292038
0.00435602
0.0880198
-0.00550635
0.00352809
0.0949755
0.00295902
0.104484
0.00256162
0.118062
0.00224307
0.135181
0.00195629
0.155949
0.00165946
0.178948
0.0012885
0.203629
0.000565083
0.22962
0.292603
0.00506043
0.08894
-0.0059806
0.00439675
0.0956392
0.00395767
0.104924
0.00366675
0.118353
0.00340859
0.135439
0.0031135
0.156244
0.00271447
0.179347
0.00213083
0.204213
0.00111145
0.230639
0.293714
0.00574326
0.0895918
-0.00639514
0.00524647
0.096136
0.00494478
0.105225
0.00476478
0.118533
0.00457145
0.135633
0.00427672
0.156539
0.00377795
0.179846
0.00298429
0.205006
0.00166911
0.231954
0.295383
0.00637017
0.0899561
-0.0067344
0.00604879
0.0964574
0.00588978
0.105384
0.00582395
0.118599
0.00570475
0.135752
0.00542008
0.156823
0.00482969
0.180436
0.00383745
0.205999
0.00222807
0.233564
0.297611
0.00692344
0.0900226
-0.00698992
0.0067846
0.0965962
0.00676809
0.105401
0.0068183
0.118549
0.00678417
0.135786
0.00651794
0.15709
0.00584959
0.181105
0.00467269
0.207176
0.0027776
0.235459
0.300389
0.00738855
0.0897898
-0.00715584
0.00743898
0.0965458
0.0075604
0.105279
0.00772679
0.118382
0.00778564
0.135727
0.00755283
0.157322
0.00682799
0.18183
0.00548212
0.208521
0.00331618
0.237625
0.303705
0.00775089
0.0892715
-0.00723257
0.00799486
0.0963019
0.00824509
0.105029
0.00852396
0.118104
0.00867995
0.135571
0.0084923
0.15751
0.00773421
0.182588
0.00624069
0.210015
0.00382793
0.240037
0.307533
0.0080154
0.0884871
-0.00723103
0.00845641
0.0958608
0.00882385
0.104662
0.00921093
0.117716
0.00947066
0.135311
0.00934481
0.157636
0.00857562
0.183357
0.00695721
0.211633
0.00431937
0.242675
0.311852
0.00814987
0.0875067
-0.00716942
0.00877772
0.095233
0.00924874
0.104191
0.00973042
0.117235
0.0100896
0.134952
0.0100345
0.157691
0.00928283
0.184109
0.00758206
0.213334
0.0047593
0.245498
0.316612
0.00830437
0.0863049
-0.00710258
0.00910329
0.0944341
0.0096499
0.103644
0.0102077
0.116677
0.0106611
0.134499
0.0106819
0.15767
0.00995317
0.184837
0.00817409
0.215113
0.00517578
0.248496
0.321788
0.00802522
0.085298
-0.00701833
0.00896466
0.0934946
0.00963262
0.102976
0.0102638
0.116046
0.0108214
0.133941
0.0109441
0.157547
0.0103231
0.185458
0.00854671
0.21689
0.00549292
0.25155
0.32728
-0.0484642
0.0780986
0.0556636
-0.0406728
0.0857032
-0.0347111
0.0970143
-0.0290837
0.110418
-0.0236666
0.128524
-0.0181382
0.152019
-0.0123901
0.17971
-0.00673612
0.211236
-0.00296214
0.247776
0.324318
-0.0650955
0.0708249
0.0723692
-0.0575924
0.0782002
-0.0504793
0.0899011
-0.0430128
0.102952
-0.0357157
0.121227
-0.0279894
0.144293
-0.0197363
0.171457
-0.0115199
0.203019
-0.00522934
0.241486
0.319089
-0.0832199
0.0634423
0.0906025
-0.0750238
0.0700041
-0.0664808
0.0813581
-0.0576118
0.0940829
-0.0487797
0.112395
-0.0388041
0.134317
-0.0279448
0.160598
-0.0168049
0.191879
-0.00740547
0.232086
0.311684
-0.103153
0.0556508
0.110945
-0.0935718
0.0604226
-0.084199
0.0719853
-0.0743531
0.084237
-0.063658
0.1017
-0.051011
0.12167
-0.0372048
0.146792
-0.0227623
0.177437
-0.00995871
0.219283
0.301725
-0.124848
0.0466751
0.133824
-0.115234
0.0508078
-0.105608
0.06236
-0.0940799
0.0727087
-0.0809186
0.0885386
-0.0655304
0.106282
-0.0486156
0.129877
-0.030276
0.159097
-0.0131488
0.202155
0.288576
-0.15131
0.0381466
0.159839
-0.141275
0.040772
-0.130223
0.0513083
-0.116568
0.0590542
-0.101266
0.0732366
-0.0832419
0.0882574
-0.0628303
0.109465
-0.0400219
0.136289
-0.0182969
0.18043
0.270279
-0.182155
0.0278313
0.192471
-0.172009
0.0306252
-0.159453
0.0387529
-0.144628
0.044229
-0.127558
0.0561662
-0.106485
0.0671844
-0.0821695
0.0851501
-0.0547105
0.10883
-0.0265327
0.152253
0.243746
-0.219395
0.0180742
0.229153
-0.208074
0.0193033
-0.194141
0.0248199
-0.178234
0.0283225
-0.158774
0.0367062
-0.135414
0.043824
-0.108576
0.0583119
-0.0774561
0.0777104
-0.0420992
0.116896
0.201647
-0.270354
0.00746502
0.280963
-0.259297
0.00824615
-0.245244
0.0107667
-0.229669
0.0127475
-0.209898
0.016936
-0.187297
0.0212231
-0.15891
0.0299246
-0.123134
0.0419345
-0.0734976
0.0672591
0.128149
-0.337187
0.344652
-0.328941
-0.318174
-0.305427
-0.288491
-0.267268
-0.237343
-0.195409
-0.128149
0.00365751
0.0579543
-0.00594825
0.000792018
0.0752347
-0.00142635
0.0928208
-0.00321769
0.112736
-0.00467651
0.135283
-0.00579501
0.160957
-0.00615783
0.192834
-0.00602265
0.229017
-0.00409992
0.27904
0.340552
0.0039145
0.0598816
-0.00584177
0.00140449
0.0777447
-0.000849185
0.0950745
-0.00269553
0.114583
-0.00422598
0.136813
-0.0053739
0.162105
-0.00585314
0.193313
-0.00573765
0.228902
-0.00396635
0.277269
0.336586
0.00443481
0.061211
-0.00576422
0.00226754
0.079912
3.18311e-05
0.0973102
-0.00175122
0.116366
-0.00330933
0.138371
-0.00448979
0.163286
-0.00508057
0.193904
-0.00501305
0.228834
-0.00361372
0.27587
0.332972
0.00500801
0.0619269
-0.00572391
0.0032014
0.0817186
0.00119591
0.0993157
-0.000686327
0.118248
-0.00220701
0.139892
-0.00344026
0.164519
-0.00411927
0.194583
-0.00420701
0.228922
-0.00315463
0.274817
0.329818
0.00561321
0.0620214
-0.00570766
0.00420654
0.0831253
0.00238653
0.101136
0.000520617
0.120114
-0.0010183
0.141431
-0.00229292
0.165794
-0.00306055
0.19535
-0.00334471
0.229206
-0.00261876
0.274091
0.327199
0.0062769
0.0614435
-0.00569903
0.00532795
0.0840742
0.00370847
0.102755
0.00195422
0.121868
0.000311042
0.143074
-0.00104034
0.167145
-0.00190532
0.196215
-0.00241366
0.229715
-0.00202489
0.273703
0.325174
0.00698513
0.0601448
-0.00568639
0.00655951
0.0844998
0.00516934
0.104145
0.00349833
0.123539
0.00188339
0.144689
0.000362606
0.168666
-0.000637653
0.197216
-0.00140746
0.230484
-0.00137949
0.273675
0.323794
0.00770661
0.0581026
-0.00566444
0.00787024
0.0843362
0.00674789
0.105268
0.00516541
0.125121
0.00354198
0.146313
0.00200465
0.170203
0.000753329
0.198467
-0.000347646
0.231585
-0.000683091
0.27401
0.323111
0.00840621
0.0553333
-0.0056369
0.00922445
0.083518
0.00841534
0.106077
0.00693493
0.126602
0.00529542
0.147952
0.00368075
0.171818
0.00223033
0.199917
0.000883608
0.232932
6.97731e-05
0.274824
0.323181
0.00904812
-0.00562254
0.010585
0.0101391
0.00878053
0.00712003
0.00541911
0.00377294
0.00214399
0.000776713
0.000472799
-0.00106361
0.00153347
-0.00364036
0.00298951
-0.00586912
0.00468577
-0.00755655
0.00651124
-0.00868531
0.00839827
-0.00931827
0.0103167
-0.00954668
0.0122693
-0.00946302
0.0142986
-0.00915695
-0.00876026
0.000543871
-0.00160748
0.00169927
-0.00479576
0.00322238
-0.00739224
0.00493125
-0.00926542
0.00670863
-0.0104627
0.00849407
-0.0111037
0.0102699
-0.0113225
0.012048
-0.0112412
0.0138562
-0.0109651
-0.0105972
0.000600067
-0.00220755
0.00180587
-0.00600157
0.00332371
-0.00891007
0.00495257
-0.0108943
0.0065784
-0.0120885
0.00815481
-0.0126801
0.00967902
-0.0128467
0.0111709
-0.0127331
0.0126541
-0.0124482
-0.0120763
0.000635983
-0.00284353
0.00183993
-0.00720551
0.0032761
-0.0103462
0.00473729
-0.0123555
0.00612435
-0.0134756
0.00741238
-0.0139681
0.00861729
-0.0140516
0.00977087
-0.0138867
0.0109034
-0.0135807
-0.0132067
0.000646677
-0.00349021
0.00179242
-0.00835126
0.00307423
-0.0116281
0.00429463
-0.0135759
0.00538021
-0.0145612
0.0063321
-0.01492
0.00718513
-0.0149046
0.00798181
-0.0146834
0.00875869
-0.0143576
-0.0139908
0.000628395
-0.0041186
0.00166015
-0.00938302
0.00272534
-0.0126932
0.00365202
-0.0145025
0.00439966
-0.0153088
0.00499532
-0.0155157
0.0054888
-0.0153981
0.00592845
-0.015123
0.00635217
-0.0147813
-0.0144259
0.000579204
-0.00469781
0.00144632
-0.0102501
0.00224761
-0.0134945
0.0028492
-0.0151041
0.00324548
-0.0157051
0.00348516
-0.0157554
0.00362658
-0.0155395
0.00371799
-0.0152144
0.00379361
-0.014857
-0.0145097
0.000499402
-0.00519721
0.00116005
-0.0109108
0.00166692
-0.0140014
0.00193162
-0.0153688
0.0019807
-0.0157542
0.00187775
-0.0156524
0.00168297
-0.0153448
0.00143985
-0.0149713
0.00117525
-0.0145924
-0.0142358
0.000391546
-0.00558875
0.000815041
-0.0113343
0.00101322
-0.0141996
0.000945024
-0.0153006
0.000663012
-0.0154722
0.00023839
-0.0152278
-0.00027175
-0.0148346
-0.000831681
-0.0144114
-0.00142212
-0.0140019
-0.0136243
0.00026001
-0.00584876
0.000427701
-0.011502
0.00031722
-0.0140891
-6.8466e-05
-0.0149149
-0.000657459
-0.0148832
-0.00137788
-0.0145074
-0.00217961
-0.0140329
-0.00303481
-0.0135562
-0.00393095
-0.0131058
-0.0126893
0.000138817
-0.00598758
5.52835e-05
-0.0114184
-0.000353126
-0.0136807
-0.00103629
-0.0142318
-0.00190977
-0.0140097
-0.00290366
-0.0135135
-0.0039755
-0.012961
-0.0051047
-0.012427
-0.00628407
-0.0119264
-0.0114579
-1.22803e-05
-0.0059753
-0.000353489
-0.0110772
-0.00104067
-0.0129935
-0.00199124
-0.0132812
-0.0031148
-0.0128861
-0.00434797
-0.0122803
-0.00565641
-0.0116526
-0.00702542
-0.011058
-0.00845117
-0.0105007
-0.00997268
-0.000166378
-0.00580892
-0.000753619
-0.01049
-0.00169547
-0.0120517
-0.00288226
-0.0120944