/*--------------------------------*- C++ -*----------------------------------*\
  =========                 |
  \\      /  F ield         | OpenFOAM: The Open Source CFD Toolbox
   \\    /   O peration     | Website:  https://openfoam.org
    \\  /    A nd           | Version:  7
     \\/     M anipulation  |
\*---------------------------------------------------------------------------*/
FoamFile
{
    version     2.0;
    format      ascii;
    class       volScalarField;
    location    "2.1";
    object      p;
}
// * * * * * * * * * * * * * * * * * * * * * * * * * * * * * * * * * * * * * //

dimensions      [0 2 -2 0 0 0 0];

internalField   nonuniform List<scalar> 
18000
(
2.09425
2.09396
2.09539
2.09724
2.09924
2.10123
2.10329
2.10559
2.10829
2.1115
2.11527
2.11964
2.12461
2.13011
2.13603
2.14222
2.14858
2.15499
2.16135
2.16759
2.17364
2.17944
2.18498
2.19026
2.19527
2.20004
2.2046
2.20897
2.21318
2.21711
2.08523
2.08525
2.08675
2.08864
2.09059
2.09243
2.09425
2.09624
2.09858
2.1014
2.10481
2.10885
2.11352
2.11877
2.12447
2.13051
2.13675
2.14308
2.14938
2.15557
2.16158
2.16735
2.17286
2.17809
2.18305
2.18776
2.19225
2.19653
2.20066
2.20451
2.07603
2.07641
2.07799
2.07993
2.08184
2.08355
2.08515
2.08684
2.08881
2.09126
2.0943
2.098
2.10237
2.10735
2.11283
2.1187
2.12482
2.13106
2.1373
2.14343
2.14939
2.15512
2.16058
2.16576
2.17067
2.17531
2.17972
2.18392
2.18795
2.19171
2.06671
2.06748
2.06916
2.07114
2.07302
2.07462
2.07602
2.07742
2.07904
2.08111
2.08377
2.08713
2.09119
2.0959
2.10116
2.10685
2.11284
2.11898
2.12513
2.13121
2.13711
2.14278
2.14819
2.15331
2.15815
2.16273
2.16705
2.17115
2.17507
2.17873
2.05737
2.05853
2.0603
2.06234
2.0642
2.06569
2.0669
2.06802
2.0693
2.07099
2.07328
2.07629
2.08003
2.08446
2.0895
2.09501
2.10086
2.10688
2.11294
2.11894
2.12477
2.13038
2.13571
2.14077
2.14553
2.15002
2.15425
2.15824
2.16204
2.1656
2.04806
2.04958
2.05144
2.05354
2.05539
2.05679
2.05781
2.05867
2.05962
2.06095
2.06288
2.06552
2.06894
2.07309
2.07789
2.08323
2.08892
2.09481
2.10077
2.10666
2.11241
2.11793
2.12319
2.12815
2.13283
2.13722
2.14134
2.14521
2.14889
2.15232
2.03881
2.04066
2.04262
2.04478
2.04662
2.04794
2.0488
2.04941
2.05006
2.05103
2.05258
2.05487
2.05796
2.06182
2.0664
2.07153
2.07706
2.0828
2.08863
2.09442
2.10006
2.10549
2.11064
2.1155
2.12007
2.12434
2.12833
2.13208
2.13561
2.13892
2.02965
2.03181
2.03385
2.03608
2.03792
2.03917
2.03988
2.04026
2.04061
2.04124
2.04244
2.04437
2.04712
2.05071
2.05504
2.05996
2.0653
2.07089
2.07657
2.08223
2.08775
2.09305
2.09809
2.10283
2.10727
2.11141
2.11527
2.11887
2.12225
2.12542
2.02059
2.02302
2.02515
2.02745
2.0293
2.03049
2.03107
2.03124
2.03131
2.03161
2.03245
2.03403
2.03647
2.03977
2.04384
2.04854
2.05368
2.05909
2.06462
2.07013
2.0755
2.08066
2.08556
2.09016
2.09445
2.09844
2.10215
2.10559
2.10881
2.11183
2.01164
2.01432
2.01654
2.0189
2.02077
2.02191
2.02237
2.02235
2.02215
2.02214
2.02264
2.02389
2.026
2.02902
2.03283
2.03729
2.04222
2.04744
2.05278
2.05812
2.06333
2.06833
2.07306
2.0775
2.08163
2.08546
2.089
2.09228
2.09532
2.09818
2.00282
2.0057
2.008
2.01043
2.01232
2.01344
2.01379
2.01359
2.01314
2.01284
2.01301
2.01393
2.01574
2.01846
2.02201
2.02623
2.03093
2.03594
2.04109
2.04622
2.05125
2.05606
2.06061
2.06487
2.06882
2.07248
2.07584
2.07893
2.08179
2.08447
1.99411
1.99717
1.99955
2.00205
2.00397
2.00505
2.00531
2.00495
2.00427
2.00369
2.00356
2.00417
2.00568
2.00811
2.01139
2.01536
2.01982
2.0246
2.02953
2.03445
2.03926
2.04388
2.04823
2.05229
2.05604
2.05951
2.06268
2.06558
2.06824
2.07074
1.98551
1.98872
1.99117
1.99374
1.99569
1.99676
1.99693
1.99641
1.99553
1.99468
1.99427
1.99458
1.9958
1.99796
2.00096
2.00467
2.00889
2.01342
2.01811
2.0228
2.02739
2.03178
2.03591
2.03976
2.04331
2.04656
2.04953
2.05223
2.05469
2.057
1.97702
1.98035
1.98287
1.9855
1.98748
1.98853
1.98863
1.98797
1.98688
1.9858
1.98511
1.98515
1.9861
1.98798
1.99072
1.99416
1.99812
2.00239
2.00683
2.01128
2.01562
2.01977
2.02367
2.02729
2.03061
2.03365
2.03641
2.0389
2.04115
2.04326
1.96862
1.97204
1.97462
1.97731
1.97931
1.98034
1.98037
1.97958
1.97832
1.977
1.97607
1.97585
1.97654
1.97816
1.98064
1.98381
1.9875
1.99151
1.99568
1.99987
2.00396
2.00786
2.01151
2.01488
2.01797
2.02079
2.02333
2.0256
2.02765
2.02956
1.9603
1.96378
1.96642
1.96915
1.97117
1.97219
1.97214
1.97123
1.96979
1.96827
1.96711
1.96666
1.9671
1.96848
1.97069
1.9736
1.97701
1.98075
1.98465
1.98857
1.99239
1.99602
1.99941
2.00254
2.00539
2.00797
2.01029
2.01235
2.01419
2.0159
1.95203
1.95555
1.95824
1.96101
1.96304
1.96403
1.96391
1.96288
1.96128
1.95957
1.95821
1.95754
1.95776
1.9589
1.96087
1.96351
1.96665
1.97011
1.97373
1.97737
1.98091
1.98427
1.98739
1.99025
1.99286
1.99521
1.99731
1.99917
2.00079
2.0023
1.94381
1.94735
1.95007
1.95287
1.9549
1.95585
1.95566
1.95451
1.95276
1.95088
1.94934
1.94848
1.9485
1.94941
1.95114
1.95352
1.95638
1.95956
1.9629
1.96625
1.96951
1.97258
1.97543
1.97803
1.9804
1.98252
1.9844
1.98605
1.98747
1.98878
1.9356
1.93915
1.94189
1.9447
1.94672
1.94762
1.94734
1.94608
1.94419
1.94217
1.94047
1.93945
1.93928
1.93999
1.94148
1.9436
1.9462
1.94909
1.95214
1.95521
1.95817
1.96096
1.96353
1.96587
1.96799
1.96989
1.97157
1.97302
1.97425
1.97536
1.92738
1.93092
1.93369
1.9365
1.93849
1.93933
1.93895
1.93757
1.93556
1.93341
1.93159
1.93042
1.93009
1.9306
1.93187
1.93374
1.93607
1.93869
1.94144
1.94421
1.94688
1.94938
1.95168
1.95377
1.95566
1.95734
1.95882
1.96008
1.96113
1.96206
1.91912
1.92266
1.92543
1.92823
1.93018
1.93094
1.93047
1.92897
1.92685
1.9246
1.92267
1.92138
1.9209
1.92123
1.92228
1.92392
1.92598
1.92831
1.93078
1.93325
1.93563
1.93784
1.93987
1.94171
1.94338
1.94486
1.94616
1.94725
1.94813
1.94891
1.9108
1.91433
1.91711
1.91989
1.92178
1.92245
1.92186
1.92025
1.91803
1.9157
1.91369
1.91231
1.9117
1.91186
1.91271
1.91411
1.91591
1.91796
1.92013
1.92231
1.92439
1.92632
1.92809
1.9297
1.93115
1.93245
1.93358
1.93452
1.93527
1.93593
1.90239
1.90593
1.90871
1.91145
1.91326
1.91383
1.91313
1.91141
1.90911
1.90671
1.90464
1.90318
1.90246
1.90247
1.90313
1.9043
1.90584
1.90761
1.90949
1.91136
1.91316
1.91482
1.91633
1.91771
1.91897
1.92009
1.92107
1.9219
1.92256
1.92314
1.89389
1.89744
1.9002
1.90289
1.90461
1.90507
1.90425
1.90244
1.90006
1.89762
1.89551
1.894
1.89318
1.89306
1.89354
1.89448
1.89577
1.89725
1.89883
1.90041
1.90192
1.90331
1.90457
1.90573
1.9068
1.90777
1.90863
1.90937
1.90999
1.91055
1.88527
1.88884
1.89158
1.89421
1.89583
1.89616
1.89523
1.89332
1.8909
1.88843
1.88631
1.88475
1.88386
1.88361
1.88391
1.88464
1.88567
1.88687
1.88816
1.88944
1.89066
1.89178
1.8928
1.89374
1.89462
1.89544
1.89621
1.89691
1.89753
1.89816
1.87652
1.88013
1.88285
1.8854
1.88691
1.88711
1.88606
1.88408
1.88162
1.87916
1.87703
1.87544
1.87448
1.87412
1.87426
1.87478
1.87555
1.87648
1.87747
1.87845
1.87938
1.88022
1.88098
1.88169
1.88239
1.88308
1.88376
1.88444
1.88513
1.88593
1.86763
1.8713
1.87399
1.87646
1.87785
1.87792
1.87676
1.87471
1.87225
1.86979
1.86768
1.86608
1.86507
1.8646
1.86458
1.86489
1.86541
1.86606
1.86676
1.86744
1.86807
1.86861
1.8691
1.86957
1.87006
1.8706
1.8712
1.87188
1.87269
1.87378
1.85861
1.86235
1.86501
1.8674
1.86866
1.8686
1.86734
1.86524
1.86278
1.86036
1.85828
1.85668
1.85562
1.85506
1.85488
1.85499
1.85526
1.85563
1.85603
1.85641
1.85673
1.85697
1.85716
1.85735
1.85759
1.85792
1.85839
1.85907
1.86004
1.86153
1.84945
1.85329
1.85591
1.85823
1.85936
1.85916
1.85781
1.85569
1.85325
1.85088
1.84884
1.84725
1.84615
1.84549
1.84517
1.84506
1.8451
1.84519
1.8453
1.84537
1.84537
1.84528
1.84515
1.84501
1.84493
1.84495
1.84516
1.84571
1.84687
1.84904
1.84017
1.84412
1.84672
1.84895
1.84995
1.84963
1.84819
1.84606
1.84366
1.84136
1.83937
1.83781
1.83667
1.83592
1.83544
1.83514
1.83493
1.83476
1.83458
1.83434
1.83401
1.83358
1.83309
1.83258
1.83207
1.83162
1.83129
1.83119
1.83163
1.83423
2.22868
2.24565
2.25861
2.27074
2.28081
2.28936
2.29654
2.30251
2.30742
2.3115
2.31494
2.31789
2.32048
2.32285
2.32506
2.32727
2.32946
2.33188
2.33428
2.33709
2.33965
2.34295
2.34567
2.34962
2.35247
2.35731
2.36027
2.3669
2.36964
2.38058
2.21591
2.23369
2.24712
2.25977
2.27026
2.27912
2.2865
2.29264
2.29776
2.30201
2.30556
2.30859
2.31128
2.31377
2.31606
2.31834
2.32058
2.32305
2.32548
2.32836
2.33098
2.33432
2.33705
2.34102
2.3439
2.34878
2.35177
2.35845
2.36122
2.37226
2.2029
2.22156
2.23552
2.24869
2.25961
2.26878
2.27639
2.28272
2.28804
2.29247
2.29613
2.29925
2.30204
2.30465
2.30702
2.30937
2.31168
2.31421
2.31669
2.31963
2.32232
2.3257
2.32848
2.33248
2.33541
2.34033
2.34338
2.35012
2.35293
2.36405
2.18967
2.20926
2.22382
2.23754
2.24884
2.25834
2.26622
2.27277
2.27828
2.28286
2.28665
2.28989
2.29278
2.29547
2.29795
2.30037
2.30277
2.30537
2.30792
2.31091
2.31366
2.3171
2.31994
2.324
2.32701
2.33199
2.3351
2.3419
2.34477
2.35596
2.17625
2.19681
2.21202
2.2263
2.238
2.24783
2.25599
2.26278
2.26847
2.27319
2.27712
2.2805
2.28349
2.28626
2.28884
2.29136
2.29384
2.29652
2.29914
2.30219
2.30501
2.30853
2.31145
2.31559
2.31868
2.32373
2.32692
2.3338
2.33673
2.34799
2.16267
2.18424
2.20011
2.21499
2.22709
2.23727
2.24571
2.25273
2.25861
2.26349
2.26756
2.27107
2.27417
2.27702
2.2797
2.28232
2.28489
2.28766
2.29036
2.29349
2.29637
2.29998
2.303
2.30723
2.31041
2.31557
2.31884
2.3258
2.32881
2.34014
2.14894
2.17156
2.18812
2.20362
2.21614
2.22666
2.23539
2.24265
2.24872
2.25375
2.25797
2.26161
2.26482
2.26776
2.27054
2.27326
2.27592
2.27878
2.28158
2.28479
2.28776
2.29147
2.29459
2.29892
2.30222
2.30749
2.31086
2.31792
2.321
2.33242
2.1351
2.15878
2.17606
2.1922
2.20515
2.21602
2.22504
2.23253
2.23879
2.24399
2.24835
2.25211
2.25544
2.25848
2.26136
2.26419
2.26695
2.26991
2.2728
2.2761
2.27917
2.28298
2.28622
2.29068
2.2941
2.2995
2.30298
2.31014
2.31332
2.32482
2.12114
2.14592
2.16395
2.18074
2.19414
2.20536
2.21465
2.22238
2.22884
2.2342
2.23871
2.2426
2.24605
2.24919
2.25218
2.25511
2.25797
2.26102
2.26402
2.26742
2.27059
2.27453
2.27789
2.28249
2.28604
2.29159
2.2952
2.30249
2.30575
2.31736
2.10709
2.133
2.15181
2.16927
2.18311
2.19468
2.20425
2.21222
2.21887
2.2244
2.22906
2.23307
2.23664
2.23989
2.24298
2.24603
2.24899
2.25214
2.25524
2.25876
2.26204
2.26611
2.26961
2.27435
2.27806
2.28376
2.28752
2.29494
2.2983
2.31001
2.09297
2.12003
2.13966
2.15779
2.17207
2.18399
2.19385
2.20205
2.2089
2.2146
2.2194
2.22354
2.22723
2.23059
2.23378
2.23694
2.24001
2.24326
2.24647
2.2501
2.25351
2.25771
2.26137
2.26627
2.27014
2.27601
2.27993
2.28751
2.29098
2.3028
2.07881
2.10703
2.12752
2.14631
2.16104
2.17332
2.18345
2.19189
2.19892
2.2048
2.20974
2.21401
2.21781
2.22128
2.22458
2.22785
2.23102
2.23439
2.2377
2.24146
2.24501
2.24935
2.25317
2.25825
2.26229
2.26835
2.27245
2.2802
2.28378
2.29572
2.06462
2.09403
2.1154
2.13486
2.15004
2.16265
2.17306
2.18173
2.18896
2.19501
2.20009
2.20448
2.2084
2.21199
2.21539
2.21877
2.22204
2.22551
2.22895
2.23283
2.23652
2.24102
2.245
2.25027
2.25451
2.26078
2.26506
2.273
2.27671
2.28877
2.05043
2.08104
2.10332
2.12344
2.13906
2.15202
2.1627
2.1716
2.17902
2.18523
2.19046
2.19497
2.199
2.2027
2.20621
2.20969
2.21307
2.21665
2.22021
2.22422
2.22806
2.23272
2.23688
2.24235
2.24679
2.25328
2.25778
2.26593
2.26977
2.28196
2.03626
2.06808
2.09131
2.11206
2.12813
2.14141
2.15238
2.1615
2.16911
2.17548
2.18084
2.18547
2.18961
2.19343
2.19704
2.20062
2.20411
2.20779
2.21148
2.21563
2.21962
2.22445
2.2288
2.23447
2.23913
2.24587
2.25059
2.25897
2.26298
2.2753
2.02213
2.05518
2.07937
2.10075
2.11726
2.13086
2.14209
2.15144
2.15923
2.16575
2.17125
2.176
2.18025
2.18418
2.18789
2.19157
2.19516
2.19896
2.20277
2.20706
2.21121
2.21621
2.22074
2.22665
2.23153
2.23853
2.2435
2.25214
2.25632
2.26879
2.00807
2.04237
2.06754
2.08951
2.10645
2.12037
2.13187
2.14143
2.1494
2.15606
2.1617
2.16655
2.17092
2.17496
2.17876
2.18253
2.18623
2.19013
2.19408
2.19851
2.20281
2.20799
2.21272
2.21886
2.22399
2.23127
2.23651
2.24543
2.24982
2.26244
1.99412
2.02968
2.05581
2.07836
2.09571
2.10996
2.12171
2.13149
2.13962
2.14642
2.15218
2.15715
2.16162
2.16576
2.16965
2.1735
2.17731
2.18133
2.18539
2.18998
2.19443
2.1998
2.20473
2.21111
2.21649
2.22407
2.22961
2.23885
2.24347
2.25625
1.98031
2.01713
2.04423
2.06731
2.08507
2.09964
2.11164
2.12162
2.1299
2.13684
2.14271
2.14778
2.15236
2.15659
2.16056
2.1645
2.16841
2.17254
2.17673
2.18146
2.18607
2.19163
2.19675
2.20338
2.20903
2.21693
2.22281
2.23239
2.23729
2.25026
1.96667
2.00477
2.03281
2.05639
2.07455
2.08941
2.10167
2.11183
2.12027
2.12733
2.1333
2.13848
2.14314
2.14745
2.1515
2.15553
2.15952
2.16377
2.16807
2.17296
2.17771
2.18347
2.18879
2.19568
2.20161
2.20985
2.21609
2.22606
2.23129
2.24447
1.95325
1.99263
2.02157
2.04559
2.06415
2.07931
2.09181
2.10214
2.11071
2.11789
2.12395
2.12922
2.13396
2.13835
2.14247
2.14658
2.15066
2.15502
2.15943
2.16446
2.16937
2.17531
2.18084
2.18799
2.19422
2.20282
2.20946
2.21986
2.22547
2.2389
1.94012
1.98073
2.01053
2.03495
2.0539
2.06934
2.08206
2.09256
2.10126
2.10853
2.11468
2.12003
2.12483
2.12928
2.13348
2.13766
2.14182
2.14629
2.15081
2.15597
2.16103
2.16716
2.1729
2.18031
2.18685
2.19583
2.20291
2.2138
2.21985
2.23357
1.92733
1.96912
1.99971
2.02448
2.0438
2.05952
2.07245
2.0831
2.0919
2.09926
2.10548
2.1109
2.11576
2.12027
2.12452
2.12877
2.133
2.13757
2.14219
2.14749
2.1527
2.15901
2.16496
2.17264
2.17951
2.18888
2.19644
2.20786
2.21445
2.22852
1.91496
1.95784
1.98912
2.01421
2.03389
2.04987
2.06299
2.07377
2.08266
2.0901
2.09637
2.10185
2.10675
2.1113
2.11561
2.11991
2.12422
2.12888
2.1336
2.13902
2.14437
2.15085
2.15703
2.16497
2.17217
2.18196
2.19003
2.20206
2.20927
2.22377
1.9031
1.94692
1.97878
2.00417
2.02418
2.04041
2.0537
2.06459
2.07355
2.08104
2.08736
2.09288
2.09781
2.10239
2.10674
2.11109
2.11546
2.1202
2.12501
2.13054
2.13604
2.14269
2.14908
2.15729
2.16484
2.17505
2.18367
2.19636
2.20433
2.21936
1.89184
1.93639
1.96873
1.99438
2.01471
2.03116
2.0446
2.05558
2.06459
2.07212
2.07846
2.084
2.08895
2.09355
2.09793
2.10231
2.10673
2.11155
2.11644
2.12207
2.1277
2.13452
2.14112
2.1496
2.15749
2.16815
2.17735
2.19077
2.19963
2.21535
1.88132
1.9263
1.95901
1.9849
2.00552
2.02217
2.03572
2.04676
2.0558
2.06334
2.06969
2.07523
2.08018
2.08478
2.08917
2.09358
2.09805
2.10291
2.10788
2.1136
2.11936
2.12633
2.13315
2.14188
2.15013
2.16123
2.17104
2.18527
2.19518
2.2118
1.87155
1.91654
1.94948
1.97558
1.99647
2.0133
2.02694
2.03803
2.04708
2.05461
2.06095
2.06647
2.07141
2.076
2.0804
2.08482
2.08933
2.09424
2.09928
2.10508
2.11097
2.11809
2.12512
2.13411
2.14271
2.15425
2.16472
2.1798
2.19098
2.20879
1.86205
1.90664
1.93967
1.96601
1.9872
2.00422
2.01798
2.02912
2.03819
2.04572
2.05206
2.05757
2.0625
2.06708
2.07149
2.07594
2.08049
2.08545
2.09057
2.09645
2.10247
2.10975
2.11699
2.12624
2.13519
2.14717
2.15833
2.1743
2.18698
2.20641
1.8531
1.89688
1.92991
1.95646
1.97787
1.99506
2.00891
2.02011
2.02922
2.03677
2.04312
2.04863
2.05357
2.05816
2.06258
2.06707
2.07165
2.07665
2.08184
2.08781
2.09395
2.10137
2.10882
2.11829
2.12758
2.13997
2.15182
2.16866
2.18306
2.20467
1.82839
1.87274
1.90581
1.93242
1.95381
1.97095
1.9847
1.99581
2.00484
2.01227
2.01852
2.0239
2.02873
2.03323
2.03758
2.04204
2.04663
2.05166
2.05696
2.06305
2.06945
2.07715
2.08508
2.09505
2.10519
2.11852
2.13218
2.15126
2.17084
2.19992
1.77691
1.82051
1.85338
1.87978
1.90127
1.91864
1.93267
1.94408
1.95345
1.96124
1.96785
1.97364
1.97889
1.98384
1.98869
1.99365
1.99878
2.00435
2.01026
2.01698
2.02405
2.0325
2.04124
2.05213
2.06338
2.07805
2.09353
2.11491
2.13786
2.17033
1.7268
1.76841
1.80045
1.82642
1.84783
1.86529
1.87951
1.89119
1.90091
1.90906
1.91608
1.92231
1.92802
1.93347
1.93887
1.94437
1.9501
1.95628
1.96283
1.97022
1.97798
1.98717
1.99669
2.00844
2.02059
2.03628
2.05285
2.07538
2.0995
2.13288
1.67665
1.71619
1.74704
1.77237
1.79357
1.81101
1.82537
1.8373
1.84731
1.85581
1.86323
1.8699
1.87608
1.88206
1.88797
1.89405
1.90036
1.90715
1.91432
1.92236
1.9308
1.94068
1.9509
1.96335
1.97623
1.99261
2.00981
2.03286
2.05732
2.09091
1.62597
1.66355
1.69316
1.71781
1.73867
1.75599
1.7704
1.78251
1.79277
1.80163
1.80947
1.8166
1.82329
1.8298
1.83627
1.84292
1.84982
1.85722
1.865
1.87365
1.88272
1.8932
1.90402
1.91703
1.93043
1.94722
1.96473
1.98792
2.01232
2.04579
1.57434
1.61018
1.63857
1.66242
1.68287
1.70003
1.71443
1.72668
1.73721
1.74644
1.7547
1.7623
1.76951
1.77656
1.7836
1.79083
1.79832
1.80631
1.81469
1.82393
1.83356
1.84457
1.85589
1.86935
1.88311
1.90013
1.91773
1.94085
1.96495
1.99816
1.52146
1.55577
1.58301
1.60608
1.62611
1.64309
1.65746
1.66984
1.68063
1.6902
1.69887
1.70695
1.71467
1.72225
1.72986
1.73767
1.74574
1.7543
1.76325
1.77303
1.78318
1.79467
1.80642
1.82021
1.83423
1.85137
1.86895
1.89186
1.91554
1.94838
1.46717
1.50015
1.52634
1.54869
1.56832
1.5851
1.59942
1.6119
1.62293
1.63283
1.64191
1.65045
1.65868
1.6668
1.67496
1.68334
1.69197
1.70109
1.71057
1.72087
1.7315
1.74341
1.75552
1.7696
1.78381
1.80101
1.81848
1.84112
1.86428
1.89669
1.41138
1.44319
1.46845
1.49012
1.50936
1.52595
1.54022
1.5528
1.56405
1.57427
1.58375
1.59275
1.60147
1.61012
1.61883
1.62775
1.63692
1.64658
1.65658
1.66735
1.67843
1.69072
1.70316
1.71748
1.73184
1.74906
1.76639
1.78872
1.8113
1.84323
1.35406
1.38483
1.40925
1.4303
1.44918
1.46559
1.4798
1.49247
1.50393
1.51445
1.52432
1.53376
1.54297
1.55213
1.56136
1.57081
1.58051
1.59068
1.60117
1.6124
1.62389
1.63655
1.64929
1.66383
1.67832
1.69554
1.71272
1.73472
1.75669
1.7881
1.29516
1.32499
1.34866
1.36914
1.38768
1.40394
1.4181
1.43084
1.4425
1.45331
1.46355
1.47341
1.48309
1.49274
1.50248
1.51244
1.52266
1.53331
1.54428
1.55594
1.56783
1.58083
1.59386
1.60861
1.62322
1.64044
1.65747
1.67914
1.70049
1.73136
1.23467
1.26364
1.28665
1.30659
1.32482
1.34094
1.35506
1.36786
1.3797
1.39079
1.40137
1.41164
1.42176
1.43189
1.44211
1.45257
1.46328
1.47441
1.48582
1.49791
1.51018
1.52352
1.53682
1.55178
1.5665
1.58373
1.60062
1.62198
1.64272
1.67302
1.17262
1.20077
1.22316
1.24261
1.26055
1.27654
1.29062
1.30347
1.31547
1.32682
1.33773
1.34838
1.35893
1.3695
1.3802
1.39113
1.4023
1.41389
1.42573
1.43823
1.45087
1.46453
1.47811
1.49327
1.50811
1.52536
1.54213
1.5632
1.58334
1.61308
1.10899
1.13636
1.15818
1.17716
1.19481
1.21069
1.22474
1.23762
1.24977
1.26135
1.27256
1.28357
1.29452
1.30553
1.31666
1.32804
1.33966
1.35168
1.36394
1.37682
1.38982
1.40379
1.41764
1.433
1.44798
1.46525
1.48193
1.50273
1.52231
1.55148
1.04381
1.0704
1.09167
1.11021
1.12758
1.14335
1.15735
1.17027
1.18254
1.19433
1.20582
1.21716
1.22848
1.23988
1.25144
1.26324
1.27527
1.2877
1.30035
1.3136
1.32694
1.34121
1.35532
1.37088
1.38599
1.40331
1.41992
1.44048
1.45954
1.48815
0.977107
1.00291
1.02364
1.04173
1.05882
1.07448
1.08844
1.10137
1.11374
1.12571
1.13744
1.14908
1.16074
1.17251
1.18445
1.19664
1.20906
1.22187
1.23488
1.24848
1.26213
1.27668
1.29104
1.30678
1.32204
1.3394
1.35598
1.37633
1.39493
1.42298
0.908901
0.933888
0.954063
0.971711
0.988511
1.00406
1.01797
1.03089
1.04333
1.05545
1.06739
1.07929
1.09125
1.10335
1.11563
1.12817
1.14094
1.15409
1.16743
1.18133
1.19528
1.21009
1.22466
1.24059
1.25597
1.27338
1.28994
1.31008
1.32829
1.35577
0.839222
0.863347
0.882954
0.900153
0.916644
0.93206
0.945916
0.958807
0.971276
0.983504
0.995612
1.00773
1.01994
1.03232
1.0449
1.05774
1.07082
1.08426
1.09789
1.11207
1.12626
1.14128
1.15606
1.17212
1.18763
1.20507
1.22163
1.24159
1.25947
1.28639
0.768103
0.791309
0.810318
0.827052
0.843206
0.858466
0.872247
0.885085
0.897556
0.909854
0.922081
0.934361
0.946772
0.959374
0.97219
0.985283
0.998603
1.01229
1.02616
1.04054
1.05493
1.07012
1.08504
1.1012
1.11678
1.1342
1.15071
1.17045
1.18805
1.21439
0.695569
0.717791
0.73617
0.752415
0.7682
0.783274
0.796961
0.809719
0.822153
0.83447
0.846756
0.859132
0.871675
0.884439
0.897431
0.910706
0.924207
0.938074
0.952098
0.966627
0.981139
0.996426
1.01143
1.02762
1.04325
1.06064
1.07715
1.09671
1.11406
1.13977
0.621647
0.64281
0.66053
0.676266
0.691643
0.706491
0.720053
0.732697
0.745046
0.757322
0.769604
0.782009
0.794611
0.80746
0.820548
0.833926
0.84753
0.861489
0.875586
0.890165
0.904705
0.919979
0.934951
0.951042
0.966563
0.983721
1.00002
1.01921
1.0364
1.06153
0.546398
0.566414
0.583446
0.598643
0.613564
0.628131
0.641525
0.654014
0.666226
0.678399
0.690608
0.702962
0.715538
0.728379
0.741472
0.754862
0.76847
0.782416
0.796477
0.810994
0.825454
0.84061
0.855475
0.871416
0.886851
0.903862
0.9201
0.938995
0.955727
0.979891
0.469938
0.488719
0.505018
0.519619
0.534019
0.548231
0.561397
0.573684
0.585703
0.597703
0.609754
0.621965
0.634416
0.64715
0.660142
0.67343
0.686921
0.700728
0.714616
0.728916
0.743109
0.757924
0.772394
0.787829
0.802736
0.819094
0.834778
0.853055
0.869934
0.893498
0.392688
0.410058
0.425486
0.439364
0.453133
0.466881
0.47974
0.491763
0.503513
0.515248
0.527043
0.539011
0.551227
0.563729
0.576491
0.589543
0.602782
0.616309
0.629887
0.643836
0.657667
0.672079
0.686177
0.701185
0.715716
0.731526
0.746616
0.763878
0.779455
0.801704
0.315784
0.331284
0.34542
0.358308
0.371255
0.384354
0.396762
0.408405
0.41977
0.431117
0.442531
0.454125
0.46597
0.478104
0.490493
0.503158
0.515965
0.529004
0.542009
0.555282
0.568315
0.581787
0.59487
0.608756
0.622311
0.637212
0.65185
0.668564
0.684055
0.703912
0.24158
0.25427
0.266214
0.277556
0.289301
0.301379
0.313016
0.324037
0.334797
0.345531
0.356354
0.367383
0.378682
0.390281
0.402129
0.414234
0.426465
0.4389
0.451277
0.463861
0.476157
0.488755
0.500807
0.513338
0.525195
0.537933
0.55018
0.564424
0.578616
0.597811
0.173359
0.182036
0.190629
0.19955
0.209381
0.219759
0.229988
0.239848
0.249501
0.259159
0.269016
0.279193
0.289694
0.300512
0.31156
0.322799
0.334044
0.345363
0.356479
0.367671
0.378529
0.389664
0.40049
0.411901
0.423086
0.435082
0.446527
0.458616
0.468076
0.480197
0.113313
0.117897
0.122483
0.128164
0.135178
0.142907
0.150725
0.158397
0.165961
0.173632
0.181688
0.190278
0.199413
0.209048
0.219055
0.22933
0.239599
0.249803
0.259565
0.269053
0.277764
0.286292
0.29407
0.302126
0.309949
0.318752
0.327943
0.338382
0.348335
0.358173
0.0632589
0.0641355
0.0650204
0.0672064
0.0709261
0.0753469
0.0799516
0.0845186
0.0890272
0.0936823
0.0987525
0.104402
0.110687
0.117628
0.125146
0.133178
0.141492
0.150024
0.158404
0.166599
0.174052
0.180901
0.186471
0.191294
0.194812
0.198248
0.201626
0.206674
0.212036
0.217279
0.0203522
0.0194233
0.0176947
0.0168204
0.0176285
0.0188115
0.0200789
0.0213187
0.0225321
0.0238333
0.0253557
0.0271959
0.0294125
0.0320512
0.0351
0.0385733
0.0423443
0.046497
0.0507518
0.0552257
0.0594644
0.0636315
0.067141
0.0701973
0.0722704
0.0738371
0.0747135
0.0757693
0.0758663
0.074381
1.79002
1.73897
1.69038
1.64126
1.59173
1.54096
1.48884
1.43528
1.38014
1.32347
1.26524
1.20543
1.14407
1.08118
1.0168
0.950956
0.883679
0.815016
0.745007
0.673713
0.601187
0.527557
0.453086
0.378321
0.304448
0.233662
0.168584
0.111384
0.0627157
0.0211551
1.77686
1.72626
1.67828
1.62959
1.5805
1.5301
1.47831
1.42505
1.3702
1.31381
1.25586
1.19633
1.13525
1.07265
1.00856
0.943033
0.87608
0.80776
0.738114
0.667212
0.595106
0.521927
0.447962
0.373769
0.300565
0.230587
0.166403
0.110195
0.0622425
0.0212493
1.76368
1.714
1.6666
1.61831
1.56966
1.51965
1.46819
1.41524
1.36069
1.3046
1.24692
1.18768
1.12689
1.06459
1.0008
0.935579
0.868949
0.800969
0.731678
0.661157
0.589457
0.516711
0.443222
0.369563
0.296969
0.227689
0.16424
0.108869
0.0616328
0.0212227
1.75051
1.70194
1.65515
1.60728
1.55903
1.50939
1.45825
1.40561
1.35136
1.29554
1.23814
1.17918
1.11867
1.05667
0.993166
0.928257
0.861946
0.794303
0.725362
0.655214
0.583915
0.511593
0.43856
0.365405
0.293397
0.224807
0.162122
0.107603
0.0610619
0.0211737
1.7375
1.69015
1.64401
1.59654
1.54867
1.49938
1.44856
1.39621
1.34223
1.28669
1.22955
1.17086
1.11062
1.0489
0.985691
0.921082
0.855084
0.787769
0.719173
0.649388
0.578481
0.506574
0.433984
0.361318
0.28988
0.221964
0.160052
0.106389
0.0605376
0.0211187
1.7247
1.67862
1.63314
1.58608
1.53857
1.48962
1.43909
1.38703
1.33332
1.27803
1.22115
1.16272
1.10274
1.04129
0.978365
0.914046
0.848353
0.781358
0.713103
0.643672
0.573149
0.501647
0.429491
0.357304
0.28642
0.219173
0.158041
0.105219
0.0600447
0.0210493
1.71213
1.66732
1.62254
1.5759
1.52873
1.4801
1.42986
1.37807
1.32461
1.26957
1.21294
1.15476
1.09502
1.03384
0.971191
0.907152
0.841755
0.775073
0.707153
0.638068
0.567919
0.496816
0.425091
0.353381
0.28304
0.216452
0.156097
0.104097
0.0595825
0.0209653
1.69982
1.65626
1.61218
1.56599
1.51914
1.47083
1.42086
1.36933
1.31612
1.26132
1.20492
1.14698
1.08749
1.02656
0.96417
0.900401
0.835294
0.768916
0.701322
0.632575
0.562791
0.492082
0.420785
0.34955
0.279743
0.213806
0.154221
0.103025
0.059151
0.0208688
1.6878
1.64544
1.60207
1.55635
1.50981
1.46179
1.4121
1.36081
1.30784
1.25327
1.19709
1.13938
1.08013
1.01944
0.957305
0.893796
0.828973
0.762891
0.69561
0.627191
0.557762
0.487438
0.416563
0.345799
0.276522
0.211232
0.152407
0.101999
0.0587478
0.0207615
1.67608
1.63487
1.59219
1.54697
1.50073
1.45299
1.40356
1.35251
1.29978
1.24543
1.18947
1.13198
1.07296
1.01249
0.950601
0.887345
0.822797
0.757
0.690019
0.621916
0.55283
0.48288
0.412416
0.342116
0.273369
0.20873
0.150651
0.101019
0.0583706
0.0206454
1.66468
1.62458
1.58256
1.53783
1.4919
1.44443
1.39525
1.34443
1.29192
1.23778
1.18203
1.12476
1.06596
1.00572
0.944063
0.881054
0.81677
0.751247
0.684551
0.616755
0.547999
0.478409
0.408345
0.338502
0.270285
0.206295
0.148961
0.100086
0.0580187
0.0205223
1.6536
1.61455
1.57318
1.52894
1.48332
1.43611
1.38717
1.33657
1.28427
1.23034
1.1748
1.11774
1.05915
0.999126
0.937696
0.874928
0.810894
0.745634
0.679216
0.611716
0.543277
0.474037
0.404361
0.334968
0.267283
0.203937
0.147338
0.0991995
0.0576929
0.0203946
1.64287
1.6048
1.56404
1.52029
1.47499
1.42803
1.37932
1.32893
1.27683
1.2231
1.16776
1.1109
1.05253
0.99271
0.931503
0.868969
0.805173
0.740167
0.674019
0.606808
0.538677
0.469776
0.400482
0.331532
0.264374
0.201662
0.145787
0.0983632
0.0573944
0.020264
1.6325
1.59534
1.55516
1.5119
1.46691
1.42019
1.3717
1.32151
1.26961
1.21607
1.16092
1.10426
1.04608
0.986477
0.925486
0.863176
0.799609
0.734849
0.668965
0.602037
0.534205
0.465635
0.396716
0.328204
0.261564
0.199477
0.144312
0.0975779
0.0571237
0.0201321
1.62249
1.58617
1.54656
1.50376
1.45907
1.41259
1.36431
1.31432
1.2626
1.20926
1.15429
1.0978
1.03983
0.980426
0.919643
0.85755
0.794203
0.729681
0.664054
0.5974
0.529858
0.461612
0.39306
0.324984
0.258858
0.19738
0.142911
0.096843
0.0568823
0.02
1.61286
1.57731
1.53822
1.49587
1.45149
1.40524
1.35717
1.30736
1.25582
1.20265
1.14785
1.09155
1.03376
0.974559
0.913973
0.852088
0.788955
0.72466
0.659281
0.592889
0.525629
0.457699
0.389507
0.321863
0.256251
0.195364
0.141582
0.0961573
0.0566643
0.0198684
1.60362
1.56877
1.53017
1.48824
1.44417
1.39814
1.35027
1.30064
1.24927
1.19627
1.14163
1.0855
1.02789
0.968878
0.908479
0.846792
0.783866
0.719785
0.65464
0.588497
0.521508
0.453886
0.386046
0.318833
0.253733
0.193433
0.140325
0.0955195
0.0564685
0.0197382
1.59477
1.56055
1.5224
1.48087
1.4371
1.3913
1.34361
1.29415
1.24294
1.1901
1.13563
1.07966
1.02223
0.963383
0.903163
0.841664
0.778936
0.715057
0.650132
0.584223
0.517495
0.45017
0.382674
0.315891
0.251299
0.191587
0.13914
0.0949291
0.0562937
0.0196104
1.58631
1.55265
1.51492
1.47377
1.43029
1.3847
1.3372
1.28791
1.23685
1.18417
1.12985
1.07404
1.01676
0.958081
0.898033
0.836711
0.774172
0.710483
0.645761
0.580074
0.513593
0.446554
0.379394
0.31304
0.248951
0.189829
0.138028
0.0943861
0.0561388
0.0194859
1.57827
1.54509
1.50775
1.46695
1.42374
1.37836
1.33104
1.28191
1.23101
1.17846
1.1243
1.06863
1.0115
0.952978
0.893094
0.831941
0.76958
0.706069
0.641539
0.576061
0.509812
0.443048
0.376216
0.310295
0.246691
0.188163
0.13699
0.0938903
0.0560034
0.0193653
1.57063
1.53787
1.50088
1.4604
1.41745
1.37228
1.32513
1.27615
1.2254
1.17299
1.11897
1.06344
1.00645
0.94808
0.888354
0.827359
0.765164
0.701824
0.637473
0.572194
0.506163
0.439658
0.373147
0.307669
0.244516
0.186589
0.136026
0.0934402
0.0558865
0.0192493
1.56342
1.53101
1.49434
1.45415
1.41145
1.36646
1.31948
1.27065
1.22004
1.16776
1.11388
1.05847
1.00163
0.94339
0.883814
0.822968
0.760929
0.69775
0.633568
0.568477
0.502647
0.436388
0.370187
0.305099
0.242489
0.185109
0.135133
0.0930336
0.0557863
0.0191383
1.55662
1.52451
1.48812
1.44819
1.40572
1.36091
1.31409
1.2654
1.21492
1.16276
1.10901
1.05373
0.997015
0.938912
0.879474
0.818766
0.756871
0.693846
0.629821
0.564904
0.499262
0.433235
0.367337
0.302629
0.240555
0.183715
0.134307
0.0926679
0.0557013
0.019033
1.55024
1.51837
1.48223
1.44254
1.40028
1.35563
1.30897
1.2604
1.21005
1.15801
1.10438
1.04922
0.992623
0.934643
0.875332
0.814749
0.752987
0.690105
0.626224
0.561468
0.496
0.430192
0.364588
0.300254
0.238706
0.182404
0.133545
0.0923404
0.05563
0.0189339
1.54428
1.5126
1.47667
1.43719
1.39512
1.35063
1.30412
1.25566
1.20544
1.15349
1.09998
1.04493
0.988451
0.930582
0.871384
0.810915
0.749272
0.686518
0.622768
0.558156
0.49285
0.427252
0.361933
0.297971
0.236938
0.18117
0.132844
0.0920492
0.0555715
0.0188415
1.53874
1.5072
1.47147
1.43215
1.39027
1.34592
1.29954
1.25118
1.20108
1.14923
1.09582
1.04087
0.984499
0.926729
0.867629
0.807261
0.745724
0.683082
0.619444
0.554963
0.489808
0.424411
0.359366
0.295775
0.235246
0.180011
0.1322
0.0917925
0.0555247
0.0187562
1.53363
1.50218
1.46661
1.42744
1.38572
1.34149
1.29524
1.24698
1.19698
1.14522
1.0919
1.03705
0.980769
0.923086
0.86407
0.80379
0.742341
0.679793
0.616253
0.551886
0.486876
0.421668
0.356889
0.293664
0.233631
0.178924
0.131614
0.0915688
0.0554885
0.0186778
1.52894
1.49755
1.4621
1.42306
1.38148
1.33736
1.29122
1.24305
1.19314
1.14147
1.08824
1.03347
0.977262
0.919654
0.86071
0.800504
0.739128
0.676655
0.613197
0.548933
0.484059
0.419028
0.354507
0.291638
0.232091
0.177909
0.131082
0.0913766
0.0554613
0.0186064
1.52468
1.4933
1.45796
1.419
1.37756
1.33353
1.2875
1.2394
1.18958
1.13798
1.08483
1.03013
0.973982
0.916436
0.857553
0.797407
0.736087
0.673674
0.610286
0.546111
0.481364
0.416499
0.352223
0.289701
0.23063
0.176965
0.130604
0.0912137
0.0554416
0.0185419
1.52085
1.48944
1.45417
1.41529
1.37395
1.33
1.28406
1.23604
1.18629
1.13475
1.08167
1.02702
0.970928
0.913434
0.854599
0.7945
0.733222
0.670856
0.607525
0.543429
0.478798