/*--------------------------------*- C++ -*----------------------------------*\
  =========                 |
  \\      /  F ield         | OpenFOAM: The Open Source CFD Toolbox
   \\    /   O peration     | Website:  https://openfoam.org
    \\  /    A nd           | Version:  7
     \\/     M anipulation  |
\*---------------------------------------------------------------------------*/
FoamFile
{
    version     2.0;
    format      ascii;
    class       volVectorField;
    location    "2.1";
    object      U;
}
// * * * * * * * * * * * * * * * * * * * * * * * * * * * * * * * * * * * * * //

dimensions      [0 1 -1 0 0 0 0];

internalField   nonuniform List<vector> 
18000
(
(-0.00184981 0.066331 2.39445e-20)
(-0.00698985 0.15571 0)
(-0.0147299 0.215622 0)
(-0.0227769 0.250643 0)
(-0.0300959 0.266386 -7.91048e-21)
(-0.0356563 0.26782 3.99831e-20)
(-0.0387803 0.258848 -8.09825e-21)
(-0.0390915 0.242405 8.15394e-21)
(-0.0364487 0.220699 0)
(-0.0308938 0.195458 -2.46386e-20)
(-0.0226074 0.168098 -8.25668e-21)
(-0.0118721 0.139822 0)
(0.000958426 0.111666 1.64505e-20)
(0.0154845 0.0845087 1.65264e-20)
(0.0312893 0.0590672 -3.2956e-20)
(0.0479622 0.0358926 -3.28771e-20)
(0.0651119 0.0153686 0)
(0.082381 -0.00228384 -4.90363e-20)
(0.0994595 -0.0169904 1.62683e-20)
(0.116088 -0.0287989 -4.85531e-20)
(0.132063 -0.037856 1.60892e-20)
(0.147235 -0.0443804 0)
(0.161503 -0.0486371 -1.57888e-20)
(0.174809 -0.0509145 -1.57585e-20)
(0.187131 -0.0515064 0)
(0.198475 -0.0506953 0)
(0.208866 -0.0487427 -3.0694e-20)
(0.218355 -0.0458752 -3.04207e-20)
(0.227045 -0.0422043 -3.02546e-20)
(0.234818 -0.0375231 3.20854e-20)
(-0.00329986 0.0672143 3.39524e-20)
(-0.00960234 0.157789 5.92088e-20)
(-0.0171165 0.218473 -6.06233e-20)
(-0.0242674 0.253756 -6.18336e-20)
(-0.0302723 0.269208 -1.5751e-20)
(-0.0343119 0.269844 4.76423e-20)
(-0.0358335 0.259662 -6.43181e-20)
(-0.0345327 0.2417 -6.48187e-20)
(-0.0303081 0.21828 6.5189e-20)
(-0.023233 0.191231 6.55002e-20)
(-0.0135196 0.162057 -3.27505e-20)
(-0.00147034 0.13204 -6.56936e-20)
(0.0125436 0.10228 -3.30259e-20)
(0.0281031 0.0737099 6.56541e-20)
(0.0447785 0.0470867 -6.55033e-20)
(0.0621497 0.0229855 6.56109e-20)
(0.0798188 0.00179918 -1.30631e-19)
(0.09743 -0.0162564 9.76485e-20)
(0.114682 -0.031122 -6.46215e-20)
(0.131328 -0.0428713 3.23215e-20)
(0.147181 -0.051682 -6.39044e-20)
(0.162109 -0.0578075 0)
(0.176034 -0.0615478 3.19567e-20)
(0.188919 -0.0632235 -6.26809e-20)
(0.200761 -0.063158 6.20845e-20)
(0.211585 -0.06166 0)
(0.221435 -0.0590095 -3.03455e-20)
(0.23037 -0.0554514 3.01887e-20)
(0.238505 -0.0511077 1.19993e-19)
(0.245745 -0.0457678 6.35432e-20)
(-0.00478632 0.0676404 -5.44894e-20)
(-0.0122927 0.158984 -5.92073e-20)
(-0.0195579 0.220326 9.08824e-20)
(-0.0257444 0.25589 1.54139e-19)
(-0.030323 0.27114 0)
(-0.0326929 0.2711 -6.36643e-20)
(-0.0324372 0.259839 6.43152e-20)
(-0.0293366 0.240497 1.93863e-19)
(-0.0233469 0.2155 -6.51857e-20)
(-0.0145816 0.186772 -6.54444e-20)
(-0.00328037 0.155908 1.96166e-19)
(0.010224 0.124272 6.569e-20)
(0.0255349 0.0930271 0)
(0.0422153 0.063158 -1.31208e-19)
(0.0598177 0.0354625 1.95731e-19)
(0.077912 0.010539 -6.49268e-20)
(0.0960985 -0.0112123 6.51728e-20)
(0.114025 -0.0295819 6.48289e-20)
(0.1314 -0.0445279 2.76647e-22)
(0.147995 -0.0561509 0)
(0.163645 -0.0646618 1.91512e-19)
(0.178241 -0.0703492 -1.26451e-19)
(0.191731 -0.0735468 6.30468e-20)
(0.204101 -0.0746082 0)
(0.215373 -0.0738849 -6.20821e-20)
(0.225592 -0.0717099 2.45336e-19)
(0.234818 -0.0683834 -1.81932e-19)
(0.243127 -0.0641646 -6.04912e-20)
(0.250642 -0.0591855 5.92371e-20)
(0.257286 -0.0532408 6.31395e-20)
(-0.00627266 0.067715 0)
(-0.0150137 0.159505 2.94247e-20)
(-0.0220492 0.221318 2.66588e-23)
(-0.0272226 0.257114 -1.53845e-19)
(-0.0302737 0.272202 0)
(-0.0308397 0.271579 -1.26236e-19)
(-0.0286504 0.259364 0)
(-0.0235823 0.238779 -1.93441e-19)
(-0.0156568 0.212342 6.47007e-20)
(-0.00503438 0.182078 -1.29615e-19)
(0.00800563 0.14967 -1.30551e-19)
(0.0230965 0.116551 -6.52403e-20)
(0.0398109 0.0839548 6.51117e-20)
(0.0576888 0.0529175 6.46769e-20)
(0.0762674 0.0242748 -6.54408e-20)
(0.0951053 -0.00135246 -1.29119e-19)
(0.113799 -0.0235603 1.29057e-19)
(0.132005 -0.042147 0)
(0.149449 -0.0570898 0)
(0.165923 -0.0685179 0)
(0.181288 -0.0766768 0)
(0.195464 -0.0818895 0)
(0.208428 -0.0845243 0)
(0.220195 -0.0849663 -1.23714e-19)
(0.230811 -0.083594 -1.23222e-19)
(0.240345 -0.0807619 -4.84842e-22)
(0.248877 -0.0767894 -1.20885e-19)
(0.256497 -0.0719467 -4.42959e-22)
(0.263332 -0.0663789 -1.19584e-19)
(0.269326 -0.0598885 2.50678e-19)
(-0.0077527 0.0674083 0)
(-0.0177503 0.159199 2.63068e-19)
(-0.0245607 0.221312 2.76967e-23)
(-0.0286941 0.257307 -9.1777e-20)
(-0.0301521 0.272293 3.10315e-19)
(-0.0288036 0.271201 1.89229e-19)
(-0.0245415 0.258168 1.90283e-19)
(-0.0173537 0.236491 0)
(-0.00733387 0.208777 0)
(0.00530003 0.177138 1.94291e-19)
(0.0202193 0.143338 8.274e-23)
(0.037017 0.108891 -4.53243e-19)
(0.0552326 0.0750947 3.88135e-19)
(0.0743796 0.0430366 -1.29864e-19)
(0.0939747 0.0135882 1.28379e-19)
(0.113565 -0.0126127 1.28943e-19)
(0.13275 -0.0351584 -1.27951e-19)
(0.151196 -0.0538567 1.2817e-19)
(0.16865 -0.0687075 2.5441e-19)
(0.18493 -0.0798707 -1.26537e-19)
(0.199927 -0.0876263 -2.51207e-19)
(0.213598 -0.0923326 2.49579e-19)
(0.22595 -0.0943906 -2.47829e-19)
(0.237031 -0.0942152 1.23709e-19)
(0.246914 -0.0922103 0)
(0.255692 -0.08875 0)
(0.263466 -0.0841689 9.43257e-22)
(0.270341 -0.0787493 -4.75891e-19)
(0.276451 -0.0726468 2.35486e-19)
(0.281754 -0.0656762 -2.49067e-19)
(-0.00919616 0.0667507 0)
(-0.0204572 0.158173 -2.33766e-19)
(-0.0270763 0.220383 2.38352e-19)
(-0.0301639 0.256503 0)
(-0.0299744 0.271413 -4.9526e-19)
(-0.0266246 0.26994 -6.2721e-20)
(-0.0201739 0.25622 -1.27213e-19)
(-0.0107272 0.233603 -6.37744e-20)
(0.00153034 0.204773 0)
(0.016313 0.171923 -1.28719e-19)
(0.0332393 0.136903 1.28842e-19)
(0.0518544 0.101298 2.58654e-19)
(0.0716571 0.0664684 -2.5859e-19)
(0.0921307 0.0335521 0)
(0.112771 0.00345161 -2.57801e-19)
(0.133116 -0.0231798 2.55673e-19)
(0.152767 -0.0459338 2.56258e-19)
(0.171407 -0.0646313 3.81192e-19)
(0.188808 -0.0792979 -3.80504e-19)
(0.20482 -0.0901259 5.03517e-19)
(0.21937 -0.0974295 2.50806e-19)
(0.232452 -0.101601 -2.49568e-19)
(0.244113 -0.103074 4.94177e-19)
(0.254432 -0.102291 0)
(0.263513 -0.0996779 2.4255e-19)
(0.271475 -0.0956263 4.81986e-19)
(0.278439 -0.0904824 -2.37456e-19)
(0.284524 -0.0845387 2.37689e-19)
(0.289873 -0.0779606 -5.31776e-22)
(0.294455 -0.0705803 -2.4763e-19)
(-0.01059 0.0657688 -2.66953e-20)
(-0.0231101 0.156422 0)
(-0.0295669 0.218509 -2.97836e-19)
(-0.0316177 0.254673 6.062e-20)
(-0.0297553 0.269519 1.85432e-19)
(-0.024336 0.267747 6.24132e-20)
(-0.0155975 0.253469 2.51633e-19)
(-0.00377781 0.230066 0)
(0.0108405 0.200286 1.27659e-19)
(0.0278962 0.166405 1.27453e-19)
(0.0469424 0.130346 -1.28324e-19)
(0.067469 0.0937661 3.84229e-19)
(0.0889306 0.0580851 0)
(0.110777 0.024487 0)
(0.13248 -0.00609834 3.82926e-19)
(0.153569 -0.0330059 -6.37198e-19)
(0.173654 -0.0558302 2.53344e-19)
(0.192439 -0.0744097 -2.53752e-19)
(0.209721 -0.0887977 -2.51098e-19)
(0.22539 -0.0992201 -7.51771e-19)
(0.239415 -0.106026 -1.06817e-21)
(0.251832 -0.10964 2.46634e-19)
(0.262728 -0.110526 -4.91238e-19)
(0.27222 -0.109152 2.43034e-19)
(0.280442 -0.105962 -1.45779e-21)
(0.287538 -0.101362 -2.40506e-19)
(0.293651 -0.0957082 2.384e-19)
(0.298915 -0.0892985 0)
(0.303477 -0.0823086 2.32574e-19)
(0.307319 -0.0745906 3.5821e-22)
(-0.0119171 0.0644885 -5.31501e-20)
(-0.0256782 0.153994 5.78352e-20)
(-0.032011 0.215725 -3.54707e-19)
(-0.0330463 0.251821 -1.807e-19)
(-0.0294992 0.266597 2.44991e-19)
(-0.0219646 0.264597 -3.72476e-19)
(-0.0108638 0.249876 -1.26108e-19)
(0.00342509 0.225835 -2.52289e-19)
(0.0205107 0.195278 2.5349e-19)
(0.0399443 0.160549 -5.09675e-19)
(0.0612056 0.123642 -2.546e-19)
(0.0837236 0.0862815 -1.30143e-21)
(0.106902 0.0499433 1.27687e-19)
(0.130152 0.0158518 -3.81381e-19)
(0.152922 -0.0150407 -5.08466e-19)
(0.174736 -0.0420606 3.85309e-22)
(0.195214 -0.06481 -1.04724e-21)
(0.214084 -0.0831497 2.50846e-19)
(0.231179 -0.0971638 2.51086e-19)
(0.246432 -0.107112 4.00246e-22)
(0.259858 -0.113376 -6.41587e-22)
(0.271541 -0.116415 2.44123e-19)
(0.281608 -0.116719 2.4488e-19)
(0.290216 -0.114777 -4.75503e-22)
(0.297533 -0.111049 -7.21748e-19)
(0.303728 -0.10595 4.75658e-19)
(0.308962 -0.0998433 4.72816e-19)
(0.313384 -0.0930302 -4.67692e-19)
(0.317147 -0.0856948 -2.32568e-19)
(0.320241 -0.0777125 -2.42487e-19)
(-0.0131659 0.0629476 -4.75274e-19)
(-0.0281361 0.150934 -5.75858e-20)
(-0.0343818 0.212063 2.95214e-19)
(-0.0344323 0.247963 2.41054e-19)
(-0.0292055 0.262642 -2.44984e-19)
(-0.0195288 0.260461 2.48119e-19)
(-0.00601004 0.245403 -1.24996e-19)
(0.0108242 0.22087 3.78133e-19)
(0.0304637 0.189707 -2.53479e-19)
(0.0523624 0.154317 2.5422e-19)
(0.0759175 0.11676 1.27556e-19)
(0.100489 0.0788226 -1.27699e-19)
(0.125425 0.0420309 -7.60331e-19)
(0.150094 0.00764352 5.07292e-19)
(0.173922 -0.0233681 2.53522e-19)
(0.196429 -0.0503281 0)
(0.21725 -0.0728524 0)
(0.23614 -0.0908283 -2.46577e-21)
(0.252977 -0.104373 -2.47814e-19)
(0.26774 -0.113779 0)
(0.280498 -0.119464 0)
(0.291382 -0.121915 -2.45156e-19)
(0.300568 -0.121647 0)
(0.308249 -0.119166 -4.80196e-19)
(0.314627 -0.114943 0)
(0.319897 -0.1094 -2.37573e-19)
(0.324237 -0.102902 4.69856e-19)
(0.327811 -0.0957514 -4.64764e-19)
(0.330774 -0.0881382 0)
(0.333125 -0.0799646 0)
(-0.0143269 0.0611819 4.22358e-19)
(-0.0304597 0.147299 0)
(-0.0366516 0.207572 -5.87301e-20)
(-0.0357529 0.243128 5.98455e-20)
(-0.0288638 0.257659 -3.64096e-19)
(-0.0170337 0.255327 4.90794e-23)
(-0.00105934 0.240025 -1.24437e-19)
(0.018378 0.215135 0)
(0.0406395 0.183532 0)
(0.0650718 0.147669 -1.26228e-19)
(0.0909815 0.109665 1.26347e-19)
(0.117652 0.0713613 -2.5286e-19)
(0.144367 0.0343275 2.54943e-19)
(0.170453 -0.000148857 0)
(0.195313 -0.0310838 0)
(0.218467 -0.057806 0)
(0.239568 -0.0799522 2.48066e-19)
(0.258408 -0.0974398 -1.411e-21)
(0.274911 -0.11042 2.49219e-19)
(0.289113 -0.119221 -4.90785e-19)
(0.301137 -0.124293 2.44897e-19)
(0.311169 -0.12615 -1.21367e-18)
(0.319428 -0.125326 8.94996e-22)
(0.326151 -0.12234 4.80181e-19)
(0.331571 -0.11767 -1.89543e-21)
(0.335905 -0.111741 4.70305e-19)
(0.339351 -0.104916 -4.65055e-19)
(0.342082 -0.0974954 -4.62529e-19)
(0.344257 -0.0896722 1.14376e-21)
(0.345881 -0.0813782 -4.76533e-19)
(-0.0153931 0.0592296 -5.24461e-20)
(-0.0326271 0.143151 0)
(-0.038791 0.20231 1.16964e-19)
(-0.036979 0.237355 -1.19185e-19)
(-0.0284515 0.251666 1.09089e-18)
(-0.0144691 0.249194 4.48529e-23)
(0.00398343 0.233723 -1.23908e-19)
(0.0260646 0.208601 1.24743e-19)
(0.050999 0.176719 -6.25456e-19)
(0.0780161 0.14057 0)
(0.106322 0.102324 0)
(0.135115 0.0638676 -2.50143e-19)
(0.163612 0.0268095 2.52595e-19)
(0.191094 -0.00754223 -2.50957e-19)
(0.216942 -0.0381994 2.49884e-19)
(0.240681 -0.0645035 0)
(0.261987 -0.0861178 -9.93512e-19)
(0.280697 -0.102994 4.93189e-19)
(0.296789 -0.115319 2.46356e-19)
(0.310359 -0.123457 7.34339e-19)
(0.32159 -0.127888 0)
(0.330722 -0.129149 4.84484e-19)
(0.338023 -0.127791 4.79042e-19)
(0.343769 -0.124339 4.75306e-19)
(0.348223 -0.119275 -2.91765e-21)
(0.351626 -0.11302 -4.66333e-19)
(0.354189 -0.105934 4.65044e-19)
(0.356095 -0.0983095 0)
(0.357506 -0.0903428 1.18622e-21)
(0.35843 -0.0819962 9.49872e-19)
(-0.0163607 0.0571301 -4.16843e-19)
(-0.0346189 0.138556 0)
(-0.0407685 0.196343 -4.64628e-19)
(-0.0380735 0.230696 -5.92866e-19)
(-0.0279337 0.244696 -3.63163e-19)
(-0.0118076 0.242074 1.22243e-19)
(0.00913447 0.226491 -3.20804e-24)
(0.0338865 0.20125 -1.24229e-19)
(0.0615286 0.169241 2.19301e-21)
(0.0911635 0.13299 2.50094e-19)
(0.121888 0.094705 2.49151e-19)
(0.152807 0.0563146 -2.47922e-19)
(0.183066 0.0194539 2.49843e-19)
(0.211899 -0.0145561 -7.47264e-19)
(0.238672 -0.0447322 7.44846e-19)
(0.262914 -0.0704374 4.94616e-19)
(0.284339 -0.0913678 1.23533e-18)
(0.302831 -0.107512 -2.48339e-19)
(0.318431 -0.119097 -4.87915e-19)
(0.331299 -0.126521 -2.8003e-21)
(0.341683 -0.130291 -4.84009e-19)
(0.349877 -0.130962 1.43904e-18)
(0.356199 -0.129095 -9.561e-19)
(0.360962 -0.125221 9.4386e-19)
(0.364457 -0.119817 -4.70411e-19)
(0.366946 -0.113298 9.29721e-19)
(0.36865 -0.106015 1.79054e-21)
(0.369761 -0.0982531 -9.12526e-19)
(0.37044 -0.0902068 9.01905e-19)
(0.370701 -0.0818713 4.69028e-19)
(-0.0172286 0.0549213 4.16842e-19)
(-0.0364179 0.133584 0)
(-0.0425505 0.189744 1.0433e-18)
(-0.0389919 0.223214 3.55858e-19)
(-0.0272618 0.236793 0)
(-0.00900262 0.233992 0)
(0.0144331 0.218339 0)
(0.0418721 0.193077 0)
(0.0722424 0.161085 2.4955e-19)
(0.10451 0.124909 2.49022e-19)
(0.137654 0.0867887 -4.99461e-19)
(0.170679 0.0486821 4.99272e-19)
(0.202656 0.0122423 7.45013e-19)
(0.232772 -0.021208 2.49565e-19)
(0.26038 -0.0507007 2.45151e-19)
(0.285027 -0.0756293 -7.41008e-19)
(0.306467 -0.0957286 -9.82647e-19)
(0.324645 -0.111029 -4.90416e-19)
(0.33967 -0.121797 4.87897e-19)
(0.35177 -0.128463 -9.69358e-19)
(0.361259 -0.131558 4.80089e-19)
(0.368488 -0.131651 -9.56524e-19)
(0.373821 -0.129308 4.72283e-19)
(0.377607 -0.125057 -2.02812e-21)
(0.380163 -0.119369 -4.65632e-19)
(0.381765 -0.112648 -9.25651e-19)
(0.382646 -0.105232 9.16497e-19)
(0.383002 -0.0973955 0)
(0.382993 -0.0893299 -1.22935e-21)
(0.382635 -0.0810646 -9.35181e-19)
(-0.0179979 0.052639 5.17703e-20)
(-0.0380091 0.128302 0)
(-0.0441011 0.182591 -4.62682e-19)
(-0.0396819 0.214982 1.17834e-19)
(-0.0263735 0.228017 -1.19643e-19)
(-0.00598885 0.22499 0)
(0.0199423 0.209291 -1.22342e-19)
(0.0500766 0.184093 1.2318e-19)
(0.0831826 0.152252 2.47259e-19)
(0.118082 0.116323 -7.42526e-19)
(0.153623 0.0785673 -2.48e-19)
(0.188708 0.0409612 -6.10362e-23)
(0.222329 0.00516433 -1.15211e-21)
(0.253631 -0.0275105 -4.93892e-19)
(0.281961 -0.0561217 -2.47641e-19)
(0.306894 -0.080102 0)
(0.328233 -0.0992314 7.96611e-22)
(0.345993 -0.113585 4.87699e-19)
(0.360356 -0.123469 -4.83249e-19)
(0.371626 -0.129344 0)
(0.380179 -0.131759 0)
(0.386426 -0.131293 0)
(0.390772 -0.128511 0)
(0.393599 -0.123933 -2.86587e-21)
(0.395246 -0.118017 0)
(0.396002 -0.111154 0)
(0.396106 -0.103666 4.53283e-19)
(0.395756 -0.0958138 4.489e-19)
(0.39511 -0.0877849 4.46136e-19)
(0.394184 -0.0796435 -1.31386e-21)
(-0.0186715 0.0503162 5.15504e-20)
(-0.0393791 0.122777 -1.1228e-19)
(-0.0453826 0.174964 6.88738e-19)
(-0.040084 0.20608 -1.17209e-19)
(-0.0251938 0.218438 1.19241e-19)
(-0.00268238 0.215124 3.25327e-23)
(0.0257479 0.199391 3.64546e-19)
(0.0585805 0.174328 -4.89515e-19)
(0.0944177 0.142762 7.37618e-19)
(0.131927 0.107245 1.07292e-21)
(0.169821 0.0700498 -2.45682e-19)
(0.20689 0.0331577 4.92215e-19)
(0.24205 -0.00177813 -4.9138e-19)
(0.274412 -0.0334674 4.90181e-19)
(0.303326 -0.0610069 0)
(0.328403 -0.0838777 4.86858e-19)
(0.349512 -0.10191 0)
(0.366743 -0.115228 2.62846e-21)
(0.380359 -0.124174 -4.79756e-19)
(0.390739 -0.129236 -4.76848e-19)
(0.398326 -0.130976 4.73684e-19)
(0.403583 -0.129977 -4.70278e-19)
(0.406956 -0.126796 -4.66648e-19)
(0.408855 -0.121941 -9.28484e-19)
(0.409634 -0.115854 -4.58809e-19)
(0.409593 -0.108906 4.56381e-19)
(0.408974 -0.101404 -9.04808e-19)
(0.407975 -0.0935901 -4.48894e-19)
(0.406748 -0.085649 0)
(0.405311 -0.0776792 -4.61436e-19)
(-0.0192531 0.0479819 0)
(-0.040515 0.117074 4.46014e-19)
(-0.0463547 0.166946 -3.4429e-19)
(-0.0401322 0.196594 -5.82977e-19)
(-0.0236358 0.208137 0)
(0.00101717 0.204468 0)
(0.0319554 0.188698 -7.29025e-19)
(0.0674864 0.163832 9.7709e-19)
(0.106039 0.132656 -7.35473e-19)
(0.146116 0.0977105 0)
(0.186289 0.0612654 2.46881e-19)
(0.225234 0.0252949 -2.46645e-19)
(0.261797 -0.00856877 2.33916e-21)
(0.295061 -0.039072 -2.4701e-19)
(0.324392 -0.0653621 -2.42634e-19)
(0.349455 -0.0869767 -2.49755e-21)
(0.370193 -0.103802 4.82204e-19)
(0.386781 -0.116009 4.82385e-19)
(0.399566 -0.123978 8.5927e-22)
(0.409004 -0.128217 9.51853e-19)
(0.415603 -0.129297 -9.46407e-19)
(0.419874 -0.127797 9.38721e-19)
(0.422299 -0.124261 4.6664e-19)
(0.423309 -0.11918 4.62809e-19)
(0.423272 -0.112975 2.86358e-21)
(0.422492 -0.105998 0)
(0.421211 -0.0985336 4.49129e-19)
(0.419624 -0.0908088 -1.33366e-18)
(0.417877 -0.0830012 4.37769e-19)
(0.415988 -0.0752449 4.57632e-19)
(-0.0197471 0.0456608 -3.05838e-19)
(-0.0414046 0.11125 -1.00151e-18)
(-0.0469753 0.158615 -1.58758e-22)
(-0.0397547 0.186615 1.78921e-21)
(-0.0216031 0.197206 -3.53771e-19)
(0.00522343 0.193106 0)
(0.0386865 0.17729 -2.40721e-19)
(0.0769135 0.152674 -1.45915e-18)
(0.118151 0.121997 7.3353e-19)
(0.160733 0.0877754 -4.88036e-19)
(0.20308 0.052264 7.32698e-19)
(0.243759 0.0174147 -2.44424e-19)
(0.281551 -0.0151763 4.89012e-19)
(0.315527 -0.044307 -1.21656e-18)
(0.345087 -0.0691864 7.2856e-19)
(0.36996 -0.0894168 -8.57496e-22)
(0.390178 -0.104943 -1.4424e-18)
(0.406007 -0.115985 4.7892e-19)
(0.417882 -0.122953 -4.75334e-19)
(0.426335 -0.126373 0)
(0.431935 -0.126817 4.68224e-19)
(0.435235 -0.124853 0)
(0.436747 -0.121009 -4.62762e-19)
(0.436918 -0.115753 4.58221e-19)
(0.436125 -0.109483 4.55934e-19)
(0.43467 -0.102526 4.48881e-19)
(0.432792 -0.0951465 0)
(0.430681 -0.0875543 0)
(0.428476 -0.0799198 -8.774e-19)
(0.426196 -0.0724128 1.3607e-18)
(-0.0201576 0.0433722 3.06179e-19)
(-0.0420348 0.105355 5.54853e-19)
(-0.0472004 0.150048 -4.53131e-19)
(-0.0388758 0.176233 9.26716e-19)
(-0.0189925 0.185742 1.19734e-19)
(0.0100588 0.181137 1.19246e-19)
(0.0460724 0.165263 1.95705e-21)
(0.0869902 0.140946 -4.82198e-19)
(0.130869 0.11087 -2.41883e-19)
(0.175865 0.0775183 2.17207e-21)
(0.220248 0.0431162 -2.21567e-21)
(0.26248 0.0095772 -7.28609e-19)
(0.301293 -0.0215553 -2.41617e-19)
(0.335763 -0.0491451 2.34875e-21)
(0.365339 -0.072474 4.81366e-19)
(0.389835 -0.0912147 4.79403e-19)
(0.409379 -0.105374 2.5007e-21)
(0.424337 -0.115215 -4.74642e-19)
(0.435231 -0.121176 4.73556e-19)
(0.442668 -0.123794 -4.69732e-19)
(0.447268 -0.123633 -9.3374e-19)
(0.449623 -0.121249 -4.63695e-19)
(0.450268 -0.117145 9.17568e-19)
(0.449659 -0.111762 0)
(0.448174 -0.105474 -4.50245e-19)
(0.446112 -0.0985826 -8.949e-19)
(0.443706 -0.0913298 -8.86592e-19)
(0.441136 -0.0839079 4.39754e-19)
(0.438538 -0.0764801 -1.30424e-18)
(0.435925 -0.0692524 4.51173e-19)
(-0.0204875 0.0411302 -5.061e-19)
(-0.0423919 0.0994349 1.10237e-19)
(-0.0469846 0.141316 4.53135e-19)
(-0.0374177 0.16554 -3.46978e-19)
(-0.0156977 0.173848 1.1824e-19)
(0.0156495 0.168669 -3.84878e-23)
(0.0542473 0.152726 1.19817e-18)
(0.0978452 0.128754 4.83268e-19)
(0.144303 0.0993789 4.85046e-19)
(0.191591 0.0670379 7.28122e-19)
(0.237836 0.0339112 -7.28387e-19)
(0.281404 0.00185732 4.85353e-19)
(0.320996 -0.0276495 9.6768e-19)
(0.355714 -0.0535527 4.81945e-19)
(0.385079 -0.0752159 -9.33343e-22)
(0.409003 -0.092387 -9.57307e-19)
(0.427722 -0.105133 9.53411e-19)
(0.441703 -0.113759 1.625e-21)
(0.451558 -0.118726 -4.70923e-19)
(0.457957 -0.120569 4.67121e-19)
(0.46157 -0.119846 4.65518e-19)
(0.463019 -0.117087 -4.59268e-19)
(0.462851 -0.11277 -9.15397e-19)
(0.461527 -0.107308 -5.14467e-22)
(0.45942 -0.101045 4.51407e-19)
(0.456822 -0.094258 4.4602e-19)
(0.453955 -0.0871667 8.80814e-19)
(0.450993 -0.0799459 -8.68411e-19)
(0.44806 -0.0727522 0)
(0.445173 -0.0658285 4.48349e-19)
(-0.0207385 0.0389435 1.72633e-21)
(-0.0424603 0.0935236 0)
(-0.0462817 0.132483 -3.36666e-19)
(-0.0353024 0.154623 -1.14787e-19)
(-0.0116132 0.16163 -4.6601e-19)
(0.0221189 0.155818 0)
(0.0633401 0.1398 -7.16747e-19)
(0.109598 0.116223 2.40142e-19)
(0.158548 0.0876459 0)
(0.207977 0.0564492 -4.81468e-19)
(0.25587 0.0247523 0)
(0.30052 -0.00565859 -7.21798e-19)
(0.340619 -0.0333948 7.20263e-19)
(0.37532 -0.0574916 -4.80679e-19)
(0.404236 -0.0774021 -4.76593e-19)
(0.427393 -0.0929514 0)
(0.445142 -0.104265 0)
(0.458054 -0.111684 4.71165e-19)
(0.466822 -0.115682 6.66042e-22)
(0.472178 -0.116792 4.64197e-19)
(0.47483 -0.115553 -4.61178e-19)
(0.47542 -0.112468 9.17441e-19)
(0.474502 -0.107985 -4.53843e-19)
(0.472534 -0.102486 0)
(0.469878 -0.0962859 1.33983e-18)
(0.466814 -0.0896358 -2.20735e-18)
(0.463554 -0.0827336 4.38481e-19)
(0.46026 -0.075738 4.34371e-19)
(0.457051 -0.0687995 4.2699e-19)
(0.453942 -0.0621991 8.87974e-19)
(-0.0209104 0.0368162 -3.99444e-19)
(-0.0422232 0.0876493 8.73332e-19)
(-0.0450459 0.123607 4.49322e-19)
(-0.0324542 0.143566 1.02751e-18)
(-0.00663875 0.149192 1.27782e-18)
(0.029582 0.142704 2.35392e-19)
(0.0734663 0.126616 -1.18569e-18)
(0.122351 0.103487 0)
(0.17368 0.0758047 -9.57113e-19)
(0.225059 0.0458792 -4.77041e-19)
(0.274351 0.0157531 0)
(0.319796 -0.0128775 -4.76306e-19)
(0.360105 -0.038724 -1.10393e-21)
(0.39451 -0.0609241 -1.42917e-18)
(0.422737 -0.0790251 4.76588e-19)
(0.44494 -0.0929294 4.73574e-19)
(0.461587 -0.102816 -9.38908e-19)
(0.473352 -0.109056 -9.36633e-19)
(0.481004 -0.112128 -5.9494e-22)
(0.485327 -0.112555 -1.60714e-21)
(0.487056 -0.11085 0)
(0.486845 -0.107489 -4.55432e-19)
(0.485246 -0.102885 -4.48861e-19)
(0.482706 -0.0973871 0)
(0.479574 -0.0912805 0)
(0.476115 -0.0847922 1.31854e-18)
(0.472526 -0.0780991 -1.2992e-18)
(0.468958 -0.0713454 0)
(0.465524 -0.0646768 1.27266e-18)
(0.462243 -0.0584141 -8.81628e-19)
(-0.0210006 0.034748 3.59554e-21)
(-0.0416615 0.0818322 -8.73166e-19)
(-0.0432319 0.114736 -1.11526e-19)
(-0.0288022 0.132447 -1.14097e-18)
(-0.000683213 0.136637 -6.96628e-19)
(0.0381391 0.12945 2.34351e-19)
(0.084721 0.113309 4.75174e-19)
(0.136177 0.0906886 1.18746e-18)
(0.189741 0.0639966 9.57109e-19)
(0.242845 0.0354612 9.58497e-19)
(0.29325 0.0070305 0)
(0.339175 -0.0197058 4.5445e-21)
(0.379381 -0.0435722 0)
(0.413206 -0.0638167 9.52027e-19)
(0.440511 -0.0800828 0)
(0.461584 -0.0923475 -4.71127e-19)
(0.477015 -0.100838 4.73192e-19)
(0.487575 -0.105944 0)
(0.4941 -0.108145 0)
(0.497414 -0.107946 -1.37649e-18)
(0.498271 -0.105832 4.55917e-19)
(0.497325 -0.102243 0)
(0.495119 -0.097558 8.96883e-19)
(0.492084 -0.0920927 8.91915e-19)
(0.48855 -0.0861039 -1.76168e-18)
(0.484762 -0.0797945 1.74454e-18)
(0.480904 -0.0733225 3.06186e-21)
(0.477115 -0.0668195 8.51813e-19)
(0.473502 -0.060429 -8.48339e-19)
(0.470089 -0.0545134 0)
(-0.0210042 0.0327348 9.98254e-19)
(-0.0407547 0.0760851 -1.08353e-19)
(-0.0407968 0.105912 -8.86979e-19)
(-0.0242823 0.121338 0)
(0.00633129 0.124064 -9.19806e-19)
(0.0478702 0.116175 0)
(0.0971721 0.100013 -1.17483e-18)
(0.151121 0.0779704 -7.12526e-19)
(0.206739 0.0523649 -9.48216e-19)
(0.261306 0.0253286 0)
(0.312508 -0.00130095 2.37814e-19)
(0.358575 -0.0260549 2.41966e-19)
(0.398358 -0.0478816 -4.74117e-19)
(0.431326 -0.0661437 -9.42693e-19)
(0.457488 -0.0805806 -4.68145e-19)
(0.477276 -0.0912383 -1.8716e-18)
(0.491401 -0.0983831 9.34115e-19)
(0.500719 -0.102419 -4.42581e-22)
(0.506124 -0.103815 -4.52226e-22)
(0.50847 -0.103052 1.37341e-18)
(0.508515 -0.100585 0)
(0.506908 -0.0968146 0)
(0.504173 -0.0920845 -2.41676e-21)
(0.500719 -0.0866776 3.08094e-21)
(0.496854 -0.080823 -8.7253e-19)
(0.492803 -0.0747008 -8.66941e-19)
(0.48873 -0.0684529 2.55827e-21)
(0.484764 -0.0622011 -8.51819e-19)
(0.481008 -0.0560899 -8.40108e-19)
(0.477501 -0.0505259 2.71813e-21)
(-0.0209142 0.0307694 0)
(-0.0394806 0.0704146 8.61836e-19)
(-0.0376999 0.0971689 7.7629e-19)
(-0.0188395 0.110303 1.12803e-19)
(0.0144663 0.111565 1.83544e-18)
(0.0588311 0.102996 -2.32222e-19)
(0.110856 0.0868639 1.87478e-18)
(0.167187 0.0654742 9.40811e-19)
(0.224644 0.041049 1.4212e-18)
(0.280377 0.0156088 7.07989e-19)
(0.332033 -0.00913474 2.3667e-19)
(0.377897 -0.0318462 1.18424e-18)
(0.416938 -0.0516049 -1.17458e-22)
(0.448783 -0.0678899 4.72501e-19)
(0.473605 -0.0805327 9.38954e-19)
(0.491979 -0.0896407 9.34576e-19)
(0.504729 -0.0955107 0)
(0.512791 -0.0985508 0)
(0.517104 -0.099215 0)
(0.518535 -0.0979558 0)
(0.51784 -0.0951903 8.99021e-19)
(0.51565 -0.0912826 0)
(0.512467 -0.0865382 -3.00907e-21)
(0.508671 -0.0812087 1.75329e-18)
(0.504545 -0.0754961 8.69541e-19)
(0.50029 -0.0695604 8.60946e-19)
(0.496052 -0.0635297 1.70481e-18)
(0.491946 -0.0575191 0)
(0.488075 -0.0516797 -1.66639e-18)
(0.484502 -0.0464657 1.73405e-18)
(-0.0207209 0.0288424 7.88142e-19)
(-0.0378157 0.0648225 -8.61854e-19)
(-0.0339047 0.0885349 0)
(-0.0124294 0.0993996 -8.9687e-19)
(0.0237645 0.0992272 -2.32664e-19)
(0.0710504 0.0900239 -6.91377e-19)
(0.125774 0.0739871 -2.09886e-18)
(0.184342 0.0533343 -4.28081e-21)
(0.243387 0.0301799 -7.03592e-19)
(0.29996 0.00641851 -1.64977e-18)
(0.351713 -0.0163772 -2.35749e-19)
(0.397023 -0.0370148 -9.38773e-19)
(0.435016 -0.0547085 -9.36449e-19)
(0.465495 -0.069052 0)
(0.488805 -0.0799623 -9.2944e-19)
(0.505664 -0.0875991 -1.38869e-18)
(0.517001 -0.0922805 4.60977e-19)
(0.523817 -0.0944108 -9.13984e-19)
(0.52708 -0.0944221 -9.07699e-19)
(0.527662 -0.0927339 0)
(0.526307 -0.0897246 -1.79272e-18)
(0.523618 -0.0857187 0)
(0.520068 -0.0809856 -1.76466e-18)
(0.516007 -0.0757452 -8.72853e-19)
(0.511688 -0.0701745 -1.72843e-18)
(0.507287 -0.064415 8.55786e-19)
(0.502928 -0.0585831 -2.54042e-18)
(0.498713 -0.0527915 8.35253e-19)
(0.494743 -0.0472054 5.43044e-21)
(0.491123 -0.0423315 -8.61103e-19)
(-0.0204131 0.0269432 -7.88159e-19)
(-0.0357361 0.0593076 1.0707e-19)
(-0.029379 0.0800324 7.65362e-19)
(-0.00501902 0.0886795 8.96886e-19)
(0.0342488 0.0871299 -9.11379e-19)
(0.0845287 0.0773606 4.44829e-21)
(0.141896 0.0615013 9.30646e-19)
(0.202519 0.0416744 -1.86741e-18)
(0.262866 0.0198751 -2.29402e-19)
(0.31993 -0.00214076 2.11071e-18)
(0.371413 -0.0229508 -1.40421e-18)
(0.415829 -0.041512 2.34132e-18)
(0.452487 -0.0571738 2.33525e-18)
(0.481386 -0.069639 -4.65526e-19)
(0.503046 -0.0789016 9.2945e-19)
(0.518321 -0.0851633 1.38625e-18)
(0.528232 -0.0887542 4.56251e-19)
(0.533832 -0.0900671 5.05512e-21)
(0.536105 -0.0895073 4.55027e-19)
(0.535915 -0.0874575 4.49034e-19)
(0.533982 -0.0842561 -4.40258e-19)
(0.530881 -0.0801881 4.41582e-19)
(0.527047 -0.0754866 -8.72603e-19)
(0.522798 -0.0703412 8.69885e-19)
(0.518354 -0.0649046 5.60008e-21)
(0.513864 -0.0593007 8.47227e-19)
(0.509428 -0.0536364 5.58562e-21)
(0.505128 -0.0480262 -8.3234e-19)
(0.501062 -0.0426599 2.85941e-21)
(0.497403 -0.0381025 0)
(-0.0199776 0.025061 0)
(-0.0332177 0.0538668 0)
(-0.0240959 0.0716803 -9.84102e-19)
(0.00341179 0.0781883 1.11247e-19)
(0.0459215 0.075345 0)
(0.0992391 0.0651002 9.1812e-19)
(0.159156 0.0495137 2.3083e-19)
(0.221614 0.0306044 6.9901e-19)
(0.282948 0.0102364 9.34463e-19)
(0.34014 -0.00998539 -9.35705e-19)
(0.390989 -0.0287969 9.355e-19)
(0.434186 -0.0453071 -9.34127e-19)
(0.469252 -0.0589972 -9.31785e-19)
(0.496392 -0.0696717 0)
(0.516297 -0.0773903 0)
(0.52995 -0.0823865 0)
(0.538449 -0.0849932 -9.14808e-19)
(0.542882 -0.0855853 1.36226e-18)
(0.544237 -0.0845365 -4.4991e-19)
(0.543359 -0.0821913 0)
(0.540938 -0.0788473 1.33127e-18)
(0.537511 -0.0747497 -4.38899e-19)
(0.533477 -0.0700968 8.72619e-19)
(0.529117 -0.0650478 -1.72038e-18)
(0.524619 -0.0597307 1.70879e-18)
(0.520098 -0.0542514 -2.68186e-21)
(0.515628 -0.0487068 2.93963e-21)
(0.511264 -0.0432169 8.26744e-19)
(0.507097 -0.038012 -4.13537e-22)
(0.503379 -0.0337128 8.5101e-19)
(-0.0194002 0.0231858 9.74545e-20)
(-0.0302372 0.048497 -1.0588e-19)
(-0.0180345 0.0634955 2.17313e-19)
(0.0128706 0.0679673 -1.32719e-18)
(0.0587649 0.063938 2.25041e-19)
(0.115128 0.0533275 0)
(0.177463 0.0381195 9.16848e-19)
(0.241499 0.0202193 -9.22036e-19)
(0.303482 0.0013477 0)
(0.36043 -0.0170509 1.15834e-18)
(0.410291 -0.0338757 -2.32251e-19)
(0.451971 -0.0483866 0)
(0.485221 -0.0601899 -4.62303e-19)
(0.51046 -0.0691812 9.21568e-19)
(0.528543 -0.0754745 -4.58776e-19)
(0.540566 -0.079324 4.56422e-19)
(0.54769 -0.0810576 -9.07394e-19)
(0.551022 -0.0810263 -9.38923e-23)
(0.551541 -0.0795699 -9.44386e-23)
(0.550064 -0.0769933 -4.41307e-19)
(0.547244 -0.0735535 -8.80384e-19)
(0.543578 -0.0694577 -1.01583e-22)
(0.539428 -0.0648697 2.75e-21)
(0.535038 -0.0599179 8.58743e-19)
(0.530562 -0.0547028 -8.47449e-19)
(0.526082 -0.0493081 8.41679e-19)
(0.521631 -0.0438124 -1.66008e-18)
(0.517219 -0.0383453 -2.98021e-21)
(0.512928 -0.0331781 -1.62289e-18)
(0.509094 -0.0290131 8.46224e-19)
(-0.0186649 0.0213078 0)
(-0.0267712 0.043195 -8.41713e-19)
(-0.0111789 0.0554927 0)
(0.0233531 0.0580538 4.37957e-21)
(0.0727428 0.0529677 2.23989e-19)
(0.132121 0.0421172 -9.41094e-23)
(0.196699 0.0274004 -1.82922e-18)
(0.262025 0.0105972 6.91996e-19)
(0.3243 -0.00672615 0)
(0.380636 -0.0232927 -1.15718e-18)
(0.429175 -0.0381666 2.31072e-19)
(0.469071 -0.0507539 0)
(0.500322 -0.0607761 -4.5994e-19)
(0.523556 -0.0682074 4.58476e-19)
(0.539784 -0.0732041 4.53969e-19)
(0.550198 -0.0760313 9.07934e-19)
(0.556003 -0.0770038 -4.51213e-19)
(0.558312 -0.0764456 0)
(0.558083 -0.0746604 0)
(0.556097 -0.0719139 8.85186e-19)
(0.552965 -0.0684239 -8.74944e-19)
(0.549145 -0.064362 8.67027e-19)
(0.544962 -0.0598589 8.61542e-19)
(0.540628 -0.0550115 8.50241e-19)
(0.536269 -0.0498898 -8.41636e-19)
(0.531933 -0.0445421 8.35808e-19)
(0.5276 -0.0390108 8.24246e-19)
(0.523176 -0.0334027 -8.15321e-19)
(0.518591 -0.0279438 2.40702e-21)
(0.514095 -0.0234792 1.68391e-18)
(-0.0177593 0.0194234 9.65266e-20)
(-0.022801 0.0379634 7.37085e-19)
(-0.00352112 0.0476898 0)
(0.0348426 0.0484846 8.79955e-19)
(0.0878018 0.0424885 0)
(0.15012 0.0315356 0)
(0.216728 0.0174259 6.84955e-19)
(0.283027 0.00180078 2.80584e-22)
(0.345229 -0.0139377 2.29666e-19)
(0.400594 -0.0286841 2.29709e-19)
(0.447504 -0.0416654 -6.89309e-19)
(0.485387 -0.0524254 4.59105e-19)
(0.514495 -0.0607887 0)
(0.53566 -0.0667949 0)
(0.550033 -0.07063 -9.10414e-19)
(0.558883 -0.0725607 0)
(0.563443 -0.0728832 -4.4875e-19)
(0.564816 -0.0718915 4.45691e-19)
(0.563929 -0.0698527 4.42262e-19)
(0.561521 -0.0669945 -6.80351e-23)
(0.55816 -0.0634993 -4.34854e-19)
(0.554263 -0.0595062 0)
(0.550122 -0.0551157 -8.53058e-19)
(0.545928 -0.0503971 8.44686e-19)
(0.541793 -0.0453881 0)
(0.537761 -0.0400911 0)
(0.533807 -0.0344816 0)
(0.529804 -0.0285316 0)
(0.525347 -0.0223743 -8.00902e-19)
(0.521049 -0.015713 1.67267e-18)
(0.256098 -0.0168099 -0.0246512)
(0.273374 0.00849255 -0.0254075)
(0.285716 0.0346708 -0.0255948)
(0.290781 0.0559997 -0.0257414)
(0.292805 0.0722917 -0.0258176)
(0.292269 0.084697 -0.0258541)
(0.290001 0.0952227 -0.0258522)
(0.286423 0.105164 -0.0258196)
(0.281795 0.114957 -0.0257663)
(0.276316 0.124585 -0.0257032)
(0.270121 0.133904 -0.0256351)