/*--------------------------------*- C++ -*----------------------------------*\
  =========                 |
  \\      /  F ield         | OpenFOAM: The Open Source CFD Toolbox
   \\    /   O peration     | Website:  https://openfoam.org
    \\  /    A nd           | Version:  7
     \\/     M anipulation  |
\*---------------------------------------------------------------------------*/
FoamFile
{
    version     2.0;
    format      ascii;
    class       volScalarField;
    location    "6.4";
    object      p;
}
// * * * * * * * * * * * * * * * * * * * * * * * * * * * * * * * * * * * * * //

dimensions      [0 2 -2 0 0 0 0];

internalField   nonuniform List<scalar> 
18000
(
0.6207
0.621162
0.621433
0.621683
0.621898
0.622119
0.622416
0.622858
0.623494
0.624354
0.625465
0.626848
0.628526
0.630512
0.632799
0.635373
0.638215
0.641306
0.644624
0.648142
0.651826
0.655638
0.659542
0.663504
0.667494
0.671482
0.675444
0.679359
0.683192
0.686862
0.620078
0.620465
0.620701
0.620917
0.621104
0.621296
0.621567
0.62198
0.62258
0.6234
0.624463
0.625788
0.627395
0.629294
0.63148
0.633942
0.636661
0.63962
0.642793
0.646155
0.649675
0.653317
0.657045
0.660826
0.664632
0.668435
0.672213
0.675945
0.679594
0.683102
0.61946
0.61977
0.619968
0.620149
0.620312
0.620484
0.620739
0.621133
0.621705
0.622491
0.623513
0.624788
0.62633
0.628149
0.630241
0.632594
0.635194
0.63802
0.641049
0.644255
0.647608
0.651074
0.65462
0.658214
0.661828
0.665438
0.669022
0.67256
0.676011
0.679345
0.618832
0.619057
0.619223
0.619376
0.619522
0.619686
0.619932
0.620315
0.62087
0.621629
0.622618
0.62385
0.625335
0.627079
0.62908
0.63133
0.633813
0.636508
0.639393
0.64244
0.645623
0.648909
0.652268
0.655668
0.659083
0.662491
0.66587
0.669202
0.672442
0.675587
0.618209
0.61835
0.618485
0.618612
0.618745
0.618906
0.61915
0.619528
0.620073
0.620815
0.621777
0.622971
0.624403
0.626078
0.627994
0.630145
0.632515
0.635081
0.63782
0.640707
0.643717
0.64682
0.649986
0.653187
0.656396
0.659593
0.662758
0.665873
0.66889
0.67183
0.61758
0.617635
0.617741
0.617848
0.617972
0.618136
0.618386
0.618766
0.619309
0.620043
0.620986
0.622146
0.62353
0.625142
0.626981
0.629039
0.631298
0.633735
0.636328
0.639054
0.641889
0.644805
0.647775
0.65077
0.653767
0.656744
0.659685
0.662571
0.665356
0.668079
0.616947
0.616918
0.616998
0.617087
0.617208
0.617378
0.617639
0.61803
0.618581
0.619313
0.620241
0.621373
0.622714
0.62427
0.626038
0.628007
0.630157
0.632466
0.634913
0.637478
0.640137
0.642864
0.645633
0.648419
0.651197
0.653947
0.656653
0.659301
0.661844
0.664336
0.616305
0.616196
0.616251
0.616327
0.616446
0.616628
0.616906
0.617317
0.617881
0.618617
0.619536
0.620645
0.621951
0.623457
0.625159
0.627043
0.629086
0.631268
0.633571
0.635975
0.638458
0.640995
0.643562
0.646134
0.648687
0.651202
0.653667
0.656068
0.658359
0.66061
0.61565
0.615466
0.615497
0.615561
0.615684
0.615881
0.616184
0.616619
0.617204
0.61795
0.618866
0.619958
0.621235
0.622698
0.624339
0.62614
0.628079
0.630137
0.632297
0.634542
0.636849
0.639196
0.641559
0.643914
0.646238
0.648514
0.650731
0.652878
0.654911
0.656908
0.614979
0.614724
0.614733
0.614788
0.614918
0.615136
0.615468
0.615934
0.616544
0.617304
0.618223
0.619307
0.620562
0.621987
0.62357
0.625292
0.62713
0.629068
0.631088
0.633175
0.635307
0.637465
0.639624
0.64176
0.643853
0.645886
0.647851
0.64974
0.65151
0.653241
0.614286
0.613966
0.613955
0.614004
0.614144
0.614387
0.614753
0.615254
0.615894
0.616676
0.617604
0.618685
0.619923
0.621315
0.622845
0.624491
0.626234
0.628055
0.629938
0.631869
0.63383
0.635799
0.637754
0.639672
0.641532
0.643322
0.645033
0.64666
0.648165
0.649621
0.613568
0.613187
0.61316
0.613205
0.613359
0.613631
0.614036
0.614576
0.61525
0.616057
0.617
0.618085
0.619313
0.620676
0.622156
0.623733
0.625383
0.627091
0.628841
0.63062
0.632412
0.634196
0.635949
0.637649
0.639279
0.640826
0.642283
0.643647
0.644886
0.646061
0.61282
0.612384
0.612342
0.612387
0.612559
0.612864
0.61331
0.613892
0.614604
0.615441
0.616405
0.617498
0.618721
0.62006
0.621497
0.623007
0.62457
0.626169
0.62779
0.629422
0.631049
0.63265
0.634203
0.635689
0.637091
0.638398
0.639603
0.640706
0.641682
0.642573
0.612037
0.611552
0.611499
0.611546
0.61174
0.61208
0.61257
0.613198
0.613951
0.614822
0.61581
0.616917
0.618139
0.61946
0.620857
0.622306
0.623786
0.625281
0.626778
0.628267
0.629733
0.631156
0.632515
0.63379
0.634968
0.636039
0.636996
0.637843
0.638563
0.63917
0.611214
0.610686
0.610625
0.610678
0.610896
0.611275
0.611811
0.612487
0.613284
0.614192
0.615209
0.616334
0.617559
0.618865
0.620227
0.621619
0.623021
0.624417
0.625796
0.627148
0.628459
0.629709
0.630877
0.631947
0.632907
0.633748
0.634464
0.635062
0.635536
0.635864
0.610349
0.609782
0.609716
0.609777
0.610023
0.610443
0.611027
0.611752
0.612596
0.613543
0.614592
0.615739
0.616972
0.618267
0.619598
0.620937
0.622265
0.623567
0.624835
0.626056
0.627217
0.628299
0.629281
0.630152
0.630901
0.631521
0.632004
0.632364
0.632605
0.632662
0.609438
0.608837
0.608768
0.608841
0.609116
0.609579
0.610212
0.610988
0.611879
0.612869
0.613953
0.615126
0.616369
0.617656
0.618958
0.620249
0.621508
0.622723
0.623884
0.624981
0.625998
0.626916
0.627719
0.628397
0.628944
0.629351
0.629614
0.629748
0.629772
0.629572
0.608477
0.607847
0.607778
0.607866
0.608172
0.608678
0.609361
0.610188
0.611128
0.612163
0.613285
0.614485
0.615741
0.617023
0.618299
0.619545
0.62074
0.621873
0.622934
0.623911
0.624788
0.625549
0.626179
0.626672
0.627024
0.62723
0.627285
0.627207
0.627032
0.626594
0.607464
0.606809
0.606743
0.606849
0.607187
0.607736
0.608468
0.609347
0.610337
0.611419
0.612582
0.613811
0.615081
0.616358
0.617612
0.618815
0.619951
0.621006
0.621971
0.622833
0.623576
0.624184
0.624648
0.624963
0.625131
0.625147
0.625008
0.624734
0.624378
0.623725
0.606395
0.60572
0.605659
0.605785
0.606157
0.606749
0.60753
0.608459
0.609501
0.610631
0.611836
0.613096
0.61438
0.615653
0.616885
0.618049
0.619128
0.62011
0.620984
0.621735
0.622347
0.622808
0.623112
0.623258
0.62325
0.623089
0.622769
0.622316
0.621798
0.620958
0.605267
0.604574
0.604522
0.604671
0.605078
0.605713
0.606542
0.607522
0.608614
0.609794
0.611041
0.612331
0.613629
0.614898
0.616109
0.617235
0.618261
0.619172
0.619957
0.6206
0.621086
0.621405
0.621554
0.621539
0.621366
0.621037
0.620553
0.619936
0.619277
0.61828
0.604075
0.603369
0.603328
0.603503
0.603946
0.604625
0.6055
0.606529
0.607672
0.608901
0.61019
0.611509
0.612819
0.614084
0.615273
0.616363
0.617336
0.618178
0.618876
0.619414
0.619776
0.619957
0.619958
0.619789
0.619458
0.618974
0.618337
0.617574
0.616794
0.615674
0.602817
0.602101
0.602073
0.602276
0.602758
0.603479
0.604401
0.605479
0.606671
0.607948
0.609277
0.610621
0.611941
0.6132
0.614368
0.61542
0.61634
0.617114
0.617725
0.618157
0.618398
0.618445
0.618303
0.617985
0.617504
0.616874
0.616099
0.615207
0.614326
0.613117
0.601488
0.600766
0.600755
0.600988
0.601508
0.602273
0.603241
0.604365
0.605606
0.606928
0.608293
0.60966
0.610987
0.612238
0.613382
0.614396
0.615262
0.615964
0.616487
0.616814
0.616935
0.616848
0.616565
0.616102
0.615478
0.614709
0.613807
0.612803
0.611841
0.61058
0.600087
0.599363
0.59937
0.599635
0.600194
0.601002
0.602015
0.603186
0.604473
0.605837
0.607234
0.608619
0.609949
0.611188
0.612306
0.613278
0.614086
0.614715
0.615147
0.615366
0.615365
0.615145
0.614722
0.614114
0.613347
0.612444
0.611422
0.610319
0.609298
0.608029
0.59861
0.597888
0.597916
0.598214
0.598813
0.599664
0.60072
0.601936
0.603268
0.60467
0.606094
0.607491
0.608819
0.610042
0.611128
0.612054
0.612801
0.613351
0.613687
0.613795
0.613668
0.613312
0.612744
0.61199
0.611077
0.610036
0.608896
0.607703
0.606641
0.605412
0.597052
0.596338
0.59639
0.596723
0.597363
0.598255
0.599354
0.600613
0.601986
0.603421
0.604866
0.606269
0.607589
0.608788
0.609838
0.610712
0.611391
0.611856
0.612091
0.612082
0.611823
0.611324
0.610605
0.609694
0.608625
0.607436
0.606167
0.60488
0.603787
0.602654
0.595412
0.594711
0.59479
0.595161
0.595842
0.596775
0.597915
0.599214
0.600623
0.602086
0.603543
0.604945
0.606249
0.60742
0.608425
0.60924
0.609843
0.610217
0.610342
0.610208
0.60981
0.609159
0.608277
0.607196
0.605951
0.604588
0.603161
0.601757
0.600631
0.599662
0.593684
0.593004
0.593116
0.593527
0.594249
0.59522
0.596399
0.597734
0.599175
0.600657
0.60212
0.603513
0.604793
0.605925
0.606877
0.607624
0.608143
0.608415
0.608424
0.608155
0.607609
0.606795
0.605737
0.604463
0.60301
0.601426
0.599777
0.598186
0.597008
0.596334
0.591869
0.591219
0.591366
0.59182
0.592582
0.593591
0.594803
0.596171
0.597636
0.59913
0.600591
0.601965
0.603211
0.604294
0.605183
0.605851
0.606275
0.606437
0.606318
0.605907
0.605203
0.604217
0.602968
0.601479
0.599777
0.597894
0.595875
0.593833
0.592143
0.591213
0.69879
0.714269
0.724756
0.733081
0.738568
0.742814
0.745673
0.747657
0.748885
0.749514
0.749622
0.749287
0.748574
0.747519
0.746193
0.744614
0.742801
0.740832
0.738691
0.73639
0.733956
0.731378
0.728703
0.725918
0.723082
0.720186
0.717314
0.714518
0.712093
0.710228
0.694816
0.710004
0.72057
0.729059
0.734711
0.739099
0.742098
0.744223
0.745546
0.74625
0.746435
0.746172
0.745523
0.744542
0.743256
0.741719
0.739973
0.738037
0.735934
0.73368
0.731271
0.728735
0.726079
0.723328
0.720502
0.717631
0.714767
0.711986
0.709553
0.707689
0.690782
0.705675
0.716307
0.724974
0.73081
0.735359
0.738512
0.740784
0.742207
0.742991
0.743251
0.743058
0.742473
0.741564
0.740321
0.73883
0.73715
0.735249
0.733186
0.73098
0.728599
0.726108
0.723473
0.720759
0.717949
0.715105
0.712252
0.709488
0.707047
0.705183
0.686667
0.701281
0.711971
0.720819
0.726858
0.731605
0.73492
0.737329
0.738863
0.73974
0.740075
0.739952
0.73943
0.738578
0.737393
0.735956
0.734325
0.73247
0.730451
0.728284
0.725944
0.723488
0.720891
0.718209
0.715428
0.712609
0.709774
0.70702
0.704578
0.702711
0.682472
0.696818
0.707555
0.716597
0.722858
0.727831
0.731321
0.733869
0.735518
0.736496
0.736907
0.736851
0.736392
0.735593
0.734472
0.733092
0.731502
0.729699
0.727725
0.725596
0.723304
0.720882
0.718328
0.715679
0.712934
0.710141
0.707329
0.704583
0.702145
0.700272
0.678205
0.692284
0.703047
0.712309
0.718813
0.724031
0.727713
0.730409
0.732179
0.733255
0.733745
0.733755
0.73336
0.732615
0.731555
0.730231
0.728686
0.726935
0.725008
0.72292
0.720675
0.718291
0.715781
0.713171
0.710462
0.707701
0.704913
0.70218
0.699745
0.697864
0.673864
0.687678
0.698445
0.707952
0.714723
0.720206
0.724095
0.726951
0.728845
0.73002
0.730591
0.730667
0.730336
0.729646
0.728644
0.727376
0.725879
0.724178
0.7223
0.720256
0.718057
0.715717
0.713251
0.710683
0.708014
0.705289
0.702527
0.699808
0.697379
0.695489
0.669448
0.683
0.693747
0.703522
0.710583
0.716354
0.720469
0.723495
0.725519
0.726792
0.727444
0.727587
0.727319
0.726686
0.725739
0.724529
0.723081
0.72143
0.719602
0.717604
0.715453
0.71316
0.71074
0.708217
0.70559
0.702903
0.700171
0.697469
0.695046
0.693147
0.664962
0.678252
0.688951
0.699016
0.706393
0.712475
0.716835
0.720041
0.7222
0.723573
0.724308
0.724517
0.724311
0.723735
0.722844
0.72169
0.720294
0.718693
0.716914
0.714964
0.712861
0.710618
0.708248
0.705773
0.703189
0.700543
0.697845
0.695163
0.692747
0.690839
0.660411
0.673438
0.684059
0.694433
0.702149
0.708569
0.713192
0.71659
0.718889
0.720365
0.721182
0.721458
0.721313
0.720795
0.719959
0.718861
0.717517
0.715967
0.714236
0.712337
0.710284
0.708092
0.705773
0.70335
0.700813
0.698209
0.695548
0.692891
0.690481
0.688564
0.655806
0.668564
0.679075
0.689771
0.697851
0.704634
0.70954
0.713143
0.715588
0.717169
0.718069
0.718412
0.718328
0.717866
0.717086
0.716042
0.71475
0.713252
0.71157
0.709722
0.707722
0.705581
0.703316
0.700946
0.698459
0.6959
0.693281
0.69065
0.68825
0.686323
0.651161
0.663641
0.674004
0.68503
0.693499
0.70067
0.70588
0.7097
0.712298
0.713987
0.71497
0.71538
0.715355
0.714951
0.714225
0.713234
0.711994
0.710548
0.708915
0.707118
0.705173
0.703086
0.700876
0.698562
0.696129
0.693618
0.691043
0.688443
0.686054
0.684117
0.646491
0.658681
0.668856
0.680213
0.689092
0.696675
0.702212
0.706263
0.70902
0.710821
0.711886
0.712363
0.712397
0.712049
0.711377
0.710439
0.709249
0.707854
0.706273
0.704527
0.702638
0.700606
0.698454
0.696197
0.693821
0.691361
0.688835
0.686269
0.683895
0.681948
0.641818
0.6537
0.663645
0.675323
0.684631
0.69265
0.698537
0.702831
0.705756
0.707671
0.708819
0.709363
0.709455
0.709162
0.708543
0.707655
0.706517
0.705172
0.703642
0.701949
0.700117
0.698141
0.696048
0.693851
0.691535
0.689131
0.686657
0.68413
0.681773
0.679817
0.637164
0.648719
0.65839
0.670369
0.680121
0.688595
0.694853
0.699405
0.702505
0.704537
0.705768
0.706379
0.706528
0.70629
0.705723
0.704884
0.703796
0.702502
0.701024
0.699383
0.697609
0.695691
0.693658
0.691524
0.689271
0.686925
0.684508
0.682024
0.679688
0.677724
0.632553
0.643762
0.65311
0.66536
0.675564
0.684511
0.691162
0.695986
0.699269
0.701419
0.702736
0.703412
0.703619
0.703435
0.702918
0.702125
0.701087
0.699843
0.698417
0.696829
0.695114
0.693255
0.691284
0.689214
0.687027
0.684744
0.682389
0.679953
0.677644
0.675673
0.628012
0.638856
0.647833
0.660309
0.670967
0.680402
0.687465
0.692574
0.696049
0.69832
0.699723
0.700465
0.700728
0.700596
0.700128
0.699381
0.698391
0.697195
0.695823
0.694287
0.692631
0.690833
0.688923
0.686919
0.684802
0.682585
0.680296
0.677917
0.675639
0.673664
0.623568
0.634031
0.642585
0.655236
0.666338
0.676271
0.683761
0.689171
0.692846
0.695242
0.696731
0.697538
0.697855
0.697773
0.697352
0.69665
0.695707
0.69456
0.69324
0.691756
0.690159
0.688422
0.686576
0.684638
0.682594
0.680448
0.678231
0.675916
0.673678
0.6717
0.619249
0.629317
0.6374
0.650161
0.66169
0.672124
0.680055
0.685779
0.68966
0.692185
0.693761
0.694633
0.695003
0.694967
0.694592
0.693934
0.693036
0.691936
0.690668
0.689237
0.687696
0.686023
0.684241
0.68237
0.680401
0.678331
0.676193
0.67395
0.67176
0.669786
0.61508
0.624747
0.632309
0.645107
0.657036
0.667967
0.676349
0.682397
0.686494
0.689153
0.690815
0.691751
0.692171
0.69218
0.691847
0.691232
0.690379
0.689323
0.688106
0.686729
0.685244
0.683633
0.681915
0.680113
0.678222
0.676234
0.67418
0.672019
0.66989
0.667924
0.611088
0.620349
0.627348
0.640099
0.652392
0.663808
0.672645
0.679026
0.683346
0.686143
0.687894
0.688892
0.68936
0.68941
0.689118
0.688545
0.687734
0.686722
0.685554
0.684231
0.6828
0.681251
0.679598
0.677865
0.676055
0.674153
0.672191
0.670124
0.668069
0.666121
0.607295
0.616151
0.62255
0.635165
0.647777
0.659654
0.668948
0.675667
0.680218
0.683158
0.684996
0.686057
0.68657
0.68666
0.686407
0.685871
0.685101
0.684133
0.683013
0.681742
0.680364
0.678876
0.677288
0.675626
0.673898
0.672089
0.670226
0.668265
0.666301
0.664381
0.603727
0.612176
0.617947
0.630332
0.643208
0.655519
0.66526
0.672323
0.67711
0.680195
0.682123
0.683246
0.683803
0.68393
0.683713
0.683213
0.682481
0.681555
0.680481
0.679261
0.677935
0.676508
0.674984
0.673394
0.67175
0.670037
0.668281
0.666441
0.664588
0.662712
0.600404
0.608443
0.613566
0.62563
0.638708
0.651413
0.661589
0.668995
0.674022
0.677257
0.679276
0.680461
0.681059
0.681221
0.681036
0.680569
0.679875
0.67899
0.677959
0.676788
0.675513
0.674144
0.672685
0.671167
0.669608
0.667996
0.666356
0.66465
0.662931
0.661122
0.597348
0.604964
0.609429
0.621086
0.634296
0.647351
0.657941
0.665688
0.670957
0.674345
0.676456
0.677701
0.678339
0.678532
0.678379
0.677942
0.677282
0.676436
0.675446
0.674323
0.673095
0.671784
0.670389
0.668944
0.66747
0.665962
0.664445
0.662889
0.661332
0.659622
0.594585
0.601749
0.605552
0.616726
0.629997
0.643349
0.654325
0.662406
0.667917
0.67146
0.673665
0.67497
0.675645
0.675866
0.67574
0.675331
0.674704
0.673894
0.672942
0.671864
0.670683
0.669427
0.668094
0.666723
0.665333
0.663931
0.662544
0.661155
0.659792
0.658227
0.592142
0.598799
0.601948
0.612575
0.625837
0.639423
0.650752
0.659155
0.664904
0.668606
0.670906
0.672267
0.672977
0.673222
0.673121
0.672737
0.672139
0.671362
0.670446
0.669411
0.668275
0.667071
0.665799
0.664501
0.663195
0.661899
0.660649
0.659441
0.65831
0.656954
0.590059
0.596115
0.598633
0.608648
0.621813
0.635549
0.647186
0.655898
0.661888
0.665755
0.668156
0.669575
0.67032
0.67059
0.67051
0.670151
0.669579
0.668834
0.667951
0.666956
0.665864
0.664711
0.663499
0.662271
0.661049
0.65986
0.658749
0.657739
0.65688
0.655826
0.58836
0.593644
0.595567
0.604889
0.617831
0.631612
0.64351
0.652531
0.658781
0.662837
0.665355
0.666844
0.667632
0.667931
0.667877
0.667543
0.667
0.666287
0.665439
0.664484
0.663436
0.662334
0.661183
0.660024
0.658885
0.657802
0.656833
0.656032
0.655488
0.654874
0.587251
0.59124
0.592578
0.60125
0.613987
0.627809
0.639942
0.649246
0.655736
0.659967
0.662593
0.664145
0.664969
0.665294
0.665259
0.664949
0.66443
0.663746
0.662929
0.662009
0.661004
0.659948
0.658854
0.65776
0.656698
0.655715
0.654882
0.654292
0.654101
0.654116
0.585149
0.583477
0.582784
0.590527
0.603727
0.61839
0.631411
0.641441
0.648417
0.6529
0.65559
0.657096
0.657837
0.658085
0.657996
0.657661
0.657139
0.656471
0.655689
0.654823
0.653896
0.652936
0.651968
0.651026
0.650153
0.649417
0.648929
0.648904
0.649752
0.652123
0.563834
0.565337
0.567993
0.577283
0.590435
0.604133
0.616213
0.625685
0.632475
0.637028
0.639918
0.64166
0.642636
0.643101
0.643213
0.643072
0.64274
0.642265
0.641679
0.641015
0.640297
0.639553
0.638814
0.638118
0.637519
0.637102
0.637013
0.637526
0.639177
0.642628
0.542422
0.548608
0.555028
0.565264
0.577532
0.589785
0.600659
0.609431
0.615976
0.62058
0.623675
0.625679
0.626924
0.627645
0.627997
0.628083
0.627971
0.62771
0.627337
0.626884
0.626378
0.625848
0.625327
0.624856
0.624492
0.624324
0.624496
0.625282
0.627225
0.630988
0.522986
0.532448
0.541204
0.551607
0.562966
0.574141
0.584177
0.592483
0.598909
0.603629
0.606961
0.609246
0.610774
0.611767
0.61238
0.612715
0.612842
0.612812
0.612663
0.612428
0.612135
0.611814
0.611498
0.611228
0.61106
0.611078
0.61142
0.612339
0.614348
0.618165
0.504407
0.515606
0.525598
0.536071
0.546912
0.557425
0.566894
0.574875
0.581245
0.586116
0.589717
0.592318
0.594168
0.595474
0.596383
0.596998
0.597391
0.597613
0.597703
0.597693
0.597614
0.597494
0.597367
0.597272
0.59726
0.597413
0.597855
0.598822
0.600783
0.604509
0.485842
0.497897
0.5086
0.519202
0.529756
0.539809
0.548858
0.556603
0.562959
0.567996
0.571879
0.574818
0.577023
0.578676
0.579914
0.580838
0.581522
0.582015
0.582357
0.582581
0.582718
0.582795
0.582843
0.582901
0.583017
0.583266
0.58376
0.584723
0.586578
0.590149
0.467072
0.479562
0.49067
0.501346
0.511679
0.521393
0.530149
0.537747
0.544128
0.549339
0.553501
0.556779
0.559345
0.561357
0.56294
0.564192
0.56518
0.565957
0.566562
0.567027
0.567382
0.567653
0.56787
0.568068
0.568293
0.568614
0.569134
0.570062
0.571782
0.575157
0.448018
0.460714
0.472006
0.482676
0.492832
0.502312
0.510883
0.518406
0.524842
0.530227
0.534654
0.538255
0.541172
0.543538
0.545467
0.547048
0.548346
0.549412
0.550284
0.550993
0.551568
0.552032
0.552415
0.552749
0.553076
0.553461
0.553996
0.554876
0.556447
0.559596
0.428617
0.441378
0.452715
0.463338
0.473364
0.482691
0.491149
0.498644
0.505152
0.510706
0.515381
0.519284
0.522531
0.525238
0.527504
0.529407
0.53101
0.532362
0.5335
0.534453
0.535246
0.535904
0.536451
0.536921
0.53735
0.537798
0.538348
0.539179
0.540596
0.543483
0.408835
0.421576
0.432886
0.443448
0.453379
0.462603
0.470995
0.47849
0.48508
0.490797
0.495703
0.499885
0.503441
0.506469
0.509054
0.511268
0.513167
0.514797
0.516193
0.517384
0.518393
0.519243
0.519956
0.520563
0.521097
0.521613
0.522183
0.522971
0.524245
0.52687
0.388661
0.40133
0.412577
0.423074
0.432931
0.442086
0.450442
0.457958
0.464637
0.470509
0.475629
0.480069
0.48391
0.487237
0.490122
0.49263
0.494811
0.496708
0.498353
0.499772
0.500989
0.502026
0.502902
0.503646
0.504287
0.504876
0.505475
0.506231
0.507371
0.509713
0.368089
0.380657
0.391821
0.402252
0.41205
0.42116
0.429503
0.437054
0.443825
0.449845
0.455163
0.459839
0.463943
0.467545
0.47071
0.473493
0.475941
0.47809
0.47997
0.481608
0.483025
0.484243
0.485278
0.486156
0.486903
0.487564
0.488197
0.488934
0.489972
0.492072
0.347117
0.359562
0.370634
0.381001
0.390754
0.399838
0.408184
0.41578
0.422643
0.428805
0.434304
0.439196
0.44354
0.447395
0.450817
0.453856
0.45655
0.458934
0.461035
0.462878
0.464484
0.46587
0.467056
0.468065
0.468921
0.469661
0.470334
0.471052
0.471984
0.473826
0.32574
0.338049
0.349029
0.359337
0.369057
0.378127
0.386487
0.394134
0.40109
0.407383
0.413049
0.418137
0.422698
0.426782
0.430438
0.43371
0.436631
0.439233
0.44154
0.443576
0.445358
0.446904
0.44823
0.449356
0.450304
0.451112
0.451826
0.452548
0.453426
0.455055
0.303957
0.31612
0.327012
0.337271
0.346966
0.356033
0.364414
0.372114
0.379158
0.385573
0.391391
0.396655
0.401408
0.405697
0.409563
0.413044
0.416171
0.41897
0.421464
0.423673
0.425615
0.427308
0.428768
0.430014
0.431059
0.431934
0.432673
0.433369
0.434157
0.435562
0.28177
0.293778
0.304593
0.314812
0.324491
0.333558
0.341963
0.349716
0.356843
0.363368
0.369321
0.374739
0.379661
0.384128
0.388178
0.391842
0.395151
0.398128
0.400792
0.40316
0.405246
0.407066
0.408633
0.409968
0.411089
0.412028
0.412814
0.413526
0.414276
0.41548
0.259187
0.27103
0.281785
0.291973
0.301638
0.310707
0.319136
0.326937
0.334138
0.340758
0.346827
0.352376
0.357442
0.362061
0.366266
0.370086
0.373549
0.376675
0.379483
0.381988
0.384207
0.386151
0.387831
0.389257
0.390437
0.391398
0.392171
0.392836
0.393512
0.394506
0.236233
0.247894
0.258606
0.268771
0.278419
0.287486
0.295932
0.303774
0.311037
0.317738
0.323901
0.329555
0.334736
0.339475
0.343803
0.347751
0.351341
0.354594
0.357523
0.360138
0.362451
0.364476
0.366229
0.367728
0.368982
0.370007
0.370818
0.371476
0.372092
0.372881
0.212965
0.224414
0.235093
0.245233
0.254849
0.2639
0.272354
0.280226
0.287536
0.294298
0.300532
0.306265
0.311529
0.316355
0.320771
0.324808
0.328488
0.331832
0.334857
0.337572
0.339984
0.342096
0.343909
0.345433
0.346682
0.347683
0.348459
0.349063
0.349603
0.350156
0.189494
0.200674
0.211305
0.221395
0.230951
0.239963
0.248409
0.256297
0.263636
0.270435
0.27671
0.282485
0.287794
0.292668
0.297136
0.301228
0.304965
0.308363
0.311432
0.314185
0.316635
0.318795
0.320672
0.322266
0.32357
0.324592
0.325345
0.325886
0.326338
0.32668
0.166019
0.176825
0.187338
0.197314
0.206754
0.215691
0.224108
0.231991
0.239336
0.246146
0.252429
0.258213
0.263527
0.268404
0.272874
0.276969
0.280719
0.284146
0.287258
0.290052
0.292524
0.294675
0.296518
0.29807
0.299341
0.300334
0.301044
0.301502
0.301824
0.301862
0.142852
0.153101
0.163338
0.173074
0.182309
0.191114
0.199468
0.207319
0.214639
0.221418
0.227665
0.233406
0.238677
0.243509
0.247935
0.251984
0.255683
0.259055
0.262119
0.26489
0.267374
0.269564
0.271444
0.273007
0.274255
0.275199
0.275843
0.276212
0.276415
0.276202
0.120401
0.129824
0.139511
0.1488
0.157693
0.166283
0.174519
0.1823
0.189559
0.196273
0.202445
0.208098
0.213264
0.217983
0.222299
0.226256
0.229884
0.233197
0.23619
0.238863
0.241228
0.243305
0.245104
0.246616
0.247822
0.248705
0.249247
0.249455
0.249434
0.24882
0.0991003
0.107369
0.116132
0.124684
0.133039
0.141284
0.149315
0.156953
0.164082
0.17066
0.176689
0.182189
0.18719
0.19173
0.195853
0.19961
0.20305
0.206209
0.209104
0.211726
0.214057
0.216081
0.217797
0.219218
0.220349
0.221181
0.22167
0.221766
0.221525
0.220546
0.0793148
0.0860995
0.0935274
0.100996
0.108556
0.116272
0.123967
0.131371
0.138305
0.144695
0.150521
0.155788
0.160532
0.164815
0.168701
0.172234
0.17544
0.178339
0.180956
0.183323
0.185455
0.187338
0.188944
0.190251
0.191252
0.191952
0.192315
0.192239
0.191689
0.190174
0.0612782
0.0663314
0.0720662
0.0781047
0.0845682
0.0914882
0.0986001
0.105556
0.112129
0.118209
0.123735
0.128681
0.133064
0.136955
0.140449
0.143634
0.146566
0.149258
0.151696
0.15387
0.155784
0.15746
0.158904
0.160098
0.161014
0.161643
0.161945
0.161744
0.160854
0.158841
0.0450446
0.0483098
0.0521471
0.0564546
0.0615394
0.0673953
0.0736531
0.0799256
0.0859588
0.091582
0.096672
0.101173
0.105103
0.10853
0.111531
0.114188
0.116589
0.1188
0.120842
0.122697
0.124337
0.125751
0.126942
0.127904
0.128621
0.129101
0.12933
0.129057
0.127823
0.125169
0.0304833
0.0321334
0.034129
0.0365067
0.0399292
0.044295
0.0491745
0.0542896
0.0594396
0.0643676
0.0688235
0.0726803
0.0759612
0.0787764
0.0812439
0.0834479
0.0854347
0.0872225
0.088826
0.0902678
0.091563
0.0927069
0.0936807
0.0944554
0.0949973
0.0953187
0.0954783
0.0952556
0.0938682
0.0908283
0.0172174
0.0176069
0.0179909
0.0186689
0.0207966
0.0236025
0.0267133
0.03018
0.0339411
0.0377258
0.0412114
0.0441639
0.0465102
0.0483463
0.0498657
0.0512423
0.0525451
0.0537504
0.0548143
0.0557336
0.0565399
0.0572574
0.0578817
0.0583861
0.058723
0.058862
0.0588827
0.0587524
0.057567
0.0544426
0.00515374
0.00410375
0.000442007
-0.000366186
0.00194235
0.00366768
0.00499205
0.00655783
0.00848741
0.0105964
0.0126397
0.0144116
0.0158006
0.0168174
0.0175675
0.0181744
0.0187229
0.0192363
0.0196993
0.020099
0.0204419
0.0207402
0.0209958
0.0212043
0.0213464
0.0213695
0.0212784
0.0212455
0.0209497
0.0188118
0.565981
0.547955
0.529318
0.511097
0.493011
0.474574
0.455815
0.436756
0.417363
0.397621
0.377523
0.35706
0.336229
0.315028
0.293467
0.271563
0.249342
0.22687
0.204223
0.18154
0.159017
0.136927
0.115619
0.0954346
0.0766694
0.0595191
0.0440355
0.0300971
0.0173156
0.0054754
0.564146
0.544689
0.525776
0.507314
0.489125
0.470677
0.45195
0.432944
0.413613
0.393938
0.373913
0.353526
0.332774
0.311656
0.290182
0.268373
0.246252
0.223893
0.201376
0.17885
0.156526
0.134683
0.113679
0.0938401
0.0754469
0.0586668
0.0435223
0.0298605
0.0172723
0.0055422
0.561523
0.541062
0.522063
0.503511
0.485283
0.466847
0.448156
0.429195
0.40992
0.39031
0.370353
0.35004
0.329368
0.308334
0.286949
0.265234
0.243215
0.220971
0.198586
0.176217
0.154085
0.132473
0.11174
0.0922051
0.074144
0.0577124
0.0429112
0.029548
0.0171736
0.00558039
0.558418
0.537396
0.518348
0.499736
0.481473
0.463056
0.444404
0.42549
0.406272
0.386723
0.366834
0.346592
0.325998
0.305046
0.283747
0.262125
0.240206
0.218076
0.195823
0.173613
0.151679
0.130308
0.109859
0.0906421
0.0729208
0.0568318
0.0423541
0.0292643
0.0170814
0.00560491
0.554975
0.533694
0.514628
0.49599
0.477707
0.459315
0.440703
0.421838
0.402674
0.383184
0.36336
0.343188
0.322668
0.301796
0.280581
0.259049
0.237231
0.215213
0.193094
0.171045
0.149313
0.128189
0.108032
0.0891411
0.0717666
0.0560202
0.0418539
0.0290153
0.0170016
0.00561948
0.55126
0.52996
0.510913
0.492279
0.473988
0.455626
0.437056
0.418238
0.399127
0.379693
0.359932
0.339827
0.319379
0.298585
0.277451
0.25601
0.234289
0.212383
0.190399
0.168516
0.14699
0.12612
0.10626
0.0877018
0.0706755
0.0552675
0.0414006
0.0287934
0.016931
0.00562512
0.547335
0.526198
0.507208
0.488606
0.470317
0.45199
0.433465
0.414692
0.395632
0.376254
0.356553
0.336512
0.316134
0.295413
0.27436
0.253006
0.231383
0.209589
0.187741
0.166027
0.144715
0.124105
0.104549
0.0863277
0.0696493
0.0545729
0.0409912
0.0285958
0.0168685
0.0056237
0.543256
0.522416
0.503517
0.484972
0.466699
0.448409
0.429928
0.411201
0.39219
0.372867
0.353223
0.333244
0.312932
0.292284
0.271309
0.25004
0.228513
0.206831
0.185123
0.163582
0.142488
0.122145
0.102902
0.0850216
0.0686896
0.0539368
0.040625
0.028422
0.0168137
0.00561751
0.539076
0.518623
0.499846
0.481381
0.463136
0.444882
0.426446
0.407765
0.388804
0.369533
0.349945
0.330025
0.309778
0.289199
0.268298
0.247112
0.225681
0.204113
0.182545
0.161183
0.140312
0.120244
0.101319
0.0837837
0.0677959
0.0533576
0.0402998
0.0282707
0.0167659
0.0056093
0.534842
0.514831
0.496202
0.477832
0.459628
0.441413
0.423021
0.404387
0.385473
0.366253
0.346719
0.326857
0.306672
0.28616
0.265331
0.244225
0.22289
0.201436
0.18001
0.158829
0.138189
0.118402
0.0998016
0.0826126
0.0669653
0.0528323
0.0400119
0.0281392
0.0167236
0.00559681
0.530593
0.51105
0.49259
0.474327
0.456175
0.438002
0.419655
0.401065
0.382199
0.363028
0.343546
0.323741
0.303616
0.283168
0.262407
0.241381
0.220141
0.198802
0.17752
0.156525
0.136121
0.116621
0.0983485
0.0815064
0.0661951
0.0523568
0.0397577
0.0280249
0.016686
0.00558291
0.526359
0.50729
0.489016
0.470869
0.452779
0.434649
0.416347
0.397802
0.378981
0.359858
0.340428
0.320678
0.30061
0.280224
0.259531
0.238582
0.217437
0.196213
0.175078
0.154272
0.134109
0.114901
0.0969605
0.0804644
0.0654829
0.0519276
0.0395338
0.0279254
0.0166524
0.00556871
0.522168
0.503561
0.485484
0.46746
0.44944
0.431357
0.413099
0.394596
0.37582
0.356745
0.337365
0.317669
0.297656
0.277329
0.256703
0.235832
0.214779
0.193671
0.172686
0.152076
0.132159
0.113247
0.0956394
0.079487
0.064827
0.0515421
0.0393377
0.0278391
0.0166227
0.00555501
0.518039
0.499872
0.482001
0.464105
0.446161
0.428126
0.409911
0.391451
0.372718
0.35369
0.334358
0.314713
0.294753
0.274485
0.253925
0.23313
0.21217
0.191179
0.170349
0.149939
0.130273
0.111662
0.0943873
0.0785737
0.0642278
0.0511982
0.0391671
0.0277643
0.0165964
0.00554238
0.513989
0.496235
0.478573
0.460806
0.442944
0.424958
0.406786
0.388367
0.369676
0.350693
0.331407
0.311811
0.291904
0.271694
0.251198
0.230478
0.209612
0.18874
0.168069
0.147864
0.128455
0.110148
0.0932058
0.0777261
0.0636825
0.0508934
0.0390196
0.0276998
0.0165732
0.00553115
0.510029
0.492657
0.475206
0.457566
0.43979
0.421854
0.403726
0.385346
0.366696
0.347756
0.328514
0.308966
0.28911
0.268956
0.248524
0.227877
0.207105
0.186355
0.165847
0.145853
0.126707
0.108706
0.0920955
0.0769429
0.0631892
0.0506247
0.0388924
0.0276438
0.0165529
0.00552148
0.506169
0.489148
0.471903
0.45439
0.436701
0.418816
0.400731
0.382391
0.36378
0.344881
0.325681
0.306178
0.286372
0.266272
0.245902
0.225328
0.20465
0.184025
0.163685
0.143906
0.125027
0.107337
0.0910554
0.0762217
0.0627447
0.0503888
0.0387829
0.0275951
0.0165351
0.00551343
0.502414
0.485715
0.468671
0.45128
0.433678
0.415846
0.397804
0.379502
0.360929
0.342069
0.322909
0.30345
0.283692
0.263643
0.243334
0.222832
0.20225
0.181752
0.161582
0.142024
0.123417
0.106039
0.0900822
0.0755614
0.0623458
0.0501823
0.0386887
0.0275525
0.01652
0.005507
0.498772
0.482365
0.465513
0.44824
0.430724
0.412945
0.394945
0.376681
0.358144
0.339322
0.320201
0.300784
0.28107
0.26107
0.240821
0.220391
0.199905
0.179537
0.159541
0.140209
0.121876
0.104811
0.0891758
0.0749576
0.0619893