/*--------------------------------*- C++ -*----------------------------------*\
  =========                 |
  \\      /  F ield         | OpenFOAM: The Open Source CFD Toolbox
   \\    /   O peration     | Website:  https://openfoam.org
    \\  /    A nd           | Version:  7
     \\/     M anipulation  |
\*---------------------------------------------------------------------------*/
FoamFile
{
    version     2.0;
    format      ascii;
    class       volScalarField;
    location    "46.3";
    object      p;
}
// * * * * * * * * * * * * * * * * * * * * * * * * * * * * * * * * * * * * * //

dimensions      [0 2 -2 0 0 0 0];

internalField   nonuniform List<scalar> 
2000
(
0.036127
0.0362111
0.0367094
0.0373882
0.0381846
0.0390404
0.0399188
0.0407914
0.0416367
0.0424552
0.0361112
0.0362872
0.0368406
0.0375696
0.0384015
0.0392786
0.0401558
0.0409987
0.041777
0.0424705
0.0359588
0.0362627
0.0368717
0.0376432
0.0384997
0.0393849
0.0402516
0.0410622
0.0417844
0.0423698
0.0356727
0.0361418
0.0368039
0.0376061
0.03847
0.0393427
0.0401794
0.0409437
0.0416085
0.0420992
0.0352617
0.0359332
0.0366426
0.037461
0.0383103
0.0391437
0.0399224
0.0406146
0.0412054
0.0416075
0.03475
0.035642
0.0363965
0.0372148
0.0380249
0.0387877
0.0394739
0.0400587
0.0405429
0.0408488
0.0341539
0.035286
0.0360772
0.0368773
0.0376211
0.0382795
0.0388349
0.0392718
0.0396055
0.0397893
0.0334986
0.0348797
0.0356961
0.0364575
0.0371068
0.0376259
0.0380115
0.0382607
0.0384011
0.038428
0.0328133
0.034438
0.0352646
0.035965
0.0364907
0.0368349
0.0370107
0.0370319
0.036946
0.0368037
0.0321303
0.0339775
0.0347961
0.0354129
0.0357876
0.0359235
0.0358467
0.0355814
0.0351935
0.0348399
0.0445045
0.048813
0.0536601
0.0590917
0.0642823
0.0692713
0.0730801
0.0770541
0.0786513
0.0806112
0.0440711
0.0478173
0.0518673
0.0567927
0.0616438
0.066387
0.0699596
0.0737596
0.0753234
0.077161
0.0434591
0.0468516
0.0500517
0.0544726
0.0590093
0.0635358
0.066919
0.0705781
0.0720749
0.0738439
0.0426202
0.0458788
0.0482225
0.0521474
0.0563888
0.060717
0.0639517
0.0674867
0.0689269
0.0706555
0.0415275
0.0448258
0.0463917
0.0498372
0.0538001
0.0579507
0.0610704
0.0645013
0.0659156
0.0676112
0.0401759
0.0435973
0.0445688
0.0475493
0.0512365
0.0552214
0.058246
0.0615866
0.0630027
0.0646849
0.0385878
0.04211
0.0427507
0.0453054
0.0487391
0.0525759
0.0555274
0.0587955
0.060226
0.0618918
0.0368228
0.0403243
0.040909
0.0430657
0.0462426
0.0499342
0.052828
0.0560325
0.0574983
0.0591791
0.034943
0.0382296
0.0390314
0.0409559
0.0439137
0.0474506
0.0502939
0.0534284
0.0549201
0.0565817
0.0331232
0.036007
0.0369422
0.0386673
0.0414129
0.0448134
0.0476388
0.050714
0.0523058
0.0539962
0.0302859
0.0329921
0.0344997
0.0356624
0.037388
0.03996
0.0425322
0.0451636
0.0468316
0.0481254
0.0201644
0.0220367
0.0235947
0.0255305
0.0279548
0.0308619
0.0335717
0.0360766
0.0377932
0.0388868
0.010594
0.0118852
0.013126
0.0151658
0.018085
0.0215629
0.0246142
0.0272358
0.0290237
0.0301511
0.0021616
0.00299557
0.00400782
0.00599168
0.00910897
0.0129546
0.016355
0.0191846
0.021051
0.022226
-0.00440008
-0.0039819
-0.0032072
-0.00138574
0.00167704
0.00556952
0.00911196
0.0120937
0.0140977
0.0153621
-0.0086301
-0.00857137
-0.00809714
-0.00651584
-0.00365491
7.0152e-05
0.00349961
0.00639876
0.00838628
0.00966748
-0.0102606
-0.0105359
-0.0104749
-0.00935485
-0.00695592
-0.00358562
-0.000385778
0.00234023
0.00417435
0.00533846
-0.00949462
-0.00988427
-0.0100852
-0.00952525
-0.0078832
-0.00525954
-0.0025747
-0.000136711
0.00141441
0.00243734
-0.00688389
-0.00730262
-0.00764231
-0.00746803
-0.00655189
-0.00484313
-0.00293732
-0.00108307
3.46512e-05
0.000839329
-0.00239079
-0.00273239
-0.00315965
-0.00340214
-0.00324297
-0.00256646
-0.00171807
-0.000773767
-0.000292189
0.000200522
0.0270536
0.0179001
0.00925587
0.00160388
-0.0043402
-0.00819046
-0.0096492
-0.00889453
-0.00640616
-0.00217234
0.0251105
0.0162335
0.00800471
0.00080657
-0.00469158
-0.00819048
-0.00942359
-0.00860707
-0.00616158
-0.00207521
0.0233234
0.0149473
0.00710171
0.000272796
-0.00487492
-0.00809619
-0.0091448
-0.00828005
-0.00589338
-0.00198951
0.0218329
0.0139565
0.00647623
-1.31037e-05
-0.00485116
-0.0078561
-0.00878628
-0.00791802
-0.00561314
-0.00191099
0.0207154
0.0132679
0.00611429
-8.52976e-05
-0.004655
-0.00749512
-0.00835392
-0.00751755
-0.00532183
-0.00183038
0.0199994
0.0128819
0.00601556
5.35609e-05
-0.0042884
-0.00701376
-0.00784761
-0.007087
-0.00501535
-0.00176843
0.0196737
0.0127956
0.00617979
0.000407272
-0.00377503
-0.00642768
-0.0072765
-0.00661801
-0.00469519
-0.0016985
0.0197286
0.0129979
0.00657804
0.000949104
-0.00311967
-0.00574468
-0.00664483
-0.00611256
-0.00435912
-0.00160717
0.0201487
0.0134527
0.00719472
0.00166078
-0.00234029
-0.00497651
-0.00595956
-0.00557369
-0.00400593
-0.00149802
0.0208707
0.0141372
0.00799993
0.00251634
-0.00145811
-0.00413723
-0.00522928
-0.00500527
-0.00363577
-0.00136666
0.0218166
0.0149958
0.00894995
0.0034808
-0.000497398
-0.00324267
-0.00446355
-0.00441231
-0.00325064
-0.00121819
0.0229353
0.0159848
0.0100102
0.00452833
0.000520757
-0.00230764
-0.00367251
-0.0038011
-0.0028542
-0.00105824
0.0241978
0.0170815
0.0111579
0.00564195
0.00157917
-0.0013451
-0.00286619
-0.00317861
-0.00245123
-0.000893286
0.0255726
0.0182644
0.0123694
0.00680494
0.00266234
-0.000367121
-0.00205383
-0.00255172
-0.00204603
-0.000728114
0.0270331
0.0195181
0.0136236
0.00800266
0.00375716
0.00061548
-0.00124354
-0.00192689
-0.00164248
-0.000566237
0.0285523
0.0208277
0.0148987
0.00922025
0.00485205
0.00159301
-0.000442093
-0.00130994
-0.00124389
-0.000410028
0.0300846
0.0221685
0.0161709
0.0104425
0.0059378
0.0025577
0.000345464
-0.000705362
-0.000852754
-0.000260704
0.0316279
0.0235682
0.0174622
0.0116828
0.00702275
0.00351122
0.00111818
-0.000115568
-0.00047052
-0.000118301
0.0333561
0.0252014
0.0188804
0.0130073
0.00814529
0.00447042
0.00188207
0.000460532
-9.61539e-05
1.74909e-05
0.0348375
0.026807
0.0202224
0.0142768
0.00923287
0.00539596
0.00262615
0.00102225
0.00027303
0.000144084
0.0347153
0.0284729
0.0220757
0.0164048
0.0113831
0.007379
0.00433904
0.00234346
0.00113823
0.000416595
0.0344542
0.0287358
0.0229251
0.0177696
0.0130882
0.00923467
0.00613463
0.0038813
0.00221978
0.000854952
0.0355672
0.0299672
0.0243002
0.0193022
0.0146899
0.0108214
0.00758653
0.00510518
0.00309979
0.00124718
0.0369338
0.0313239
0.0257133
0.0207631
0.0161296
0.0121847
0.0088041
0.0061382
0.0038785
0.00163503
0.0387324
0.032915
0.0272232
0.0221965
0.0174619
0.0133937
0.00986676
0.00705852
0.00461395
0.00203581
0.0409243
0.0347709
0.0288695
0.0236412
0.0187463
0.0145217
0.0108557
0.00792064
0.00531618
0.00242914
0.0433825
0.0368181
0.0305833
0.0250733
0.0200069
0.0156166
0.0118158
0.00872563
0.00591496
0.00268926
0.045744
0.0384867
0.0321205
0.0264355
0.0212291
0.016677
0.0127281
0.00939665
0.00625495
0.00268123
0.0476929
0.0406458
0.0338322
0.0276994
0.0222552
0.0175472
0.0134394
0.00980747
0.00627351
0.00244019
0.0492942
0.0411298
0.0341813
0.0281165
0.0227503
0.018042
0.0138521
0.0100165
0.00623478
0.00226714
0.0387937
0.0386777
0.039632
0.0408771
0.0428019
0.0451553
0.047743
0.0511105
0.0522808
0.0551908
0.0400389
0.0403773
0.041438
0.0427796
0.0448666
0.0473604
0.0501064
0.05339
0.0548505
0.0573214
0.0408515
0.0416438
0.0430152
0.0447094
0.0471339
0.0499182
0.0529457
0.0559873
0.0579248
0.0594415
0.0418014
0.0428255
0.0444234
0.0464742
0.0492185
0.0522939
0.0556031
0.0586496
0.0609169
0.061982
0.0428926
0.0441458
0.04591
0.0482371
0.0512194
0.0545173
0.0580521
0.0612781
0.0637622
0.0648734
0.0440069
0.0455691
0.0475491
0.0501279
0.0533068
0.0567824
0.060492
0.0639276
0.066583
0.0679329
0.045121
0.0470248
0.0492935
0.052148
0.0555356
0.0591949
0.0630679
0.0666861
0.0694914
0.0710569
0.0462621
0.0485007
0.0511024
0.0542533
0.0578789
0.0617528
0.0658101
0.069595
0.0725353
0.074232
0.0474488
0.0500079
0.0529687
0.0564157
0.0603024
0.0644166
0.0686883
0.0726478
0.0757165
0.0774835
0.0486862
0.0515469
0.0548955
0.0586246
0.0627905
0.0671558
0.0716675
0.0758197
0.0790195
0.080834
0.0499786
0.0531027
0.0568806
0.0608692
0.0653388
0.0699552
0.0747297
0.0790921
0.0824322
0.084293
0.0513275
0.0546483
0.0589119
0.0631303
0.0679399
0.0728045
0.0778669
0.0824544
0.085948
0.0878606
0.0527074
0.0561643
0.0609603
0.0653898
0.0705754
0.0757049
0.0810802
0.085907
0.0895715
0.091542
0.0540719
0.0576439
0.0629814
0.0676361
0.0732182
0.0786627
0.0843629
0.0894495
0.0933071
0.0953522
0.0553648
0.0590881
0.0649272
0.0698684
0.0758254
0.0817148
0.0877216
0.093089
0.0971543
0.0992806
0.056522
0.0605001
0.0667325
0.0721218
0.0784329
0.0847482
0.0911064
0.0967941
0.101095
0.103316
0.0574819
0.0618578
0.0684942
0.0743091
0.0810026
0.0877425
0.0945152
0.100565
0.10513
0.107469
0.0581415
0.0632276
0.0700726
0.0763288
0.0834322
0.0906282
0.0978738
0.104347
0.109231
0.111732
0.0585725
0.064529
0.0715019
0.0782462
0.0857868
0.093485
0.101238
0.108172
0.113418
0.11613
0.0585232
0.065351
0.07246
0.0796753
0.0876493
0.0959029
0.104264
0.11182
0.11759
0.120629
0.0604644
0.069247
0.0767236
0.084865
0.0937003
0.103036
0.11255
0.121312
0.128133
0.131886
0.0706647
0.0790584
0.0869816
0.0965416
0.10692
0.11804
0.129397
0.139846
0.147964
0.152356
0.0813833
0.090346
0.0993942
0.110595
0.122679
0.135817
0.149075
0.161127
0.170395
0.175423
0.0922742
0.102315
0.11309
0.126207
0.140334
0.155834
0.171058
0.184713
0.195031
0.200471
0.103385
0.114881
0.127693
0.142929
0.159409
0.177443
0.194631
0.20989
0.221134
0.227143
0.115121
0.128176
0.143203
0.160709
0.179739
0.200289
0.219387
0.23616
0.247997
0.253868
0.12696
0.141751
0.158941
0.178708
0.200273
0.223054
0.243981
0.26197
0.273979
0.280227
0.138671
0.155012
0.174237
0.19617
0.220106
0.244789
0.267659
0.286776
0.298415
0.302652
0.147475
0.165111
0.185873
0.209453
0.235152
0.261296
0.285975
0.306029
0.317358
0.322447
0.153731
0.172045
0.193874
0.2186
0.245501
0.272881
0.299483
0.322585
0.337226
0.325998
0.0576585
0.0671687
0.076674
0.0868062
0.0969903
0.108128
0.118941
0.130178
0.138218
0.144362
0.0572606
0.067098
0.0762659
0.0860985
0.0959266
0.106732
0.117072
0.127918
0.135278
0.14119
0.0575153
0.0678629
0.0769639
0.0866909
0.0963274
0.106813
0.116713
0.126937
0.133423
0.138836
0.0574681
0.0680147
0.077027
0.086723
0.0962203
0.106464
0.115999
0.125725
0.131638
0.136583
0.0573058
0.0678128
0.0766866
0.0862624
0.0955659
0.105543
0.114727
0.124067
0.12967
0.134284
0.0571478
0.0675642
0.0763742
0.0857695
0.0948466
0.104512
0.113332
0.122311
0.127695
0.132078
0.0569697
0.0672915
0.0761915
0.085402
0.0942951
0.103668
0.112149
0.120785
0.125957
0.130147
0.0567655
0.0670533
0.076017
0.0851323
0.0939108
0.103053
0.111277
0.119597
0.124587
0.128584
0.0565574
0.0668627
0.0758674
0.0849222
0.0936503
0.102613
0.110697
0.118706
0.123613
0.127393
0.0563763
0.0667302
0.0757798
0.0848041
0.0934952
0.10234
0.110344
0.118088
0.122996
0.126534
0.0562522
0.0666679
0.0757778
0.0848018
0.0934663
0.102242
0.110189
0.117751
0.122665
0.126015
0.0561741
0.0666575
0.0758537
0.0849112
0.0935744
0.102326
0.110239
0.117695
0.122601
0.125833
0.056102
0.0666625
0.0759861
0.0851146
0.0938154
0.102592
0.110508
0.117916
0.122817
0.12598
0.0560158
0.0666741
0.0761668
0.0854013
0.0941835
0.103035
0.110993
0.118409
0.123317
0.126443
0.055901
0.0666976
0.0763927
0.0857668
0.0946779
0.103651
0.111698
0.119173
0.124106
0.127213
0.0557231
0.0667252
0.0766454
0.0861946
0.0952822
0.10442
0.112604
0.120184
0.125163
0.12828
0.055446
0.066755
0.0769126
0.0866795
0.0959965
0.105346
0.113728
0.121449
0.126499
0.129643
0.0549717
0.06672
0.0771254
0.0871551
0.0967484
0.106354
0.114995
0.122905
0.128068
0.131294
0.0543771
0.06671
0.0773545
0.0876851
0.0976046
0.10751
0.116466
0.124596
0.129909
0.13324
0.0530888
0.0662129
0.0771724
0.0878526
0.0981417
0.108406
0.117793
0.126283
0.131885
0.135473
0.0536925
0.0675639
0.0789496
0.0902666
0.101345
0.112276
0.122499
0.131567
0.137816
0.141679
0.0641646
0.076864
0.0877729
0.0997361
0.111763
0.123909
0.135532
0.145797
0.152944
0.156951
0.0752101
0.087993
0.0994754
0.112634
0.125918
0.139771
0.153159
0.165013
0.173255
0.177554
0.0857496
0.0992567
0.112251
0.127267
0.14255
0.158986
0.174849
0.189066
0.199117
0.204148
0.0957714
0.110496
0.125599
0.142861
0.16083
0.180635
0.199807
0.217566
0.230645
0.237295
0.10555
0.12181
0.139442
0.159213
0.180554
0.204341
0.227759
0.250568
0.268719
0.279316
0.114568
0.132753
0.152781
0.175332
0.200531
0.228495
0.257251
0.287034
0.313295
0.332664
0.123143
0.143044
0.165441
0.190982
0.220032
0.252403
0.287911
0.326804
0.365851
0.403805
0.12802
0.14936
0.173633
0.201464
0.233785
0.270901
0.314153
0.364552
0.42448
0.49562
0.13152
0.155153
0.181199
0.211289
0.246984
0.289325
0.340912
0.405948
0.49568
0.613396
0.0492344
0.0587826
0.068134
0.0775958
0.0866947
0.0961166
0.103659
0.111936
0.116226
0.117806
0.0480819
0.0576075
0.0666588
0.0757058
0.0843293
0.0934112
0.100313
0.108402
0.112158
0.114286
0.0476359
0.0572988
0.0662747
0.0751289
0.0833357
0.0918874
0.0982196
0.105834
0.10894
0.112526
0.0470745
0.0565151
0.065225
0.0739405
0.0817898
0.0898481
0.0957207
0.10282
0.105425
0.109806
0.0465237
0.0554287
0.0637119
0.0720546
0.0795851
0.0871391
0.0925888
0.0991932
0.10139
0.105757
0.0460693
0.0543032
0.0621186
0.06994
0.0771194
0.0841561
0.0891963
0.0952898
0.0971153
0.101027
0.045694
0.0531811
0.0605182
0.0678428
0.0745808
0.0811497
0.0858594
0.0914113
0.0929368
0.0963119
0.0453773
0.0520548
0.0588722
0.065742
0.0720454
0.0781297
0.0826451
0.087661
0.089034
0.0919484
0.0450994
0.0509383
0.0571702
0.0635826
0.0694943
0.0751406
0.0794537
0.0840083
0.0854332
0.087952
0.0448254
0.0498529
0.0554284
0.0613589
0.0669055
0.0721879
0.0762552
0.0804664
0.0820128
0.0841945
0.0314861
0.0335186
0.0343103
0.0348234
0.0350272
0.0349341
0.0345794
0.0339819
0.0331641
0.0320828
0.0309289
0.0330917
0.0338364
0.034231
0.0342555
0.0339347
0.0333191
0.0324414
0.0313485
0.0300788
0.0305033
0.0327284
0.0334109
0.0336811
0.033531
0.0330002
0.0321581
0.0310572
0.029772
0.0283562
0.030258
0.0324688
0.03308
0.0332282
0.0329176
0.0322038
0.0311735
0.0298966
0.0284631
0.0269098
0.0302424
0.0323591
0.0328953
0.0329292
0.0324768
0.0316095
0.0304281
0.0290151
0.0274657
0.0257954
0.0305021
0.0324464
0.0329071
0.0328358
0.0322599
0.0312657
0.0299647
0.0284473
0.026807
0.0250434
0.0310743
0.0327737
0.0331579
0.0329878
0.032302
0.0312015
0.0298049
0.0282071
0.0264959
0.0246632
0.0319844
0.0333753
0.0336771
0.0334082
0.0326198
0.0314262
0.0299507
0.0282899
0.0265251
0.0246491
0.0332396
0.0342696
0.0344761
0.0341012
0.0332108
0.031931
0.0303869
0.028676
0.0268708
0.0249569
0.0348079
0.0354469
0.0355444
0.0350515
0.0340542
0.0326906
0.0310852
0.0293334
0.0274997
0.0255678
0.0366097
0.0368672
0.0368514
0.0362266
0.0351173
0.0336694
0.0320065
0.0302205
0.0283698
0.0264346
0.0386963
0.0385356
0.0383638
0.0375871
0.0363556
0.0348219
0.0331047
0.0312909
0.0294343
0.0275054
0.0409819
0.0403814
0.0400255
0.0390791
0.0377191
0.0360999
0.0343321
0.0324972
0.0306449
0.0287315
0.0433781
0.0423336
0.0417719
0.0406437
0.0391528
0.0374513
0.0356389
0.0337906
0.0319537
0.0300671
0.045797
0.0443162
0.0435344
0.0422196
0.0406011
0.0388244
0.0369761
0.035124
0.0333152
0.0314707
0.0481463
0.0462495
0.0452439
0.0437472
0.0420108
0.0401703
0.0382977
0.0364531
0.0346869
0.0329033
0.0503338
0.0480548
0.0468352
0.0451718
0.0433341
0.0414457
0.039563
0.0377385
0.0360277
0.0343213
0.0522729
0.0496595
0.0482499
0.0464463
0.0445311
0.0426151
0.0407398
0.0389463
0.0372945
0.0356742
0.0538865
0.0510001
0.0494395
0.0475338
0.0455725
0.0436538
0.0418032
0.0400423
0.0384342
0.0369228
0.0551105
0.0520248
0.050366
0.0484084
0.0464427
0.0445544
0.0427513
0.0410212
0.0394368
0.038087
0.0558968
0.052695
0.0510012
0.0490519
0.0471359
0.0453332
0.0436493
0.0420558
0.0406348
0.0397464
0.0562118
0.0529828
0.0513229
0.0494443
0.0476284
0.045948
0.0444055
0.042963
0.0416732
0.0408601
0.0560365
0.0528763
0.051321
0.0495738
0.047904
0.0463771
0.0449933
0.0437137
0.0425608
0.04177
0.0553775
0.0523807
0.0509985
0.0494413
0.0479626
0.0466235
0.0454247
0.0443318
0.0433507
0.0426549
0.0542634
0.0515176
0.0503721
0.0490602
0.0478166
0.0467007
0.045716
0.044834
0.0440511
0.0435024
0.0527413
0.0503226
0.0494703
0.0484547
0.0474877
0.0466286
0.045886
0.0452378
0.0446734
0.0442984
0.050873
0.0488432
0.0483309
0.0476563
0.0470032
0.0464319
0.0459568
0.0455632
0.0452375
0.0450578
0.0487304
0.0471343
0.0469977
0.0467008
0.0463937
0.0461366
0.0459507
0.0458299
0.0457613
0.0457997
0.0463911
0.0452541
0.0455165
0.0456248
0.045689
0.0457676
0.0458885
0.0460551
0.0462583
0.0465359
0.0439494
0.0432661
0.0439345
0.0444644
0.0449176
0.0453474
0.0457881
0.0462524
0.0467382
0.0472724
0.0415288
0.041249
0.0423049
0.0432572
0.044107
0.0448966
0.0456648
0.046433
0.0472072
0.0480114
0.0390827
0.0392124
0.0406513
0.0420249
0.0432745
0.0444278
0.0455268
0.0466008
0.0476643
0.048747
0.0366896
0.0372087
0.0390101
0.0407926
0.0424371
0.0439516
0.0453796
0.0467562
0.0481026
0.0494631
0.0344138
0.0352839
0.0374136
0.039581
0.0416071
0.0434742
0.0452239
0.0468949
0.0485106
0.0501362
0.0322894
0.0334743
0.0358858
0.0384056
0.0407927
0.042998
0.0450574
0.0470102
0.0488757
0.0507399
0.0303525
0.0318111
0.0344338
0.0372781
0.039999
0.0425226
0.0448757
0.0470955
0.0491883
0.0512484
0.0286209
0.0303022
0.0330913
0.0362034
0.0392284
0.0420467
0.0446744
0.0471469
0.0494504
0.0516461
0.0271053
0.028959
0.0318654
0.0351943
0.0384813
0.0415676
0.0444487
0.0471606
0.0496743
0.0519411
0.0258109
0.0277905
0.0307611
0.0342524
0.037759
0.0410831
0.0441977
0.0471381
0.0498748
0.0522526
0.024738
0.026801
0.0297832
0.0333795
0.0370588
0.0405859
0.0439081
0.0470578
0.0500348
0.0526899
0.0238784
0.0259878
0.0289334
0.0325767
0.0363779
0.0400705
0.0435774
0.0469354
0.0502816
0.0536156
0.0231974
0.0253368
0.0282086
0.0318443
0.0357115
0.0395155
0.0431455
0.0465964
0.0499767
0.0532851
0.0227069
0.0248511
0.0276121
0.0311865
0.0350625
0.0389213
0.0426182
0.0461102
0.0494635
0.0526788
0.0224011
0.0245251
0.0271443
0.03061
0.0344443
0.0383139
0.0420482
0.0455839
0.0489626
0.0521578
0.0222644
0.0243479
0.0268035
0.030122
0.033872
0.0377178
0.0414686
0.0450438
0.0484656
0.0516809
0.0222804
0.0243075
0.0265861
0.0297276
0.0333572
0.0371475
0.0408923
0.0444921
0.0479485
0.0511988
0.0224327
0.0243909
0.0264864
0.0294293
0.0329079
0.0366134
0.04033
0.0439385
0.047419
0.0507064
0.022704
0.0245838
0.0264966
0.0292271
0.0325303
0.0361251
0.0397924
0.0433955
0.0468915
0.0502142
0.0230777
0.0248709
0.0266062
0.0291181
0.032228
0.03569
0.0392887
0.0428731
0.0463772
0.0497339
0.0235463
0.025243
0.0268072
0.0290989
0.0320025
0.0353127
0.0388248
0.0423775
0.0458831
0.0492748
0.0241167
0.0257058
0.0271041
0.0291752
0.0318615
0.035002
0.0384088
0.0419154
0.0454143
0.0488415
0.0247208
0.0262077
0.0274583
0.0293219
0.0317922
0.0347531
0.0380399
0.041487
0.0449693
0.0484268
0.0253609
0.0267479
0.0278652
0.0295342
0.0317915
0.0345653
0.0377177
0.04109
0.0445421
0.048016
0.0260338
0.027321
0.0283173
0.0298048
0.0318546
0.0344356
0.0374401
0.0407211
0.0441263
0.0475982
0.0267314
0.0279181
0.028805
0.0301252
0.0319756
0.0343614
0.0372057
0.0403783
0.0437172
0.0471636
0.0274462
0.0285313
0.0293196
0.0304874
0.0321492
0.0343404
0.0370145
0.0400613
0.0433106
0.0466995
0.0281723
0.0291545
0.0298542
0.0308849
0.0323706
0.0343707
0.0368674
0.0397724
0.0429071
0.0461959
0.028905
0.029783
0.0304034
0.031312
0.0326358
0.0344515
0.0367664
0.0395173
0.0425148
0.0456485
0.0296402
0.030413
0.0309629
0.0317644
0.0329419
0.0345824
0.0367153
0.0393074
0.0421637
0.0450978
0.0303742
0.0310413
0.0315294
0.0322387
0.0332861
0.0347629
0.0367139
0.0391393
0.0418782
0.0446137
0.0311031
0.0316644
0.0320991
0.0327307
0.0336649
0.0349925
0.036768
0.0390308
0.0417955
0.0447519
0.0318211
0.0322768
0.0326677
0.0332373
0.0340758
0.0352663
0.0368617
0.0388961
0.041412
0.0441775
0.0325227
0.0328762
0.0332333
0.0337564
0.0345169
0.0355844
0.0370056
0.0388061
0.0410266
0.0435248
0.0331998
0.0334572
0.0337914
0.0342843
0.0349868
0.0359525
0.037221
0.0388188
0.0407871
0.0430192
0.0338419
0.0340123
0.0343356
0.034815
0.0354811
0.0363697
0.0375116
0.0389333
0.0406755
0.0426552
0.0344353
0.0345325
0.0348572
0.0353398
0.0359906
0.0368272
0.0378687
0.0391375
0.0406705
0.0424127
0.0349651
0.0350071
0.0353458
0.0358471
0.0365023
0.0373106
0.038278
0.0394193
0.0407633
0.0422829
0.0354148
0.0354239
0.0357885
0.0363223
0.036999
0.0378
0.0387184
0.0397587
0.0409384
0.0422524
0.0357674
0.0357703
0.0361715
0.0367481
0.0374601
0.0382705
0.0391616
0.0401261
0.0411684
0.0422966
0.0360082
0.0360353
0.0364817
0.0371062
0.0378645
0.0386937
0.0395736
0.0404842
0.0414159
0.0423791
)
;

boundaryField
{
    inlet
    {
        type            zeroGradient;
    }
    outlet
    {
        type            fixedValue;
        value           uniform 0;
    }
    cylinder
    {
        type            zeroGradient;
    }
    top
    {
        type            symmetryPlane;
    }
    bottom
    {
        type            symmetryPlane;
    }
    defaultFaces
    {
        type            empty;
    }
}


// ************************************************************************* //
