/*--------------------------------*- C++ -*----------------------------------*\
  =========                 |
  \\      /  F ield         | OpenFOAM: The Open Source CFD Toolbox
   \\    /   O peration     | Website:  https://openfoam.org
    \\  /    A nd           | Version:  7
     \\/     M anipulation  |
\*---------------------------------------------------------------------------*/
FoamFile
{
    version     2.0;
    format      ascii;
    class       volVectorField;
    location    "28";
    object      U;
}
// * * * * * * * * * * * * * * * * * * * * * * * * * * * * * * * * * * * * * //

dimensions      [0 1 -1 0 0 0 0];

internalField   nonuniform List<vector> 
2000
(
(0.00143003 0.00554789 3.47525e-23)
(0.00671675 0.0369172 0)
(0.0150812 0.0777605 0)
(0.0224303 0.120332 -2.56216e-22)
(0.0277835 0.160735 1.72269e-22)
(0.031098 0.197804 1.02614e-22)
(0.0329496 0.231806 -3.07956e-22)
(0.0340479 0.263218 0)
(0.0348222 0.291964 0)
(0.035366 0.317284 0)
(0.00136309 0.00337774 0)
(0.00540495 0.0318743 -1.24887e-22)
(0.0128441 0.071256 1.15162e-22)
(0.0198846 0.113712 3.36677e-22)
(0.0254744 0.154921 0)
(0.0292574 0.193066 8.43656e-22)
(0.0315303 0.227925 -7.84538e-22)
(0.0328703 0.259829 0)
(0.0337152 0.288867 2.46981e-21)
(0.0342089 0.314597 -5.09247e-21)
(0.00153743 0.00107331 0)
(0.00452149 0.0260911 2.06412e-21)
(0.0109165 0.0631818 0)
(0.0174686 0.104728 3.02481e-21)
(0.023196 0.146227 0)
(0.0274943 0.185287 -3.95488e-21)
(0.0303483 0.221117 0)
(0.0321287 0.253753 4.93083e-21)
(0.0332227 0.283326 -4.61803e-21)
(0.0337765 0.309655 -5.51105e-21)
(0.00194041 -0.00120001 -5.31373e-22)
(0.00410905 0.0198869 -8.45654e-22)
(0.00938786 0.0538712 -6.58017e-22)
(0.0152443 0.0935765 -1.131e-21)
(0.0209085 0.134607 -1.74912e-21)
(0.0256509 0.174196 1.64149e-21)
(0.0291742 0.210992 2.1509e-21)
(0.0315885 0.244599 -1.46854e-22)
(0.0331516 0.275017 4.98968e-21)
(0.0339219 0.302157 5.49619e-21)
(0.00252527 -0.00328058 -6.32309e-22)
(0.00416483 0.0136156 -1.85151e-21)
(0.00833779 0.0437794 -4.47733e-21)
(0.0133186 0.0806576 1.89941e-21)
(0.0186509 0.120232 0)
(0.0236302 0.159638 0)
(0.0277771 0.19711 -5.42491e-21)
(0.0309479 0.231786 -5.63379e-21)
(0.0332101 0.263361 5.67637e-21)
(0.0343972 0.291566 1.79227e-20)
(0.00322231 -0.00502774 9.63657e-22)
(0.00465383 0.00763206 1.33027e-21)
(0.00783918 0.0334499 -7.59699e-21)
(0.0118476 0.0665861 1.28325e-20)
(0.0165744 0.10358 -2.3842e-21)
(0.0214714 0.141753 0)
(0.0260206 0.179181 0)
(0.0299104 0.214652 2.89425e-20)
(0.0330281 0.247509 -2.87358e-20)
(0.0347985 0.276977 5.95912e-21)
(0.00395532 -0.00634351 9.13246e-21)
(0.00553158 0.00225077 0)
(0.00797052 0.0234642 9.65083e-21)
(0.0110375 0.0521633 -1.02518e-20)
(0.0149575 0.0854971 0)
(0.0194154 0.121174 6.04646e-21)
(0.0239918 0.157386 -1.7689e-20)
(0.028351 0.192808 -2.38459e-20)
(0.0323211 0.226579 1.14737e-20)
(0.0346027 0.257106 1.17226e-20)
(0.00466456 -0.0071819 -1.96567e-20)
(0.00677685 -0.002275 -2.93613e-21)
(0.00883975 0.014398 -6.30372e-21)
(0.0111515 0.0383193 -1.52891e-20)
(0.0142037 0.0671816 -6.39834e-21)
(0.0179312 0.0991447 -6.81194e-21)
(0.022104 0.132702 -5.93093e-22)
(0.026518 0.166665 0)
(0.0311594 0.200273 0)
(0.0335607 0.23085 -5.0211e-22)
(0.00533125 -0.00755364 1.05246e-20)
(0.00842256 -0.00576953 -1.2684e-20)
(0.0106064 0.00677314 8.74356e-21)
(0.0125119 0.0260232 2.23248e-20)
(0.0148198 0.0500728 -6.26832e-21)
(0.0176859 0.0774648 6.07781e-21)
(0.0211043 0.107029 6.38427e-21)
(0.0251346 0.137856 0)
(0.0301958 0.16951 0)
(0.0323841 0.197739 2.96626e-22)
(0.00599629 -0.00752021 -1.53344e-21)
(0.0105735 -0.00814185 1.61671e-20)
(0.0134855 0.00100825 -3.20977e-21)
(0.0154842 0.016168 0)
(0.0173653 0.0356617 0)
(0.0194488 0.0582675 1.34182e-20)
(0.0219227 0.0830484 0)
(0.0251272 0.109298 -1.31707e-20)
(0.0301532 0.136647 9.13768e-23)
(0.0337203 0.15941 1.1586e-20)
(0.0373071 0.364055 3.07695e-22)
(0.025179 0.404326 -3.11564e-22)
(0.0234567 0.42291 -4.75535e-22)
(0.0183858 0.431237 -5.78327e-22)
(0.0122532 0.436553 -7.13665e-22)
(0.00841104 0.445725 -2.32729e-23)
(-0.000940305 0.473566 3.77476e-22)
(0.00191016 0.550602 1.28474e-21)
(-0.0122569 0.704717 0)
(0.00460067 0.888117 -9.17571e-22)
(0.0359964 0.363293 8.10578e-22)
(0.0254941 0.404573 -1.67938e-21)
(0.0232646 0.423408 3.09824e-21)
(0.0182834 0.432231 5.79374e-22)
(0.0121036 0.437861 1.28091e-21)
(0.00820845 0.447072 2.17485e-21)
(-0.00112016 0.474328 -7.98016e-22)
(0.00144362 0.5511 -8.59404e-22)
(-0.012184 0.703909 1.68124e-21)
(0.00400969 0.886382 9.15389e-22)
(0.0354938 0.361019 0)
(0.0264541 0.404291 -1.45899e-21)
(0.023616 0.423889 -9.32762e-22)
(0.0186074 0.433237 0)
(0.0122787 0.439138 -3.93776e-21)
(0.00826996 0.448228 1.24058e-21)
(-0.00107644 0.474766 1.39913e-21)
(0.00109844 0.550839 4.73889e-21)
(-0.0120576 0.702696 -1.6758e-21)
(0.00349162 0.884558 3.36615e-21)
(0.0356797 0.357059 0)
(0.0279225 0.403267 1.47175e-21)
(0.0244386 0.424103 0)
(0.0193159 0.434133 4.5539e-21)
(0.0127682 0.440328 -4.57654e-21)
(0.00861052 0.449236 -2.79223e-21)
(-0.000811499 0.474833 -1.4546e-22)
(0.000927382 0.549717 -4.64752e-21)
(-0.0118253 0.700709 -7.67395e-22)
(0.00303652 0.882142 -4.15041e-21)
(0.0363781 0.351242 1.26958e-21)
(0.0297784 0.401674 -3.26987e-21)
(0.0256994 0.424379 6.26862e-22)
(0.020356 0.435131 -3.81797e-21)
(0.0135007 0.441533 0)
(0.00914942 0.450167 -2.68816e-21)
(-0.000412024 0.474621 -1.80584e-22)
(0.000865951 0.548143 5.91737e-21)
(-0.0115711 0.698662 7.68177e-22)
(0.00260575 0.879884 -7.70932e-22)
(0.0374359 0.342976 -8.76929e-21)
(0.031873 0.398502 6.41971e-21)
(0.0272976 0.423869 3.70059e-21)
(0.0217306 0.435776 -3.69709e-21)
(0.0145544 0.442589 -2.21288e-21)
(0.00998523 0.45097 0)
(0.000228592 0.474038 -5.38197e-21)
(0.00103604 0.545688 2.68924e-21)
(-0.0111956 0.695372 2.87321e-21)
(0.00221225 0.876729 2.93544e-21)
(0.0384684 0.332179 -1.07129e-21)
(0.0341766 0.395176 0)
(0.0292319 0.423934 0)
(0.023281 0.436813 0)
(0.0156808 0.443816 -2.37333e-21)
(0.0108513 0.451823 4.5778e-21)
(0.000876888 0.473469 5.26871e-21)
(0.00121006 0.54343 -8.11303e-21)
(-0.0108914 0.692816 1.40541e-21)
(0.00181244 0.874376 -4.29915e-21)
(0.0393052 0.316356 6.12618e-21)
(0.0363882 0.387866 5.94384e-21)
(0.0313578 0.42158 -5.88579e-21)
(0.025279 0.436764 7.99183e-21)
(0.0173423 0.444633 -9.97288e-21)
(0.0122264 0.452444 0)
(0.00195223 0.472313 -2.40967e-21)
(0.00175038 0.539563 9.96226e-23)
(-0.0103761 0.687852 -2.59111e-21)
(0.00146763 0.870381 -2.66578e-21)
(0.0392846 0.299516 -5.11404e-21)
(0.0387827 0.383815 0)
(0.0335418 0.421944 -7.5718e-21)
(0.0268995 0.438167 1.44602e-20)
(0.0184799 0.446128 -5.56205e-21)
(0.0130935 0.453535 -1.0897e-21)
(0.00263696 0.472057 2.40456e-21)
(0.00199348 0.537762 2.39681e-23)
(-0.0101201 0.685842 3.77265e-21)
(0.00107651 0.868525 3.89001e-21)
(0.0394519 0.266127 -4.66079e-21)
(0.0404132 0.3664 4.52777e-21)
(0.0361791 0.415019 7.42041e-22)
(0.029956 0.4365 0)
(0.0212101 0.44635 0)
(0.0153995 0.453743 1.04914e-21)
(0.00444263 0.46972 4.48996e-21)
(0.00307711 0.531257 -4.38014e-21)
(-0.00937408 0.678073 -1.14375e-21)
(0.000796413 0.863209 1.10255e-21)
(0.0378514 0.247319 0)
(0.0481979 0.366813 0)
(0.0395403 0.420805 0)
(0.0304739 0.442727 0)
(0.0208612 0.451944 0)
(0.0149642 0.459007 0)
(0.00457466 0.474204 0)
(0.00277663 0.535328 0)
(-0.00941556 0.679894 0)
(-0.000208766 0.862406 0)
(0.038266 0.24085 0)
(0.057377 0.366035 0)
(0.0509297 0.428364 0)
(0.0407295 0.453514 0)
(0.0284732 0.462372 0)
(0.0199061 0.467939 0)
(0.00890111 0.481397 0)
(0.00594754 0.540499 0)
(-0.00587302 0.678879 0)
(0.000289049 0.850981 0)
(0.0408368 0.244005 0)
(0.0574242 0.369498 0)
(0.0495995 0.437913 0)
(0.0396015 0.464754 0)
(0.0284664 0.472917 0)
(0.0200136 0.476766 0)
(0.00924608 0.489207 0)
(0.00513368 0.5485 0)
(-0.00628159 0.687224 0)
(-0.000877104 0.85803 0)
(0.0407528 0.241078 0)
(0.0572557 0.364681 0)
(0.0533565 0.44225 0)
(0.0426904 0.473042 0)
(0.0309136 0.482129 0)
(0.0228062 0.485915 0)
(0.0135079 0.497873 0)
(0.00951926 0.554049 0)
(-0.00115405 0.684559 0)
(0.000173592 0.842338 0)
(0.0372271 0.245721 0)
(0.0445161 0.364705 0)
(0.043981 0.449708 0)
(0.0374401 0.48353 0)
(0.0277658 0.491096 0)
(0.0202355 0.49239 0)
(0.0114012 0.504224 0)
(0.00669706 0.56344 0)
(-0.0029918 0.698806 0)
(-0.000263883 0.858231 0)
(0.0313971 0.242558 0)
(0.039043 0.361439 0)
(0.0371782 0.450509 0)
(0.0321956 0.489823 0)
(0.0257447 0.500403 0)
(0.0212714 0.50202 0)
(0.015076 0.512854 0)
(0.0110302 0.568062 0)
(0.000536503 0.693505 0)
(-0.000425804 0.83937 0)
(0.0170896 0.244415 0)
(0.0196511 0.361042 0)
(0.022711 0.454319 0)
(0.0205459 0.493107 0)
(0.0170718 0.501873 0)
(0.0152058 0.502048 0)
(0.0113701 0.514698 0)
(0.00855617 0.575892 0)
(0.00142173 0.7092 0)
(0.00155133 0.858232 0)
(0.0120711 0.248488 0)
(0.00924511 0.360376 0)
(0.0112243 0.453343 0)
(0.0113166 0.495988 0)
(0.0101392 0.506383 0)
(0.0101082 0.507755 0)
(0.00805544 0.521528 0)
(0.00501772 0.580292 0)
(-0.00328474 0.703148 0)
(-0.00202264 0.841871 0)
(-0.00441894 0.245112 0)
(-0.00445498 0.359059 0)
(-0.00163217 0.451001 0)
(0.0024189 0.49375 0)
(0.00476594 0.502899 0)
(0.00734708 0.502803 0)
(0.00798172 0.518328 0)
(0.00807598 0.584124 0)
(0.00425965 0.715462 0)
(-6.89554e-05 0.853307 0)
(-0.00629253 0.259851 0)
(-0.0130146 0.36032 0)
(-0.0114837 0.446405 0)
(-0.00888748 0.488928 0)
(-0.00790468 0.501452 0)
(-0.00824501 0.504655 0)
(-0.0106439 0.52144 0)
(-0.0114172 0.583846 0)
(-0.00827669 0.709675 0)
(-0.00218254 0.843411 0)
(0.0410573 0.145338 3.62839e-21)
(0.0504635 0.167407 -3.57168e-21)
(0.0556556 0.191675 1.71915e-22)
(0.0526314 0.20346 0)
(0.0446029 0.211886 0)
(0.0337591 0.207836 -1.85576e-22)
(0.0197216 0.208295 7.52014e-22)
(0.0119663 0.20709 -7.39078e-22)
(-0.000446978 0.205277 -7.31285e-23)
(0.000732873 0.219998 7.11099e-23)
(0.051109 0.120941 -4.84069e-21)
(0.0583637 0.150963 0)
(0.0596229 0.179046 3.14774e-22)
(0.0532183 0.192385 1.27158e-22)
(0.0431253 0.199808 -8.77511e-22)
(0.0315183 0.194522 1.81392e-22)
(0.0184997 0.19413 -4.01696e-22)
(0.0109945 0.190597 -6.23399e-22)
(0.000942922 0.18997 -6.36792e-24)
(0.00280395 0.202462 1.42093e-23)
(0.0627343 0.113322 5.27441e-21)
(0.0669399 0.146872 -1.42725e-21)
(0.0638511 0.173054 1.41355e-21)
(0.0538726 0.184096 8.86903e-22)
(0.0414025 0.188597 -5.9543e-22)
(0.0289872 0.181527 0)
(0.0169081 0.179866 4.02625e-22)
(0.00999908 0.174093 3.14411e-24)
(0.00227336 0.174643 2.19205e-22)
(0.00459564 0.183151 5.44324e-23)
(0.0750438 0.114426 -7.80547e-22)
(0.0746845 0.146478 0)
(0.0670996 0.16729 0)
(0.0538268 0.174414 0)
(0.0393571 0.175579 -1.20406e-21)
(0.0264196 0.167035 8.07337e-22)
(0.0152269 0.164089 -4.15402e-23)
(0.00902274 0.156506 3.01729e-22)
(0.00335197 0.15762 6.55092e-23)
(0.00589139 0.161183 -1.10178e-23)
(0.0866638 0.117051 -1.07715e-21)
(0.0804968 0.1432 -1.64334e-21)
(0.068701 0.157085 3.09598e-22)
(0.0526922 0.160179 -3.09361e-22)
(0.0367868 0.158538 3.91036e-22)
(0.0236941 0.149302 0)
(0.0133462 0.145368 4.21904e-22)
(0.00793573 0.136595 -6.08611e-22)
(0.00389488 0.137415 2.68787e-22)
(0.00648126 0.136065 -5.45829e-23)
(0.0958099 0.115357 -4.0393e-21)
(0.0838249 0.133119 1.12542e-21)
(0.0687317 0.140032 5.40137e-22)
(0.0507689 0.139875 -4.71442e-22)
(0.0339948 0.136342 0)
(0.0209743 0.127249 0)
(0.0113553 0.122731 0)
(0.00667958 0.113393 -3.31336e-22)
(0.00378535 0.113249 0)
(0.00637374 0.107934 0)
(0.101438 0.105782 0)
(0.0847124 0.114907 -6.84192e-23)
(0.0675369 0.115797 1.12616e-22)
(0.0484365 0.113527 9.07917e-22)
(0.031302 0.108982 -9.12555e-22)
(0.0184491 0.100661 -4.70664e-22)
(0.00937507 0.0959324 5.26718e-22)
(0.00524171 0.0865881 1.17095e-21)
(0.00308023 0.0853086 -9.91299e-23)
(0.00571849 0.0775736 2.54223e-23)
(0.103441 0.0874559 0)
(0.0836185 0.0893814 -4.32754e-23)
(0.0655652 0.0855996 1.40966e-22)
(0.0460143 0.0822895 0)
(0.0289084 0.0773421 -2.54373e-22)
(0.0162193 0.0701354 7.86479e-22)
(0.00748429 0.065511 -6.24667e-22)
(0.00367675 0.0567036 -1.36708e-22)
(0.00198557 0.0546809 8.79138e-23)
(0.00474816 0.0462281 -5.61526e-23)
(0.10237 0.0618123 4.22049e-22)
(0.0811361 0.0587485 -1.79743e-22)
(0.0632092 0.0515342 -3.7218e-23)
(0.0437178 0.0479442 -1.22852e-22)
(0.026884 0.0428845 -2.66477e-22)
(0.0143243 0.0369106 -3.92266e-22)
(0.0057521 0.0326964 1.07145e-22)
(0.00213176 0.0250047 7.80843e-23)
(0.000788819 0.0230043 -8.82013e-23)
(0.0036985 0.0152911 -1.38865e-23)
(0.0990139 0.0315524 -1.46371e-23)
(0.0778151 0.0257083 1.48175e-23)
(0.0607121 0.0159199 7.7896e-23)
(0.0416595 0.0124511 1.22664e-22)
(0.0252058 0.00734917 -1.32679e-22)
(0.0128052 0.00262703 2.64783e-22)
(0.00426007 -0.000827805 -1.52825e-22)
(0.000815104 -0.00682706 -3.21062e-23)
(-0.000278165 -0.00800504 0)
(0.00260097 -0.0140191 1.38655e-23)
(0.0941898 -0.000456193 1.2319e-23)
(0.0741446 -0.00726442 -1.24543e-23)
(0.0582205 -0.019147 7.80609e-23)
(0.039852 -0.0223481 1.20558e-22)
(0.023844 -0.0274935 1.30171e-22)
(0.0116646 -0.0309382 -5.93002e-24)
(0.00315831 -0.0332739 -5.75413e-23)
(-9.92599e-05 -0.0371281 -1.17866e-22)
(-0.000985805 -0.0369581 0)
(0.00185027 -0.0409294 1.24773e-23)
(0.0886533 -0.0318703 0)
(0.0704383 -0.0382704 1.96909e-22)
(0.055822 -0.0519946 -4.20359e-22)
(0.0382714 -0.0549106 -1.20733e-22)
(0.0227988 -0.0600515 -2.50899e-22)
(0.010923 -0.062199 -3.65698e-22)
(0.00257845 -0.0631382 1.01855e-22)
(-0.000517993 -0.0646793 7.30326e-23)
(-0.00122874 -0.0630395 -7.7153e-23)
(0.00132249 -0.0651438 -1.24424e-23)
(0.0829112 -0.0610235 0)
(0.0668423 -0.0661202 4.24958e-23)
(0.0535292 -0.0814655 1.44213e-22)
(0.0369349 -0.084136 0)
(0.0220754 -0.089134 7.28257e-22)
(0.0106444 -0.0900388 -2.39956e-22)
(0.00254392 -0.0894797 -2.08895e-22)
(-0.000427963 -0.0889114 -4.35242e-22)
(-0.00111421 -0.0860483 7.69009e-23)
(0.000979478 -0.0867582 -4.5268e-23)
(0.0772919 -0.0869334 0)
(0.0634804 -0.090337 -4.28463e-23)
(0.0513263 -0.106913 0)
(0.0358814 -0.109469 -8.55484e-22)
(0.0216723 -0.114104 8.59947e-22)
(0.0108335 -0.11398 4.00867e-22)
(0.00301619 -0.112032 -3.02624e-23)
(0.000125325 -0.109866 4.22661e-22)
(-0.000748125 -0.106247 7.88888e-23)
(0.00077433 -0.106102 6.89155e-23)
(0.0720359 -0.10924 2.86351e-21)
(0.0604231 -0.111027 -1.02094e-21)
(0.0492354 -0.12818 -3.86468e-22)
(0.0351208 -0.130905 5.38039e-22)
(0.0215688 -0.134913 0)
(0.0114152 -0.134162 3.75472e-22)
(0.00387297 -0.131109 -8.1771e-23)
(0.000980065 -0.128013 -5.50514e-22)
(-0.000220636 -0.124121 -2.29594e-23)
(0.000648502 -0.12358 2.29449e-23)
(0.0672864 -0.128053 1.25393e-21)
(0.057727 -0.128729 1.13963e-21)
(0.0473098 -0.145517 -4.34352e-22)
(0.0346254 -0.148884 4.34114e-22)
(0.0217178 -0.151996 3.56739e-22)
(0.0122544 -0.151157 0)
(0.00494609 -0.147351 5.86935e-22)
(0.00192135 -0.144002 -3.20404e-22)
(0.000331473 -0.140212 -1.84638e-22)
(0.000556165 -0.139584 -3.98157e-23)
(0.0631375 -0.143745 -5.72418e-22)
(0.0554923 -0.144246 0)
(0.0456332 -0.15947 0)
(0.0343462 -0.164107 0)
(0.0220598 -0.166077 3.26209e-22)
(0.0131995 -0.165726 -6.82064e-22)
(0.00608244 -0.161493 -5.68858e-22)
(0.00281643 -0.158454 6.9923e-22)
(0.000815117 -0.154995 -4.19015e-23)
(0.000474873 -0.154464 8.08874e-23)
(0.0594907 -0.156713 -1.72169e-21)
(0.0537188 -0.15846 4.33636e-22)
(0.0442296 -0.170744 -4.2959e-22)
(0.0341908 -0.177327 -1.00841e-21)
(0.0225413 -0.177961 1.27551e-21)
(0.0141415 -0.178606 0)
(0.00718661 -0.174204 2.66772e-22)
(0.00359816 -0.17187 -1.24579e-23)
(0.00122069 -0.168836 1.19156e-22)
(0.000399304 -0.168497 3.57672e-23)
(0.055497 -0.167104 -6.87772e-22)
(0.0517972 -0.17217 0)
(0.0428341 -0.180119 1.48901e-22)
(0.0339188 -0.189217 -1.00723e-21)
(0.0230715 -0.188406 5.28321e-22)
(0.0150216 -0.190393 1.32851e-22)
(0.00824835 -0.185995 -2.66165e-22)
(0.00427449 -0.184601 -4.40735e-23)
(0.00157321 -0.181998 -2.32949e-22)
(0.000335758 -0.181904 -7.21335e-23)
(0.0516843 -0.174495 -2.56922e-21)
(0.0495789 -0.186016 2.50371e-21)
(0.0415351 -0.188483 4.54223e-23)
(0.0333949 -0.200351 0)
(0.0234547 -0.198076 0)
(0.0156313 -0.20153 -1.36925e-22)
(0.0091435 -0.197225 -4.26087e-22)
(0.00480835 -0.196863 4.18032e-22)
(0.0018753 -0.194657 3.58905e-23)
(0.000283322 -0.194857 -3.50898e-23)
(0.056691 -0.183151 0)
(0.0510513 -0.218173 0)
(0.0428669 -0.207411 0)
(0.0335132 -0.225715 0)
(0.0240262 -0.22043 0)
(0.0158848 -0.227517 0)
(0.00993228 -0.223659 0)
(0.00501147 -0.225747 0)
(0.00211129 -0.224176 0)
(0.000132959 -0.224908 0)
(0.0460451 -0.234148 0)
(0.0389513 -0.266554 0)
(0.0348243 -0.254245 0)
(0.0269386 -0.271888 0)
(0.0209487 -0.265816 0)
(0.0142999 -0.274437 0)
(0.0096269 -0.271063 0)
(0.00480257 -0.27469 0)
(0.00242211 -0.272735 0)
(-9.41137e-06 -0.273982 0)
(0.0428785 -0.284762 0)
(0.0342197 -0.317292 0)
(0.0299463 -0.303404 0)
(0.0225624 -0.322039 0)
(0.017859 -0.314619 0)
(0.0121032 -0.324899 0)
(0.00841713 -0.320589 0)
(0.00442589 -0.325106 0)
(0.00236377 -0.32215 0)
(2.74703e-05 -0.323973 0)
(0.0376798 -0.340358 0)
(0.0290072 -0.373227 0)
(0.0254265 -0.357242 0)
(0.0186765 -0.377047 0)
(0.0149914 -0.367826 0)
(0.0101543 -0.379579 0)
(0.00741196 -0.373476 0)
(0.00413757 -0.379168 0)
(0.0023469 -0.374519 0)
(0.000122616 -0.377431 0)
(0.0321656 -0.404354 0)
(0.0243296 -0.437535 0)
(0.0211873 -0.419527 0)
(0.0153247 -0.440651 0)
(0.0125763 -0.429404 0)
(0.00857106 -0.442666 0)
(0.00657339 -0.434635 0)
(0.00383245 -0.441667 0)
(0.00226144 -0.435299 0)
(0.000185182 -0.439657 0)
(0.0269357 -0.481699 0)
(0.0199176 -0.515045 0)
(0.0173652 -0.495752 0)
(0.0123435 -0.51817 0)
(0.0104517 -0.505322 0)
(0.00707563 -0.520053 0)
(0.00571892 -0.510358 0)
(0.00332796 -0.518841 0)
(0.00208776 -0.51088 0)
(0.000139322 -0.516956 0)
(0.0210303 -0.578178 0)
(0.015642 -0.609661 0)
(0.013597 -0.591703 0)
(0.00958976 -0.613928 0)
(0.0082503 -0.601014 0)
(0.00543808 -0.616333 0)
(0.00450802 -0.606081 0)
(0.00237883 -0.61559 0)
(0.00148921 -0.606976 0)
(-4.58411e-05 -0.614557 0)
(0.0163193 -0.690582 0)
(0.0116645 -0.715737 0)
(0.00978593 -0.70315 0)
(0.00648932 -0.721539 0)
(0.00557795 -0.711763 0)
(0.00328869 -0.725018 0)
(0.00263332 -0.716503 0)
(0.000811286 -0.72513 0)
(0.000447893 -0.717681 0)
(-0.000312575 -0.725301 0)
(0.00884201 -0.793789 0)
(0.00587904 -0.807494 0)
(0.00491037 -0.804 0)
(0.00327914 -0.81524 0)
(0.00276326 -0.811409 0)
(0.00135987 -0.819162 0)
(0.000801377 -0.814407 0)
(-0.00036643 -0.819281 0)
(-0.000359801 -0.81468 0)
(-0.000372571 -0.819582 0)
(0.00164405 -0.850996 0)
(0.00110293 -0.860818 0)
(0.00102847 -0.862673 0)
(0.000907622 -0.868332 0)
(0.000706994 -0.867789 0)
(0.000332246 -0.871039 0)
(2.56819e-05 -0.868845 0)
(-0.000315243 -0.870454 0)
(-0.000298225 -0.868026 0)
(-0.000148873 -0.870136 0)
(0.0532705 -0.202669 4.34174e-21)
(0.0467877 -0.253155 -4.26234e-21)
(0.0447074 -0.303708 6.2458e-22)
(0.0394925 -0.359714 0)
(0.0343165 -0.423893 0)
(0.0290305 -0.501041 8.80557e-22)
(0.0232768 -0.595349 -4.05642e-21)
(0.0174871 -0.700586 4.04076e-21)
(0.0109154 -0.797438 1.20962e-21)
(0.00349498 -0.847032 -1.1978e-21)
(0.05239 -0.210337 -5.21572e-21)
(0.0475161 -0.259803 0)
(0.0455704 -0.309673 4.45549e-21)
(0.0403665 -0.365447 -1.05532e-20)
(0.0353204 -0.42953 7.0637e-21)
(0.0299992 -0.50656 -7.93386e-22)
(0.0242801 -0.600011 1.91533e-21)
(0.0180466 -0.7034 4.20563e-21)
(0.0118547 -0.797187 1.27507e-21)
(0.00433229 -0.846712 1.28678e-21)
(0.0521125 -0.217982 6.26485e-21)
(0.0488104 -0.266667 -4.76943e-21)
(0.0467795 -0.315437 4.72417e-21)
(0.0415729 -0.370493 -6.03164e-21)
(0.0365854 -0.434186 4.45086e-21)
(0.0311662 -0.510866 0)
(0.0253446 -0.603363 -1.92012e-21)
(0.0187435 -0.705159 1.64642e-22)
(0.0124522 -0.795873 -2.23475e-21)
(0.00472918 -0.846785 -2.44179e-21)
(0.0523864 -0.224795 -1.02315e-21)
(0.0505242 -0.273152 0)
(0.0483466 -0.321049 0)
(0.0431579 -0.37543 0)
(0.0381542 -0.438718 5.41037e-21)
(0.0325693 -0.51495 -3.63384e-21)
(0.0265411 -0.606456 -4.78837e-23)
(0.0195858 -0.70652 -2.51012e-21)
(0.0128121 -0.794649 -1.29145e-21)
(0.00479077 -0.8457 -1.39766e-21)
(0.0532645 -0.230816 2.61701e-22)
(0.05257 -0.278647 -3.28384e-21)
(0.0502132 -0.325835 -2.93494e-21)
(0.0450707 -0.379759 2.93314e-21)
(0.0399901 -0.442787 -1.75254e-21)
(0.0341889 -0.518647 0)
(0.0278992 -0.609252 -2.24457e-21)
(0.0205684 -0.707617 5.14887e-21)
(0.0131651 -0.793571 -2.66122e-21)
(0.0047619 -0.843506 2.72114e-21)
(0.0548149 -0.236179 -8.96513e-21)
(0.054981 -0.283072 7.7905e-22)
(0.0523869 -0.329476 -4.06202e-22)
(0.0472767 -0.383026 3.09369e-21)
(0.0420529 -0.445893 0)
(0.0359929 -0.521481 0)
(0.0294088 -0.611332 0)
(0.0216863 -0.708218 2.81161e-21)
(0.0136618 -0.792332 0)
(0.00480304 -0.840726 0)
(0.0570643 -0.240801 0)
(0.057815 -0.28647 4.12946e-21)
(0.0549263 -0.33198 -2.81243e-21)
(0.0497915 -0.385119 -3.78153e-21)
(0.0443439 -0.447819 3.80125e-21)
(0.0379759 -0.523175 2.46194e-21)
(0.0310589 -0.612403 -2.4212e-21)
(0.0229293 -0.708091 -1.00886e-20)
(0.0143295 -0.790706 7.17089e-22)
(0.00495066 -0.837753 -2.57064e-21)
(0.0600211 -0.244515 0)
(0.0611069 -0.288792 -1.32059e-21)
(0.0578826 -0.333379 -8.19943e-22)
(0.0526474 -0.386066 0)
(0.0468922 -0.448555 1.19186e-21)
(0.0401617 -0.523669 -3.6001e-21)
(0.0328639 -0.612362 4.16388e-21)
(0.0243034 -0.707098 1.52737e-21)
(0.0151489 -0.788568 -1.72366e-21)
(0.00519085 -0.834684 3.39723e-21)
(0.0636986 -0.247186 1.09791e-21)
(0.0648791 -0.289953 1.54272e-21)
(0.061283 -0.33364 -3.05691e-22)
(0.0558665 -0.385871 5.10696e-22)
(0.0497285 -0.448124 1.11489e-21)
(0.0425804 -0.523006 1.95282e-21)
(0.0348454 -0.611262 -7.63695e-22)
(0.0258092 -0.705284 -8.46498e-22)
(0.016076 -0.785943 1.72936e-21)
(0.00548464 -0.831498 9.61817e-22)
(0.0681168 -0.248711 -3.35322e-22)
(0.0691537 -0.289884 3.37955e-22)
(0.0651414 -0.332713 -4.3216e-22)
(0.0594589 -0.384499 -5.10079e-22)
(0.0528725 -0.446511 6.51836e-22)
(0.0452575 -0.521186 -1.33574e-21)
(0.0370349 -0.609105 1.17717e-21)
(0.0274752 -0.702635 4.3065e-22)
(0.0171168 -0.782802 0)
(0.00583285 -0.828087 -9.63927e-22)
(0.0732992 -0.249025 3.49686e-22)
(0.0739505 -0.288573 -3.52613e-22)
(0.0694658 -0.330578 -4.84069e-22)
(0.0634321 -0.381922 -5.74322e-22)
(0.0563387 -0.443704 -6.9208e-22)
(0.0482046 -0.518243 -6.5692e-23)
(0.0394373 -0.605983 4.22212e-22)
(0.0292922 -0.699285 1.39483e-21)
(0.0182445 -0.779242 0)
(0.00620987 -0.824455 -1.08097e-21)
(0.0792674 -0.248103 0)
(0.0792812 -0.286069 -1.81015e-21)
(0.074262 -0.327252 3.33423e-21)
(0.0677922 -0.378156 5.75338e-22)
(0.0601353 -0.439686 1.41613e-21)
(0.0514386 -0.514109 2.38301e-21)
(0.042086 -0.601771 -8.60211e-22)
(0.03131 -0.695086 -9.51843e-22)
(0.0195144 -0.775145 2.17879e-21)
(0.00665591 -0.820511 1.07841e-21)
(0.0860255 -0.245995 0)
(0.085149 -0.282496 -1.76392e-21)
(0.0795329 -0.322821 -1.02866e-21)
(0.0725466 -0.373254 0)
(0.06428 -0.434524 -4.53141e-21)
(0.0549581 -0.508922 1.51457e-21)
(0.0449529 -0.596678 1.88824e-21)
(0.033477 -0.690274 6.23151e-21)
(0.0208631 -0.770698 -2.17175e-21)
(0.00711662 -0.816366 4.80145e-21)
(0.0935616 -0.242817 0)
(0.0915524 -0.27794 1.7791e-21)
(0.0852904 -0.317334 0)
(0.0777002 -0.367313 5.72569e-21)
(0.0687761 -0.428212 -5.75503e-21)
(0.0588014 -0.502509 -3.72755e-21)
(0.0481175 -0.590372 -1.00962e-22)
(0.0358955 -0.684434 -6.46703e-21)
(0.0224001 -0.765603 -1.07409e-21)
(0.0076796 -0.811845 -5.97218e-21)
(0.101857 -0.238735 1.13889e-20)
(0.0984956 -0.272527 -4.41053e-21)
(0.0915044 -0.311059 8.86615e-22)
(0.0832598 -0.360353 -5.16812e-21)
(0.073664 -0.420851 0)
(0.0629473 -0.495143 -3.93851e-21)
(0.0514922 -0.583385 -4.23916e-22)
(0.0384171 -0.678228 8.84995e-21)
(0.0239552 -0.760309 1.25488e-21)
(0.00820888 -0.807201 -1.25941e-21)
(0.110878 -0.233937 -2.29426e-21)
(0.105967 -0.26621 8.97197e-21)
(0.0982398 -0.303776 5.44719e-21)
(0.0892997 -0.352146 -5.44344e-21)
(0.0789555 -0.412228 -3.52523e-21)
(0.0674773 -0.486395 0)
(0.0552376 -0.574925 -9.101e-21)
(0.041296 -0.670696 4.5534e-21)
(0.0258009 -0.754138 4.98576e-21)
(0.00891042 -0.80205 5.49603e-21)
(0.120558 -0.228729 -1.53939e-21)
(0.114035 -0.259149 0)
(0.105428 -0.295822 0)
(0.0957126 -0.3435 0)
(0.0845475 -0.40324 -4.22085e-21)
(0.0722174 -0.477499 7.73239e-21)
(0.0590717 -0.566618 9.32559e-21)
(0.0441289 -0.663507 -1.49012e-20)
(0.0275232 -0.748165 2.74387e-21)
(0.0094612 -0.79695 -8.16162e-21)
(0.130785 -0.222469 -1.51072e-21)
(0.122798 -0.250828 9.915e-21)
(0.113122 -0.286673 -9.82011e-21)
(0.10264 -0.333428 1.42433e-20)
(0.0906928 -0.392421 -1.79968e-20)
(0.0775541 -0.466333 0)
(0.0635459 -0.555738 -4.93181e-21)
(0.0476137 -0.653986 -2.57924e-22)
(0.0297852 -0.740745 -5.75737e-21)
(0.0103574 -0.791038 -5.9347e-21)
(0.141189 -0.217255 -1.60933e-21)
(0.131788 -0.243755 0)
(0.120842 -0.278954 -1.4174e-20)
(0.109559 -0.325019 2.75136e-20)
(0.0967452 -0.383616 -1.08449e-20)
(0.0826618 -0.457616 -2.30058e-21)
(0.0676476 -0.547563 4.92141e-21)
(0.050601 -0.646759 -3.39252e-22)
(0.0315609 -0.734506 8.34357e-21)
(0.0108262 -0.785582 8.77979e-21)
(0.1533 -0.206808 -7.83742e-21)
(0.142773 -0.231914 7.67435e-21)
(0.130176 -0.266429 1.44828e-21)
(0.117968 -0.311406 0)
(0.104315 -0.369037 0)
(0.0893311 -0.44256 2.21855e-21)
(0.0733143 -0.533065 1.04826e-20)
(0.0550699 -0.634493 -1.01772e-20)
(0.0345049 -0.725495 -2.87665e-21)
(0.0120766 -0.778646 2.81734e-21)
(0.169809 -0.214367 0)
(0.16842 -0.231476 0)
(0.148524 -0.264591 0)
(0.133714 -0.307565 0)
(0.11775 -0.362945 0)
(0.100542 -0.434447 0)
(0.0823653 -0.522752 0)
(0.0616347 -0.621981 0)
(0.0382969 -0.711589 0)
(0.01247 -0.765043 0)
(0.203679 -0.195043 0)
(0.212213 -0.216197 0)
(0.179199 -0.252314 0)
(0.163922 -0.294713 0)
(0.144784 -0.349742 0)
(0.124397 -0.42038 0)
(0.102607 -0.506462 0)
(0.07745 -0.60149 0)
(0.0489463 -0.685592 0)
(0.0179158 -0.733519 0)
(0.242775 -0.170042 0)
(0.252554 -0.189108 0)
(0.209412 -0.226244 0)
(0.198221 -0.269894 0)
(0.175393 -0.324437 0)
(0.151224 -0.393687 0)
(0.124788 -0.476671 0)
(0.0939254 -0.568023 0)
(0.0584913 -0.649753 0)
(0.0187289 -0.698974 0)
(0.286365 -0.148868 0)
(0.295906 -0.166168 0)
(0.249965 -0.208127 0)
(0.243837 -0.252407 0)
(0.214031 -0.30475 0)
(0.186109 -0.371815 0)
(0.155073 -0.450715 0)
(0.117738 -0.536232 0)
(0.0744318 -0.610094 0)
(0.0273783 -0.650701 0)
(0.338275 -0.122533 0)
(0.348924 -0.141818 0)
(0.301241 -0.184738 0)
(0.295371 -0.222198 0)
(0.255673 -0.269623 0)
(0.225351 -0.333516 0)
(0.187476 -0.407465 0)
(0.140951 -0.487041 0)
(0.0876785 -0.556643 0)
(0.0273278 -0.599731 0)
(0.408638 -0.108939 0)
(0.418583 -0.130372 0)
(0.365672 -0.168448 0)
(0.359663 -0.19875 0)
(0.311064 -0.246514 0)
(0.280502 -0.306398 0)
(0.231935 -0.372813 0)
(0.174927 -0.441072 0)
(0.110615 -0.499268 0)
(0.0416407 -0.528654 0)
(0.493326 -0.0850005 0)
(0.495415 -0.103181 0)
(0.438931 -0.132326 0)
(0.432173 -0.157583 0)
(0.372001 -0.202618 0)
(0.338751 -0.252065 0)
(0.271251 -0.306547 0)
(0.203401 -0.363486 0)
(0.124213 -0.41879 0)
(0.0352842 -0.45489 0)
(0.597917 -0.0730544 0)
(0.589318 -0.0873249 0)
(0.537863 -0.111322 0)
(0.522779 -0.133911 0)
(0.454915 -0.172766 0)
(0.414546 -0.209084 0)
(0.327862 -0.251978 0)
(0.252654 -0.297507 0)
(0.15545 -0.340509 0)
(0.0660726 -0.353413 0)
(0.693371 -0.0368288 0)
(0.674335 -0.0452136 0)
(0.622553 -0.0605275 0)
(0.590479 -0.0740543 0)
(0.513998 -0.0986978 0)
(0.457719 -0.117311 0)
(0.35268 -0.144242 0)
(0.262394 -0.172476 0)
(0.139343 -0.205527 0)
(0.01421 -0.25319 0)
(0.87571 -0.0191529 0)
(0.852016 -0.0236195 0)
(0.809335 -0.0297784 0)
(0.766894 -0.0361525 0)
(0.698938 -0.046028 0)
(0.630887 -0.0548568 0)
(0.529174 -0.0689619 0)
(0.421595 -0.0860038 0)
(0.281107 -0.114388 0)
(0.174743 -0.169007 0)
(0.206387 -0.191701 6.33695e-21)
(0.247338 -0.171771 -6.25833e-21)
(0.287909 -0.145974 1.31995e-21)
(0.328144 -0.125233 0)
(0.376821 -0.101637 0)
(0.443175 -0.0899939 2.48582e-21)
(0.526513 -0.0698022 -1.24209e-20)
(0.62659 -0.0606437 1.23554e-20)
(0.721762 -0.0285718 3.733e-21)
(0.895572 -0.0158213 -3.74491e-21)
(0.217847 -0.182213 -4.05297e-21)
(0.258476 -0.162102 0)
(0.298808 -0.13636 9.77317e-21)
(0.338569 -0.115786 -2.46307e-20)
(0.386899 -0.0932651 1.73681e-20)
(0.452673 -0.0824405 -2.26348e-21)
(0.535998 -0.063699 5.03362e-21)
(0.635038 -0.0556121 1.17146e-20)
(0.730618 -0.0252823 3.43092e-21)
(0.901971 -0.0144542 3.31311e-21)
(0.227427 -0.171188 4.24579e-21)
(0.267432 -0.151564 -7.83112e-21)
(0.30637 -0.126512 7.75728e-21)
(0.345432 -0.106352 -1.35662e-20)
(0.393478 -0.0849707 9.72531e-21)
(0.459073 -0.0749625 0)
(0.54246 -0.057658 -5.04609e-21)
(0.640973 -0.05074 -9.65278e-23)
(0.737222 -0.0222845 -6.2296e-21)
(0.906667 -0.0132098 -6.59121e-21)
(0.237169 -0.159031 -7.91702e-22)
(0.27814 -0.14031 0)
(0.315582 -0.116319 0)
(0.353642 -0.0968297 0)
(0.400927 -0.0766959 1.15206e-20)
(0.466035 -0.0675277 -7.91692e-21)
(0.549304 -0.0516579 -4.22639e-22)
(0.647325 -0.0459807 -5.9558e-21)
(0.743962 -0.0194947 -3.14244e-21)
(0.911245 -0.0120528 -3.21334e-21)
(0.246111 -0.146048 2.52246e-21)
(0.288885 -0.128566 -2.61225e-21)
(0.325185 -0.10588 -4.92299e-21)
(0.362495 -0.0872937 4.92027e-21)
(0.408963 -0.0684596 -3.55264e-21)
(0.473478 -0.0601694 0)
(0.556622 -0.0457346 -4.87724e-21)
(0.654291 -0.0413182 1.13115e-20)
(0.751191 -0.0168279 -5.73626e-21)
(0.916077 -0.0109394 6.41776e-21)
(0.253709 -0.132179 -4.18084e-21)
(0.298283 -0.116359 -1.0705e-21)
(0.333919 -0.0952788 -1.48086e-21)
(0.37054 -0.0778483 4.68366e-21)
(0.416303 -0.0603478 0)
(0.480299 -0.0529641 0)
(0.563425 -0.0399595 0)
(0.660984 -0.0367964 5.27018e-21)
(0.758281 -0.0142692 0)
(0.92084 -0.00985621 0)
(0.259772 -0.117279 0)
(0.306103 -0.103629 3.98672e-21)
(0.34151 -0.0845001 -2.9595e-21)
(0.37734 -0.0684877 -5.8501e-21)
(0.422377 -0.0524061 5.88078e-21)
(0.485887 -0.0459542 4.2306e-21)
(0.569046 -0.0343623 -3.88103e-21)
(0.666684 -0.0324493 -1.80473e-20)
(0.764602 -0.0118478 1.26831e-21)
(0.925089 -0.00881825 -4.48331e-21)
(0.264056 -0.101238 0)
(0.31233 -0.0903192 -1.03392e-21)
(0.347842 -0.0734971 -8.54747e-22)
(0.383039 -0.0591629 0)
(0.42719 -0.0446138 1.92645e-21)
(0.490148 -0.0391286 -5.42464e-21)
(0.573318 -0.0289177 6.87614e-21)
(0.671098 -0.0282662 2.77031e-21)
(0.769788 -0.00956341 -2.74805e-21)
(0.928542 -0.00782729 5.98778e-21)
(0.266266 -0.0839721 -1.73447e-22)
(0.316809 -0.0763673 1.25935e-21)
(0.352745 -0.0622317 -1.35558e-23)