/*--------------------------------*- C++ -*----------------------------------*\
  =========                 |
  \\      /  F ield         | OpenFOAM: The Open Source CFD Toolbox
   \\    /   O peration     | Website:  https://openfoam.org
    \\  /    A nd           | Version:  7
     \\/     M anipulation  |
\*---------------------------------------------------------------------------*/
FoamFile
{
    version     2.0;
    format      ascii;
    class       volScalarField;
    location    "67.6";
    object      p;
}
// * * * * * * * * * * * * * * * * * * * * * * * * * * * * * * * * * * * * * //

dimensions      [0 2 -2 0 0 0 0];

internalField   nonuniform List<scalar> 
2000
(
0.013072
0.0131961
0.0134268
0.0136957
0.0139627
0.0142065
0.0144193
0.0146034
0.0147646
0.0149231
0.0132103
0.0133605
0.0136103
0.0139029
0.0141954
0.0144625
0.0146918
0.0148808
0.0150308
0.0151527
0.0133094
0.0135008
0.0137704
0.0140875
0.0144049
0.0146947
0.014941
0.0151377
0.0152828
0.0153728
0.0133689
0.0136175
0.0139088
0.0142492
0.0145889
0.0148985
0.0151598
0.0153647
0.0155097
0.015573
0.0133957
0.013713
0.0140279
0.014389
0.0147462
0.0150698
0.0153411
0.0155513
0.0156985
0.0157408
0.0133963
0.0137942
0.0141319
0.0145092
0.0148767
0.0152059
0.015479
0.0156877
0.0158353
0.0158614
0.0133818
0.0138683
0.0142264
0.0146135
0.0149821
0.015306
0.0155695
0.0157666
0.0159076
0.0159202
0.0133664
0.0139438
0.014318
0.0147069
0.0150657
0.0153715
0.0156126
0.0157859
0.0159109
0.0159109
0.0133663
0.0140301
0.0144141
0.0147949
0.0151316
0.015406
0.0156117
0.0157515
0.0158567
0.0158496
0.0133991
0.0141371
0.0145227
0.0148842
0.0151855
0.015414
0.0155704
0.0156659
0.0157456
0.0157436
0.0154321
0.0169651
0.0191583
0.0219375
0.0247416
0.0278092
0.0301454
0.0329749
0.0336851
0.0353729
0.0155128
0.0167521
0.018587
0.0210977
0.0236786
0.0265563
0.0287332
0.0313934
0.0321708
0.0336695
0.0155584
0.0165743
0.018036
0.0202842
0.0226563
0.0253584
0.0273926
0.0299224
0.0307023
0.0320869
0.0155556
0.0164292
0.0175089
0.0195037
0.0216778
0.024214
0.0261256
0.0285403
0.029299
0.0306241
0.0154948
0.0163034
0.0170091
0.0187623
0.020747
0.0231277
0.0249343
0.0272458
0.0279879
0.0292784
0.0153724
0.0161711
0.0165393
0.0180631
0.019864
0.0220952
0.0238046
0.0260187
0.0267524
0.0280306
0.0151943
0.016
0.0161011
0.0174084
0.0190368
0.0211303
0.0227554
0.0248833
0.0256152
0.026883
0.0149704
0.0157551
0.0156934
0.0167911
0.0182466
0.0201986
0.0217409
0.0237809
0.0245201
0.0258099
0.0147008
0.015395
0.0152986
0.0162383
0.0175562
0.0193794
0.0208511
0.0228007
0.0235387
0.0248274
0.0145329
0.0150528
0.0149019
0.0156304
0.0167877
0.0184707
0.0198844
0.0217431
0.0225326
0.0238803
0.01554
0.0160057
0.0159491
0.0160825
0.0166114
0.0176571
0.0187318
0.0201012
0.020817
0.0218141
0.0129239
0.0135094
0.0138411
0.0142213
0.0147732
0.0155901
0.0164389
0.0174493
0.0180043
0.0186501
0.010745
0.0114188
0.0118134
0.0121677
0.0126656
0.013371
0.0140612
0.014864
0.0152711
0.0157316
0.00845456
0.00929036
0.00987205
0.0102784
0.0107094
0.0113012
0.0118631
0.0125055
0.0127851
0.0131268
0.00614191
0.00708958
0.00790297
0.00847759
0.00891583
0.00941149
0.00985614
0.0103663
0.0105566
0.0108152
0.00398768
0.00497323
0.00594615
0.00667338
0.00718909
0.00766463
0.00803676
0.00843717
0.00856315
0.0087454
0.00216672
0.00311848
0.00415979
0.00495687
0.00549798
0.00594227
0.00625962
0.00658547
0.006673
0.0068069
0.000798187
0.00159951
0.00257508
0.00337299
0.00390523
0.00429126
0.00453894
0.00479139
0.00483746
0.00492302
1.61694e-05
0.000584595
0.00134156
0.00195953
0.00235028
0.0026175
0.002773
0.00295498
0.00295859
0.00301401
-0.000713659
-0.000204473
0.000326866
0.000705221
0.000891954
0.000992415
0.00101876
0.0011044
0.00105518
0.00106114
0.0147801
0.0122966
0.0101068
0.00781489
0.00557748
0.00351378
0.00180414
0.000511063
-7.99784e-05
-0.000974892
0.0142883
0.0118349
0.00965232
0.00739095
0.00521811
0.00323099
0.00160929
0.000391233
-0.000113383
-0.000975936
0.0137319
0.0113922
0.00923501
0.00701844
0.00491161
0.00299804
0.00145981
0.000320291
-0.000134277
-0.000841589
0.0132489
0.0110453
0.00891076
0.00673892
0.00469546
0.00284613
0.00137955
0.000307502
-0.000121664
-0.000686777
0.0128702
0.0107823
0.00866713
0.00653575
0.00454909
0.00276613
0.00135832
0.000340663
-7.83169e-05
-0.000539259
0.012617
0.0106044
0.00850389
0.00641016
0.00447416
0.00274721
0.00138917
0.000412939
-1.03268e-05
-0.000401357
0.0124975
0.010514
0.00842611
0.00635963
0.00446721
0.00278624
0.00146693
0.000518474
7.71678e-05
-0.000275033
0.0125184
0.0105072
0.00842922
0.00638011
0.00452316
0.00287774
0.00158521
0.000650765
0.000179336
-0.000161933
0.0126572
0.0105807
0.008508
0.00646595
0.0046353
0.00301459
0.00173689
0.000803357
0.000291686
-6.20227e-05
0.0128941
0.0107265
0.00865409
0.00660925
0.00479541
0.00318891
0.0019147
0.000970355
0.000410337
2.59231e-05
0.0132031
0.0109303
0.00885425
0.00679893
0.00499325
0.003392
0.00211132
0.0011465
0.000532105
0.000103512
0.0135644
0.0111796
0.00909768
0.00702643
0.00522065
0.00361697
0.00232099
0.0013278
0.000654709
0.000172294
0.0139642
0.0114671
0.00937698
0.00728632
0.00547181
0.00385885
0.0025395
0.00151151
0.000776689
0.000233768
0.0143896
0.0117862
0.00968411
0.00757301
0.00574117
0.00411318
0.00276346
0.00169563
0.00089717
0.000289207
0.01483
0.0121321
0.0100122
0.00788179
0.00602428
0.00437635
0.00299038
0.00187885
0.00101572
0.000339665
0.0152764
0.0125021
0.010355
0.00820844
0.00631758
0.00464547
0.00321848
0.0020603
0.00113221
0.000386022
0.0157163
0.0128908
0.0107059
0.00854796
0.00661778
0.00491792
0.00344639
0.00223947
0.00124674
0.000429077
0.0161419
0.0133025
0.0110675
0.00890221
0.00692691
0.00519483
0.00367508
0.00241707
0.00135997
0.000469681
0.0165924
0.0137873
0.0114726
0.00929377
0.00726122
0.00548632
0.0039106
0.0025964
0.00147357
0.000508215
0.0169587
0.0142766
0.0118701
0.00967781
0.00759197
0.00577001
0.00413997
0.0027697
0.00158441
0.000542222
0.0164978
0.0145915
0.0123243
0.0102101
0.00813895
0.00627578
0.00458841
0.00312385
0.00182204
0.000620557
0.0164752
0.0145905
0.0124202
0.0104226
0.00841918
0.00660393
0.00491495
0.00341719
0.0020362
0.000714575
0.0169871
0.0150481
0.0128363
0.0108423
0.00881637
0.00697835
0.0052413
0.00369106
0.00223632
0.000812082
0.0177865
0.0156685
0.0133565
0.0113071
0.00922658
0.00734201
0.00554639
0.00394699
0.00243561
0.000924522
0.0188944
0.0164952
0.0140223
0.0118525
0.00967839
0.00771576
0.00585079
0.00420482
0.00264866
0.00105521
0.0202572
0.0175179
0.0148377
0.012486
0.0101859
0.00811618
0.0061738
0.00447387
0.00287178
0.00118749
0.0217421
0.0186536
0.0157453
0.0131765
0.0107336
0.00854026
0.00651602
0.00474366
0.00306657
0.00126972
0.0231681
0.0197375
0.016608
0.0138334
0.0112624
0.00895624
0.0068514
0.00497789
0.00318297
0.00126512
0.0242929
0.0205917
0.0172874
0.0143537
0.0116878
0.0092981
0.00712308
0.00513954
0.00321269
0.0011978
0.0249608
0.0210557
0.0176411
0.0146266
0.0119191
0.00949119
0.00727681
0.00522024
0.003206
0.00113777
0.0178864
0.0179328
0.0185227
0.0194307
0.0207063
0.0222331
0.0239059
0.0255568
0.0269223
0.0277542
0.0181893
0.0184685
0.0191953
0.0202275
0.0216286
0.0232588
0.0250186
0.0267271
0.028125
0.028952
0.0183004
0.0188592
0.0198068
0.0210498
0.02264
0.0244313
0.0263176
0.0280843
0.0294715
0.0302447
0.0184807
0.0192487
0.0203789
0.0218168
0.0235823
0.0255365
0.0275696
0.029439
0.0308703
0.0316463
0.018736
0.0197141
0.0210026
0.0226059
0.0245183
0.0266136
0.0287846
0.0307753
0.0322957
0.0331261
0.0190177
0.0202317
0.0216974
0.0234654
0.0255192
0.0277458
0.0300415
0.032147
0.0337631
0.0346615
0.0193183
0.0207756
0.0224443
0.0243909
0.0265984
0.0289645
0.0313842
0.0335952
0.0352943
0.0362495
0.0196499
0.0213445
0.0232321
0.0253661
0.0277413
0.0302608
0.0328133
0.0351291
0.0369002
0.0378969
0.02002
0.0219424
0.0240607
0.0263827
0.0289353
0.0316187
0.0343143
0.0367407
0.0385812
0.0396101
0.0204315
0.0225669
0.0249307
0.0274372
0.0301755
0.0330287
0.0358761
0.0384208
0.0403337
0.0413919
0.0208872
0.0232096
0.0258395
0.0285233
0.0314585
0.0344862
0.0374938
0.0401647
0.0421552
0.0432427
0.0213842
0.0238592
0.0267795
0.0296312
0.0327778
0.0359853
0.0391634
0.0419698
0.0440449
0.0451629
0.0219053
0.024508
0.0277327
0.030752
0.0341236
0.037522
0.0408829
0.0438348
0.0460058
0.0471559
0.0224205
0.0251559
0.0286751
0.0318816
0.0354824
0.03909
0.0426469
0.0457564
0.0480442
0.0492298
0.0228844
0.0258057
0.0295659
0.033032
0.0368497
0.0406852
0.0444529
0.0477349
0.0501483
0.0513779
0.0232652
0.0264538
0.0304248
0.0341474
0.0382002
0.0422844
0.0462839
0.0497586
0.0523102
0.0535966
0.0235691
0.0270605
0.0312322
0.0352114
0.0395232
0.0438802
0.0481364
0.0518264
0.0545322
0.0558902
0.0237591
0.0276008
0.0319564
0.0362035
0.0407872
0.0454379
0.0499789
0.0539159
0.0568041
0.0582557
0.0238146
0.0280891
0.0326155
0.0371528
0.0420262
0.0469938
0.0518403
0.056045
0.0591361
0.0607051
0.0235789
0.028362
0.0330417
0.0378597
0.0430221
0.0483356
0.0535491
0.058105
0.0614769
0.0632173
0.0244508
0.0304388
0.0355331
0.0409262
0.0466414
0.0525563
0.0583787
0.063539
0.0674219
0.0695068
0.030336
0.0361298
0.0415118
0.047761
0.0543993
0.0613074
0.0680765
0.0740376
0.0784931
0.0808504
0.0367713
0.0429068
0.0489346
0.0561514
0.063755
0.0717044
0.0793782
0.0860305
0.0909393
0.0935441
0.0435859
0.0503566
0.0573698
0.0657025
0.0743898
0.0834677
0.0920033
0.0992587
0.104501
0.107187
0.0507961
0.0583837
0.0665363
0.0760519
0.0858983
0.0961299
0.105455
0.113231
0.118701
0.121554
0.0585287
0.0669836
0.0763813
0.0870909
0.0981215
0.109466
0.119499
0.127693
0.133135
0.135613
0.0662112
0.0756691
0.086235
0.0980245
0.110181
0.122476
0.133146
0.141661
0.146859
0.149287
0.07382
0.0839617
0.0956035
0.108443
0.121724
0.134876
0.146304
0.155253
0.159928
0.160172
0.0787625
0.0898844
0.102405
0.116066
0.130223
0.144
0.156082
0.165221
0.168935
0.171024
0.0831441
0.094521
0.107653
0.121981
0.136948
0.15155
0.165152
0.176687
0.182456
0.16718
0.0225146
0.028133
0.0337479
0.0401016
0.0465846
0.0539578
0.0608885
0.0684522
0.0726683
0.0770243
0.0219518
0.0277625
0.0333363
0.0395131
0.0457479
0.0529007
0.0594698
0.0667975
0.070508
0.0747752
0.0217434
0.0278259
0.0334618
0.0395639
0.0456754
0.0526036
0.0588288
0.0656971
0.0689085
0.0728657
0.0214251
0.0276269
0.0332379
0.0392965
0.045309
0.0520562
0.058007
0.0645009
0.0674656
0.0710533
0.0210554
0.02726
0.0327941
0.038773
0.044677
0.0512216
0.0569368
0.0631428
0.0660312
0.0693077
0.0206834
0.0268607
0.0323441
0.0382002
0.0440331
0.0503428
0.055856
0.0617804
0.0646558
0.0676842
0.0203058
0.026452
0.0319248
0.0376854
0.0434406
0.0495382
0.054929
0.0605317
0.063434
0.0662347
0.0199241
0.0260352
0.0315186
0.0372233
0.0429049
0.0488429
0.0541456
0.0594554
0.0624005
0.0649781
0.0195502
0.0256252
0.0311273
0.0368005
0.0424253
0.048255
0.0534759
0.058572
0.0615388
0.0639213
0.0191991
0.0252385
0.0307662
0.0364247
0.0420122
0.0477715
0.0529207
0.0578704
0.0608334
0.0630767
0.0188856
0.024887
0.0304493
0.0361104
0.0416801
0.0473964
0.0524953
0.0573405
0.0602905
0.0624445
0.0186065
0.024567
0.0301785
0.0358612
0.0414353
0.0471343
0.0522108
0.0569806
0.0599212
0.062018
0.0183457
0.0242686
0.0299486
0.0356738
0.0412776
0.0469887
0.0520721
0.0567938
0.0597341
0.0617919
0.0180924
0.0239918
0.0297584
0.0355467
0.0412058
0.0469605
0.0520786
0.0567809
0.0597276
0.061762
0.0178341
0.0237388
0.029606
0.0354782
0.0412193
0.04705
0.0522304
0.0569436
0.0599018
0.0619295
0.0175496
0.0235073
0.0294833
0.0354611
0.0413125
0.047249
0.0525203
0.0572738
0.0602427
0.0622941
0.0172099
0.0232911
0.0293791
0.035489
0.0414831
0.0475576
0.0529546
0.0577767
0.0607568
0.0628645
0.0167824
0.0230709
0.029268
0.0355359
0.0417008
0.0479413
0.0535015
0.0584229
0.0614061
0.063642
0.0162458
0.0228573
0.0291724
0.0356294
0.0420008
0.0484411
0.0542013
0.0592473
0.0622346
0.0646435
0.0154335
0.0224361
0.0288916
0.0355583
0.0421571
0.0488316
0.0548611
0.0601131
0.0631215
0.0658545
0.0165683
0.0237111
0.030182
0.037104
0.0441142
0.0511431
0.057595
0.0631423
0.0662894
0.0693411
0.0214525
0.0284864
0.0350762
0.0425843
0.0502957
0.0581231
0.0654056
0.0715566
0.0753689
0.0780355
0.027303
0.034682
0.0418534
0.0502689
0.058943
0.0678951
0.0762549
0.0832643
0.087806
0.0903269
0.0335375
0.0415651
0.0497494
0.0594429
0.0694989
0.0800672
0.0899469
0.098339
0.104074
0.107176
0.0399498
0.0488507
0.0583511
0.0695822
0.0813843
0.0940272
0.105985
0.116616
0.124532
0.129411
0.046544
0.0564624
0.0675495
0.0804784
0.0943557
0.109479
0.124234
0.138402
0.150638
0.159869
0.0524595
0.0636768
0.0763297
0.0909849
0.107172
0.125065
0.143608
0.163261
0.182993
0.2019
0.0583912
0.0705897
0.0847424
0.101184
0.119812
0.140825
0.164277
0.192055
0.225234
0.264546
0.0609581
0.0738201
0.0889112
0.106619
0.127489
0.152242
0.182624
0.222209
0.277483
0.353722
0.0640217
0.0784688
0.0950693
0.11489
0.139182
0.169451
0.208992
0.264574
0.351464
0.477507
0.0153966
0.0198219
0.0246145
0.0299615
0.0352538
0.0413341
0.0461916
0.051925
0.0541529
0.0561122
0.0150045
0.0194137
0.0240591
0.0291378
0.0340594
0.0398489
0.04427
0.0498085
0.0517345
0.0539735
0.0149224
0.0192951
0.0238701
0.0287856
0.0334947
0.0389564
0.0430199
0.0481624
0.0497091
0.0526556
0.0148946
0.0190516
0.0234299
0.0281507
0.032646
0.0378035
0.041575
0.0463462
0.0475868
0.0508493
0.0149052
0.0187319
0.0228148
0.0273128
0.0315252
0.0363597
0.0398445
0.0443102
0.0452976
0.0484518
0.0149541
0.0184077
0.0221848
0.0264144
0.0303558
0.034839
0.0380283
0.0422242
0.0429791
0.0458346
0.0150287
0.0180909
0.0215718
0.025488
0.0292314
0.0333581
0.0362783
0.0402209
0.0407711
0.043335
0.0151208
0.0177812
0.0209615
0.0245757
0.0281003
0.031917
0.0346427
0.0383212
0.0387385
0.0410859
0.0152241
0.017485
0.020351
0.0236802
0.0269645
0.0304942
0.0331072
0.0364793
0.0368962
0.0390615
0.0153311
0.0172106
0.0197475
0.0227993
0.0258401
0.0291208
0.0316106
0.0346767
0.035238
0.0371766
0.0134843
0.0142761
0.014653
0.0149828
0.015235
0.0154027
0.0154932
0.0155199
0.015513
0.015433
0.0136481
0.0144613
0.0148161
0.0151011
0.0152917
0.0153868
0.0153996
0.015347
0.0152584
0.0151038
0.0139042
0.0147021
0.0150218
0.0152503
0.0153694
0.0153841
0.015313
0.0151773
0.0150118
0.0147913
0.0142669
0.0150092
0.0152813
0.0154433
0.0154838
0.0154138
0.0152568
0.0150379
0.0147962
0.0145076
0.0147482
0.0153927
0.0156055
0.0156927
0.01565
0.0154941
0.0152526
0.0149535
0.0146367
0.0142772
0.0153549
0.0158603
0.016003
0.0160087
0.0158803
0.0156397
0.0153174
0.0149428
0.0145542
0.0141281
0.0160873
0.0164155
0.0164785
0.0163975
0.0161824
0.0158596
0.0154611
0.0150165
0.0145609
0.014081
0.0169386
0.017057
0.0170316
0.0168595
0.0165576
0.0161556
0.0156858
0.0151777
0.0146606
0.0141106
0.017893
0.0177763
0.0176555
0.0173886
0.0170003
0.0165225
0.0159867
0.0154208
0.0148475
0.0142442
0.0189184
0.0185544
0.0183341
0.0179712
0.0174982
0.0169484
0.016352
0.015734
0.0151114
0.0144681
0.0199609
0.019361
0.0190447
0.0185879
0.0180334
0.0174164
0.016765
0.0161009
0.0154366
0.0147638
0.0210328
0.0201867
0.0197691
0.0192177
0.0185849
0.0179058
0.0172055
0.016502
0.0158047
0.0151121
0.0220834
0.0209943
0.0204766
0.0198345
0.0191292
0.0183951
0.0176533
0.0169179
0.0161966
0.0154943
0.0230637
0.0217473
0.021136
0.0204113
0.0196423
0.0188622
0.0180878
0.0173292
0.0165937
0.0158924
0.0239302
0.0224105
0.021717
0.0209215
0.0201009
0.0192863
0.0184899
0.017718
0.016979
0.01629
0.0246423
0.0229507
0.0221911
0.0213413
0.0204843
0.019649
0.018843
0.0180688
0.0173373
0.0166731
0.0251637
0.023338
0.0225337
0.0216502
0.0207753
0.0199353
0.0191339
0.0183694
0.0176561
0.0170277
0.0254652
0.0235483
0.022725
0.0218326
0.0209612
0.0201348
0.0193537
0.0186119
0.0179242
0.0173371
0.0255258
0.0235641
0.0227516
0.0218785
0.0210345
0.0202416
0.0194972
0.0187884
0.0181247
0.0175776
0.025334
0.0233761
0.0226066
0.0217837
0.0209937
0.0202565
0.0195659
0.0188987
0.0182553
0.0177513
0.0248863
0.0229817
0.0222884
0.0215488
0.0208429
0.0201912
0.0195921
0.0190318
0.0185315
0.0182291
0.0241805
0.0223827
0.0217999
0.0211752
0.0205802
0.0200351
0.0195413
0.0190917
0.018705
0.018472
0.0232365
0.0215939
0.0211512
0.0206692
0.0202073
0.0197845
0.0194042
0.0190637
0.0187739
0.0185816
0.0220814
0.0206357
0.0203577
0.020042
0.0197331
0.0194481
0.0191935
0.0189708
0.0187866
0.0186642
0.0207485
0.0195342
0.0194394
0.0193097
0.0191711
0.0190391
0.0189232
0.0188291
0.0187615
0.0187331
0.0192772
0.0183199
0.0184209
0.0184919
0.0185381
0.0185721
0.0186067
0.0186511
0.0187091
0.0187886
0.0177104
0.0170268
0.0173292
0.0176104
0.0178521
0.0180629
0.0182578
0.0184491
0.0186417
0.0188404
0.0160921
0.0156895
0.0161924
0.0166876
0.0171317
0.0175269
0.0178896
0.0182351
0.01857
0.0188986
0.014466
0.0143414
0.0150377
0.0157453
0.0163944
0.0169784
0.0175141
0.0180188
0.0185019
0.0189697
0.0128863
0.0130186
0.0138928
0.0148044
0.0156558
0.0164295
0.0171406
0.0178076
0.0184426
0.0190568
0.0114282
0.011769
0.012791
0.0138879
0.0149325
0.0158919
0.0167772
0.0176068
0.0183946
0.0191597
0.0100278
0.0105798
0.0117365
0.0130042
0.0142318
0.0153709
0.0164272
0.0174175
0.0183561
0.0192729
0.00873106
0.00948189
0.0107424
0.0121662
0.0135624
0.0148715
0.0160923
0.0172387
0.0183222
0.0193846
0.007567
0.00848995
0.00983375
0.0113833
0.0129302
0.0143961
0.0157717
0.0170668
0.0182872
0.0194788
0.00654806
0.00761493
0.00901662
0.0106648
0.0123395
0.0139455
0.0154634
0.0168972
0.018246
0.0195435
0.00568014
0.00686308
0.00829618
0.0100145
0.0117922
0.0135195
0.0151652
0.0167248
0.018186
0.0195955
0.00496467
0.00623642
0.00767571
0.00943482
0.0112892
0.013117
0.014875
0.016549
0.0181099
0.0196026
0.00439878
0.00573325
0.00715589
0.00892688
0.0108304
0.0127362
0.01459
0.0163678
0.0180184
0.0195655
0.00397607
0.00534905
0.00673507
0.00849036
0.010415
0.0123752
0.0143079
0.016183
0.0179288
0.0195159
0.00368805
0.0050774
0.00640979
0.00812366
0.0100411
0.0120303
0.0140207
0.0159816
0.0178465
0.0195059
0.00352233
0.0049091
0.00617407
0.00782328
0.00970556
0.0116979
0.0137267
0.0157729
0.0178714
0.0199152
0.00345246
0.0048284
0.00601934
0.00758546
0.00940485
0.0113661
0.0133897
0.0154367
0.0175356
0.019574
0.00347918
0.00483187
0.00594219
0.00740908
0.00913963
0.0110356
0.0130143
0.0150178
0.017053
0.0190303
0.00359378
0.00491116
0.00593701
0.00729348
0.00891575
0.010722
0.0126331
0.0145853
0.0165719
0.0185023
0.00378349
0.005056
0.00599713
0.00723758
0.00873912
0.0104392
0.012267
0.014159
0.0160989
0.0179907
0.00403602
0.00525655
0.00611552
0.00723911
0.00861303
0.0101953
0.0119264
0.0137454
0.0156287
0.0174821
0.00434012
0.0055036
0.00628491
0.00729452
0.00853854
0.00999546
0.0116193
0.0133539
0.0151702
0.0169808
0.00468527
0.0057882
0.0064977
0.0073991
0.00851498
0.00984314
0.0113524
0.0129936
0.0147342
0.0164959
0.00506209
0.00610195
0.00674602
0.00754706
0.00853984
0.00973949
0.01113
0.0126711
0.0143285
0.0160355
0.00546547
0.00644031
0.00702463
0.00773362
0.00861016
0.00968411
0.0109544
0.0123906
0.0139586
0.0156059
0.00589512
0.00680504
0.00733476
0.00795958
0.00872715
0.0096793
0.0108289
0.0121565
0.0136295
0.0152117
0.00632532
0.00717298
0.00765553
0.00820698
0.00887668
0.0097152
0.0107479
0.0119663
0.0133399
0.01485
0.00675673
0.00754498
0.00798612
0.0084735
0.00905565
0.00978893
0.0107091
0.0118186
0.0130887
0.0145168
0.00718799
0.0079194
0.00832385
0.00875535
0.00925975
0.00989646
0.0107095
0.0117111
0.0128736
0.0142085
0.00761621
0.00829311
0.00866488
0.0090479
0.00948397
0.0100331
0.0107453
0.0116411
0.0126927
0.0139214
0.00803916
0.00866368
0.00900615
0.00934728
0.00972392
0.0101948
0.0108133
0.0116066
0.0125444
0.0136517
0.00845548
0.00902955
0.00934558
0.00965058
0.00997602
0.0103778
0.0109108
0.011607
0.0124298
0.013398
0.00886442
0.00938976
0.00968181
0.00995574
0.0102375
0.0105793
0.011036
0.0116432
0.0123553
0.0131662
0.00926558
0.00974375
0.0100142
0.0102617
0.0105069
0.0107976
0.0111874
0.0117157
0.0123285
0.0129689
0.00965865
0.0100912
0.0103425
0.0105685
0.0107847
0.0110349
0.0113705
0.0118353
0.0123865
0.0128905
0.0100438
0.0104321
0.0106667
0.010876
0.0110715
0.0112954
0.0116027
0.0120635
0.0127698
0.01372
0.0104229
0.010766
0.0109862
0.0111834
0.0113646
0.0115681
0.0118457
0.0122622
0.0129109
0.0137721
0.0107932
0.0110923
0.0113006
0.0114899
0.0116618
0.011848
0.0120936
0.0124523
0.0129959
0.0137085
0.0111527
0.0114096
0.0116089
0.0117946
0.0119624
0.012137
0.0123568
0.0126685
0.0131299
0.0137267
0.0114988
0.0117163
0.0119096
0.0120958
0.0122649
0.0124344
0.0126358
0.0129094
0.0133023
0.0138056
0.0118282
0.0120105
0.0122007
0.0123915
0.012567
0.0127371
0.0129265
0.0131686
0.0135013
0.0139255
0.0121375
0.0122895
0.0124799
0.0126792
0.0128655
0.0130418
0.0132253
0.0134427
0.0137241
0.0140803
0.0124231
0.0125499
0.0127448
0.0129561
0.0131575
0.0133448
0.0135283
0.013728
0.0139671
0.0142643
0.0126789
0.01279
0.012993
0.0132195
0.0134396
0.0136422
0.0138311
0.0140197
0.0142252
0.0144707
0.0128984
0.0130074
0.0132209
0.0134667
0.0137088
0.0139304
0.0141294
0.0143131
0.0144928
0.0146925
)
;

boundaryField
{
    inlet
    {
        type            zeroGradient;
    }
    outlet
    {
        type            fixedValue;
        value           uniform 0;
    }
    cylinder
    {
        type            zeroGradient;
    }
    top
    {
        type            symmetryPlane;
    }
    bottom
    {
        type            symmetryPlane;
    }
    defaultFaces
    {
        type            empty;
    }
}


// ************************************************************************* //
