/*--------------------------------*- C++ -*----------------------------------*\
  =========                 |
  \\      /  F ield         | OpenFOAM: The Open Source CFD Toolbox
   \\    /   O peration     | Website:  https://openfoam.org
    \\  /    A nd           | Version:  7
     \\/     M anipulation  |
\*---------------------------------------------------------------------------*/
FoamFile
{
    version     2.0;
    format      ascii;
    class       volScalarField;
    location    "51";
    object      p;
}
// * * * * * * * * * * * * * * * * * * * * * * * * * * * * * * * * * * * * * //

dimensions      [0 2 -2 0 0 0 0];

internalField   nonuniform List<scalar> 
2000
(
0.0377432
0.0376648
0.0379094
0.0382574
0.0386799
0.0391602
0.0396895
0.0402641
0.0408756
0.0415542
0.0380599
0.0380113
0.0383063
0.0387171
0.0392021
0.0397345
0.0402945
0.0408691
0.0414387
0.0420183
0.038272
0.0382865
0.0386399
0.0391179
0.0396688
0.0402575
0.0408564
0.0414454
0.0419974
0.0424979
0.0383716
0.0384848
0.0389018
0.0394466
0.0400602
0.0407017
0.0413392
0.041949
0.0425039
0.0429493
0.038358
0.0386051
0.0390877
0.039694
0.0403592
0.0410414
0.0417072
0.0423333
0.0429015
0.0433175
0.0382367
0.0386513
0.0391975
0.0398544
0.0405543
0.0412565
0.0419297
0.0425541
0.0431283
0.0435349
0.0380214
0.0386307
0.0392353
0.0399276
0.0406393
0.0413333
0.0419837
0.0425757
0.0431281
0.0435288
0.0377331
0.0385522
0.0392076
0.039916
0.0406116
0.0412633
0.0418538
0.0423753
0.0428647
0.0432441
0.0373955
0.0384292
0.0391224
0.0398235
0.0404708
0.0410407
0.0415277
0.0419353
0.042323
0.0426685
0.037035
0.0382751
0.0389884
0.0396554
0.0402195
0.0406637
0.0409921
0.0412169
0.0414169
0.0416666
0.0436184
0.0478922
0.0525601
0.0574183
0.0619117
0.0663187
0.0697105
0.0734017
0.07477
0.0767248
0.0437733
0.0474753
0.0515549
0.0559937
0.0601675
0.0643077
0.0674467
0.0709222
0.0722687
0.07405
0.0438728
0.0471505
0.0505737
0.0545877
0.0584593
0.0623531
0.0652697
0.0685641
0.069838
0.0715084
0.0438669
0.0469136
0.0496205
0.0532113
0.0567915
0.0604499
0.0631753
0.0663046
0.0674985
0.0690975
0.0437142
0.0467218
0.0487018
0.0518774
0.0551719
0.0586076
0.061169
0.0641503
0.0652801
0.0668214
0.0433893
0.0464863
0.0478262
0.0505908
0.0535941
0.0568131
0.0592238
0.0620684
0.0631565
0.0646598
0.0428862
0.0460998
0.0470013
0.0493612
0.0520804
0.055096
0.0573743
0.0600963
0.0611528
0.062614
0.0422058
0.0454787
0.0462129
0.0481574
0.0505835
0.0533915
0.0555456
0.0581529
0.0592003
0.0606491
0.04136
0.0445604
0.0454336
0.0470591
0.049225
0.0518246
0.0538648
0.0563471
0.0573728
0.0587759
0.0405794
0.0434514
0.0444731
0.0458151
0.0477266
0.0501202
0.0520732
0.0544461
0.0555245
0.0569287
0.0399831
0.0428255
0.0442922
0.0450011
0.0459652
0.0474908
0.04902
0.0507526
0.0517369
0.0526702
0.0326618
0.0354318
0.0375737
0.0391711
0.0405104
0.0419469
0.0432577
0.0445137
0.0452487
0.0458053
0.0248734
0.0275055
0.0298109
0.0318144
0.0335628
0.0353237
0.0368168
0.0380732
0.0387309
0.0391375
0.0170335
0.0194577
0.0218811
0.0241959
0.0263054
0.0283505
0.0300141
0.0313845
0.032166
0.032646
0.00976161
0.0118344
0.0141884
0.0166219
0.0190398
0.021447
0.023375
0.0248718
0.0257317
0.0262726
0.00369614
0.00536304
0.00749258
0.00987484
0.012391
0.0149489
0.0170535
0.0187066
0.0196837
0.020258
-0.000659591
0.000487516
0.00213929
0.00428033
0.00681491
0.00941681
0.0114983
0.0131105
0.0140991
0.0146951
-0.00301075
-0.00233774
-0.00126544
0.000348101
0.00253993
0.00496114
0.00689826
0.00835882
0.00922546
0.00975822
-0.00349178
-0.00323138
-0.0026337
-0.00153176
6.51384e-05
0.00187404
0.00330596
0.00440039
0.00502146
0.00543787
-0.00200725
-0.00207418
-0.00198188
-0.00152519
-0.000725645
0.000190994
0.000833903
0.00133797
0.00155531
0.00176422
0.0366119
0.0297421
0.0225425
0.0153156
0.00864991
0.00308843
-0.000878458
-0.0029813
-0.0033193
-0.00185357
0.0349879
0.0280939
0.0210689
0.0141184
0.00779632
0.00257149
-0.00109758
-0.00299586
-0.00322441
-0.0017935
0.0332836
0.0266522
0.019849
0.0131601
0.00713646
0.00219332
-0.00122783
-0.00295658
-0.00309471
-0.00173496
0.0317463
0.0254379
0.0188582
0.012425
0.00668413
0.00199066
-0.00122879
-0.00283682
-0.00292624
-0.00164473
0.0304605
0.0244524
0.0180888
0.0118902
0.00640657
0.00193021
-0.00111943
-0.00264567
-0.00272106
-0.0015113
0.0294756
0.0237042
0.017544
0.0115552
0.00629874
0.00200522
-0.000912539
-0.00238887
-0.00247977
-0.00136053
0.0288044
0.0231936
0.0172167
0.0114138
0.00635193
0.00220674
-0.000614054
-0.00207089
-0.00220508
-0.0011965
0.0284343
0.0229118
0.0171041
0.0114522
0.00655319
0.00252349
-0.000232944
-0.00169785
-0.00190081
-0.00102128
0.0283561
0.0228472
0.0171863
0.0116554
0.00688716
0.00294214
0.00021988
-0.00127737
-0.00157182
-0.000838886
0.0285294
0.0229833
0.0174433
0.0120029
0.00733474
0.00344681
0.000731971
-0.000818286
-0.00122392
-0.000653908
0.0288947
0.0232774
0.0178385
0.0124634
0.00787049
0.00401822
0.00128926
-0.000330352
-0.000863525
-0.000470623
0.0294121
0.0236966
0.0183441
0.0130142
0.00847427
0.00464044
0.00187891
0.000176775
-0.00049705
-0.000292724
0.0300597
0.0242243
0.0189439
0.0136419
0.0091319
0.00530094
0.00248984
0.000694244
-0.000130252
-0.000123092
0.0308132
0.0248432
0.0196188
0.0143321
0.00982909
0.00598751
0.00311206
0.00121433
0.000232212
3.65832e-05
0.0316515
0.0255408
0.0203517
0.0150719
0.0105535
0.0066894
0.00373719
0.00173074
0.000587013
0.000185608
0.0325543
0.0263057
0.021125
0.0158486
0.0112943
0.00739715
0.00435849
0.00223865
0.000932112
0.000324177
0.0334869
0.0271182
0.0219184
0.0166481
0.0120419
0.00810283
0.00497096
0.00273477
0.00126664
0.000453144
0.0344406
0.0279955
0.0227469
0.0174803
0.0128032
0.0088089
0.00557535
0.00321895
0.00159134
0.000573919
0.0355447
0.0290765
0.023701
0.018406
0.0136183
0.00953699
0.00618215
0.00369562
0.00190916
0.000687313
0.036477
0.0301501
0.0246032
0.0192951
0.0144068
0.0102349
0.00676573
0.00415271
0.00221732
0.000788908
0.0356825
0.0308229
0.0255164
0.0205098
0.0157425
0.0115607
0.00799105
0.00515366
0.00290197
0.00100875
0.03492
0.0303007
0.0253701
0.0207835
0.0163602
0.0124288
0.00896165
0.00607852
0.00360233
0.00130983
0.0354078
0.0308227
0.0259721
0.0215133
0.0171661
0.0132892
0.00980219
0.00682976
0.00416652
0.00157433
0.0362321
0.0315438
0.0266971
0.0222789
0.0179483
0.0140646
0.0105191
0.00746748
0.00467197
0.00184545
0.037558
0.0325974
0.0276307
0.0231328
0.0187353
0.0147859
0.0111639
0.00804928
0.00516206
0.00213345
0.039312
0.03398
0.0287907
0.0240957
0.0195672
0.0155039
0.0117951
0.00861187
0.00564019
0.00241919
0.0413468
0.0356071
0.0300975
0.025127
0.0204394
0.0162396
0.0124374
0.00915105
0.00604208
0.0025896
0.0434118
0.037024
0.0312982
0.0261298
0.021316
0.0169831
0.0130687
0.00960071
0.0062506
0.00255495
0.0448326
0.0385444
0.0325387
0.0270563
0.0220664
0.0176057
0.0135682
0.00987302
0.00623585
0.00235641
0.0461767
0.0390604
0.0328824
0.0273933
0.0224339
0.0179607
0.0138593
0.0100103
0.00618907
0.00221416
0.0388132
0.0382682
0.0387325
0.0395201
0.0410149
0.0429515
0.0451453
0.0479187
0.0491279
0.0512358
0.0395908
0.0394873
0.0401229
0.0410393
0.042717
0.0448024
0.0471387
0.0498719
0.0513704
0.0531737
0.0399997
0.0402982
0.0412567
0.0425263
0.0445417
0.0469077
0.0494979
0.0521072
0.0539477
0.0551674
0.0405915
0.0411235
0.0423089
0.043917
0.04624
0.0488815
0.0517377
0.0544072
0.0564761
0.0574588
0.0413267
0.0421184
0.043486
0.0453594
0.0479125
0.0507677
0.053846
0.0566955
0.0589262
0.0599853
0.0420878
0.0432079
0.0448076
0.0469321
0.0496829
0.0527166
0.0559744
0.0590174
0.0613887
0.0626311
0.0428623
0.0443264
0.0462163
0.0486155
0.0515777
0.0547992
0.058227
0.0614397
0.06394
0.0653391
0.0436785
0.0454727
0.0476826
0.0503718
0.0535693
0.0570064
0.0606209
0.0639916
0.0666103
0.0681077
0.0445523
0.0466597
0.0492078
0.0521838
0.0556324
0.0593069
0.063131
0.0666665
0.0693989
0.0709555
0.0454859
0.0478855
0.0507959
0.0540458
0.0577572
0.0616795
0.0657312
0.0694459
0.0722946
0.0738966
0.0464808
0.0491343
0.0524436
0.0559487
0.05994
0.064114
0.0684089
0.0723171
0.0752894
0.0769365
0.0475363
0.0503826
0.0541386
0.0578763
0.0621719
0.0666021
0.0711571
0.0752724
0.0783794
0.0800754
0.0486294
0.0516152
0.0558527
0.0598134
0.0644376
0.0691422
0.0739753
0.0783118
0.0815698
0.0833182
0.0497189
0.0528274
0.0575463
0.0617495
0.0667189
0.0717293
0.0768564
0.0814326
0.0848685
0.0866781
0.0507517
0.0540232
0.059174
0.063669
0.0690183
0.0743692
0.0798035
0.0846389
0.0882653
0.0901456
0.0516678
0.0552008
0.0607191
0.0655924
0.0712892
0.0770058
0.08278
0.0879067
0.0917451
0.0937119
0.0523882
0.0563992
0.0621839
0.0674566
0.0735095
0.0796269
0.0857832
0.0912363
0.0953116
0.0973856
0.0529006
0.0575308
0.0635019
0.0691835
0.0756132
0.082165
0.0887495
0.0945822
0.0989429
0.101161
0.0532334
0.0585647
0.0647106
0.0708285
0.0776639
0.0846836
0.0917264
0.0979728
0.102655
0.10506
0.0531486
0.0592115
0.065519
0.0720511
0.0792902
0.0868218
0.094418
0.101219
0.106361
0.109051
0.0548327
0.0626207
0.0693231
0.0766786
0.0847052
0.0932035
0.10182
0.109678
0.11573
0.119034
0.0636377
0.0712068
0.0783929
0.0870743
0.0965292
0.106635
0.116868
0.126169
0.133307
0.137138
0.073116
0.0812462
0.0894752
0.09968
0.1107
0.122589
0.134453
0.145083
0.153148
0.15749
0.0829437
0.0920746
0.101868
0.113826
0.12666
0.140582
0.154091
0.166005
0.174877
0.179512
0.0931148
0.103583
0.115213
0.129073
0.143933
0.159994
0.175095
0.188245
0.197792
0.202861
0.103936
0.115829
0.129464
0.145314
0.162322
0.180465
0.197066
0.211342
0.221239
0.22606
0.114861
0.12832
0.143873
0.161646
0.180759
0.200711
0.218712
0.23386
0.24376
0.248764
0.125652
0.140435
0.157755
0.17735
0.19844
0.219922
0.239439
0.255445
0.264871
0.267798
0.133545
0.149541
0.168198
0.189175
0.211746
0.234392
0.255342
0.272003
0.280852
0.284855
0.139301
0.155835
0.17542
0.197386
0.221009
0.244724
0.267449
0.286987
0.298842
0.286281
0.0525008
0.0606342
0.069011
0.0780981
0.0873453
0.0975819
0.107546
0.117961
0.125083
0.130764
0.0520567
0.0605351
0.0686301
0.0774523
0.086365
0.0962867
0.105799
0.115847
0.122298
0.127783
0.0521554
0.061127
0.0691706
0.0779116
0.0866565
0.0962834
0.105366
0.114812
0.120439
0.125462
0.0520485
0.0612026
0.0691705
0.077876
0.0864914
0.0958934
0.104615
0.113587
0.118698
0.123272
0.0518614
0.0609763
0.0688418
0.0774236
0.0858535
0.0950062
0.103383
0.112003
0.116849
0.121103
0.0516765
0.0606855
0.0685528
0.0769456
0.0851659
0.0940307
0.102055
0.110361
0.115026
0.119058
0.051478
0.0604218
0.0683091
0.0765687
0.0846242
0.0932179
0.100925
0.108927
0.113419
0.117267
0.0512615
0.0601803
0.0680858
0.0762507
0.0842279
0.0925961
0.10008
0.107772
0.11214
0.115797
0.0510462
0.059964
0.0678943
0.0759972
0.0839228
0.092119
0.0995208
0.106839
0.111218
0.114645
0.0508577
0.0597905
0.0677569
0.0758297
0.0837099
0.0917947
0.0991368
0.106179
0.110586
0.113795
0.0507201
0.0596752
0.0676912
0.0757622
0.0836131
0.0916328
0.0989136
0.105794
0.110201
0.113251
0.0506254
0.0596054
0.0676932
0.0757911
0.0836408
0.0916358
0.0988755
0.105667
0.110059
0.113009
0.050543
0.0595533
0.067747
0.0759038
0.0837881
0.0918032
0.0990403
0.105791
0.110175
0.113062
0.0504566
0.0595132
0.0678472
0.0760925
0.0840497
0.0921312
0.0994068
0.106159
0.110551
0.113401
0.0503507
0.0594903
0.0679907
0.0763533
0.0844256
0.0926175
0.0999747
0.106773
0.111189
0.11402
0.0501949
0.0594801
0.0681617
0.0766728
0.0849027
0.0932442
0.100727
0.107615
0.112071
0.114912
0.0499519
0.0594792
0.0683473
0.0770453
0.0854807
0.0940164
0.101678
0.10869
0.113207
0.116076
0.0495472
0.0594389
0.0684927
0.0774165
0.0860984
0.0948677
0.102766
0.109944
0.114553
0.117507
0.0490224
0.0594225
0.0686554
0.077842
0.0868159
0.0958606
0.104046
0.111419
0.116149
0.119213
0.047941
0.059014
0.0684758
0.077959
0.0872587
0.0966317
0.10521
0.112902
0.117868
0.121184
0.048776
0.0604903
0.0702331
0.0802172
0.0901794
0.100125
0.109432
0.117616
0.12313
0.126694
0.0578991
0.0686009
0.0780067
0.0886603
0.0995267
0.110606
0.121187
0.130417
0.13674
0.140331
0.0674154
0.0782519
0.0883311
0.100163
0.112268
0.124961
0.13716
0.147808
0.15507
0.158872
0.0766474
0.0882125
0.0997768
0.113367
0.127381
0.142461
0.156906
0.169671
0.178554
0.183028
0.0855997
0.0983918
0.111914
0.127604
0.14413
0.162276
0.179712
0.195677
0.207364
0.213458
0.0945333
0.10883
0.124655
0.142697
0.162307
0.18404
0.205336
0.225938
0.242477
0.252603
0.102912
0.118991
0.137007
0.157609
0.180646
0.206141
0.232378
0.259523
0.284002
0.303121
0.111037
0.128639
0.148807
0.172075
0.198512
0.228047
0.260573
0.296487
0.33387
0.372026
0.1155
0.134318
0.156112
0.18138
0.210777
0.24472
0.284662
0.332186
0.39076
0.462945
0.119016
0.139896
0.163375
0.190804
0.223506
0.262689
0.3111
0.373542
0.462298
0.581922
0.0454619
0.0538442
0.0618063
0.0701915
0.0781394
0.0866252
0.0936213
0.10141
0.105356
0.107221
0.0445786
0.0529712
0.060796
0.06876
0.0762631
0.0844249
0.0908379
0.098398
0.101876
0.104218
0.0443021
0.0528342
0.0606785
0.0683692
0.0755347
0.0832493
0.0891613
0.0962388
0.0991462
0.102709
0.0439756
0.0523576
0.0600222
0.0674791
0.0743558
0.0816528
0.0871471
0.0937353
0.0961957
0.100395
0.0436808
0.0516591
0.0589269
0.0661718
0.0726685
0.0795269
0.0846152
0.0907557
0.0928432
0.0969878
0.0434794
0.0509464
0.0578139
0.0646943
0.0708499
0.0772196
0.0818945
0.0875937
0.0893313
0.0930576
0.0433602
0.0502592
0.0567547
0.063207
0.0690499
0.074951
0.0792543
0.0845097
0.0859371
0.0891939
0.0433182
0.0495955
0.0557026
0.0617503
0.0672572
0.0727208
0.0767748
0.0815797
0.0828031
0.0856721
0.0433559
0.0489668
0.0546428
0.0603031
0.065467
0.070528
0.0743943
0.078749
0.0799502
0.0824909
0.0434643
0.0483929
0.0535903
0.0588563
0.0636823
0.0683907
0.0720367
0.0760103
0.0773146
0.0795304
0.0366819
0.0381048
0.0388174
0.0394229
0.0398708
0.0401502
0.040269
0.0402282
0.0400335
0.0395455
0.0363742
0.037939
0.0386265
0.0391449
0.0394521
0.0395463
0.0394461
0.0391606
0.0387175
0.0380874
0.0361459
0.0377977
0.0384373
0.0388491
0.039002
0.0389068
0.0385964
0.0380963
0.037461
0.0367036
0.0360332
0.037707
0.0382791
0.0385722
0.0385681
0.038291
0.0377888
0.0371014
0.0362987
0.0353918
0.0360726
0.0376973
0.038187
0.0383567
0.0382014
0.0377588
0.0370889
0.0362429
0.0352965
0.0342436
0.036298
0.0378011
0.0381983
0.0382452
0.0379496
0.0373611
0.0365487
0.035571
0.0345024
0.0333204
0.0367371
0.0380494
0.0383474
0.0382748
0.0378507
0.037135
0.0362024
0.0351161
0.0339441
0.0326563
0.0374093
0.0384687
0.0386614
0.0384717
0.0379286
0.0371004
0.0360656
0.0348886
0.0336301
0.0322619
0.0383207
0.0390755
0.0391555
0.0388479
0.0381912
0.037261
0.0361369
0.0348831
0.0335523
0.0321193
0.0394481
0.0398663
0.0398275
0.0393992
0.0386309
0.0376051
0.0364014
0.0350822
0.0336919
0.0322101
0.0407322
0.0408146
0.0406585
0.0401062
0.0392274
0.0381103
0.0368341
0.0354582
0.0340211
0.0325108
0.0422118
0.0419266
0.0416322
0.0409447
0.0399517
0.0387457
0.0374028
0.0359782
0.0345071
0.032983
0.0438207
0.0431541
0.0427066
0.0418756
0.040767
0.0394757
0.0380725
0.0366078
0.0351149
0.0335899
0.0454905
0.044444
0.0438338
0.0428547
0.0416323
0.0402615
0.0388059
0.0373105
0.0358089
0.0342966
0.0471531
0.0457394
0.044962
0.0438355
0.0425052
0.0410636
0.0395657
0.0380508
0.0365544
0.0350706
0.0487369
0.0469797
0.0460382
0.044772
0.0433447
0.0418445
0.0403169
0.0387949
0.0373186
0.0358816
0.0501705
0.0481048
0.0470116
0.0456213
0.0441135
0.0425708
0.0410284
0.0395127
0.0380702
0.0366956
0.0513869
0.0490585
0.0478367
0.0463466
0.0447807
0.0432151
0.0416752
0.0401789
0.038777
0.0374718
0.0523273
0.0497923
0.0484757
0.0469191
0.0453233
0.0437581
0.0422385
0.0407675
0.0393956
0.0381748
0.0529441
0.0502672
0.0488994
0.0473185
0.045729
0.0441936
0.0427157
0.0412744
0.0399215
0.0388132
0.0532021
0.0504549
0.0490869
0.0475313
0.0459934
0.0445338
0.0431566
0.041839
0.0406464
0.0398607
0.0530764
0.0503359
0.0490233
0.0475443
0.0461004
0.0447488
0.0434935
0.042311
0.0412443
0.0405203
0.0525589
0.0499052
0.0487039
0.0473511
0.0460399
0.0448233
0.0437054
0.0426647
0.0417215
0.0410246
0.0516613
0.0491717
0.0481349
0.0469554
0.0458142
0.044762
0.0438041
0.0429235
0.0421284
0.0415224
0.0504117
0.0481566
0.0473329
0.0463709
0.0454357
0.0445772
0.0438041
0.0431035
0.0424763
0.042003
0.0488531
0.0468927
0.0463239
0.0456193
0.0449235
0.0442865
0.0437212
0.0432196
0.0427772
0.0424565
0.0470397
0.0454215
0.0451412
0.0447279
0.0443011
0.0439104
0.0435738
0.0432887
0.0430483
0.0428985
0.0450328
0.0437901
0.0438222
0.043727
0.0435939
0.0434706
0.0433803
0.0433269
0.0433045
0.0433454
0.0428977
0.0420476
0.0424057
0.0426475
0.0428269
0.0429878
0.0431579
0.0433482
0.0435564
0.0438061
0.0407148
0.0402476
0.0409315
0.0415196
0.0420236
0.04248
0.0429208
0.0433634
0.0438114
0.0442842
0.0385909
0.038458
0.0394454
0.0403751
0.0412069
0.0419643
0.0426812
0.0433808
0.0440733
0.0447799
0.0364744
0.0366805
0.0379642
0.0392308
0.0403902
0.04145
0.0424447
0.0434025
0.0443398
0.0452865
0.0344309
0.0349592
0.0365182
0.0381072
0.039587
0.0409452
0.042215
0.0434276
0.0446036
0.0457885
0.0325112
0.0333329
0.0351333
0.037021
0.0388072
0.0404543
0.0419916
0.0434513
0.0448537
0.0462635
0.0307489
0.0318286
0.033825
0.0359843
0.0380573
0.0399785
0.0417715
0.043467
0.0450785
0.0466861
0.0291646
0.0304638
0.0326111
0.0350046
0.0373417
0.0395171
0.0415506
0.0434686
0.0452716
0.0470321
0.0277707
0.0292472
0.0315068
0.0340947
0.0366571
0.0390679
0.0413249
0.0434521
0.0454372
0.0472923
0.0265743
0.0281873
0.0305171
0.0332535
0.0360093
0.0386295
0.0410917
0.0434136
0.0455661
0.0475173
0.0255765
0.0272884
0.0296456
0.032484
0.0353967
0.0381991
0.0408499
0.0433617
0.0456885
0.0477534
0.0247744
0.0265501
0.0288946
0.0317877
0.034816
0.0377696
0.0405858
0.043276
0.0458144
0.0480687
0.0241581
0.0259677
0.0282628
0.0311638
0.034264
0.037335
0.0402955
0.0431652
0.0460459
0.0488792
0.0236952
0.0255258
0.0277451
0.0306107
0.0337352
0.0368752
0.039923
0.0428627
0.0457779
0.0486106
0.0233939
0.0252251
0.0273423
0.0301309
0.0332311
0.0363894
0.0394722
0.042429
0.0453079
0.0480708
0.0232469
0.0250586
0.0270527
0.0297284
0.0327626
0.0358998
0.0389891
0.0419616
0.0448424
0.0475809
0.0232395
0.0250153
0.0268727
0.0294078
0.0323422
0.035428
0.0385036
0.0414863
0.0443827
0.0471253
0.0233564
0.0250837
0.0267972
0.0291719
0.0319789
0.0349869
0.0380285
0.0410074
0.043912
0.0466692
0.0235827
0.0252517
0.0268198
0.029021
0.031679
0.034586
0.0375741
0.0405347
0.0434381
0.0462109
0.0239034
0.0255066
0.0269324
0.0289536
0.0314465
0.0342329
0.0371501
0.0400798
0.0429739
0.04576
0.024304
0.0258353
0.0271251
0.0289656
0.0312832
0.0339336
0.0367645
0.0396515
0.0425291
0.0453264
0.024778
0.02623
0.0273905
0.0290529
0.0311891
0.0336911
0.0364222
0.0392554
0.0421099
0.0449177
0.0253299
0.0266955
0.0277322
0.0292196
0.03117
0.0335124
0.03613
0.0388975
0.0417212
0.0445381
0.0259053
0.027189
0.0281165
0.029442
0.0312116
0.0333907
0.0358855
0.0385773
0.0413614
0.0441816
0.0265061
0.0277104
0.0285402
0.0297158
0.0313109
0.0333243
0.0356877
0.0382928
0.0410262
0.0438372
0.0271298
0.028256
0.0289975
0.0300349
0.0314628
0.0333101
0.0355344
0.0380414
0.0407108
0.0434962
0.02777
0.0288186
0.0294806
0.0303917
0.0316615
0.0333444
0.0354235
0.037821
0.0404112
0.0431504
0.028421
0.0293925
0.0299826
0.0307794
0.0319014
0.033424
0.0353539
0.0376311
0.0401247
0.0427898
0.029079
0.0299734
0.0304985
0.0311923
0.0321778
0.0335461
0.0353252
0.0374736
0.0398528
0.0424078
0.0297411
0.0305582
0.0310241
0.0316258
0.0324867
0.0337086
0.0353385
0.0373536
0.0396052
0.0420059
0.0304056
0.0311448
0.0315568
0.0320767
0.0328249
0.0339103
0.0353952
0.0372801
0.03941
0.0416264
0.0310716
0.031732
0.0320948
0.0325424
0.0331903
0.0341497
0.035494
0.037249
0.0392888
0.0413433
0.0317389
0.0323188
0.0326363
0.0330206
0.0335801
0.0344268
0.0356431
0.0372925
0.0394204
0.0418118
0.0324079
0.0329034
0.0331799
0.0335101
0.0339926
0.0347343
0.0358165
0.0372971
0.0392401
0.0414733
0.0330776
0.0334864
0.0337263
0.0340113
0.0344276
0.0350718
0.036019
0.0373175
0.0390209
0.0410174
0.0337458
0.0340666
0.0342752
0.0345245
0.0348873
0.0354476
0.0362742
0.0374141
0.038917
0.0406947
0.0344088
0.0346418
0.0348254
0.0350497
0.0353735
0.0358672
0.0365917
0.0375937
0.0389197
0.0404993
0.0350604
0.0352084
0.0353747
0.0355858
0.0358862
0.0363314
0.036973
0.0378538
0.0390159
0.0404133
0.0356921
0.035761
0.0359195
0.0361304
0.0364233
0.0368388
0.0374174
0.0381955
0.0392082
0.040436
0.0362918
0.0362927
0.0364542
0.0366785
0.0369805
0.0373856
0.0379217
0.0386172
0.0394981
0.0405687
0.0368453
0.0367943
0.0369703
0.0372226
0.0375502
0.0379635
0.0384782
0.0391122
0.0398811
0.0408074
0.0373355
0.0372553
0.0374587
0.0377525
0.038121
0.0385604
0.0390734
0.0396674
0.040346
0.0411412
)
;

boundaryField
{
    inlet
    {
        type            zeroGradient;
    }
    outlet
    {
        type            fixedValue;
        value           uniform 0;
    }
    cylinder
    {
        type            zeroGradient;
    }
    top
    {
        type            symmetryPlane;
    }
    bottom
    {
        type            symmetryPlane;
    }
    defaultFaces
    {
        type            empty;
    }
}


// ************************************************************************* //
