/*--------------------------------*- C++ -*----------------------------------*\
  =========                 |
  \\      /  F ield         | OpenFOAM: The Open Source CFD Toolbox
   \\    /   O peration     | Website:  https://openfoam.org
    \\  /    A nd           | Version:  7
     \\/     M anipulation  |
\*---------------------------------------------------------------------------*/
FoamFile
{
    version     2.0;
    format      ascii;
    class       surfaceScalarField;
    location    "51";
    object      phi;
}
// * * * * * * * * * * * * * * * * * * * * * * * * * * * * * * * * * * * * * //

dimensions      [0 3 -1 0 0 0 0];

internalField   nonuniform List<scalar> 
3880
(
-0.000115128
-0.00039639
0.000511518
-0.000235715
-0.000483527
0.000604113
-0.000275895
-0.000168332
0.000208512
-0.000180865
0.000435835
-0.000530865
8.8387e-05
0.00128944
-0.00155869
0.000559236
0.00238043
-0.00285128
0.0012462
0.0037025
-0.00438946
0.00214774
0.00524396
-0.0061455
0.00324205
0.00698235
-0.00807667
0.00887878
0.00448116
-0.0101179
-0.000122906
-0.000273485
-0.000250439
-0.000355993
-0.000300396
-0.000118375
-0.000222224
0.000357663
2.16467e-05
0.00104557
0.000461252
0.00194082
0.00111852
0.00304523
0.00200252
0.00435996
0.00310231
0.00588256
0.00760619
0.0043749
-0.00011893
-0.000154554
-0.000231086
-0.000243838
-0.000262588
-8.68727e-05
-0.000171344
0.000266419
7.43884e-05
0.000799837
0.000502461
0.00151275
0.00113798
0.00240971
0.00199831
0.00349964
0.00308439
0.00479648
0.00632777
0.00436281
-0.000101383
-5.31719e-05
-0.000172214
-0.000173006
-0.000151025
-0.000108062
-7.05885e-06
0.000122453
0.000280115
0.000512663
0.00073257
0.00106029
0.00137277
0.00176951
0.0022218
0.00265061
0.00329136
0.00372692
0.00505633
0.0045628
-6.95638e-05
1.63918e-05
-7.14569e-05
-0.000171113
3.98123e-05
-0.000219332
0.00028082
-0.000118554
0.000660658
0.000132824
0.00118894
0.00053201
0.00188053
0.00107792
0.00275435
0.00177678
0.00382889
0.00265239
0.00378029
0.00510494
-2.3702e-05
4.00937e-05
6.96314e-05
-0.000264446
0.000307567
-0.000457268
0.000691994
-0.000502981
0.00121783
-0.00039301
0.00188146
-0.000131618
0.00268559
0.000273791
0.00364097
0.000821407
0.00476679
0.00152657
0.0024635
0.00608357
3.46341e-05
5.45951e-06
0.000245476
-0.000475288
0.000640998
-0.00085279
0.00120759
-0.00106957
0.00192641
-0.00111183
0.00278024
-0.00098545
0.00375792
-0.000703889
0.0048577
-0.00027837
0.0060922
0.00029206
0.00105976
0.00749595
0.000101585
-9.61258e-05
0.000446625
-0.000820328
0.00102026
-0.00142642
0.0017933
-0.00184261
0.00273399
-0.00205253
0.00381285
-0.00206431
0.0050056
-0.00189664
0.00629635
-0.00156912
0.00768492
-0.0010965
-0.000464748
0.00920942
0.000174575
-0.000270701
0.000661092
-0.00130684
0.00141897
-0.0021843
0.00240211
-0.00282575
0.00356663
-0.00321705
0.00487349
-0.00337117
0.00628878
-0.00331194
0.00778337
-0.00306371
0.00933753
-0.00265066
-0.00211404
0.0109868
0.000249548
-0.00052025
0.00087502
-0.00193232
0.00180647
-0.00311575
0.00297904
-0.00399832
0.00433751
-0.00457552
0.00583772
-0.00487137
0.00744539
-0.0049196
0.00913164
-0.00474996
0.0108585
-0.0043775
0.0125638
-0.00381932
0.00776484
0.0483742
-0.0516579
0.00942169
0.0767925
-0.0784493
0.00933982
0.0993723
-0.0992904
0.00844514
0.119569
-0.118674
0.00724114
0.140709
-0.139505
0.00589496
0.164706
-0.16336
0.00444032
0.192661
-0.191207
0.00282832
0.225506
-0.223894
0.00123712
0.267417
-0.265826
0.31539
-0.314153
0.00815318
0.0445959
0.0105735
0.0743722
0.0109139
0.0990318
0.0101821
0.120301
0.00900347
0.141887
0.00758227
0.166127
0.00595216
0.194291
0.00404486
0.227413
0.00196359
0.269498
0.317353
0.00841166
0.0405471
0.0116291
0.0711547
0.0124587
0.0982023
0.0119273
0.120832
0.0107822
0.143032
0.00928594
0.167623
0.00747482
0.196103
0.00526831
0.22962
0.0026935
0.272073
0.320047
0.00857889
0.036531
0.0125415
0.0671921
0.0139296
0.0968142
0.0136462
0.121116
0.0125502
0.144128
0.0109838
0.16919
0.00899335
0.198093
0.00648756
0.232126
0.00341951
0.275141
0.323466
0.00874321
0.0328927
0.0132696
0.0626657
0.0152823
0.0948015
0.0153046
0.121093
0.0142813
0.145152
0.0126534
0.170818
0.0104913
0.200255
0.00769171
0.234925
0.00413869
0.278694
0.327605
0.00902176
0.0299545
0.0137944
0.0578931
0.0164753
0.0921205
0.0168641
0.120705
0.0159444
0.146071
0.0142697
0.172492
0.0119473
0.202577
0.00886602
0.238007
0.00484036
0.28272
0.332445
0.00952071
0.0279298
0.0141412
0.0532726
0.0174761
0.0887857
0.0182994
0.119881
0.0175279
0.146843
0.0158253
0.174195
0.0133579
0.205045
0.0100085
0.241356
0.00552616
0.287202
0.337971
0.0102872
0.026852
0.0143827
0.049177
0.0182511
0.0849173
0.019547
0.118585
0.0189704
0.14742
0.0172688
0.175896
0.014678
0.207636
0.0110868
0.244947
0.00617759
0.292111
0.344149
0.0112613
0.0265775
0.014606
0.0458324
0.0188356
0.0806877
0.0206749
0.116746
0.0203452
0.147749
0.0186596
0.177582
0.0159603
0.210335
0.0121315
0.248776
0.00680974
0.297433
0.350959
0.0123434
0.0267979
0.0148886
0.0432871
0.019102
0.0764743
0.0214556
0.114392
0.0214914
0.147713
0.0198933
0.17918
0.0171543
0.213074
0.0131002
0.25283
0.00744449
0.303089
0.358403
0.0374397
0.0371676
-0.0478094
0.0284981
0.0522287
0.0261638
0.0788086
0.0245227
0.116034
0.0210805
0.151156
0.0167756
0.183485
0.0122331
0.217616
0.00746981
0.257593
0.00293931
0.307619
0.361343
0.0438261
0.0425127
-0.0491712
0.035184
0.0608708
0.0297739
0.0842187
0.0265757
0.119232
0.0221548
0.155577
0.0168485
0.188791
0.0117409
0.222724
0.00696701
0.262367
0.00272829
0.311858
0.364071
0.0448029
0.0448642
-0.0471544
0.0385054
0.0671683
0.0322247
0.0904994
0.0277376
0.123719
0.0231212
0.160193
0.0179287
0.193984
0.0126342
0.228018
0.00748844
0.267513
0.00298726
0.316359
0.367058
0.042119
0.0454785
-0.0427334
0.038458
0.0708293
0.0332046
0.0957528
0.028198
0.128726
0.0228043
0.165587
0.0171083
0.19968
0.0118212
0.233305
0.00702409
0.27231
0.00283
0.320553
0.369888
0.0371068
0.045136
-0.0367642
0.0354237
0.0725123
0.0317492
0.0994272
0.0276558
0.132819
0.0231056
0.170137
0.0178126
0.204973
0.0123358
0.238782
0.00722694
0.277419
0.00287214
0.324908
0.37276
0.030716
0.0439503
-0.0295303
0.0307356
0.0724927
0.0285189
0.101644
0.0248423
0.136496
0.0203796
0.174599
0.0156306
0.209722
0.011009
0.243404
0.00659252
0.281836
0.0026575
0.328843
0.375418
0.0235455
0.0422754
-0.0218706
0.0247613
0.0712769
0.0245308
0.101874
0.0228923
0.138134
0.0197875
0.177704
0.0154312
0.214078
0.0107524
0.248083
0.0063572
0.286231
0.00254591
0.332654
0.377964
0.0165377
0.0403655
-0.0146278
0.01802
0.0697945
0.0181619
0.101733
0.0171377
0.139158
0.0152603
0.179582
0.0125182
0.21682
0.00913855
0.251462
0.00553855
0.289831
0.00222071
0.335972
0.380184
0.0103382
0.0381857
-0.00815828
0.0129339
0.0671988
0.0149324
0.099734
0.0155097
0.138581
0.0142997
0.180792
0.0117328
0.219387
0.00853612
0.254659
0.00521023
0.293157
0.00208748
0.339095
0.382272
0.00269837
-0.00209349
0.00395607
0.00619941
0.00857948
0.00980014
0.00908072
0.00704951
0.00436576
0.00181047
0.0155653
-0.0490455
-0.0143291
0.0148759
-0.0484818
0.0134119
-0.0456904
0.0116746
-0.040996
0.00994547
-0.0350351
0.00838557
-0.0279704
0.00710545
-0.0205905
0.00610219
-0.0136246
0.00542573
-0.00748182
-0.00192642
0.0142668
-0.0491411
-0.0141713
0.0130172
-0.0472321
0.0113267
-0.044
0.00950597
-0.0391753
0.00776502
-0.0332942
0.00623248
-0.0264378
0.00498799
-0.019346
0.00402043
-0.012657
0.00336002
-0.00682142
-0.00170848
0.0125162
-0.0484665
-0.0131907
0.010926
-0.0456419
0.00909761
-0.0421715
0.00722288
-0.0373006
0.00547833
-0.0315496
0.0039728
-0.0249323
0.00276862
-0.0181418
0.00185057
-0.0117389
0.00122167
-0.00619251
-0.001459
0.010354
-0.0472753
-0.0115452
0.00855743
-0.0438454
0.00666709
-0.0402812
0.00479207
-0.0354255
0.00308273
-0.0298403
0.00162975
-0.0234793
0.000484429
-0.0169965
-0.000376084
-0.0108784
-0.000972182
-0.00559642
-0.00120104
0.00787028
-0.0457407
-0.00940494
0.00596362
-0.0419387
0.00406764
-0.0383852
0.00223455
-0.0335924
0.000595878
-0.0282016
-0.000775754
-0.0221077
-0.00185623
-0.015916
-0.00265375
-0.0100809
-0.00320193
-0.00504823
-0.000960292
0.00516632
-0.0439798
-0.00692719
0.00322068
-0.0399931
0.00136038
-0.0365249
-0.000397435
-0.0318346
-0.0019431
-0.0266559
-0.00322221
-0.0208286
-0.00421752
-0.0149207
-0.00494215
-0.00935629
-0.00543688
-0.0045535
-0.00075495
0.00233899
-0.042071
-0.00424777
0.000402687
-0.0380568
-0.00138336
-0.0347389
-0.00304976
-0.0301682
-0.00448647
-0.0252192
-0.00566041
-0.0196547
-0.00656556
-0.0140156
-0.00721431
-0.00870753
-0.00764678
-0.00412103
-0.00060002
-0.000500054
-0.0400933
-0.00147762
-0.00239224
-0.0361646
-0.00410122
-0.0330299
-0.00566066
-0.0286088
-0.00698344
-0.0238965
-0.00804959
-0.0185885
-0.00886391
-0.0132013
-0.00943507
-0.00813637
-0.00979816
-0.00375794
-0.000505776
-0.00330276
-0.03807
0.00127943
-0.00511592
-0.0343514
-0.00672729
-0.0314185
-0.0081735
-0.0271626
-0.0093845
-0.0226855
-0.0103462
-0.0176268
-0.0110732
-0.0124743
-0.011567
-0.00764258
-0.0118568
-0.00346814
-0.000476203
-0.00596142
-0.0360538
0.00394524
-0.00768993
-0.0326229
-0.0092031
-0.0299054
-0.0105359
-0.0258297
-0.0116433
-0.0215781
-0.012508
-0.0167622
-0.0131541
-0.0118282
-0.0135734
-0.00722329
-0.0137907
-0.00325077
-0.000508198
-0.00841754
-0.0340875
0.00645121
-0.010058
-0.0309825
-0.0114791
-0.0284843
-0.0127027
-0.0246062
-0.0137191
-0.0205617
-0.0144967
-0.0159846
-0.0150708
-0.011254
-0.0154221
-0.00687199
-0.0155738
-0.00309911
-0.00059165
-0.0106383
-0.0321963
0.00874703
-0.0121829
-0.0294378
-0.0135198
-0.0271474
-0.0146412
-0.0234848
-0.0155796
-0.0196232
-0.0162824
-0.0152818
-0.0167952
-0.0107412
-0.0170889
-0.00657821
-0.0171875
-0.00300055
-0.000710251
-0.0125903
-0.0304005
0.0107945
-0.0140338
-0.0279943
-0.0152963
-0.0258849
-0.0163254
-0.0224556
-0.0171995
-0.0187491
-0.0178427
-0.0146386
-0.0183075
-0.0102765
-0.0185592
-0.00632649
-0.0186226
-0.00293714
-0.000842754
-0.0142565
-0.0287124
0.0125685
-0.0155943
-0.0266566
-0.0167927
-0.0246865
-0.017742
-0.0215063
-0.0185654
-0.0179258
-0.0191667
-0.0140373
-0.0195994
-0.00984378
-0.0198289
-0.00609703
-0.0198792
-0.00288684
-0.000964656
-0.0156321
-0.0271325
0.0140522
-0.0168608
-0.0254279
-0.0180044
-0.0235429
-0.0188894
-0.0206212
-0.0196748
-0.0171404
-0.0202544
-0.0134577
-0.0206731
-0.00942506
-0.0209034
-0.00586673
-0.0209652
-0.00282511
-0.00104978
-0.0167232
-0.0256439
0.0152345
-0.0178433
-0.0243078
-0.0189375
-0.0224487
-0.0197769
-0.0197818
-0.0205359
-0.0163814
-0.0211154
-0.0128782
-0.02154
-0.0090004
-0.0217963
-0.00561051
-0.0218951
-0.00272623
-0.00107156
-0.0175419
-0.0242097
0.0161077
-0.0185612
-0.0232885
-0.019605
-0.0214049
-0.0204205
-0.0189663
-0.021164
-0.0156379
-0.0217658
-0.0122763
-0.0222177
-0.00854858
-0.0225258
-0.00530242
-0.0226877
-0.00256425
-0.00100392
-0.0180752
-0.0228014
0.0166669
-0.01902
-0.0223436
-0.0200136
-0.0204113
-0.0208344
-0.0181455
-0.0215768
-0.0148955
-0.0222247
-0.0116285
-0.0227267
-0.00804655
-0.0231129
-0.00491623
-0.0233638
-0.0023133
-0.000821654
-0.0182989
-0.0214305
0.016928
-0.0192365
-0.0214061
-0.0201829
-0.0194649
-0.0210394
-0.017289
-0.0217983
-0.0141366
-0.0225146
-0.0109122
-0.0230899
-0.00747122
-0.0235794
-0.00442678
-0.0239446
-0.00194807
-0.000500184
-0.0183531
-0.0200504
0.016973
-0.0193482
-0.0204109
-0.0201829
-0.0186302
-0.0210627
-0.0164091
-0.0218425
-0.0133568
-0.0226394
-0.0101154
-0.0233157
-0.00679488
-0.0239387
-0.0038038
-0.0244561
-0.0014306
-2.10155e-05
-0.0740495
-0.0174449
0.071444
-0.0789794
-0.015481
-0.0833794
-0.0142303
-0.0878597
-0.0119288
-0.0915102
-0.0097063
-0.0945345
-0.00709103
-0.0965576
-0.0047718
-0.0977676
-0.00259388
-0.0981864
-0.00101174
-3.5983e-05
-0.0912218
-0.014815
0.088592
-0.0945484
-0.0121544
-0.0976442
-0.0111345
-0.100753
-0.00882034
-0.103246
-0.00721273
-0.105266
-0.005071
-0.106566
-0.00347163
-0.107299
-0.00186138
-0.107514
-0.000796994
-4.48112e-05
-0.108005
-0.0125977
0.105788
-0.110293
-0.00986608
-0.11257
-0.00885764
-0.114711
-0.00667931
-0.116431
-0.00549354
-0.11776
-0.0037411
-0.118573
-0.00265907
-0.119013
-0.00142178
-0.119116
-0.000693642
-4.48412e-05
-0.126918
-0.0110592
0.125379
-0.128563
-0.00822073
-0.130182
-0.00723869
-0.131626
-0.00523608
-0.132779
-0.00434015
-0.133659
-0.00286105
-0.13418
-0.00213841
-0.134465
-0.00113604
-0.134521
-0.000638439
-3.75932e-05
-0.149481
-0.00958143
0.148003
-0.150737
-0.00696467
-0.15196
-0.00601577
-0.152987
-0.00420829
-0.153828
-0.00349982
-0.154464
-0.00222476
-0.154866
-0.00173612
-0.155119
-0.000883304
-0.1552
-0.000557935
-1.33693e-06
-0.176067
-0.00802751
0.174513
-0.177231
-0.00579975
-0.178351
-0.0048961
-0.179238
-0.00332141
-0.179979
-0.00275888
-0.180537
-0.0016671
-0.180954
-0.00131868
-0.181267
-0.000570499
-0.181453
-0.00037214
5.01922e-05
-0.204403
-0.00636782
0.202743
-0.20596
-0.00424198
-0.207295
-0.00356159
-0.208188
-0.00242787
-0.208929
-0.00201869
-0.209474
-0.00112143
-0.209957
-0.000836305
-0.210327
-0.000199914
-0.210576
-0.000123612
0.000114403
-0.231689
-0.00406547
0.229386
-0.232785
-0.00314547
-0.233765
-0.00258197
-0.234569
-0.00162403
-0.235299
-0.00128821
-0.235814
-0.000606522
-0.236254
-0.000396236
-0.236528
7.38847e-05
-0.236704
5.2564e-05
0.00013418
-0.249001
-0.00224029
0.247176
-0.250871
-0.00127572
-0.252392
-0.00106111
-0.253342
-0.000674504
-0.254059
-0.000570484
-0.254413
-0.000252935
-0.254668
-0.000140811
-0.254696
0.000101126
-0.254716
7.25732e-05
7.96911e-05
-0.260003
0.257762
-0.261278
-0.26234
-0.263014
-0.263585
-0.263838
-0.263978
-0.263877
-0.263805
-0.0192225
0.0730599
0.0176066
-0.0200515
0.0894211
-0.0204492
0.106185
-0.020388
0.125318
-0.0198108
0.147426
-0.018355
0.173057
-0.015754
0.200142
-0.0111734
0.224806
-0.00620288
0.242206
0.25156
-0.0181354
0.0739831
0.0172121
-0.0188109
0.0900966
-0.019105
0.10648
-0.0189426
0.125156
-0.0182733
0.146756
-0.0167911
0.171575
-0.0142145
0.197565
-0.0102667
0.220858
-0.00550215
0.237441
0.246057
-0.0172725
0.0747477
0.016508
-0.0177964
0.0906205
-0.0179666
0.10665
-0.0177323
0.124922
-0.0170247
0.146049
-0.0155733
0.170123
-0.0130974
0.195089
-0.00947553
0.217236
-0.00501498
0.232981
0.241042
-0.016277
0.0754451
0.0155796
-0.0166854
0.0910288
-0.0167263
0.106691
-0.0164044
0.1246
-0.0156571
0.145302
-0.0142416
0.168708
-0.0119055
0.192753
-0.00860236
0.213933
-0.00451301
0.228891
0.236529
-0.0151047
0.0760612
0.0144886
-0.0154201
0.0913442
-0.0153613
0.106632
-0.0149715
0.12421
-0.0142015
0.144532
-0.0128369
0.167343
-0.0106699
0.190586
-0.00767775
0.210941
-0.00401105
0.225225
0.232518
-0.0137994
0.0765821
0.0132784
-0.0140103
0.0915552
-0.0138654
0.106487
-0.0134289
0.123773
-0.0126575
0.14376
-0.0113675
0.166053
-0.00939523
0.188614
-0.00672446
0.20827
-0.0035057
0.222006
0.229013
-0.0123984
0.0770006
0.0119798
-0.0124958
0.0916526
-0.0122654
0.106257
-0.0117915
0.1233
-0.0110337
0.143002
-0.00983949
0.164859
-0.00808343
0.186858
-0.00575362
0.20594
-0.00299301
0.219245
0.22602
-0.0109252
0.0773038
0.0106221
-0.0109101
0.0916375
-0.0105949
0.105941
-0.0100876
0.122792
-0.00935205
0.142267
-0.00826897
0.163776
-0.00674445
0.185333
-0.00477208
0.203968
-0.00247409
0.216947
0.223546
-0.00940373
0.0774718
0.00923568
-0.00928135
0.0915151
-0.00888304
0.105543
-0.00834689
0.122256
-0.0076389
0.141559
-0.00667717
0.162814
-0.00539345
0.18405
-0.00378698
0.202361
-0.001953
0.215113
0.221593
-0.00785954
0.0774794
0.00785192
-0.0076392
0.0912948
-0.00715474
0.105059
-0.00659583
0.121697
-0.00591783
0.140881
-0.00508505
0.161981
-0.00404661
0.183011
-0.00280758
0.201122
-0.00143547
0.213741
0.220157
-0.0063264
0.0772978
0.00650802
-0.0060208
0.0909892
-0.00544239
0.10448
-0.00486417
0.121119
-0.00421486
0.140231
-0.00351403
0.161281
-0.00271994
0.182217
-0.0018436
0.200246
-0.000926656
0.212824
0.21923
-0.00485873
0.0769316
0.00522491
-0.0044565
0.0905869
-0.00379283
0.103817
-0.00318724
0.120513
-0.0025682
0.139612
-0.00198804
0.1607
-0.00142999
0.181659
-0.000908587
0.199725
-0.000432806
0.212349
0.218798
-0.00349923
0.0763971
0.00403377
-0.00298375
0.0900715
-0.0022512
0.103084
-0.00161076
0.119873
-0.00102586
0.139028
-0.000559065
0.160234
-0.000229102
0.181329
-4.68882e-05
0.199542
1.74941e-05
0.212284
0.218815
-0.00227585
0.0757219
0.00295106
-0.00162473
0.0894203
-0.000855663
0.102315
-0.000189657
0.119207
0.000403615
0.138434
0.000810271
0.159827
0.000950886
0.181189
0.00082476
0.199668
0.000479525
0.212629
0.219295
-0.00120967
0.0749495
0.00198208
-0.000409612
0.0886203
0.000417341
0.101488
0.00122945
0.118395
0.00182108
0.137843
0.0021216
0.159526
0.00206384
0.181246
0.00163463
0.200098
0.00090574
0.213358
0.2202
-0.000325806
0.0741565
0.00111874
0.000719828
0.0875746
0.00166468
0.100543
0.00249813
0.117561
0.00308315
0.137258
0.00330776
0.159302
0.00307665
0.181477
0.00237346
0.200801
0.00129322
0.214439
0.221494
0.000523855
0.0732982
0.00033448
0.0017424
0.0863561
0.00273924
0.0995463
0.00362496
0.116676
0.00422074
0.136662
0.00439239
0.15913
0.00401323
0.181857
0.00306118
0.201753
0.00165471
0.215845
0.223148
0.00127789
0.0724003
-0.000380019
0.00259303
0.085041
0.00363466
0.0985047
0.00456474
0.115746
0.00517143
0.136055
0.0053033
0.158998
0.00480475
0.182355
0.00364466
0.202913
0.00195842
0.217531
0.225107
0.00195531
0.0715154
-0.00107039
0.00337374
0.0836225
0.00446836
0.0974101
0.00544411
0.11477
0.00607217
0.135427
0.00617532
0.158895
0.00556598
0.182964
0.0042057
0.204273
0.00225158
0.219485
0.227358
0.00228639
0.0709748
-0.00174575
0.00374725
0.0821617
0.00488703
0.0962703
0.00588919
0.113768
0.00653839
0.134778
0.00664661
0.158787
0.00599518
0.183616
0.0045293
0.205739
0.0024109
0.221604
0.229769
-0.0596362
0.0645697
0.0660413
-0.0537339
0.0762594
-0.0494311
0.0919675
-0.0448583
0.109195
-0.0399309
0.12985
-0.034177
0.153033
-0.0271862
0.176625
-0.0189069
0.19746
-0.00965658
0.212353
0.220113
-0.0710232
0.0594107
0.0761822
-0.065821
0.0710571
-0.0608746
0.0870212
-0.055308
0.103628
-0.0494203
0.123963
-0.0423474
0.14596
-0.0337277
0.168005
-0.0235599
0.187292
-0.0122179
0.201011
0.207895
-0.0842716
0.0543222
0.0893601
-0.0789883
0.0657738
-0.0732079
0.0812408
-0.0667816
0.0972019
-0.0597004
0.116882
-0.0508634
0.137123
-0.0402711
0.157413
-0.0278951
0.174916
-0.0141337
0.18725
0.193761
-0.10043
0.0493928
0.105359
-0.094636
0.0599799
-0.0881836
0.0747884
-0.0808852
0.0899035
-0.0722311
0.108227
-0.0612982
0.12619
-0.0484369
0.144552
-0.0335819
0.160061
-0.0173658
0.171034
0.176395
-0.118797
0.0436156
0.124574
-0.112541
0.0537233
-0.105138
0.0673863
-0.0961435
0.0809085
-0.0850463
0.0971302
-0.0714696
0.112613
-0.0559109
0.128993
-0.0381206
0.142271
-0.0190125
0.151926
0.157383
-0.141534
0.037939
0.14721
-0.134146
0.0463355
-0.125186
0.058426
-0.113952
0.0696748
-0.10029
0.0834681
-0.0841341
0.0964577
-0.0656046
0.110464
-0.0447646
0.121431
-0.0230169
0.130178
0.134366
-0.164664
0.0306776
0.171926
-0.155706
0.0373771
-0.144501
0.047221
-0.130494
0.0556678
-0.113848
0.0668225
-0.0942242
0.0768335
-0.0716197
0.0878591
-0.0468987
0.0967098
-0.0222278
0.105507
0.112138
-0.190388
0.0229825
0.198083
-0.179712
0.0267014
-0.166381
0.0338902
-0.150122
0.0394083
-0.130894
0.0475941
-0.108218
0.0541576
-0.0826549
0.0622964
-0.0556042
0.0696591
-0.0292921
0.0791951
0.0828461
-0.208496
0.0110388
0.22044
-0.19503
0.013235
-0.178034
0.0168939
-0.158212
0.0195868
-0.134563
0.0239448
-0.107606
0.0272008
-0.0772853
0.0319755
-0.0440882
0.036462
-0.0106192
0.045726
0.0722269
-0.287252
0.29829
-0.274017
-0.257123
-0.237536
-0.213591
-0.18639
-0.154415
-0.117953
-0.0722269
-0.000755136
0.0680163
-0.00121991
-0.00224054
0.0776676
-0.00343006
0.0905497
-0.00431601
0.106245
-0.00483506
0.125093
-0.00493817
0.147313
-0.00449609
0.171484
-0.00348638
0.197073
-0.00286471
0.219819
0.295426
-0.000285827
0.0699566
-0.00165447
-0.00188735
0.0792691
-0.00315277
0.0918151
-0.00406394
0.107156
-0.00462382
0.125653
-0.00474316
0.147433
-0.00436703
0.171108
-0.00338346
0.19609
-0.00261272
0.219048
0.292813
0.000301352
0.0717683
-0.00211308
-0.00127858
0.0808491
-0.00253064
0.0930672
-0.00342949
0.108055
-0.00401611
0.12624
-0.00416573
0.147582
-0.00389226
0.170834
-0.00300595
0.195203
-0.00236904
0.218411
0.290444
0.000870022
0.0734957
-0.0025974
-0.000681963
0.0824011
-0.00182344
0.0942086
-0.00268148
0.108913
-0.00324687
0.126805
-0.0034445
0.14778
-0.00325244
0.170642
-0.00253328
0.194484
-0.00204877
0.217926
0.288395
0.0014242
0.0751742
-0.00310268
-0.00011126
0.0839365
-0.00112587
0.0952232
-0.00192591
0.109713
-0.00245515
0.127335
-0.0026749
0.148
-0.00255565
0.170523
-0.00200178
0.19393
-0.00168017
0.217605
0.286715
0.00201045
0.0767806
-0.00361683
0.000620247
0.0853267
-0.00036658
0.0962101
-0.00110777
0.110454
-0.00160287
0.12783
-0.00184021
0.148237
-0.00180262
0.170485
-0.00141546
0.193543
-0.0012736
0.217463
0.285441
0.0026295
0.0782828
-0.00413173
0.00138772
0.0865685
0.000485937
0.0971118
-0.000216062
0.111156
-0.000664339
0.128278
-0.000925188
0.148498
-0.000964448
0.170524
-0.000773946
0.193353
-0.000827756
0.217517
0.284614
0.00327295
0.0796504
-0.00464056
0.00218366
0.0876578
0.00139145
0.0979041
0.000788884
0.111759
0.00035806
0.128709
4.24489e-05
0.148814
-6.35975e-07
0.170568
-9.91631e-05
0.193451
-0.000338066
0.217756
0.284276
0.0039332
0.0808505
-0.00513333
0.00300133
0.0885896
0.00232339
0.098582
0.00182236
0.11226
0.0014344
0.129097
0.00113871
0.149109
0.000911255
0.170795
0.000690457
0.193672
0.000176731
0.218269
0.284452
0.00459725
0.0818486
-0.00559532
0.00382877
0.0893581
0.00327581
0.099135
0.00287544
0.11266
0.00254248
0.12943
0.00223001
0.149422
0.00189936
0.171126
0.00148284
0.194089
0.000683725
0.219068
0.285136
0.00524397
0.0826061
-0.00600145
0.00464472
0.0899574
0.00422563
0.099554
0.00393141
0.112955
0.00365689
0.129704
0.00333468
0.149744
0.00290528
0.171555
0.00228524
0.194709
0.00121435
0.220139
0.28635
0.00586506
0.083088
-0.00634695
0.00543982
0.0903826
0.0051621
0.0998318
0.00497929
0.113137
0.00476845
0.129915
0.00444611
0.150066
0.00391819
0.172083
0.00309988
0.195527
0.00175514
0.221484
0.288106
0.00642804
0.0832763
-0.00661639
0.00618655
0.0906241
0.00605679
0.0999615
0.00598894
0.113205
0.00585096
0.130053
0.00553806
0.150379
0.00492011
0.172701
0.00391354
0.196533
0.00229741
0.2231
0.290403
0.00691456
0.0831637
-0.00680197
0.00686612
0.0906726
0.00688559
0.0999421
0.0069358
0.113155
0.00688184
0.130107
0.0065867
0.150674
0.00589251
0.173395
0.00471031
0.197716
0.00283137
0.224979
0.293234
0.00730946
0.0827539
-0.00689961
0.00746296
0.0905191
0.00762885
0.0997762
0.0077989
0.112985
0.00783805
0.130068
0.00757473
0.150938
0.00682452
0.174145
0.00548205
0.199058
0.00335443
0.227107
0.296589
0.0075999
0.0820664
-0.00691246
0.00796159
0.0901574
0.00826663
0.0994711
0.00855482
0.112697
0.00869222
0.12993
0.00847309
0.151157
0.00768947
0.174929
0.00620685
0.200541
0.00385206
0.229462
0.300441
0.00778734
0.0811334
-0.00685434
0.00836103
0.0895837
0.0087965
0.0990357
0.00920098
0.112292
0.00944425
0.129687
0.00928612
0.151315
0.00849118
0.175724
0.00689039
0.202142
0.00432908
0.232023
0.30477
0.00785576
0.0800261
-0.00674836
0.0086285
0.0888109
0.00918078
0.0984834
0.0096893
0.111784
0.0100353
0.129341
0.00994771
0.151403
0.00916864
0.176503
0.00748919
0.203821
0.00475777
0.234754
0.309528
0.00791508
0.0787559
-0.00664495
0.00887433
0.0878517
0.00952533
0.0978324
0.0101253
0.111184
0.0105721
0.128894
0.010562
0.151413
0.00980605
0.177259
0.0080541
0.205573
0.00516225
0.237646
0.31469
0.0076169
0.0776798
-0.00654082
0.00869853
0.0867701
0.00948374
0.0970472
0.0101702
0.110497
0.0107274
0.128337
0.0108204
0.15132
0.0101668
0.177913
0.00841544
0.207324
0.00547645
0.240585
0.320166
-0.0442657
0.0710304
0.0509151
-0.0370664
0.0795708
-0.0315713
0.0915521
-0.0263476
0.105274
-0.0213172
0.123307
-0.0161395
0.146142
-0.0107135
0.172487
-0.00545361
0.202064
-0.00224256
0.237374
0.317924
-0.0602622
0.0643356
0.066957
-0.0533304
0.072639
-0.0466963
0.084918
-0.0397675
0.0983448
-0.0329527
0.116492
-0.025638
0.138827
-0.0177674
0.164616
-0.00998519
0.194282
-0.00441887
0.231808
0.313505
-0.0777274
0.0574121
0.0846509
-0.0701335
0.0650451
-0.0622634
0.077048
-0.054015
0.0900963
-0.0456387
0.108116
-0.0360691
0.129258
-0.0256159
0.154163
-0.0150201
0.183686
-0.00645339
0.223241
0.307052
-0.0969687
0.050461
0.10392
-0.0883678
0.0564442
-0.0797042
0.0683844
-0.0703653
0.0807574
-0.0600863
0.0978368
-0.0478779
0.117049
-0.034531
0.140816
-0.0207403
0.169896
-0.00891991
0.211421
0.298132
-0.118459
0.0424468
0.126473
-0.109842
0.0478272
-0.100687
0.0592293
-0.0896571
0.0697273
-0.0769223
0.085102
-0.0619205
0.102047
-0.0454614
0.124357
-0.0278948
0.152329
-0.0119963
0.195522
0.286135
-0.144714
0.0348681
0.152292
-0.135372
0.0384858
-0.124717
0.0485741
-0.111606
0.0566163
-0.0966007
0.0700966
-0.0789561
0.0844028
-0.0591264
0.104527
-0.0373664
0.130569
-0.0170458
0.175202
0.26909
-0.174913
0.0255391
0.184242
-0.165231
0.0288041
-0.153146
0.0364889
-0.138738
0.0422083
-0.121935
0.0532933
-0.101471
0.0639392
-0.0780297
0.0810858
-0.0518869
0.104426
-0.0252561
0.148571
0.243834
-0.210989
0.0164472
0.220081
-0.200079
0.017894
-0.186672
0.023082
-0.171138
0.0266746
-0.152266
0.0344209
-0.129876
0.0415492
-0.104257
0.0554672
-0.0748011
0.0749705
-0.0411717
0.114941
0.202662
-0.261833
0.00658933
0.271691
-0.251375
0.00743609
-0.238098
0.00980537
-0.223239
0.0118151
-0.204561
0.015743
-0.183064
0.0200518
-0.156091
0.0284951
-0.121972
0.0408512
-0.0736983
0.0666674
0.128964
-0.329829
0.336418
-0.322393
-0.312587
-0.300772
-0.285029
-0.264977
-0.236482
-0.195631
-0.128964
0.0029271
0.053266
-0.00527802
2.25512e-05
0.0698615
-0.00193074
0.0866042
-0.00365813
0.105647
-0.00500612
0.127821
-0.00600645
0.153293
-0.00627873
0.184514
-0.00609541
0.219897
-0.00419171
0.269787
0.332226
0.00305462
0.0552667
-0.00505528
0.000569076
0.0723471
-0.00150235
0.0886757
-0.00325623
0.107401
-0.00464469
0.12921
-0.0056499
0.154298
-0.00601118
0.184875
-0.00583615
0.219722
-0.00406885
0.26802
0.328157
0.00340431
0.0567629
-0.00490054
0.00125075
0.0745007
-0.000751313
0.0906777
-0.00245528
0.109105
-0.00384159
0.130596
-0.00485034
0.155307
-0.0052991
0.185324
-0.00515556
0.219579
-0.00372311
0.266587
0.324434
0.00381787
0.0577591
-0.004814
0.0019773
0.0763412
4.01823e-05
0.0926148
-0.00152105
0.110666
-0.00285916
0.131934
-0.00389117
0.156339
-0.00440714
0.18584
-0.00439375
0.219565
-0.00327207
0.265466
0.321162
0.00427599
0.058259
-0.00477591
0.00278255
0.0778347
0.00109166
0.0943057
-0.000520166
0.112278
-0.0017871
0.133201
-0.00283545
0.157387
-0.00342351
0.186428
-0.00357441
0.219716
-0.00275184
0.264643
0.31841
0.00480372
0.0582192
-0.00476399
0.00370228
0.0789361
0.00221314
0.0957949
0.000687908
0.113803
-0.000599737
0.134489
-0.00167188
0.158459
-0.00235227
0.187109
-0.00268665
0.220051
-0.00217751
0.264134
0.316233
0.00539579
0.0575815
-0.00475808
0.00473221
0.0795997
0.00346149
0.0970656
0.00206672
0.115198
0.000775143
0.13578
-0.000408069
0.159642
-0.00117213
0.187873
-0.00172467
0.220603
-0.0015555
0.263965
0.314677
0.00602905
0.0562914
-0.0047389
0.00584931
0.0797794
0.00482184
0.098093
0.0035407
0.116479
0.00228173
0.137039
0.00107808
0.160846
0.000153365
0.188797
-0.000701919
0.221458
-0.000887344
0.26415
0.31379
0.00666462
0.0543161
-0.00468934
0.00702538
0.0794187
0.0062713
0.0988471
0.00510887
0.117642
0.00386976
0.138279
0.00263774
0.162078
0.00151485
0.18992
0.000411207
0.222562
-0.000164463
0.264726
0.313626
0.00725951
-0.00460131
0.00822886
0.00778559
0.00675284
0.00552675
0.00424516
0.00295872
0.00162659
0.000526873
0.000323104
-0.000843354
0.00107476
-0.00268397
0.0021512
-0.0041922
0.00346671
-0.00531383
0.00495522
-0.00606403
0.00657123
-0.00648738
0.0082899
-0.00663827
0.0101102
-0.00657031
0.0120746
-0.0063419
-0.00607381
0.000388112
-0.00123147
0.00124047
-0.00353633
0.00241645
-0.00536818
0.00380794
-0.00670532
0.00533815
-0.00759424
0.00695965
-0.00810889
0.0086507
-0.00832932
0.0104117
-0.00833134
0.0122579
-0.00818806
-0.00798721
0.000441266
-0.00167273
0.00135996
-0.00445502
0.00257717
-0.00658539
0.00396389
-0.00809204
0.00543584
-0.00906619
0.00694655
-0.0096196
0.00847774
-0.00986051
0.0100293
-0.00988287
0.0116055
-0.00976426
-0.00957245
0.000477985
-0.00215072
0.00142055
-0.00539759
0.00261299
-0.00777783
0.00391113
-0.00939018
0.00523024
-0.0103853
0.00653135
-0.0109207
0.00780563
-0.0111348
0.00906039
-0.0111376
0.010306
-0.0110099
-0.0108116
0.000494086
-0.0026448
0.00141289
-0.00631639
0.00251339
-0.00887834
0.003646
-0.0105228
0.00473484
-0.0114741
0.0057555
-0.0119414
0.00671352
-0.0120928
0.00762774
-0.0120519
0.00851882
-0.011901
-0.0116978
0.000486241
-0.00313104
0.00133214
-0.00716229
0.00227886
-0.00982506
0.00318361
-0.0114275
0.00398828
-0.0122788
0.00468766
-0.0126407
0.0053028
-0.0127079
0.00586296
-0.012612
0.00639616
-0.0124342
-0.0122288
0.000452469
-0.00358351
0.00117877
-0.00788859
0.00192054
-0.0105668
0.00255395
-0.0120609
0.00304484
-0.0127697
0.00340806
-0.013004
0.00367745
-0.0129773
0.00388829
-0.0128229
0.00407039
-0.0126163
-0.0124062
0.000392521
-0.00397603
0.000958568
-0.00845463
0.00145815
-0.0110664
0.00179616
-0.012399
0.00196468
-0.0129382
0.00199588
-0.0130352
0.00193148
-0.0129129
0.00180762
-0.012699
0.00165085
-0.0124595
-0.0122329
0.000308025
-0.00428406
0.000681883
-0.00882849
0.000916963
-0.0113015
0.000952841
-0.0124348
0.000806263
-0.0127916
0.000521846
-0.0127508
0.00014393
-0.012535
-0.000294267
-0.0122608
-0.000772035
-0.0119817
-0.0117255
0.00020224
-0.0044863
0.000362219
-0.00898847
0.000324648
-0.0112639
6.5348e-05
-0.0121755
-0.000378099
-0.0123482
-0.000954377
-0.0121745
-0.00162079
-0.0118686
-0.0023497
-0.0115319
-0.00312615
-0.0112053
-0.0109064
0.000101799
-0.0045881
4.57736e-05
-0.00893245
-0.000259912
-0.0109582
-0.000799694
-0.0116358
-0.00151935
-0.0116285
-0.00236443
-0.0113294
-0.00329618
-0.0109369
-0.00429263
-0.0105354
-0.00534417
-0.0101537
-0.0097994
-2.42934e-05
-0.0045638
-0.000304826
-0.00865191
-0.000866792
-0.0103963
-0.00166233
-0.0108402
-0.00262686
-0.010664
-0.00370763
-0.0102486
-0.0048715
-0.009773
-0.00610186