/*--------------------------------*- C++ -*----------------------------------*\
  =========                 |
  \\      /  F ield         | OpenFOAM: The Open Source CFD Toolbox
   \\    /   O peration     | Website:  https://openfoam.org
    \\  /    A nd           | Version:  7
     \\/     M anipulation  |
\*---------------------------------------------------------------------------*/
FoamFile
{
    version     2.0;
    format      ascii;
    class       volVectorField;
    location    "51";
    object      U;
}
// * * * * * * * * * * * * * * * * * * * * * * * * * * * * * * * * * * * * * //

dimensions      [0 1 -1 0 0 0 0];

internalField   nonuniform List<vector> 
2000
(
(-0.00128465 -0.00461993 -9.16389e-22)
(-0.00344676 -0.00561206 0)
(-0.00473788 -0.00211109 0)
(-0.00412332 0.00463106 -4.52911e-21)
(-0.00168745 0.0141425 1.42617e-21)
(0.0024182 0.0262474 3.38925e-23)
(0.00798262 0.0408181 -2.46112e-21)
(0.0147187 0.0576485 0)
(0.022186 0.0763894 0)
(0.0298812 0.0964887 0)
(-0.00117247 -0.00351418 0)
(-0.00337201 -0.00461753 -3.51997e-21)
(-0.00492534 -0.00201826 3.24615e-21)
(-0.00483555 0.00342029 6.03706e-21)
(-0.00318557 0.0113621 0)
(-9.45261e-05 0.0217203 5.372e-21)
(0.00429566 0.0344662 -4.99548e-21)
(0.00979353 0.0495322 0)
(0.0160459 0.0667512 9.10671e-21)
(0.0225451 0.0858254 -1.75696e-20)
(-0.00113052 -0.00238217 0)
(-0.00305387 -0.003605 2.83283e-20)
(-0.00434542 -0.00184079 0)
(-0.0042407 0.00239641 2.46457e-20)
(-0.00286924 0.00886998 0)
(-0.000358103 0.0175376 -2.17389e-20)
(0.00318766 0.0284233 0)
(0.00765562 0.0415689 1.94433e-20)
(0.0128004 0.0569933 -1.82094e-20)
(0.0180818 0.0746975 -1.78447e-20)
(-0.00111376 -0.00133637 -7.46185e-21)
(-0.00237438 -0.00271523 -1.41002e-20)
(-0.00281456 -0.00166286 -6.58238e-21)
(-0.00208743 0.00156964 -1.21763e-20)
(-0.000409046 0.00681269 -1.15174e-20)
(0.00205334 0.0140113 1.0725e-20)
(0.00519571 0.0231924 1.0241e-20)
(0.00895885 0.0344544 -3.81014e-23)
(0.0132213 0.0479759 1.84291e-20)
(0.0174083 0.0640602 1.78418e-20)
(-0.00104805 -0.000491605 -7.44844e-21)
(-0.0011881 -0.0020887 -1.43312e-20)
(-0.000151179 -0.00157566 -2.6823e-20)
(0.00183867 0.000930583 1.23539e-20)
(0.0044496 0.00529025 0)
(0.00745069 0.0113957 0)
(0.0107176 0.0192247 -2.09807e-20)
(0.0142098 0.0288647 -1.98384e-20)
(0.0179373 0.0405963 1.87741e-20)
(0.0213432 0.05497 5.43643e-20)
(-0.000833171 5.17894e-05 7.46408e-21)
(0.000667786 -0.00184335 7.26833e-21)
(0.00380796 -0.00166362 -3.99803e-20)
(0.00767679 0.000443801 6.26587e-20)
(0.0118223 0.00433339 -1.1647e-20)
(0.0159403 0.00982762 0)
(0.0198747 0.0168111 0)
(0.02358 0.025296 9.93766e-20)
(0.0271874 0.0355828 -9.39871e-20)
(0.0302777 0.0483668 1.80044e-20)
(-0.000348489 0.00022267 5.8843e-20)
(0.00336075 -0.00205363 0)
(0.00918517 -0.00198737 5.33755e-20)
(0.0154675 5.80592e-05 -5.00493e-20)
(0.0216443 0.00390455 0)
(0.027349 0.00929081 2.2366e-20)
(0.0323998 0.0159945 -6.26598e-20)
(0.0367391 0.0239088 -7.96049e-20)
(0.0405924 0.0332649 3.74005e-20)
(0.0438377 0.0447883 3.62654e-20)
(0.000534477 -4.556e-06 -1.17206e-19)
(0.00704822 -0.0027349 -1.43435e-20)
(0.0160449 -0.00256228 -2.66204e-20)
(0.0251305 -0.000266922 -6.24295e-20)
(0.033651 0.00391014 -2.37188e-20)
(0.0412042 0.0096218 -2.22144e-20)
(0.047606 0.0165508 2.27668e-22)
(0.0527987 0.0244643 0)
(0.057068 0.0334552 0)
(0.0607377 0.0441786 -3.0993e-23)
(0.00193677 -0.000606094 5.83637e-20)
(0.0118539 -0.00382919 -5.66098e-20)
(0.0243751 -0.00334143 3.9879e-20)
(0.0364518 -0.000542801 8.75851e-20)
(0.0473814 0.00422902 -2.32607e-20)
(0.0567728 0.010546 2.24873e-20)
(0.064478 0.0180304 2.10213e-20)
(0.0704572 0.0263717 0)
(0.0749985 0.0355344 0)
(0.0789233 0.0460284 -5.08764e-22)
(0.00396198 -0.00151154 -7.19409e-21)
(0.0178423 -0.00520084 7.08726e-20)
(0.0340617 -0.00421378 -1.3144e-20)
(0.0490723 -0.000746385 0)
(0.0621943 0.00473027 0)
(0.0731285 0.0117125 4.38724e-20)
(0.081845 0.0198045 0)
(0.0883966 0.0287174 -3.85061e-20)
(0.0930106 0.0384378 -1.96065e-22)
(0.0965427 0.0493916 3.44812e-20)
(0.0489994 0.143039 7.01761e-22)
(0.071886 0.22186 -7.10314e-22)
(0.07571 0.283678 -8.15202e-22)
(0.0711197 0.340092 -8.95878e-22)
(0.0604279 0.400017 -1.02207e-21)
(0.0523006 0.468408 -1.9189e-23)
(0.0366124 0.548075 5.32289e-22)
(0.031453 0.64173 1.76777e-21)
(0.00723515 0.761427 0)
(0.0100498 0.898844 -1.25888e-21)
(0.0390257 0.131969 2.61047e-21)
(0.0650935 0.214866 -3.08369e-21)
(0.0719358 0.281939 5.52925e-21)
(0.0686738 0.340915 8.97439e-22)
(0.0585809 0.40185 1.89296e-21)
(0.0507725 0.470694 3.08899e-21)
(0.0355439 0.550738 -1.11275e-21)
(0.0304983 0.644794 -1.18075e-21)
(0.00713405 0.76446 2.34486e-21)
(0.0095799 0.900911 1.25589e-21)
(0.0307353 0.119721 0)
(0.0585192 0.205372 -2.94544e-21)
(0.0685417 0.278404 -1.61022e-21)
(0.0666758 0.340488 0)
(0.0571251 0.402664 -5.76046e-21)
(0.0495756 0.472077 1.85148e-21)
(0.0347018 0.552598 1.99534e-21)
(0.0297054 0.647204 6.59101e-21)
(0.00711094 0.767178 -2.33728e-21)
(0.00916202 0.902864 4.6631e-21)
(0.0252464 0.107122 0)
(0.0522702 0.193431 2.97044e-21)
(0.0654982 0.272948 0)
(0.0650917 0.338717 7.02029e-21)
(0.056049 0.402392 -7.05639e-21)
(0.0487058 0.472435 -3.98548e-21)
(0.0340964 0.553392 -1.55928e-22)
(0.0290972 0.64852 -6.4624e-21)
(0.00717124 0.768962 -1.07222e-21)
(0.00876906 0.904344 -5.75619e-21)
(0.0239128 0.0951577 4.59773e-22)
(0.0466574 0.17942 -8.43534e-21)
(0.0627758 0.265458 3.30292e-22)
(0.0638748 0.335544 -6.45976e-21)
(0.0553286 0.401162 0)
(0.0481216 0.47207 -3.86637e-21)
(0.0336696 0.553656 -1.79388e-22)
(0.0286196 0.649552 8.299e-21)
(0.00728 0.770711 1.07431e-21)
(0.00842345 0.905871 -1.07813e-21)
(0.0278792 0.0848399 -2.28389e-20)
(0.0422991 0.164153 1.46676e-20)
(0.0603686 0.255882 6.37487e-21)
(0.0629941 0.330794 -6.37149e-21)
(0.0549584 0.398664 -3.41822e-21)
(0.0478574 0.470451 0)
(0.0334858 0.552533 -7.68679e-21)
(0.0283244 0.649059 3.8182e-21)
(0.0074637 0.771082 4.0419e-21)
(0.00808332 0.906754 4.10985e-21)
(0.0374883 0.0770002 -2.80448e-21)
(0.0401465 0.148811 0)
(0.0583186 0.244281 0)
(0.0623968 0.32468 0)
(0.0548927 0.395582 -3.53664e-21)
(0.0478076 0.468731 6.94409e-21)
(0.0334083 0.551689 7.54979e-21)
(0.0280973 0.649183 -1.14944e-20)
(0.00765458 0.772187 1.97923e-21)
(0.00780185 0.908013 -6.03056e-21)
(0.0519058 0.0719581 1.73252e-20)
(0.0412845 0.134724 1.23465e-20)
(0.0568399 0.230846 -1.22359e-20)
(0.0620999 0.316359 1.30577e-20)
(0.0551491 0.390298 -1.62098e-20)
(0.0481423 0.464701 0)
(0.0336476 0.548242 -3.52185e-21)
(0.0280904 0.646515 1.19684e-22)
(0.00794172 0.770927 -3.68985e-21)
(0.00749687 0.908287 -3.75276e-21)
(0.0691424 0.069004 -1.47033e-20)
(0.046502 0.122355 0)
(0.0561293 0.216738 -1.41041e-20)
(0.0620607 0.308294 2.52988e-20)
(0.0556056 0.386516 -9.42362e-21)
(0.0484682 0.462934 -1.65974e-21)
(0.033814 0.547563 3.51444e-21)
(0.0280333 0.646814 2.46035e-23)
(0.00815937 0.772089 5.38883e-21)
(0.00727767 0.909527 5.48899e-21)
(0.086214 0.0674751 -1.22344e-20)
(0.056163 0.110716 1.19747e-20)
(0.0571993 0.198055 1.54845e-21)
(0.0623099 0.292951 0)
(0.0564843 0.37548 0)
(0.049582 0.454285 1.59794e-21)
(0.0345815 0.54005 6.4895e-21)
(0.0283531 0.640771 -6.30034e-21)
(0.00857028 0.768563 -1.61107e-21)
(0.00698626 0.909122 1.56188e-21)
(0.109501 0.0790255 0)
(0.0780419 0.112996 0)
(0.0653006 0.187731 0)
(0.0657184 0.28775 0)
(0.0580974 0.377608 0)
(0.0499191 0.460147 0)
(0.0349876 0.546813 0)
(0.0282554 0.647646 0)
(0.00892819 0.774315 0)
(0.00664191 0.912929 0)
(0.120254 0.103059 0)
(0.0991451 0.143949 0)
(0.0785348 0.203204 0)
(0.0718679 0.294164 0)
(0.0623218 0.385941 0)
(0.0512065 0.470035 0)
(0.0344115 0.557193 0)
(0.0262933 0.659774 0)
(0.0084002 0.786533 0)
(0.00595502 0.920919 0)
(0.118298 0.11153 0)
(0.107013 0.163578 0)
(0.0874776 0.221326 0)
(0.075851 0.306681 0)
(0.0648953 0.39927 0)
(0.0537562 0.48492 0)
(0.0373326 0.571064 0)
(0.0277595 0.670977 0)
(0.00961713 0.795753 0)
(0.00589079 0.927067 0)
(0.108654 0.114587 0)
(0.10426 0.175443 0)
(0.0902486 0.236415 0)
(0.0781433 0.31971 0)
(0.0653461 0.41224 0)
(0.0518527 0.498111 0)
(0.0350393 0.584707 0)
(0.0257641 0.68548 0)
(0.00930532 0.808982 0)
(0.00544767 0.935636 0)
(0.0945681 0.114779 0)
(0.0941373 0.182117 0)
(0.0852553 0.247712 0)
(0.075689 0.331635 0)
(0.0652671 0.426197 0)
(0.0536421 0.513801 0)
(0.0370345 0.598589 0)
(0.02631 0.696313 0)
(0.00974042 0.817858 0)
(0.00525047 0.941667 0)
(0.0770968 0.11324 0)
(0.0796772 0.184856 0)
(0.0759408 0.256275 0)
(0.0687567 0.342387 0)
(0.0581403 0.437275 0)
(0.0468452 0.526003 0)
(0.0327439 0.612588 0)
(0.0238344 0.711266 0)
(0.00910553 0.831307 0)
(0.00474772 0.950741 0)
(0.0582703 0.109669 0)
(0.0621385 0.182529 0)
(0.0628538 0.258325 0)
(0.0615412 0.349108 0)
(0.0557633 0.448502 0)
(0.0463144 0.538981 0)
(0.0322123 0.623657 0)
(0.0229259 0.71992 0)
(0.00883537 0.838398 0)
(0.00447667 0.955538 0)
(0.0402363 0.105971 0)
(0.0445378 0.180851 0)
(0.04615 0.260167 0)
(0.0456911 0.352558 0)
(0.0421836 0.453067 0)
(0.0368251 0.547253 0)
(0.0270059 0.635808 0)
(0.0198461 0.733837 0)
(0.00775046 0.851326 0)
(0.00386854 0.964354 0)
(0.0235488 0.0987944 0)
(0.0293892 0.173196 0)
(0.0356291 0.25655 0)
(0.0400616 0.355047 0)
(0.0393755 0.460201 0)
(0.0345315 0.554854 0)
(0.0251705 0.641826 0)
(0.0186242 0.738431 0)
(0.00729833 0.855138 0)
(0.00363479 0.966808 0)
(0.006201 0.0955649 0)
(0.00756943 0.167592 0)
(0.0122505 0.247706 0)
(0.0192369 0.345963 0)
(0.0246155 0.456017 0)
(0.0256511 0.558867 0)
(0.0203328 0.651712 0)
(0.0156231 0.751078 0)
(0.00628866 0.867373 0)
(0.00305938 0.975084 0)
(0.12868 0.0623594 9.57758e-21)
(0.130902 0.0714183 -9.43755e-21)
(0.124413 0.0724806 7.60299e-22)
(0.11202 0.0712455 0)
(0.0956807 0.0684705 0)
(0.0761289 0.0655562 9.3646e-23)
(0.0556626 0.0618201 2.5071e-22)
(0.0365045 0.0581414 -2.46799e-22)
(0.0198007 0.0525657 -8.16309e-23)
(0.00493039 0.049698 8.03734e-23)
(0.132222 0.0549326 -1.27697e-20)
(0.129009 0.0587092 0)
(0.12062 0.0565543 4.04156e-21)
(0.107649 0.0533896 -7.64572e-21)
(0.0915114 0.0492087 3.38482e-21)
(0.0725509 0.0455071 -9.20934e-23)
(0.0528737 0.0414716 -7.45683e-23)
(0.034392 0.0377363 -3.85479e-22)
(0.0183645 0.0327151 -8.16471e-23)
(0.0044676 0.0297441 -3.15005e-23)
(0.133348 0.0464051 1.42002e-20)
(0.127154 0.0458268 -6.26227e-21)
(0.117839 0.0410546 6.2014e-21)
(0.104382 0.0360733 -2.6817e-21)
(0.0882225 0.0303513 2.16834e-21)
(0.06956 0.0256226 0)
(0.0504231 0.0209838 7.47385e-23)
(0.0324988 0.0170221 5.06459e-24)
(0.0171039 0.0124189 1.99973e-22)
(0.00409178 0.00929263 1.111e-22)
(0.132822 0.0360051 -2.1428e-21)
(0.124364 0.0316912 0)
(0.114544 0.0247742 0)
(0.100894 0.0183124 0)
(0.084959 0.0112626 9.89481e-22)
(0.0667502 0.0056469 -5.61528e-22)
(0.0482015 0.000396382 5.52854e-23)
(0.0308187 -0.00383645 2.31469e-22)
(0.0159638 -0.00818828 7.30949e-23)
(0.0036249 -0.0114689 2.76881e-23)
(0.130809 0.0240053 -1.52601e-21)
(0.120796 0.0165813 -5.55449e-21)
(0.110796 0.00781385 -1.94037e-21)
(0.0971229 0.000128325 1.93883e-21)
(0.0815445 -0.00807086 -4.231e-22)
(0.0638996 -0.0144101 0)
(0.046005 -0.0202125 7.58239e-23)
(0.0292258 -0.0247114 -3.50169e-22)
(0.0148948 -0.0289615 1.73191e-22)
(0.00328204 -0.0323324 -1.01674e-22)
(0.127605 0.0107781 -1.498e-20)
(0.116644 0.000873146 2.61981e-21)
(0.106713 -0.00955655 7.77682e-22)
(0.0931675 -0.0182527 1.86705e-21)
(0.0780502 -0.027469 0)
(0.0610301 -0.0343995 0)
(0.0438113 -0.0407016 0)
(0.027672 -0.0454593 -1.44645e-22)
(0.0138625 -0.0497036 0)
(0.00293158 -0.0530754 0)
(0.123412 -0.00331764 0)
(0.112016 -0.0150802 4.00671e-21)
(0.10236 -0.0270519 -2.56382e-21)
(0.0890567 -0.0365656 -1.13265e-21)
(0.0744966 -0.0466982 1.13842e-21)
(0.0581462 -0.0541255 5.12113e-23)
(0.0416217 -0.0608922 -1.11021e-22)
(0.0261299 -0.0658991 4.24992e-22)
(0.0128376 -0.0701805 -4.21574e-23)
(0.00257919 -0.0734417 4.48898e-23)
(0.118397 -0.0179577 0)
(0.106994 -0.0309625 -1.44342e-21)
(0.0977664 -0.0443949 -5.40434e-22)
(0.0848111 -0.0545452 0)
(0.0708885 -0.0655171 7.51562e-23)
(0.0552429 -0.073375 -3.79939e-22)
(0.0394169 -0.0805772 -5.88184e-23)
(0.0245765 -0.0858156 -9.152e-23)
(0.0118088 -0.0901271 5.71111e-23)
(0.00223271 -0.0931605 -7.32528e-23)
(0.112657 -0.0328553 1.9294e-21)
(0.10165 -0.046494 1.24601e-21)
(0.0929501 -0.0613326 -4.46369e-22)
(0.0804513 -0.0719553 1.87151e-22)
(0.0672221 -0.0836912 2.14393e-22)
(0.0523116 -0.0919334 1.39286e-22)
(0.0371822 -0.0995325 -7.71694e-24)
(0.0230024 -0.104971 1.71433e-23)
(0.0107807 -0.109264 -5.72978e-23)
(0.00189911 -0.111967 -1.23776e-23)
(0.106306 -0.0477232 -3.95977e-22)
(0.0960389 -0.0614589 3.9971e-22)
(0.0879516 -0.0776402 -2.71113e-22)
(0.0760013 -0.0885922 -1.8686e-22)
(0.0634985 -0.101007 8.58645e-23)
(0.0493524 -0.109599 -1.38004e-22)
(0.034917 -0.117533 7.35849e-24)
(0.0214151 -0.123127 -1.67959e-23)
(0.00976794 -0.127322 0)
(0.00158762 -0.129629 1.24009e-23)
(0.0996068 -0.0623117 4.01319e-22)
(0.0902853 -0.0757011 -4.04788e-22)
(0.0828659 -0.0931361 -2.83263e-22)
(0.0715412 -0.1043 -2.0123e-22)
(0.0597559 -0.11728 -9.46841e-23)
(0.0463928 -0.126196 2.59122e-23)
(0.0326406 -0.134373 2.18303e-23)
(0.0198359 -0.140068 2.65835e-24)
(0.00879065 -0.144077 0)
(0.00130609 -0.145962 6.33958e-24)
(0.0928565 -0.0764592 0)
(0.0845792 -0.0891213 -1.30814e-21)
(0.0778257 -0.107673 2.18777e-21)
(0.0671811 -0.118968 2.0152e-22)
(0.0560575 -0.132359 2.8086e-22)
(0.043479 -0.141585 2.29568e-22)
(0.0303879 -0.149882 -2.56987e-23)
(0.0182942 -0.155629 1.25435e-24)
(0.00786931 -0.159369 -1.03489e-23)
(0.00105856 -0.160851 -6.3232e-24)
(0.0862399 -0.0900626 0)
(0.0790413 -0.101684 -1.53549e-21)
(0.0729035 -0.121138 -5.87496e-22)
(0.0629881 -0.132539 0)
(0.052451 -0.146138 -7.42392e-22)
(0.0406509 -0.155677 3.04341e-22)
(0.028198 -0.163951 1.30074e-22)
(0.0168199 -0.169714 1.14283e-22)
(0.00702149 -0.17312 1.03151e-23)
(0.000846075 -0.174256 -2.85652e-24)
(0.079865 -0.103051 0)
(0.0737377 -0.113434 1.54815e-21)
(0.0681295 -0.133463 0)
(0.0589942 -0.14502 1.53992e-21)
(0.0489709 -0.158569 -1.54796e-21)
(0.0379382 -0.168444 -2.9299e-22)
(0.0261079 -0.176542 1.1311e-22)
(0.015438 -0.182309 -1.34533e-22)
(0.00625979 -0.185334 -2.14589e-23)
(0.000667147 -0.186206 6.38036e-25)
(0.0738206 -0.115376 1.60479e-20)
(0.068737 -0.124491 -6.02392e-21)
(0.0635425 -0.144623 -6.69667e-22)
(0.0552294 -0.156478 -2.27172e-21)
(0.0456568 -0.169674 0)
(0.0353665 -0.179925 -3.36128e-22)
(0.0241501 -0.187697 1.60315e-22)
(0.014165 -0.193473 2.72804e-22)
(0.00559102 -0.196094 6.28018e-24)
(0.000517875 -0.196795 -6.26648e-24)
(0.0681671 -0.126979 1.47604e-21)
(0.0641177 -0.13505 9.29535e-21)
(0.0592062 -0.154641 2.39099e-21)
(0.0517284 -0.167025 -2.38965e-21)
(0.0425586 -0.179536 -7.53983e-22)
(0.0329604 -0.19021 0)
(0.0223517 -0.197524 -5.14178e-22)
(0.0130106 -0.20333 2.71127e-22)
(0.00501697 -0.205537 1.02322e-22)
(0.000393158 -0.206161 2.49464e-23)
(0.0629978 -0.137766 -2.25418e-21)
(0.0600185 -0.145361 0)
(0.0552432 -0.163591 0)
(0.0485482 -0.176795 0)
(0.0397441 -0.188296 -5.50589e-22)
(0.0307485 -0.19943 1.30331e-21)
(0.0207361 -0.20618 5.48935e-22)
(0.011979 -0.212042 -5.98117e-22)
(0.00453587 -0.213845 2.75048e-23)
(0.000287161 -0.214477 -5.18915e-23)
(0.0583276 -0.147564 -5.30876e-21)
(0.0564758 -0.155683 6.82199e-21)
(0.0516956 -0.171584 -6.75811e-21)
(0.04567 -0.18592 3.99678e-21)
(0.0372325 -0.196136 -4.82556e-21)
(0.0287288 -0.207738 0)
(0.0193053 -0.213852 -3.78084e-22)
(0.0110644 -0.219793 -3.06479e-23)
(0.0041408 -0.221215 -1.10786e-22)
(0.000192263 -0.221932 -3.93945e-23)
(0.0533324 -0.156022 -2.45599e-21)
(0.0527482 -0.166223 0)
(0.0481073 -0.178798 -6.53329e-21)
(0.0427073 -0.194532 9.91323e-21)
(0.034799 -0.203275 -3.35131e-21)
(0.0267548 -0.21531 -3.21411e-22)
(0.0179814 -0.220742 3.77225e-22)
(0.0102249 -0.226772 4.14036e-23)
(0.00380901 -0.227843 2.44327e-22)
(0.000100899 -0.228719 7.87298e-23)
(0.0482957 -0.162367 -9.99482e-21)
(0.0487775 -0.177155 9.74822e-21)
(0.0447031 -0.185561 8.64104e-22)
(0.0397331 -0.202815 0)
(0.0324761 -0.210004 0)
(0.0248443 -0.222376 3.31765e-22)
(0.0167502 -0.227087 7.18434e-22)
(0.0094477 -0.233177 -7.04532e-22)
(0.00351988 -0.233922 -4.76286e-23)
(3.43782e-05 -0.235026 4.65154e-23)
(0.0523315 -0.170453 0)
(0.0495723 -0.202794 0)
(0.0449233 -0.20102 0)
(0.0384467 -0.22188 0)
(0.0308912 -0.225707 0)
(0.0227271 -0.238723 0)
(0.0151022 -0.241652 0)
(0.0082169 -0.247715 0)
(0.00310581 -0.247596 0)
(5.78419e-05 -0.249237 0)
(0.0382789 -0.214267 0)
(0.0323601 -0.24449 0)
(0.0303203 -0.238181 0)
(0.0247219 -0.256701 0)
(0.0204817 -0.25634 0)
(0.0147914 -0.267527 0)
(0.0101467 -0.267443 0)
(0.00552024 -0.272597 0)
(0.00228366 -0.27101 0)
(0.000125228 -0.272945 0)
(0.0348777 -0.257435 0)
(0.0278096 -0.28642 0)
(0.0249968 -0.276281 0)
(0.0192238 -0.293969 0)
(0.0157181 -0.290056 0)
(0.0108938 -0.300551 0)
(0.0076151 -0.29797 0)
(0.00410157 -0.302917 0)
(0.00189083 -0.300055 0)
(0.000125474 -0.302436 0)
(0.0299022 -0.305964 0)
(0.0226991 -0.334404 0)
(0.0202479 -0.320925 0)
(0.0148738 -0.338492 0)
(0.0123194 -0.331473 0)
(0.00825332 -0.342064 0)
(0.00605284 -0.337336 0)
(0.00325339 -0.34264 0)
(0.00171593 -0.338531 0)
(0.00011288 -0.341582 0)
(0.0257756 -0.363504 0)
(0.0191133 -0.391582 0)
(0.0166286 -0.376005 0)
(0.0118285 -0.393842 0)
(0.00988292 -0.384609 0)
(0.00644069 -0.395783 0)
(0.00496712 -0.389387 0)
(0.00261184 -0.395414 0)
(0.00154733 -0.390215 0)
(6.44067e-05 -0.394177 0)
(0.0221109 -0.432233 0)
(0.0159719 -0.45842 0)
(0.0136623 -0.443291 0)
(0.00941505 -0.460673 0)
(0.00793252 -0.450921 0)
(0.00495374 -0.462312 0)
(0.00394075 -0.455225 0)
(0.00186854 -0.461832 0)
(0.00119132 -0.456104 0)
(-6.46436e-05 -0.460888 0)
(0.0176448 -0.507853 0)
(0.0126759 -0.529367 0)
(0.0106841 -0.518107 0)
(0.0072262 -0.533064 0)
(0.00599043 -0.525105 0)
(0.00349608 -0.535246 0)
(0.00268945 -0.528981 0)
(0.000930134 -0.535182 0)
(0.000587831 -0.529964 0)
(-0.000225616 -0.534862 0)
(0.013433 -0.577924 0)
(0.00949524 -0.593355 0)
(0.00777688 -0.587666 0)
(0.00498174 -0.598215 0)
(0.00401049 -0.59362 0)
(0.00200545 -0.600809 0)
(0.00139389 -0.596632 0)
(1.32198e-05 -0.60104 0)
(7.21929e-06 -0.597322 0)
(-0.000322557 -0.601062 0)
(0.00810007 -0.629552 0)
(0.00545815 -0.637869 0)
(0.00449486 -0.637764 0)
(0.00277714 -0.643742 0)
(0.00223076 -0.642822 0)
(0.000917831 -0.646481 0)
(0.000527547 -0.64469 0)
(-0.000358736 -0.64666 0)
(-0.00021863 -0.644736 0)
(-0.000268882 -0.646564 0)
(0.00225184 -0.654808 0)
(0.00145701 -0.661228 0)
(0.00131153 -0.663698 0)
(0.000870946 -0.667293 0)
(0.000713392 -0.667886 0)
(0.000286392 -0.669693 0)
(0.000128647 -0.669053 0)
(-0.00016258 -0.669757 0)
(-0.000108702 -0.668797 0)
(-9.34908e-05 -0.669551 0)
(0.0473163 -0.183225 1.18177e-20)
(0.037924 -0.227722 -1.15978e-20)
(0.0362661 -0.272299 1.46031e-21)
(0.0316044 -0.322487 0)
(0.0280811 -0.380508 0)
(0.0243445 -0.447616 1.56646e-21)
(0.0199627 -0.518942 -6.58104e-21)
(0.0149914 -0.582473 6.51416e-21)
(0.00936321 -0.629436 1.73304e-21)
(0.00311235 -0.651468 -1.70782e-21)
(0.0459804 -0.189769 -1.40755e-20)
(0.0383114 -0.233476 0)
(0.036987 -0.277719 9.65327e-21)
(0.032439 -0.327931 -2.19993e-20)
(0.0291338 -0.385774 1.38841e-20)
(0.0253486 -0.452122 -1.42303e-21)
(0.0209765 -0.52181 3.09428e-21)
(0.0157196 -0.583634 6.429e-21)
(0.00993359 -0.62848 1.76224e-21)
(0.0034632 -0.650271 1.73622e-21)
(0.0451726 -0.196626 1.65313e-20)
(0.0393078 -0.240033 -1.09449e-20)
(0.0380891 -0.283536 1.08411e-20)
(0.0336221 -0.333191 -1.14676e-20)
(0.0304499 -0.390485 8.51916e-21)
(0.0265467 -0.455815 0)
(0.0220381 -0.523781 -3.10196e-21)
(0.0165131 -0.584107 1.44534e-22)
(0.0104427 -0.627004 -3.33205e-21)
(0.00366544 -0.64887 -3.40839e-21)
(0.0449128 -0.202373 -2.66974e-21)
(0.0407379 -0.245909 0)
(0.0395466 -0.28898 0)
(0.0351726 -0.338164 0)
(0.03205 -0.394947 9.22281e-21)
(0.0279709 -0.459259 -6.14478e-21)
(0.0232202 -0.525557 -1.83231e-23)
(0.0173958 -0.584212 -3.57451e-21)
(0.0109384 -0.625504 -1.82128e-21)
(0.00378259 -0.646973 -1.93014e-21)
(0.0453422 -0.207364 -3.2235e-23)
(0.042544 -0.250719 -8.03044e-21)
(0.0412971 -0.29346 -5.73872e-21)
(0.0370301 -0.342379 5.73518e-21)
(0.0338895 -0.398806 -3.03696e-21)
(0.0296008 -0.462245 0)
(0.0245658 -0.527064 -3.4046e-21)
(0.0183958 -0.584036 7.3125e-21)
(0.0114958 -0.623979 -3.73069e-21)
(0.00390434 -0.644698 3.79583e-21)
(0.0465357 -0.21186 -2.16754e-20)
(0.0447715 -0.254656 2.54481e-21)
(0.0433586 -0.29692 -2.38031e-22)
(0.0391692 -0.345607 5.87817e-21)
(0.0359386 -0.401748 0)
(0.0314126 -0.464442 0)
(0.0260777 -0.528006 0)
(0.0195253 -0.583484 3.90415e-21)
(0.012156 -0.622278 0)
(0.00407711 -0.642211 0)
(0.0484971 -0.215718 0)
(0.0474541 -0.257786 8.54051e-21)
(0.0457854 -0.299444 -5.73838e-21)
(0.0416094 -0.347845 -6.38262e-21)
(0.0382074 -0.403684 6.41589e-21)
(0.0334082 -0.465701 3.63808e-21)
(0.0277502 -0.528201 -3.6311e-21)
(0.020783 -0.582447 -1.39363e-20)
(0.012922 -0.620288 9.94032e-22)
(0.00430612 -0.639584 -3.33294e-21)
(0.0512197 -0.218712 0)
(0.0505939 -0.260003 -2.8084e-21)
(0.0486146 -0.301018 -1.52565e-21)
(0.0443758 -0.349112 0)
(0.0407243 -0.404629 1.78808e-21)
(0.0356103 -0.466022 -5.42807e-21)
(0.0295906 -0.527616 5.86999e-21)
(0.0221706 -0.580873 2.06047e-21)
(0.0137848 -0.617963 -2.23665e-21)
(0.00458273 -0.636809 4.42754e-21)
(0.0547068 -0.220686 2.71694e-21)
(0.0541865 -0.261197 2.983e-21)
(0.0518628 -0.301564 -7.03592e-22)
(0.0474804 -0.349383 8.3994e-22)
(0.0435135 -0.40459 1.74123e-21)
(0.0380429 -0.465443 2.84297e-21)
(0.031613 -0.526292 -1.04487e-21)
(0.0236916 -0.578779 -1.11317e-21)
(0.0147342 -0.615309 2.24404e-21)
(0.00489776 -0.633857 1.20686e-21)
(0.0589633 -0.221531 -7.18668e-22)
(0.0582333 -0.261321 7.24545e-22)
(0.0555407 -0.30101 -7.82785e-22)
(0.0509255 -0.348618 -8.38902e-22)
(0.0465896 -0.403545 9.51721e-22)
(0.0407231 -0.463973 -1.933e-21)
(0.0338361 -0.524249 1.59382e-21)
(0.0253606 -0.576174 5.61006e-22)
(0.0157755 -0.61233 0)
(0.00525208 -0.6307 -1.20953e-21)
(0.0639886 -0.221151 7.35799e-22)
(0.062736 -0.260389 -7.42144e-22)
(0.0596592 -0.299317 -8.34546e-22)
(0.0547114 -0.346803 -8.99163e-22)
(0.0499648 -0.401477 -9.88754e-22)
(0.0436599 -0.461629 -5.35383e-23)
(0.0362673 -0.521524 5.61534e-22)
(0.0271793 -0.5731 1.78473e-21)
(0.0169053 -0.60905 0)
(0.00564307 -0.627336 -1.31096e-21)
(0.0697753 -0.219509 0)
(0.0676891 -0.258431 -3.25477e-21)
(0.0642293 -0.296492 5.84457e-21)
(0.0588359 -0.343952 9.00732e-22)
(0.0536474 -0.39838 2.02047e-21)
(0.0468618 -0.458386 3.23598e-21)
(0.0389262 -0.518073 -1.13228e-21)
(0.0291708 -0.569514 -1.20745e-21)
(0.0181438 -0.605439 2.63925e-21)
(0.00608018 -0.623747 1.30788e-21)
(0.0763112 -0.21667 0)
(0.0730828 -0.255465 -3.27109e-21)
(0.0692542 -0.292611 -1.73438e-21)
(0.0632995 -0.340079 0)
(0.0576514 -0.394303 -6.2964e-21)
(0.0503302 -0.454298 2.11619e-21)
(0.0418032 -0.513981 2.42241e-21)
(0.0313155 -0.565498 7.70478e-21)
(0.0194703 -0.601533 -2.6307e-21)
(0.00655131 -0.619941 5.63809e-21)
(0.0835815 -0.212769 0)
(0.0789071 -0.25148 3.29914e-21)
(0.0747308 -0.287784 0)
(0.068101 -0.335245 8.19856e-21)
(0.0619764 -0.389261 -8.24058e-21)
(0.0540826 -0.449288 -4.78997e-21)
(0.044931 -0.509123 -7.28159e-23)
(0.0336638 -0.560918 -7.90337e-21)
(0.0209307 -0.597241 -1.31811e-21)
(0.00707636 -0.615853 -7.01267e-21)
(0.0915682 -0.207983 2.54584e-20)
(0.08515 -0.246494 -9.64681e-21)
(0.080623 -0.28217 6.1787e-22)
(0.0732646 -0.329433 -7.88943e-21)
(0.066648 -0.383312 0)
(0.0581075 -0.443499 -4.97636e-21)
(0.0482644 -0.503713 -3.32323e-22)
(0.0361554 -0.555971 1.07235e-20)
(0.0224698 -0.592698 1.45086e-21)
(0.00762393 -0.611572 -1.45628e-21)
(0.100227 -0.202562 -1.38095e-21)
(0.0918148 -0.240402 1.73972e-20)
(0.0869396 -0.27567 8.18258e-21)
(0.0788199 -0.322518 -8.17708e-21)
(0.0716616 -0.376357 -4.68461e-21)
(0.0624572 -0.436711 0)
(0.0518953 -0.4974 -1.09617e-20)
(0.0389056 -0.550335 5.49569e-21)
(0.0241867 -0.587711 5.7984e-21)
(0.00824486 -0.606973 6.17156e-21)
(0.109511 -0.196679 -3.48344e-21)
(0.0989538 -0.233266 0)
(0.0935968 -0.268523 0)
(0.0847138 -0.315022 0)
(0.0769423 -0.368979 -5.25287e-21)
(0.0670214 -0.429686 9.92068e-21)
(0.055655 -0.491007 1.11461e-20)
(0.0417101 -0.544662 -1.74061e-20)
(0.0259091 -0.582637 3.08138e-21)
(0.008844 -0.602261 -9.16568e-21)
(0.119258 -0.190182 -6.07841e-21)
(0.106611 -0.225024 1.63103e-20)
(0.100578 -0.260409 -1.61548e-20)
(0.0910273 -0.306324 1.91471e-20)
(0.0826482 -0.360142 -2.39953e-20)
(0.0720571 -0.421039 0)
(0.0598991 -0.483085 -5.80969e-21)
(0.0449606 -0.537842 -2.15048e-22)
(0.0279527 -0.576868 -6.38093e-21)
(0.00958556 -0.597056 -6.48127e-21)
(0.129136 -0.184089 -3.71324e-21)
(0.114543 -0.217193 0)
(0.107573 -0.253065 -2.06503e-20)
(0.0973843 -0.298689 3.80618e-20)
(0.0883171 -0.352718 -1.45501e-20)
(0.0769653 -0.414028 -2.7926e-21)
(0.0639135 -0.47668 5.79732e-21)
(0.047936 -0.532023 -2.55154e-22)
(0.0297643 -0.571501 9.33551e-21)
(0.0101723 -0.591976 9.59094e-21)
(0.13964 -0.175291 -1.61243e-20)
(0.124093 -0.205769 1.57666e-20)
(0.115775 -0.241777 2.22683e-21)
(0.104966 -0.286644 0)
(0.0951811 -0.340488 0)
(0.0831246 -0.402246 2.70833e-21)
(0.0691738 -0.46628 1.20371e-20)
(0.0520235 -0.52355 -1.17491e-20)
(0.0323722 -0.564717 -3.16596e-21)
(0.0111412 -0.585931 3.11117e-21)
(0.15086 -0.176777 0)
(0.144424 -0.201564 0)
(0.131704 -0.239102 0)
(0.119334 -0.283032 0)
(0.107983 -0.335877 0)
(0.0940647 -0.39581 0)
(0.0779985 -0.45758 0)
(0.0584765 -0.512596 0)
(0.0362202 -0.552358 0)
(0.0120697 -0.573367 0)
(0.173955 -0.160165 0)
(0.179631 -0.189549 0)
(0.159345 -0.230468 0)
(0.147281 -0.273524 0)
(0.133135 -0.325617 0)
(0.116026 -0.383054 0)
(0.096183 -0.440996 0)
(0.0721996 -0.491493 0)
(0.0450237 -0.526945 0)
(0.0158343 -0.544322 0)
(0.206229 -0.143437 0)
(0.217101 -0.1737 0)
(0.189031 -0.214119 0)
(0.179096 -0.255408 0)
(0.160587 -0.306255 0)
(0.139749 -0.360272 0)
(0.115239 -0.414297 0)
(0.0860016 -0.461461 0)
(0.0530396 -0.495498 0)
(0.0173466 -0.514105 0)
(0.247382 -0.131799 0)
(0.259849 -0.160687 0)
(0.225279 -0.199894 0)
(0.21844 -0.239965 0)
(0.193521 -0.289213 0)
(0.168976 -0.338576 0)
(0.138829 -0.387876 0)
(0.10344 -0.429639 0)
(0.0642161 -0.458336 0)
(0.0227922 -0.471483 0)
(0.296687 -0.116809 0)
(0.307424 -0.14336 0)
(0.267786 -0.17988 0)
(0.262022 -0.216822 0)
(0.227344 -0.261114 0)
(0.198757 -0.303732 0)
(0.160924 -0.347879 0)
(0.118733 -0.385204 0)
(0.0723204 -0.412979 0)
(0.0226996 -0.429855 0)
(0.356597 -0.10741 0)
(0.363243 -0.131095 0)
(0.319994 -0.164706 0)
(0.311944 -0.196942 0)
(0.266633 -0.235634 0)
(0.235622 -0.272368 0)
(0.188704 -0.311595 0)
(0.13925 -0.342242 0)
(0.0857142 -0.363708 0)
(0.0317105 -0.371172 0)
(0.420599 -0.0871123 0)
(0.418748 -0.106117 0)
(0.372694 -0.134192 0)
(0.357736 -0.159323 0)
(0.30254 -0.191075 0)
(0.268047 -0.220474 0)
(0.207024 -0.251898 0)
(0.150768 -0.276288 0)
(0.0884004 -0.299688 0)
(0.0236385 -0.319929 0)
(0.490109 -0.0742414 0)
(0.478277 -0.0883339 0)
(0.433297 -0.111036 0)
(0.408422 -0.129578 0)
(0.349484 -0.155396 0)
(0.308128 -0.177348 0)
(0.236217 -0.202593 0)
(0.176302 -0.223696 0)
(0.106296 -0.244676 0)
(0.0474503 -0.244406 0)
(0.540797 -0.0398846 0)
(0.520417 -0.046949 0)
(0.46836 -0.0606808 0)
(0.432584 -0.070049 0)
(0.365242 -0.08558 0)
(0.312186 -0.0960707 0)
(0.227044 -0.111114 0)
(0.157818 -0.12314 0)
(0.0713153 -0.146134 0)
(-0.0158987 -0.193246 0)
(0.74231 -0.0200384 0)
(0.717042 -0.0236914 0)
(0.671795 -0.0292431 0)
(0.630997 -0.0341865 0)
(0.569664 -0.0416121 0)
(0.510789 -0.0485731 0)
(0.428687 -0.0595012 0)
(0.344869 -0.0734051 0)
(0.232732 -0.101773 0)
(0.160869 -0.157458 0)
(0.179784 -0.155479 1.71877e-20)
(0.206175 -0.136948 -1.69273e-20)
(0.239512 -0.121264 2.53259e-21)
(0.279962 -0.110623 0)
(0.328483 -0.0975671 0)
(0.385689 -0.0893584 3.42472e-21)
(0.447505 -0.0717947 -1.57573e-20)
(0.512685 -0.0617005 1.55973e-20)
(0.567587 -0.0321053 4.37408e-21)
(0.763333 -0.0170851 -4.40022e-21)
(0.188299 -0.146494 -1.74039e-20)
(0.213912 -0.127321 0)
(0.247152 -0.112427 1.74494e-20)
(0.287654 -0.102258 -4.1348e-20)
(0.336301 -0.0899646 2.72405e-20)
(0.393312 -0.0822298 -3.14549e-21)
(0.454985 -0.0656947 6.76384e-21)
(0.519521 -0.0566936 1.48327e-20)
(0.576944 -0.028998 4.05459e-21)
(0.771089 -0.015832 3.95475e-21)
(0.19573 -0.136335 2.03012e-20)
(0.220099 -0.117236 -1.74888e-20)
(0.252592 -0.103457 1.73237e-20)
(0.292782 -0.0938584 -2.16798e-20)
(0.341359 -0.0824166 1.58398e-20)
(0.398336 -0.0752665 0)
(0.460069 -0.0598559 -6.78043e-21)
(0.524588 -0.0520625 -7.19954e-23)
(0.584705 -0.0262247 -7.67998e-21)
(0.777909 -0.0146512 -7.93578e-21)
(0.203477 -0.125457 -3.43253e-21)
(0.227395 -0.106884 0)
(0.259143 -0.0943289 0)
(0.298882 -0.0853712 0)
(0.347204 -0.074871 1.74229e-20)
(0.40393 -0.0684231 -1.17839e-20)
(0.465545 -0.0542344 -3.28043e-22)
(0.529867 -0.0477154 -7.56258e-21)
(0.59207 -0.0237362 -3.86795e-21)
(0.784381 -0.0135586 -3.92199e-21)
(0.210689 -0.114175 2.11558e-21)
(0.234589 -0.0964752 -1.06568e-20)
(0.265609 -0.0851506 -9.44921e-21)
(0.305198 -0.0768926 9.44348e-21)
(0.35339 -0.0673813 -5.56113e-21)
(0.409935 -0.0617152 0)
(0.471431 -0.0487893 -6.70856e-21)
(0.53545 -0.043542 1.46584e-20)
(0.599281 -0.0214293 -7.38428e-21)
(0.790587 -0.0125371 7.86541e-21)
(0.217076 -0.102566 -2.63689e-20)
(0.240839 -0.086043 2.20968e-21)
(0.271075 -0.0759635 -1.03931e-21)
(0.31064 -0.0685279 9.32425e-21)
(0.358833 -0.0600247 0)
(0.415389 -0.0552019 0)
(0.476893 -0.0435331 0)
(0.540749 -0.0395119 7.10804e-21)
(0.606066 -0.0192516 0)
(0.79638 -0.0115684 0)
(0.222638 -0.0906337 0)
(0.245983 -0.075565 1.19213e-20)
(0.275549 -0.0667559 -8.15982e-21)
(0.314995 -0.0602653 -1.02698e-20)
(0.363133 -0.0528155 1.03233e-20)
(0.419786 -0.0488978 6.24969e-21)
(0.481415 -0.038479 -5.99703e-21)
(0.545298 -0.03564 -2.46369e-20)
(0.612107 -0.0171923 1.75114e-21)
(0.801596 -0.0106493 -5.75549e-21)
(0.227293 -0.0783952 0)
(0.25007 -0.0650242 -3.77235e-21)
(0.279077 -0.0575251 -2.14146e-21)
(0.318335 -0.0520562 0)
(0.366337 -0.0457073 2.96297e-21)
(0.42313 -0.0427783 -8.66035e-21)
(0.484803 -0.0336016 9.88169e-21)
(0.549021 -0.0319166 3.68135e-21)
(0.617225 -0.0152509 -3.67311e-21)
(0.80616 -0.0097768 7.6986e-21)
(0.230899 -0.0658665 2.86569e-21)