/*--------------------------------*- C++ -*----------------------------------*\
  =========                 |
  \\      /  F ield         | OpenFOAM: The Open Source CFD Toolbox
   \\    /   O peration     | Website:  https://openfoam.org
    \\  /    A nd           | Version:  7
     \\/     M anipulation  |
\*---------------------------------------------------------------------------*/
FoamFile
{
    version     2.0;
    format      ascii;
    class       volVectorField;
    location    "18";
    object      U;
}
// * * * * * * * * * * * * * * * * * * * * * * * * * * * * * * * * * * * * * //

dimensions      [0 1 -1 0 0 0 0];

internalField   nonuniform List<vector> 
2000
(
(0.00425754 0.00981739 2.60495e-22)
(0.0281606 0.0669975 0)
(0.0725313 0.139253 0)
(0.119631 0.213578 1.31802e-22)
(0.161125 0.280243 3.44418e-22)
(0.192033 0.333909 3.20833e-22)
(0.21115 0.373275 -6.36363e-22)
(0.219881 0.399608 0)
(0.220431 0.415467 0)
(0.216949 0.423481 0)
(0.00311813 0.00316861 0)
(0.0197681 0.047697 3.84476e-22)
(0.0542301 0.110215 -3.5446e-22)
(0.0937948 0.179748 -7.99246e-23)
(0.132082 0.247445 0)
(0.163853 0.306819 1.06094e-21)
(0.186404 0.354452 -9.86537e-22)
(0.199533 0.389573 0)
(0.204141 0.413279 4.96784e-21)
(0.203774 0.427708 -1.03499e-20)
(0.00296428 -0.00213556 0)
(0.0144937 0.0308747 -2.87133e-21)
(0.040341 0.0829665 0)
(0.0718756 0.145183 -2.01834e-22)
(0.104901 0.210399 0)
(0.134984 0.272325 -2.0274e-21)
(0.158902 0.326378 0)
(0.175285 0.370014 6.42213e-21)
(0.183746 0.402541 -6.01482e-21)
(0.1867 0.425219 -7.65296e-21)
(0.0034744 -0.00619498 9.3247e-22)
(0.0116544 0.0167497 1.49558e-21)
(0.0304983 0.0585281 4.51775e-22)
(0.0544908 0.111892 3.70143e-22)
(0.0812328 0.171584 -1.55424e-22)
(0.107539 0.232432 8.52335e-22)
(0.130503 0.289805 1.09275e-21)
(0.148265 0.34017 -1.41246e-21)
(0.159588 0.381236 4.55465e-21)
(0.165236 0.413161 7.64708e-21)
(0.00434091 -0.00911689 9.29517e-22)
(0.0104835 0.00532614 7.55738e-22)
(0.0239046 0.037437 3.31363e-22)
(0.0414549 0.0813718 -2.27337e-22)
(0.0619453 0.133451 0)
(0.0833416 0.189923 0)
(0.103462 0.246936 -2.54604e-21)
(0.120524 0.300906 -3.53583e-21)
(0.133179 0.348682 3.3199e-21)
(0.139857 0.389051 1.60358e-20)
(0.00526969 -0.0110092 -5.59284e-22)
(0.0102067 -0.00354976 -3.38371e-23)
(0.0195331 0.0197968 8.11503e-22)
(0.0319385 0.0544318 3.52791e-22)
(0.0469416 0.0978413 -1.51226e-22)
(0.0633216 0.147553 0)
(0.0796206 0.200815 0)
(0.094405 0.254658 1.0928e-20)
(0.10692 0.306108 -1.43646e-20)
(0.112366 0.352025 4.7408e-21)
(0.00598482 -0.0119629 -3.33091e-21)
(0.0101197 -0.010106 0)
(0.0163478 0.00543487 -1.07211e-21)
(0.0248044 0.0312869 -1.89081e-22)
(0.0353834 0.0657652 0)
(0.0473552 0.107366 1.06672e-21)
(0.0597928 0.154359 -3.22935e-21)
(0.0716829 0.20463 -7.0368e-21)
(0.0832204 0.256302 3.28627e-21)
(0.0855365 0.303142 5.60346e-21)
(0.00624041 -0.012052 5.34954e-21)
(0.00966759 -0.0145863 2.58624e-22)
(0.0135064 -0.00591392 3.44254e-23)
(0.0189873 0.0118439 -6.23689e-22)
(0.0261772 0.0376042 -7.64399e-22)
(0.0346267 0.0705434 -1.10891e-21)
(0.0437595 0.109693 3.40999e-23)
(0.0530624 0.153777 0)
(0.0634997 0.202399 0)
(0.0622997 0.245885 -2.22234e-21)
(0.00584934 -0.0113625 -2.01859e-21)
(0.00850785 -0.0172089 7.43438e-22)
(0.0105111 -0.0144509 -3.50942e-22)
(0.0137989 -0.0039772 1.25581e-21)
(0.0184767 0.0135685 -5.17368e-22)
(0.0242531 0.0378041 8.17959e-22)
(0.0308127 0.0682354 1.19386e-21)
(0.0382855 0.1043 0)
(0.048136 0.146688 0)
(0.0452814 0.182411 1.14253e-21)
(0.00472819 -0.0100164 6.02588e-23)
(0.00655719 -0.0181536 -7.80811e-22)
(0.00727778 -0.0202385 3.43248e-23)
(0.00908908 -0.0160218 0)
(0.0120045 -0.00585478 0)
(0.0157874 0.010093 2.08711e-21)
(0.0202975 0.0314944 0)
(0.0262114 0.0581004 -3.29276e-21)
(0.0357645 0.0900517 8.19537e-22)
(0.0380698 0.113866 2.14505e-21)
(0.193852 0.427855 7.5189e-22)
(0.152071 0.413217 -7.66426e-22)
(0.115011 0.398604 -1.04663e-21)
(0.0846331 0.386501 -1.17489e-21)
(0.0532843 0.37591 -1.3105e-21)
(0.0244624 0.369375 -3.53776e-24)
(-0.00822655 0.375808 6.64576e-22)
(-0.0282563 0.418718 2.04613e-21)
(-0.0468686 0.532663 0)
(-0.00555535 0.718148 -1.40306e-21)
(0.18764 0.438605 1.71893e-21)
(0.147487 0.424139 -3.70467e-21)
(0.111454 0.408442 6.78623e-21)
(0.0820029 0.396017 1.17699e-21)
(0.0511999 0.385294 2.44894e-21)
(0.0226526 0.378681 3.90108e-21)
(-0.0100174 0.38418 -1.34524e-21)
(-0.0306333 0.423496 -1.35765e-21)
(-0.049707 0.52996 2.60459e-21)
(-0.00822033 0.708851 1.39976e-21)
(0.179844 0.447319 0)
(0.142646 0.434564 -3.02639e-21)
(0.108235 0.418303 -2.01167e-21)
(0.0798066 0.405521 0)
(0.0495473 0.394544 -7.38533e-21)
(0.0213603 0.387798 2.38937e-21)
(-0.0112461 0.392314 2.51032e-21)
(-0.0325115 0.428082 7.80584e-21)
(-0.0522524 0.526797 -2.59614e-21)
(-0.0111707 0.698471 5.41733e-21)
(0.16985 0.452279 0)
(0.137164 0.44332 3.05307e-21)
(0.105154 0.427606 0)
(0.077913 0.414684 8.91205e-21)
(0.0482631 0.403486 -8.95607e-21)
(0.0205595 0.396674 -4.96842e-21)
(-0.0118708 0.400197 -1.0761e-22)
(-0.0337807 0.432597 -7.70959e-21)
(-0.0543521 0.523416 -1.25151e-21)
(-0.0143187 0.687275 -6.68126e-21)
(0.15706 0.45189 4.55344e-21)
(0.1309 0.450914 -4.6729e-21)
(0.102319 0.437157 1.3275e-21)
(0.0763356 0.423848 -7.68191e-21)
(0.0473292 0.412253 0)
(0.020194 0.405349 -4.83244e-21)
(-0.01195 0.40787 -9.2172e-23)
(-0.034461 0.436984 9.99436e-21)
(-0.0559563 0.519888 1.26435e-21)
(-0.0175765 0.675135 -1.26906e-21)
(0.141503 0.443268 -1.00626e-20)
(0.12329 0.454209 1.01249e-20)
(0.0991926 0.444987 7.32928e-21)
(0.0747985 0.43205 -7.32136e-21)
(0.0466655 0.42043 -4.27248e-21)
(0.0202782 0.413634 0)
(-0.0113938 0.415337 -9.49982e-21)
(-0.0343605 0.441413 4.77967e-21)
(-0.0567861 0.516554 4.8208e-21)
(-0.02074 0.662698 5.04966e-21)
(0.123412 0.427043 -8.12427e-22)
(0.115014 0.457142 0)
(0.0962824 0.453833 0)
(0.0734417 0.440581 0)
(0.0462292 0.428625 -4.42376e-21)
(0.0205788 0.421695 8.6805e-21)
(-0.0105708 0.422521 9.35954e-21)
(-0.0338785 0.445653 -1.40838e-20)
(-0.0570508 0.51316 2.40579e-21)
(-0.0236592 0.649336 -7.38439e-21)
(0.103763 0.397371 2.85528e-21)
(0.104657 0.450743 1.05951e-20)
(0.0922207 0.457883 -1.04881e-20)
(0.071821 0.446855 1.54668e-20)
(0.0460484 0.435674 -1.92987e-20)
(0.0214815 0.42911 0)
(-0.00880682 0.429469 -4.41044e-21)
(-0.0322109 0.450057 1.14385e-22)
(-0.0560931 0.510663 -4.48616e-21)
(-0.0260658 0.636796 -4.7327e-21)
(0.0839642 0.367528 -1.71647e-21)
(0.0955118 0.450601 0)
(0.0886228 0.465499 -1.41236e-20)
(0.0701918 0.454927 2.75102e-20)
(0.0456431 0.443499 -1.07062e-20)
(0.0217356 0.436403 -2.06315e-21)
(-0.00792821 0.435844 4.40111e-21)
(-0.0311827 0.453824 4.65002e-23)
(-0.0550026 0.507751 6.55203e-21)
(-0.0277473 0.62272 6.89415e-21)
(0.0629623 0.307931 -4.78149e-21)
(0.0817231 0.428221 4.62634e-21)
(0.0826986 0.46208 1.31818e-21)
(0.0684243 0.45824 0)
(0.0462042 0.448955 0)
(0.0241022 0.442906 1.98853e-21)
(-0.00412532 0.442461 8.23189e-21)
(-0.0271804 0.458656 -8.07782e-21)
(-0.05185 0.506607 -2.09264e-21)
(-0.0288814 0.612072 2.03702e-21)
(0.026552 0.273497 0)
(0.0593239 0.430366 0)
(0.0673453 0.477987 0)
(0.0596764 0.4798 0)
(0.0403566 0.468791 0)
(0.0178052 0.458587 0)
(-0.00929844 0.454509 0)
(-0.0293757 0.465287 0)
(-0.0476103 0.499097 0)
(-0.0276049 0.576089 0)
(0.00676948 0.256684 0)
(0.0333263 0.415219 0)
(0.0347469 0.46694 0)
(0.0341219 0.479592 0)
(0.0278728 0.482609 0)
(0.0190182 0.483059 0)
(0.00274173 0.484207 0)
(-0.0113879 0.494345 0)
(-0.026738 0.516709 0)
(-0.0170946 0.561058 0)
(-0.00426228 0.254252 0)
(0.0246325 0.41108 0)
(0.0241342 0.473426 0)
(0.0233632 0.489987 0)
(0.0153017 0.490822 0)
(0.00739285 0.488622 0)
(-0.00386087 0.486403 0)
(-0.0107638 0.489915 0)
(-0.0184529 0.500603 0)
(-0.0104681 0.523143 0)
(-0.0142538 0.258177 0)
(0.00736557 0.385072 0)
(0.00979949 0.454164 0)
(0.0155738 0.481906 0)
(0.0156514 0.493467 0)
(0.016147 0.500668 0)
(0.0112164 0.506782 0)
(0.00693334 0.514102 0)
(-0.00128606 0.523265 0)
(-0.0019734 0.536807 0)
(-0.00758723 0.291147 0)
(0.00136527 0.387139 0)
(0.0130575 0.463299 0)
(0.0168883 0.488703 0)
(0.0109331 0.491456 0)
(0.00717007 0.490536 0)
(0.00227172 0.492364 0)
(0.00100985 0.497702 0)
(-0.00274194 0.505368 0)
(-0.00101356 0.514964 0)
(0.00970795 0.316395 0)
(-0.0131968 0.361047 0)
(-0.000249931 0.434343 0)
(0.0182776 0.479426 0)
(0.0243732 0.499556 0)
(0.0259846 0.50917 0)
(0.020799 0.515656 0)
(0.0162278 0.522776 0)
(0.00756043 0.531159 0)
(0.00302026 0.539936 0)
(0.0547441 0.382095 0)
(0.0165365 0.403519 0)
(0.00335573 0.442509 0)
(0.0071967 0.471202 0)
(0.00788943 0.484746 0)
(0.00886146 0.492316 0)
(0.00504339 0.498727 0)
(0.00393935 0.50614 0)
(-0.00048003 0.513294 0)
(0.000316911 0.519761 0)
(0.0882464 0.393861 0)
(0.046817 0.405482 0)
(0.0262757 0.436025 0)
(0.0304998 0.472538 0)
(0.0355263 0.499184 0)
(0.0383934 0.515427 0)
(0.0321972 0.525188 0)
(0.0248343 0.533739 0)
(0.0127327 0.54058 0)
(0.00449417 0.545089 0)
(0.138013 0.449202 0)
(0.103917 0.472334 0)
(0.0540058 0.466198 0)
(0.0244475 0.464656 0)
(0.0121793 0.474401 0)
(0.0128953 0.491099 0)
(0.0128093 0.507144 0)
(0.0131681 0.520494 0)
(0.00830249 0.528927 0)
(0.00401483 0.531921 0)
(0.144129 0.391258 0)
(0.157244 0.479188 0)
(0.1378 0.512341 0)
(0.110354 0.517396 0)
(0.083513 0.515731 0)
(0.0649868 0.519927 0)
(0.0491908 0.530321 0)
(0.0372312 0.543215 0)
(0.0229771 0.554248 0)
(0.00917876 0.561023 0)
(0.0102761 0.10055 4.15433e-21)
(0.0109059 0.137328 -4.08564e-21)
(0.0153434 0.187126 6.88164e-22)
(0.0196024 0.232435 0)
(0.0320511 0.286987 0)
(0.0510643 0.326468 5.39293e-22)
(0.081268 0.373705 -1.90277e-21)
(0.102034 0.369004 1.86257e-21)
(0.122154 0.377237 1.95591e-22)
(0.11244 0.290974 -1.89718e-22)
(0.0250517 0.0525113 -3.40934e-21)
(0.0281637 0.109531 0)
(0.0315619 0.177249 4.42449e-21)
(0.0353484 0.234753 -9.66273e-21)
(0.0463557 0.292466 5.63018e-21)
(0.0631435 0.330405 -5.28033e-22)
(0.0862541 0.364328 8.89388e-22)
(0.100248 0.348199 1.46487e-21)
(0.110962 0.340535 7.21559e-23)
(0.0996143 0.249811 -7.20196e-23)
(0.0418314 0.0370175 4.42397e-21)
(0.0483868 0.110935 -5.06963e-21)
(0.0501962 0.187097 5.02114e-21)
(0.0514545 0.247993 -4.15012e-21)
(0.0591331 0.30088 3.07839e-21)
(0.0719026 0.330043 0)
(0.087447 0.347736 -8.91445e-22)
(0.0948869 0.319666 -6.83237e-23)
(0.0976917 0.299055 -5.9299e-22)
(0.0861553 0.208001 -1.06445e-22)
(0.0641171 0.0524313 -9.57937e-22)
(0.071824 0.135348 0)
(0.0691013 0.209733 0)
(0.0663086 0.264848 0)
(0.0693016 0.306039 2.38184e-21)
(0.0767537 0.321844 -1.61415e-21)
(0.0846206 0.32294 1.38499e-24)
(0.0860401 0.284438 -6.22814e-22)
(0.0828421 0.254234 -1.55647e-22)
(0.0725713 0.16623 8.37614e-23)
(0.0912704 0.0901338 1.62796e-21)
(0.095151 0.170789 -3.12262e-21)
(0.0856591 0.234699 -1.69027e-21)
(0.0775788 0.277089 1.68901e-21)
(0.0751739 0.302688 -7.56528e-22)
(0.0768998 0.303754 0)
(0.07783 0.289999 -7.20035e-22)
(0.0743166 0.243761 1.19339e-21)
(0.0672712 0.207622 -5.55424e-22)
(0.0594125 0.125565 7.13075e-23)
(0.120477 0.13633 -5.87627e-21)
(0.11502 0.204531 9.69463e-22)
(0.0977045 0.252367 3.44242e-22)
(0.0839955 0.278626 1.28608e-21)
(0.0762957 0.288007 0)
(0.0726359 0.275547 0)
(0.0678417 0.250029 0)
(0.0607525 0.199335 5.0231e-22)
(0.0518777 0.160881 0)
(0.0471291 0.0870891 0)
(0.147471 0.178284 0)
(0.129242 0.227426 1.71072e-21)
(0.104279 0.256809 -1.16511e-21)
(0.0854656 0.266785 -7.38905e-22)
(0.0731169 0.261754 7.42674e-22)
(0.0648116 0.238505 4.56159e-22)
(0.0556732 0.204892 -4.25596e-22)
(0.0464371 0.153127 -1.64592e-21)
(0.0374541 0.115633 1.66466e-22)
(0.0361473 0.0517599 2.56611e-23)
(0.167949 0.207562 0)
(0.1369 0.234972 -5.46733e-22)
(0.105517 0.246204 -6.72652e-23)
(0.082643 0.241932 0)
(0.0665279 0.225564 1.86981e-22)
(0.0544927 0.194841 -3.92067e-22)
(0.0424179 0.156838 6.47824e-22)
(0.0324105 0.107143 2.35473e-22)
(0.0246163 0.0732819 -1.79647e-22)
(0.0267886 0.0203269 3.28627e-23)
(0.179514 0.219853 2.61798e-22)
(0.138259 0.226409 8.74209e-23)
(0.102326 0.221774 -4.03791e-23)
(0.0765622 0.206364 -1.92056e-23)
(0.0575924 0.182073 7.64894e-23)
(0.0428018 0.147165 1.64032e-22)
(0.0291435 0.108194 -6.89183e-23)
(0.0195898 0.0632449 -7.78715e-23)
(0.0137432 0.0348716 1.80234e-22)
(0.0183342 -0.00676447 7.6086e-24)
(0.182257 0.214552 2.48159e-24)
(0.134414 0.203642 -2.52869e-24)
(0.0959688 0.186495 1.91803e-23)
(0.0683528 0.163256 1.91757e-23)
(0.0473764 0.134235 7.64199e-24)
(0.0308169 0.0981098 -4.52069e-23)
(0.0167934 0.0611318 1.01196e-22)
(0.00869765 0.0229783 4.54017e-23)
(0.00513697 0.00114782 0)
(0.0126481 -0.0295929 -7.62215e-24)
(0.178006 0.194162 -4.90236e-23)
(0.126825 0.17018 4.99131e-23)
(0.0877035 0.144008 9.9936e-23)
(0.0590569 0.115911 8.37636e-23)
(0.0368503 0.0848942 1.58795e-23)
(0.0194953 0.0500894 -1.14988e-23)
(0.00609621 0.0174818 9.67724e-24)
(0.00012982 -0.0125871 7.70026e-23)
(-0.00099199 -0.0276122 0)
(0.00834112 -0.0488257 -1.1623e-23)
(0.169081 0.162824 0)
(0.116963 0.12994 4.52331e-22)
(0.0785643 0.0978356 -8.07727e-22)
(0.0495451 0.0673263 -8.38848e-23)
(0.0268287 0.0365505 -1.28723e-22)
(0.00955622 0.00513101 -4.40136e-23)
(-0.00246134 -0.0214026 -3.43818e-23)
(-0.00605223 -0.0429495 -5.20056e-23)
(-0.00480648 -0.0516153 9.84933e-23)
(0.00520688 -0.0652129 1.15926e-23)
(0.157429 0.124691 0)
(0.106089 0.0864358 5.76491e-22)
(0.0693062 0.0509906 2.52576e-22)
(0.0405195 0.0199764 0)
(0.0178692 -0.00875935 3.25217e-22)
(0.00134052 -0.0352728 -1.58164e-22)
(-0.00861834 -0.0548084 -1.05225e-23)
(-0.00997538 -0.0682049 1.83039e-22)
(-0.00682173 -0.071516 -9.81715e-23)
(0.00311979 -0.0794968 4.69099e-23)
(0.144286 0.0831954 0)
(0.0952771 0.0424951 -5.81232e-22)
(0.0604269 0.00584977 0)
(0.0323927 -0.0242331 -8.37766e-22)
(0.01044 -0.0495333 8.42144e-22)
(-0.0046296 -0.0702685 6.15215e-23)
(-0.0123893 -0.0826701 -1.0286e-22)
(-0.0119334 -0.0889174 -1.65958e-22)
(-0.00755575 -0.0882181 -4.18907e-23)
(0.0018118 -0.0923676 -7.10102e-23)
(0.130417 0.0410912 -2.74589e-21)
(0.0851905 0.000227322 1.22222e-21)
(0.0523762 -0.0357978 9.38736e-23)
(0.0255167 -0.0640537 1.15159e-21)
(0.00487358 -0.0849852 0)
(-0.00827981 -0.0995942 8.892e-23)
(-0.0141039 -0.105361 -1.29356e-22)
(-0.0123857 -0.105983 1.41073e-22)
(-0.0074652 -0.102676 2.0662e-23)
(0.00101885 -0.104407 -2.06572e-23)
(0.116797 0.000744248 9.88976e-22)
(0.0761576 -0.0388738 -2.31251e-21)
(0.0455558 -0.0727476 -1.15403e-21)
(0.0201685 -0.0987109 1.15345e-21)
(0.00112706 -0.11478 3.70046e-22)
(-0.0100876 -0.123564 0)
(-0.0142152 -0.123761 1.8798e-23)
(-0.0118306 -0.120434 -9.68642e-24)
(-0.00692062 -0.115744 8.32487e-23)
(0.000546009 -0.116061 3.47446e-23)
(0.104165 -0.0361136 1.10077e-22)
(0.0683934 -0.0741225 0)
(0.0400802 -0.10442 0)
(0.0163003 -0.127973 0)
(-0.00111417 -0.139131 1.96006e-22)
(-0.0103669 -0.142925 -5.65726e-22)
(-0.0132176 -0.138942 -3.61504e-23)
(-0.01071 -0.133249 -9.42232e-23)
(-0.00618433 -0.128087 2.88242e-23)
(0.000266342 -0.127641 -6.29214e-23)
(0.0928257 -0.068061 -1.27487e-22)
(0.0621513 -0.105492 -2.11721e-21)
(0.0360712 -0.130677 2.09776e-21)
(0.0138338 -0.15203 -1.75369e-21)
(-0.0017236 -0.158666 2.09768e-21)
(-0.00954182 -0.158715 0)
(-0.0115763 -0.151982 6.1151e-23)
(-0.00935744 -0.145227 1.38326e-23)
(-0.00541558 -0.140165 -6.0524e-23)
(0.000105783 -0.139346 -2.57179e-23)
(0.0823196 -0.0939155 -6.88731e-24)
(0.0570488 -0.133491 0)
(0.0335081 -0.151815 2.25981e-21)
(0.0126941 -0.171534 -3.66072e-21)
(-0.00126501 -0.174215 1.28766e-21)
(-0.00804971 -0.171863 9.84201e-23)
(-0.00964209 -0.163803 -6.10119e-23)
(-0.00797956 -0.156934 -1.18915e-23)
(-0.00469224 -0.152257 7.60814e-23)
(2.79228e-05 -0.151294 4.43499e-23)
(0.0737029 -0.112356 2.07281e-22)
(0.0519033 -0.158955 -2.01626e-22)
(0.0314746 -0.168614 -2.56161e-22)
(0.0119653 -0.187186 0)
(-3.47912e-05 -0.18668 0)
(-0.00622361 -0.183388 -1.01107e-22)
(-0.00766906 -0.17507 -6.40204e-23)
(-0.0066787 -0.168702 6.28609e-23)
(-0.00400448 -0.164506 -1.59258e-23)
(2.01952e-05 -0.163551 1.55915e-23)
(0.0721245 -0.135802 0)
(0.040783 -0.212434 0)
(0.0255639 -0.200389 0)
(0.00770288 -0.217696 0)
(0.00199651 -0.211181 0)
(-0.00306449 -0.208462 0)
(-0.00367967 -0.201842 0)
(-0.0039602 -0.197647 0)
(-0.0023097 -0.194438 0)
(0.000129436 -0.193459 0)
(0.0347535 -0.238277 0)
(0.0244664 -0.275805 0)
(0.0254099 -0.255342 0)
(0.00629319 -0.269939 0)
(0.0078265 -0.256551 0)
(0.000198158 -0.260529 0)
(0.00112442 -0.253278 0)
(-0.000943579 -0.253072 0)
(-5.2665e-05 -0.249528 0)
(0.000100029 -0.249448 0)
(0.0422773 -0.28225 0)
(0.0269476 -0.313424 0)
(0.0213953 -0.303429 0)
(0.0086718 -0.316086 0)
(0.00944131 -0.304867 0)
(0.0023351 -0.311378 0)
(0.0046172 -0.303558 0)
(0.000262246 -0.306969 0)
(0.00155214 -0.302202 0)
(-9.51864e-05 -0.30358 0)
(0.0286922 -0.341201 0)
(0.0188111 -0.372216 0)
(0.0183183 -0.355035 0)
(0.0103169 -0.369225 0)
(0.0088788 -0.358107 0)
(0.00446137 -0.366171 0)
(0.00495608 -0.359347 0)
(0.00121804 -0.363675 0)
(0.00272724 -0.358172 0)
(-0.000578437 -0.361035 0)
(0.0261236 -0.401786 0)
(0.0190356 -0.432606 0)
(0.0160405 -0.41432 0)
(0.00960768 -0.432849 0)
(0.00834619 -0.41961 0)
(0.00517048 -0.431449 0)
(0.00469641 -0.423049 0)
(0.0022498 -0.428391 0)
(0.00239131 -0.422854 0)
(-0.000541979 -0.426135 0)
(0.0212127 -0.475071 0)
(0.0151221 -0.506722 0)
(0.0133377 -0.487216 0)
(0.0084627 -0.507404 0)
(0.00749664 -0.493515 0)
(0.00463181 -0.507578 0)
(0.00457981 -0.496919 0)
(0.00264104 -0.504819 0)
(0.00243221 -0.496581 0)
(-5.16687e-05 -0.501372 0)
(0.0162364 -0.5683 0)
(0.0120033 -0.599576 0)
(0.0102672 -0.579194 0)
(0.00696747 -0.601194 0)
(0.00640005 -0.586375 0)
(0.00454904 -0.601749 0)
(0.00439244 -0.590237 0)
(0.00292439 -0.59976 0)
(0.00206592 -0.589796 0)
(1.84855e-06 -0.597525 0)
(0.0126978 -0.689857 0)
(0.00926039 -0.717796 0)
(0.0076441 -0.700074 0)
(0.00517805 -0.720849 0)
(0.00480832 -0.707841 0)
(0.00330931 -0.72357 0)
(0.0029854 -0.712488 0)
(0.00139691 -0.722723 0)
(0.000921447 -0.713238 0)
(-0.000232501 -0.722328 0)
(0.00688039 -0.828233 0)
(0.00467045 -0.84516 0)
(0.00371485 -0.836685 0)
(0.00241183 -0.850831 0)
(0.00236575 -0.843793 0)
(0.0013381 -0.854276 0)
(0.000901324 -0.846771 0)
(-0.000251326 -0.853627 0)
(-0.000263722 -0.847066 0)
(-0.000422119 -0.854024 0)
(0.00139861 -0.923097 0)
(0.000976003 -0.931714 0)
(0.000778811 -0.931012 0)
(0.00054378 -0.937298 0)
(0.000582632 -0.935384 0)
(0.000273152 -0.939304 0)
(-4.06737e-05 -0.935703 0)
(-0.000463487 -0.937992 0)
(-0.000367986 -0.93447 0)
(-0.00020654 -0.937506 0)
(0.0609995 -0.16661 3.07178e-21)
(0.0356689 -0.257004 -3.04039e-21)
(0.0447913 -0.299043 5.06333e-22)
(0.0290091 -0.359715 0)
(0.0285189 -0.420157 0)
(0.0226112 -0.494081 7.21219e-22)
(0.0179231 -0.586953 -3.32502e-21)
(0.01347 -0.704044 3.31701e-21)
(0.00808223 -0.835358 9.81362e-22)
(0.00244186 -0.921826 -9.76352e-22)
(0.0570833 -0.175319 -3.91754e-21)
(0.0363471 -0.263382 0)
(0.0454854 -0.304218 3.61476e-21)
(0.0292718 -0.365147 -8.58455e-21)
(0.0295424 -0.425461 5.79043e-21)
(0.0232304 -0.499812 -6.50443e-22)
(0.0186959 -0.592432 1.58349e-21)
(0.0138517 -0.708331 3.47809e-21)
(0.00861764 -0.836464 1.05731e-21)
(0.00290221 -0.921525 1.06272e-21)
(0.0541497 -0.18428 5.38519e-21)
(0.037244 -0.271158 -4.1131e-21)
(0.0462476 -0.309599 4.07442e-21)
(0.0298963 -0.369966 -4.98721e-21)
(0.0307278 -0.430021 3.6674e-21)
(0.0239723 -0.504459 0)
(0.0195499 -0.5967 -1.58745e-21)
(0.0143891 -0.711609 1.45609e-22)
(0.00902536 -0.836469 -1.86113e-21)
(0.00312593 -0.920932 -2.00693e-21)
(0.051925 -0.193356 -9.08729e-22)
(0.0383321 -0.279164 0)
(0.047264 -0.314969 0)
(0.0309539 -0.374636 0)
(0.0321323 -0.434593 4.53838e-21)
(0.0249098 -0.508788 -3.03636e-21)
(0.0205321 -0.600589 -3.57843e-23)
(0.0150872 -0.714426 -2.09206e-21)
(0.00939099 -0.836488 -1.09652e-21)
(0.00319746 -0.91971 -1.20991e-21)
(0.0503541 -0.201726 -1.30411e-22)
(0.0396143 -0.286141 -3.07245e-21)
(0.0485352 -0.319492 -2.46317e-21)
(0.0324022 -0.378651 2.4616e-21)
(0.0337358 -0.438779 -1.48189e-21)
(0.0260574 -0.512682 0)
(0.0216607 -0.604066 -1.87374e-21)
(0.0159157 -0.716858 4.31542e-21)
(0.00982322 -0.836629 -2.23881e-21)
(0.00325389 -0.918084 2.33399e-21)
(0.0494925 -0.209169 -8.92567e-21)
(0.0411652 -0.291887 9.29745e-22)
(0.0500674 -0.322841 -2.48972e-22)
(0.0342063 -0.38158 2.61291e-21)
(0.0355036 -0.442071 0)
(0.0274008 -0.515747 0)
(0.0229282 -0.60679 0)
(0.0168477 -0.718682 2.36236e-21)
(0.0103752 -0.836582 0)
(0.00337588 -0.91626 0)
(0.0493491 -0.215565 0)
(0.0430762 -0.296624 3.66633e-21)
(0.0519239 -0.325121 -2.47745e-21)
(0.0363817 -0.38334 -3.19558e-21)
(0.0374382 -0.444266 3.21226e-21)
(0.028939 -0.517734 2.06986e-21)
(0.0243297 -0.608514 -2.04244e-21)
(0.0178689 -0.719702 -8.49634e-21)
(0.0110363 -0.836102 5.99509e-22)
(0.00356643 -0.914327 -2.20221e-21)
(0.0499033 -0.220664 0)
(0.0454114 -0.300461 -1.19194e-21)
(0.0541796 -0.326445 -7.06456e-22)
(0.0389656 -0.383987 0)
(0.0395778 -0.445346 1.00005e-21)
(0.0306969 -0.518577 -3.03546e-21)
(0.0258787 -0.609133 3.51893e-21)
(0.0189912 -0.719786 1.28349e-21)
(0.0117972 -0.835004 -1.46232e-21)
(0.00381929 -0.912188 2.90615e-21)
(0.0511641 -0.224161 1.20433e-21)
(0.0482166 -0.303383 1.34802e-21)
(0.0568942 -0.326788 -2.82016e-22)
(0.0419837 -0.383546 4.31072e-22)
(0.041969 -0.445317 9.4814e-22)
(0.0327044 -0.518303 1.64276e-21)
(0.0275984 -0.608669 -6.48838e-22)
(0.0202287 -0.71898 -7.16777e-22)
(0.0126356 -0.833335 1.46716e-21)
(0.00410642 -0.90983 8.23671e-22)
(0.0531912 -0.225739 -3.05068e-22)
(0.0515406 -0.30536 3.07606e-22)
(0.060121 -0.326037 -3.72723e-22)
(0.0454437 -0.382008 -4.3055e-22)
(0.0446582 -0.4441 5.52001e-22)
(0.0349915 -0.516908 -1.12815e-21)
(0.0295164 -0.607096 9.99904e-22)
(0.0216145 -0.717231 3.63695e-22)
(0.0135812 -0.831007 0)
(0.00444723 -0.90713 -8.25471e-22)
(0.0560853 -0.225053 3.10683e-22)
(0.0554466 -0.306417 -3.13411e-22)
(0.0639152 -0.324097 -4.19792e-22)
(0.0493398 -0.379402 -4.82534e-22)
(0.0476852 -0.44165 -5.86858e-22)
(0.0375637 -0.514427 -5.34892e-23)
(0.0316508 -0.604459 3.61868e-22)
(0.0231498 -0.714688 1.18648e-21)
(0.0146122 -0.828207 0)
(0.0048139 -0.904207 -9.30814e-22)
(0.0600019 -0.221769 0)
(0.0599971 -0.306568 -1.54013e-21)
(0.0683451 -0.32099 2.86588e-21)
(0.0536533 -0.375737 4.83386e-22)
(0.0511097 -0.437865 1.21044e-21)
(0.0404465 -0.510774 2.01609e-21)
(0.0340249 -0.600677 -7.34625e-22)
(0.0248746 -0.711147 -8.09475e-22)
(0.0157953 -0.8247 1.86855e-21)
(0.00525579 -0.900898 9.286e-22)
(0.0652101 -0.215649 0)
(0.0652372 -0.30569 -1.39409e-21)
(0.0734986 -0.316873 -8.96432e-22)
(0.0583885 -0.370998 0)
(0.0549566 -0.432949 -3.86241e-21)
(0.0436132 -0.505981 1.29707e-21)
(0.0366436 -0.595951 1.62571e-21)
(0.0267551 -0.706884 5.32749e-21)
(0.017053 -0.820846 -1.86252e-21)
(0.00570713 -0.897451 4.15962e-21)
(0.0722145 -0.206595 0)
(0.0712108 -0.303393 1.40613e-21)
(0.0794354 -0.312153 0)
(0.0635235 -0.365011 4.84396e-21)
(0.0593176 -0.426813 -4.86881e-21)
(0.0471374 -0.499807 -3.18679e-21)
(0.0395379 -0.58997 -9.84394e-23)
(0.0288915 -0.701386 -5.52883e-21)
(0.0185063 -0.816102 -9.15478e-22)
(0.0062637 -0.893506 -5.17181e-21)
(0.0818745 -0.194662 9.71178e-21)
(0.0779373 -0.299257 -3.2354e-21)
(0.0862307 -0.306996 8.888e-22)
(0.0691703 -0.357791 -4.41278e-21)
(0.0641421 -0.419554 0)
(0.0509804 -0.492762 -3.37462e-21)
(0.0426491 -0.583301 -3.73789e-22)
(0.0311533 -0.695528 7.59462e-21)
(0.0199727 -0.811282 1.08863e-21)
(0.00678316 -0.889565 -1.0925e-21)
(0.0952454 -0.179869 -9.58307e-22)
(0.0855437 -0.292786 6.82635e-21)
(0.0938705 -0.300973 4.65278e-21)
(0.0754266 -0.34946 -4.64956e-21)
(0.0694589 -0.410959 -3.03044e-21)
(0.0552455 -0.484356 0)
(0.0461323 -0.575034 -7.84526e-21)
(0.0337879 -0.687986 3.91109e-21)
(0.0217386 -0.805175 4.30851e-21)
(0.00747221 -0.884868 4.80909e-21)
(0.112907 -0.162608 -1.17766e-21)
(0.0941389 -0.283888 0)
(0.102174 -0.294413 0)
(0.0822356 -0.34065 0)
(0.0751645 -0.401867 -3.61701e-21)
(0.0597576 -0.475744 6.63573e-21)
(0.0497571 -0.566928 8.04959e-21)
(0.0364125 -0.680998 -1.28664e-20)
(0.0233872 -0.79961 2.3973e-21)
(0.00802334 -0.880482 -7.1377e-21)
(0.133808 -0.143828 -2.1794e-21)
(0.103786 -0.27081 7.9864e-21)
(0.111164 -0.286317 -7.90865e-21)
(0.0898034 -0.330382 1.2135e-20)
(0.0815434 -0.390851 -1.53714e-20)
(0.0649371 -0.464717 0)
(0.0539931 -0.556001 -4.27326e-21)
(0.0396926 -0.671005 -2.37957e-22)
(0.0255665 -0.791867 -5.04115e-21)
(0.00889432 -0.874829 -5.23373e-21)
(0.154585 -0.12392 -1.2076e-21)
(0.113801 -0.256556 0)
(0.119828 -0.279991 -1.21374e-20)
(0.0976307 -0.321538 2.35205e-20)
(0.0878907 -0.381772 -9.23716e-21)
(0.0699564 -0.45606 -1.98301e-21)
(0.0579771 -0.548027 4.26424e-21)
(0.0425514 -0.664041 -3.27223e-22)
(0.0273213 -0.786113 7.27751e-21)
(0.00939495 -0.870177 7.73871e-21)
(0.169632 -0.100413 -5.92187e-21)
(0.126305 -0.231024 5.66925e-21)
(0.130335 -0.267495 1.2511e-21)
(0.107242 -0.307641 0)
(0.095992 -0.366567 0)
(0.0766042 -0.440719 1.91294e-21)
(0.0633673 -0.533023 9.12125e-21)
(0.0468231 -0.650534 -8.83738e-21)
(0.0301337 -0.776215 -2.52725e-21)
(0.0105845 -0.863196 2.4656e-21)
(0.175981 -0.0728207 0)
(0.16268 -0.218904 0)
(0.150077 -0.2692 0)
(0.128339 -0.30156 0)
(0.110592 -0.36033 0)
(0.0883295 -0.432415 0)
(0.0726481 -0.524154 0)
(0.0534967 -0.639977 0)
(0.0342473 -0.764291 0)
(0.011227 -0.852035 0)
(0.226513 -0.0631947 0)
(0.226446 -0.194253 0)
(0.174264 -0.250729 0)
(0.168742 -0.279979 0)
(0.138366 -0.338665 0)
(0.111353 -0.415933 0)
(0.0933139 -0.508479 0)
(0.0697182 -0.622322 0)
(0.0450669 -0.741659 0)
(0.0169171 -0.821437 0)
(0.284228 -0.0272568 0)
(0.2755 -0.153175 0)
(0.205892 -0.219052 0)
(0.203573 -0.253432 0)
(0.170846 -0.304629 0)
(0.140171 -0.388402 0)
(0.117061 -0.481943 0)
(0.0884358 -0.591536 0)
(0.0558079 -0.70892 0)
(0.0169715 -0.790714 0)
(0.349776 0.00985445 0)
(0.329836 -0.105731 0)
(0.255051 -0.183081 0)
(0.241176 -0.231886 0)
(0.211893 -0.277941 0)
(0.18155 -0.365195 0)
(0.150258 -0.460945 0)
(0.116849 -0.564476 0)
(0.0756777 -0.6722 0)
(0.0288425 -0.742749 0)
(0.418189 0.0448823 0)
(0.397255 -0.0541001 0)
(0.325869 -0.135511 0)
(0.294265 -0.198404 0)
(0.262599 -0.245324 0)
(0.230832 -0.327498 0)
(0.188861 -0.419082 0)
(0.145419 -0.517647 0)
(0.0910557 -0.618768 0)
(0.0282555 -0.688827 0)
(0.483879 0.0617292 0)
(0.472248 -0.0162071 0)
(0.41573 -0.0923806 0)
(0.374003 -0.166093 0)
(0.334501 -0.223235 0)
(0.296732 -0.301477 0)
(0.24614 -0.384972 0)
(0.191217 -0.474292 0)
(0.122174 -0.560614 0)
(0.0460957 -0.615786 0)
(0.533591 0.0669178 0)
(0.539981 0.0157389 0)
(0.506648 -0.0422562 0)
(0.465905 -0.111432 0)
(0.417007 -0.171707 0)
(0.365736 -0.243191 0)
(0.301437 -0.315618 0)
(0.228957 -0.392574 0)
(0.142191 -0.467655 0)
(0.0409255 -0.525978 0)
(0.569366 0.0356789 0)
(0.592838 0.00726931 0)
(0.583761 -0.0295648 0)
(0.560692 -0.0814894 0)
(0.513365 -0.135477 0)
(0.455222 -0.197797 0)
(0.377781 -0.259568 0)
(0.287006 -0.321242 0)
(0.184139 -0.378713 0)
(0.074682 -0.410183 0)
(0.587329 0.0200691 0)
(0.61726 0.00926743 0)
(0.611746 -0.00620602 0)
(0.603757 -0.0314853 0)
(0.556446 -0.0625449 0)
(0.498839 -0.0997939 0)
(0.406636 -0.138345 0)
(0.298608 -0.178138 0)
(0.172266 -0.224341 0)
(0.0242577 -0.282801 0)
(0.80224 -0.0116804 0)
(0.810713 -0.017976 0)
(0.79648 -0.0248982 0)
(0.779051 -0.0343412 0)
(0.731349 -0.0450834 0)
(0.67015 -0.0583527 0)
(0.573976 -0.0740232 0)
(0.457369 -0.094511 0)
(0.310224 -0.125408 0)
(0.18293 -0.179486 0)
(0.2171 -0.00636282 8.4015e-21)
(0.279895 0.0175579 -8.26927e-21)
(0.340974 0.048629 1.76252e-21)
(0.398893 0.0724926 0)
(0.452172 0.0900157 0)
(0.498827 0.0898704 3.50629e-21)
(0.531395 0.079272 -1.69972e-20)
(0.554068 0.0402795 1.67236e-20)
(0.580903 0.0209668 4.73164e-21)
(0.802935 -0.00965764 -4.77691e-21)
(0.230056 0.0200189 -8.92039e-21)
(0.29343 0.0492331 0)
(0.353352 0.0764107 1.37731e-20)
(0.407767 0.094723 -3.46609e-20)
(0.455804 0.105521 2.48162e-20)
(0.496339 0.0989104 -3.16402e-21)
(0.524623 0.0828156 7.46839e-21)
(0.544476 0.0414896 1.65783e-20)
(0.576956 0.0210946 4.55487e-21)
(0.802098 -0.00877691 4.40336e-21)
(0.241551 0.0472412 1.14658e-20)
(0.305818 0.0804858 -1.28767e-20)
(0.361487 0.10206 1.27545e-20)
(0.411078 0.114405 -2.08552e-20)
(0.453873 0.118444 1.51439e-20)
(0.48914 0.105558 0)
(0.513919 0.0846209 -7.48705e-21)
(0.533207 0.0416816 1.25939e-22)
(0.572317 0.0208286 -8.6091e-21)
(0.800875 -0.00790095 -8.7956e-21)
(0.252699 0.074338 -1.99826e-21)
(0.319569 0.109975 0)
(0.370221 0.12507 0)
(0.414662 0.131356 0)
(0.452179 0.128807 1.91687e-20)
(0.482474 0.11015 -1.30017e-20)
(0.503539 0.0850738 -2.82306e-22)
(0.522695 0.0411256 -8.83806e-21)
(0.568014 0.0202673 -4.43944e-21)
(0.800049 -0.00706708 -4.53046e-21)
(0.263573 0.100537 2.02189e-21)
(0.332069 0.1365 -7.81316e-21)
(0.377525 0.144836 -9.22624e-21)
(0.417345 0.145353 9.2215e-21)
(0.450091 0.13667 -6.08435e-21)
(0.476019 0.113007 0)
(0.493806 0.0846061 -7.92004e-21)
(0.512996 0.0401794 1.73414e-20)
(0.564094 0.0195404 -8.75167e-21)
(0.799508 -0.00629984 9.05683e-21)
(0.274137 0.125333 -2.2372e-20)
(0.341809 0.159442 1.10381e-21)
(0.381458 0.161064 -1.87053e-21)
(0.417232 0.156291 9.68596e-21)
(0.445887 0.14213 0)
(0.468289 0.11435 0)
(0.483767 0.0834808 0)
(0.503486 0.0390613 8.76107e-21)
(0.560224 0.0187249 0)
(0.798933 -0.00561064 0)
(0.284043 0.14821 0)
(0.348607 0.178596 1.21217e-20)
(0.381916 0.17386 -8.30691e-21)
(0.414026 0.164331 -1.2149e-20)
(0.439129 0.145441 1.22135e-20)
(0.45878 0.114426 7.85337e-21)
(0.472895 0.0818653 -7.68637e-21)
(0.493774 0.037864 -3.06769e-20)
(0.556134 0.0178553 2.20092e-21)
(0.798113 -0.00500043 -6.95758e-21)
(0.292708 0.168679 0)
(0.352512 0.193974 -3.82662e-21)
(0.379541 0.183551 -2.48476e-21)
(0.408376 0.169837 0)
(0.430379 0.146996 3.75857e-21)
(0.447898 0.11355 -1.11411e-20)
(0.461327 0.0799248 1.26178e-20)
(0.483837 0.0366396 4.55057e-21)
(0.551727 0.0169545 -4.59143e-21)
(0.796987 -0.00446392 9.30957e-21)
(0.29957 0.186431 3.19789e-21)
(0.353546 0.205773 4.63377e-21)
(0.374896 0.190549 -8.92657e-22)
(0.400941 0.173243 1.54706e-21)
(0.420331 0.147231 3.44577e-21)
(0.436233 0.112053 5.85714e-21)
(0.449434 0.0778321 -2.13768e-21)
(0.473799 0.0354426 -2.26397e-21)
(0.546991 0.0160497 4.60658e-21)
(0.795593 -0.00399202 2.35344e-21)