/*--------------------------------*- C++ -*----------------------------------*\
  =========                 |
  \\      /  F ield         | OpenFOAM: The Open Source CFD Toolbox
   \\    /   O peration     | Website:  https://openfoam.org
    \\  /    A nd           | Version:  7
     \\/     M anipulation  |
\*---------------------------------------------------------------------------*/
FoamFile
{
    version     2.0;
    format      ascii;
    class       volScalarField;
    location    "80";
    object      p;
}
// * * * * * * * * * * * * * * * * * * * * * * * * * * * * * * * * * * * * * //

dimensions      [0 2 -2 0 0 0 0];

internalField   nonuniform List<scalar> 
2000
(
0.0100553
0.010159
0.0103544
0.0105953
0.0108476
0.0110904
0.0113107
0.0115026
0.0116661
0.0117942
0.0100946
0.0102423
0.010457
0.0107186
0.0109916
0.011254
0.0114906
0.0116939
0.0118622
0.0119789
0.0101026
0.0103066
0.0105411
0.0108217
0.0111123
0.0113901
0.0116392
0.011851
0.0120239
0.0121295
0.0100847
0.0103538
0.0106088
0.0109059
0.0112092
0.0114965
0.0117517
0.0119665
0.0121407
0.0122343
0.0100475
0.0103895
0.010664
0.0109734
0.011283
0.0115716
0.0118246
0.0120342
0.0122032
0.012282
0.0100007
0.0104198
0.0107112
0.0110276
0.0113356
0.0116161
0.0118564
0.0120504
0.012205
0.0122637
0.009956
0.0104516
0.0107561
0.0110727
0.0113702
0.0116321
0.0118485
0.0120156
0.0121444
0.0121757
0.00992637
0.0104927
0.0108048
0.0111139
0.0113917
0.0116244
0.0118059
0.0119352
0.0120275
0.0120238
0.00992576
0.0105512
0.010864
0.0111574
0.011406
0.0116
0.0117375
0.0118217
0.011873
0.0118316
0.00996819
0.0106355
0.010941
0.0112099
0.0114206
0.0115675
0.011654
0.0116892
0.0117019
0.0116364
0.0120178
0.0130036
0.0142335
0.0160876
0.0180477
0.0203119
0.0219432
0.0241364
0.0243665
0.0257944
0.0120948
0.0129564
0.0139
0.0155257
0.0172945
0.0193977
0.0209067
0.0229511
0.023275
0.0245123
0.0121189
0.0129064
0.0135745
0.0149795
0.0165683
0.0185222
0.0199195
0.0218519
0.0222084
0.0233293
0.0120811
0.0128387
0.0132571
0.0144517
0.0158703
0.0176846
0.0189847
0.0208206
0.0211802
0.0222446
0.0119774
0.0127344
0.0129464
0.0139435
0.0152022
0.0168866
0.0181029
0.0198531
0.0202152
0.0212539
0.0118091
0.0125751
0.0126383
0.0134547
0.0145646
0.016126
0.0172654
0.0189337
0.019302
0.0203374
0.0115869
0.0123487
0.0123258
0.0129833
0.0139602
0.0154095
0.0164834
0.0180806
0.0184632
0.0195004
0.0113223
0.0120429
0.0119975
0.0125264
0.0133811
0.0147169
0.0157257
0.017246
0.0176473
0.0187176
0.0110107
0.0116407
0.0116255
0.0120858
0.0128613
0.014103
0.0150631
0.0165104
0.0169287
0.0180138
0.0107646
0.0112895
0.0112667
0.0116185
0.012286
0.0134174
0.0143302
0.0156907
0.0161666
0.0173288
0.0113321
0.0118486
0.0120391
0.012165
0.0124162
0.0130305
0.0136734
0.0146351
0.0150532
0.0159068
0.00901856
0.00950277
0.00988939
0.010282
0.0107329
0.0113397
0.0119261
0.0126657
0.0129924
0.0135307
0.00721262
0.00767318
0.00803386
0.00838568
0.00881003
0.00939755
0.00995809
0.0106155
0.0108817
0.011269
0.0054164
0.00591126
0.00635033
0.00672507
0.00711363
0.00762762
0.00811926
0.00869655
0.00891577
0.0092255
0.00373338
0.0042328
0.0047513
0.00520483
0.00561646
0.00607926
0.00649784
0.00698441
0.00716292
0.00742376
0.00227517
0.00275167
0.00330522
0.00381445
0.00426647
0.00471693
0.00509281
0.0055019
0.00564291
0.00584802
0.00111476
0.00154935
0.00209577
0.00260309
0.00305037
0.00347457
0.00381316
0.00416167
0.00427414
0.00443477
0.000282335
0.000647053
0.00114859
0.00161375
0.00201151
0.00237686
0.00266179
0.00294936
0.00302577
0.00313329
-0.000158743
9.56488e-05
0.000494972
0.000845781
0.00112384
0.00137696
0.00156605
0.00177669
0.0018128
0.00188229
-0.000694933
-0.000287723
4.40831e-05
0.000261312
0.000389851
0.000500861
0.000563237
0.000665517
0.000644907
0.000654488
0.0106865
0.00866985
0.00691855
0.00516487
0.00354632
0.00213797
0.0010257
0.000204642
-0.000156644
-0.000744102
0.0102834
0.00834646
0.00662342
0.00491774
0.00336256
0.00201224
0.000955986
0.000175492
-0.000153967
-0.000663645
0.00987944
0.00805544
0.00636296
0.00470753
0.00321236
0.00191384
0.000910734
0.000174531
-0.000135904
-0.000551046
0.00956187
0.00785046
0.00618374
0.00457296
0.00312518
0.00187635
0.000910338
0.000206918
-9.70401e-05
-0.000439906
0.00933821
0.00771396
0.00606773
0.00449706
0.00309043
0.00188194
0.000946104
0.000266512
-4.1143e-05
-0.000334853
0.0092139
0.00764407
0.00601376
0.00447371
0.00310174
0.00192524
0.00101214
0.000348151
2.77427e-05
-0.000237428
0.00919673
0.0076357
0.0060192
0.0045006
0.0031557
0.00200289
0.00110445
0.000447493
0.000106158
-0.000149358
0.00927443
0.00768654
0.00607981
0.00457319
0.00324763
0.00211029
0.00121859
0.000560263
0.00019097
-7.12845e-05
0.00943262
0.00779131
0.00618978
0.00468599
0.0033721
0.00224241
0.00134989
0.000682484
0.000279477
-2.74042e-06
0.00965526
0.00794289
0.00634184
0.00483289
0.00352331
0.00239418
0.00149391
0.000810706
0.000369515
5.73257e-05
0.00992255
0.00813038
0.0065263
0.00500632
0.00369473
0.00256036
0.00164644
0.000942001
0.000459429
0.000110088
0.0102201
0.00834507
0.0067357
0.00520079
0.00388141
0.00273702
0.00180434
0.0010743
0.000548155
0.000156647
0.0105388
0.00858261
0.00696536
0.00541323
0.00408019
0.00292164
0.00196557
0.00120637
0.000635165
0.000198084
0.0108701
0.00883904
0.00721037
0.00564058
0.00428822
0.00311204
0.00212858
0.0013374
0.000720246
0.000235313
0.0112069
0.00911195
0.00746666
0.00588035
0.00450329
0.00330656
0.00229234
0.00146698
0.00080341
0.000269087
0.0115434
0.0094
0.00773067
0.00613023
0.00472368
0.00350385
0.00245616
0.00159488
0.000884797
0.000300024
0.0118706
0.00969984
0.0079982
0.00638721
0.00494767
0.00370263
0.00261949
0.00172102
0.000964627
0.000328684
0.012183
0.0100155
0.00827233
0.00665343
0.00517735
0.00390424
0.00278341
0.00184618
0.00104351
0.000355652
0.012509
0.0103856
0.00857829
0.00694583
0.00542485
0.00411635
0.00295262
0.00197303
0.00112277
0.000381152
0.0127646
0.010751
0.00887654
0.00722987
0.00566883
0.00432253
0.0031175
0.00209562
0.00119977
0.000403434
0.0123305
0.010929
0.00920796
0.00762197
0.0060769
0.00469291
0.00343976
0.00234398
0.00136295
0.000456548
0.012287
0.0109076
0.00925582
0.00776271
0.00626744
0.00491844
0.00366224
0.00254058
0.00150244
0.000514432
0.0126086
0.0112024
0.00953138
0.00805287
0.00654616
0.00518368
0.00389224
0.00273021
0.0016368
0.000576579
0.0131914
0.0116435
0.00990108
0.00838796
0.00684286
0.00544836
0.00411238
0.00291085
0.00177165
0.000648522
0.0140356
0.0122595
0.0103974
0.00879543
0.00718148
0.00572964
0.00433871
0.00309633
0.0019167
0.000732254
0.015088
0.0130375
0.0110199
0.00927917
0.00757045
0.00603654
0.00458201
0.00329158
0.00206903
0.000817062
0.0162309
0.0139037
0.0117168
0.00981002
0.00799332
0.00636261
0.00484015
0.0034885
0.00220551
0.000873228
0.0173119
0.0147324
0.012384
0.0103171
0.00839984
0.00667763
0.00508981
0.00366234
0.0022968
0.000880325
0.018166
0.0153821
0.0129038
0.0107145
0.0087224
0.00693179
0.0052902
0.00378763
0.00233719
0.000851556
0.0186439
0.015736
0.0131842
0.0109299
0.00890005
0.00707465
0.00540346
0.00385312
0.00234648
0.000822097
0.0134702
0.0134533
0.013846
0.0145195
0.0154753
0.0166368
0.0179079
0.0191416
0.0201513
0.0207322
0.0136887
0.0138476
0.0143492
0.0151235
0.0161733
0.0174116
0.0187449
0.0200226
0.0210573
0.02165
0.013748
0.0141153
0.0147803
0.0157109
0.0169019
0.0182625
0.0196903
0.0210184
0.022059
0.022641
0.0138643
0.0143905
0.0151905
0.0162615
0.0175819
0.0190656
0.0206041
0.0220134
0.0230962
0.023696
0.014037
0.0147252
0.0156472
0.0168406
0.018272
0.0198636
0.0215065
0.0230071
0.0241565
0.024797
0.0142282
0.0150957
0.0161554
0.0174753
0.0190173
0.0207118
0.0224506
0.0240367
0.0252533
0.0259375
0.0144338
0.0154844
0.0166998
0.0181569
0.0198201
0.0216247
0.0234596
0.0251254
0.0264005
0.0271204
0.0146632
0.0158921
0.0172742
0.0188746
0.0206688
0.0225928
0.0245302
0.0262759
0.0276037
0.0283511
0.0149219
0.0163221
0.0178798
0.0196242
0.0215558
0.0236059
0.0256524
0.0274821
0.0288622
0.0296323
0.0152119
0.0167727
0.0185163
0.0204035
0.022478
0.0246587
0.02682
0.0287388
0.0301739
0.0309651
0.0155353
0.0172379
0.0191809
0.0212078
0.0234326
0.025748
0.0280301
0.0300436
0.0315375
0.0323497
0.0158899
0.0177106
0.0198676
0.0220297
0.024414
0.0268692
0.0292799
0.0313949
0.0329529
0.0337868
0.0162636
0.018186
0.0205645
0.022862
0.0254152
0.0280184
0.030567
0.0327914
0.0344215
0.035279
0.0166355
0.0186641
0.0212553
0.0237
0.0264265
0.02919
0.0318874
0.034231
0.0359467
0.0368329
0.016968
0.0191467
0.0219169
0.0245472
0.0274439
0.0303806
0.0332383
0.0357127
0.0375216
0.0384426
0.0172503
0.0196243
0.0225526
0.0253717
0.0284497
0.0315747
0.0346085
0.0372287
0.0391413
0.0401055
0.0174763
0.0200729
0.0231489
0.0261602
0.0294344
0.0327657
0.0359943
0.0387772
0.0408065
0.0418246
0.0176174
0.0204791
0.0236883
0.0268995
0.0303791
0.0339324
0.037376
0.0403444
0.0425105
0.0435985
0.0176504
0.0208428
0.0241759
0.0276033
0.0313041
0.0350985
0.0387738
0.041943
0.0442603
0.0454348
0.0174802
0.0210703
0.0245141
0.0281449
0.032064
0.0361188
0.0400693
0.0434977
0.0460197
0.0473184
0.0181927
0.0227589
0.0265796
0.0306449
0.0349643
0.0394329
0.0437978
0.0476331
0.0504991
0.0520315
0.0227206
0.0271144
0.0311639
0.0358774
0.0408908
0.0460869
0.0511251
0.0555134
0.0587641
0.060477
0.0276773
0.0322838
0.0368012
0.0422332
0.0479625
0.0539128
0.0595898
0.0644522
0.068005
0.0698812
0.0328907
0.037978
0.0432362
0.049498
0.0560144
0.0627563
0.0690247
0.0742802
0.0780306
0.0799352
0.0384042
0.0441111
0.0502274
0.0573706
0.0647205
0.0722579
0.0790552
0.0846276
0.0884914
0.0904846
0.0443265
0.0506811
0.0577281
0.0657659
0.0739684
0.0822826
0.0895555
0.0953588
0.0991175
0.10074
0.0501546
0.0572775
0.0651895
0.0740251
0.0830312
0.0920224
0.0997301
0.105704
0.109197
0.110735
0.0559678
0.0635775
0.0723099
0.0819485
0.091786
0.10144
0.1097
0.11599
0.118984
0.118385
0.0593869
0.0678755
0.0773255
0.0876133
0.098104
0.10824
0.116891
0.12325
0.125154
0.126838
0.0631596
0.0718241
0.0817799
0.09262
0.10385
0.114754
0.124819
0.133335
0.136857
0.120623
0.0167525
0.0210944
0.0255303
0.030373
0.0353368
0.0410146
0.0461445
0.0520177
0.0547421
0.0584686
0.0162917
0.0208151
0.0251939
0.0299322
0.0347073
0.0402133
0.0450324
0.0507413
0.0530816
0.0567551
0.0160939
0.0208458
0.0252205
0.0299258
0.034587
0.0398956
0.0444427
0.0497955
0.0518414
0.0552668
0.0158255
0.0206775
0.0250176
0.0296792
0.0342587
0.0393956
0.0437416
0.0487801
0.0507342
0.0538117
0.0155209
0.0203797
0.0246695
0.0292354
0.0337598
0.0387092
0.0429
0.0476686
0.0496454
0.052392
0.015212
0.0200482
0.0243053
0.0287817
0.033225
0.0379921
0.0420794
0.0465596
0.0486071
0.0510663
0.0148963
0.0196995
0.0239473
0.0283641
0.0327275
0.037334
0.0413413
0.0455443
0.0476648
0.049873
0.0145753
0.0193357
0.0235889
0.0279688
0.0322717
0.0367548
0.0406834
0.04467
0.0468311
0.0488205
0.014258
0.0189679
0.0232349
0.0275924
0.0318532
0.0362489
0.040104
0.0439325
0.0461017
0.0479281
0.0139553
0.0186081
0.0228971
0.0272457
0.0314787
0.0358153
0.0396105
0.0433193
0.0454811
0.0471997
0.0136772
0.0182658
0.0225861
0.0269406
0.0311602
0.0354593
0.0392132
0.0428273
0.0449803
0.0466286
0.0134216
0.0179403
0.0223048
0.0266805
0.0309042
0.0351862
0.0389195
0.0424596
0.0446073
0.0462069
0.0131768
0.0176273
0.0220514
0.0264643
0.0307122
0.0349989
0.0387331
0.0422199
0.0443663
0.0459313
0.0129335
0.0173292
0.0218261
0.0262921
0.0305846
0.0348994
0.0386552
0.0421096
0.0442555
0.0458004
0.0126799
0.0170494
0.0216276
0.0261633
0.0305213
0.0348881
0.0386863
0.0421298
0.0442741
0.0458186
0.0123989
0.0167872
0.0214505
0.0260739
0.0305189
0.0349614
0.0388233
0.0422772
0.0444109
0.045988
0.0120691
0.0165374
0.0212859
0.0260182
0.0305746
0.0351175
0.0390686
0.0425557
0.0446705
0.0463219
0.0116711
0.0162892
0.021119
0.0259821
0.0306724
0.0353378
0.0394046
0.0429489
0.0450175
0.0468233
0.011163
0.01603
0.0209556
0.0259773
0.0308303
0.0356467
0.0398586
0.0434859
0.0454973
0.0475165
0.0104987
0.0156331
0.020674
0.0258741
0.0309085
0.0359008
0.0403033
0.0440683
0.0459873
0.0483818
0.0116058
0.0167955
0.0217342
0.0270797
0.0324158
0.0376607
0.0423323
0.0463084
0.0481705
0.0509487
0.0147713
0.0201235
0.0252857
0.0311004
0.0369665
0.0427878
0.0480436
0.052438
0.0547693
0.057228
0.0190022
0.0246908
0.0303111
0.036797
0.0433675
0.0499892
0.0560083
0.0609791
0.0640263
0.0661102
0.0238018
0.0299913
0.0363035
0.0437042
0.0512771
0.0590532
0.0661852
0.0721633
0.0763045
0.0788373
0.028822
0.0356376
0.0428526
0.0513775
0.0602262
0.0695215
0.0782431
0.0859678
0.0919929
0.0963454
0.0340313
0.0415121
0.0498429
0.0596353
0.0700181
0.081202
0.0921589
0.102864
0.112858
0.121723
0.0384323
0.0468638
0.0563579
0.0674424
0.0795918
0.0930313
0.10712
0.122663
0.139836
0.158762
0.0430359
0.0521551
0.0627745
0.0752143
0.0893047
0.10543
0.123764
0.146947
0.177731
0.217779
0.0445665
0.0540577
0.0652696
0.0786023
0.0945454
0.114062
0.13905
0.174088
0.227429
0.306049
0.0473028
0.0582011
0.0709053
0.0863879
0.10588
0.13111
0.165652
0.217348
0.303188
0.432729
0.0111593
0.0140558
0.0175258
0.0215472
0.0255849
0.030324
0.0338507
0.0382995
0.0396018
0.0414595
0.0109443
0.0138401
0.0171889
0.0210147
0.0247567
0.0292442
0.0324214
0.03671
0.0378107
0.0398489
0.0109404
0.0137788
0.0170396
0.0207373
0.0243136
0.0285307
0.0314393
0.0354183
0.0362526
0.0387753
0.0110132
0.0136718
0.016752
0.0202747
0.0236686
0.0276347
0.0303289
0.0340251
0.034627
0.037335
0.0111261
0.0135424
0.0163772
0.0197004
0.0228572
0.0265602
0.0290396
0.0325094
0.0329095
0.0354941
0.0112681
0.0134206
0.0160012
0.0190963
0.022026
0.0254505
0.0277061
0.0309803
0.0311972
0.0335344
0.0114276
0.0133103
0.0156377
0.018469
0.0212326
0.0243719
0.0264243
0.0295143
0.029576
0.0316891
0.0115933
0.0132118
0.0152793
0.0178533
0.0204312
0.023319
0.0252244
0.0281169
0.0280807
0.0300363
0.0117545
0.0131274
0.0149243
0.0172523
0.019624
0.0222739
0.0241036
0.0267543
0.0267192
0.0285453
0.0118999
0.0130584
0.014575
0.0166635
0.0188258
0.0212689
0.0230142
0.0254132
0.0254916
0.027148
0.0100686
0.0107549
0.0110442
0.0112797
0.0114441
0.0115363
0.0115648
0.0115427
0.0115017
0.0114109
0.0102476
0.0109212
0.0111833
0.0113761
0.0114868
0.0115182
0.011483
0.0113967
0.0112903
0.0111364
0.010513
0.0111412
0.0113658
0.0115083
0.0115597
0.0115268
0.0114256
0.0112742
0.0111051
0.0108924
0.0108726
0.0114219
0.0115998
0.0116852
0.0116735
0.0115748
0.011408
0.0111932
0.0109638
0.0106952
0.0113317
0.0117692
0.0118918
0.0119145
0.011837
0.0116726
0.0114421
0.011167
0.0108798
0.0105577
0.0118909
0.012186
0.0122454
0.0122008
0.012056
0.0118269
0.0115355
0.011204
0.0108624
0.0104931
0.012545
0.0126713
0.0126608
0.0125448
0.0123321
0.0120396
0.0116909
0.0113075
0.0109157
0.0104953
0.0132834
0.0132191
0.0131337
0.0129428
0.0126614
0.0123083
0.0119057
0.011475
0.0110373
0.0105715
0.0140894
0.0138195
0.0136531
0.0133859
0.0130365
0.012625
0.0121725
0.0116988
0.0112199
0.010719
0.0149308
0.0144536
0.0142047
0.0138606
0.0134447
0.0129781
0.0124799
0.0119677
0.0114534
0.0109257
0.015764
0.0150936
0.0147674
0.0143495
0.0138707
0.0133529
0.0128137
0.012268
0.0117245
0.0111775
0.0165984
0.0157316
0.0153262
0.0148356
0.0142973
0.0137333
0.0131584
0.0125847
0.0120188
0.0114598
0.0173934
0.016338
0.0158568
0.0152986
0.0147069
0.0141029
0.0134987
0.0129033
0.0123221
0.0117591
0.0181117
0.0168849
0.0163358
0.0157184
0.0150818
0.014446
0.0138201
0.0132101
0.0126213
0.0120624
0.0187218
0.0173469
0.0167414
0.0160764
0.0154058
0.0147482
0.0141094
0.0134928
0.0129044
0.0123584
0.0191956
0.0177008
0.017054
0.0163561
0.0156648
0.014997
0.0143556
0.013741
0.0131612
0.0126374
0.0195095
0.017927
0.0172572
0.0165443
0.0158478
0.0151831
0.0145504
0.0139472
0.0133838
0.0128901
0.0196453
0.0180105
0.017339
0.0166312
0.0159471
0.0153004
0.0146889
0.0141071
0.0135652
0.0131047
0.0195914
0.0179416
0.0172916
0.0166116
0.0159591
0.0153462
0.0147689
0.0142164
0.0136934
0.0132619
0.0193437
0.0177165
0.0171124
0.0164841
0.0158842
0.0153228
0.0147938
0.0142785
0.0137724
0.0133682
0.018903
0.0173362
0.0168025
0.0162505
0.015726
0.0152393
0.0147879
0.0143625
0.0139791
0.0137465
0.0182694
0.0168043
0.0163655
0.015913
0.0154836
0.0150868
0.0147227
0.0143878
0.014099
0.0139257
0.017462
0.0161347
0.0158111
0.0154773
0.0151586
0.0148626
0.0145906
0.0143433
0.0141321
0.013991
0.0165041
0.0153451
0.0151524
0.014953
0.0147584
0.0145737
0.0144021
0.0142476
0.014119
0.0140317
0.0154225
0.0144564
0.0144058
0.014353
0.0142939
0.0142305
0.0141682
0.0141139
0.014075
0.0140591
0.014248
0.0134929
0.0135906
0.0136929
0.0137779
0.0138444
0.0138993
0.0139519
0.014009
0.0140749
0.0130135
0.0124807
0.0127281
0.0129895
0.0132249
0.0134277
0.0136062
0.0137715
0.013931
0.0140873
0.0117524
0.0114462
0.0118399
0.0122604
0.0126489
0.0129925
0.0132993
0.0135822
0.0138494
0.0141045
0.0104971
0.0104143
0.0109469
0.0115225
0.0120635
0.0125496
0.0129878
0.0133916
0.0137708
0.0141314
0.00928983
0.00941256
0.0100704
0.0107919
0.0114813
0.0121088
0.0126792
0.0132058
0.0136995
0.0141708
0.00818979
0.00848004
0.00923692
0.0100876
0.0109154
0.0116795
0.0123801
0.0130291
0.0136378
0.0142228
0.00714092
0.0076013
0.00844596
0.00941438
0.0103713
0.0112658
0.0120932
0.0128628
0.0135847
0.0142838
0.00617792
0.00679631
0.00771317
0.00878229
0.00985614
0.0108719
0.0118202
0.0127063
0.0135373
0.0143455
0.00532316
0.00607965
0.00705103
0.00820091
0.00937454
0.0105003
0.0115609
0.0125575
0.0134916
0.0143968
0.00458522
0.00545863
0.00646554
0.00767499
0.00893052
0.010152
0.0113144
0.0124128
0.0134414
0.0144366
0.00396748
0.0049363
0.0059603
0.00720795
0.00852593
0.00982739
0.0110796
0.0122701
0.013383
0.0144578
0.00347001
0.00451274
0.00553693
0.00680168
0.00816167
0.00952609
0.0108549
0.0121278
0.0133146
0.0144506
0.00308961
0.00418548
0.00519488
0.00645655
0.00783781
0.00924735
0.0106392
0.0119856
0.0132383
0.014415
0.00282043
0.00394993
0.00493173
0.00617163
0.00755365
0.00898999
0.0104311
0.0118453
0.0131673
0.0143717
0.00265505
0.00380013
0.00474363
0.00594483
0.00730748
0.0087514
0.0102255
0.0116987
0.0131082
0.0143627
0.00258301
0.00372792
0.00462459
0.00577223
0.00709628
0.00852879
0.010022
0.0115588
0.0131637
0.0147516
0.00258286
0.00372003
0.0045666
0.00564966
0.00691622
0.0083115
0.00978842
0.0113182
0.0129218
0.0145013
0.00265469
0.00377335
0.00456611
0.0055751
0.00676684
0.0080994
0.00952758
0.0110117
0.0125564
0.0140775
0.00279116
0.00388083
0.00461773
0.00554668
0.0066515
0.00790397
0.00926531
0.0106952
0.0121896
0.0136632
0.00298181
0.00403403
0.00471528
0.00556221
0.00657349
0.00773521
0.00901799
0.0103853
0.0118282
0.0132592
0.00321669
0.004225
0.00485259
0.00561865
0.00653399
0.00759851
0.00879343
0.0100877
0.0114696
0.0128565
0.00348677
0.00444646
0.00502346
0.00571217
0.00653249
0.00749678
0.00859736
0.00980992
0.0111216
0.012459
0.00378371
0.00469148
0.00522164
0.0058382
0.00656712
0.00743137
0.0084341
0.00955868
0.0107925
0.0120742
0.00410017
0.0049537
0.00544092
0.00599155
0.00663474
0.00740178
0.00830588
0.00933848
0.0104882
0.0117081
0.00443183
0.00522973
0.00567735
0.00616821
0.00673219
0.00740655
0.00821329
0.00915184
0.0102128
0.0113657
0.00477744
0.00552053
0.00593172
0.00636848
0.00685975
0.00744658
0.00815824
0.00900182
0.00997007
0.0110505
0.00511974
0.00580965
0.00618851
0.00657826
0.00700538
0.00751251
0.00813439
0.00888495
0.00975855
0.0107605
0.00545919
0.00609798
0.00644758
0.00679619
0.00716682
0.00760182
0.0081396
0.00879982
0.00957743
0.0104933
0.00579501
0.00638459
0.00670733
0.00701972
0.00734079
0.00771106
0.00817081
0.0087441
0.00942515
0.010247
0.00612568
0.00666763
0.00696539
0.00724576
0.00752358
0.00783637
0.0082246
0.00871519
0.00929989
0.0100194
0.00645037
0.00694588
0.00722009
0.00747199
0.00771222
0.00797449
0.00829801
0.00871093
0.00920036
0.00980815
0.00676894
0.00721882
0.00747064
0.00769701
0.00790464
0.008123
0.00838892
0.00873042
0.00912739
0.00961339
0.00708166
0.00748638
0.00771686
0.00792036
0.00809988
0.00828054
0.00849619
0.00877409
0.00908482
0.00943867
0.00738889
0.00774875
0.00795922
0.0081427
0.00829874
0.00844809
0.00862093
0.00884316
0.00907536
0.0092826
0.00769063
0.00800612
0.00819851
0.00836564
0.0085044
0.00863228
0.00877618
0.00896194
0.00915369
0.00924714
0.00798685
0.00825856
0.00843523
0.00859036
0.00871948
0.00884008
0.00898293
0.00919708
0.00956251
0.0101182
0.00827881
0.00850603
0.00866916
0.00881645
0.00894141
0.0090595
0.00919941
0.00940596
0.00975494
0.0102527
0.00856254
0.00874697
0.00889944
0.00904286
0.00916784
0.00928578
0.00942022
0.00960651
0.00989877
0.0102926
0.0088344
0.00897943
0.00912452
0.00926814
0.00939763
0.00951971
0.00965275
0.00982533
0.010077
0.0103995
0.00909086
0.00920075
0.00934239
0.0094902
0.00962857
0.00975936
0.00989551
0.0100593
0.0102796
0.0105499
0.00932718
0.00940845
0.00955068
0.00970639
0.00985752
0.0100009
0.0101441
0.010303
0.0104982
0.0107283
0.00953867
0.00960071
0.00974598
0.00991363
0.0100809
0.0102404
0.0103941
0.0105525
0.0107298
0.0109289
0.00972132
0.00977407
0.00992627
0.0101088
0.0102951
0.0104734
0.010641
0.0108033
0.0109694
0.0111445
0.0098715
0.00992646
0.0100891
0.010289
0.0104963
0.0106955
0.0108796
0.0110495
0.0112103
0.0113667
0.00998476
0.0100557
0.0102324
0.0104518
0.0106813
0.0109023
0.0111044
0.0112846
0.0114451
0.0115863
)
;

boundaryField
{
    inlet
    {
        type            zeroGradient;
    }
    outlet
    {
        type            fixedValue;
        value           uniform 0;
    }
    cylinder
    {
        type            zeroGradient;
    }
    top
    {
        type            symmetryPlane;
    }
    bottom
    {
        type            symmetryPlane;
    }
    defaultFaces
    {
        type            empty;
    }
}


// ************************************************************************* //
