/*--------------------------------*- C++ -*----------------------------------*\
  =========                 |
  \\      /  F ield         | OpenFOAM: The Open Source CFD Toolbox
   \\    /   O peration     | Website:  https://openfoam.org
    \\  /    A nd           | Version:  7
     \\/     M anipulation  |
\*---------------------------------------------------------------------------*/
FoamFile
{
    version     2.0;
    format      ascii;
    class       surfaceScalarField;
    location    "80";
    object      phi;
}
// * * * * * * * * * * * * * * * * * * * * * * * * * * * * * * * * * * * * * //

dimensions      [0 3 -1 0 0 0 0];

internalField   nonuniform List<scalar> 
3880
(
-2.12231e-05
-0.000551221
0.000572444
-1.78577e-05
-0.00130673
0.00130337
2.46608e-05
-0.00173321
0.00169069
0.000114514
-0.00187793
0.00178807
0.000259405
-0.0017719
0.00162701
0.000467965
-0.00143612
0.00122756
0.000748715
-0.000885973
0.000605223
0.00110762
-0.000135215
-0.000223691
0.00154506
0.00080057
-0.00123801
0.00190218
0.00205242
-0.00240954
-1.04536e-05
-0.000540768
1.49949e-05
-0.00133218
8.50006e-05
-0.00180322
0.000203845
-0.00199677
0.000376758
-0.00194482
0.00061134
-0.0016707
0.0009165
-0.00119113
0.00129992
-0.000518639
0.00176468
0.00033581
0.00136167
0.0023052
5.49511e-06
-0.000546263
6.16614e-05
-0.00138835
0.000170463
-0.00191202
0.000330945
-0.00215725
0.000544787
-0.00215866
0.000817412
-0.00194333
0.00115705
-0.00153077
0.00157236
-0.000933943
0.00206898
-0.000160819
0.000785536
0.00264512
2.55897e-05
-0.000571853
0.000121019
-0.00148377
0.000279112
-0.00207011
0.000493218
-0.00237136
0.000760818
-0.00242626
0.00108435
-0.00226686
0.00147046
-0.00191688
0.00192787
-0.00139135
0.00246426
-0.000697213
0.000167997
0.0030818
4.97132e-05
-0.000621566
0.000190877
-0.00162494
0.000406592
-0.00228583
0.000684003
-0.00264877
0.00101613
-0.00275839
0.00140211
-0.00265284
0.00184644
-0.00236121
0.00235719
-0.0019021
0.00294324
-0.00128326
-0.000499135
0.00361037
7.66762e-05
-0.000698242
0.000267766
-0.00181603
0.000545996
-0.00256406
0.000892214
-0.00299499
0.00129512
-0.0031613
0.00175066
-0.00310839
0.00226117
-0.00287172
0.00283378
-0.00247471
0.00347787
-0.00192735
-0.00122291
0.00420165
0.000105058
-0.0008033
0.000347117
-0.00205809
0.000688117
-0.00290506
0.00110272
-0.00340959
0.00157571
-0.00363428
0.0021003
-0.00363298
0.00267703
-0.00344845
0.00331234
-0.00311002
0.00401605
-0.00263105
-0.00200409
0.00479722
0.000133192
-0.000936493
0.000423546
-0.00234844
0.000822077
-0.00330359
0.00129755
-0.00388506
0.0018313
-0.00416804
0.00241442
-0.0042161
0.00304614
-0.00408017
0.00373276
-0.00379664
0.00448553
-0.00338382
-0.00283248
0.00531392
0.000159256
-0.00109575
0.000491229
-0.00268041
0.000936232
-0.00374859
0.00145761
-0.00440645
0.00203393
-0.00474435
0.00265464
-0.00483681
0.0033179
-0.00474343
0.00402984
-0.00450857
0.00480449
-0.00415848
-0.00368622
0.00565823
0.000181371
-0.00127712
0.00054431
-0.00304335
0.00101919
-0.00422347
0.00156481
-0.00495207
0.00215788
-0.00533742
0.00278704
-0.00546597
0.00344949
-0.00540588
0.00414988
-0.00520896
0.00490308
-0.00491168
0.0057537
-0.00453684
0.00355279
0.0170584
-0.0185588
0.00495422
0.0385795
-0.0399809
0.00543937
0.0600369
-0.0605221
0.00524145
0.0795903
-0.0793924
0.00464736
0.0990452
-0.0984511
0.0037918
0.119791
-0.118936
0.00275687
0.143095
-0.14206
0.00155745
0.173216
-0.172016
0.000515717
0.217627
-0.216585
0.270901
-0.270385
0.00389119
0.0154724
0.00561068
0.03686
0.00639747
0.0592501
0.00638854
0.0795992
0.00588129
0.0995524
0.00502353
0.120649
0.00390345
0.144215
0.00253887
0.17458
0.00112934
0.219036
0.272031
0.00423372
0.0138838
0.00622628
0.0348674
0.00732835
0.058148
0.00752643
0.0794012
0.00711594
0.0999629
0.00625929
0.121506
0.00505383
0.145421
0.00351853
0.176116
0.00174744
0.220807
0.273778
0.00458792
0.0123777
0.00678115
0.0326742
0.00820503
0.0567242
0.00862959
0.0789766
0.00832987
0.100263
0.00748157
0.122354
0.00619469
0.146708
0.00448999
0.17782
0.00235867
0.222939
0.276137
0.00496311
0.0110249
0.00726244
0.0303749
0.00900225
0.0549844
0.00967312
0.0783057
0.0095017
0.100434
0.00867336
0.123182
0.0073125
0.148069
0.00544252
0.17969
0.00295816
0.225423
0.279095
0.00536162
0.00986497
0.00766544
0.0280711
0.00969812
0.0529517
0.0106334
0.0773705
0.0106105
0.100457
0.00981636
0.123977
0.00839231
0.149493
0.00636477
0.181718
0.00353875
0.228249
0.282634
0.00576895
0.00889323
0.00799018
0.0258498
0.0102757
0.0506662
0.0114892
0.076157
0.0116392
0.100307
0.0108981
0.124718
0.00942541
0.150965
0.0072508
0.183892
0.00409945
0.2314
0.286733
0.00614134
0.00806581
0.00823246
0.0237587
0.0107224
0.0481762
0.0122205
0.0746589
0.012563
0.0999645
0.0118924
0.125388
0.010388
0.15247
0.00808348
0.186197
0.00462813
0.234856
0.291361
0.00639769
0.00732636
0.00836992
0.0217865
0.0110237
0.0455224
0.0128238
0.0728588
0.0133966
0.0993917
0.0128214
0.125963
0.0113017
0.15399
0.0088751
0.188623
0.0051331
0.238598
0.296494
0.0064913
0.00658876
0.00844274
0.019835
0.0111845
0.0427807
0.0132346
0.0708087
0.0140459
0.0985804
0.0135967
0.126413
0.0121173
0.155469
0.00957803
0.191163
0.00562378
0.242552
0.302118
0.0195206
0.0116734
-0.0246053
0.0151341
0.0242216
0.0132505
0.0446642
0.0120787
0.0719805
0.0105019
0.100157
0.00845011
0.128464
0.005888
0.158031
0.00286023
0.19419
0.00033781
0.245074
0.302456
0.0203693
0.0153628
-0.0240587
0.0157796
0.0288113
0.0130029
0.0474409
0.0115476
0.0734359
0.00999485
0.10171
0.00798667
0.130473
0.0054742
0.160544
0.00259673
0.197068
0.00026031
0.247411
0.302716
0.0199933
0.0174934
-0.0221239
0.0161672
0.0326374
0.0129913
0.0506169
0.0110728
0.0753544
0.00937824
0.103404
0.00742259
0.132428
0.00504523
0.162921
0.00233029
0.199783
0.00018505
0.249556
0.302901
0.0187031
0.0185354
-0.0197451
0.0158145
0.035526
0.01283
0.0536014
0.0107363
0.077448
0.00894589
0.105195
0.00701347
0.134361
0.00472731
0.165207
0.00218546
0.202325
0.000182937
0.251559
0.303084
0.0170186
0.0187755
-0.0172588
0.014949
0.0375957
0.0123675
0.0561829
0.010296
0.0795195
0.0084925
0.106998
0.00659749
0.136256
0.00440338
0.167401
0.00199374
0.204734
0.00013068
0.253422
0.303215
0.0151071
0.0183013
-0.0146328
0.0137762
0.0389266
0.0116351
0.058324
0.00978878
0.0813658
0.0081294
0.108658
0.0063249
0.13806
0.00421413
0.169512
0.00192833
0.20702
0.000160605
0.255189
0.303375
0.0131497
0.0171359
-0.0119843
0.0125822
0.0394941
0.0108839
0.0600223
0.00917784
0.0830718
0.00763582
0.1102
0.00596299
0.139733
0.0039768
0.171498
0.00179248
0.209204
0.0001258
0.256856
0.303501
0.0111001
0.0153647
-0.00932897
0.0111926
0.0394017
0.0100648
0.06115
0.00870995
0.0844267
0.00733326
0.111576
0.00576292
0.141303
0.00385933
0.173402
0.00179145
0.211272
0.000191642
0.258456
0.303693
0.00961023
0.012798
-0.00704349
0.0103915
0.0386204
0.00954949
0.061992
0.00826338
0.0857128
0.00697086
0.112869
0.00551101
0.142763
0.00369769
0.175215
0.00170458
0.213265
0.000171341
0.259989
0.303864
0.00714017
-0.00401437
0.00908971
0.00918425
0.00822421
0.00698575
0.00550008
0.00374162
0.00176126
0.00028728
0.00580116
-0.0248909
-0.0055156
0.00543198
-0.0236895
0.00473595
-0.0214279
0.00394076
-0.0189499
0.00310405
-0.0164221
0.00224163
-0.0137704
0.00135825
-0.0111009
0.000488632
-0.00845936
-0.000525466
-0.00602939
-0.00321133
0.00488937
-0.0247888
-0.00499145
0.00424608
-0.0230462
0.00339936
-0.0205811
0.00250427
-0.0180549
0.00159124
-0.015509
0.000669743
-0.0128489
-0.00025837
-0.0101728
-0.00116161
-0.00755612
-0.00213416
-0.00505684
-0.00245609
0.00379513
-0.0243625
-0.00422142
0.00292417
-0.0221753
0.00195961
-0.0196166
0.000983079
-0.0170783
9.06549e-06
-0.014535
-0.000943125
-0.0118967
-0.00188201
-0.00923395
-0.00278423
-0.00665389
-0.00368073
-0.00416034
-0.00179669
0.00251512
-0.0236728
-0.00320483
0.00147792
-0.0211381
0.000431544
-0.0185702
-0.000596288
-0.0160505
-0.00159517
-0.0135361
-0.00256013
-0.0109318
-0.00348039
-0.00831369
-0.00434043
-0.00579386
-0.00513213
-0.00336864
-0.00125461
0.00106769
-0.0227669
-0.00197358
-7.72048e-05
-0.0199932
-0.00116298
-0.0174844
-0.00221167
-0.0150018
-0.00320835
-0.0125394
-0.00414844
-0.00999168
-0.00501907
-0.00744305
-0.00580374
-0.00500919
-0.00647098
-0.00270139
-0.000836097
-0.000489308
-0.021701
-0.000576587
-0.00169568
-0.0187868
-0.0027907
-0.0163894
-0.00382587
-0.0139666
-0.00478916
-0.0115762
-0.0056752
-0.00910564
-0.00646955
-0.00664871
-0.00715447
-0.00432427
-0.00768906
-0.00216681
-0.000537215
-0.00211568
-0.0205019
0.000916602
-0.00333152
-0.017571
-0.00440321
-0.0153177
-0.00539689
-0.012973
-0.006301
-0.010672
-0.00710966
-0.00829699
-0.00780881
-0.00594956
-0.00838038
-0.0037527
-0.00878457
-0.00176262
-0.000346861
-0.00373677
-0.0192169
0.00245179
-0.00492933
-0.0163784
-0.00595445
-0.0142926
-0.00688462
-0.0120428
-0.00771088
-0.0098458
-0.00842677
-0.00758109
-0.00902091
-0.00535542
-0.00947622
-0.00329738
-0.00976069
-0.00147815
-0.000249426
-0.0052967
-0.017891
0.00397074
-0.00644058
-0.0152345
-0.00740309
-0.0133301
-0.00825481
-0.0111911
-0.00899261
-0.009108
-0.00960899
-0.00696471
-0.0100974
-0.00486704
-0.0104428
-0.00295198
-0.0106241
-0.00129686
-0.000227
-0.00674604
-0.0165628
0.00541784
-0.00782487
-0.0141557
-0.00871594
-0.012439
-0.00948153
-0.0104255
-0.0101283
-0.00846122
-0.0106466
-0.00644642
-0.0110364
-0.00447723
-0.0112853
-0.00270312
-0.0113834
-0.00119875
-0.000260924
-0.00804652
-0.0152636
0.00674737
-0.00905171
-0.0131505
-0.00986955
-0.0116212
-0.0105481
-0.00974696
-0.0111085
-0.00790076
-0.0115371
-0.00601779
-0.0118417
-0.00417269
-0.012012
-0.00253281
-0.0120483
-0.0011624
-0.000332746
-0.00917767
-0.0140165
0.00793051
-0.0101041
-0.0122241
-0.010852
-0.0108732
-0.011448
-0.009151
-0.011932
-0.00741672
-0.0122844
-0.00566542
-0.0125208
-0.00393629
-0.0126329
-0.00242073
-0.0126287
-0.00116654
-0.0004247
-0.0101261
-0.0128368
0.00894647
-0.0109727
-0.0113775
-0.0116586
-0.0101874
-0.0121814
-0.00862819
-0.0126028
-0.00699533
-0.0128959
-0.00537226
-0.0130835
-0.00374873
-0.0131585
-0.00234573
-0.0131343
-0.00119074
-0.000519886
-0.0108896
-0.0117323
0.0097851
-0.0116582
-0.0106088
-0.0122924
-0.00955318
-0.012755
-0.0081656
-0.0131295
-0.00662088
-0.0133823
-0.00511938
-0.0135409
-0.00359013
-0.0135996
-0.00228704
-0.0135744
-0.00121594
-0.000602309
-0.0114739
-0.0107016
0.0104432
-0.0121681
-0.00991468
-0.0127622
-0.0089591
-0.01318
-0.00774778
-0.0135236
-0.00627723
-0.0137557
-0.00488728
-0.0139047
-0.00344113
-0.0139668
-0.00222495
-0.0139583
-0.0012245
-0.000656788
-0.0118904
-0.00973254
0.0109214
-0.0125158
-0.00928932
-0.01308
-0.00839492
-0.0134701
-0.00735764
-0.0137984
-0.00594894
-0.0140288
-0.00465684
-0.0141865
-0.00328344
-0.0142704
-0.00214107
-0.0142948
-0.00120013
-0.000668856
-0.0121523
-0.00880174
0.0112215
-0.0127185
-0.00872311
-0.0132598
-0.00785366
-0.0136402
-0.00697722
-0.0139673
-0.00562184
-0.0142141
-0.00441
-0.0143974
-0.00310014
-0.0145201
-0.00201842
-0.0145926
-0.00112766
-0.000624629
-0.012265
-0.00788192
0.0113451
-0.0127902
-0.00819786
-0.0133132
-0.0073307
-0.013703
-0.00658738
-0.0140427
-0.00528212
-0.0143231
-0.00412969
-0.0145479
-0.00287531
-0.0147252
-0.00184112
-0.0148601
-0.0009927
-0.000510658
-0.0122252
-0.00695754
0.0113009
-0.0127444
-0.00767874
-0.0132529
-0.00682212
-0.0136711
-0.00616924
-0.014037
-0.00491619
-0.0143666
-0.00380012
-0.0146478
-0.0025941
-0.0148945
-0.00159437
-0.0151058
-0.000781472
-0.000313716
-0.0120831
-0.00600718
0.0111327
-0.0126322
-0.00712958
-0.0131107
-0.00634363
-0.0135601
-0.00571983
-0.0139622
-0.00451418
-0.0143523
-0.00340997
-0.0147048
-0.00224163
-0.0150356
-0.00126353
-0.0153386
-0.00047847
-2.15755e-05
-0.0535124
-0.0057494
0.0532546
-0.0548993
-0.00574269
-0.0563411
-0.00490178
-0.0577763
-0.00428467
-0.0589584
-0.00333202
-0.0598837
-0.00248476
-0.0605056
-0.00161969
-0.0608574
-0.000911702
-0.0609865
-0.000349395
-2.65293e-05
-0.0629926
-0.00561628
0.0628595
-0.0638525
-0.00488284
-0.0646772
-0.0040771
-0.0655908
-0.00337099
-0.0663355
-0.00258741
-0.066923
-0.00189727
-0.0673068
-0.00123582
-0.0675121
-0.000706418
-0.0675765
-0.000284974
-3.29496e-05
-0.0745507
-0.00562382
0.0745583
-0.0749857
-0.00444787
-0.0754404
-0.00362243
-0.0759942
-0.00281717
-0.0764342
-0.00214742
-0.0768022
-0.00152922
-0.0770242
-0.00101386
-0.0771416
-0.000589008
-0.077165
-0.000261537
-3.64689e-05
-0.0889612
-0.00562719
0.0889646
-0.0892423
-0.00416682
-0.0895062
-0.00335848
-0.0898635
-0.00245986
-0.0901247
-0.00188623
-0.0903667
-0.00128722
-0.090497
-0.000883593
-0.0905783
-0.000507712
-0.0905875
-0.000252285
-3.4222e-05
-0.106412
-0.00540839
0.106194
-0.106716
-0.00386296
-0.106963
-0.00311207
-0.107258
-0.00216427
-0.107462
-0.00168259
-0.107663
-0.0010865
-0.107772
-0.00077457
-0.107862
-0.000417304
-0.10789
-0.000224655
-1.74451e-05
-0.125855
-0.00486558
0.125312
-0.126313
-0.00340568
-0.126678
-0.0027466
-0.127006
-0.00183621
-0.127245
-0.00144328
-0.127457
-0.000874419
-0.127595
-0.000637216
-0.12772
-0.000291665
-0.127783
-0.00016181
9.95691e-06
-0.14507
-0.00397282
0.144178
-0.14573
-0.00274554
-0.146267
-0.00220977
-0.146667
-0.00143674
-0.146978
-0.00113163
-0.147213
-0.000639855
-0.14739
-0.00045999
-0.147529
-0.00015253
-0.147612
-7.93048e-05
3.57058e-05
-0.161388
-0.00279559
0.160211
-0.162223
-0.00191095
-0.1629
-0.00153258
-0.163359
-0.000978021
-0.163723
-0.000767039
-0.163958
-0.000404894
-0.164141
-0.000277731
-0.164247
-4.61036e-05
-0.164311
-1.54565e-05
4.28586e-05
-0.172849
-0.00144171
0.171495
-0.173788
-0.00097212
-0.174542
-0.000777945
-0.17503
-0.00049007
-0.175414
-0.000383864
-0.175626
-0.000192017
-0.175779
-0.000125569
-0.175825
-7.49933e-08
-0.175847
7.06668e-06
2.8427e-05
-0.178675
0.177233
-0.179647
-0.180425
-0.180915
-0.181299
-0.181491
-0.181617
-0.181617
-0.18161
-0.0123195
0.054265
0.0113091
-0.013011
0.0635511
-0.0135696
0.0751168
-0.0138621
0.0892571
-0.0136606
0.105992
-0.012675
0.124327
-0.0107064
0.142209
-0.00776905
0.157274
-0.00408779
0.167814
0.173145
-0.0116716
0.0550027
0.0109338
-0.0123183
0.0641978
-0.0128109
0.0756094
-0.0130165
0.0894627
-0.0127359
0.105711
-0.0117235
0.123314
-0.00982882
0.140314
-0.00708965
0.154535
-0.00371529
0.16444
0.16943
-0.0110649
0.0556796
0.010388
-0.0116485
0.0647814
-0.0120651
0.0760259
-0.0121964
0.0895941
-0.0118647
0.10538
-0.0108596
0.122309
-0.00906112
0.138516
-0.00651329
0.151987
-0.00340601
0.161332
0.166024
-0.0103634
0.056335
0.00970799
-0.0108884
0.0653065
-0.0112239
0.0763615
-0.0112815
0.0896517
-0.0109072
0.105005
-0.00992453
0.121327
-0.00824039
0.136832
-0.0059023
0.149649
-0.00307976
0.15851
0.162944
-0.0095491
0.056961
0.0089231
-0.0100191
0.0657764
-0.0102821
0.0766245
-0.0102777
0.0896473
-0.00987674
0.104604
-0.00893461
0.120385
-0.00738187
0.135279
-0.0052677
0.147534
-0.00274205
0.155984
0.160202
-0.00864165
0.0575468
0.00805577
-0.00904929
0.0661841
-0.00924367
0.0768189
-0.00918863
0.0895923
-0.00877745
0.104193
-0.00789503
0.119502
-0.00649135
0.133875
-0.00461486
0.145658
-0.00239611
0.153765
0.157806
-0.00766024
0.0580833
0.0071238
-0.00799977
0.0665236
-0.00812639
0.0769455
-0.0080286
0.0894945
-0.00762052
0.103785
-0.00681405
0.118696
-0.00557479
0.132636
-0.00394794
0.144031
-0.00204419
0.151862
0.155762
-0.00662034
0.0585588
0.00614478
-0.00689021
0.0667935
-0.00695094
0.0770062
-0.00681724
0.0893608
-0.00642276
0.103391
-0.00570464
0.117978
-0.00464109
0.131572
-0.0032723
0.142662
-0.00168883
0.150278
0.154073
-0.00553889
0.0589603
0.00513739
-0.00574007
0.0669946
-0.00573736
0.0770035
-0.00557437
0.0891978
-0.00520187
0.103018
-0.00458117
0.117357
-0.0037006
0.130692
-0.00259437
0.141556
-0.00133308
0.149017
0.15274
-0.00443388
0.059273
0.0041212
-0.00457036
0.0671311
-0.00450531
0.0769385
-0.00431913
0.0890116
-0.0039746
0.102674
-0.00345743
0.11684
-0.00276359
0.129998
-0.00192078
0.140713
-0.000980227
0.148076
0.15176
-0.00333514
0.0594874
0.00312078
-0.00340724
0.0672032
-0.00327963
0.0768108
-0.00307426
0.0888063
-0.0027603
0.10236
-0.00234929
0.116429
-0.00184204
0.129491
-0.00125935
0.140131
-0.000634153
0.147451
0.151126
-0.00226545
0.0596055
0.00214733
-0.00226673
0.0672045
-0.00208296
0.0766271
-0.00185795
0.0885812
-0.00157559
0.102077
-0.00126798
0.116121
-0.000943294
0.129166
-0.000616038
0.139803
-0.000297819
0.147133
0.150828
-0.00125757
0.0596422
0.00122088
-0.00117606
0.067123
-0.000949033
0.0764
-0.000702693
0.0883349
-0.000455085
0.10183
-0.000247495
0.115914
-9.94048e-05
0.129018
-1.78286e-05
0.139722
1.32372e-05
0.147102
0.150841
-0.000344353
0.0596377
0.000348816
-0.000165131
0.0669438
8.27789e-05
0.0761521
0.00038411
0.0880336
0.00061725
0.101597
0.000741985
0.115789
0.00073031
0.12903
0.000582774
0.139869
0.000326801
0.147358
0.151168
0.000534833
0.0595638
-0.000460876
0.000808609
0.06667
0.00112509
0.0758357
0.00143032
0.0877283
0.00163611
0.101391
0.00167343
0.115751
0.00150552
0.129198
0.0011377
0.140237
0.000615563
0.14788
0.151783
0.00135578
0.059414
-0.00120602
0.00169591
0.0663299
0.00205132
0.0754803
0.00237884
0.0874008
0.00256629
0.101203
0.00252865
0.115789
0.00221951
0.129507
0.00164929
0.140807
0.000880988
0.148648
0.152664
0.00207907
0.0592269
-0.00189192
0.00248915
0.0659198
0.00287971
0.0750897
0.00323021
0.0870503
0.00340646
0.101027
0.00330636
0.115889
0.00287205
0.129941
0.00211778
0.141562
0.00112336
0.149643
0.153788
0.00271641
0.0590379
-0.00252742
0.00318666
0.0654495
0.00360502
0.0746713
0.00397312
0.0866822
0.00414005
0.10086
0.00398717
0.116042
0.00344447
0.130484
0.00252865
0.142477
0.0013345
0.150837
0.155122
0.00329196
0.0588783
-0.00313239
0.00380656
0.0649349
0.00425191
0.074226
0.00463794
0.0862962
0.00480263
0.100695
0.00460755
0.116237
0.00396834
0.131123
0.00290417
0.143542
0.00152612
0.152215
0.156648
0.00370101
0.0588851
-0.00370784
0.00421729
0.0644186
0.00468753
0.0737557
0.00508132
0.0859024
0.0052439
0.100533
0.00502444
0.116457
0.00432416
0.131823
0.00315986
0.144706
0.00165271
0.153722
0.158301
-0.0396756
0.0540684
0.0444924
-0.0358793
0.0606224
-0.0333795
0.0712559
-0.0307766
0.0832994
-0.0277129
0.0974693
-0.023816
0.11256
-0.0189276
0.126935
-0.0131445
0.138923
-0.00672362
0.147301
0.151578
-0.0483467
0.0499462
0.052469
-0.0449323
0.0572079
-0.0418583
0.0681819
-0.0383694
0.0798106
-0.0343621
0.0934619
-0.0293548
0.107552
-0.0232276
0.120808
-0.0161037
0.131799
-0.0082738
0.139471
0.143304
-0.0582413
0.0459976
0.0621898
-0.0547676
0.0537343
-0.0510055
0.0644198
-0.0466295
0.0754346
-0.0414971
0.0883295
-0.0351206
0.101176
-0.0275501
0.113237
-0.0189429
0.123192
-0.0095984
0.130127
0.133705
-0.0701962
0.0422518
0.073942
-0.0662049
0.0497429
-0.0615973
0.0598122
-0.0562198
0.0700572
-0.0497706
0.0818803
-0.0418243
0.0932295
-0.0326171
0.10403
-0.0223564
0.112931
-0.0114186
0.119189
0.122287
-0.0835447
0.0378931
0.0879035
-0.0787333
0.0449315
-0.0730421
0.054121
-0.0662272
0.0632423
-0.0579663
0.0736194
-0.0480899
0.0833532
-0.0370146
0.0929545
-0.0249509
0.100867
-0.0123935
0.106631
0.109893
-0.0990081
0.0335042
0.103397
-0.0930501
0.0389736
-0.0860317
0.0471025
-0.0774904
0.054701
-0.0673174
0.0634464
-0.0555681
0.0716038
-0.0425733
0.0799597
-0.0286303
0.0869245
-0.014517
0.0925181
0.0953763
-0.113798
0.0272772
0.120025
-0.106569
0.0317446
-0.0978557
0.0383896
-0.0871175
0.0439628
-0.0747083
0.0510372
-0.0605953
0.0574907
-0.0451099
0.0644744
-0.0287844
0.0705991
-0.0129844
0.076718
0.0823919
-0.129571
0.0210967
0.135752
-0.121125
0.0232983
-0.110915
0.0281801
-0.0987276
0.0317753
-0.0849007
0.0372104
-0.0691857
0.0417757
-0.0521528
0.0474415
-0.0344424
0.0528887
-0.0181483
0.0604238
0.0642436
-0.143625
0.0102209
0.154501
-0.131998
0.011671
-0.1181
0.0142826
-0.102482
0.0161568
-0.0844939
0.0192228
-0.0645284
0.0218102
-0.0425173
0.0254304
-0.0193645
0.0297358
0.00239113
0.0386682
0.0666347
-0.243612
0.253833
-0.231941
-0.217659
-0.201502
-0.182279
-0.160469
-0.135039
-0.105303
-0.0666347
0.00187443
0.0460621
-0.0034442
0.000469353
0.053874
-0.000553252
0.0632124
-0.00127943
0.0746682
-0.00172946
0.0883535
-0.00189341
0.103561
-0.00166589
0.119797
-0.00126274
0.135348
-0.0018082
0.155046
0.252025
0.00225228
0.0475998
-0.00378996
0.000886835
0.0552395
-0.000187182
0.0642865
-0.000943642
0.0754246
-0.00143971
0.0888496
-0.00163721
0.103758
-0.00149107
0.119651
-0.00113515
0.134992
-0.00160229
0.155513
0.250423
0.00270857
0.0490366
-0.00414538
0.00138283
0.0565652
0.000328446
0.0653408
-0.000456487
0.0762096
-0.000972606
0.0893657
-0.00121367
0.104
-0.00114216
0.119579
-0.000892386
0.134743
-0.00139679
0.156018
0.249026
0.00316487
0.0503762
-0.00450447
0.00188408
0.057846
0.000867911
0.066357
4.72991e-05
0.0770302
-0.000437207
0.0898502
-0.000724452
0.104287
-0.00070627
0.119561
-0.000591718
0.134628
-0.001132
0.156558
0.247894
0.00361353
0.0516174
-0.00485468
0.00239685
0.0590627
0.00142709
0.0673268
0.000666425
0.0777909
0.000136719
0.0903799
-0.000198327
0.104622
-0.00021158
0.119574
-0.000246956
0.134663
-0.000820951
0.157132
0.247073
0.00407101
0.0527312
-0.00518482
0.00294187
0.0601918
0.00202623
0.0682424
0.00130696
0.0785101
0.00079315
0.0908937
0.000431915
0.104983
0.000326483
0.11968
0.00016697
0.134823
-0.000469498
0.157768
0.246604
0.00453623
0.0536818
-0.00548686
0.0035172
0.0612109
0.00266555
0.0690941
0.00199188
0.0791838
0.00148992
0.0913957
0.001119
0.105354
0.000913361
0.119886
0.000665319
0.135071
-7.34441e-05
0.158507
0.24653
0.00500187
0.0544334
-0.00575348
0.00411226
0.0621005
0.00333533
0.069871
0.00271434
0.0798048
0.00222807
0.0918819
0.00184076
0.105741
0.00154931
0.120177
0.00118429
0.135436
0.000317961
0.159373
0.246848
0.00546072
0.0549491
-0.00597641
0.00471565
0.0628455
0.00402416
0.0705625
0.00346295
0.080366
0.00299954
0.0923453
0.00259524
0.106146
0.00222091
0.120551
0.00173213
0.135925
0.000739966
0.160366
0.247588
0.00589964
0.0551956
-0.00614615
0.00531484
0.0634303
0.00472028
0.0711571
0.00422584
0.0808604
0.0037936
0.0927776
0.00337302
0.106566
0.00291831
0.121006
0.00230494
0.136538
0.00118438
0.161486
0.248772
0.00629941
0.0551462
-0.00624999
0.00589172
0.063838
0.0054075
0.0716413
0.00498599
0.0812819
0.00459171
0.0931719
0.00415895
0.106999
0.00362874
0.121536
0.00289292
0.137274
0.00164095
0.162738
0.250413
0.00665157
0.0547844
-0.00628978
0.0064384
0.0640512
0.00607725
0.0720024
0.00573551
0.0816237
0.00538555
0.0935218
0.00494665
0.107438
0.0043467
0.122136
0.00349176
0.138129
0.00210631
0.164124
0.25252
0.00693729
0.0541085
-0.00626135
0.00693559
0.0640529
0.00670824
0.0722298
0.00645366
0.0818782
0.00615509
0.0938204
0.00571868
0.107874
0.00505729
0.122798
0.00409023
0.139096
0.00257313
0.165641
0.255093
0.00714447
0.0531329
-0.00616892
0.0073681
0.0638293
0.00728399
0.0723139
0.00712354
0.0820387
0.00688406
0.0940599
0.00646031
0.108298
0.00574798
0.12351
0.00467899
0.140165
0.00303465
0.167285
0.258128
0.00726418
0.0518911
-0.00602233
0.00772269
0.0633708
0.00778945
0.0722471
0.00772907
0.0820991
0.00755715
0.0942318
0.00715712
0.108698
0.00640705
0.12426
0.00524927
0.141323
0.00348511
0.169049
0.261613
0.00729274
0.0504363
-0.005838
0.00798927
0.0626742
0.0082107
0.0720257
0.00825549
0.0820543
0.00815967
0.0943276
0.00779412
0.109064
0.00702166
0.125032
0.00579103
0.142553
0.00391565
0.170925
0.265528
0.00723513
0.0488392
-0.00563795
0.00816124
0.0617481
0.00853756
0.0716494
0.00869182
0.0819
0.00867961
0.0943398
0.00836159
0.109382
0.00758482
0.125809
0.00629931
0.143839
0.00432272
0.172901
0.269851
0.00710771
0.0471752
-0.0054437
0.00823582
0.06062
0.00876196
0.0711232
0.00902458
0.0816374
0.00909869
0.0942657
0.0088381
0.109642
0.00807468
0.126573
0.0067583
0.145155
0.00469162
0.174968
0.274543
0.00692233
0.0455022
-0.00524937
0.00822085
0.0593215
0.00889988
0.0704442
0.00927365
0.0812636
0.00943951
0.0940999
0.00924793
0.109834
0.00851183
0.127309
0.00718258
0.146485
0.00503005
0.17712
0.279573
0.00663335
0.0438131
-0.00494429
0.00799883
0.057956
0.00882926
0.0696138
0.00931133
0.0807816
0.00957633
0.0938349
0.00946776
0.109942
0.00880022
0.127976
0.00748719
0.147798
0.00532795
0.17928
0.284901
-0.020431
0.0430649
0.0211793
-0.0178928
0.0554177
-0.0148754
0.0665964
-0.0116267
0.0775329
-0.00836785
0.090576
-0.00493066
0.106505
-0.00137767
0.124423
0.00140799
0.145012
0.00135487
0.179333
0.286255
-0.0342385
0.0410103
0.0362931
-0.0309353
0.0521145
-0.0266493
0.0623103
-0.0219469
0.0728305
-0.0170753
0.0857044
-0.0117935
0.101223
-0.00627239
0.118902
-0.00158683
0.140326
-3.93326e-05
0.177785
0.286216
-0.049241
0.0381996
0.0520517
-0.0448579
0.0477314
-0.0392376
0.05669
-0.0331601
0.066753
-0.0266841
0.0792284
-0.0194195
0.0939587
-0.0117139
0.111197
-0.00489713
0.13351
-0.00153994
0.174428
0.284676
-0.0656562
0.0345924
0.0692635
-0.0599152
0.0419904
-0.0531697
0.0499445
-0.0458175
0.0594008
-0.0375572
0.0709682
-0.028078
0.0844795
-0.0180198
0.101138
-0.00889432
0.124384
-0.00329033
0.168824
0.281386
-0.0838198
0.0296424
0.0887699
-0.0769762
0.0351468
-0.0694226
0.042391
-0.0605905
0.0505686
-0.0502864
0.0606641
-0.0385002
0.0726933
-0.0259976
0.0886358
-0.0142653
0.112652
-0.00578111
0.16034
0.275605
-0.104496
0.0242199
0.109918
-0.0967421
0.027393
-0.0880786
0.0337275
-0.0774642
0.0399542
-0.0652189
0.0484189
-0.051362
0.0588364
-0.0365916
0.0738653
-0.0221591
0.0982194
-0.0102315
0.148412
0.265373
-0.127885
0.0169733
0.135132
-0.119673
0.0191809
-0.110102
0.0241571
-0.0984055
0.0282573
-0.0851459
0.0351593
-0.0698395
0.04353
-0.0533915
0.0574173
-0.0361656
0.0809935
-0.0190331
0.13128
0.24634
-0.158958
0.00959865
0.166332
-0.150197
0.0104206
-0.139807
0.013767
-0.127714
0.0161639
-0.113848
0.0212932
-0.0979503
0.0276324
-0.0803311
0.0397982
-0.0609002
0.0615625
-0.0367734
0.107153
0.209567
-0.214255
0.00279188
0.221062
-0.207172
0.00333698
-0.198231
0.00482647
-0.188358
0.00629145
-0.176275
0.00921003
-0.162079
0.0134361
-0.143806
0.0215249
-0.11816
0.0359168
-0.0757792
0.0647721
0.133788
-0.293103
0.295894
-0.289766
-0.284939
-0.278648
-0.269438
-0.256001
-0.234477
-0.19856
-0.133788
0.00233329
0.0221584
-0.00331244
0.000595119
0.0380313
-0.00110875
0.0537555
-0.00261105
0.0707658
-0.00381954
0.0899783
-0.00478974
0.110888
-0.00532001
0.135662
-0.0056515
0.166664
-0.00444473
0.219855
0.29145
0.0021042
0.0227871
-0.00273291
0.000679507
0.039456
-0.000894205
0.0553292
-0.00235045
0.072222
-0.00355742
0.0911853
-0.00451512
0.111846
-0.00507311
0.13622
-0.00542065
0.167011
-0.0042447
0.218679
0.287205
0.00199154
0.0231184
-0.00232278
0.000866903
0.0405806
-0.00053552
0.0567317
-0.00188229
0.0735688
-0.00303816
0.0923412
-0.00396852
0.112777
-0.00456392
0.136815
-0.00489525
0.167343
-0.00387764
0.217662
0.283327
0.00196387
0.0231936
-0.00203904
0.0011248
0.0414197
-0.000111874
0.0579683
-0.00131908
0.074776
-0.00239809
0.0934202
-0.00330758
0.113686
-0.0039287
0.137436
-0.0042959
0.16771
-0.00345259
0.216818
0.279875
0.00201463
0.0230274
-0.00184843
0.00146577
0.0419686
0.000449153
0.058985
-0.000670047
0.0758952
-0.00166891
0.0944191
-0.002556
0.114573
-0.00320867
0.138089
-0.00363205
0.168133
-0.00297883
0.216165
0.276896
0.00214429
0.0226164
-0.00173332
0.00189551
0.0422173
0.0011028
0.0597777
6.61635e-05
0.0769318
-0.000835476
0.0953207
-0.00170947
0.115447
-0.00240135
0.138781
-0.00290173
0.168634
-0.00246404
0.215727
0.274432
0.00234378
0.021956
-0.00168339
0.00240685
0.0421543
0.00184624
0.0603383
0.000993876
0.0777842
0.000104859
0.0962097
-0.000773103
0.116325
-0.00149856
0.139506
-0.00210781
0.169243
-0.00191441
0.215534
0.272517
0.00259987
0.0210479
-0.00169181
0.00298708
0.0417671
0.00266841
0.0606569
0.00197105
0.0784816
0.00115273
0.097028
0.000252498
0.117225
-0.000495258
0.140254
-0.00126222
0.17001
-0.00133422
0.215606
0.271183
0.00289731
0.0199056
-0.00175493
0.00361957
0.0410448
0.00355354
0.060723
0.00301491
0.0790202
0.002266
0.0977769
0.00140843
0.118083
0.000553834
0.141109
-0.00038911
0.170953
-0.000724947
0.215942
0.270458
0.00322015
-0.00187335
0.00428405
0.00448494
0.00411273
0.00343858
0.00258562
0.0016339
0.000570353
-7.2833e-05
0.000198404
-0.00147552
0.000577909
-0.00342286
0.00106063
-0.00470619
0.00160255
-0.00549399
0.00218015
-0.00591502
0.00278289
-0.00606871
0.00340851
-0.00603151
0.00406109
-0.00586153
0.00475319
-0.00560378
-0.00529925
0.000205307
-0.00168083
0.000582998
-0.00380055
0.00104906
-0.00517225
0.00155817
-0.0060031
0.0020881
-0.00644495
0.00263068
-0.00661129
0.00318607
-0.0065869
0.00375937
-0.00643483
0.00435866
-0.00620308
-0.00593203
0.000202801
-0.00188363
0.000559003
-0.00415675
0.000981867
-0.00559512
0.00142726
-0.00644849
0.00187611
-0.0068938
0.00232411
-0.00705929
0.00277505
-0.00703783
0.00323655
-0.00689634
0.00371684
-0.00668337
-0.00643661
0.000189708
-0.00207334
0.000503795
-0.00447084
0.000857131
-0.00594845
0.00120963
-0.006801
0.00154725
-0.00723141
0.00187052
-0.00738256
0.00218741
-0.00735471
0.00250868
-0.00721761
0.0028449
-0.00701959
-0.00679654
0.000165407
-0.00223875
0.000417119
-0.00472255
0.000676704
-0.00620804
0.00091115
-0.00703544
0.00111297
-0.00743323
0.00128815
-0.00755774
0.00144872
-0.00751529
0.00160825
-0.00737715
0.00177928
-0.00719062
-0.00699084
0.000129923
-0.00236867
0.000300662
-0.00489329
0.000446016
-0.00635339
0.000542871
-0.0071323
0.000591436
-0.0074818
0.000603072
-0.00756938
0.000593278
-0.00750549
0.000577492
-0.00736136
0.000568966
-0.00718209
-0.00699846
8.39726e-05
-0.00245264
0.000157939
-0.00496725
0.000173547
-0.006369
0.000119797
-0.00707855
5.05156e-06
-0.00736705
-0.000154228
-0.0074101
-0.00034041
-0.00731931
-0.00053751
-0.00716426
-0.000732802
-0.0069868
-0.00681466
2.90504e-05
-0.00248169
-5.4856e-06
-0.00493272
-0.00012996
-0.00624452
-0.000340609
-0.0068679
-0.000621242
-0.00708642
-0.000951813
-0.00707953
-0.00131341
-0.00695771
-0.00169083
-0.00678684
-0.00207286
-0.00660477
-0.00643572
-3.35417e-05
-0.00244815
-0.000184513
-0.00478175
-0.000452609
-0.00597643
-0.000820035
-0.00650047
-0.00126306
-0.0066434
-0.0017589
-0.00658368
-0.00228883
-0.00642778
-0.00283923
-0.00623644
-0.00340122
-0.00604279
-0.0058662
-0.000100525
-0.00234763
-0.000371056
-0.00451122
-0.000781861