/*--------------------------------*- C++ -*----------------------------------*\
  =========                 |
  \\      /  F ield         | OpenFOAM: The Open Source CFD Toolbox
   \\    /   O peration     | Website:  https://openfoam.org
    \\  /    A nd           | Version:  7
     \\/     M anipulation  |
\*---------------------------------------------------------------------------*/
FoamFile
{
    version     2.0;
    format      ascii;
    class       volScalarField;
    location    "0.8";
    object      p;
}
// * * * * * * * * * * * * * * * * * * * * * * * * * * * * * * * * * * * * * //

dimensions      [0 2 -2 0 0 0 0];

internalField   nonuniform List<scalar> 
32000
(
2.92062
2.91884
2.91956
2.92217
2.92547
2.92894
2.93303
2.93826
2.94475
2.95229
2.96057
2.96923
2.97799
2.98662
2.99496
3.00295
3.01056
3.0178
3.02468
3.03123
3.03751
3.04356
3.04943
3.05515
3.06075
3.06623
3.07162
3.07692
3.08217
3.08736
3.09253
3.09768
3.10283
3.10797
3.11312
3.11828
3.12346
3.12866
3.13388
3.13904
2.91041
2.90887
2.90964
2.91225
2.91552
2.91895
2.92299
2.92818
2.93464
2.9422
2.9505
2.9592
2.968
2.97665
2.98502
2.99304
3.00067
3.00792
3.0148
3.02135
3.02761
3.03365
3.03949
3.04518
3.05074
3.05617
3.0615
3.06674
3.0719
3.07702
3.0821
3.08716
3.09221
3.09725
3.1023
3.10736
3.11243
3.11752
3.12263
3.12766
2.89997
2.8987
2.89957
2.90221
2.90546
2.90884
2.91283
2.91798
2.92442
2.93198
2.94031
2.94905
2.95787
2.96654
2.97494
2.98298
2.99063
2.99788
3.00475
3.01129
3.01755
3.02355
3.02937
3.03503
3.04054
3.04592
3.05118
3.05635
3.06144
3.06647
3.07146
3.07642
3.08138
3.08632
3.09126
3.09621
3.10118
3.10616
3.11114
3.11606
2.88939
2.88841
2.88937
2.89205
2.89529
2.89862
2.90256
2.90766
2.91409
2.92165
2.93
2.93877
2.94761
2.9563
2.96472
2.97278
2.98043
2.98768
2.99455
3.00108
3.00731
3.01329
3.01908
3.02469
3.03016
3.03548
3.04068
3.04577
3.05077
3.05572
3.06062
3.06548
3.07033
3.07517
3.08001
3.08485
3.0897
3.09457
3.09943
3.10422
2.8787
2.878
2.87904
2.88177
2.88498
2.88828
2.89217
2.89723
2.90364
2.91121
2.91958
2.92837
2.93724
2.94595
2.95439
2.96245
2.97011
2.97735
2.98421
2.99072
2.99693
3.00288
3.00862
3.0142
3.01961
3.02486
3.02999
3.035
3.03993
3.04478
3.04958
3.05435
3.0591
3.06383
3.06856
3.07328
3.07802
3.08277
3.0875
3.09217
2.86791
2.86747
2.86862
2.87139
2.87459
2.87784
2.88168
2.88671
2.8931
2.90068
2.90907
2.91788
2.92676
2.9355
2.94395
2.95202
2.95966
2.96689
2.97374
2.98022
2.9864
2.99231
2.99802
3.00354
3.00889
3.01408
3.01913
3.02407
3.02891
3.03367
3.03837
3.04303
3.04767
3.05229
3.0569
3.06152
3.06613
3.07076
3.07537
3.0799
2.85703
2.85686
2.8581
2.86092
2.8641
2.86731
2.87111
2.8761
2.88248
2.89006
2.89848
2.90731
2.91621
2.92496
2.93342
2.94148
2.94911
2.95632
2.96314
2.9696
2.97574
2.98161
2.98728
2.99274
2.99802
3.00314
3.00812
3.01298
3.01772
3.02238
3.02698
3.03153
3.03606
3.04056
3.04506
3.04956
3.05405
3.05856
3.06303
3.06742
2.84606
2.84616
2.84749
2.85035
2.85352
2.85669
2.86045
2.86541
2.87178
2.87938
2.88781
2.89665
2.90558
2.91435
2.9228
2.93085
2.93847
2.94565
2.95244
2.95886
2.96496
2.97079
2.9764
2.9818
2.98701
2.99205
2.99695
3.00172
3.00638
3.01093
3.01542
3.01986
3.02427
3.02866
3.03304
3.03741
3.04179
3.04616
3.0505
3.05475
2.83502
2.83539
2.8368
2.8397
2.84285
2.84599
2.84971
2.85466
2.86102
2.86863
2.87708
2.88594
2.89488
2.90365
2.9121
2.92014
2.92773
2.93489
2.94163
2.94801
2.95406
2.95985
2.9654
2.97073
2.97587
2.98083
2.98565
2.99032
2.99488
2.99933
3.0037
3.00803
3.01233
3.0166
3.02085
3.02509
3.02933
3.03357
3.03777
3.04188
2.82391
2.82454
2.82604
2.82897
2.83211
2.83521
2.83891
2.84384
2.85021
2.85782
2.86628
2.87515
2.88411
2.8929
2.90134
2.90935
2.91692
2.92404
2.93074
2.93706
2.94306
2.9488
2.95429
2.95955
2.9646
2.96948
2.9742
2.97878
2.98323
2.98757
2.99184
2.99605
3.00022
3.00437
3.00849
3.0126
3.01671
3.02081
3.02486
3.02882
2.81274
2.81363
2.81521
2.81817
2.82129
2.82437
2.82804
2.83296
2.83934
2.84697
2.85543
2.86432
2.87329
2.88208
2.89052
2.89851
2.90603
2.91311
2.91975
2.92602
2.93197
2.93765
2.94307
2.94825
2.95322
2.95801
2.96263
2.9671
2.97144
2.97568
2.97983
2.98393
2.98797
2.99198
2.99597
2.99995
3.00392
3.00788
3.01178
3.01558
2.80152
2.80267
2.80432
2.8073
2.81041
2.81346
2.81712
2.82204
2.82843
2.83606
2.84455
2.85345
2.86243
2.87122
2.87964
2.88761
2.89509
2.9021
2.90869
2.9149
2.92079
2.9264
2.93175
2.93685
2.94173
2.94642
2.95094
2.9553
2.95953
2.96365
2.96769
2.97166
2.97557
2.97945
2.9833
2.98714
2.99097
2.99478
2.99853
3.00218
2.79025
2.79165
2.79337
2.79638
2.79947
2.80251
2.80616
2.81108
2.81748
2.82513
2.83362
2.84254
2.85152
2.8603
2.86871
2.87665
2.88409
2.89104
2.89755
2.9037
2.90954
2.91508
2.92034
2.92536
2.93014
2.93473
2.93913
2.94337
2.94749
2.95151
2.95542
2.95926
2.96304
2.96678
2.97049
2.97419
2.97787
2.98153
2.98512
2.98861
2.77893
2.78058
2.78237
2.7854
2.78847
2.79151
2.79516
2.80009
2.8065
2.81416
2.82267
2.8316
2.84058
2.84935
2.85774
2.86565
2.87303
2.87992
2.88637
2.89245
2.89821
2.90367
2.90885
2.91377
2.91845
2.92293
2.92721
2.93135
2.93535
2.93924
2.94304
2.94675
2.95039
2.95398
2.95755
2.9611
2.96463
2.96814
2.97157
2.9749
2.76757
2.76946
2.77131
2.77437
2.77743
2.78046
2.78411
2.78907
2.7955
2.80318
2.8117
2.82064
2.82962
2.83838
2.84674
2.8546
2.86193
2.86875
2.87513
2.88114
2.88682
2.8922
2.89729
2.9021
2.90668
2.91103
2.9152
2.91922
2.92311
2.92688
2.93054
2.93411
2.93761
2.94107
2.94449
2.94789
2.95126
2.95462
2.95789
2.96104
2.75617
2.7583
2.76021
2.76328
2.76634
2.76936
2.77304
2.77801
2.78448
2.79219
2.80073
2.80967
2.81865
2.82739
2.83572
2.84353
2.85079
2.85754
2.86385
2.86978
2.87538
2.88067
2.88565
2.89036
2.89481
2.89905
2.90311
2.90701
2.91077
2.91441
2.91794
2.92138
2.92473
2.92804
2.93131
2.93456
2.93778
2.94097
2.94407
2.94704
2.74472
2.74709
2.74905
2.75215
2.75521
2.75823
2.76193
2.76694
2.77344
2.7812
2.78976
2.7987
2.80766
2.81639
2.82467
2.83242
2.83962
2.8463
2.85253
2.85838
2.86389
2.86907
2.87395
2.87854
2.88288
2.887
2.89093
2.89471
2.89835
2.90186
2.90526
2.90855
2.91176
2.91492
2.91804
2.92113
2.92418
2.92721
2.93013
2.93292
2.73323
2.73583
2.73786
2.74098
2.74403
2.74707
2.75079
2.75585
2.7624
2.7702
2.77879
2.78773
2.79668
2.80537
2.81361
2.8213
2.82843
2.83504
2.84119
2.84695
2.85235
2.85743
2.86219
2.86666
2.87088
2.87488
2.87869
2.88234
2.88585
2.88923
2.89249
2.89563
2.8987
2.90171
2.90468
2.90761
2.91049
2.91335
2.91608
2.91869
2.72171
2.72454
2.72662
2.72977
2.73282
2.73587
2.73964
2.74475
2.75136
2.7592
2.76782
2.77677
2.7857
2.79435
2.80253
2.81016
2.81722
2.82375
2.82982
2.83548
2.84078
2.84574
2.85039
2.85473
2.85882
2.8627
2.86639
2.86991
2.87329
2.87653
2.87965
2.88265
2.88557
2.88844
2.89125
2.89401
2.89672
2.8994
2.90195
2.90436
2.71015
2.7132
2.71534
2.71851
2.72157
2.72464
2.72846
2.73364
2.74032
2.74821
2.75686
2.76582
2.77472
2.78333
2.79146
2.79902
2.806
2.81245
2.81843
2.82399
2.82918
2.83402
2.83854
2.84276
2.84672
2.85047
2.85403
2.85743
2.86068
2.86378
2.86675
2.86961
2.87239
2.8751
2.87775
2.88034
2.88289
2.88539
2.88774
2.88995
2.69854
2.70183
2.70402
2.70722
2.71029
2.71339
2.71727
2.72253
2.72929
2.73724
2.74592
2.75488
2.76376
2.77232
2.78038
2.78787
2.79478
2.80114
2.80703
2.81248
2.81756
2.82228
2.82666
2.83075
2.83458
2.8382
2.84163
2.8449
2.84802
2.85098
2.85381
2.85653
2.85916
2.86172
2.86421
2.86663
2.86899
2.87132
2.87348
2.87548
2.6869
2.6904
2.69266
2.69588
2.69897
2.70212
2.70607
2.71143
2.71828
2.72629
2.735
2.74396
2.75282
2.76132
2.76932
2.77674
2.78356
2.78983
2.79561
2.80096
2.80592
2.81051
2.81476
2.81871
2.82241
2.8259
2.82921
2.83235
2.83532
2.83815
2.84083
2.84341
2.84589
2.8483
2.85062
2.85287
2.85507
2.85721
2.85917
2.86097
2.67521
2.67894
2.68126
2.68451
2.68762
2.69083
2.69487
2.70034
2.70729
2.71537
2.7241
2.73306
2.74189
2.75035
2.75827
2.76561
2.77234
2.77851
2.78419
2.78943
2.79426
2.79872
2.80284
2.80665
2.81022
2.81358
2.81676
2.81977
2.8226
2.82529
2.82783
2.83026
2.8326
2.83485
2.83701
2.8391
2.84112
2.84308
2.84485
2.84644
2.6635
2.66745
2.66983
2.6731
2.67624
2.67953
2.68368
2.68927
2.69632
2.70447
2.71325
2.7222
2.73099
2.73939
2.74724
2.75449
2.76113
2.7672
2.77277
2.77789
2.7826
2.78693
2.79091
2.79458
2.79802
2.80125
2.80429
2.80717
2.80987
2.81241
2.81481
2.8171
2.81929
2.82139
2.82339
2.82531
2.82716
2.82896
2.83052
2.83191
2.65176
2.65593
2.65837
2.66166
2.66484
2.66822
2.6725
2.67822
2.68538
2.69362
2.70242
2.71136
2.72012
2.72845
2.73623
2.7434
2.74994
2.75591
2.76136
2.76636
2.77094
2.77513
2.77897
2.78251
2.78581
2.78891
2.79182
2.79456
2.79713
2.79953
2.80179
2.80394
2.80599
2.80793
2.80978
2.81154
2.81322
2.81485
2.81622
2.81741
2.64
2.64439
2.64688
2.6502
2.65342
2.6569
2.66133
2.66719
2.67448
2.68279
2.69164
2.70057
2.70928
2.71755
2.72525
2.73232
2.73876
2.74462
2.74996
2.75484
2.75928
2.76333
2.76703
2.77043
2.7736
2.77656
2.77935
2.78195
2.78438
2.78665
2.78878
2.79079
2.79269
2.79448
2.79618
2.79778
2.79931
2.80077
2.80197
2.80296
2.62822
2.63283
2.63536
2.63871
2.64199
2.64558
2.65017
2.65619
2.66361
2.67202
2.6809
2.68982
2.69848
2.70668
2.7143
2.72127
2.72761
2.73336
2.73858
2.74332
2.74763
2.75154
2.7551
2.75836
2.76139
2.76423
2.76688
2.76935
2.77164
2.77377
2.77576
2.77763
2.7794
2.78105
2.7826
2.78406
2.78545
2.78675
2.78777
2.7886
2.61641
2.62124
2.62381
2.62721
2.63056
2.63427
2.63902
2.64523
2.65279
2.66129
2.6702
2.67911
2.68772
2.69585
2.70338
2.71025
2.71648
2.72211
2.72721
2.73183
2.73599
2.73976
2.74318
2.7463
2.7492
2.7519
2.75441
2.75674
2.7589
2.7609
2.76275
2.76449
2.76612
2.76764
2.76906
2.77039
2.77163
2.77279
2.77366
2.77434
2.60459
2.60963
2.61225
2.6157
2.61913
2.62297
2.62791
2.63431
2.64202
2.65061
2.65956
2.66846
2.67702
2.68506
2.6925
2.69926
2.70538
2.7109
2.71587
2.72035
2.72438
2.728
2.73127
2.73426
2.73702
2.73958
2.74196
2.74415
2.74617
2.74803
2.74976
2.75137
2.75286
2.75426
2.75555
2.75675
2.75787
2.75891
2.75965
2.7602
2.59275
2.598
2.60069
2.60418
2.60771
2.6117
2.61683
2.62343
2.63131
2.63999
2.64897
2.65785
2.66636
2.67432
2.68166
2.68832
2.69433
2.69973
2.70457
2.7089
2.71279
2.71626
2.71939
2.72224
2.72486
2.72728
2.72952
2.73158
2.73346
2.73519
2.73678
2.73826
2.73963
2.74089
2.74207
2.74316
2.74417
2.7451
2.74573
2.74619
2.58089
2.58637
2.58912
2.59267
2.5963
2.60047
2.60581
2.6126
2.62065
2.62943
2.63844
2.64731
2.65576
2.66363
2.67086
2.67742
2.68331
2.68859
2.6933
2.69749
2.70123
2.70456
2.70754
2.71024
2.71272
2.71501
2.71711
2.71903
2.72077
2.72236
2.72382
2.72516
2.7264
2.72755
2.72862
2.7296
2.73052
2.73136
2.73192
2.73231
2.56905
2.57474
2.57756
2.58118
2.58491
2.58926
2.59483
2.60184
2.61005
2.61893
2.62798
2.63683
2.64521
2.653
2.66013
2.66657
2.67235
2.6775
2.68208
2.68613
2.68971
2.69289
2.69573
2.69829
2.70062
2.70276
2.70472
2.70649
2.70809
2.70954
2.71086
2.71208
2.71319
2.71422
2.71518
2.71607
2.71691
2.71768
2.71818
2.71855
2.55721
2.56311
2.56601
2.5697
2.57356
2.57811
2.58392
2.59115
2.59953
2.60851
2.6176
2.62642
2.63474
2.64244
2.64945
2.65578
2.66144
2.66647
2.6709
2.67481
2.67824
2.68127
2.68395
2.68637
2.68855
2.69054
2.69235
2.69398
2.69544
2.69674
2.69792
2.69899
2.69998
2.70089
2.70175
2.70255
2.70332
2.70403
2.70451
2.70489
2.5454
2.55151
2.55449
2.55826
2.56225
2.56701
2.57308
2.58054
2.58909
2.59818
2.6073
2.61609
2.62435
2.63194
2.63885
2.64506
2.6506
2.65549
2.65979
2.66354
2.66683
2.6697
2.67223
2.67449
2.67653
2.67836
2.68002
2.68149
2.68279
2.68394
2.68497
2.6859
2.68676
2.68754
2.68829
2.689
2.68971
2.69038
2.69087
2.69129
2.53362
2.53994
2.54299
2.54685
2.55099
2.55598
2.56232
2.57003
2.57874
2.58793
2.59708
2.60585
2.61403
2.62153
2.62832
2.63441
2.63982
2.64458
2.64874
2.65235
2.65547
2.65819
2.66057
2.66267
2.66455
2.66623
2.66772
2.66903
2.67017
2.67116
2.67203
2.6728
2.67351
2.67416
2.67478
2.6754
2.67604
2.67668
2.6772
2.6777
2.52189
2.52841
2.53153
2.5355
2.5398
2.54504
2.55165
2.55961
2.5685
2.57778
2.58697
2.5957
2.6038
2.6112
2.61787
2.62384
2.62912
2.63375
2.63776
2.64122
2.6442
2.64676
2.64898
2.65092
2.65263
2.65414
2.65545
2.65659
2.65756
2.65837
2.65907
2.65968
2.66022
2.66072
2.66121
2.66171
2.66226
2.66285
2.66341
2.66403
2.51022
2.51693
2.52014
2.5242
2.5287
2.5342
2.54109
2.54929
2.55836
2.56774
2.57695
2.58565
2.59367
2.60096
2.60752
2.61336
2.6185
2.62299
2.62687
2.63018
2.63299
2.6354
2.63745
2.63923
2.64077
2.6421
2.64324
2.64419
2.64497
2.6456
2.64611
2.64652
2.64688
2.6472
2.64752
2.64789
2.64833
2.64885
2.64943
2.65024
2.49862
2.50553
2.50882
2.51299
2.51768
2.52346
2.53065
2.5391
2.54835
2.55782
2.56705
2.57571
2.58365
2.59083
2.59727
2.60297
2.60798
2.61233
2.61606
2.61922
2.62188
2.62412
2.62601
2.62762
2.62899
2.63014
2.63109
2.63184
2.63242
2.63284
2.63314
2.63334
2.63348
2.63358
2.6337
2.63387
2.63417
2.63461
2.63527
2.63644
2.48711
2.49422
2.49759
2.50188
2.50678
2.51284
2.52033
2.52904
2.53846
2.54802
2.55726
2.56588
2.57374
2.58082
2.58713
2.59269
2.59756
2.60177
2.60535
2.60835
2.61086
2.61294
2.61466
2.6161
2.61729
2.61825
2.619
2.61955
2.61991
2.62011
2.62018
2.62013
2.62001
2.61984
2.61968
2.61957
2.6196
2.61986
2.62069
2.6227
2.4757
2.48298
2.48644
2.49085
2.49597
2.50234
2.51014
2.51911
2.52871
2.53836
2.54761
2.55618
2.56396
2.57092
2.5771
2.58252
2.58725
2.59131
2.59474
2.59759
2.59994
2.60185
2.60341
2.60467
2.60567
2.60644
2.60698
2.60732
2.60746
2.60742
2.60723
2.60692
2.6065
2.606
2.60545
2.60489
2.60437
2.60397
2.60434
2.60676
3.15691
3.19032
3.22222
3.25554
3.28945
3.32396
3.35901
3.39464
3.4309
3.46781
3.50543
3.54382
3.58303
3.62306
3.66403
3.70589
3.74867
3.79236
3.83669
3.88174
3.92766
3.97457
4.02283
4.07248
4.12352
4.17603
4.22999
4.28546
4.34214
4.40043
4.45953
4.52113
4.58215
4.64802
4.70971
4.78139
4.8417
4.92178
4.9762
5.07297
3.14536
3.17946
3.21151
3.24502
3.27899
3.31363
3.34874
3.38432
3.42064
3.45761
3.49515
3.53356
3.57282
3.61281
3.65377
3.69563
3.73845
3.78209
3.82624
3.87131
3.91717
3.96411
4.01243
4.0622
4.1132
4.16569
4.21968
4.27514
4.33182
4.39011
4.44919
4.51077
4.57179
4.63766
4.69933
4.77102
4.83132
4.91141
4.96585
5.0626
3.13357
3.16839
3.20057
3.2343
3.26837
3.3031
3.33827
3.37383
3.4102
3.44721
3.4847
3.52313
3.56242
3.60238
3.64335
3.68522
3.72805
3.77167
3.81564
3.8607
3.90651
3.95351
4.0019
4.05175
4.10273
4.15521
4.20922
4.26469
4.32137
4.37966
4.43872
4.5003
4.56132
4.62719
4.68886
4.76057
4.82087
4.90097
4.95543
5.05217
3.12155
3.15711
3.18943
3.22338
3.25757
3.29237
3.32759
3.3632
3.39958
3.43659
3.4741
3.51254
3.55183
3.5918
3.63277
3.67464
3.71746
3.7611
3.8049
3.84988
3.8957
3.94279
3.99124
4.04111
4.09212
4.14461
4.19863
4.25411
4.31079
4.36906
4.42814
4.48971
4.55074
4.61661
4.67829
4.75002
4.81033
4.89045
4.94495
5.04169
3.10932
3.14564
3.17807
3.21227
3.2466
3.28145
3.31674
3.3524
3.38878
3.42579
3.46335
3.50179
3.54105
3.58106
3.62203
3.66389
3.70671
3.75039
3.794
3.8389
3.88474
3.93194
3.98044
4.0303
4.08136
4.13386
4.1879
4.24341
4.30007
4.35834
4.41744
4.47901
4.54005
4.60594
4.66764
4.73939
4.79972
4.87986
4.9344
5.03116
3.09686
3.13397
3.16652
3.20098
3.23545
3.27035
3.30571
3.34143
3.37781
3.41482
3.45242
3.49087
3.53013
3.57015
3.61112
3.65299
3.69579
3.73948
3.78294
3.82778
3.87363
3.92095
3.9695
4.01935
4.07046
4.12298
4.17705
4.23257
4.28923
4.3475
4.40662
4.46819
4.52926
4.59517
4.65689
4.72866
4.78902
4.8692
4.92378
5.02057
3.0842
3.12211
3.15478
3.18951
3.22412
3.25909
3.29451
3.33027
3.36668
3.4037
3.44133
3.47979
3.51904
3.55909
3.60005
3.64192
3.68472
3.72826
3.77172
3.81652
3.86239
3.90982
3.95842
4.00827
4.05942
4.11196
4.16608
4.2216
4.27827
4.33654
4.39568
4.45727
4.51836
4.5843
4.64603
4.71785
4.77825
4.85846
4.91308
5.00992
3.07134
3.11006
3.14287
3.17787
3.21262
3.24765
3.28314
3.31895
3.35538
3.39241
3.43007
3.46855
3.50781
3.54786
3.58883
3.6307
3.67349
3.71686
3.76036
3.80513
3.85104
3.89854
3.94719
3.99706
4.04823
4.10083
4.15499
4.21051
4.26718
4.32547
4.38462
4.44624
4.50735
4.57333
4.63509
4.70696
4.7674
4.84765
4.90232
4.9992
3.05828
3.09784
3.13077
3.16606
3.20095
3.23606
3.27161
3.30746
3.34391
3.38097
3.41866
3.45716
3.49642
3.53649
3.57746
3.61933
3.66212
3.70533
3.74885
3.7936
3.83958
3.88714
3.93583
3.98571
4.03692
4.08957
4.14377
4.1993
4.25597
4.31428
4.37345
4.4351
4.49624
4.56226
4.62406
4.69598
4.75648
4.83677
4.89149
4.98843
3.04505
3.08544
3.11851
3.15408
3.18911
3.2243
3.25992
3.29582
3.33229
3.36937
3.40709
3.44561
3.48488
3.52496
3.56594
3.60781
3.65061
3.69366
3.7372
3.78194
3.82801
3.87561
3.92433
3.97424
4.02547
4.07818
4.13243
4.18795
4.24464
4.30297
4.36217
4.42386
4.48502
4.55109
4.61294
4.68493
4.74547
4.82581
4.88058
4.97761
3.03164
3.07287
3.10609
3.14194
3.17712
3.21239
3.24807
3.28401
3.32052
3.35763
3.39538
3.43392
3.4732
3.51329
3.55427
3.59614
3.63895
3.68185
3.72542
3.77016
3.81632
3.86396
3.91271
3.96263
4.01391
4.06668
4.12095
4.17648
4.23319
4.29155
4.35078
4.4125
4.47371
4.53984
4.60174
4.67379
4.73438
4.81479
4.86961
4.96672
3.01806
3.06014
3.09352
3.12965
3.16498
3.20033
3.23607
3.27206
3.3086
3.34574
3.38352
3.4221
3.46138
3.50148
3.54246
3.58433
3.62716
3.66989
3.71351
3.75826
3.80451
3.85218
3.90096
3.9509
4.00222
4.05505
4.10935
4.16489
4.22162
4.28002
4.33928
4.40104
4.4623
4.5285
4.59045
4.66258
4.72321
4.8037
4.85857
4.95578
3.00434
3.04726
3.08081
3.11722
3.15269
3.18813
3.22392
3.25996
3.29654
3.33372
3.37154
3.41013
3.44943
3.48954
3.53051
3.57237
3.61522
3.65779
3.70148
3.74625
3.79258
3.84028
3.88908
3.93905
3.99042
4.0433
4.09762
4.15319
4.20994
4.26837
4.32767
4.38949
4.4508
4.51707
4.57908
4.65129
4.71195
4.79254
4.84746
4.94477
2.99047
3.03423
3.06795
3.10464
3.14026
3.17578
3.21162
3.24772
3.28434
3.32156
3.35942
3.39804
3.43735
3.47746
3.51842
3.56027
3.60313
3.64553
3.68934
3.73413
3.78054
3.82827
3.87709
3.92708
3.97852
4.03144
4.08576
4.14136
4.19814
4.25661
4.31595
4.37783
4.4392
4.50555
4.56762
4.63991
4.70061
4.78132
4.83629
4.93368
2.97647
3.02106
3.05497
3.09194
3.12769
3.1633
3.19918
3.23534
3.27201
3.30928
3.34717
3.38583
3.42514
3.46525
3.50621
3.54804
3.5909
3.63318
3.67709
3.72193
3.7684
3.81615
3.86498
3.915
3.96649
4.01946
4.07379
4.12942
4.18623
4.24474
4.30413
4.36607
4.42751
4.49393
4.55606
4.62844
4.68918
4.77002
4.82504
4.92253
2.96234
3.00776
3.04187
3.0791
3.11498
3.15067
3.18661
3.22283
3.25956
3.29688
3.33481
3.37349
3.41281
3.45292
3.49387
3.53569
3.57852
3.62078
3.66473
3.70964
3.75616
3.80392
3.85276
3.9028
3.95436
4.00737
4.06171
4.11736
4.17421
4.23276
4.29221
4.35422
4.41572
4.48222
4.54442
4.61689
4.67768
4.75865
4.81373
4.91132
2.9481
2.99434
3.02866
3.06614
3.10214
3.13791
3.17389
3.21018
3.24698
3.28435
3.32234
3.36103
3.40037
3.44047
3.48141
3.52321
3.56593
3.6083
3.65228
3.69727
3.74382
3.79159
3.84044
3.89051
3.94211
3.99517
4.04951
4.10519
4.16209
4.22068
4.28018
4.34227
4.40384
4.47041
4.53268
4.60525
4.66609
4.74721
4.80236
4.90004
2.93375
2.9808
3.01533
3.05305
3.08916
3.12501
3.16105
3.19742
3.23429
3.27172
3.30975
3.34847
3.38781
3.42791
3.46884
3.51061
3.55322
3.59572
3.63972
3.68481
3.73139
3.77916
3.82801
3.87811
3.92974
3.98285
4.0372
4.09291
4.14986
4.20849
4.26805
4.33023
4.39185
4.45852
4.52085
4.59353
4.65442
4.73569
4.79092
4.8887
2.9193
2.96716
3.00191
3.03984
3.07605
3.11197
3.14807
3.18453
3.22149
3.25898
3.29707
3.33581
3.37516
3.41525
3.45616
3.49791
3.54045
3.58305
3.62708
3.67225
3.71886
3.76662
3.81548
3.86561
3.91728
3.97042
4.02479
4.08053
4.13752
4.1962
4.25583
4.31808
4.37977
4.44653
4.50893
4.58172
4.64267
4.72409
4.77942
4.8773
2.90477
2.95343
2.98839
3.02651
3.0628
3.0988
3.13498
3.17154
3.20858
3.24615
3.28429
3.32306
3.36241
3.40249
3.44338
3.48511
3.52759
3.5703
3.61434
3.65958
3.70623
3.75398
3.80285
3.85302
3.90471
3.95788
4.01227
4.06805
4.12508
4.18381
4.24351
4.30583
4.36759
4.43445
4.49691
4.56983
4.63085
4.71242
4.76785
4.86583
2.89016
2.93961
2.97477
3.01307
3.04941
3.0855
3.12176
3.15844
3.19559
3.23324
3.27143
3.31022
3.34958
3.38963
3.4305
3.47221
3.51466
3.55745
3.60151
3.64681
3.6935
3.74124
3.79012
3.84034
3.89204
3.94524
3.99964
4.05546
4.11254
4.17133
4.23109
4.29349
4.35531
4.42227
4.4848
4.55785
4.61895
4.70067
4.75622
4.85431
2.87548
2.92571
2.96106
2.99949
3.03589
3.07206
3.10843
3.14525
3.18252
3.22025
3.25849
3.2973
3.33666
3.37669
3.41754
3.45922
3.50164
3.54452
3.5886
3.63395
3.68066
3.7284
3.7773
3.82756
3.87927
3.93249
3.98692
4.04278
4.0999
4.15874
4.21858
4.28104
4.34294
4.41001
4.4726
4.54579
4.60697
4.68885
4.74453
4.84273
2.86075
2.91175
2.94726
2.98579
3.02222
3.05849
3.095
3.13197
3.16936
3.2072
3.24548
3.28431
3.32367
3.36368
3.40449
3.44614
3.48855
3.53151
3.57562
3.621
3.66772
3.71547
3.76439
3.81469
3.86641
3.91964
3.9741
4.03
4.08717
4.14607
4.20597
4.26851
4.33048
4.39764
4.46031
4.53364
4.59491
4.67695
4.73277
4.83109
2.84598
2.89772
2.93336
2.97194
3.00841
3.0448
3.08148
3.11861
3.15615
3.19408
3.23241
3.27124
3.3106
3.35059
3.39137
3.43298
3.47539
3.51842
3.56255
3.60796
3.65469
3.70245
3.75139
3.80172
3.85347
3.9067
3.96119
4.01713
4.07435
4.1333
4.19327
4.25587
4.31793
4.38519
4.44793
4.52141
4.58278
4.66499
4.72094
4.81939
2.83118
2.88362
2.91935
2.95793
2.99444
3.03097
3.06786
3.10519
3.14287
3.1809
3.21928
3.25812
3.29747
3.33744
3.37817
3.41974
3.46215
3.50525
3.54941
3.59484
3.64157
3.68935
3.73832
3.78867
3.84043
3.89368
3.94819
4.00416
4.06143
4.12044
4.18047
4.24315
4.30529
4.37264
4.43546
4.5091
4.57057
4.65295
4.70904
4.80764
2.81638
2.86945
2.90521
2.94375
2.98033
3.01704
3.05417
3.09172
3.12955
3.16767
3.2061
3.24493
3.28428
3.32422
3.36491
3.40644
3.44885
3.49202
3.5362
3.58165
3.62837
3.67617
3.72517
3.77554
3.82731
3.88056
3.9351
3.99111
4.04843
4.1075
4.16759
4.23033
4.29255
4.36001
4.42291
4.49671
4.55828
4.64084
4.69708
4.79582
2.80158
2.85518
2.89092
2.92939
2.96606
3.003
3.04042
3.0782
3.11618
3.1544
3.19287
3.2317
3.27104
3.31096
3.35159
3.39308
3.43548
3.47871
3.52292
3.56838
3.6151
3.66291
3.71194
3.76233
3.81411
3.86736
3.92193
3.97797
4.03534
4.09446
4.15462
4.21742
4.27973
4.34729
4.41028
4.48424
4.54592
4.62867
4.68506
4.78395
2.78681
2.84079
2.87645
2.91483
2.95166
2.98889
3.02662
3.06465
3.10279
3.14109
3.1796
3.21843
3.25776
3.29765
3.33821
3.37965
3.42206
3.46535
3.50959
3.55505
3.60176
3.64958
3.69865
3.74904
3.80083
3.85408
3.90867
3.96475
4.02216
4.08134
4.14155
4.20442
4.26681
4.33448
4.39756
4.47168
4.53348
4.61642
4.67297
4.77202
2.77209
2.82625
2.86176
2.90008
2.93713
2.97472
3.01279
3.05109
3.08937
3.12776
3.1663
3.20512
3.24444
3.28429
3.32479
3.36618
3.40858
3.45194
3.49619
3.54165
3.58835
3.63619
3.68528
3.73568
3.78748
3.84073
3.89534
3.95144
4.0089
4.06812
4.1284
4.19133
4.25381
4.32158
4.38476
4.45905
4.52097
4.60411
4.66082
4.76004
2.75741
2.8115
2.84682
2.88513
2.9225
2.96051
2.99896
3.03751
3.07594
3.1144
3.15297
3.19179
3.23109
3.27089
3.31133
3.35266
3.39505
3.43847
3.48273
3.5282
3.57489
3.62273
3.67185
3.72225
3.77405
3.8273
3.88193
3.93805
3.99556
4.05483
4.11516
4.17816
4.24072
4.3086
4.37188
4.44634
4.50839
4.59172
4.64861
4.748
2.74279
2.79648
2.83161
2.87
2.9078
2.94629
2.98513
3.02393
3.06249
3.10103
3.13963
3.17844
3.21771
3.25746
3.29784
3.33909
3.38146
3.42495
3.46922
3.51469
3.56138
3.60922
3.65836
3.70876
3.76056
3.8138
3.86844
3.92459
3.98214
4.04145
4.10184
4.16491
4.22755
4.29553
4.35892
4.43354
4.49572
4.57926
4.63633
4.7359
2.72821
2.78113
2.81613
2.85474
2.8931
2.9321
2.97132
3.01035
3.04905
3.08764
3.12627
3.16508
3.20431
3.24401
3.28431
3.3255
3.36784
3.41139
3.45566
3.50114
3.54781
3.59566
3.64481
3.69521
3.747
3.80023
3.85488
3.91105
3.96864
4.028
4.08844
4.15158
4.2143
4.28238
4.34589
4.42067
4.48299
4.56673
4.62399
4.72375
2.71366
2.7654
2.8004
2.8394
2.87842
2.91797
2.95755
2.99679
3.03561
3.07426
3.1129
3.15169
3.19088
3.23054
3.27077
3.31187
3.35417
3.39779
3.44206
3.48754
3.5342
3.58205
3.6312
3.6816
3.73339
3.7866
3.84125
3.89745
3.95507
4.01447
4.07497
4.13817
4.20097
4.26915
4.33277
4.40772
4.47017
4.55412
4.6116
4.71155
2.69908
2.74926
2.78445
2.82404
2.8638
2.90389
2.9438
2.98324
3.02216
3.06086
3.09952
3.1383
3.17744
3.21704
3.25722
3.29822
3.34046
3.38416
3.42842
3.47391
3.52056
3.56839
3.61755
3.66795
3.71972
3.77291
3.82757
3.88377
3.94143
4.00087
4.06142
4.12468
4.18756
4.25584
4.31957
4.39469
4.45729
4.54144
4.59915
4.6993
2.68441
2.73272
2.76838
2.80874
2.84927
2.88988
2.93009
2.9697
3.00872
3.04745
3.08613
3.12489
3.16399
3.20354
3.24364
3.28455
3.32671
3.3705
3.41473
3.46025
3.50687
3.5547
3.60384
3.65424
3.706
3.75917
3.81382
3.87004
3.92773
3.9872
4.04779
4.11112
4.17408
4.24246
4.3063
4.38158
4.44433
4.52868
4.58665
4.68701
2.66962
2.716
2.75242
2.79366
2.83495
2.87602
2.91648
2.95624
2.99535
3.03411
3.07279
3.11154
3.15058
3.19007
3.23009
3.27089
3.31293
3.35681
3.40102
3.44657
3.49315
3.54098
3.59011
3.6405
3.69225
3.74539
3.80003
3.85626
3.91397
3.97347
4.03411
4.0975
4.16053
4.229
4.29297
4.3684
4.4313
4.51585
4.57411
4.67467
2.65478
2.69937
2.73682
2.77897
2.82095
2.86239
2.90305
2.94292
2.9821
3.02089
3.05956
3.09827
3.13726
3.17668
3.21662
3.25731
3.29921
3.34319
3.38733
3.43291
3.47944
3.52726
3.57636
3.62674
3.67846
3.73158
3.7862
3.84243
3.90016
3.9597
4.02038
4.08381
4.14692
4.21548
4.27956
4.35515
4.41822
4.50295
4.56152
4.6623
2.64009
2.68267
2.72118
2.76417
2.80676
2.84852
2.88937
2.92936
2.96862
3.00746
3.04614
3.08484
3.12379
3.16316
3.20304
3.24368
3.28552
3.32962
3.37357
3.41916
3.46565
3.51342
3.56249
3.61285
3.66455
3.71763
3.77224
3.82847
3.88621
3.94578
4.00651
4.06999
4.13319
4.20185
4.26604
4.34179
4.40503
4.48996
4.54889
4.6499
2.62519
2.66502
2.70441
2.74816
2.79135
2.83346
2.87459
2.91478
2.95421
2.99317
3.03192
3.07067
3.10963
3.14898
3.18884
3.22943
3.27113
3.31543
3.35936
3.40503
3.45153
3.49922
3.54825
3.59861
3.65029
3.70334
3.75793
3.81417
3.87195
3.93157
3.99236
4.05592
4.11922
4.18798
4.25232
4.32823
4.3917
4.47681
4.5362
4.63745
2.61144
2.64947
2.68927
2.73339
2.77704
2.81945
2.8608
2.90118
2.94075
2.97979
3.01859
3.05734
3.09627
3.13552
3.17524
3.21554
3.2567
3.3011
3.34565
3.3916
3.43819
3.48576
3.53475
3.58511
3.63678
3.68978
3.74432
3.80055
3.85834
3.91799
3.97882
4.04239
4.10578
4.17454
4.23904
4.31498
4.37871
4.46381
4.52373
4.6251
2.5776
2.61869
2.65922
2.70344
2.74759
2.79028
2.83181
2.87225
2.91178
2.95067
2.9892
3.02761
3.06613
3.10492
3.1441
3.18368
3.22353
3.26726
3.31287
3.35873
3.40532
3.45265
3.50132
3.55142
3.60291
3.65563
3.70989
3.76586
3.82346
3.88298
3.94376
4.00711
4.07055
4.13904
4.20377
4.27945
4.3437
4.42837
4.48929
4.59044
2.52576
2.56699
2.60689
2.65179
2.6967
2.73975
2.78148
2.82195
2.86141
2.90014
2.93842
2.97651
3.01468
3.05317
3.09225
3.13224
3.17376
3.21546
3.259
3.30388
3.34974
3.39688
3.44531
3.49513
3.54631
3.59895
3.65306
3.70882
3.76624
3.82547
3.88616
3.94933
4.01276
4.08108
4.14593
4.22149
4.28605
4.37076
4.43268
4.53384
2.47402
2.51466
2.55461
2.59939
2.64443
2.68777
2.72976
2.77038
2.80984
2.84846
2.88651
2.92429
2.96209
3.0002
3.03889
3.07842
3.11901
3.16056
3.20344
3.24771
3.29313
3.33993
3.3881
3.43764
3.4886
3.54107
3.59506
3.65067
3.70791
3.76698
3.82756
3.8906
3.95405
4.02228
4.08731
4.16284
4.22781
4.31255
4.37523
4.47637
2.42168
2.46149
2.50109
2.54575
2.59087
2.63441
2.67661
2.71737
2.75685
2.79539
2.83326
2.87078
2.90825
2.94596
2.98422
3.02328
3.0633
3.10437
3.14675
3.19038
3.2354
3.28183
3.32966
3.37892
3.42966
3.48193
3.53576
3.59121
3.64833
3.70728
3.76777
3.83073
3.89423
3.96245
4.02769
4.10324
4.16868
4.25338
4.31669
4.41764
2.36907
2.40797
2.447
2.49125
2.53617
2.57971
2.62202
2.6629
2.70242
2.7409
2.77863
2.81591
2.85307
2.89041
2.92823
2.96678
3.00629
3.04689
3.08875
3.13192
3.1765
3.22252
3.27
3.31898
3.36947
3.42152
3.47517
3.53048
3.58747
3.64632
3.70674
3.76966
3.83321
3.90145
3.96691
4.04254
4.10836
4.19309
4.25689
4.35777
2.31574
2.35366
2.39188
2.43562
2.48028
2.52374
2.5661
2.60706
2.64662
2.68506
2.72267
2.75975
2.79661
2.83359
2.87098
2.90907
2.94807
2.98817
3.02952
3.07222
3.11635
3.16197
3.2091
3.25776
3.30799
3.35981
3.41328
3.46844
3.52531
3.58407
3.64445
3.70735
3.77096
3.83927
3.90493
3.9807
4.04687
4.13173
4.19596
4.29698
2.2616
2.29853
2.33587
2.37896
2.42326
2.46652
2.50883
2.54983
2.58943
2.62785
2.66536
2.70225
2.73885
2.77548
2.81246
2.85009
2.88859
2.92819
2.96904
3.01126
3.05494
3.10014
3.1469
3.19524
3.24519
3.29678
3.35005
3.40506
3.46182
3.5205
3.58085
3.64376
3.70744
3.77586
3.84171
3.91769
3.98419
4.0693
4.13397
4.23528
2.20653
2.24248
2.27885
2.32119
2.36505
2.40805
2.45023
2.49123
2.53084
2.56924
2.60667
2.64341
2.67976
2.71607
2.75265
2.78982
2.82783
2.86692
2.90726
2.94899
2.9922
3.03697
3.08335
3.13135
3.18101
3.23236
3.28544
3.34029
3.39693
3.45554
3.51587
3.57881
3.64258
3.71112
3.77718
3.85341
3.92026
4.00573
4.07087
4.17266
2.15044
2.18543
2.2208
2.26232
2.30566
2.34831
2.39032
2.43125
2.47085
2.50923
2.54659
2.58318
2.61931
2.65531
2.69151
2.72824
2.76576
2.80433
2.84415
2.88536
2.9281
2.97242
3.0184
3.06605
3.1154
3.1665
3.21936
3.27405
3.33057
3.38912
3.44944
3.51241
3.57628
3.64497
3.71126
3.78779
3.85499
3.94096
4.0066
4.1091
2.09331
2.12734
2.16168
2.20232
2.24506
2.28731
2.32907
2.36989
2.40945
2.4478
2.48509
2.52155
2.55748
2.59319
2.62902
2.66531
2.70234
2.74039
2.77967
2.82036
2.86258
2.90644
2.95199
2.99927
3.0483
3.09912
3.15176
3.20628
3.26269
3.32117
3.38148
3.44448
3.50848
3.57733
3.64387
3.72076
3.7883
3.87491
3.94107
4.0445
2.03509
2.06819
2.10149
2.1412
2.18327
2.22504
2.26648
2.30714
2.34662
2.38492
2.42215
2.45849
2.49423
2.52967
2.56514
2.601
2.63754
2.67506
2.71379
2.75393
2.79562
2.83898
2.88408
2.93095
2.97964
3.03017
3.08258
3.13691
3.19319
3.2516
3.3119
3.37494
3.43906
3.50809
3.57491
3.65218
3.7201
3.80746
3.87417
3.97874
1.97578
2.00795
2.04021
2.07894
2.12027
2.16149
2.20255
2.24299
2.28236
2.32058
2.35773
2.39397
2.42952
2.4647
2.49984
2.53527
2.57132
2.6083
2.64646
2.68603
2.72717
2.77
2.81461
2.86105
2.90936
2.95958
3.01173
3.06587
3.12201
3.18033
3.24062
3.3037
3.36795
3.43716
3.50428
3.58196
3.65029
3.73848
3.80575
3.91164
1.91538
1.94661
1.97781
2.01554
2.05608
2.09668
2.13728
2.17744
2.21665
2.25477
2.29183
2.32795
2.36333
2.39827
2.43307
2.46808
2.50364
2.54008
2.57766
2.61662
2.65717
2.69944
2.74352
2.7895
2.83741
2.88728
2.93915
2.99307
3.04905
3.10728
3.16754
3.23066
3.29504
3.36444
3.43186