/*--------------------------------*- C++ -*----------------------------------*\
  =========                 |
  \\      /  F ield         | OpenFOAM: The Open Source CFD Toolbox
   \\    /   O peration     | Website:  https://openfoam.org
    \\  /    A nd           | Version:  7
     \\/     M anipulation  |
\*---------------------------------------------------------------------------*/
FoamFile
{
    version     2.0;
    format      ascii;
    class       surfaceScalarField;
    location    "0.8";
    object      phi;
}
// * * * * * * * * * * * * * * * * * * * * * * * * * * * * * * * * * * * * * //

dimensions      [0 3 -1 0 0 0 0];

internalField   nonuniform List<scalar> 
63520
(
-1.52653e-05
0.00182923
-0.00181397
-2.82002e-05
0.00362137
-0.00360843
-1.75441e-05
0.00401527
-0.00402592
3.24733e-05
0.0034476
-0.00349762
0.000131579
0.00229743
-0.00239654
0.000283951
0.000857701
-0.00101007
0.000488961
-0.000660655
0.000455646
0.000742152
-0.002117
0.00186381
0.00103657
-0.00342566
0.00313124
0.001364
-0.00454248
0.00421505
0.00171596
-0.00545241
0.00510044
0.00208449
-0.00616063
0.0057921
0.00246278
-0.00668445
0.00630616
0.0028453
-0.00704747
0.00666497
0.00322777
-0.00727567
0.0068932
0.00360718
-0.0073944
0.00701498
0.00398154
-0.007427
0.00705265
0.00434961
-0.00739367
0.00702559
0.00471078
-0.0073114
0.00695023
0.00506487
-0.00719398
0.00683989
0.005412
-0.00705239
0.00670527
0.00575243
-0.00689515
0.00655472
0.00608653
-0.00672865
0.00639455
0.00641474
-0.00655775
0.00622954
0.00673749
-0.00638591
0.00606315
0.00705519
-0.0062156
0.00589791
0.00736821
-0.00604858
0.00573556
0.00767691
-0.00588593
0.00557724
0.00798157
-0.00572838
0.00542372
0.00828249
-0.00557631
0.0052754
0.00857989
-0.0054299
0.0051325
0.008874
-0.00528918
0.00499508
0.00916497
-0.00515404
0.00486307
0.00945298
-0.00502433
0.00473632
0.00973818
-0.00489986
0.00461466
0.0100207
-0.00478036
0.00449785
0.0103006
-0.00466552
0.00438563
0.0105779
-0.00455494
0.00427759
0.0108527
-0.00444795
0.00417315
-0.00434385
0.0111246
0.00407199
-1.06586e-05
0.00183989
-1.52072e-05
0.00362592
6.15034e-06
0.00399391
6.81494e-05
0.0033856
0.000179785
0.0021858
0.000344508
0.000692978
0.000561139
-0.00087729
0.000824824
-0.00238068
0.00112822
-0.00372906
0.00146274
-0.004877
0.00181982
-0.00580949
0.00219155
-0.00653236
0.00257121
-0.00706411
0.00295344
-0.00742971
0.00333427
-0.0076565
0.00371095
-0.00777107
0.00408173
-0.00779778
0.00444566
-0.0077576
0.00480232
-0.00766805
0.00515171
-0.00754337
0.00549408
-0.00739476
0.00582983
-0.0072309
0.00615942
-0.00705824
0.00648332
-0.00688165
0.00680202
-0.0067046
0.00711595
-0.00652953
0.0074255
-0.00635812
0.007731
-0.00619144
0.00803277
-0.00603015
0.00833108
-0.00587461
0.00862614
-0.00572496
0.00891815
-0.00558119
0.00920728
-0.00544317
0.00949368
-0.00531073
0.00977746
-0.00518364
0.0100587
-0.00506163
0.0103376
-0.00494439
0.0106141
-0.00483143
0.0108882
-0.00472201
-0.00461508
0.0111594
-6.35875e-06
0.00184625
-2.46548e-06
0.00362202
2.97817e-05
0.00396166
0.00010408
0.0033113
0.00022859
0.00206129
0.000406062
0.000515506
0.000634743
-0.00110597
0.000909158
-0.00265509
0.00122153
-0.00404143
0.00156306
-0.00521853
0.00192504
-0.00617147
0.00229957
-0.0069069
0.00268013
-0.00744466
0.0030616
-0.00781118
0.00344029
-0.00803519
0.00381377
-0.00814455
0.00418056
-0.00816457
0.00453995
-0.00811699
0.00489175
-0.00801985
0.00523615
-0.00788777
0.00557355
-0.00773216
0.00590442
-0.00756177
0.00622932
-0.00738315
0.00654879
-0.00720111
0.00686333
-0.00701914
0.0071734
-0.00683961
0.00747939
-0.00666411
0.00778164
-0.00649369
0.00808047
-0.00632897
0.00837612
-0.00617026
0.0086688
-0.00601764
0.00895869
-0.00587108
0.00924595
-0.00573043
0.00953069
-0.00559548
0.00981304
-0.00546598
0.0100931
-0.00534168
0.0103709
-0.0052222
0.0106465
-0.00510703
0.0109198
-0.00499532
-0.00488573
0.0111904
-2.21976e-06
0.00184847
9.99516e-06
0.00360981
5.34269e-05
0.00391823
0.000140404
0.00322433
0.000278213
0.00192348
0.000468849
0.000324869
0.000709801
-0.00134692
0.000995031
-0.00294032
0.00131634
-0.00436274
0.00166459
-0.00556678
0.00203105
-0.00653792
0.00240794
-0.00728379
0.00278888
-0.0078256
0.00316906
-0.00819136
0.00354511
-0.00841124
0.00391492
-0.00851437
0.0042773
-0.00852694
0.00463178
-0.00847147
0.00497842
-0.00836649
0.00531758
-0.00822693
0.00564978
-0.00806436
0.0059756
-0.00788759
0.00629568
-0.00770323
0.00661061
-0.00751604
0.0069209
-0.00732944
0.00722703
-0.00714574
0.00752941
-0.00696648
0.00782837
-0.00679266
0.0081242
-0.0066248
0.00841714
-0.0064632
0.00870742
-0.00630791
0.00899517
-0.00615883
0.00928052
-0.00601578
0.0095636
-0.00587856
0.00984452
-0.0057469
0.0101233
-0.00562048
0.0104001
-0.00549894
0.0106748
-0.00538174
0.0109473
-0.00526787
-0.00515577
0.0112174
1.67707e-06
0.00184679
2.23005e-05
0.00358919
7.70446e-05
0.00386349
0.000177022
0.00312435
0.000328465
0.00177204
0.00053253
0.000120804
0.000785922
-0.00160031
0.00108196
-0.00323636
0.00141198
-0.00469276
0.00176667
-0.00592146
0.00213718
-0.00690844
0.00251591
-0.00766251
0.0028967
-0.00820639
0.00327508
-0.00856975
0.00364801
-0.00878417
0.0040137
-0.00888006
0.00437127
-0.00888451
0.00472052
-0.00882073
0.00506173
-0.0087077
0.0053954
-0.00856061
0.00572222
-0.00839118
0.00604286
-0.00820824
0.006358
-0.00801837
0.00666828
-0.00782632
0.00697425
-0.00763541
0.0072764
-0.00744788
0.0075751
-0.00726518
0.00787071
-0.00708826
0.00816352
-0.00691762
0.00845375
-0.00675343
0.00874157
-0.00659573
0.00902713
-0.00644439
0.00931058
-0.00629923
0.009592
-0.00615998
0.00987146
-0.00602636
0.010149
-0.00589804
0.0104247
-0.00577465
0.0106986
-0.00565556
0.0109704
-0.0055397
-0.00542521
0.0112398
5.26738e-06
0.00184153
3.43925e-05
0.00356006
0.000100657
0.00379723
0.000213892
0.00301112
0.00037923
0.0016067
0.000596903
-9.68687e-05
0.000862781
-0.00186619
0.00116952
-0.0035431
0.00150799
-0.00503123
0.00186868
-0.00628216
0.00224279
-0.00728254
0.00262284
-0.00804256
0.00300295
-0.00858651
0.003379
-0.0089458
0.00374833
-0.0091535
0.0041095
-0.00924123
0.00446189
-0.00923691
0.00480559
-0.00916443
0.00514111
-0.00904322
0.00546913
-0.00888863
0.0057904
-0.00871245
0.00610571
-0.00852355
0.00641582
-0.00832848
0.00672139
-0.00813189
0.00702297
-0.00793698
0.00732105
-0.00774595
0.00761605
-0.00756019
0.00790829
-0.0073805
0.00819802
-0.00720735
0.00848548
-0.00704089
0.00877084
-0.00688109
0.00905422
-0.00672778
0.00933574
-0.00658074
0.00961547
-0.00643971
0.00989349
-0.00630438
0.0101698
-0.00617439
0.0104445
-0.00604932
0.0107175
-0.00592853
0.0109886
-0.00581084
-0.0056941
0.0112575
8.80549e-06
0.00183272
4.63433e-05
0.00352252
0.000124206
0.00371936
0.000250869
0.00288446
0.000430301
0.00142727
0.000661678
-0.000328248
0.000939977
-0.00214449
0.00125719
-0.00386031
0.00160379
-0.00537784
0.0019701
-0.00664847
0.00234728
-0.00765972
0.00272809
-0.00842337
0.003107
-0.00896543
0.00348026
-0.00931905
0.00384553
-0.00951877
0.00420172
-0.00959742
0.00454862
-0.0095838
0.00488652
-0.00950234
0.00521612
-0.00937282
0.00553826
-0.00921077
0.00585386
-0.00902804
0.00616377
-0.00883345
0.00646875
-0.00863346
0.00676951
-0.00843265
0.00706666
-0.00823413
0.00736065
-0.00803995
0.00765188
-0.00785141
0.00794068
-0.00766931
0.00822733
-0.00749399
0.008512
-0.00732556
0.00879485
-0.00716393
0.00907601
-0.00700894
0.00935559
-0.00686032
0.00963365
-0.00671777
0.00991023
-0.00658096
0.0101854
-0.00644951
0.010459
-0.00632298
0.0107312
-0.00620069
0.0110016
-0.00608132
-0.00596247
0.01127
1.22427e-05
0.00182048
5.81319e-05
0.00347663
0.000147658
0.00362984
0.000287876
0.00274424
0.000481464
0.00123368
0.000726502
-0.000573284
0.00101711
-0.00243509
0.00134457
-0.00418777
0.00169892
-0.00573218
0.00207033
-0.00701988
0.00245009
-0.00803949
0.00283117
-0.00880444
0.00320835
-0.00934261
0.00357827
-0.00968897
0.00393906
-0.00987957
0.00428996
-0.00994831
0.00463101
-0.00992485
0.00496283
-0.00983415
0.00528633
-0.00969632
0.00560249
-0.00952693
0.00591227
-0.00933783
0.00621663
-0.00913782
0.00651644
-0.00893327
0.00681238
-0.00872858
0.00710501
-0.00852677
0.00739484
-0.00832978
0.00768227
-0.00813885
0.00796762
-0.00795465
0.0082511
-0.00777748
0.00853293
-0.00760738
0.00881325
-0.00744425
0.00909217
-0.00728786
0.00936978
-0.00713793
0.00964613
-0.00699413
0.00992127
-0.00685609
0.0101952
-0.00672343
0.0104679
-0.00659566
0.0107392
-0.00647205
0.0110091
-0.00635117
-0.00623037
0.011277
1.55774e-05
0.0018049
6.9773e-05
0.00342244
0.000170973
0.00352864
0.000324743
0.00259047
0.000532493
0.00102593
0.000791151
-0.000831942
0.00109385
-0.00273779
0.00143121
-0.00452513
0.0017929
-0.00609387
0.00216898
-0.00739596
0.00255077
-0.00842128
0.00293152
-0.00918519
0.00330647
-0.00971755
0.00367263
-0.0100551
0.0040285
-0.0102354
0.00437369
-0.0102935
0.00470864
-0.0102598
0.0050342
-0.0101597
0.00535139
-0.0100135
0.00566138
-0.00983693
0.00596528
-0.00964173
0.00626407
-0.00943661
0.00655862
-0.00922781
0.00684963
-0.0090196
0.00713772
-0.00881486
0.00742337
-0.00861542
0.00770694
-0.00842242
0.00798876
-0.00823647
0.00826905
-0.00805777
0.00854799
-0.00788632
0.00882572
-0.00772198
0.00910235
-0.00756449
0.00937795
-0.00741353
0.00965258
-0.00726876
0.00992626
-0.00712977
0.010199
-0.00699614
0.0104707
-0.00686737
0.0107413
-0.00674266
0.0110106
-0.00662046
-0.00649787
0.0112781
1.88431e-05
0.00178606
8.12419e-05
0.00336004
0.000194067
0.00341581
0.000361393
0.00242314
0.000583235
0.00080409
0.000855322
-0.00110403
0.00116987
-0.00305234
0.00151681
-0.00487208
0.00188539
-0.00646245
0.00226556
-0.00777613
0.00264885
-0.00880457
0.00302877
-0.00956511
0.00340095
-0.0100897
0.00376284
-0.010417
0.0041134
-0.010586
0.00445261
-0.0106327
0.00478118
-0.0105884
0.00510022
-0.0104788
0.00541099
-0.0103243
0.00571474
-0.0101407
0.00601265
-0.00993964
0.00630578
-0.00972974
0.00659502
-0.00951705
0.00688109
-0.00930567
0.00716458
-0.00909834
0.00744597
-0.00889681
0.00772564
-0.00870209
0.00800388
-0.0085147
0.0082809
-0.00833479
0.00855688
-0.0081623
0.00883196
-0.00799705
0.00910623
-0.00783876
0.00937978
-0.00768708
0.00965263
-0.00754161
0.00992481
-0.00740194
0.0101963
-0.00726762
0.010467
-0.00713811
0.0107369
-0.00701253
0.0110057
-0.00688922
-0.00676501
0.0112728
2.20179e-05
0.00176404
9.25478e-05
0.00328951
0.000216925
0.00329144
0.000397689
0.00224238
0.000633489
0.000568292
0.000918838
-0.00138938
0.00124492
-0.00337842
0.001601
-0.00522816
0.00197598
-0.00683743
0.00235974
-0.00815989
0.00274395
-0.00918878
0.00312246
-0.00994362
0.00349136
-0.0104586
0.00384857
-0.0107742
0.00419343
-0.0109309
0.00452633
-0.0109656
0.00484829
-0.0109103
0.00516067
-0.0107911
0.00546487
-0.0106285
0.00576227
-0.0104381
0.00605414
-0.0102315
0.00634157
-0.0100172
0.00662545
-0.00980093
0.00690652
-0.00958674
0.00718536
-0.00937719
0.00746246
-0.0091739
0.00773815
-0.00897779
0.00801273
-0.00878928
0.00828641
-0.00860847
0.00855936
-0.00843525
0.0088317
-0.0082694
0.00910354
-0.0081106
0.00937494
-0.00795848
0.00964594
-0.00781261
0.00991656
-0.00767256
0.0101868
-0.00753784
0.0104565
-0.00740786
0.0107257
-0.00728167
0.0109939
-0.00715747
-0.00703185
0.0112608
2.51218e-05
0.00173892
0.000103662
0.00321097
0.000239474
0.00315562
0.000433562
0.00204829
0.000683145
0.000318709
0.000981477
-0.00168771
0.00131874
-0.00371569
0.00168353
-0.00559294
0.00206439
-0.00721829
0.00245113
-0.00854663
0.00283566
-0.00957331
0.00321223
-0.0103202
0.00357735
-0.0108238
0.00392942
-0.0111263
0.00426823
-0.0112697
0.00459456
-0.0112919
0.00490972
-0.0112255
0.00521527
-0.0110967
0.0055128
-0.010926
0.0058038
-0.0107291
0.00608958
-0.0105173
0.00637126
-0.0102988
0.00664975
-0.0100794
0.00692577
-0.00986277
0.00719993
-0.00965134
0.00747266
-0.00944663
0.00774431
-0.00924944
0.00801515
-0.00906012
0.00828539
-0.00887871
0.00855519
-0.00870505
0.00882469
-0.0085389
0.00909398
-0.00837989
0.00936313
-0.00822762
0.00963218
-0.00808166
0.00990115
-0.00794153
0.01017
-0.00780671
0.0104387
-0.00767656
0.0107071
-0.00755004
0.0109748
-0.0074252
-0.00729841
0.0112414
2.81503e-05
0.00171077
0.000114584
0.00312454
0.000261688
0.00300852
0.000468927
0.00184105
0.000732066
5.55698e-05
0.00104308
-0.00199873
0.00139112
-0.00406374
0.00176411
-0.00596593
0.00215027
-0.00760445
0.0025394
-0.00893576
0.00292366
-0.00995758
0.00329772
-0.0106942
0.00365858
-0.0111846
0.0040051
-0.0114728
0.00433754
-0.0116021
0.00465705
-0.0116114
0.00496522
-0.0115337
0.00526383
-0.0113953
0.00555462
-0.0112168
0.00583915
-0.0110136
0.00611881
-0.0107969
0.00639471
-0.0105748
0.00666778
-0.0103525
0.00693873
-0.0101337
0.00720814
-0.00992075
0.00747644
-0.00971493
0.00774397
-0.00951697
0.00801097
-0.00932713
0.00827766
-0.0091454
0.0085442
-0.00897159
0.00881072
-0.00880541
0.00907732
-0.00864648
0.00934407
-0.00849437
0.00961102
-0.00834861
0.00987821
-0.00820871
0.0101456
-0.00807412
0.0104132
-0.00794412
0.0106807
-0.00781758
0.0109479
-0.00769239
-0.00756468
0.0112142
3.11032e-05
0.00167967
0.000125301
0.00303034
0.000283532
0.00285029
0.000503723
0.00162086
0.000780151
-0.000220858
0.00110349
-0.00232206
0.00146186
-0.00442211
0.0018425
-0.00634657
0.00223335
-0.00799531
0.00262424
-0.00932665
0.00300763
-0.010341
0.00337862
-0.0110652
0.00373473
-0.0115407
0.00407531
-0.0118134
0.00440109
-0.0119279
0.00471356
-0.0119239
0.00501461
-0.0118347
0.00530619
-0.0116869
0.00559017
-0.0115008
0.00586822
-0.0112917
0.00614173
-0.0110705
0.00641184
-0.0108449
0.00667947
-0.0106201
0.00694531
-0.0103996
0.00720992
-0.0101854
0.00747372
-0.00997873
0.00773703
-0.00978027
0.00800009
-0.00959019
0.0082631
-0.00940841
0.00852623
-0.00923472
0.0087896
-0.00906879
0.00905333
-0.00891021
0.00931749
-0.00875853
0.00958215
-0.00861328
0.00984737
-0.00847393
0.0101131
-0.00833989
0.0103794
-0.00821038
0.010646
-0.00808415
0.0109125
-0.00795892
-0.00783058
0.0111784
3.39856e-05
0.00164568
0.000135807
0.00292852
0.000304979
0.00268112
0.000537892
0.00138795
0.000827305
-0.000510271
0.00116256
-0.00265731
0.00153075
-0.0047903
0.00191846
-0.00673427
0.00231337
-0.00839021
0.00270537
-0.00971865
0.00308726
-0.0107228
0.00345464
-0.0114326
0.00380554
-0.0118916
0.00413983
-0.0121477
0.00445867
-0.0122467
0.00476392
-0.0122292
0.00505772
-0.0121285
0.0053422
-0.0119714
0.00561936
-0.0117779
0.00589091
-0.0115632
0.00615827
-0.0113378
0.00642259
-0.0111092
0.00668475
-0.0108823
0.00694545
-0.0106603
0.00720522
-0.0104451
0.00746445
-0.010238
0.00772344
-0.0100393
0.00798242
-0.00984918
0.00824161
-0.00966759
0.00850115
-0.00949426
0.00876118
-0.00932881
0.00902181
-0.00917084
0.00928316
-0.00901987
0.0095453
-0.00887541
0.0098083
-0.00873693
0.0100722
-0.00860378
0.0103369
-0.0084751
0.0106023
-0.00834953
0.010868
-0.0082246
-0.00809594
0.0111333
3.67991e-05
0.00160888
0.000146102
0.00281921
0.000326013
0.00250121
0.000571385
0.00114258
0.000873437
-0.000812322
0.00122016
-0.00300404
0.00159764
-0.00516778
0.00199178
-0.00712842
0.00239006
-0.00878849
0.00278252
-0.0101111
0.00316229
-0.0111026
0.00352552
-0.0117958
0.00387076
-0.0122369
0.00419843
-0.0124754
0.0045101
-0.0125584
0.00480797
-0.012527
0.00509444
-0.012415
0.00537179
-0.0122487
0.00564211
-0.0120483
0.00590717
-0.0118283
0.0061684
-0.011599
0.00642693
-0.0113677
0.00668362
-0.011139
0.00693915
-0.0109158
0.00719402
-0.0107
0.00744859
-0.0104925
0.00770316
-0.0102938
0.00795794
-0.010104
0.00821313
-0.00992278
0.00846889
-0.00975001
0.00872535
-0.00958527
0.00898264
-0.00942813
0.00924089
-0.00927811
0.0095002
-0.00913472
0.00976066
-0.0089974
0.0100223
-0.00886546
0.0102852
-0.00873797
0.0105491
-0.00861343
0.0108137
-0.00848914
-0.00836051
0.0110782
3.95462e-05
0.00156934
0.000156185
0.00270258
0.000346623
0.00231077
0.000604164
0.000885035
0.000918471
-0.00112663
0.00127618
-0.00336175
0.00166234
-0.00555394
0.00206225
-0.00752833
0.0024632
-0.00918944
0.00285543
-0.0105033
0.00323248
-0.0114797
0.00359102
-0.0121544
0.00393019
-0.012576
0.00425093
-0.0127961
0.00455523
-0.0128627
0.00484561
-0.0128174
0.00512468
-0.0126941
0.00539489
-0.0125189
0.0056584
-0.0123118
0.005917
-0.0120869
0.00617211
-0.0118542
0.00642486
-0.0116205
0.00667609
-0.0113902
0.00692643
-0.0111661
0.00717634
-0.0109499
0.00742618
-0.0107424
0.00767622
-0.0105439
0.00792665
-0.0103544
0.00817767
-0.0101738
0.00842942
-0.0100018
0.00868206
-0.00983791
0.00893572
-0.00968179
0.00919053
-0.00953293
0.00944665
-0.00939084
0.00970419
-0.00925494
0.00996326
-0.00912452
0.0102238
-0.00899856
0.0104858
-0.00887541
0.0107488
-0.00875214
-0.00862395
0.0110123
4.22316e-05
0.00152711
0.000166059
0.00257875
0.000366799
0.00211003
0.000636194
0.000615639
0.00096234
-0.00145277
0.00133049
-0.0037299
0.00172469
-0.00594814
0.00212968
-0.00793332
0.00253257
-0.00959233
0.00292388
-0.0108946
0.00329759
-0.0118534
0.00365094
-0.0125077
0.00398366
-0.0129088
0.0042972
-0.0131096
0.00459396
-0.0131595
0.00487675
-0.0131002
0.0051484
-0.0129657
0.00541148
-0.012782
0.00566821
-0.0125685
0.00592039
-0.012339
0.00616943
-0.0121032
0.00641643
-0.0118675
0.0066622
-0.011636
0.00690732
-0.0114113
0.00715224
-0.0111948
0.00739728
-0.0109874
0.00764267
-0.0107893
0.00788861
-0.0106003
0.00813526
-0.0104205
0.00838278
-0.0102493
0.00863132
-0.0100864
0.00888101
-0.00993148
0.00913202
-0.00978394
0.00938452
-0.00964333
0.00963867
-0.00950909
0.0098946
-0.00938046
0.0101524
-0.00925634
0.0104119
-0.00913492
0.0106728
-0.00901305
-0.00888573
0.0109346
4.48616e-05
0.00148225
0.000175729
0.00244788
0.000386534
0.00189923
0.000667445
0.000334728
0.00100498
-0.00179031
0.001383
-0.00410792
0.00178456
-0.0063497
0.00219387
-0.00834263
0.00259798
-0.00999644
0.00298766
-0.0112843
0.00335743
-0.0122232
0.00370512
-0.0128554
0.00403103
-0.0132347
0.00433712
-0.0134157
0.00462619
-0.0134485
0.00490134
-0.0133754
0.00516556
-0.0132299
0.00542156
-0.013038
0.00567156
-0.0128185
0.00591738
-0.0125849
0.0061604
-0.0123462
0.00640169
-0.0121088
0.00664201
-0.0118763
0.00688192
-0.0116512
0.0071218
-0.0114347
0.00736196
-0.0112276
0.00760261
-0.0110299
0.0078439
-0.0108416
0.00808601
-0.0106626
0.00832906
-0.0104923
0.0085732
-0.0103306
0.00881857
-0.0101769
0.00906536
-0.0100307
0.00931376
-0.00989173
0.00956398
-0.0097593
0.00981617
-0.00963265
0.0100705
-0.00951063
0.0103268
-0.00939126
0.0105849
-0.00927119
-0.0091452
0.0108444
4.74428e-05
0.00143481
0.000185201
0.00231012
0.000405825
0.00167861
0.000697889
4.26628e-05
0.00104632
-0.00213873
0.00143359
-0.0044952
0.00184179
-0.00675789
0.00225466
-0.00875551
0.00265922
-0.010401
0.00304658
-0.0116717
0.00341183
-0.0125884
0.00375339
-0.013197
0.00407217
-0.0135534
0.0043706
-0.0137142
0.00465188
-0.0137298
0.00491936
-0.0136428
0.00517619
-0.0134868
0.00542515
-0.013287
0.0056685
-0.0130619
0.00590803
-0.0128244
0.00614511
-0.0125833
0.00638073
-0.0123444
0.00661563
-0.0121112
0.00685032
-0.0118858
0.00708515
-0.0116695
0.00732038
-0.0114628
0.00755617
-0.0112657
0.00779269
-0.0110782
0.00803006
-0.0108999
0.0082684
-0.0107307
0.00850785
-0.01057
0.00874854
-0.0104175
0.00899068
-0.0102729
0.00923446
-0.0101355
0.00948012
-0.010005
0.00972788
-0.00988041
0.00997791
-0.00976066
0.0102303
-0.00964361
0.0104848
-0.00952569
-0.00940154
0.0107411
4.99812e-05
0.00138482
0.000194479
0.00216562
0.000424669
0.00144842
0.000727503
-0.000260172
0.0010863
-0.00249753
0.00148217
-0.00489107
0.00189625
-0.00717197
0.00231189
-0.00917115
0.00271615
-0.0108053
0.0031005
-0.012056
0.00346065
-0.0129486
0.00379566
-0.013532
0.004107
-0.0138648
0.0043976
-0.0140048
0.00467101
-0.0140032
0.00493081
-0.0139026
0.00518031
-0.0137363
0.00542231
-0.013529
0.0056591
-0.0132986
0.00589243
-0.0130577
0.00612363
-0.0128145
0.00635366
-0.0125744
0.00658318
-0.0123407
0.00681267
-0.0121153
0.00704243
-0.0118993
0.00727267
-0.011693
0.00750355
-0.0114966
0.00773517
-0.0113098
0.00796763
-0.0111324
0.00820105
-0.0109641
0.00843551
-0.0108045
0.00867117
-0.0106532
0.00890821
-0.0105099
0.00914683
-0.0103741
0.00938729
-0.0102454
0.00962985
-0.010123
0.00987475
-0.0100056
0.0101222
-0.00989101
0.010372
-0.00977557
-0.0096538
0.0106243
5.24817e-05
0.00133234
0.000203571
0.00201454
0.000443062
0.00120893
0.00075626
-0.00057337
0.00112487
-0.00286613
0.00152865
-0.00529486
0.00194783
-0.00759115
0.00236542
-0.00958873
0.00276859
-0.0112084
0.00314927
-0.0124367
0.00350377
-0.0133031
0.00383182
-0.01386
0.00413547
-0.0141684
0.0044181
-0.0142874
0.00468359
-0.0142687
0.00493574
-0.0141548
0.00517797
-0.0139785
0.00541311
-0.0137641
0.00564343
-0.013529
0.00587067
-0.013285
0.00609609
-0.0130399
0.00632059
-0.0127989
0.0065448
-0.0125649
0.00676911
-0.0123397
0.00699381
-0.012124
0.00721904
-0.0119183
0.00744494
-0.0117225
0.00767157
-0.0115364
0.007899
-0.0113598
0.00812729
-0.0111924
0.00835652
-0.0110337
0.00858681
-0.0108835
0.00881832
-0.0107414
0.00905125
-0.0106071
0.00928586
-0.01048
0.00952243
-0.0103595
0.0097613
-0.0102444
0.0100027
-0.0101324
0.0102469
-0.0100198
-0.00990092
0.010494
5.49479e-05
0.0012774
0.000212481
0.001857
0.000461
0.000960407
0.000784134
-0.000896503
0.00116196
-0.00324396
0.00157292
-0.00570582
0.0019964
-0.00801463
0.00241511
-0.0100074
0.00281642
-0.0116097
0.00319277
-0.0128131
0.0035411
-0.0136514
0.00386181
-0.0141807
0.00415754
-0.0144642
0.00443209
-0.0145619
0.00468965
-0.0145263
0.0049342
-0.0143994
0.00516924
-0.0142135
0.00539763
-0.0139925
0.00562161
-0.013753
0.00584287
-0.0135062
0.00606261
-0.0132597
0.00628167
-0.013018
0.00650063
-0.0127839
0.00671982
-0.0125588
0.00693947
-0.0123437
0.00715971
-0.0121385
0.0073806
-0.0119434
0.00760218
-0.011758
0.00782447
-0.0115821
0.0080475
-0.0114154
0.00827129
-0.0112575
0.00849594
-0.0111082
0.00872156
-0.010967
0.00894832
-0.0108338
0.00917646
-0.0107082
0.00940629
-0.0105894
0.00963821
-0.0104764
0.00987265
-0.0103669
0.0101101
-0.0102572
-0.0101418
0.010351
5.73818e-05
0.00122002
0.000221214
0.00169317
0.000478473
0.000703149
0.000811094
-0.00122912
0.00119751
-0.00363038
0.00161491
-0.00612322
0.00204186
-0.00844158
0.00246084
-0.0104264
0.00285952
-0.0120084
0.00323089
-0.0131844
0.00357257
-0.0139931
0.00388561
-0.0144938
0.00417321
-0.0147518
0.00443961
-0.0148283
0.00468924
-0.0147759
0.00492627
-0.0146364
0.00515423
-0.0144415
0.00537599
-0.0142143
0.00559375
-0.0139707
0.00580915
-0.0137216
0.00602332
-0.0134738
0.00623705
-0.0132317
0.00645084
-0.0129976
0.00666498
-0.012773
0.00687964
-0.0125583
0.00709491
-0.0123538
0.00731081
-0.0121592
0.00752733
-0.0119745
0.00774444
-0.0117992
0.00796212
-0.0116331
0.00818035
-0.0114758
0.00839916
-0.011327
0.0086186
-0.0111865
0.0088388
-0.011054
0.00905996
-0.0109293
0.0092824
-0.0108118
0.00950657
-0.0107005
0.00973306
-0.0105934
0.00996268
-0.0104868
-0.0103756
0.0101964
5.97844e-05
0.00116023
0.000229774
0.00152318
0.00049547
0.000437455
0.000837107
-0.00157076
0.00123148
-0.00402475
0.00165451
-0.00654624
0.00208408
-0.00887115
0.00250251
-0.0108448
0.0028978
-0.0124037
0.00326357
-0.0135502
0.00359813
-0.0143276
0.00390319
-0.0147989
0.00418251
-0.0150311
0.0044407
-0.0150865
0.00468245
-0.0150177
0.00491203
-0.014866
0.00513303
-0.0146625
0.00534829
-0.0144295
0.00555998
-0.0141824
0.00576965
-0.0139313
0.00597838
-0.0136826
0.00618688
-0.0134402
0.00639559
-0.0132064
0.00660477
-0.0129822
0.00681453
-0.0127681
0.00702491
-0.0125641
0.00723587
-0.0123702
0.00744737
-0.012186
0.00765932
-0.0120112
0.00787164
-0.0118454
0.00808426
-0.0116884
0.00829714
-0.0115398
0.00851025
-0.0113996
0.00872365
-0.0112674
0.00893748
-0.0111432
0.00915204
-0.0110264
0.00936783
-0.0109163
0.00958564
-0.0108112
0.00980665
-0.0107078
-0.0106013
0.0100324
6.21571e-05
0.00109807
0.000238161
0.00134717
0.000511977
0.00016364
0.000862135
-0.00192092
0.00126379
-0.00442641
0.00169165
-0.0069741
0.00212297
-0.00930247
0.00254001
-0.0112619
0.00293117
-0.0127949
0.00329074
-0.0139098
0.00361776
-0.0146546
0.00391458
-0.0150957
0.00418548
-0.015302
0.00443544
-0.0153365
0.00466935
-0.0152516
0.00489159
-0.0150882
0.00510576
-0.0148767
0.00531467
-0.0146384
0.00552042
-0.0143882
0.0057245
-0.0141354
0.00592791
-0.013886
0.00613131
-0.0136436
0.00633508
-0.0134101
0.0065394
-0.0131865
0.00674436
-0.012973
0.00694994
-0.0127697
0.00715608
-0.0125763
0.00736265
-0.0123926
0.00756953
-0.0122181
0.00777658
-0.0120525
0.00798366
-0.0118955
0.00819065
-0.0117468
0.00839743
-0.0116064
0.00860398
-0.011474
0.00881034
-0.0113495
0.00901678
-0.0112328
0.00922385
-0.0111234
0.00943251
-0.0110198
0.00964438
-0.0109196
-0.0108185
0.0098616
6.45013e-05
0.00103357
0.000246372
0.0011653
0.000527982
-0.000117969
0.00088614
-0.00227908
0.00129439
-0.00483466
0.00172625
-0.00740596
0.00215843
-0.00973465
0.00257325
-0.0116767
0.00295956
-0.0131812
0.00331237
-0.0142626
0.00363145
-0.0149737
0.00391981
-0.015384
0.00418219
-0.0155644
0.00442391
-0.0155782
0.00465007
-0.0154777
0.00486508
-0.0153032
0.00507255
-0.0150841
0.00527525
-0.0148411
0.00547521
-0.0145881
0.00567384
-0.014334
0.00587208
-0.0140842
0.00607051
-0.013842
0.00626945
-0.0136091
0.00646905
-0.0133861
0.00666935
-0.0131733
0.00687028
-0.0129707
0.00707173
-0.0127778
0.00727354
-0.0125944
0.00747553
-0.01242
0.00767749
-0.0122544
0.00787921
-0.0120972
0.00808048
-0.0119481
0.00828112
-0.011807
0.00848096
-0.0116738
0.00867998
-0.0115485
0.00887836
-0.0114312
0.00907669
-0.0113217
0.0092761
-0.0112193
0.00947866
-0.0111222
-0.0110271
0.00968721
6.68189e-05
0.000966754
0.000254401
0.000977719
0.000543467
-0.000407036
0.000909085
-0.00264469
0.00132321
-0.00524878
0.00175822
-0.00784097
0.00219039
-0.0101668
0.00260217
-0.0120885
0.00298294
-0.013562
0.00332845
-0.0146081
0.00363924
-0.0152845
0.00391892
-0.0156637
0.00417271
-0.0158182
0.00440623
-0.0158117
0.00462471
-0.0156962
0.00483261
-0.0155111
0.00503353
-0.0152851
0.00523018
-0.0150378
0.00542449
-0.0147824
0.00561781
-0.0145273
0.00581101
-0.0142774
0.00600461
-0.0140356
0.00619887
-0.0138033
0.0063939
-0.0135811
0.0065897
-0.0133691
0.00678616
-0.0131671
0.00698312
-0.0129748
0.00718039
-0.0127917
0.00737772
-0.0126174
0.00757486
-0.0124516
0.00777153
-0.0122938
0.00796743
-0.012144
0.00816227
-0.0120018
0.00835579
-0.0118673
0.00854785
-0.0117406
0.00873857
-0.0116219
0.00892849
-0.0115116
0.00911894
-0.0114097
0.00931241
-0.0113157
-0.0112271
0.00951245
6.91115e-05
0.000897643
0.00026224
0.00078459
0.000558416
-0.000703212
0.000930932
-0.00301721
0.00135018
-0.00566803
0.00178751
-0.00827829
0.00221878
-0.0105981
0.0026267
-0.0124964
0.00300127
-0.0139365
0.00333899
-0.0149458
0.00364115
-0.0155867
0.00391199
-0.0159346
0.00415715
-0.0160633
0.0043825
-0.0160371
0.0045934
-0.0159071
0.00479433
-0.015712
0.00498885
-0.0154796
0.00517958
-0.0152285
0.00536839
-0.0149712
0.00555655
-0.0147155
0.00574485
-0.0144657
0.00593375
-0.0142245
0.00612349
-0.0139931
0.00631411
-0.0137718
0.00650559
-0.0135606
0.00669778
-0.0133593
0.0068905
-0.0131675
0.00708349
-0.0129847
0.00727649
-0.0128104
0.00746918
-0.0126442
0.00766121
-0.0124859
0.00785221
-0.012335
0.00804179
-0.0121914
0.00822958
-0.0120551
0.00841534
-0.0119264
0.00859906
-0.0118056
0.00878126
-0.0116938
0.00896337
-0.0115918
0.00914829
-0.0115006
-0.011419
0.00934021
7.13791e-05
0.000826264
0.000269882
0.000586087
0.000572808
-0.00100614
0.000951643
-0.00339604
0.00137525
-0.00609165
0.00181402
-0.00871706
0.00224352
-0.0110276
0.0026468
-0.0128997
0.00301453
-0.0143043
0.00334401
-0.0152753
0.00363725
-0.0158799
0.00389912
-0.0161964
0.00413562
-0.0162998
0.00435287
-0.0162543
0.00455629
-0.0161105
0.00475038
-0.0159061
0.00493863
-0.0156678
0.00512359
-0.0154135
0.00530704
-0.0151547
0.00549017
-0.0148986
0.0056737
-0.0146493
0.00585806
-0.0144089
0.00604342
-0.0141784
0.00622982
-0.0139582
0.00641717
-0.013748
0.00660533
-0.0135475
0.00679407
-0.0133562
0.00698312
-0.0131737
0.00717217
-0.0129994
0.00736084
-0.0128329
0.00754875
-0.0126738
0.00773544
-0.0125217
0.00792045
-0.0123764
0.0081033
-0.012238
0.00828361
-0.0121067
0.00846126
-0.0119833
0.00863667
-0.0118692
0.00881132
-0.0117665
0.0089884
-0.0116777
-0.0116033
0.00917269
7.36206e-05
0.000752643
0.000277317
0.00038239
0.000586618
-0.00131544
0.000971177
-0.0037806
0.00139837
-0.00651884
0.0018377
-0.00915639
0.00226458
-0.0114545
0.00266244
-0.0132975
0.00302273
-0.0146646
0.00334353
-0.0155961
0.00362762
-0.016164
0.00388039
-0.0164492
0.00410825
-0.0165277
0.00431745
-0.0164635
0.00451352
-0.0163066
0.0047009
-0.0160935
0.00488302
-0.0158499
0.00506234
-0.0155928
0.00524056
-0.0153329
0.00541879
-0.0150768
0.00559769
-0.0148282
0.00577764
-0.0145888
0.00595878
-0.0143596
0.00614112
-0.0141405
0.00632457
-0.0139314
0.00650894
-0.0137318
0.006694
-0.0135413
0.00687946
-0.0133592
0.00706497
-0.0131849
0.00725014
-0.0130181
0.00743451
-0.0128582
0.0076176
-0.0127048
0.00779884
-0.0125577
0.00797766
-0.0124168
0.00815356
-0.0122826
0.00832623
-0.012156
0.00849594
-0.0120389
0.00866412
-0.0119347
0.00883413
-0.0118477
-0.0117803
0.00901117
7.58335e-05
0.00067681
0.00028454
0.000173683
0.00059982
-0.00163072
0.000989493
-0.00417028
0.00141946
-0.00694881
0.00185849
-0.00959541
0.0022819
-0.0118779
0.00267361
-0.0136893
0.00302589
-0.0150168
0.00333763
-0.0159078
0.00361234
-0.0164387
0.00385594
-0.0166928
0.00407516
-0.0167469
0.00427641
-0.0166648
0.00446522
-0.0164954
0.00464603
-0.0162743
0.00482215
-0.016026
0.00499595
-0.0157666
0.00516906
-0.015506
0.0053425
-0.0152503
0.0055169
-0.0150026
0.00569257
-0.0147645
0.00586964
-0.0145366
0.0060481
-0.014319
0.00622784
-0.0141111
0.00640867
-0.0139127
0.00659036
-0.013723
0.0067726
-0.0135414
0.00695503
-0.0133674
0.00713724
-0.0132003
0.00731874
-0.0130397
0.00749899
-0.012885
0.00767735
-0.012736
0.00785317
-0.0125926
0.00802578
-0.0124552
0.00819467
-0.0123248
0.00835987
-0.0122041
0.00852257
-0.0120974
0.00868615
-0.0120113
-0.0119502
0.00885604
7.80147e-05
0.000598795
0.00029154
-3.98424e-05
0.000612389
-0.00195157
0.00100655
-0.00456443
0.0014385
-0.00738076
0.00187634
-0.0100332
0.00229545
-0.012297
0.00268032
-0.0140741
0.00302404
-0.0153606
0.00332637
-0.0162102
0.00359151
-0.0167038
0.00382589
-0.0169272
0.0040365
-0.0169575
0.00422988
-0.0168582