/*--------------------------------*- C++ -*----------------------------------*\
  =========                 |
  \\      /  F ield         | OpenFOAM: The Open Source CFD Toolbox
   \\    /   O peration     | Website:  https://openfoam.org
    \\  /    A nd           | Version:  7
     \\/     M anipulation  |
\*---------------------------------------------------------------------------*/
FoamFile
{
    version     2.0;
    format      ascii;
    class       volVectorField;
    location    "0.8";
    object      U;
}
// * * * * * * * * * * * * * * * * * * * * * * * * * * * * * * * * * * * * * //

dimensions      [0 1 -1 0 0 0 0];

internalField   nonuniform List<vector> 
32000
(
(-0.0018017 0.0728837 -2.53451e-21)
(-0.00411686 0.144651 0)
(-0.00463361 0.160905 -2.25714e-20)
(-0.00182978 0.139028 0)
(0.00475398 0.0940671 2.35418e-20)
(0.0152099 0.0376355 0)
(0.0291419 -0.0219268 2.43634e-20)
(0.0458638 -0.0790765 -1.85299e-20)
(0.0645922 -0.130442 1.49568e-23)
(0.0845571 -0.174285 1.7037e-23)
(0.105055 -0.210017 -6.42256e-21)
(0.125488 -0.237839 2.59491e-20)
(0.145402 -0.258422 0)
(0.164469 -0.27269 -6.62002e-21)
(0.182485 -0.281656 6.64735e-21)
(0.199341 -0.286312 0)
(0.215002 -0.287571 3.36057e-20)
(0.229484 -0.286226 -6.74673e-21)
(0.242838 -0.282944 0)
(0.255136 -0.278268 1.35961e-20)
(0.266461 -0.272631 1.35728e-20)
(0.276896 -0.26637 0)
(0.286521 -0.259739 0)
(0.295414 -0.252929 0)
(0.303645 -0.24608 0)
(0.311276 -0.239289 0)
(0.318366 -0.232627 0)
(0.324964 -0.226138 0)
(0.331115 -0.219852 -2.69583e-20)
(0.336858 -0.213783 0)
(0.342229 -0.20794 2.67989e-20)
(0.347257 -0.202325 0)
(0.351969 -0.196931 0)
(0.356389 -0.191756 0)
(0.36054 -0.18679 -2.63991e-20)
(0.364443 -0.182022 -1.3177e-20)
(0.368109 -0.177441 3.93335e-20)
(0.371567 -0.173034 -2.46799e-23)
(0.374834 -0.16877 2.59917e-20)
(0.377664 -0.164636 -2.74823e-23)
(-0.00306202 0.0733436 0)
(-0.00617682 0.144888 4.3909e-20)
(-0.00611208 0.160156 1.12963e-20)
(-0.00190243 0.136757 -1.16255e-23)
(0.0065446 0.0899912 -1.17945e-20)
(0.0190305 0.0316809 0)
(0.0349487 -0.0296581 2.41903e-20)
(0.0534767 -0.0883476 -2.45543e-20)
(0.0737535 -0.140932 0)
(0.0949558 -0.185642 -5.05973e-20)
(0.116365 -0.221896 0)
(0.137407 -0.249932 -7.76615e-20)
(0.157659 -0.270474 0)
(0.176831 -0.284504 0)
(0.194766 -0.293092 2.65714e-20)
(0.211398 -0.297279 -2.66565e-20)
(0.226728 -0.298019 -2.68673e-20)
(0.240808 -0.296138 0)
(0.253718 -0.292321 8.09762e-20)
(0.26555 -0.287128 -2.70446e-20)
(0.2764 -0.280999 -1.7392e-23)
(0.286368 -0.274278 -8.13026e-20)
(0.295542 -0.267219 -5.42044e-20)
(0.304005 -0.260012 -2.71643e-20)
(0.311828 -0.252796 8.12382e-20)
(0.319077 -0.245669 -8.11825e-20)
(0.32581 -0.238694 8.11332e-20)
(0.332078 -0.231915 -1.07781e-19)
(0.337924 -0.22536 -2.67761e-20)
(0.343386 -0.219041 1.36208e-22)
(0.348497 -0.212963 -8.01243e-20)
(0.353285 -0.207125 -5.32805e-20)
(0.357778 -0.201525 1.06209e-19)
(0.361996 -0.196152 -1.05709e-19)
(0.365961 -0.190999 -2.62131e-20)
(0.369689 -0.186054 -1.04907e-19)
(0.373197 -0.181306 5.17704e-23)
(0.37651 -0.176733 2.59973e-20)
(0.379636 -0.172309 -1.0337e-19)
(0.382314 -0.168006 -1.38601e-19)
(-0.00435554 0.0736389 -1.00606e-20)
(-0.00826874 0.144812 -2.19885e-20)
(-0.00756115 0.159043 -1.00854e-19)
(-0.00186065 0.134133 0)
(0.00855254 0.0855906 1.17138e-20)
(0.0231708 0.0254543 -1.19128e-20)
(0.0411814 -0.0375882 -1.45303e-19)
(0.0616078 -0.0977266 4.92784e-20)
(0.0834844 -0.151433 -2.4969e-20)
(0.105952 -0.196912 1.51366e-19)
(0.128287 -0.233592 5.10942e-20)
(0.149926 -0.261751 2.594e-20)
(0.170486 -0.282176 -1.04025e-19)
(0.189729 -0.295907 0)
(0.207544 -0.304071 0)
(0.223909 -0.307759 5.32722e-20)
(0.23887 -0.307966 1.332e-22)
(0.252512 -0.30554 -5.36124e-20)
(0.264944 -0.301192 -5.39337e-20)
(0.276279 -0.295493 -1.07751e-19)
(0.286632 -0.288891 1.62023e-19)
(0.296112 -0.281728 1.44253e-22)
(0.304817 -0.274263 4.00752e-23)
(0.312833 -0.266684 5.40469e-20)
(0.320235 -0.259127 -1.08246e-19)
(0.327091 -0.251684 2.15795e-19)
(0.33346 -0.244421 0)
(0.33939 -0.237376 5.38675e-20)
(0.344923 -0.230572 5.37333e-20)
(0.350098 -0.224022 1.07114e-19)
(0.354944 -0.217728 1.3585e-22)
(0.359488 -0.211687 0)
(0.363756 -0.205894 5.29344e-20)
(0.367769 -0.20034 -5.25574e-20)
(0.371543 -0.195014 -5.22329e-20)
(0.375095 -0.189905 1.5705e-19)
(0.378443 -0.184998 -1.55795e-19)
(0.381606 -0.180272 1.03708e-19)
(0.384586 -0.175697 -1.54318e-19)
(0.387109 -0.171236 5.50281e-20)
(-0.00566672 0.0737133 8.00587e-20)
(-0.0103656 0.144334 -8.71924e-20)
(-0.00894401 0.157443 1.78942e-19)
(-0.00166339 0.131008 0)
(0.0108205 0.0807309 6.98154e-20)
(0.0276847 0.0188532 1.18593e-19)
(0.0478778 -0.0457856 2.45104e-20)
(0.0702649 -0.10726 4.85723e-23)
(0.0937889 -0.16197 7.43941e-20)
(0.11754 -0.208091 -2.5558e-20)
(0.140789 -0.245085 1.27064e-19)
(0.163 -0.273273 -1.54228e-19)
(0.183836 -0.2935 1.55866e-19)
(0.203108 -0.306868 -5.24166e-20)
(0.220759 -0.314563 5.26335e-20)
(0.236816 -0.317725 -1.05859e-19)
(0.251367 -0.317382 -1.59727e-19)
(0.264537 -0.314412 5.34289e-20)
(0.27646 -0.309539 -5.37183e-20)
(0.287272 -0.303348 1.61474e-19)
(0.297105 -0.29629 -1.07917e-19)
(0.306079 -0.28871 -1.07642e-19)
(0.314299 -0.280863 0)
(0.321856 -0.272936 0)
(0.328829 -0.265063 -1.0755e-19)
(0.335284 -0.257333 -1.07782e-19)
(0.34128 -0.249804 -1.07221e-19)
(0.346866 -0.242514 0)
(0.352083 -0.235485 0)
(0.356964 -0.228723 -2.131e-19)
(0.361541 -0.222231 -1.69551e-22)
(0.36584 -0.216006 1.0609e-19)
(0.36988 -0.210037 -1.05422e-19)
(0.373683 -0.204316 -1.05172e-19)
(0.377265 -0.198832 1.04956e-19)
(0.380641 -0.193571 0)
(0.383824 -0.188518 1.03918e-19)
(0.386836 -0.183651 -2.0636e-19)
(0.38967 -0.178931 2.05589e-19)
(0.392033 -0.174323 -2.20056e-19)
(-0.00697918 0.0736083 -4.01054e-20)
(-0.0124391 0.143516 6.54299e-20)
(-0.0102449 0.155436 -8.93106e-20)
(-0.00129451 0.127468 0)
(0.013365 0.0755022 -1.1642e-19)
(0.0325698 0.0119484 -7.11934e-20)
(0.0550265 -0.0542002 9.64071e-20)
(0.0794348 -0.116898 0)
(0.104634 -0.172487 -1.48794e-19)
(0.129672 -0.219138 -5.03933e-20)
(0.153823 -0.256337 -5.08355e-20)
(0.176577 -0.284458 1.02859e-19)
(0.197648 -0.304408 -1.03473e-19)
(0.216908 -0.317355 5.20806e-20)
(0.234351 -0.32454 0)
(0.250058 -0.327152 1.58761e-19)
(0.264161 -0.326249 5.335e-20)
(0.276825 -0.322735 -1.06739e-19)
(0.288212 -0.317349 2.13888e-19)
(0.298478 -0.310682 -2.14381e-19)
(0.30777 -0.30319 2.1442e-19)
(0.316224 -0.295215 1.07641e-19)
(0.323949 -0.287013 0)
(0.331036 -0.278766 1.07546e-19)
(0.337569 -0.270603 2.84117e-22)
(0.343618 -0.26261 0)
(0.349238 -0.254841 1.0722e-19)
(0.354475 -0.24733 -1.06886e-19)
(0.359371 -0.240095 1.06441e-19)
(0.363959 -0.233144 2.12715e-19)
(0.368264 -0.226475 -2.11761e-19)
(0.372312 -0.220081 2.11135e-19)
(0.376125 -0.213954 0)
(0.379718 -0.208082 0)
(0.383106 -0.202453 2.08522e-19)
(0.386304 -0.197053 0)
(0.389323 -0.191865 0)
(0.392185 -0.186866 -2.05449e-19)
(0.394872 -0.182014 2.04527e-19)
(0.397069 -0.177268 1.09812e-19)
(-0.0082858 0.0733307 1.99022e-20)
(-0.0144722 0.142322 0)
(-0.011433 0.152967 1.77327e-19)
(-0.000719934 0.123462 2.27169e-20)
(0.0162098 0.0698447 2.3203e-20)
(0.0378427 0.00469625 1.41186e-19)
(0.0626322 -0.0628439 1.91415e-19)
(0.0891049 -0.126638 0)
(0.115998 -0.182981 4.94006e-20)
(0.142318 -0.230033 1.49596e-19)
(0.167343 -0.267321 2.01818e-19)
(0.190607 -0.295279 -5.11537e-20)
(0.211873 -0.314875 -1.54362e-19)
(0.231072 -0.327344 0)
(0.248261 -0.333982 2.08976e-19)
(0.263577 -0.336022 0)
(0.277199 -0.334553 3.17206e-19)
(0.289325 -0.330498 -1.0611e-19)
(0.300148 -0.324611 0)
(0.309848 -0.317489 -1.06926e-19)
(0.318586 -0.309586 -2.99643e-22)
(0.326504 -0.301243 -1.06591e-19)
(0.333721 -0.292712 -1.07e-19)
(0.340334 -0.284173 1.07164e-19)
(0.346424 -0.275747 -1.06883e-19)
(0.35206 -0.267516 0)
(0.357301 -0.259531 -1.06734e-19)
(0.362189 -0.251824 1.06326e-19)
(0.366761 -0.244408 0)
(0.371051 -0.237288 0)
(0.375085 -0.23046 0)
(0.378885 -0.223917 -2.10402e-19)
(0.382467 -0.217647 2.09291e-19)
(0.385849 -0.211639 0)
(0.389044 -0.20588 -1.04064e-19)
(0.392065 -0.200353 0)
(0.39492 -0.195043 2.0602e-19)
(0.397632 -0.189922 -1.02088e-19)
(0.400172 -0.184947 -2.04029e-19)
(0.402203 -0.180074 2.18166e-19)
(-0.00957366 0.0728844 1.38481e-19)
(-0.0164371 0.140772 -1.94063e-19)
(-0.0124824 0.150058 -3.31875e-19)
(7.79113e-05 0.118999 -1.80635e-19)
(0.0193671 0.0637794 -4.61837e-20)
(0.0435094 -0.00287332 -9.43303e-20)
(0.070689 -0.0716963 -4.29849e-19)
(0.0992547 -0.136459 -1.45033e-19)
(0.127848 -0.193417 -2.45351e-19)
(0.155438 -0.240743 -2.49345e-19)
(0.18131 -0.278008 -3.52602e-19)
(0.205038 -0.305707 -2.03188e-19)
(0.226451 -0.324872 7.46353e-22)
(0.245546 -0.33681 -2.06762e-19)
(0.262438 -0.342869 -2.08972e-19)
(0.277321 -0.344319 -3.14519e-19)
(0.290424 -0.342278 2.10112e-19)
(0.301986 -0.337691 -1.05731e-19)
(0.312224 -0.331322 0)
(0.321336 -0.323765 2.12482e-19)
(0.329506 -0.315475 0)
(0.336883 -0.306792 4.26761e-19)
(0.343585 -0.297962 0)
(0.349714 -0.289158 -1.06777e-19)
(0.355358 -0.280497 1.0707e-19)
(0.360583 -0.272055 -2.12714e-19)
(0.365441 -0.26388 0)
(0.369976 -0.255999 -2.12211e-19)
(0.374225 -0.248424 2.11329e-19)
(0.378219 -0.241155 0)
(0.38198 -0.234188 0)
(0.38553 -0.227513 0)
(0.388884 -0.221119 -2.08247e-19)
(0.392057 -0.214991 0)
(0.39506 -0.209115 -2.07079e-19)
(0.397904 -0.203476 4.12013e-19)
(0.400597 -0.198055 -4.10107e-19)
(0.40316 -0.192823 2.03358e-19)
(0.405555 -0.187734 4.06117e-19)
(0.407417 -0.182744 -2.17298e-19)
(-0.0108335 0.0722815 -1.78056e-19)
(-0.0183127 0.138862 6.49357e-22)
(-0.0133696 0.146701 1.76668e-19)
(0.00112465 0.114084 3.60593e-19)
(0.0228564 0.0573107 -4.60121e-20)
(0.0495712 -0.0107592 -1.86985e-19)
(0.0791853 -0.080743 1.90629e-19)
(0.10987 -0.146336 2.90178e-19)
(0.140163 -0.203773 9.82966e-20)
(0.168995 -0.251245 2.47547e-19)
(0.195674 -0.288371 2.01071e-19)
(0.219828 -0.315713 3.04059e-19)
(0.24134 -0.334379 6.14114e-19)
(0.260276 -0.345736 3.09728e-19)
(0.276823 -0.351182 0)
(0.291239 -0.352029 1.04784e-19)
(0.303793 -0.34942 1.04156e-19)
(0.314758 -0.344312 1.04971e-19)
(0.324389 -0.337476 2.11602e-19)
(0.332906 -0.329509 -1.06706e-19)
(0.340496 -0.320861 0)
(0.347319 -0.311867 -7.78839e-22)
(0.353502 -0.302767 -2.12264e-19)
(0.359149 -0.293726 2.1219e-19)
(0.364344 -0.284857 4.24792e-19)
(0.369153 -0.276231 4.23993e-19)
(0.37363 -0.267891 -2.2568e-22)
(0.377814 -0.25986 2.10851e-19)
(0.38174 -0.252147 2.10297e-19)
(0.385437 -0.244751 -2.09671e-19)
(0.388927 -0.237664 2.0898e-19)
(0.392228 -0.230876 2.08231e-19)
(0.395355 -0.224372 4.15676e-19)
(0.398319 -0.218141 -5.61559e-22)
(0.401132 -0.212164 6.17913e-19)
(0.403802 -0.206426 -2.68079e-22)
(0.406335 -0.200906 -2.03811e-19)
(0.408752 -0.195574 -2.03657e-19)
(0.411003 -0.190381 2.01807e-19)
(0.412698 -0.185283 2.16122e-19)
(-0.0120581 0.0715219 1.57078e-19)
(-0.0200801 0.136605 2.14687e-19)
(-0.0140661 0.142909 1.31434e-19)
(0.00244011 0.108719 -1.35028e-19)
(0.0266856 0.0504427 -2.28699e-19)
(0.0560356 -0.0189441 1.86925e-19)
(0.0881228 -0.089963 0)
(0.120932 -0.156251 1.92111e-19)
(0.152909 -0.214026 0)
(0.18296 -0.261511 -3.95282e-19)
(0.210405 -0.298383 1.00129e-19)
(0.234926 -0.325279 -5.04985e-19)
(0.256483 -0.343375 -2.04326e-19)
(0.275215 -0.354103 1.02201e-19)
(0.291376 -0.35891 2.93035e-22)
(0.305279 -0.359144 -1.04012e-19)
(0.317252 -0.355971 -2.09728e-19)
(0.327604 -0.350356 -4.20358e-19)
(0.33661 -0.343075 0)
(0.344513 -0.334725 -1.72751e-22)
(0.351516 -0.325748 -2.11422e-19)
(0.357784 -0.316471 -2.12212e-19)
(0.363445 -0.307129 2.12262e-19)
(0.368606 -0.297882 -2.12769e-19)
(0.373352 -0.288833 2.11201e-19)
(0.377749 -0.280048 -4.22845e-19)
(0.381844 -0.271567 -2.34807e-22)
(0.385678 -0.263411 -4.21133e-19)
(0.389282 -0.255583 -2.10296e-19)
(0.392684 -0.24808 2.52682e-22)
(0.395905 -0.240892 -5.59237e-22)
(0.398959 -0.234008 -2.0823e-19)
(0.401859 -0.227415 -2.0743e-19)
(0.404617 -0.221095 -8.30355e-22)
(0.407242 -0.215031 -2.05695e-19)
(0.40974 -0.209208 -8.3812e-22)
(0.412117 -0.203602 -2.03259e-19)
(0.41439 -0.198181 6.065e-19)
(0.416502 -0.192894 -2.01806e-19)
(0.418028 -0.187699 -2.16157e-19)
(-0.0132346 0.0706103 -1.57081e-19)
(-0.0217164 0.134007 4.27009e-20)
(-0.0145548 0.138684 -1.31566e-19)
(0.00404523 0.102915 -4.47118e-20)
(0.0308771 0.0431926 1.82907e-19)
(0.0629076 -0.0274125 -4.64964e-20)
(0.09749 -0.099341 4.71957e-20)
(0.132431 -0.166179 -2.88086e-19)
(0.166073 -0.224147 9.70929e-20)
(0.197296 -0.271514 1.97266e-19)
(0.225455 -0.308023 0)
(0.250293 -0.334381 4.02596e-19)
(0.271841 -0.35184 0)
(0.290313 -0.361896 -4.09713e-19)
(0.30604 -0.366046 -2.05922e-19)
(0.3194 -0.365661 0)
(0.330763 -0.361928 0)
(0.340475 -0.355826 4.18799e-19)
(0.348842 -0.348126 2.10275e-19)
(0.356125 -0.339417 -4.21043e-19)
(0.362535 -0.330139 2.10634e-19)
(0.368243 -0.32061 0)
(0.373382 -0.311058 -2.1126e-19)
(0.378059 -0.301632 4.21179e-19)
(0.382359 -0.292429 -2.10622e-19)
(0.386343 -0.283513 -2.10673e-19)
(0.390059 -0.274917 2.09947e-19)
(0.393545 -0.266658 0)
(0.39683 -0.258736 4.1789e-19)
(0.39994 -0.251146 -2.08292e-19)
(0.402893 -0.243878 -2.07893e-19)
(0.405702 -0.236917 -2.89639e-22)
(0.408378 -0.23025 8.24467e-19)
(0.410932 -0.223858 -6.16137e-19)
(0.413372 -0.217724 0)
(0.415701 -0.211828 -2.03931e-19)
(0.417924 -0.20615 -4.05364e-19)
(0.420058 -0.200651 2.00851e-19)
(0.422033 -0.195279 2.00095e-19)
(0.423392 -0.189999 0)
(-0.0143593 0.0695559 -3.11666e-19)
(-0.0232054 0.131073 -4.25336e-20)
(-0.014807 0.134039 3.47994e-19)
(0.00596196 0.0966858 -3.55823e-19)
(0.0354395 0.0355723 0)
(0.0701949 -0.0361493 0)
(0.107292 -0.108851 -9.41715e-20)
(0.144351 -0.176093 -1.90333e-22)
(0.179624 -0.234115 9.67206e-20)
(0.211977 -0.281234 0)
(0.240793 -0.317264 0)
(0.265884 -0.342997 -1.00492e-19)
(0.287363 -0.359762 3.12879e-22)
(0.305526 -0.36911 1.02584e-19)
(0.320777 -0.372579 2.05919e-19)
(0.333554 -0.371573 0)
(0.344281 -0.367296 2.0804e-19)
(0.353336 -0.360726 -2.08516e-19)
(0.361053 -0.35263 -4.18505e-19)
(0.367708 -0.343592 4.19457e-19)
(0.373522 -0.334044 4.16654e-22)
(0.37867 -0.324295 -2.10025e-19)
(0.383288 -0.314561 2.10455e-19)
(0.387484 -0.304984 -4.20594e-19)
(0.39134 -0.295656 0)
(0.394915 -0.286633 2.09855e-19)
(0.398255 -0.277946 -4.18586e-19)
(0.401395 -0.269606 2.08655e-19)
(0.404365 -0.261612 -2.08662e-19)
(0.407185 -0.253956 -2.07758e-19)
(0.409872 -0.246625 -2.07341e-19)
(0.412438 -0.239607 8.24615e-19)
(0.414893 -0.232883 -6.16176e-19)
(0.417246 -0.226436 -4.09247e-19)
(0.419503 -0.220246 4.06906e-19)
(0.421667 -0.214294 0)
(0.423739 -0.208556 4.03636e-19)
(0.425737 -0.202992 -4.01111e-19)
(0.42758 -0.197547 -2.00095e-19)
(0.428772 -0.192192 0)
(-0.0154218 0.0683606 6.60979e-19)
(-0.0245289 0.127819 2.95962e-19)
(-0.0148058 0.128987 -3.47991e-19)
(0.00821057 0.0900427 3.11404e-19)
(0.0403935 0.0276 -4.53635e-20)
(0.0779056 -0.0451288 9.21667e-20)
(0.117522 -0.118471 0)
(0.156683 -0.185974 -9.52407e-20)
(0.193547 -0.243903 9.63468e-20)
(0.226969 -0.290643 9.78394e-20)
(0.256378 -0.326089 -9.86921e-20)
(0.281658 -0.351115 -1.00043e-19)
(0.303007 -0.367127 1.00668e-19)
(0.320807 -0.375732 0)
(0.335539 -0.378509 0)
(0.347702 -0.376887 -2.0625e-19)
(0.357767 -0.372077 2.06735e-19)
(0.366151 -0.36506 -2.08061e-19)
(0.373208 -0.356597 2.08229e-19)
(0.379231 -0.347261 2.09147e-19)
(0.384448 -0.337473 -4.18492e-19)
(0.389038 -0.327534 4.18835e-19)
(0.393139 -0.317648 3.73211e-22)
(0.396858 -0.307948 -2.09192e-19)
(0.400274 -0.298521 0)
(0.403444 -0.289417 2.09029e-19)
(0.406412 -0.280662 3.13423e-22)
(0.409211 -0.272264 -2.07827e-19)
(0.411868 -0.264217 0)
(0.414401 -0.256514 4.13829e-19)
(0.416825 -0.249142 -4.11858e-19)
(0.41915 -0.242084 0)
(0.421386 -0.235321 4.0925e-19)
(0.42354 -0.228835 -4.06996e-19)
(0.425618 -0.222606 0)
(0.427619 -0.216612 0)
(0.429543 -0.21083 0)
(0.43141 -0.205213 -3.99878e-19)
(0.433124 -0.199707 3.97316e-19)
(0.43415 -0.194289 4.26473e-19)
(-0.0164165 0.0670314 -3.10419e-19)
(-0.0256689 0.124251 -3.38325e-19)
(-0.0145271 0.12354 -4.32679e-20)
(0.0108116 0.083007 1.3268e-19)
(0.0457528 0.0192967 -1.80449e-19)
(0.0860485 -0.0543332 1.83723e-19)
(0.128181 -0.128178 -1.8674e-19)
(0.169412 -0.195791 -2.83631e-19)
(0.207816 -0.253486 0)
(0.242243 -0.29972 -9.74615e-20)
(0.272175 -0.334477 9.83109e-20)
(0.297573 -0.358718 0)
(0.31873 -0.373925 2.01191e-19)
(0.336115 -0.381759 -2.02229e-19)
(0.350286 -0.383836 -6.11439e-19)
(0.361804 -0.381603 -5.48623e-22)
(0.371186 -0.376279 4.1241e-19)
(0.378885 -0.36884 -2.06782e-19)
(0.385277 -0.360036 0)
(0.390667 -0.350432 0)
(0.395289 -0.340437 4.16077e-19)
(0.399325 -0.330337 2.08799e-19)
(0.402914 -0.320328 -2.08456e-19)
(0.406162 -0.310533 -2.08724e-19)
(0.409143 -0.301033 4.16691e-19)
(0.411914 -0.291873 -2.07877e-19)
(0.414514 -0.283072 4.15569e-19)
(0.416977 -0.274635 -8.28556e-19)
(0.419324 -0.266557 8.2627e-19)
(0.421573 -0.258828 -8.23697e-19)
(0.423735 -0.251432 8.20864e-19)
(0.425822 -0.244352 -8.17797e-19)
(0.427841 -0.237568 4.07002e-19)
(0.429799 -0.23106 4.05783e-19)
(0.431698 -0.224808 5.0351e-22)
(0.433539 -0.21879 4.98211e-22)
(0.435319 -0.212978 -3.99626e-19)
(0.437058 -0.207322 1.13217e-21)
(0.438646 -0.201766 -3.95549e-19)
(0.439508 -0.196301 0)
(-0.0173371 0.0655744 3.85669e-20)
(-0.0266106 0.120383 -4.20532e-20)
(-0.0139502 0.117716 1.29255e-19)
(0.0137869 0.0755951 -1.76177e-19)
(0.0515335 0.0106834 8.98201e-20)
(0.0946309 -0.0637355 0)
(0.139267 -0.137944 0)
(0.182527 -0.205519 3.78306e-19)
(0.222409 -0.262839 4.77909e-19)
(0.257768 -0.308441 -9.68043e-20)
(0.288146 -0.34241 4.8978e-19)
(0.31359 -0.365795 -9.89623e-20)
(0.334489 -0.380149 0)
(0.351406 -0.387188 0)
(0.364977 -0.38856 4.07175e-19)
(0.375821 -0.385727 0)
(0.384503 -0.379909 2.04384e-19)
(0.391508 -0.372074 -2.05682e-19)
(0.397233 -0.362961 0)
(0.40199 -0.35312 -4.1384e-19)
(0.406021 -0.342948 -2.08249e-19)
(0.40951 -0.332718 -6.22368e-19)
(0.412594 -0.322613 -2.07999e-19)
(0.415377 -0.31275 2.07552e-19)
(0.417931 -0.303202 4.14199e-19)
(0.420307 -0.294007 0)
(0.422545 -0.285182 4.12737e-19)
(0.424676 -0.276728 8.24608e-19)
(0.426717 -0.268638 5.53568e-22)
(0.428684 -0.260901 -4.09869e-19)
(0.430587 -0.2535 -4.08972e-19)
(0.432438 -0.246415 4.06915e-19)
(0.434242 -0.239628 4.05769e-19)
(0.436004 -0.233116 -8.07559e-19)
(0.437727 -0.226859 8.03911e-19)
(0.43941 -0.220832 -4.00949e-19)
(0.441049 -0.215006 3.97859e-19)
(0.442662 -0.209327 7.92141e-19)
(0.444127 -0.203737 3.93085e-19)
(0.444823 -0.198239 4.21642e-19)
(-0.0181768 0.0639942 -3.06653e-19)
(-0.0273379 0.116229 2.92383e-19)
(-0.0130556 0.111533 -2.56757e-19)
(0.0171558 0.0678287 2.62468e-19)
(0.0577515 0.00178441 4.46802e-19)
(0.10366 -0.0733089 -3.63801e-19)
(0.150778 -0.147741 4.62465e-19)
(0.196015 -0.215133 2.81394e-19)
(0.237303 -0.271935 -6.67176e-19)
(0.273513 -0.316786 1.92345e-19)
(0.304253 -0.349871 9.60218e-20)
(0.329668 -0.372332 1.97782e-19)
(0.350246 -0.385794 1.98882e-19)
(0.366643 -0.392019 -4.01193e-19)
(0.379574 -0.392688 4.04044e-19)
(0.389721 -0.38927 6.10347e-19)
(0.397689 -0.38298 -6.14415e-19)
(0.403993 -0.374776 8.21732e-19)
(0.409049 -0.365384 4.11306e-19)
(0.413178 -0.355339 6.20555e-19)
(0.416625 -0.34502 2.062e-19)
(0.419574 -0.334688 4.14768e-19)
(0.422162 -0.324515 -4.13162e-19)
(0.424487 -0.31461 0)
(0.426621 -0.305036 -1.24039e-18)
(0.428611 -0.295829 8.25426e-19)
(0.430493 -0.287 -4.12159e-19)
(0.432295 -0.278548 -4.11181e-19)
(0.434033 -0.270466 -5.91269e-22)
(0.435721 -0.262738 0)
(0.437368 -0.255349 0)
(0.438983 -0.248278 4.04547e-19)
(0.440573 -0.241504 -4.04005e-19)
(0.442141 -0.235006 4.01779e-19)
(0.443688 -0.228761 -4.00412e-19)
(0.445213 -0.222744 -3.98498e-19)
(0.446711 -0.216922 0)
(0.4482 -0.211236 -3.94046e-19)
(0.449542 -0.205627 -3.9266e-19)
(0.450071 -0.200114 -1.26378e-18)
(-0.0189295 0.0622973 3.06624e-19)
(-0.0278352 0.111802 -2.92609e-19)
(-0.0118236 0.10501 3.42532e-19)
(0.0209371 0.059732 -6.11666e-19)
(0.0644208 -0.00737299 -4.46441e-19)
(0.113143 -0.0830249 3.63798e-19)
(0.162707 -0.157541 -7.38034e-19)
(0.209861 -0.224601 -3.75325e-19)
(0.252476 -0.28075 4.75647e-19)
(0.289446 -0.324732 -8.65469e-19)
(0.320462 -0.356845 -5.84951e-19)
(0.345769 -0.378322 -1.96246e-19)
(0.36596 -0.390856 -5.96766e-19)
(0.381788 -0.396258 6.01085e-19)
(0.394044 -0.396227 -4.04041e-19)
(0.40347 -0.39224 -4.06459e-19)
(0.410713 -0.385504 0)
(0.416314 -0.376961 -4.10064e-19)
(0.420704 -0.367322 -6.16765e-19)
(0.424211 -0.357103 2.05486e-19)
(0.427083 -0.346667 -4.12811e-19)
(0.429502 -0.336262 0)
(0.431603 -0.326047 4.13162e-19)
(0.43348 -0.316122 4.12434e-19)
(0.435202 -0.306546 -4.09664e-19)
(0.436812 -0.297346 0)
(0.438344 -0.288532 0)
(0.439822 -0.280102 0)
(0.441261 -0.272044 -1.73509e-21)
(0.442672 -0.264343 0)
(0.444065 -0.256983 -8.09821e-19)
(0.445445 -0.249942 -1.11784e-21)
(0.44682 -0.243199 -8.03332e-19)
(0.448193 -0.236732 8.00469e-19)
(0.449564 -0.230517 -3.98169e-19)
(0.45093 -0.224528 3.97376e-19)
(0.452287 -0.218729 0)
(0.453651 -0.213054 7.86018e-19)
(0.454869 -0.207444 -3.90141e-19)
(0.455227 -0.201935 0)
(-0.0195898 0.0604903 3.80918e-20)
(-0.0280884 0.107116 0)
(-0.0102355 0.0981679 -4.24931e-19)
(0.0251494 0.0513299 5.22916e-19)
(0.0715547 -0.0167604 2.65717e-19)
(0.123083 -0.0928531 -3.60877e-19)
(0.175051 -0.167312 3.68276e-19)
(0.224047 -0.233896 -3.72335e-19)
(0.2679 -0.289259 0)
(0.305537 -0.332263 3.83952e-19)
(0.336735 -0.36332 -3.86962e-19)
(0.361854 -0.383757 1.53607e-21)
(0.381595 -0.395337 0)
(0.396805 -0.399908 3.9807e-19)
(0.408354 -0.399188 -1.99781e-19)
(0.417041 -0.394652 4.03823e-19)
(0.423551 -0.387497 2.0249e-19)
(0.428449 -0.378646 -4.06843e-19)
(0.432178 -0.36879 0)
(0.435072 -0.358428 6.14023e-19)
(0.437379 -0.347904 2.04544e-19)
(0.439279 -0.337452 0)
(0.440904 -0.32722 0)
(0.442344 -0.317299 0)
(0.443663 -0.30774 4.10826e-19)
(0.444901 -0.298567 0)
(0.446089 -0.289787 -4.08727e-19)
(0.447248 -0.281394 8.1486e-19)
(0.448391 -0.273376 -8.13121e-19)
(0.449528 -0.265719 0)
(0.450666 -0.258404 4.04352e-19)
(0.451811 -0.251409 -4.01004e-19)
(0.452971 -0.244713 4.01108e-19)
(0.454146 -0.238294 0)
(0.455338 -0.232127 0)
(0.456542 -0.226185 3.94868e-19)
(0.457755 -0.220428 -3.92463e-19)
(0.458992 -0.214784 7.8162e-19)
(0.460083 -0.209192 -7.76613e-19)
(0.460264 -0.203709 0)
(-0.0201522 0.0585793 2.64851e-19)
(-0.0280834 0.102189 8.26857e-20)
(-0.00827351 0.0910293 3.39767e-19)
(0.0298094 0.0426495 3.46018e-19)
(0.079165 -0.0263479 -3.54461e-19)
(0.133483 -0.102762 3.60875e-19)
(0.187801 -0.177023 3.6531e-19)
(0.238558 -0.242988 3.72332e-19)
(0.283548 -0.297435 0)
(0.321751 -0.339358 3.80918e-19)
(0.353037 -0.369283 3.8696e-19)
(0.377887 -0.388635 3.91089e-19)
(0.397114 -0.399238 0)
(0.411663 -0.402977 -1.5606e-21)
(0.422475 -0.401582 4.00896e-19)
(0.430408 -0.396521 -2.01788e-19)
(0.43618 -0.388975 -2.03576e-19)
(0.440378 -0.379847 6.1008e-19)
(0.443454 -0.369807 4.26891e-22)
(0.445746 -0.359331 -2.05496e-19)
(0.447501 -0.348748 -4.09518e-19)
(0.448895 -0.338274 0)
(0.450056 -0.328048 0)
(0.45107 -0.318151 0)
(0.451995 -0.308628 0)
(0.452869 -0.2995 0)
(0.453719 -0.290769 0)
(0.454564 -0.282429 4.05942e-19)
(0.455415 -0.274467 -4.04256e-19)
(0.456278 -0.266868 0)
(0.457162 -0.259611 0)
(0.458072 -0.252677 4.01006e-19)
(0.459013 -0.246044 0)
(0.459988 -0.239689 3.96843e-19)
(0.460996 -0.233589 -3.94574e-19)
(0.462033 -0.227713 0)
(0.463096 -0.222018 7.82046e-19)
(0.464201 -0.216425 -7.77154e-19)
(0.465158 -0.210872 0)
(0.465154 -0.205442 0)
(-0.0206113 0.0565702 -3.02819e-19)
(-0.0278069 0.0970336 -8.2415e-20)
(-0.0059206 0.0836167 8.4388e-20)
(0.0349327 0.0337191 -3.46017e-19)
(0.0872616 -0.0361038 0)
(0.144346 -0.112718 0)
(0.200949 -0.186641 -2.74082e-19)
(0.253374 -0.251848 -9.24346e-20)
(0.299395 -0.305257 -1.87908e-19)
(0.338056 -0.346 -1.91109e-19)
(0.369335 -0.374726 -1.92645e-19)
(0.393834 -0.392952 1.94078e-19)
(0.412485 -0.402564 1.95161e-19)
(0.426329 -0.405476 -1.98951e-19)
(0.43638 -0.403422 0)
(0.443546 -0.397862 0)
(0.44858 -0.389956 -4.0366e-19)
(0.452084 -0.380583 0)
(0.454517 -0.370389 0)
(0.45622 -0.359829 4.05215e-19)
(0.457436 -0.349213 7.35326e-22)
(0.458339 -0.338742 -4.82305e-22)
(0.459049 -0.328543 -4.07603e-19)
(0.459648 -0.318689 4.06729e-19)
(0.46019 -0.309221 4.05699e-19)
(0.460709 -0.300153 -4.05004e-19)
(0.461228 -0.291486 0)
(0.461764 -0.283212 4.04185e-19)
(0.462324 -0.275318 4.6423e-22)
(0.462916 -0.267789 -4.0117e-19)
(0.463546 -0.260605 0)
(0.464218 -0.253744 0)
(0.464938 -0.247188 3.96817e-19)
(0.465706 -0.240913 -3.94632e-19)
(0.466523 -0.234896 -3.93139e-19)
(0.467386 -0.229105 3.90815e-19)
(0.468291 -0.223493 0)
(0.469254 -0.217972 0)
(0.470066 -0.212484 0)
(0.469867 -0.207135 -4.13097e-19)
(-0.0209622 0.054469 3.75518e-19)
(-0.0272463 0.0916676 -1.64068e-19)
(-0.00316087 0.0759537 8.40379e-20)
(0.0405335 0.0245683 0)
(0.0958525 -0.0459946 4.37875e-19)
(0.155669 -0.122686 1.12799e-22)
(0.214484 -0.196133 3.62481e-19)
(0.268475 -0.260447 -2.76575e-19)
(0.315412 -0.3127 3.73816e-19)
(0.354419 -0.352173 -1.89048e-19)
(0.385592 -0.379641 0)
(0.40966 -0.396709 1.93935e-19)
(0.427676 -0.405321 -5.8685e-19)
(0.440775 -0.407415 0)
(0.450045 -0.404725 5.94918e-19)
(0.456436 -0.398695 -3.98002e-19)
(0.460733 -0.390459 -4.01233e-19)
(0.463552 -0.380874 2.01169e-19)
(0.465356 -0.370556 0)
(0.466484 -0.35994 -4.05659e-19)
(0.467178 -0.349316 -4.05719e-19)
(0.467603 -0.33887 -1.18663e-21)
(0.467876 -0.328718 4.04754e-19)
(0.468073 -0.318925 4.05616e-19)
(0.468242 -0.309526 -8.10257e-19)
(0.468415 -0.300532 4.05006e-19)
(0.468611 -0.291941 0)
(0.468842 -0.283746 -4.01311e-19)
(0.469116 -0.275932 4.00091e-19)
(0.469437 -0.268484 3.98726e-19)
(0.469812 -0.261382 -3.97231e-19)
(0.470244 -0.254607 3.95619e-19)
(0.470737 -0.248139 0)
(0.471292 -0.241958 3.93188e-19)
(0.471909 -0.236039 7.81853e-19)
(0.472588 -0.23035 -7.77966e-19)
(0.473322 -0.22484 7.74593e-19)
(0.474131 -0.219416 6.48307e-22)
(0.474785 -0.214018 -3.8352e-19)
(0.474379 -0.208783 8.2499e-19)
(-0.0212 0.0522816 -2.25305e-19)
(-0.0263901 0.0861077 -4.89475e-19)
(1.99883e-05 0.0680656 3.34096e-19)
(0.0466241 0.0152278 -2.56175e-19)
(0.104944 -0.0559859 -8.88533e-20)
(0.16745 -0.132631 8.88797e-20)
(0.22839 -0.205465 -1.81363e-19)
(0.283837 -0.268756 -1.83365e-19)
(0.33157 -0.319742 1.86405e-19)
(0.370808 -0.357863 -3.77151e-19)
(0.401775 -0.38402 -6.13005e-22)
(0.425335 -0.399907 1.92544e-19)
(0.442658 -0.407518 0)
(0.454978 -0.408809 -1.96587e-19)
(0.463447 -0.405508 -1.98767e-19)
(0.469059 -0.399037 3.98521e-19)
(0.472625 -0.390505 0)
(0.474769 -0.380739 0)
(0.475959 -0.370328 4.02743e-19)
(0.47653 -0.359682 -4.02794e-19)
(0.476718 -0.349073 0)
(0.476682 -0.338673 4.04255e-19)
(0.476533 -0.328586 -4.0415e-19)
(0.47634 -0.31887 -8.07227e-19)
(0.476149 -0.309554 -5.29892e-22)
(0.475985 -0.300645 4.03259e-19)
(0.475864 -0.292142 -8.01883e-19)
(0.475797 -0.284035 4.01314e-19)
(0.475787 -0.27631 -4.00093e-19)
(0.475839 -0.268952 -6.96383e-22)
(0.475958 -0.261941 1.09579e-21)
(0.476146 -0.25526 -3.95621e-19)
(0.476406 -0.24889 -3.92084e-19)
(0.476739 -0.242814 -3.90264e-19)
(0.477147 -0.237006 -1.84374e-21)
(0.477627 -0.231434 0)
(0.478177 -0.226045 -3.84331e-19)
(0.478815 -0.220738 7.66621e-19)
(0.479293 -0.215459 -1.14365e-18)
(0.478667 -0.210374 6.77198e-22)
(-0.0213201 0.0500142 -7.45791e-20)
(-0.0252274 0.0803715 6.50815e-19)
(0.00363468 0.0599782 -3.3418e-19)
(0.0532143 0.00572997 2.56434e-19)
(0.114539 -0.0660418 -6.95955e-19)
(0.179682 -0.142516 8.85094e-20)
(0.242653 -0.214602 -3.5935e-19)
(0.299437 -0.276745 0)
(0.347841 -0.326362 0)
(0.38719 -0.363058 -3.74868e-19)
(0.417852 -0.387861 1.90363e-19)
(0.440827 -0.402551 -7.55836e-22)
(0.457406 -0.409165 1.93607e-19)
(0.468913 -0.409672 0)
(0.476568 -0.405788 -5.90194e-19)
(0.481401 -0.398909 1.97803e-19)
(0.484243 -0.390115 -3.97245e-19)
(0.485727 -0.380199 0)
(0.48632 -0.369723 0)
(0.486352 -0.359073 1.18043e-21)
(0.486051 -0.348501 -4.01687e-19)
(0.485572 -0.338166 4.01417e-19)
(0.485015 -0.32816 -4.0249e-19)
(0.484447 -0.318535 4.01627e-19)
(0.483906 -0.309313 1.11402e-21)
(0.483415 -0.300501 1.12015e-21)
(0.482986 -0.292094 4.00627e-19)
(0.482625 -0.284083 -3.97782e-19)
(0.482336 -0.276454 0)
(0.482121 -0.269191 -3.96234e-19)
(0.481983 -0.262277 3.94348e-19)
(0.481924 -0.255696 0)
(0.481945 -0.249432 3.92087e-19)
(0.482047 -0.243467 -3.88749e-19)
(0.482233 -0.237779 3.86199e-19)
(0.4825 -0.232336 0)
(0.482847 -0.227084 1.15142e-18)
(0.483296 -0.221916 -7.62288e-19)
(0.48358 -0.216784 0)
(0.482723 -0.211888 4.10387e-19)
(-0.0213179 0.0476731 5.9274e-19)
(-0.0237483 0.0744766 -3.24717e-19)
(0.00769452 0.0517182 -8.30664e-20)
(0.0603122 -0.00389191 8.4844e-20)
(0.124638 -0.0761251 3.47197e-19)
(0.192358 -0.152304 0)
(0.257255 -0.223511 3.5935e-19)
(0.315249 -0.284387 5.44414e-19)
(0.364193 -0.332541 1.84396e-19)
(0.403534 -0.367747 1.87511e-19)
(0.43379 -0.391162 1.88991e-19)
(0.456108 -0.404646 -5.75066e-19)
(0.471893 -0.410275 1.92839e-19)
(0.482562 -0.410022 7.7744e-19)
(0.489391 -0.405585 1.96647e-19)
(0.493448 -0.398333 1.97013e-19)
(0.495577 -0.389309 3.97247e-19)
(0.496418 -0.379274 0)
(0.496433 -0.368761 0)
(0.495945 -0.35813 8.00944e-19)
(0.495175 -0.347616 -1.5998e-18)
(0.494268 -0.337363 -1.1638e-21)
(0.493321 -0.327454 0)
(0.492392 -0.317931 0)
(0.491515 -0.308814 4.00523e-19)
(0.490707 -0.300106 0)
(0.489977 -0.291803 0)
(0.48933 -0.283893 -3.94241e-19)
(0.488765 -0.276365 -7.89514e-19)
(0.488285 -0.269201 0)
(0.487891 -0.262387 -7.83658e-19)
(0.487581 -0.255909 -1.56288e-18)
(0.487356 -0.249753 7.7838e-19)
(0.487219 -0.243903 -7.73189e-19)
(0.48717 -0.238339 7.71468e-19)
(0.487208 -0.233032 -7.66907e-19)
(0.487334 -0.227928 -7.61185e-19)
(0.487573 -0.222917 0)
(0.487643 -0.217962 0)
(0.486548 -0.213293 0)
(-0.0211895 0.0452644 -5.92743e-19)
(-0.0219438 0.0684408 0)
(0.0122093 0.0433122 0)
(0.0679237 -0.0136041 0)
(0.13524 -0.0861984 0)
(0.205467 -0.161958 0)
(0.272177 -0.232158 1.78743e-19)
(0.331244 -0.291654 -9.07805e-19)
(0.380595 -0.33826 -5.49892e-19)
(0.419808 -0.371922 -1.86025e-19)
(0.449562 -0.393922 0)
(0.471151 -0.4062 7.6077e-19)
(0.486099 -0.410861 1.92678e-19)
(0.495906 -0.409875 -1.74546e-18)
(0.501904 -0.404919 0)