/*--------------------------------*- C++ -*----------------------------------*\
  =========                 |
  \\      /  F ield         | OpenFOAM: The Open Source CFD Toolbox
   \\    /   O peration     | Website:  https://openfoam.org
    \\  /    A nd           | Version:  7
     \\/     M anipulation  |
\*---------------------------------------------------------------------------*/
FoamFile
{
    version     2.0;
    format      ascii;
    class       surfaceScalarField;
    location    "54";
    object      phi;
}
// * * * * * * * * * * * * * * * * * * * * * * * * * * * * * * * * * * * * * //

dimensions      [0 3 -1 0 0 0 0];

internalField   nonuniform List<scalar> 
3880
(
-8.46485e-05
-0.00069206
0.000776708
-0.000167416
-0.00111897
0.00120174
-0.000177734
-0.00099907
0.00100939
-6.74476e-05
-0.000489287
0.000379
0.000198733
0.000339413
-0.000605594
0.000645029
0.00145253
-0.00189883
0.00128259
0.00282662
-0.00346418
0.00210678
0.00443471
-0.00525889
0.00309448
0.00623865
-0.00722636
0.00818239
0.00420143
-0.00928934
-9.67896e-05
-0.00059527
-0.000196114
-0.00101965
-0.000228213
-0.000966971
-0.000146371
-0.000571128
8.57193e-05
0.000107322
0.000497054
0.0010412
0.00110698
0.00221669
0.00192081
0.00362088
0.00292408
0.00523538
0.00703147
0.004075
-9.96998e-05
-0.00049557
-0.000198143
-0.000921205
-0.000230714
-0.000934401
-0.000156138
-0.000645705
5.87693e-05
-0.000107584
0.000443832
0.000656132
0.00102379
0.00163673
0.00181318
0.00283149
0.00280809
0.00424047
0.00586675
0.00397281
-9.12244e-05
-0.000404346
-0.00016729
-0.000845139
-0.000172796
-0.000928894
-7.54651e-05
-0.000743036
0.000150744
-0.000333794
0.000531717
0.00027516
0.0010933
0.00107515
0.00185646
0.00206834
0.00282853
0.00326839
0.00471028
0.003985
-7.0042e-05
-0.000334304
-9.96567e-05
-0.000815525
-4.60555e-05
-0.000982496
0.000111372
-0.000900464
0.000388369
-0.000610791
0.000802592
-0.000139063
0.00137565
0.000502091
0.00213027
0.00131372
0.00308325
0.00231541
0.00356709
0.00422644
-3.60314e-05
-0.000298273
5.33051e-06
-0.000856887
0.00015112
-0.00112829
0.000409449
-0.00115879
0.000783796
-0.000985138
0.00128064
-0.000635903
0.00191244
-0.000129715
0.00269823
0.000527933
0.0036599
0.00135373
0.00241776
0.00480923
1.07968e-05
-0.00030907
0.000144111
-0.000990201
0.000412271
-0.00139645
0.000809461
-0.00155598
0.00132688
-0.00150256
0.00195863
-0.00126766
0.00270561
-0.000876689
0.00357747
-0.000343932
0.00459533
0.000335868
0.00122444
0.00578866
6.60082e-05
-0.000375078
0.000309303
-0.0012335
0.000722246
-0.00180939
0.0012863
-0.00212003
0.00198148
-0.00219773
0.00279056
-0.00207674
0.00370208
-0.00178821
0.0047135
-0.00135535
0.005838
-0.000788633
-5.2512e-05
0.00711495
0.000128051
-0.00050313
0.000490315
-0.00159576
0.0010585
-0.00237757
0.00180095
-0.00286249
0.00268804
-0.00308483
0.00369392
-0.00308261
0.00479708
-0.00289137
0.00598128
-0.00253955
0.007242
-0.00204936
-0.00143941
0.00862891
0.000192745
-0.000695875
0.000674249
-0.00207726
0.00139331
-0.00309663
0.00230465
-0.00377383
0.00337062
-0.0041508
0.00456129
-0.00427328
0.0058532
-0.00418328
0.00722587
-0.00391223
0.00865096
-0.00347445
0.010109
-0.00289742
0.0070403
0.0459145
-0.0487534
0.00838074
0.0731941
-0.0745346
0.008293
0.0945375
-0.0944498
0.00755016
0.114093
-0.113351
0.00653684
0.135034
-0.13402
0.00536413
0.158951
-0.157778
0.00405421
0.186602
-0.185292
0.00255869
0.219001
-0.217506
0.00109281
0.26086
-0.259394
0.309224
-0.308131
0.00743816
0.0425514
0.00944851
0.0711838
0.0097373
0.0942487
0.00915751
0.114673
0.00819118
0.136
0.00696866
0.160173
0.00550459
0.188066
0.00373515
0.220771
0.00179949
0.262795
0.311024
0.00770207
0.0388221
0.0104357
0.0684501
0.0111554
0.093529
0.0107674
0.115061
0.00985517
0.136912
0.00858397
0.161445
0.0069629
0.189687
0.00491753
0.222816
0.0025094
0.265204
0.313533
0.00783875
0.0349684
0.0112983
0.0649906
0.0125072
0.0923201
0.0123478
0.115221
0.0115027
0.137757
0.0101885
0.162759
0.00841362
0.191462
0.00609444
0.225135
0.00321479
0.268083
0.316748
0.00790345
0.0312914
0.011994
0.0609001
0.0137523
0.0905618
0.0138676
0.115105
0.0131087
0.138516
0.0117615
0.164106
0.00984239
0.193381
0.0072548
0.227723
0.00391208
0.271426
0.32066
0.00799427
0.0281063
0.0124905
0.0564038
0.0148523
0.0882
0.0152931
0.114665
0.0146441
0.139165
0.0132767
0.165473
0.0112258
0.195432
0.00838349
0.230565
0.00459179
0.275218
0.325252
0.00822188
0.0256731
0.012792
0.0518337
0.0157757
0.0852163
0.0166006
0.11384
0.0160979
0.139668
0.0147299
0.166841
0.0125637
0.197598
0.00947922
0.23365
0.0052538
0.279443
0.330505
0.008664
0.0241241
0.0129432
0.0475544
0.0164897
0.0816697
0.017736
0.112593
0.0174137
0.13999
0.0160664
0.168189
0.0138078
0.199857
0.0105119
0.236946
0.00588316
0.284072
0.336389
0.0093192
0.0234338
0.0130143
0.0438594
0.0170158
0.0776682
0.0187548
0.110854
0.0186635
0.140081
0.0173548
0.169497
0.0150153
0.202196
0.0115075
0.240454
0.00648939
0.28909
0.342878
0.0101773
0.0233654
0.0131329
0.0409038
0.0172315
0.0735696
0.0194411
0.108645
0.0196688
0.139854
0.0184549
0.170711
0.0161149
0.204536
0.0124206
0.244148
0.00709787
0.294413
0.349976
0.0282471
0.0345492
-0.0394308
0.0203471
0.0488038
0.0193321
0.0745846
0.01868
0.109297
0.0164652
0.142069
0.0134147
0.173762
0.00989269
0.208058
0.00595527
0.248085
0.00216484
0.298203
0.352141
0.0358656
0.0409301
-0.0422466
0.0268568
0.0578126
0.0222231
0.0792183
0.0200364
0.111484
0.0168433
0.145262
0.013025
0.17758
0.00930304
0.21178
0.00553683
0.251852
0.00203264
0.301707
0.354173
0.0388196
0.0438494
-0.0417389
0.0317141
0.0649181
0.0254294
0.085503
0.0217704
0.115143
0.0182598
0.148772
0.0141863
0.181653
0.0099838
0.215983
0.00582206
0.256013
0.00215732
0.305372
0.356331
0.03824
0.0446435
-0.0390341
0.0337244
0.0694337
0.0277882
0.0914392
0.0229257
0.120005
0.0183852
0.153313
0.0139301
0.186109
0.00975591
0.220157
0.00578146
0.259988
0.00221706
0.308936
0.358548
0.035357
0.0441735
-0.0348871
0.0331509
0.0716399
0.0288278
0.0957623
0.0244806
0.124352
0.0200163
0.157777
0.0151451
0.19098
0.0104075
0.224894
0.00608405
0.264311
0.00235944
0.312661
0.360907
0.0308015
0.042697
-0.0293249
0.0304991
0.0719423
0.0275859
0.0986755
0.0234362
0.128502
0.0190191
0.162194
0.0145033
0.195496
0.0100905
0.229307
0.00595461
0.268447
0.00234351
0.316272
0.363251
0.02534
0.0403238
-0.0229669
0.0269054
0.0703769
0.0263524
0.0992285
0.023848
0.131006
0.0199147
0.166128
0.0151961
0.200214
0.0104769
0.234026
0.0061414
0.272783
0.00243967
0.319974
0.36569
0.0194141
0.0374028
-0.0164931
0.0216479
0.0681431
0.0218787
0.0989977
0.0203193
0.132566
0.017602
0.168845
0.0139479
0.203868
0.00987793
0.238096
0.00589675
0.276764
0.00238941
0.323481
0.36808
0.0144423
0.0336399
-0.0106793
0.0183791
0.0642062
0.0205545
0.0968223
0.0201473
0.132973
0.017715
0.171277
0.0140989
0.207484
0.00997195
0.242223
0.00595161
0.280784
0.00241031
0.327022
0.37049
0.00741482
-0.00458328
0.0108314
0.0139664
0.015575
0.0150795
0.0127154
0.00938755
0.00569955
0.00240487
0.0137706
-0.0412809
-0.0119205
0.0136704
-0.0421464
0.0126468
-0.0407153
0.0112159
-0.0376032
0.00963414
-0.0333053
0.00805712
-0.0277479
0.00659567
-0.0215055
0.00528885
-0.0151863
0.00411713
-0.00950762
-0.00387105
0.0127788
-0.0419941
-0.0120656
0.0120354
-0.041403
0.0107057
-0.0393855
0.00912285
-0.0360204
0.00746984
-0.0316523
0.00587167
-0.0261497
0.0044177
-0.0200515
0.0031399
-0.0139084
0.00201232
-0.00838004
-0.00317486
0.0113263
-0.0418685
-0.011452
0.0101494
-0.0402261
0.0086123
-0.0378484
0.00691787
-0.034326
0.00521219
-0.0299466
0.00360278
-0.0245403
0.00216725
-0.018616
0.000934836
-0.012676
-0.000151129
-0.00729408
-0.00254793
0.00944218
-0.0411394
-0.0101712
0.00797776
-0.0387617
0.00631669
-0.0361874
0.00456797
-0.0325773
0.00285333
-0.028232
0.00126512
-0.0229521
-0.000126899
-0.0172239
-0.00129779
-0.0115051
-0.00226534
-0.00632653
-0.0019571
0.00720966
-0.0399854
-0.0083637
0.00556797
-0.03712
0.0038477
-0.0344671
0.00209335
-0.0308229
0.000407892
-0.0265465
-0.00112115
-0.021423
-0.00244651
-0.0158986
-0.00353796
-0.0104137
-0.00440076
-0.00546373
-0.00145339
0.0047319
-0.0385383
-0.00617901
0.00299619
-0.0353843
0.00126397
-0.0327349
-0.000454704
-0.0291043
-0.00206881
-0.0249324
-0.00352242
-0.0199694
-0.00475907
-0.0146619
-0.00575482
-0.00941794
-0.00650496
-0.00471359
-0.00105221
0.00211021
-0.0368923
-0.00375617
0.000333586
-0.0336076
-0.00135493
-0.0310464
-0.00301295
-0.0274462
-0.00454442
-0.023401
-0.00589795
-0.0186159
-0.00703141
-0.0135285
-0.00791909
-0.00853026
-0.0085495
-0.00408318
-0.000759793
-0.000552641
-0.0351276
-0.0012121
-0.00230365
-0.0318566
-0.00395233
-0.0293977
-0.00553173
-0.0258668
-0.0069622
-0.0219705
-0.00820467
-0.0173734
-0.00922662
-0.0125065
-0.00999875
-0.00775813
-0.0105069
-0.003575
-0.000574898
-0.00318267
-0.0332863
0.00134133
-0.00488839
-0.0301509
-0.0064656
-0.0278205
-0.00794893
-0.0243835
-0.00927231
-0.0206471
-0.0103995
-0.0162462
-0.0113074
-0.0115986
-0.0119621
-0.00710345
-0.0123513
-0.00318574
-0.000489403
-0.00569147
-0.0314218
0.00382706
-0.00733601
-0.0285064
-0.00883249
-0.026324
-0.0102125
-0.0230035
-0.0114292
-0.0194304
-0.0124424
-0.015233
-0.013239
-0.010802
-0.0137804
-0.00656207
-0.0140604
-0.00290575
-0.000489042
-0.00801555
-0.0295796
0.00617333
-0.00958774
-0.0269342
-0.0110025
-0.0249092
-0.0122777
-0.0217284
-0.0133936
-0.0183144
-0.0142989
-0.0143277
-0.0149922
-0.0101087
-0.0154307
-0.00612353
-0.0156173
-0.0027192
-0.000554547
-0.0101162
-0.0277909
0.0083275
-0.0116047
-0.0254456
-0.01294
-0.0235739
-0.0141124
-0.020556
-0.0151362
-0.0172906
-0.015944
-0.01352
-0.0165462
-0.00950654
-0.016898
-0.0057717
-0.0170121
-0.00260506
-0.000662976
-0.01196
-0.0260805
0.0102495
-0.013356
-0.0240496
-0.0146171
-0.0223128
-0.0156927
-0.0194805
-0.016636
-0.0163473
-0.0173612
-0.0127947
-0.017889
-0.0089787
-0.0181757
-0.00548506
-0.0182423
-0.00253844
-0.000788991
-0.0135287
-0.0244648
0.0119131
-0.0148254
-0.0227529
-0.0160194
-0.0211188
-0.0170079
-0.018492
-0.0178839
-0.0154713
-0.0185455
-0.0121331
-0.0190192
-0.008505
-0.019266
-0.00523831
-0.0193121
-0.00249234
-0.000906159
-0.0148172
-0.0229486
0.013301
-0.0160097
-0.0215604
-0.017144
-0.0199845
-0.0180592
-0.0175768
-0.018882
-0.0146485
-0.0195021
-0.011513
-0.0199442
-0.00806287
-0.0201786
-0.00500393
-0.0202318
-0.00243916
-0.00098802
-0.0158309
-0.0215201
0.0144024
-0.0169186
-0.0204727
-0.0179985
-0.0189046
-0.0188581
-0.0167172
-0.0196415
-0.0138651
-0.0202441
-0.0109104
-0.0206784
-0.00762851
-0.0209286
-0.00475372
-0.0210161
-0.00235172
-0.00100885
-0.0165819
-0.0201483
0.0152101
-0.0175715
-0.0194832
-0.0185978
-0.0178782
-0.0194231
-0.0158919
-0.0201804
-0.0131079
-0.0207902
-0.0103007
-0.0212409
-0.00717772
-0.0215348
-0.00445989
-0.0216826
-0.00220395
-0.000944063
-0.0170628
-0.0188047
0.0157192
-0.0179779
-0.0185681
-0.018952
-0.0169041
-0.0197709
-0.0150729
-0.0205182
-0.0123606
-0.0211603
-0.0096585
-0.0216523
-0.00668578
-0.0220167
-0.00409548
-0.0222499
-0.00197073
-0.000770268
-0.0172562
-0.01749
0.0159414
-0.0181565
-0.0176678
-0.0190814
-0.0159791
-0.0199237
-0.0142307
-0.020679
-0.0116053
-0.0213773
-0.00896021
-0.0219342
-0.00612895
-0.0223942
-0.00363548
-0.0227366
-0.00162828
-0.00046491
-0.0172916
-0.0161454
0.0159471
-0.0182413
-0.0167181
-0.0190611
-0.0151593
-0.0199179
-0.0133739
-0.0206864
-0.0108367
-0.0214526
-0.00819396
-0.0220988
-0.00548282
-0.0226811
-0.00305314
-0.0231651
-0.00114428
-1.0749e-05
-0.0717922
-0.0140586
0.0697054
-0.0760293
-0.012481
-0.0798371
-0.0113515
-0.0837287
-0.00948233
-0.0868819
-0.00768356
-0.0894773
-0.00559856
-0.0911959
-0.0037642
-0.0922089
-0.00204014
-0.0925525
-0.000800689
-2.7181e-05
-0.0876651
-0.0119824
0.085589
-0.0904634
-0.00968268
-0.0930185
-0.00879653
-0.0956018
-0.00689894
-0.0976375
-0.00564786
-0.0992787
-0.00395739
-0.100322
-0.00272084
-0.100904
-0.001458
-0.101064
-0.000641008
-3.94751e-05
-0.10355
-0.0103217
0.101889
-0.105296
-0.00793707
-0.107055
-0.00703742
-0.10872
-0.00523336
-0.110051
-0.00431692
-0.11109
-0.00291923
-0.111705
-0.00210559
-0.112034
-0.00112913
-0.112099
-0.000575868
-4.11764e-05
-0.121601
-0.00925454
0.120533
-0.122776
-0.00676143
-0.123955
-0.0058583
-0.125014
-0.00417427
-0.125865
-0.00346653
-0.126521
-0.00226299
-0.126901
-0.00172582
-0.127109
-0.000920481
-0.12714
-0.000545265
-3.46506e-05
-0.143307
-0.00819906
0.142251
-0.144199
-0.00586966
-0.145076
-0.00498103
-0.145816
-0.00343393
-0.14643
-0.00285322
-0.146901
-0.0017914
-0.147203
-0.00142412
-0.147399
-0.000724741
-0.147463
-0.000480584
-7.15979e-07
-0.168851
-0.00700041
0.167653
-0.16975
-0.00497146
-0.17059
-0.00414022
-0.171262
-0.00276274
-0.171828
-0.00228667
-0.172261
-0.00135816
-0.172596
-0.00108939
-0.172858
-0.000462494
-0.173021
-0.00031803
4.62178e-05
-0.195875
-0.00563843
0.194513
-0.197123
-0.00372394
-0.198195
-0.00306796
-0.198916
-0.00204181
-0.199521
-0.00168216
-0.199965
-0.000914064
-0.200366
-0.000687684
-0.20068
-0.000149353
-0.200897
-0.000100598
0.000102872
-0.221147
-0.00355947
0.219068
-0.222181
-0.00268975
-0.223063
-0.00218641
-0.22374
-0.00136427
-0.224346
-0.00107698
-0.224765
-0.000494215
-0.225131
-0.00032177
-0.225359
7.81693e-05
-0.225511
5.13822e-05
0.000118715
-0.237697
-0.00200397
0.236142
-0.239224
-0.00116343
-0.240469
-0.000940714
-0.241254
-0.000579184
-0.241847
-0.000484635
-0.242139
-0.00020171
-0.242349
-0.000111815
-0.242368
9.70662e-05
-0.242383
6.67412e-05
7.19717e-05
-0.247548
0.245544
-0.248711
-0.249652
-0.250231
-0.250716
-0.250918
-0.251029
-0.250932
-0.250866
-0.0179758
0.0712198
0.0164613
-0.0187871
0.0864003
-0.0192144
0.102317
-0.0192297
0.120549
-0.0187464
0.141768
-0.0174018
0.166308
-0.0148879
0.192
-0.0107893
0.21497
-0.00582355
0.231176
0.23972
-0.0169577
0.0721213
0.0160562
-0.0176339
0.0870765
-0.0179689
0.102652
-0.0178892
0.120469
-0.0173162
0.141195
-0.0159397
0.164932
-0.0134735
0.189533
-0.00975036
0.211246
-0.00518752
0.226613
0.234533
-0.0161238
0.0728774
0.0153677
-0.016664
0.0876167
-0.016887
0.102875
-0.0167384
0.12032
-0.0161256
0.140582
-0.0147733
0.163579
-0.0124156
0.187176
-0.00897983
0.207811
-0.00473719
0.222371
0.229796
-0.0151621
0.0735687
0.0144708
-0.015597
0.0880516
-0.0157029
0.102981
-0.0154719
0.120089
-0.0148197
0.13993
-0.0135005
0.16226
-0.0112824
0.184958
-0.00814203
0.20467
-0.00426828
0.218497
0.225527
-0.0140327
0.0741816
0.0134198
-0.0143817
0.0884006
-0.0143965
0.102996
-0.0141012
0.119794
-0.0134264
0.139255
-0.0121573
0.160991
-0.0101038
0.182904
-0.00726212
0.201829
-0.0037933
0.215028
0.221734
-0.0127769
0.0747037
0.0122548
-0.0130293
0.088653
-0.012964
0.10293
-0.0126234
0.119453
-0.0119467
0.138578
-0.0107507
0.159795
-0.00888617
0.18104
-0.00635629
0.199299
-0.00331253
0.211984
0.218422
-0.0114295
0.0751284
0.0110049
-0.011577
0.0888005
-0.0114314
0.102785
-0.0110538
0.119076
-0.0103898
0.137914
-0.00928777
0.158693
-0.00763305
0.179385
-0.00543274
0.197098
-0.00282459
0.209376
0.215597
-0.010013
0.075443
0.00969833
-0.0100559
0.0888433
-0.0098303
0.102559
-0.00941971
0.118665
-0.00877746
0.137272
-0.00778411
0.1577
-0.00635442
0.177955
-0.004498
0.195242
-0.00233104
0.207209
0.213266
-0.0085504
0.0756291
0.00836439
-0.00849253
0.0887854
-0.00818814
0.102255
-0.0077489
0.118226
-0.00713464
0.136658
-0.00626006
0.156825
-0.00506457
0.17676
-0.00355954
0.193737
-0.00183571
0.205485
0.21143
-0.00706637
0.0756624
0.00703299
-0.00691541
0.0886345
-0.00652933
0.101869
-0.00606673
0.117763
-0.00548414
0.136075
-0.00473544
0.156076
-0.00377867
0.175803
-0.00262643
0.192585
-0.00134377
0.204203
0.210087
-0.00559556
0.075518
0.00573997
-0.0053602
0.0883991
-0.00488562
0.101394
-0.00440186
0.11728
-0.00385103
0.135525
-0.00323071
0.155456
-0.00251225
0.175084
-0.00170822
0.191781
-0.000860275
0.203355
0.209226
-0.00418665
0.0751997
0.00450494
-0.00385395
0.0880664
-0.00329943
0.10084
-0.00278788
0.116768
-0.00226946
0.135006
-0.0017683
0.154955
-0.00128035
0.174597
-0.000816856
0.191317
-0.000391236
0.202929
0.208835
-0.00288135
0.0747235
0.00335763
-0.00243348
0.0876186
-0.00181589
0.100222
-0.00127076
0.116223
-0.00078758
0.134523
-0.00040081
0.154568
-0.000135918
0.174332
-2.86278e-06
0.191184
4.12025e-05
0.202885
0.208876
-0.00170899
0.074119
0.00231349
-0.00112315
0.0870327
-0.000478207
0.0995771
9.46811e-05
0.11565
0.000611877
0.134006
0.000924364
0.154256
0.00100059
0.174255
0.000837599
0.191347
0.000478132
0.203244
0.209354
-0.000694225
0.0734365
0.00137664
1.26516e-05
0.0863258
0.000806647
0.0987831
0.00148732
0.114969
0.00196815
0.133525
0.00218014
0.154044
0.00206342
0.174372
0.00160817
0.191802
0.00088343
0.203969
0.210238
0.000164856
0.0727383
0.000533428
0.00116849
0.0853222
0.00199476
0.0979568
0.00270947
0.114255
0.00318567
0.133049
0.00332022
0.153909
0.00303306
0.174659
0.00231291
0.192522
0.00125252
0.20503
0.21149
0.00106075
0.0719134
-0.000235885
0.00214524
0.0842377
0.00303246
0.0970696
0.00379889
0.113488
0.00428344
0.132564
0.00436214
0.15383
0.00392797
0.175093
0.00296723
0.193483
0.00159539
0.206401
0.213086
0.00176741
0.0710683
-0.000922314
0.00296537
0.0830397
0.00390311
0.0961319
0.00471373
0.112678
0.00520658
0.132071
0.00524276
0.153794
0.00468859
0.175648
0.00352518
0.194647
0.00188503
0.208042
0.214971
0.0024114
0.0702414
-0.00158451
0.00371417
0.081737
0.00470798
0.0951381
0.00556418
0.111821
0.00607547
0.13156
0.00607987
0.15379
0.00541484
0.176313
0.00405761
0.196004
0.00216192
0.209937
0.217133
0.00273697
0.069735
-0.00223053
0.00408058
0.0803934
0.00512283
0.0940958
0.00600873
0.110935
0.00654071
0.131028
0.00654637
0.153784
0.00583497
0.177024
0.00437149
0.197467
0.00231621
0.211993
0.219449
-0.0563226
0.0635851
0.0624725
-0.0508138
0.0748846
-0.046803
0.090085
-0.0425656
0.106698
-0.037974
0.126437
-0.0325496
0.14836
-0.0259046
0.170379
-0.0180155
0.189578
-0.0092024
0.203179
0.210246
-0.0676459
0.0585918
0.0726391
-0.0627547
0.0699934
-0.05809
0.0854203
-0.0528554
0.101463
-0.0472636
0.120845
-0.0404995
0.141596
-0.0322334
0.162113
-0.0224916
0.179836
-0.0116487
0.192337
0.198598
-0.0807872
0.0537067
0.0856723
-0.075784
0.0649902
-0.0702707
0.0799069
-0.0641272
0.09532
-0.0572968
0.114014
-0.0487733
0.133072
-0.0385614
0.151901
-0.0266739
0.167949
-0.0135099
0.179173
0.185088
-0.0967564
0.0489959
0.101467
-0.0911817
0.0594155
-0.0849321
0.0736573
-0.077849
0.0882369
-0.0694217
0.105587
-0.0588152
0.122466
-0.0463685
0.139454
-0.0320834
0.153664
-0.016562
0.163651
0.168526
-0.114758
0.0434101
0.120344
-0.108626
0.053284
-0.101382
0.0664127
-0.092579
0.0794342
-0.0817282
0.0947362
-0.0685205
0.109258
-0.053451
0.124385
-0.036363
0.136576
-0.0181205
0.145409
0.150405
-0.136761
0.0378316
0.142339
-0.129453
0.0459761
-0.120639
0.0575991
-0.109592
0.0683867
-0.0962106
0.081355
-0.0804825
0.0935299
-0.0625606
0.106463
-0.0425795
0.116595
-0.0218253
0.124654
0.12858
-0.158845
0.0306187
0.166058
-0.149954
0.0370844
-0.138908
0.0465539
-0.125107
0.0545858
-0.108834
0.0650814
-0.0897757
0.0744719
-0.0680101
0.0846972
-0.0443674
0.0929522
-0.020898
0.101185
0.107682
-0.183128
0.0230055
0.190741
-0.172568
0.026525
-0.159442
0.033428
-0.143495
0.0386388
-0.124804
0.0463898
-0.102889
0.0525569
-0.0783866
0.0601952
-0.0525702
0.0671358
-0.0276839
0.0762986
0.0799982
-0.200123
0.0110453
0.212083
-0.186744
0.0131458
-0.169983
0.0166665
-0.150552
0.019208
-0.12752
0.0233582
-0.10141
0.0264465
-0.0721942
0.0309796
-0.0404361
0.0353777
-0.0087002
0.0445627
0.071298
-0.281043
0.292088
-0.267897
-0.251231
-0.232023
-0.208664
-0.182218
-0.151238
-0.115861
-0.071298
-0.000301505
0.0644982
-0.00172425
-0.00176606
0.0741037
-0.00296302
0.0868693
-0.00385915
0.102363
-0.00439056
0.120875
-0.00450797
0.142457
-0.00409857
0.165649
-0.00316782
0.18981
-0.00269926
0.211615
0.289389
0.000185193
0.0664294
-0.00211633
-0.00140315
0.075692
-0.00266998
0.0881361
-0.00359261
0.103286
-0.00416589
0.121448
-0.00430271
0.142593
-0.00396109
0.165307
-0.00305904
0.188908
-0.00245482
0.211011
0.286934
0.000754132
0.0682114
-0.00253612
-0.000826865
0.077273
-0.00206883
0.089378
-0.00297867
0.104196
-0.00357651
0.122046
-0.0037455
0.142762
-0.00350489
0.165066
-0.00270005
0.188103
-0.0022183
0.210529
0.284716
0.00128842
0.0699048
-0.00298188
-0.000279325
0.0788407
-0.00139851
0.0904972
-0.00226576
0.105063
-0.0028407
0.122621
-0.00305582
0.142978
-0.00289336
0.164904
-0.00225089
0.187461
-0.0019074
0.210185
0.282809
0.00181405
0.0715375
-0.00344676
0.000315391
0.0803394
-0.000729656
0.0915423
-0.00154018
0.105874
-0.00207902
0.12316
-0.00231729
0.143216
-0.0022247
0.164811
-0.0017434
0.186979
-0.00154804
0.20999
0.281261
0.0023686
0.073088
-0.00391909
0.00100625
0.0817018
-1.97065e-05
0.0925682
-0.000752591
0.106607
-0.00125528
0.123663
-0.00151427
0.143475
-0.00149725
0.164794
-0.00118194
0.186664
-0.00115017
0.209958
0.28011
0.00295268
0.0745261
-0.00439078
0.00173187
0.0829226
0.000831438
0.0934687
0.000106254
0.107332
-0.000346557
0.124115
-0.000635338
0.143764
-0.00068445
0.164843
-0.000568431
0.186548
-0.000712603
0.210102
0.279398
0.00355912
0.0758218
-0.00485477
0.00249016
0.0839915
0.00169834
0.0942605
0.00108899
0.107941
0.000640187
0.124564
0.000326162
0.144078
0.000211442
0.164958
8.51297e-05
0.186674
-0.000230166
0.210418
0.279168
0.00418131
0.0769417
-0.00530119
0.00327023
0.0849026
0.00259352
0.0949372
0.00208087
0.108454
0.00167903
0.124966
0.00136365
0.144393
0.00111292
0.165209
0.000853611
0.186934
0.000262652
0.211009
0.27943
0.00480578
0.0778518
-0.00571589
0.00405935
0.085649
0.00350702
0.0954895
0.00309461
0.108866
0.00274713
0.125314
0.00241668
0.144723
0.00206542
0.16556
0.00161532
0.187384
0.000763116
0.211861
0.280193
0.00541106
0.0785161
-0.00607536
0.00483656
0.0862235
0.00441777
0.0959083
0.00411135
0.109173
0.00382184
0.125603
0.0034822
0.145063
0.00303457
0.166008
0.00238922
0.188029
0.00128344
0.212967
0.281477
0.0059893
0.0789022
-0.00637541
0.00559277
0.0866201
0.00531489
0.0961862
0.00511981
0.109368
0.00489395
0.125829
0.0045537
0.145403
0.00401079
0.166551
0.00317598
0.188864
0.00181315
0.214329
0.28329
0.00651105
0.0789925
-0.00660137
0.00630151
0.0868296
0.00617137
0.0963163
0.00609099
0.109448
0.00593745
0.125982
0.0056064
0.145734
0.00497633
0.167181
0.00396189
0.189878
0.00234429
0.215947
0.285634
0.0069572
0.0787815
-0.00674615
0.00694436
0.0868424
0.00696403
0.0962967
0.00700143
0.109411
0.00693064
0.126053
0.00661774
0.146047
0.00591367
0.167885
0.00473177
0.19106
0.00286775
0.217811
0.288502
0.00731266
0.0782757
-0.00680687
0.00750567
0.0866494
0.00767324
0.0961291
0.0078305
0.109253
0.00785189
0.126032
0.00757035
0.146329
0.00681154
0.168644
0.00547717
0.192395
0.00338043
0.219908
0.291882
0.00756559
0.0774982
-0.00678815
0.00797077
0.0862442
0.00828013
0.0958197
0.00855611
0.108977
0.00867499
0.125913
0.00843729
0.146567
0.00764568
0.169435
0.00617812
0.193862
0.00386853
0.222217
0.295751
0.00771607
0.0764873
-0.0067051
0.00833629
0.085624
0.00878015
0.0953759
0.00917362
0.108584
0.0093976
0.125689
0.00922027
0.146744
0.00841792
0.170238
0.00683851
0.195442
0.00433575
0.22472
0.300087
0.00775601
0.0753139
-0.00658261
0.00857646
0.0848036
0.00914166
0.0948107
0.00964101
0.108085
0.0099673
0.125363
0.00985981
0.146851
0.00907267
0.171025
0.00741872
0.197096
0.00475654
0.227382
0.304843
0.00777182
0.0740093
-0.00646726
0.00878196
0.0837934
0.0094551
0.0941375
0.0100505
0.107489
0.0104787
0.124935
0.010449
0.146881
0.00968548
0.171788
0.00796467
0.198816
0.00515275
0.230194
0.309996
0.00748311
0.0728771
-0.00635088
0.00859717
0.0826794
0.00940741
0.0933273
0.0100924
0.106804
0.0106308
0.124396
0.0107029
0.146809
0.0100378
0.172453
0.00831771
0.200536
0.00546483
0.233047
0.315461
-0.0410182
0.0670183
0.0468769
-0.0345021
0.0761632
-0.0294239
0.0882492
-0.0245287
0.101909
-0.0197683
0.119636
-0.0148137
0.141854
-0.00958896
0.167229
-0.0045897
0.195537
-0.00175131
0.230209
0.313709
-0.0567978
0.0609219
0.0628943
-0.0504032
0.0697687
-0.0441569
0.0820028
-0.0376094
0.0953615
-0.0310996
0.113126
-0.0240399
0.134795
-0.0164122
0.159601
-0.00892807
0.188053
-0.00386457
0.225145
0.309845
-0.0740034
0.0545177
0.0804075
-0.0668937
0.062659
-0.0594489
0.074558
-0.051584
0.0874966
-0.0434896
0.105031
-0.0341839
0.125489
-0.0240038
0.149421
-0.0137861
0.177835
-0.00580176
0.217161
0.304043
-0.0930185
0.0480895
0.0994468
-0.0849321
0.0545725
-0.0766359
0.0662618
-0.0676044
0.0784651
-0.0575828
0.0950099
-0.0456624
0.113569
-0.0326273
0.136386
-0.0193113
0.164519
-0.0082034
0.206053
0.29584
-0.11439
0.0405743
0.121906
-0.106152
0.0463345
-0.0972282
0.0573376
-0.0864994
0.0677363
-0.0740284
0.0825388
-0.0593213
0.0988616
-0.04321
0.120275
-0.0262335
0.147543
-0.0112041
0.191024
0.284636
-0.140331
0.0333948
0.14751
-0.131221
0.0372246
-0.120778
0.0468954
-0.107961
0.0549191
-0.0931693
0.0677468
-0.0758482
0.0815405
-0.0564624
0.100889
-0.0354894
0.12657
-0.0161656
0.1717
0.26847
-0.169869
0.0244085
0.178856
-0.160335
0.0276903
-0.148527
0.0350877
-0.134356
0.0407479
-0.117805
0.0511958
-0.0978395
0.0615749
-0.0750807
0.0781299
-0.049927
0.101416
-0.024415
0.146188
0.244055
-0.20507
0.0155546
0.213924
-0.194383
0.0170036
-0.181305
0.0220095
-0.166047
0.0254895
-0.147661
0.0328107
-0.125964
0.0398776
-0.10124
0.0534055
-0.0729828
0.0731591
-0.0405563
0.113761
0.203499
-0.255994
0.00608135
0.265467
-0.245923
0.00693215
-0.233125
0.00921185
-0.218777
0.0111415
-0.200867
0.014901
-0.180199
0.0192098
-0.15432
0.0275262
-0.121337
0.0401755
-0.0739209
0.0663456
0.129578
-0.325022
0.331103
-0.318089
-0.308878
-0.297736
-0.282835
-0.263625
-0.236099
-0.195924
-0.129578
0.00277926
0.0491084
-0.00501073
-2.81846e-05
0.0657017
-0.0019579
0.0823372
-0.00366466
0.101154
-0.0049862
0.123227
-0.00596292
0.148487
-0.00623485
0.179128
-0.0060792
0.213768
-0.00422992
0.263618
0.326873
0.00284171
0.0509947
-0.00472803
0.000430126
0.0681133
-0.00158437
0.0843517
-0.00330221
0.102871
-0.00465461
0.12458
-0.00562999
0.149462
-0.0059798
0.179477
-0.00583018
0.213618
-0.00410925
0.261897
0.322764
0.00310514
0.0524224
-0.00453285
0.00102057
0.0701979
-0.000910629
0.0862829
-0.00256578
0.104527
-0.00390356
0.125917
-0.00487278
0.150431
-0.00530026
0.179905
-0.00517486
0.213493
-0.00376439
0.260487
0.318999
0.00343686
0.0534062
-0.00442065
0.00165226
0.0719825
-0.00018067
0.0881159
-0.00170119
0.106047
-0.00298095
0.127197
-0.00396113
0.151412
-0.00444705
0.180391
-0.00443874
0.213485
-0.00331863
0.259366
0.315681
0.00381867
0.0539573
-0.00436974
0.00236146
0.0734397
0.000733524
0.0897438
-0.000763338
0.107544
-0.00196973
0.128404
-0.00295405
0.152396
-0.00350482
0.180942
-0.00364384
0.213624
-0.00280734
0.25853
0.312873
0.00427213
0.0540433
-0.00435815
0.00318081
0.074531
0.00176157
0.091163
0.000314997
0.108991
-0.000843177
0.129562
-0.0018411
0.153394
-0.00247987
0.18158
-0.00278064
0.213925
-0.00224417
0.257993
0.310629
0.00480064
0.0536088
-0.00436613
0.0041053
0.0752263
0.00290402
0.0923643
0.00161724
0.110277
0.000435708
0.130743
-0.000624084
0.154454
-0.0013424
0.182299
-0.00184445
0.214427
-0.00163562
0.257785
0.308994
0.00537792
0.0526037
-0.0043728
0.0051143
0.07549
0.00414979
0.0933288
0.00299174
0.111435
0.00186216
0.131873
0.000765736
0.15555
-4.80364e-05
0.183112
-0.000847845
0.215226
-0.000983416
0.25792
0.30801
0.00597039
0.0509905
-0.00435723
0.00618283
0.0752775
0.00547804
0.0940336
0.00445071
0.112463
0.00335976
0.132964
0.00226066
0.156649
0.00124398
0.184129
0.000200772
0.21627
-0.000283446
0.258404
0.307727
0.00653999
-0.00430289
0.00728293
0.00686677
0.00597891
0.00492236
0.00379339
0.00263022
0.00139396
0.000404515
0.000256624
-0.000952499
0.000847964
-0.0026686
0.00169715
-0.00394582
0.0027442
-0.00482088
0.00394435
-0.00535095
0.00526746
-0.00559638
0.00669808
-0.0056139
0.0082395
-0.00545365
0.00993569
-0.00517064
-0.0048822
0.000312759
-0.00126526
0.000993069
-0.00334891
0.00193623
-0.00488898
0.00306606
-0.00595071
0.00432985
-0.00661474
0.00569553
-0.00696206
0.007149
-0.00706736
0.00869238
-0.00699704
0.0103383
-0.00681651
-0.00660958
0.000358233
-0.00162349
0.00109834
-0.00408902
0.0020869
-0.00587754
0.00323181
-0.00709562
0.00447348
-0.00785641
0.00577843
-0.00826701
0.00713245
-0.00842139
0.00853374
-0.00839832
0.00998133
-0.0082641
-0.0080802
0.000388929
-0.00201242
0.00115231
-0.0048524
0.00212978
-0.00685501
0.0032166
-0.00818244
0.00435032
-0.00899014
0.00550011
-0.00941679
0.00665607
-0.00957735
0.0078197
-0.00956195
0.00899351
-0.00943791
-0.00925793
0.000401251
-0.00241367
0.00114656
-0.00559771
0.00205412
-0.00776257
0.00301292
-0.00914123
0.00396404
-0.00994126
0.00488486
-0.0103376
0.00577469
-0.0104672
0.00664342
-0.0104307
0.00750298
-0.0102975
-0.0101187
0.000392443
-0.00280611
0.0010767
-0.00628197
0.00185876
-0.00854463
0.00263011
-0.00991258
0.00334243
-0.0106536
0.00398599
-0.0109812
0.00457183
-0.011053
0.0051192
-0.0109781
0.0056484
-0.0108267
-0.0106493
0.000360933
-0.00316705
0.000942832
-0.00686387
0.00155189
-0.00915369
0.0020916
-0.0104523
0.00253002
-0.011092
0.00287252
-0.0113237
0.00314132
-0.0113218
0.00336251
-0.0111992
0.00356029
-0.0110244
-0.0108451
0.000306615
-0.00347366
0.000749689
-0.00730694
0.00114965
-0.00955365
0.00143039
-0.010733
0.00157957
-0.0112412
0.00161705
-0.0113612
0.00157326
-0.011278
0.00147699
-0.011103
0.00135157
-0.010899
-0.0107057
0.000230965
-0.00370463
0.000506007
-0.00758198
0.000673638
-0.00972129
0.000684064
-0.0107435
0.000544821
-0.0111019
0.000287296
-0.0111036
-5.40127e-05
-0.0109367
-0.000450448
-0.0107065
-0.000883115
-0.0104664
-0.0102475
0.000136858
-0.00384148
0.00022345
-0.00766858
0.000148263
-0.0096461
-0.000109526
-0.0104857
-0.000524506
-0.010687
-0.0010578
-0.0105703
-0.00167435
-0.0103202
-0.00234971
-0.0100312
-0.00306909
-0.00974697
-0.00948949
4.71409e-05
-0.00388862
-5.80299e-05
-0.0075634
-0.000374602
-0.00932953
-0.000890137
-0.00997014
-0.00156383
-0.0100133
-0.00235237
-0.00978179
-0.00322271
-0.00944984
-0.00415457
-0.00909931
-0.00513817
-0.00876337
-0.00845433
-6.47398e-05
-0.00382388
-0.000370173
-0.00725797
-0.000919374
-0.00878032
-0.00167207
-0.00921744
-0.00257691
-0.00910842