/*--------------------------------*- C++ -*----------------------------------*\
  =========                 |
  \\      /  F ield         | OpenFOAM: The Open Source CFD Toolbox
   \\    /   O peration     | Website:  https://openfoam.org
    \\  /    A nd           | Version:  7
     \\/     M anipulation  |
\*---------------------------------------------------------------------------*/
FoamFile
{
    version     2.0;
    format      ascii;
    class       volScalarField;
    location    "1.7";
    object      p;
}
// * * * * * * * * * * * * * * * * * * * * * * * * * * * * * * * * * * * * * //

dimensions      [0 2 -2 0 0 0 0];

internalField   nonuniform List<scalar> 
32000
(
1.75199
1.7517
1.75264
1.754
1.75562
1.75738
1.75925
1.76122
1.76326
1.76541
1.76776
1.77041
1.77342
1.77678
1.78044
1.78434
1.78843
1.79266
1.79697
1.8013
1.8056
1.80982
1.81391
1.81788
1.8217
1.82537
1.82889
1.83225
1.83545
1.83849
1.84138
1.84413
1.84676
1.84929
1.85173
1.8541
1.8564
1.85866
1.86087
1.86293
1.74653
1.74643
1.74742
1.74879
1.75039
1.7521
1.75389
1.75574
1.75763
1.75961
1.76179
1.76427
1.76712
1.77033
1.77385
1.77764
1.78165
1.78581
1.79008
1.79439
1.79866
1.80285
1.80692
1.81086
1.81467
1.81833
1.82183
1.82517
1.82833
1.83134
1.83418
1.83689
1.83947
1.84193
1.84431
1.84661
1.84884
1.85101
1.85314
1.85512
1.74097
1.74112
1.74216
1.74356
1.74515
1.74682
1.74852
1.75024
1.75198
1.75378
1.75579
1.75811
1.76079
1.76384
1.76723
1.7709
1.77481
1.77891
1.78314
1.78741
1.79165
1.79581
1.79986
1.80378
1.80758
1.81122
1.8147
1.81801
1.82114
1.8241
1.8269
1.82955
1.83208
1.83449
1.8368
1.83902
1.84118
1.84327
1.8453
1.84721
1.73539
1.73578
1.73689
1.73831
1.7399
1.74152
1.74314
1.74473
1.7463
1.74794
1.74977
1.75192
1.75444
1.75733
1.76057
1.76412
1.76793
1.77197
1.77615
1.78038
1.78459
1.78872
1.79274
1.79665
1.80043
1.80405
1.8075
1.81077
1.81386
1.81678
1.81954
1.82214
1.8246
1.82695
1.8292
1.83136
1.83343
1.83543
1.83738
1.8392
1.72981
1.73046
1.73163
1.73308
1.73465
1.73623
1.73776
1.73922
1.74063
1.74209
1.74375
1.74573
1.74807
1.7508
1.75389
1.75732
1.76105
1.76501
1.76913
1.77331
1.77748
1.78158
1.78559
1.78948
1.79323
1.79683
1.80024
1.80348
1.80653
1.8094
1.8121
1.81465
1.81706
1.81935
1.82153
1.82361
1.8256
1.82751
1.82936
1.83111
1.72424
1.72513
1.72636
1.72783
1.7294
1.73094
1.73239
1.73372
1.73497
1.73627
1.73775
1.73955
1.74172
1.74428
1.74723
1.75054
1.75416
1.75805
1.7621
1.76623
1.77036
1.77443
1.77841
1.78228
1.78601
1.78957
1.79295
1.79614
1.79914
1.80197
1.80462
1.80711
1.80946
1.81167
1.81378
1.81579
1.81769
1.81952
1.82127
1.82293
1.71869
1.7198
1.72109
1.7226
1.72417
1.72567
1.72704
1.72825
1.72935
1.73047
1.73178
1.7334
1.73538
1.73778
1.74059
1.74378
1.7473
1.7511
1.75508
1.75915
1.76323
1.76727
1.77123
1.77507
1.77876
1.78228
1.78562
1.78876
1.79172
1.7945
1.79709
1.79952
1.8018
1.80395
1.80598
1.80791
1.80973
1.81146
1.81312
1.81469
1.71317
1.7145
1.71585
1.7174
1.71896
1.72043
1.72172
1.72281
1.72376
1.72472
1.72585
1.72728
1.72909
1.73132
1.73399
1.73706
1.74048
1.74418
1.74808
1.75209
1.75612
1.76012
1.76405
1.76786
1.77151
1.77498
1.77827
1.78136
1.78427
1.78699
1.78953
1.79189
1.79409
1.79617
1.79813
1.79997
1.8017
1.80334
1.8049
1.80639
1.70769
1.70922
1.71064
1.71222
1.71379
1.71522
1.71644
1.71741
1.71822
1.71902
1.71997
1.72121
1.72284
1.72492
1.72745
1.73039
1.7337
1.7373
1.74112
1.74505
1.74903
1.753
1.75689
1.76065
1.76425
1.76768
1.77091
1.77395
1.7768
1.77946
1.78193
1.78422
1.78635
1.78835
1.79023
1.79199
1.79363
1.79518
1.79664
1.79803
1.70225
1.70398
1.70546
1.70708
1.70865
1.71004
1.71119
1.71206
1.71273
1.71337
1.71415
1.7152
1.71665
1.71858
1.72097
1.72378
1.72698
1.73048
1.7342
1.73806
1.74199
1.7459
1.74974
1.75346
1.75701
1.76038
1.76356
1.76654
1.76933
1.77192
1.77431
1.77653
1.77858
1.78051
1.7823
1.78397
1.78552
1.78697
1.78833
1.78964
1.69687
1.69878
1.70031
1.70197
1.70354
1.7049
1.70598
1.70675
1.7073
1.70778
1.70838
1.70925
1.71054
1.7123
1.71455
1.71724
1.72031
1.72371
1.72734
1.73113
1.73499
1.73884
1.74263
1.74629
1.74978
1.75309
1.75621
1.75913
1.76185
1.76437
1.76669
1.76882
1.7708
1.77264
1.77435
1.77593
1.77739
1.77874
1.77999
1.7812
1.69155
1.69361
1.6952
1.69689
1.69847
1.69981
1.70082
1.7015
1.70192
1.70225
1.70267
1.70338
1.7045
1.70611
1.70821
1.71076
1.71372
1.717
1.72055
1.72425
1.72804
1.73183
1.73555
1.73915
1.74258
1.74583
1.74888
1.75173
1.75438
1.75682
1.75905
1.76111
1.763
1.76476
1.76638
1.76787
1.76923
1.77048
1.77163
1.77274
1.68627
1.68849
1.69013
1.69186
1.69343
1.69475
1.69571
1.69629
1.69659
1.69677
1.69703
1.69757
1.69853
1.69999
1.70195
1.70437
1.7072
1.71038
1.71383
1.71745
1.72115
1.72487
1.72852
1.73205
1.73541
1.73859
1.74157
1.74435
1.74692
1.74928
1.75143
1.7534
1.75521
1.75688
1.75841
1.75981
1.76107
1.76222
1.76326
1.76427
1.68104
1.6834
1.68509
1.68685
1.68844
1.68974
1.69064
1.69114
1.69132
1.69135
1.69146
1.69184
1.69265
1.69396
1.69577
1.69805
1.70076
1.70384
1.70719
1.71071
1.71433
1.71796
1.72153
1.72498
1.72827
1.73138
1.73429
1.737
1.73948
1.74175
1.74381
1.74569
1.74742
1.749
1.75045
1.75175
1.75291
1.75395
1.75488
1.75579
1.67586
1.67834
1.68007
1.68188
1.68349
1.68477
1.68561
1.68602
1.68609
1.68599
1.68595
1.68619
1.68685
1.688
1.68967
1.69182
1.69442
1.69738
1.70063
1.70406
1.70758
1.71112
1.71461
1.71797
1.72118
1.72421
1.72704
1.72967
1.73207
1.73424
1.73621
1.73801
1.73965
1.74115
1.7425
1.7437
1.74476
1.74569
1.74651
1.74733
1.67071
1.67329
1.67508
1.67694
1.67856
1.67983
1.68062
1.68095
1.6809
1.68068
1.68051
1.68061
1.68112
1.68213
1.68365
1.68567
1.68816
1.69102
1.69416
1.69748
1.7009
1.70434
1.70773
1.71102
1.71414
1.71709
1.71984
1.72237
1.72468
1.72676
1.72864
1.73035
1.73191
1.73331
1.73457
1.73568
1.73664
1.73746
1.73817
1.73887
1.66558
1.66826
1.67011
1.67201
1.67366
1.67492
1.67566
1.6759
1.67575
1.67541
1.67512
1.67509
1.67546
1.67633
1.67771
1.67961
1.68198
1.68474
1.68776
1.69097
1.69428
1.69763
1.70092
1.70411
1.70715
1.71001
1.71267
1.71511
1.71732
1.71931
1.72111
1.72273
1.7242
1.72551
1.72668
1.72769
1.72854
1.72925
1.72984
1.73045
1.66047
1.66324
1.66514
1.6671
1.66879
1.67003
1.67072
1.67088
1.67063
1.67019
1.66978
1.66963
1.66987
1.6706
1.67186
1.67364
1.6759
1.67854
1.68145
1.68454
1.68774
1.69098
1.69417
1.69727
1.70022
1.70299
1.70555
1.70789
1.71001
1.71191
1.71361
1.71515
1.71653
1.71775
1.71882
1.71973
1.72048
1.72108
1.72157
1.72207
1.65537
1.65822
1.66018
1.6622
1.66392
1.66515
1.66579
1.66588
1.66554
1.66499
1.66448
1.66421
1.66433
1.66493
1.66607
1.66774
1.66989
1.67241
1.6752
1.67818
1.68126
1.68439
1.68748
1.69048
1.69333
1.69601
1.69847
1.70072
1.70274
1.70454
1.70616
1.70761
1.7089
1.71004
1.71101
1.71182
1.71247
1.71297
1.71334
1.71375
1.65027
1.65319
1.65521
1.6573
1.65904
1.66027
1.66087
1.66088
1.66045
1.65981
1.6592
1.65882
1.65883
1.65932
1.66035
1.66191
1.66394
1.66635
1.66902
1.67188
1.67485
1.67786
1.68085
1.68375
1.6865
1.68908
1.69144
1.69359
1.69551
1.69723
1.69876
1.70013
1.70133
1.70237
1.70326
1.70397
1.70452
1.70491
1.70518
1.70549
1.64516
1.64814
1.65023
1.65238
1.65416
1.65537
1.65593
1.65587
1.65536
1.65464
1.65394
1.65346
1.65336
1.65375
1.65468
1.65614
1.65806
1.66035
1.6629
1.66564
1.66849
1.6714
1.67428
1.67707
1.67972
1.68219
1.68446
1.68651
1.68834
1.68997
1.69142
1.69269
1.69381
1.69477
1.69556
1.69618
1.69663
1.69692
1.69709
1.6973
1.64004
1.64308
1.64523
1.64744
1.64925
1.65045
1.65097
1.65085
1.65027
1.64947
1.64868
1.64811
1.64792
1.64822
1.64906
1.65041
1.65223
1.6544
1.65683
1.65946
1.6622
1.66499
1.66776
1.67044
1.67299
1.67536
1.67752
1.67948
1.68122
1.68276
1.68413
1.68532
1.68635
1.68722
1.68792
1.68845
1.68881
1.68901
1.68908
1.68921
1.63491
1.638
1.6402
1.64247
1.64431
1.64551
1.64598
1.64581
1.64516
1.64429
1.64342
1.64277
1.6425
1.64272
1.64347
1.64473
1.64644
1.6485
1.65082
1.65333
1.65595
1.65863
1.66129
1.66386
1.6663
1.66857
1.67063
1.67249
1.67415
1.67561
1.67689
1.678
1.67895
1.67973
1.68035
1.6808
1.68107
1.68119
1.68117
1.68121
1.62976
1.63289
1.63515
1.63747
1.63933
1.64052
1.64096
1.64073
1.64002
1.63909
1.63815
1.63743
1.63709
1.63723
1.63791
1.63908
1.64069
1.64264
1.64485
1.64725
1.64976
1.65232
1.65486
1.65733
1.65966
1.66182
1.66379
1.66556
1.66713
1.66851
1.6697
1.67074
1.67161
1.67232
1.67286
1.67323
1.67342
1.67346
1.67336
1.67332
1.62457
1.62776
1.63007
1.63244
1.63431
1.63549
1.6359
1.63562
1.63485
1.63386
1.63287
1.63209
1.63168
1.63177
1.63237
1.63346
1.63497
1.63682
1.63892
1.64121
1.6436
1.64605
1.64848
1.65083
1.65306
1.65512
1.65699
1.65867
1.66016
1.66146
1.66258
1.66354
1.66434
1.66497
1.66544
1.66574
1.66587
1.66583
1.66566
1.66554
1.61936
1.62258
1.62494
1.62735
1.62924
1.63041
1.63078
1.63045
1.62965
1.6286
1.62756
1.62672
1.62627
1.6263
1.62684
1.62786
1.62928
1.63103
1.63302
1.6352
1.63749
1.63982
1.64213
1.64438
1.6465
1.64846
1.65024
1.65183
1.65324
1.65446
1.65551
1.6564
1.65714
1.65771
1.65811
1.65835
1.65841
1.65832
1.65808
1.6579
1.6141
1.61736
1.61977
1.62221
1.62411
1.62526
1.62561
1.62524
1.62439
1.6233
1.62221
1.62134
1.62085
1.62084
1.62133
1.62227
1.62361
1.62526
1.62716
1.62923
1.63141
1.63362
1.63582
1.63795
1.63997
1.64184
1.64353
1.64504
1.64636
1.64751
1.6485
1.64933
1.65
1.65052
1.65086
1.65105
1.65106
1.65092
1.65063
1.65039
1.60878
1.61209
1.61453
1.61701
1.61892
1.62005
1.62037
1.61997
1.61908
1.61795
1.61683
1.61593
1.61541
1.61537
1.61581
1.61669
1.61795
1.61951
1.62131
1.62329
1.62535
1.62746
1.62954
1.63156
1.63348
1.63525
1.63685
1.63828
1.63953
1.64062
1.64154
1.64232
1.64294
1.6434
1.6437
1.64384
1.64382
1.64364
1.64331
1.64302
1.60341
1.60676
1.60924
1.61174
1.61365
1.61477
1.61507
1.61464
1.61372
1.61255
1.6114
1.61048
1.60995
1.60988
1.61029
1.61111
1.6123
1.61378
1.61549
1.61736
1.61932
1.62131
1.62329
1.6252
1.62701
1.62868
1.6302
1.63155
1.63274
1.63376
1.63464
1.63536
1.63593
1.63636
1.63663
1.63674
1.63669
1.63649
1.63614
1.63582
1.59797
1.60136
1.60388
1.6064
1.60831
1.60942
1.60969
1.60924
1.60829
1.6071
1.60593
1.605
1.60446
1.60438
1.60476
1.60554
1.60666
1.60806
1.60968
1.61146
1.61331
1.61519
1.61705
1.61886
1.62057
1.62215
1.62358
1.62485
1.62598
1.62695
1.62777
1.62845
1.62899
1.62938
1.62963
1.62973
1.62968
1.62947
1.62911
1.62878
1.59245
1.5959
1.59844
1.60097
1.60288
1.60398
1.60424
1.60377
1.6028
1.60159
1.60041
1.59948
1.59894
1.59886
1.59922
1.59995
1.60102
1.60235
1.60389
1.60557
1.60731
1.60908
1.61084
1.61254
1.61415
1.61563
1.61698
1.61818
1.61925
1.62017
1.62095
1.62159
1.6221
1.62248
1.62272
1.62282
1.62278
1.62259
1.62224
1.62192
1.58686
1.59036
1.59293
1.59547
1.59738
1.59847
1.59871
1.59822
1.59724
1.59603
1.59485
1.59393
1.5934
1.59332
1.59366
1.59437
1.59538
1.59664
1.5981
1.59969
1.60133
1.60299
1.60464
1.60624
1.60774
1.60914
1.6104
1.61154
1.61254
1.61341
1.61416
1.61477
1.61526
1.61563
1.61587
1.61599
1.61598
1.61583
1.61553
1.61524
1.58119
1.58475
1.58733
1.58989
1.59179
1.59287
1.5931
1.59261
1.59162
1.59041
1.58924
1.58834
1.58783
1.58776
1.58809
1.58877
1.58973
1.59094
1.59232
1.59381
1.59536
1.59691
1.59845
1.59994
1.60135
1.60265
1.60384
1.60491
1.60586
1.60669
1.60739
1.60798
1.60845
1.60882
1.60908
1.60924
1.60928
1.60919
1.60897
1.60874
1.57543
1.57906
1.58166
1.58423
1.58613
1.58719
1.58741
1.58691
1.58594
1.58474
1.58359
1.58271
1.58223
1.58217
1.5825
1.58316
1.58408
1.58523
1.58654
1.58795
1.58939
1.59084
1.59228
1.59366
1.59497
1.59618
1.59729
1.59829
1.59919
1.59997
1.60064
1.6012
1.60167
1.60204
1.60233
1.60254
1.60265
1.60266
1.60254
1.60243
1.56959
1.57329
1.57591
1.57849
1.58038
1.58143
1.58163
1.58115
1.58018
1.57901
1.5779
1.57705
1.5766
1.57657
1.5769
1.57754
1.57843
1.57952
1.58076
1.58208
1.58343
1.58478
1.58611
1.58739
1.5886
1.58972
1.59075
1.59169
1.59252
1.59326
1.59389
1.59443
1.59489
1.59527
1.5956
1.59586
1.59606
1.59619
1.59623
1.59628
1.56366
1.56744
1.57009
1.57268
1.57455
1.57558
1.57578
1.5753
1.57437
1.57323
1.57216
1.57136
1.57096
1.57095
1.57128
1.5719
1.57276
1.57381
1.57498
1.57621
1.57747
1.57872
1.57994
1.58112
1.58223
1.58326
1.58421
1.58508
1.58586
1.58654
1.58713
1.58764
1.58809
1.58849
1.58885
1.58918
1.58948
1.58976
1.58999
1.59026
1.55765
1.56151
1.56418
1.56678
1.56864
1.56966
1.56986
1.56939
1.56849
1.5674
1.56638
1.56564
1.56529
1.56531
1.56565
1.56626
1.56709
1.56809
1.56919
1.57035
1.57151
1.57266
1.57379
1.57486
1.57587
1.57681
1.57768
1.57847
1.57918
1.57981
1.58034
1.58082
1.58124
1.58165
1.58204
1.58244
1.58285
1.58328
1.58374
1.5843
1.55155
1.5555
1.55819
1.5608
1.56265
1.56365
1.56385
1.56341
1.56255
1.56152
1.56057
1.5599
1.5596
1.55965
1.56001
1.56061
1.56142
1.56237
1.56341
1.56449
1.56556
1.56661
1.56763
1.5686
1.56951
1.57035
1.57114
1.57185
1.57249
1.57304
1.57352
1.57395
1.57434
1.57472
1.57512
1.57556
1.57608
1.57669
1.57741
1.57834
1.54537
1.54941
1.55213
1.55473
1.55658
1.55757
1.55778
1.55737
1.55656
1.55559
1.55472
1.55413
1.55389
1.55399
1.55436
1.55496
1.55574
1.55664
1.55762
1.55863
1.55961
1.56057
1.56148
1.56234
1.56315
1.5639
1.56459
1.56522
1.56577
1.56625
1.56666
1.56701
1.56734
1.56767
1.56804
1.56848
1.56904
1.56978
1.57086
1.57243
1.53912
1.54325
1.54598
1.5486
1.55043
1.55142
1.55164
1.55126
1.55051
1.54963
1.54885
1.54834
1.54817
1.54832
1.54871
1.54931
1.55006
1.55092
1.55184
1.55277
1.55367
1.55453
1.55533
1.55609
1.55679
1.55744
1.55804
1.55857
1.55903
1.55942
1.55974
1.56001
1.56025
1.56049
1.56076
1.56109
1.56152
1.56215
1.56312
1.56531
1.86923
1.8797
1.88873
1.89801
1.90665
1.9152
1.92359
1.93186
1.93989
1.94775
1.95548
1.96304
1.9705
1.97784
1.98512
1.99232
1.99953
2.00684
2.01417
2.0216
2.02904
2.03658
2.04426
2.05202
2.05992
2.0679
2.07586
2.08391
2.09184
2.09984
2.10764
2.1155
2.123
2.13066
2.13771
2.1453
2.15154
2.15971
2.16394
2.17581
1.86127
1.87238
1.88182
1.89146
1.90042
1.90915
1.9177
1.92608
1.93433
1.94225
1.95
1.95766
1.96528
1.97264
1.9799
1.9872
1.99448
2.00181
2.00918
2.0166
2.02411
2.0317
2.03937
2.04718
2.05508
2.06307
2.07106
2.0791
2.08709
2.09506
2.10285
2.11071
2.11821
2.12589
2.13294
2.14054
2.1468
2.15502
2.15929
2.17121
1.85321
1.86497
1.87484
1.88487
1.89413
1.90306
1.91177
1.92026
1.92869
1.93668
1.94449
1.95225
1.96
1.96738
1.97466
1.98204
1.9894
1.99675
2.00415
2.01158
2.01916
2.0268
2.03446
2.04231
2.05023
2.05822
2.06625
2.07428
2.08233
2.09028
2.09808
2.10593
2.11345
2.12116
2.12822
2.13584
2.14214
2.15042
2.15474
2.16671
1.84505
1.85749
1.86778
1.87824
1.88777
1.89692
1.90579
1.91442
1.92295
1.93107
1.93897
1.94682
1.95462
1.96207
1.96943
1.97685
1.98427
1.99165
1.99909
2.00656
2.01417
2.02184
2.02953
2.03742
2.04535
2.05337
2.06142
2.06946
2.07752
2.08549
2.09331
2.10118
2.10872
2.11645
2.12356
2.13123
2.13757
2.1459
2.15029
2.16231
1.83679
1.84995
1.86067
1.87156
1.88134
1.89074
1.89977
1.90855
1.91715
1.92542
1.93343
1.94136
1.94918
1.95673
1.96418
1.97163
1.9791
1.98652
1.994
2.00152
2.00914
2.01685
2.0246
2.0325
2.04046
2.04851
2.05658
2.06465
2.0727
2.08071
2.08856
2.09645
2.10403
2.11179
2.11895
2.12668
2.13307
2.14146
2.14592
2.15799
1.82845
1.84233
1.8535
1.86484
1.87488
1.88452
1.89371
1.90263
1.91133
1.91973
1.92785
1.93587
1.94372
1.95136
1.95889
1.96638
1.97389
1.98136
1.98888
1.99644
2.0041
2.01184
2.01963
2.02757
2.03556
2.04363
2.05173
2.05982
2.06789
2.07594
2.08382
2.09175
2.09937
2.10717
2.11438
2.12219
2.12863
2.13709
2.14162
2.15374
1.82004
1.83466
1.84629
1.85807
1.86837
1.87825
1.88762
1.89668
1.90548
1.914
1.92224
1.93034
1.93824
1.94596
1.95357
1.9611
1.96865
1.97617
1.98373
1.99134
1.99903
2.00681
2.01465
2.02262
2.03064
2.03874
2.04687
2.055
2.06308
2.07117
2.07909
2.08707
2.09473
2.1026
2.10987
2.11775
2.12426
2.13278
2.13739
2.14957
1.81157
1.82694
1.83904
1.85126
1.86184
1.87195
1.88149
1.89069
1.89961
1.90825
1.91659
1.92477
1.93274
1.94053
1.94821
1.95579
1.96339
1.97096
1.97856
1.98621
1.99395
2.00176
2.00964
2.01765
2.02571
2.03384
2.042
2.05016
2.05827
2.06641
2.07438
2.0824
2.09013
2.09806
2.1054
2.11336
2.11994
2.12853
2.13323
2.14547
1.80304
1.81917
1.83176
1.84442
1.85528
1.86561
1.87533
1.88468
1.89371
1.90247
1.91091
1.91919
1.92722
1.93508
1.94282
1.95046
1.9581
1.96572
1.97336
1.98106
1.98884
1.9967
2.00462
2.01267
2.02077
2.02893
2.03712
2.04533
2.05347
2.06166
2.06968
2.07776
2.08556
2.09356
2.10097
2.10902
2.11568
2.12435
2.12913
2.14144
1.79446
1.81137
1.82444
1.83756
1.84869
1.85925
1.86914
1.87864
1.88779
1.89667
1.90521
1.91357
1.92168
1.9296
1.93741
1.9451
1.95279
1.96046
1.96815
1.97589
1.98371
1.99161
1.99959
2.00767
2.01581
2.02401
2.03224
2.04049
2.04867
2.05691
2.065
2.07314
2.08102
2.0891
2.09659
2.10473
2.11148
2.12023
2.1251
2.13749
1.78584
1.80355
1.81711
1.83067
1.84208
1.85287
1.86294
1.87259
1.88185
1.89085
1.89949
1.90794
1.91612
1.92411
1.93197
1.93972
1.94746
1.95517
1.96291
1.9707
1.97857
1.98651
1.99454
2.00265
2.01084
2.01907
2.02734
2.03564
2.04387
2.05217
2.06032
2.06855
2.0765
2.08468
2.09225
2.10048
2.10734
2.11617
2.12113
2.13361
1.77719
1.79571
1.80975
1.82377
1.83546
1.84648
1.85672
1.86652
1.8759
1.88501
1.89376
1.90229
1.91054
1.9186
1.92652
1.93432
1.94211
1.94987
1.95765
1.96549
1.9734
1.9814
1.98947
1.99762
2.00585
2.01413
2.02243
2.03079
2.03908
2.04743
2.05567
2.06397
2.07201
2.08029
2.08795
2.09629
2.10325
2.11217
2.11723
2.1298
1.76853
1.78786
1.8024
1.81686
1.82883
1.84007
1.85049
1.86044
1.86995
1.87917
1.88801
1.89663
1.90494
1.91307
1.92104
1.9289
1.93674
1.94454
1.95237
1.96026
1.96822
1.97626
1.98438
1.99257
2.00084
2.00917
2.01752
2.02593
2.03428
2.04271
2.05102
2.05942
2.06755
2.07593
2.0837
2.09213
2.09922
2.10824
2.1134
2.12606
1.75986
1.78001
1.79505
1.80995
1.82219
1.83366
1.84426
1.85436
1.86399
1.87332
1.88226
1.89095
1.89934
1.90753
1.91556
1.92347
1.93135
1.9392
1.94708
1.95501
1.96303
1.97111
1.97928
1.98751
1.99582
2.0042
2.0126
2.02107
2.02948
2.03799
2.04639
2.05488
2.0631
2.0716
2.07948
2.08803
2.09524
2.10437
2.10963
2.12239
1.7512
1.77217
1.78771
1.80305
1.81556
1.82724
1.83802
1.84827
1.85803
1.86746
1.8765
1.88527
1.89372
1.90198
1.91006
1.91803
1.92596
1.93385
1.94177
1.94976
1.95782
1.96594
1.97416
1.98243
1.99079
1.99922
2.00767
2.0162
2.02469
2.03328
2.04177
2.05035
2.05868
2.0673
2.07531
2.08397
2.09131
2.10057
2.10592
2.11879
1.74255
1.76435
1.78039
1.79615
1.80894
1.82083
1.83179
1.84219
1.85207
1.86161
1.87073
1.87958
1.88809
1.89643
1.90456
1.91258
1.92055
1.92849
1.93646
1.94449
1.9526
1.96076
1.96902
1.97735
1.98575
1.99422
2.00273
2.01133
2.01989
2.02857
2.03715
2.04584
2.05427
2.06302
2.07117
2.07995
2.08744
2.09683
2.10229
2.11525
1.73393
1.75656
1.77301
1.78927
1.80232
1.81443
1.82557
1.83611
1.84612
1.85575
1.86497
1.87388
1.88246
1.89086
1.89905
1.90712
1.91514
1.92312
1.93114
1.93921
1.94737
1.95557
1.96387
1.97225
1.98069
1.98922
1.99778
2.00646
2.01509
2.02385
2.03253
2.04133
2.04988
2.05876
2.06706
2.07599
2.08362
2.09316
2.09872
2.11179
1.72535
1.74882
1.76567
1.78241
1.79573
1.80804
1.81937
1.83005
1.84018
1.8499
1.8592
1.86819
1.87684
1.8853
1.89355
1.90166
1.90973
1.91775
1.92581
1.93393
1.94212
1.95037
1.95871
1.96713
1.97562
1.9842
1.99282
2.00157
2.0103
2.01914
2.02792
2.03684
2.04551
2.05453
2.06299
2.07208
2.07986
2.08955
2.09522
2.1084
1.71684
1.74114
1.75847
1.77558
1.78915
1.80167
1.81318
1.824
1.83425
1.84406
1.85344
1.8625
1.87122
1.87975
1.88804
1.8962
1.90431
1.91237
1.92048
1.92864
1.93687
1.94517
1.95354
1.962
1.97054
1.97918
1.98786
1.99668
2.00549
2.01443
2.0233
2.03235
2.04115
2.05031
2.05894
2.06821
2.07614
2.086
2.0918
2.10509
1.70839
1.73353
1.75133
1.76878
1.7826
1.79533
1.80701
1.81798
1.82834
1.83824
1.8477
1.85683
1.86562
1.8742
1.88254
1.89074
1.89889
1.907
1.91515
1.92334
1.93161
1.93995
1.94835
1.95686
1.96544
1.97414
1.98289
1.99178
2.00068
2.00971
2.01869
2.02786
2.0368
2.04612
2.05493
2.06438
2.07248
2.08252
2.08846
2.10185
1.70002
1.726
1.74425
1.76202
1.77608
1.78902
1.80087
1.81198
1.82245
1.83244
1.84198
1.85118
1.86003
1.86866
1.87705
1.88529
1.89347
1.90162
1.90981
1.91805
1.92634
1.93472
1.94316
1.95171
1.96034
1.96909
1.97791
1.98687
1.99586
2.00499
2.01407
2.02337
2.03246
2.04195
2.05094
2.06059
2.06887
2.0791
2.08518
2.09869
1.69175
1.71855
1.73725
1.75531
1.76961
1.78275
1.79477
1.80601
1.81659
1.82666
1.83629
1.84555
1.85446
1.86314
1.87156
1.87984
1.88806
1.89624
1.90447
1.91274
1.92107
1.92949
1.93796
1.94655
1.95523
1.96403
1.97292
1.98195
1.99103
2.00026
2.00944
2.01888
2.02812
2.03778
2.04696
2.05683
2.06532
2.07574
2.08199
2.09561
1.68359
1.71121
1.73034
1.74865
1.76318
1.77652
1.78871
1.80008
1.81076
1.82091
1.83062
1.83994
1.84891
1.85764
1.86609
1.87441
1.88266
1.89087
1.89914
1.90744
1.9158
1.92425
1.93276
1.94137
1.95011
1.95896
1.96792
1.97702
1.98619
1.99552
2.00481
2.01438
2.02378
2.03363
2.04301
2.05311
2.06181
2.07245
2.07886
2.09262
1.67555
1.70396
1.72354
1.74205
1.7568
1.77034
1.78269
1.79418
1.80497
1.8152
1.82499
1.83436
1.84338
1.85215
1.86063
1.86899
1.87726
1.88551
1.8938
1.90214
1.91052
1.91901
1.92755
1.9362
1.94498
1.95388
1.96291
1.97207
1.98133
1.99076
2.00016
2.00988
2.01945
2.02949
2.03908
2.04941
2.05835
2.06923
2.07582
2.08971
1.66764
1.69683
1.71683
1.73552
1.75048
1.76422
1.77672
1.78833
1.79922
1.80953
1.8194
1.82882
1.83788
1.84668
1.85519
1.86358
1.87188
1.88015
1.88848
1.89684
1.90525
1.91376
1.92233
1.93101
1.93984
1.94879
1.95788
1.96712
1.97646
1.98599
1.99551
2.00537
2.01511
2.02535
2.03516
2.04575
2.05494
2.06607
2.07286
2.0869
1.65988
1.6898
1.71022
1.72905
1.74423
1.75816
1.7708
1.78253
1.79352
1.80391
1.81384
1.82331
1.83241
1.84124
1.84977
1.85819
1.86651
1.87481
1.88316
1.89155
1.89997
1.90851
1.91711
1.92582
1.93469
1.94368
1.95283
1.96214
1.97157
1.98119
1.99084
2.00084
2.01076
2.02121
2.03125
2.0421
2.05157
2.06298
2.06999
2.08418
1.65229
1.68291
1.70368
1.72266
1.73806
1.75216
1.76495
1.77679
1.78789
1.79834
1.80834
1.81785
1.82699
1.83584
1.84439
1.85283
1.86117
1.86948
1.87785
1.88626
1.8947
1.90326
1.91189
1.92063
1.92953
1.93857
1.94777
1.95715
1.96666
1.97638
1.98615
1.99631
2.00641
2.01707
2.02735
2.03849
2.04825
2.05996
2.06722
2.08158
1.64487
1.67614
1.69723
1.71634
1.73196
1.74624
1.75916
1.77112
1.78231
1.79284
1.80289
1.81244
1.8216
1.83047
1.83904
1.84749
1.85584
1.86417
1.87255
1.88098
1.88943
1.89801
1.90666
1.91542
1.92436
1.93344
1.9427
1.95214
1.96173
1.97155
1.98145
1.99176
2.00204
2.01292
2.02345
2.03489
2.04497
2.05702
2.06454
2.07908
1.63764
1.66951
1.69087
1.71011
1.72595
1.7404
1.75346
1.76553
1.77681
1.7874
1.7975
1.80708
1.81627
1.82515
1.83373
1.84218
1.85054
1.85888
1.86727
1.87571
1.88417
1.89276
1.90143
1.91022
1.91917
1.9283
1.93761
1.94712
1.95679
1.96671
1.97673
1.9872
1.99766
2.00876
2.01955
2.0313
2.04172
2.05414
2.06197
2.07672
1.63063
1.66302
1.68459
1.70396
1.72003
1.73464
1.74784
1.76001
1.77138
1.78203
1.79218
1.80178
1.81099
1.81987
1.82845
1.8369
1.84528
1.85362
1.86201
1.87045
1.87892
1.88752
1.89619
1.905
1.91398
1.92315
1.9325
1.94207
1.95182
1.96184
1.972
1.98262
1.99327
2.00459
2.01565
2.02772
2.03851
2.05133
2.05952
2.0745
1.62386
1.65668
1.67841
1.6979
1.71422
1.72899
1.74231
1.75459
1.76604
1.77673
1.78692
1.79653
1.80576
1.81463
1.82321
1.83167
1.84004
1.84839
1.85677
1.86521
1.87368
1.88228
1.89096
1.89979
1.90879
1.918
1.92739
1.93701
1.94684
1.95696
1.96724
1.97801
1.98885
2.00039
2.01173
2.02414
2.03533
2.04859
2.05719
2.07244
1.61735
1.65047
1.67234
1.69195
1.70851
1.72344
1.73689
1.74927
1.76078
1.77152
1.78174
1.79136
1.80058
1.80945
1.81803
1.82647
1.83484
1.84318
1.85155
1.85999
1.86845
1.87704
1.88573
1.89457
1.90358
1.91283
1.92226
1.93194
1.94184
1.95205
1.96245
1.97338
1.9844
1.99617
2.00779
2.02056
2.03217
2.04592
2.05499
2.07055
1.61112
1.6444
1.66638
1.68612
1.70293
1.71802
1.73159
1.74405
1.75562
1.7664
1.77663
1.78625
1.79547
1.80432
1.81289
1.82133
1.82968
1.83801
1.84636
1.85478
1.86323
1.87182
1.8805
1.88936
1.89838
1.90765
1.91712
1.92685
1.93683
1.94713
1.95765
1.96872
1.97993
1.99192
2.00382
2.01696
2.02903
2.04331
2.05293
2.06887
1.60518
1.63846
1.66054
1.68043
1.69748
1.71273
1.72641
1.73895
1.75057
1.76137
1.77161
1.78122
1.79043
1.79926
1.80781
1.81623
1.82456
1.83287
1.84119
1.84959
1.85803
1.8666
1.87528
1.88415
1.89317
1.90247
1.91197
1.92174
1.93179
1.94218
1.95281
1.96403
1.97542
1.98764
1.99983
2.01334
2.02589
2.04076
2.05102
2.06742
1.59956
1.63265
1.65484
1.67488
1.69217
1.70758
1.72136
1.73397
1.74563
1.75645
1.76668
1.77627
1.78546
1.79426
1.80279
1.81119
1.81948
1.82776
1.83606
1.84443
1.85285
1.8614
1.87007
1.87893
1.88796
1.89728
1.9068
1.91662
1.92673
1.93721
1.94796
1.95931
1.97088
1.98332
1.9958
2.00969
2.02276
2.03826
2.04927
2.06623
1.59429
1.62698
1.64931
1.66953
1.68705
1.7026
1.71648
1.72914
1.74083
1.75165
1.76185
1.77142
1.78057
1.78934
1.79784
1.8062
1.81446
1.8227
1.83096
1.83929
1.84768
1.8562
1.86486
1.87372
1.88275
1.89208
1.90163
1.91149
1.92165
1.93221
1.94307
1.95456
1.9663
1.97896
1.99173
2.006
2.0196
2.03581
2.04769
2.06534
1.5894
1.62153
1.64403
1.66442
1.68216
1.69783
1.71179
1.72449
1.73618
1.74699
1.75715
1.76669
1.77579
1.78451
1.79297
1.80128
1.80949
1.81769
1.8259
1.83419
1.84254
1.85103
1.85966
1.86851
1.87753
1.88687
1.89645
1.90634
1.91655
1.9272
1.93815
1.94977
1.96168
1.97455
1.9876
2.00225
2.01641
2.03337
2.04627
2.06481
1.58488
1.61615
1.63887
1.65942
1.67736
1.69315
1.70717
1.71989
1.73157
1.74235
1.75246
1.76195
1.771
1.77967
1.78807
1.79634
1.80449
1.81264
1.82079
1.82902
1.83734
1.84579
1.8544
1.86323
1.87225
1.8816
1.89119
1.90112
1.91138
1.9221
1.93316
1.9449
1.95698
1.97005
1.98338
1.9984
2.01314
2.0309
2.04502
2.0647
1.58032
1.61041
1.63346
1.65415
1.67228
1.6882
1.7023
1.71506
1.72673
1.7375
1.74756
1.75701
1.76601
1.77464
1.78299
1.7912
1.79931
1.8074
1.81551
1.82369
1.83198
1.84039
1.84899
1.8578
1.86683
1.87618
1.88579
1.89577
1.90608
1.91688
1.92804
1.9399
1.95214
1.96541
1.97903
1.9944
2.00974
2.02836
2.04391
2.06509
1.57628
1.60504
1.62837
1.64907
1.6673
1.68327
1.69741
1.71018
1.72185
1.73261
1.74264
1.75206
1.76102
1.76961
1.77794
1.7861
1.79417
1.80222
1.81029
1.81842
1.82667
1.83506
1.84364
1.85244
1.86148
1.87083
1.88046
1.89047
1.90083
1.9117
1.92295
1.93491
1.94729
1.96073
1.9746
1.9903
2.0062
2.02562
2.04278
2.06585
1.5652
1.59268
1.61612
1.63678
1.6549
1.67067
1.68458
1.69717
1.7087
1.71936
1.72926
1.73858
1.7474
1.75585
1.76404
1.77206
1.77998
1.78788
1.7958
1.8038
1.81193
1.82022
1.82871
1.83745
1.84646
1.85579
1.86544
1.8755
1.88595
1.89693
1.90836
1.92053
1.9332
1.94701
1.96143
1.97781
1.99508
2.01641
2.03811
2.06724
1.53532
1.56237
1.58516
1.60542
1.62344
1.63926
1.65329
1.666
1.67763
1.68838
1.69839
1.70779
1.71673
1.7253
1.73361
1.74176
1.74982
1.75786
1.76594
1.7741
1.7824
1.79087
1.79955
1.80849
1.81771
1.82726
1.83715
1.84745
1.85816
1.86943
1.88116
1.89367
1.90674
1.92102
1.93606
1.95325
1.97176
1.99491
2.01945
2.05175
1.50566
1.5318
1.55387
1.57372
1.59158
1.60737
1.62141
1.63416
1.64586
1.65669
1.66679
1.6763
1.68535
1.69405
1.7025
1.71079
1.719
1.7272
1.73545
1.74379
1.75228
1.76095
1.76985
1.77901
1.78846
1.79825
1.80839
1.81896
1.82995
1.84151
1.85357
1.86644
1.87991
1.89466
1.91025
1.92813
1.94746
1.97158
1.99713
2.03051
1.47576
1.50095
1.52231
1.54169
1.5593
1.57496
1.58895
1.6017
1.61343
1.62431
1.63449
1.64409
1.65324
1.66206
1.67064
1.67907
1.68743
1.69579
1.70421
1.71273
1.72141
1.73029
1.7394
1.74878
1.75847
1.76851
1.77891
1.78976
1.80104
1.81291
1.8253
1.83853
1.85239
1.86757
1.88364
1.90202
1.92186
1.94643
1.97228
2.00597
1.44559
1.46981
1.49046
1.50934
1.52666
1.54216
1.55604
1.56875
1.58049
1.5914
1.60165
1.61135
1.62061
1.62956
1.63828
1.64686
1.65538
1.66391
1.6725
1.68121
1.6901
1.69919
1.70852
1.71813
1.72806
1.73835
1.74902
1.76013
1.77171
1.78387
1.79657
1.81012
1.82433
1.83985
1.85627
1.87496
1.89505
1.91976
1.94557
1.97922
1.41498
1.4383
1.45823
1.4766
1.49359
1.50889
1.52265
1.53529
1.54702
1.55797
1.56828
1.57807
1.58745
1.59652
1.60539
1.61413
1.62282
1.63153
1.64032
1.64924
1.65833
1.66763
1.67719
1.68705
1.69722
1.70775
1.71868
1.73006
1.7419
1.75433
1.76731
1.78114
1.79562
1.81139
1.82804
1.8469
1.86708
1.89173
1.91733
1.9508
1.3838
1.40628
1.42553
1.4434
1.46006
1.47515
1.48876
1.50132
1.51303
1.524
1.53437
1.54424
1.55374
1.56295
1.57197
1.58088
1.58975
1.59865
1.60764
1.61676
1.62607
1.6356
1.64539
1.65548
1.66589
1.67667
1.68784
1.69947
1.71156
1.72424
1.73746
1.75152
1.76621
1.78217
1.79897
1.81789
1.83804
1.86253
1.88782
1.92104
1.35195
1.37368
1.39229
1.40967
1.42601
1.44089
1.45435
1.46681
1.47848
1.48946
1.49988
1.50985
1.51946
1.52881
1.53799
1.54707
1.55612
1.56522
1.57441
1.58375
1.59327
1.60303
1.61305
1.62337
1.63402
1.64504
1.65645
1.6683
1.68062
1.69353
1.70696
1.72121
1.73608
1.75217
1.76904
1.78797
1.80802
1.83228
1.8572
1.8901
1.31938
1.34044
1.35845
1.37537
1.3914
1.40606
1.41936
1.43172
1.44335
1.45434
1.46481
1.47486
1.48458
1.49407
1.50341
1.51266
1.5219
1.5312
1.5406
1.55015
1.55989
1.56988
1.58012
1.59067
1.60155
1.6128
1.62443
1.63651
1.64904
1.66215
1.67577
1.69018
1.70518
1.72136
1.73828
1.75717
1.77707
1.80106
1.82555
1.8581
1.28603
1.30648
1.32395
1.34044
1.35617
1.37062
1.38377
1.39603
1.4076
1.4186
1.42911
1.43924
1.44908
1.45871
1.4682
1.47763
1.48706
1.49655
1.50615
1.51592
1.52588
1.53609
1.54656
1.55733
1.56844
1.5799
1.59175
1.60403
1.61677
1.63005
1.64384
1.65839
1.6735
1.68975
1.70668
1.72551
1.74524
1.76893
1.79297
1.82514
1.25188
1.27179
1.28876
1.30484
1.32028
1.33455
1.34755
1.35969
1.37122
1.38221
1.39276
1.40298
1.41292
1.42269
1.43233
1.44193
1.45155
1.46124
1.47105
1.48102
1.4912
1.50162
1.51232
1.52331
1.53463
1.5463
1.55836
1.57084
1.58376
1.59722
1.61115
1.62582
1.64102
1.65732
1.67425
1.693
1.71255
1.73594
1.7595
1.79128
1.21691
1.23632
1.25284
1.26853
1.2837
1.29779
1.31065
1.3227
1.33417
1.34516
1.35575
1.36603
1.37608
1.38598
1.39577
1.40554
1.41534
1.42522
1.43523
1.44542
1.45581
1.46644
1.47735
1.48856
1.50009
1.51197
1.52422
1.53689
1.54999
1.5636
1.57767
1.59246
1.60774
1.62408
1.64099
1.65965
1.67902
1.7021
1.72518
1.75657
1.18109
1.20006
1.21615
1.23148
1.24641
1.26033
1.27306
1.285
1.29643
1.30741
1.31803
1.32838
1.33853
1.34855
1.35849
1.36843
1.3784
1.38847
1.39868
1.40907
1.41967
1.43051
1.44163
1.45304
1.46477
1.47686
1.4893
1.50215
1.51541
1.52918
1.54338