/*--------------------------------*- C++ -*----------------------------------*\
  =========                 |
  \\      /  F ield         | OpenFOAM: The Open Source CFD Toolbox
   \\    /   O peration     | Website:  https://openfoam.org
    \\  /    A nd           | Version:  7
     \\/     M anipulation  |
\*---------------------------------------------------------------------------*/
FoamFile
{
    version     2.0;
    format      ascii;
    class       surfaceScalarField;
    location    "1.7";
    object      phi;
}
// * * * * * * * * * * * * * * * * * * * * * * * * * * * * * * * * * * * * * //

dimensions      [0 3 -1 0 0 0 0];

internalField   nonuniform List<scalar> 
63520
(
-1.49039e-05
0.00135723
-0.00134233
-4.92005e-05
0.00333779
-0.00330349
-9.7371e-05
0.00474675
-0.00469858
-0.00015259
0.00564478
-0.00558957
-0.000207329
0.00611707
-0.00606234
-0.000254138
0.00625063
-0.00620382
-0.000286209
0.00612355
-0.00609148
-0.000297754
0.00580192
-0.00579038
-0.000284195
0.00533971
-0.00535327
-0.000242157
0.00478051
-0.00482255
-0.00016951
0.00415963
-0.00423228
-6.53047e-05
0.00350569
-0.0036099
7.03978e-05
0.00284204
-0.00297774
0.00023664
0.00218782
-0.00235407
0.000431638
0.00155856
-0.00175356
0.000652974
0.000966476
-0.00118781
0.000897801
0.00042082
-0.000665647
0.00116295
-7.18948e-05
-0.000193251
0.00144506
-0.00050771
0.000225595
0.0017408
-0.000884915
0.00058918
0.00204692
-0.0012037
0.000897574
0.0023604
-0.00146584
0.00115237
0.00267845
-0.00167436
0.00135631
0.00299863
-0.00183319
0.001513
0.00331886
-0.00194686
0.00162664
0.00363739
-0.00202025
0.00170172
0.00395282
-0.00205831
0.00174288
0.00426406
-0.0020659
0.00175466
0.00457028
-0.00204763
0.00174141
0.00487091
-0.00200779
0.00170716
0.00516558
-0.00195028
0.0016556
0.00545411
-0.00187857
0.00159004
0.00573642
-0.0017957
0.00151339
0.00601255
-0.00170431
0.00142818
0.00628261
-0.00160664
0.00133659
0.00654675
-0.00150461
0.00124046
0.00680514
-0.00139982
0.00114143
0.00705794
-0.00129384
0.00104104
0.00730527
-0.00118605
0.000938715
-0.00107134
0.00754706
0.000829556
-1.09753e-05
0.00136821
-3.71694e-05
0.00336398
-7.45006e-05
0.00478408
-0.000117323
0.00568761
-0.000158943
0.00615869
-0.000192484
0.00628417
-0.000211512
0.00614257
-0.000210422
0.00580083
-0.000184758
0.00531405
-0.000131284
0.00472704
-4.7921e-05
0.00407627
6.63031e-05
0.00339146
0.000211303
0.00269704
0.000386055
0.00201307
0.00058876
0.00135585
0.000816994
0.000738243
0.00106785
0.000169963
0.00133813
-0.000342172
0.00162448
-0.000794065
0.00192357
-0.001184
0.00223215
-0.00151228
0.00254723
-0.00178092
0.00286609
-0.00199322
0.00318636
-0.00215345
0.00350602
-0.00226653
0.00382344
-0.00233767
0.0041373
-0.00237216
0.00444659
-0.00237518
0.00475058
-0.00235162
0.0050488
-0.00230601
0.00534097
-0.00224244
0.00562695
-0.00216455
0.00590674
-0.0020755
0.00618045
-0.00197802
0.00644822
-0.00187441
0.00671025
-0.00176664
0.00696676
-0.00165634
0.00721791
-0.001545
0.00746387
-0.001432
-0.00131212
0.00770464
-7.19782e-06
0.00137541
-2.52206e-05
0.00338201
-5.15336e-05
0.00481039
-8.1676e-05
0.00571775
-0.000109803
0.00618682
-0.00012958
0.00630395
-0.000134989
0.00614798
-0.00012069
0.00578653
-8.23858e-05
0.00527575
-1.69112e-05
0.00466156
7.77712e-05
0.00398159
0.000202554
0.00326668
0.000357305
0.00254229
0.000540981
0.0018294
0.000751726
0.00114511
0.000987056
0.000502913
0.00124405
-8.703e-05
0.00151948
-0.000617601
0.00180997
-0.00108456
0.00211219
-0.00148621
0.00242294
-0.00182303
0.00273926
-0.00209724
0.00305849
-0.00231245
0.00337836
-0.00247333
0.00369697
-0.00258514
0.00401276
-0.00265346
0.00432451
-0.00268392
0.00463134
-0.00268202
0.00493263
-0.00265291
0.00522798
-0.00260136
0.00551719
-0.00253165
0.00580022
-0.00244758
0.00607715
-0.00235242
0.0063481
-0.00224897
0.0066133
-0.00213961
0.00687298
-0.00202631
0.00712736
-0.00191072
0.00737667
-0.00179431
0.00762113
-0.00167646
-0.00155178
0.0078608
-3.5083e-06
0.00137891
-1.34421e-05
0.00339194
-2.87263e-05
0.00482568
-4.60004e-05
0.00573502
-6.02829e-05
0.0062011
-6.58771e-05
0.00630954
-5.71691e-05
0.00613927
-2.90951e-05
0.00575846
2.247e-05
0.00522418
0.00010055
0.00458348
0.000207093
0.00387504
0.000342956
0.00313082
0.000507942
0.0023773
0.000700913
0.00163642
0.000919975
0.000926048
0.00116261
0.000260282
0.00142581
-0.000350235
0.00170633
-0.00089812
0.0020008
-0.00137903
0.00230591
-0.00179132
0.00261848
-0.0021356
0.00293561
-0.00241437
0.00325476
-0.0026316
0.00357375
-0.00279232
0.00389077
-0.00290216
0.00420439
-0.00296708
0.00451353
-0.00299306
0.00481741
-0.00298589
0.0051155
-0.002951
0.00540753
-0.00289338
0.00569338
-0.0028175
0.00597309
-0.00272729
0.00624679
-0.00262612
0.00651468
-0.00251687
0.00677702
-0.00240196
0.00703408
-0.00228338
0.00728614
-0.00216278
0.00753345
-0.00204162
0.00777623
-0.00191924
-0.0017902
0.00801464
-3.58645e-08
0.00137895
-1.96642e-06
0.00339387
-6.22185e-06
0.00482993
-1.05436e-05
0.00573934
-1.07734e-05
0.00620133
-1.83069e-06
0.0063006
2.14543e-05
0.00611599
6.3804e-05
0.00571611
0.000129149
0.00515883
0.000220394
0.00449224
0.000339367
0.00375607
0.000486821
0.00298336
0.000662477
0.00220164
0.000865124
0.00143378
0.00109278
0.000698391
0.00134285
1.02135e-05
0.0016123
-0.000619681
0.00189784
-0.00118366
0.00219611
-0.0016773
0.0025038
-0.00209901
0.00281782
-0.00244962
0.00313534
-0.0027319
0.00345394
-0.00295019
0.00377153
-0.00310991
0.00408644
-0.00321708
0.00439738
-0.00327802
0.00470339
-0.00329907
0.00500382
-0.00328632
0.00529826
-0.00324544
0.00558653
-0.00318166
0.00586862
-0.0030996
0.00614465
-0.00300331
0.0064148
-0.00289627
0.00667934
-0.00278141
0.00693857
-0.00266119
0.00719279
-0.0025376
0.00744232
-0.0024123
0.00768743
-0.00228673
0.00792839
-0.00216019
-0.00202723
0.00816541
3.34949e-06
0.0013756
9.17248e-06
0.00338805
1.57925e-05
0.00482331
2.44318e-05
0.0057307
3.84119e-05
0.00618735
6.2157e-05
0.00627685
0.000100389
0.00607776
0.000157493
0.005659
0.000237149
0.00507918
0.000342084
0.0043873
0.000474001
0.00362415
0.000633533
0.00282383
0.000820275
0.0020149
0.00103291
0.00122114
0.00126937
0.00046193
0.00152699
-0.000247402
0.00180266
-0.000895357
0.00209309
-0.00147409
0.00239492
-0.00197913
0.00270489
-0.00240898
0.00301996
-0.00276469
0.00333743
-0.00304936
0.00365497
-0.00326773
0.00397065
-0.00342559
0.00428295
-0.00352937
0.0045907
-0.00358577
0.00489309
-0.00360146
0.0051896
-0.00358282
0.00547994
-0.00353579
0.00576406
-0.00346578
0.00604203
-0.00337757
0.00631404
-0.00327532
0.00658034
-0.00316257
0.00684127
-0.00304233
0.00709715
-0.00291707
0.00734833
-0.00278879
0.00759515
-0.00265913
0.00783791
-0.00252949
0.00807689
-0.00239917
-0.00226273
0.00831239
6.51758e-06
0.00136908
1.98741e-05
0.00337469
3.7198e-05
0.00480599
5.87179e-05
0.00570918
8.69595e-05
0.00615911
0.000125717
0.00623809
0.000179217
0.00602426
0.000251469
0.00558675
0.000345884
0.00498476
0.000464996
0.00426819
0.000610331
0.00347882
0.000782358
0.0026518
0.000980533
0.00181673
0.00120343
0.000998249
0.00144886
0.000216496
0.00171407
-0.000512613
0.00199592
-0.0011772
0.00229107
-0.00176924
0.0025962
-0.00228426
0.00290809
-0.00272088
0.00322381
-0.0030804
0.00354076
-0.00336632
0.00385677
-0.00358374
0.00417005
-0.00373887
0.00447923
-0.00383855
0.00478331
-0.00388985
0.00508162
-0.00389977
0.00537377
-0.00387498
0.00565963
-0.00382165
0.00593923
-0.00374538
0.00621275
-0.00365108
0.00648043
-0.003543
0.00674263
-0.00342477
0.0069997
-0.0032994
0.00725203
-0.00316939
0.00749998
-0.00303675
0.00774393
-0.00290307
0.00798417
-0.00276973
0.00822105
-0.00263605
-0.00249658
0.0084549
9.48878e-06
0.00135959
3.00838e-05
0.00335409
5.78485e-05
0.00477822
9.21026e-05
0.00567493
0.000134601
0.00611661
0.000188485
0.00618421
0.000257482
0.00595526
0.000345217
0.00549902
0.000454789
0.00487519
0.00058849
0.00413449
0.000747644
0.00331966
0.000932529
0.00246692
0.00114244
0.00160682
0.00137581
0.000764884
0.00163032
-3.80216e-05
0.00190314
-0.000785427
0.00219105
-0.00146512
0.00249074
-0.00206893
0.00279888
-0.0025924
0.00311233
-0.00303433
0.00342828
-0.00339635
0.00374427
-0.00368231
0.00405827
-0.00389774
0.00436867
-0.00404927
0.00467426
-0.00414414
0.00497421
-0.0041898
0.00526802
-0.00419358
0.00555543
-0.0041624
0.00583644
-0.00410267
0.0061112
-0.00402013
0.00637997
-0.00391984
0.00664308
-0.00380612
0.00690094
-0.00368263
0.00715395
-0.00355242
0.00740254
-0.00341798
0.00764711
-0.00328131
0.00788802
-0.00314398
0.00812563
-0.00300734
0.00836027
-0.00287069
-0.00272866
0.00859234
1.22424e-05
0.00134735
3.97385e-05
0.0033266
7.76317e-05
0.00474033
0.000124398
0.00562816
0.000181057
0.00605995
0.000250112
0.00611515
0.000334768
0.0058706
0.000438237
0.00539555
0.000563283
0.00475015
0.000711923
0.00398585
0.000885234
0.00314635
0.00108328
0.00226887
0.00130516
0.00138493
0.00154916
0.000520889
0.00181282
-0.000301686
0.00209321
-0.00106581
0.00238706
-0.00175897
0.00269105
-0.00237291
0.00300189
-0.00290324
0.00331654
-0.00334899
0.00363231
-0.00371211
0.00394689
-0.00399689
0.00425843
-0.00420928
0.00456548
-0.00435633
0.00486705
-0.0044457
0.00516246
-0.00448521
0.00545137
-0.00448249
0.00573369
-0.00444472
0.00600955
-0.00437852
0.00627918
-0.00428977
0.00654296
-0.00418362
0.00680129
-0.00406445
0.00705462
-0.00393596
0.00730341
-0.00380121
0.00754811
-0.00366268
0.00778914
-0.00352234
0.0080269
-0.00338174
0.00826174
-0.00324218
0.00849402
-0.00310298
-0.00295883
0.00872419
1.4766e-05
0.00133258
4.87923e-05
0.00329257
9.64428e-05
0.00469268
0.000155435
0.00556917
0.000226083
0.0059893
0.000310269
0.00603097
0.000410668
0.0057702
0.000530051
0.00527616
0.000670816
0.00460938
0.000834668
0.00382199
0.00102241
0.00295862
0.00123385
0.00205743
0.00146789
0.00115089
0.00172262
0.000266161
0.00199544
-0.000574511
0.00228332
-0.00135368
0.00258294
-0.0020586
0.00289097
-0.00268094
0.00320419
-0.00321646
0.00351967
-0.00366446
0.00383484
-0.00402729
0.00414758
-0.00430964
0.00445622
-0.00451791
0.00475951
-0.00465962
0.00505664
-0.00474283
0.00534714
-0.00477571
0.00563082
-0.00476617
0.00590775
-0.00472166
0.00617818
-0.00464895
0.00644247
-0.00455406
0.00670105
-0.0044422
0.00695443
-0.00431782
0.00720308
-0.00418462
0.00744752
-0.00404565
0.00768821
-0.00390337
0.0079256
-0.00375973
0.00816009
-0.00361623
0.00839205
-0.00347414
0.00862185
-0.00333278
-0.00318697
0.00884999
1.70546e-05
0.00131553
5.72117e-05
0.00325241
0.000114197
0.00463569
0.000185063
0.0054983
0.000269462
0.0059049
0.000368668
0.00593176
0.000484812
0.00565406
0.000620208
0.00514077
0.000776863
0.00445273
0.000956131
0.00364273
0.00115849
0.00275625
0.0013835
0.00183242
0.00162983
0.000904566
0.00189534
6.51691e-07
0.00217729
-0.000856463
0.00247253
-0.00164892
0.00277772
-0.00236378
0.00308952
-0.00299274
0.00340478
-0.00353172
0.0037207
-0.00398038
0.00403487
-0.00434146
0.00434536
-0.00462012
0.00465068
-0.00482323
0.00494981
-0.00495876
0.00524215
-0.00503516
0.0055274
-0.00506096
0.00580556
-0.00504433
0.00607685
-0.00499295
0.00634164
-0.00491374
0.0066004
-0.00481282
0.00685366
-0.00469546
0.00710195
-0.00456611
0.00734582
-0.00442849
0.00758582
-0.00428564
0.00782242
-0.00413998
0.00805608
-0.00399339
0.00828721
-0.00384736
0.0085162
-0.00370312
0.00874342
-0.00356
-0.00341296
0.00896941
1.91052e-05
0.00129642
6.49688e-05
0.00320655
0.000130829
0.00456983
0.000213164
0.00541596
0.000311009
0.00580705
0.000425048
0.00581772
0.000556869
0.00552224
0.00070831
0.00498933
0.000880947
0.00428009
0.00107576
0.00344792
0.00129288
0.00253913
0.00153157
0.00159373
0.00179023
0.000645907
0.00206651
-0.000275631
0.00235751
-0.00114746
0.00265996
-0.00195137
0.00297047
-0.0026743
0.00328574
-0.00330801
0.00360269
-0.00384868
0.00391867
-0.00429635
0.00423143
-0.00465423
0.00453926
-0.00492794
0.00484088
-0.00512485
0.0051355
-0.00525338
0.00542272
-0.00532238
0.00570244
-0.00534068
0.00597484
-0.00531674
0.0062403
-0.0052584
0.0064993
-0.00517274
0.00675241
-0.00506593
0.00700023
-0.00494328
0.00724336
-0.00480924
0.0074824
-0.00466753
0.00771789
-0.00452114
0.00795035
-0.00437243
0.00818024
-0.00422327
0.00840795
-0.00407508
0.00863389
-0.00392906
0.00885844
-0.00378455
-0.00363669
0.00908217
2.09179e-05
0.00127551
7.20526e-05
0.00315541
0.000146298
0.00449559
0.000239648
0.00532261
0.000350577
0.00569612
0.000479201
0.0056891
0.000626561
0.00537488
0.000793997
0.00482189
0.000982639
0.00409145
0.00119305
0.00323751
0.001425
0.00230718
0.00167741
0.00134131
0.00194841
0.000374911
0.00223541
-0.000562627
0.00253531
-0.00144737
0.00284476
-0.00226082
0.00316032
-0.00298986
0.00347872
-0.00362641
0.003797
-0.00416696
0.00411264
-0.00461199
0.00442361
-0.00496519
0.00472838
-0.00523272
0.00502595
-0.00542242
0.00531573
-0.00554317
0.00559755
-0.0056042
0.00587152
-0.00561464
0.00613798
-0.0055832
0.00639746
-0.00551788
0.00665056
-0.00542585
0.00689795
-0.00531332
0.0071403
-0.00518562
0.00737825
-0.0050472
0.00761244
-0.00490172
0.00784343
-0.00475213
0.00807174
-0.00460074
0.00829782
-0.00444936
0.00852209
-0.00429936
0.00874493
-0.0041519
0.00896674
-0.00400636
-0.00385805
0.0091881
2.24984e-05
0.00125301
7.84604e-05
0.00309945
0.000160578
0.00441347
0.000264456
0.00521873
0.000388061
0.00557252
0.000530964
0.00554619
0.00069366
0.00521218
0.000876981
0.00463857
0.00108158
0.00388685
0.00130758
0.00301151
0.00155436
0.0020604
0.00182048
0.00107519
0.00210375
9.16408e-05
0.00240133
-0.000860212
0.00270996
-0.00175599
0.00302615
-0.00257701
0.00334644
-0.00331015
0.00366762
-0.00394758
0.00398684
-0.00448618
0.00430175
-0.0049269
0.00461052
-0.00527397
0.00491189
-0.00553408
0.00520507
-0.0057156
0.00548974
-0.00582784
0.00576593
-0.00588039
0.00603396
-0.00588267
0.00629435
-0.00584359
0.00654777
-0.0057713
0.00679493
-0.00567301
0.00703659
-0.00555498
0.00727346
-0.0054225
0.00750627
-0.00528
0.00773564
-0.00513109
0.00796216
-0.00497865
0.00818634
-0.00482493
0.00840864
-0.00467166
0.00862947
-0.00452018
0.00884918
-0.00437162
0.00906819
-0.00422536
-0.00407697
0.00928711
2.38556e-05
0.00122915
8.42028e-05
0.0030391
0.000173668
0.004324
0.000287562
0.00510484
0.000423398
0.00543668
0.000580225
0.00538937
0.000757999
0.0050344
0.000957032
0.00443954
0.00117748
0.0036664
0.001419
0.00276999
0.00168053
0.00179887
0.00196027
0.000795453
0.00225569
-0.000203776
0.00256368
-0.0011682
0.00288078
-0.00207309
0.0032034
-0.00289963
0.00352807
-0.00363483
0.00385164
-0.00427115
0.0041714
-0.00480594
0.00448517
-0.00524068
0.00479138
-0.00558018
0.00508899
-0.00583169
0.0053775
-0.00600411
0.00565681
-0.00610715
0.00592719
-0.00615077
0.00618915
-0.00614464
0.0064434
-0.00609784
0.00669073
-0.00601862
0.00693196
-0.00591424
0.00716791
-0.00579093
0.00739939
-0.00565398
0.00762711
-0.00550773
0.00785175
-0.00535573
0.00807388
-0.00520078
0.00829401
-0.00504506
0.00851259
-0.00489023
0.00872999
-0.00473759
0.00894659
-0.00458822
0.00916278
-0.00444154
-0.00429339
0.00937919
2.5001e-05
0.00120415
8.93004e-05
0.0029748
0.00018559
0.00422771
0.000308975
0.00498146
0.000456568
0.00528909
0.000626926
0.00521901
0.000819475
0.00484186
0.00103399
0.00422502
0.00127012
0.00343027
0.00152702
0.00251309
0.00180318
0.0015227
0.00209639
0.000502245
0.00240376
-0.000511143
0.0027219
-0.00148635
0.00304716
-0.00239835
0.00337586
-0.00322833
0.00370451
-0.00396349
0.00403006
-0.00459669
0.00434992
-0.00512581
0.00466216
-0.00555292
0.00496543
-0.00588345
0.00525897
-0.00612524
0.00554254
-0.00628768
0.00581629
-0.00638091
0.00608072
-0.0064152
0.00633655
-0.00640046
0.00658463
-0.00634593
0.00682589
-0.00625988
0.00706125
-0.0061496
0.00729161
-0.00602129
0.00751779
-0.00588016
0.00774057
-0.0057305
0.0079606
-0.00557576
0.00817846
-0.00541864
0.00839464
-0.00526124
0.00860958
-0.00510517
0.00882365
-0.00495165
0.00903717
-0.00480174
0.00925055
-0.00465491
-0.00450728
0.00946444
2.59492e-05
0.0011782
9.37849e-05
0.00290697
0.000196386
0.00412511
0.000328733
0.00484911
0.000487596
0.00513022
0.000671066
0.00503554
0.000878046
0.00463488
0.00110777
0.00399529
0.00135936
0.00317869
0.00163144
0.00224101
0.00192203
0.00123211
0.00222849
0.000195792
0.00254754
-0.000830197
0.00287552
-0.00181432
0.00320858
-0.0027314
0.00354293
-0.00356268
0.00387513
-0.00429569
0.0042022
-0.00492375
0.00452174
-0.00544535
0.00483203
-0.00586321
0.005132
-0.00618342
0.00542118
-0.00641441
0.00569958
-0.00656607
0.00596762
-0.00664895
0.00622602
-0.0066736
0.00647568
-0.00665013
0.00671763
-0.00658787
0.0069529
-0.00649515
0.00718251
-0.00637921
0.00740741
-0.00624619
0.00762846
-0.00610122
0.00784646
-0.0059485
0.00806205
-0.00579135
0.0082758
-0.00563239
0.0084882
-0.00547364
0.00869964
-0.00531661
0.00891047
-0.00516248
0.009121
-0.00501228
0.00933161
-0.00486553
-0.00471866
0.009543
2.67168e-05
0.00115148
9.76973e-05
0.00283599
0.000206115
0.00401669
0.000346908
0.00470831
0.000516549
0.00496058
0.000712692
0.0048394
0.000933731
0.00441384
0.00117836
0.00375067
0.00144512
0.00291193
0.00173213
0.001954
0.0020369
0.000927338
0.00235631
-0.000123616
0.00268672
-0.0011606
0.00302414
-0.00215175
0.00336456
-0.00307182
0.00370411
-0.00390224
0.00403936
-0.00463094
0.00436746
-0.00525185
0.00468622
-0.00576411
0.00499416
-0.00617115
0.00529049
-0.00647975
0.00557503
-0.00669895
0.00584807
-0.00683911
0.00611028
-0.00691116
0.00636261
-0.00692592
0.00660614
-0.00689366
0.00684204
-0.00682377
0.00707145
-0.00672457
0.00729547
-0.00660323
0.0075151
-0.00646582
0.00773123
-0.00631736
0.00794465
-0.00616192
0.00815602
-0.00600271
0.00836587
-0.00584225
0.00857467
-0.00568243
0.00878278
-0.00552473
0.00899053
-0.00537023
0.0091982
-0.00521995
0.00940615
-0.00507348
-0.0049276
0.00961509
2.73225e-05
0.00112416
0.000101087
0.00276222
0.000214859
0.00390292
0.0003636
0.00455957
0.000543533
0.00478065
0.000751905
0.00463102
0.000986611
0.00417913
0.00124579
0.00349149
0.00152742
0.0026303
0.00182905
0.00165236
0.00214767
0.000608722
0.00247967
-0.000455617
0.00282102
-0.00150194
0.00316743
-0.00249817
0.0035147
-0.00341909
0.00385891
-0.00424645
0.00419669
-0.00496872
0.00452531
-0.00558047
0.00484281
-0.00608161
0.005148
-0.00647634
0.00544037
-0.00677212
0.00572002
-0.0069786
0.00598754
-0.00710664
0.00624386
-0.00716748
0.00649012
-0.00717218
0.00672759
-0.00713114
0.00695757
-0.00705375
0.0071813
-0.0069483
0.00739994
-0.00682187
0.00761453
-0.00668041
0.00782599
-0.00652882
0.00803509
-0.00637102
0.00824248
-0.0062101
0.00844867
-0.00604844
0.00865409
-0.00588786
0.00885909
-0.00572973
0.00906395
-0.00557509
0.00926893
-0.00542494
0.00947437
-0.00527891
-0.00513421
0.00968098
2.77868e-05
0.00109638
0.000104012
0.002686
0.000222713
0.00378422
0.000378932
0.00440335
0.000568689
0.00459089
0.00078885
0.00441086
0.00103682
0.00393116
0.00131017
0.00321813
0.00160631
0.00233415
0.00192221
0.00133647
0.00225428
0.000276649
0.00259844
-0.000799776
0.00295024
-0.00185374
0.0033051
-0.00285303
0.00365865
-0.00377264
0.00400695
-0.00459474
0.00434666
-0.00530844
0.00467527
-0.00590908
0.00499104
-0.00639738
0.00529306
-0.00677836
0.00558116
-0.00706021
0.00585572
-0.00725317
0.0061176
-0.00736852
0.00636799
-0.00741787
0.00660824
-0.00741243
0.00683977
-0.00736267
0.007064
-0.00727798
0.00728226
-0.00716656
0.00749577
-0.00703538
0.0077056
-0.00689024
0.00791266
-0.00673588
0.00811773
-0.00657608
0.00832141
-0.00641378
0.00852421
-0.00625124
0.00872653
-0.00609017
0.00892866
-0.00593186
0.00913086
-0.0057773
0.00933337
-0.00562744
0.00953649
-0.00548203
-0.00533866
0.00974095
2.81318e-05
0.00106824
0.000106535
0.00260759
0.000229786
0.00366097
0.000393052
0.00424009
0.000592192
0.00439175
0.000823712
0.00417934
0.00108453
0.00367034
0.00137167
0.002931
0.00168193
0.0020239
0.00201167
0.00100673
0.00235674
-6.84232e-05
0.00271255
-0.00115558
0.00307423
-0.00221541
0.00343693
-0.00321574
0.00379613
-0.00413184
0.00414786
-0.00494647
0.0044889
-0.00564948
0.00481692
-0.0062371
0.00513047
-0.00671093
0.00542895
-0.00707684
0.00571247
-0.00734374
0.00598175
-0.00752245
0.00623792
-0.0076247
0.00648239
-0.00766234
0.00671672
-0.00764675
0.00694247
-0.00758842
0.00716117
-0.00749668
0.00737422
-0.00737962
0.00758288
-0.00724404
0.00778824
-0.0070956
0.00799122
-0.00693886
0.00819255
-0.00677742
0.00839284
-0.00661407
0.00859256
-0.00645095
0.00879205
-0.00628967
0.00899159
-0.00613141
0.00919141
-0.00597711
0.00939169
-0.00582773
0.00959274
-0.00568308
-0.00554119
0.00979527
2.838e-05
0.00103986
0.000108726
0.00252725
0.000236197
0.0035335
0.000406126
0.00407016
0.000614241
0.00418364
0.000856709
0.00393687
0.00112998
0.00339708
0.00143049
0.00263048
0.00175443
0.00169996
0.00209754
0.000663612
0.00245509
-0.000425972
0.00282196
-0.00152245
0.00319288
-0.00258633
0.00356274
-0.0035856
0.00392688
-0.00449597
0.00428134
-0.00530093
0.00462306
-0.0059912
0.00494991
-0.00656395
0.00526075
-0.00702177
0.00555529
-0.00737138
0.00583398
-0.00762242
0.00609783
-0.00778629
0.00634823
-0.0078751
0.00658684
-0.00790095
0.00681537
-0.00787528
0.00703554
-0.00780859
0.00724896
-0.0077101
0.00745709
-0.00758775
0.00766122
-0.00744817
0.00786244
-0.00729682
0.00806165
-0.00713807
0.00825959
-0.00697535
0.00845681
-0.00681129
0.00865375
-0.0066479
0.00885073
-0.00648665
0.00904799
-0.00632867
0.00924571
-0.00617483
0.00944406
-0.00602608
0.00964331
-0.00588233
-0.00574207
0.00984419
2.85548e-05
0.00101131
0.000110657
0.00244515
0.000242074
0.00340208
0.00041833
0.0038939
0.000635052
0.00396692
0.000888083
0.00368384
0.00117339
0.00311177
0.00148685
0.00231703
0.00182401
0.0013628
0.00217997
0.000307645
0.00254941
-0.000795407
0.00292668
-0.00189972
0.00330612
-0.00296578
0.00368237
-0.00396185
0.00405068
-0.00486428
0.00440714
-0.00565739
0.00474884
-0.0063329
0.00507394
-0.00688905
0.00538158
-0.00732941
0.00567182
-0.00766162
0.00594543
-0.00789604
0.00620372
-0.00804459
0.00644836
-0.00811974
0.00668118
-0.00813377
0.00690409
-0.00809819
0.00711891
-0.00802341
0.00732732
-0.00791852
0.00753084
-0.00779127
0.00773077
-0.00764809
0.00792819
-0.00749424
0.00812399
-0.00733387
0.00831887
-0.00717023
0.00851336
-0.00700578
0.00870786
-0.0068424
0.00890265
-0.00668145
0.00909794
-0.00652395
0.00929387
-0.00637076
0.0094906
-0.00622281
0.00968837
-0.0060801
-0.00594161
0.00988791
2.86801e-05
0.000982629
0.000112401
0.00236142
0.000247545
0.00326694
0.000429848
0.0037116
0.000654854
0.00374191
0.00091809
0.00342061
0.00121505
0.00281481
0.00154101
0.00199107
0.00189088
0.00101292
0.00225912
-6.05965e-05
0.00263978
-0.00117607
0.00302671
-0.00228665
0.00341388
-0.00335294
0.0037957
-0.00434367
0.00416735
-0.00523594
0.00452502
-0.00601506
0.00486601
-0.00667389
0.00518874
-0.00721178
0.0054927
-0.00763338
0.00577829
-0.00794721
0.00604661
-0.00816436
0.00629927
-0.00829724
0.00653816
-0.00835863
0.00676533
-0.00836094
0.00698281
-0.00831568
0.00719253
-0.00823313
0.00739624
-0.00812223
0.00759548
-0.0079905
0.00779155
-0.00784416
0.00798552
-0.00768822
0.00817826
-0.00752661
0.00837043
-0.0073624
0.00856253
-0.00719789
0.00875493
-0.00703479
0.00894786
-0.00687438
0.00914149
-0.00671759
0.00933596
-0.00656522
0.00953138
-0.00641823
0.009728
-0.00627671
-0.00614015
0.00992653
2.87803e-05
0.000953848
0.000114031
0.00227617
0.000252742
0.00312823
0.000440869
0.00352347
0.000673881
0.0035089
0.000946992
0.0031475
0.00125521
0.00250659
0.00159322
0.00165306
0.00195527
0.000650872
0.00233516
-0.000440481
0.00272632
-0.00156722
0.0031221
-0.00268243
0.00351611
-0.00374696
0.00390261
-0.00473016
0.00427673
-0.00561007
0.0046348
-0.00637313
0.00497435
-0.00701343
0.00529411
-0.00753155
0.00559393
-0.0079332
0.00587456
-0.00822783
0.00613741
-0.00842721
0.00638437
-0.0085442
0.00661757
-0.00859184
0.00683923
-0.0085826
0.00705151
-0.00852796
0.00725642
-0.00843804
0.00745574
-0.00832156
0.00765104
-0.0081858
0.00784361
-0.00803673
0.00803449
-0.00787911
0.00822453
-0.00771665
0.00841434
-0.00755221
0.00860439
-0.00738794
0.008795
-0.0072254
0.00898639
-0.00706576
0.00917869
-0.00690989
0.009372
-0.00675853
0.00956644
-0.00661267
0.00976222
-0.00647249
-0.00633803
0.0099601
2.88801e-05
0.000924968
0.000115617
0.00218944
0.000257791
0.00298605
0.000451576
0.00332969
0.000692362
0.00326811
0.000975047
0.00286481
0.00129415
0.00218749
0.00164374
0.00130347
0.00201739
0.000277216
0.00240823
-0.000831319
0.00280909
-0.00196808
0.00321284
-0.00308618
0.00361278
-0.0041469
0.004003
-0.00512038
0.00437868
-0.00598575
0.00473631
-0.00673075
0.00507368
-0.00735081
0.00538989
-0.00784776
0.00568513
-0.00822844
0.0059605
-0.0085032
0.00621772
-0.00868444
0.00645897
-0.00878544
0.00668657
-0.00881944
0.0069029
-0.00879893
0.00711022
-0.00873528
0.00731061
-0.00863843
0.00750589
-0.00851683
0.0076976
-0.00837751
0.00788702
-0.00822615
0.00807517
-0.00806726
0.00826284
-0.00790432
0.00845063
-0.00774
0.00863896
-0.00757626
0.00882811
-0.00741455
0.00901825
-0.00725591
0.00920952
-0.00710115
0.00940197
-0.00695099
0.00959573
-0.00680642
0.009791
-0.00666776
-0.00653558
0.00998855
2.90026e-05
0.000895965
0.000117227
0.00210121
0.000262816
0.00284046
0.000462147
0.00313036
0.000710516
0.00301974
0.0010025
0.00257283
0.00133211
0.00185788
0.00169279
0.000942783
0.00207743
-0.000107427
0.00247848
-0.00123237
0.00288818
-0.00237778
0.00329895
-0.00349695
0.00370381
-0.00455176
0.00409676
-0.00551332
0.00447306
-0.00636205
0.00482939
-0.00708709
0.00516387
-0.00768529
0.00547595
-0.00815983
0.0057662
-0.00851869
0.00603604
-0.00877304
0.00628754
-0.00893593
0.00652307
-0.00902098
0.00674519
-0.00904155
0.00695639
-0.00901014
0.00715903
-0.00893792
0.00735521
-0.00883461
0.00754676
-0.00870839
0.00773523
-0.00856598
0.00792185
-0.00841277
0.00810762
-0.00825302
0.00829327
-0.00808998
0.00847936
-0.00792609
0.00866627
-0.00776317
0.00885425
-0.00760253
0.00904345
-0.00744511
0.00923395
-0.00729165
0.00942582
-0.00714286
0.00961916
-0.00699976
0.0098142
-0.0068628
-0.00673311
0.0100117
2.91686e-05
0.000866797
0.000118924
0.00201145
0.000267932
0.00269145
0.000472743
0.00292555
0.000728543
0.00276394
0.00102957
0.0022718
0.00136931
0.00151814
0.00174058
0.00057152
0.00213555
-0.0005024
0.00254601
-0.00164282
0.00296362
-0.0027954
0.00338041
-0.00391374
0.00378915
-0.0049605
0.0041838
-0.00590797
0.00455975
-0.006738
0.00491393
-0.00744127
0.00524482
-0.00801618
0.00555222
-0.00846724
0.00583708
-0.00880355
0.00610118
-0.00903715
0.00634686
-0.00918161
0.00657673
-0.00925085
0.00679351
-0.00925833
0.0069998
-0.00921643
0.00719802
-0.00913614
0.0073903
-0.00902689
0.00757847
-0.00889656
0.00776404
-0.00875154
0.00794821
-0.00859694
0.00813192
-0.00843673
0.00831587
-0.00827393
0.00850058
-0.00811079
0.00868636
-0.00794896
0.00887344
-0.00778961
0.00906194
-0.00763361
0.00925192
-0.00748163
0.00944344
-0.00733438
0.0096366
-0.00719292
0.00983164
-0.00705784
-0.00693088
0.0100294
2.93961e-05
0.0008374
0.000120765
0.00192008
0.00027324
0.00253898
0.000483512
0.00271527
0.000746624
0.00250083
0.00105646
0.00196197
0.00140596
0.00116864
0.00178727
0.000190213
0.00219187
-0.000907002
0.00261088
-0.00206183
0.00303544
-0.00321995
0.00345718
-0.00433548
0.00386871
-0.00537203
0.00426401
-0.00630327
0.00463863
-0.00711263
0.00498983
-0.00779248
0.00531643
-0.00834277
0.00561864
-0.00876944
0.00589777
-0.00908268
0.00615594
-0.00929532
0.00639575
-0.00942142
0.00662004
-0.00947513
0.00683163
-0.00946993
0.00703325
-0.00941805
0.00722734
-0.00933023
0.00741603
-0.00921559
0.00760114
-0.00908167
0.00778414
-0.00893454
0.00796618
-0.00877899
0.00814816
-0.00861871
0.00833072
-0.00845649
0.00851431
-0.00829439
0.00869924
-0.00813389
0.00888567
-0.00797604
0.0090737
-0.00782163
0.00926336
-0.0076713
0.00945471
-0.00752573
0.00964786
-0.00738606
0.00984309
-0.00725307
-0.00712907
0.0100413
2.97002e-05
0.0008077
0.0001228
0.00182698
0.000278832
0.00238295
0.000494577
0.00249953
0.00076491
0.0022305
0.00108332
0.00164355
0.00144219
0.000809766
0.00183298
-0.000200571
0.00224646
-0.00132049
0.00267312
-0.00248849
0.00310359
-0.00365042
0.00352918
-0.00476107
0.0039424
-0.00578524
0.00433727
-0.00669814
0.00470962
-0.00748497
0.00505701
-0.00813987
0.00537867
-0.00866443
0.0056752
-0.00906598
0.0059483
-0.00935578
0.00620039
-0.00954741
0.00643432
-0.00965535
0.00665311
-0.00969392
0.00685971
-0.00967653
0.00705689
-0.00961523
0.00724713
-0.00952047
0.00743254
-0.00940101
0.00761491
-0.00926403
0.00779565
-0.00911528
0.00797587
-0.00895921
0.00815641
-0.00879925
0.00833786
-0.00863794
0.00852061
-0.00847715
0.00870493
-0.0083182
0.00889093
-0.00816204
0.00907867
-0.00800938
0.00926819
-0.00786081
0.00945951
-0.00771705
0.00965276
-0.00757932
0.00984827
-0.00744858
-0.00732781
0.010047
3.00944e-05
0.000777605
0.00012507
0.00173201
0.000284778
0.00222324
0.000506041
0.00227827
0.000783523
0.00195302
0.00111029
0.00131678
0.00147813
0.000441931
0.00187779
-0.000600232
0.00229937
-0.00174207
0.00273272
-0.00292185
0.00316803
-0.00408572
0.00359633
-0.00518938
0.00401009
-0.006199
0.00440348
-0.00709154
0.0047726
-0.00785409
0.0051154
-0.00848267
0.0054315
-0.00898054
0.00572193
-0.00935641
0.00598874
-0.00962258
0.00623464
-0.00979331
0.00646271
-0.00988342
0.00667611
-0.00990732
0.0068779
-0.00987832
0.00707089
-0.00980822
0.00725756
-0.00970713
0.00743999
-0.00958344
0.00761991
-0.00944396
0.00779869
-0.00929406
0.00797739
-0.0091379
0.00815676
-0.00897862
0.00833735
-0.00881854
0.00851951
-0.00865931
0.00870343
-0.00850212
0.0088892
-0.00834781
0.00907683
-0.00819701
0.00926632
-0.0080503
0.0094577
-0.00790843
0.00965111
-0.00777273
0.00984694
-0.00764441
-0.00752712
0.0100463
3.05897e-05
0.000747015
0.000127609
0.00163499
0.000291139
0.00205971
0.000517985
0.00205142
0.000802555
0.00166845
0.00113745
0.000981883
0.00151382
6.5561e-05
0.00192173
-0.00100814
0.00235057
-0.0021709
0.00278962
-0.0033609
0.00322864
-0.00452475
0.0036585
-0.00561924
0.00407167
-0.00661216
0.00446253
-0.0074824
0.0048275
-0.00821907
0.00516496
-0.00882012
0.00547495
-0.00929053
0.00575889
-0.00964035
0.00601918
-0.00988287
0.00625881
-0.0100329
0.00648106
-0.0101057
0.00668922
-0.0101155
0.00688641
-0.0100755
0.00707545
-0.00999727
0.00725881
-0.00989048
0.00743853