/*--------------------------------*- C++ -*----------------------------------*\
  =========                 |
  \\      /  F ield         | OpenFOAM: The Open Source CFD Toolbox
   \\    /   O peration     | Website:  https://openfoam.org
    \\  /    A nd           | Version:  7
     \\/     M anipulation  |
\*---------------------------------------------------------------------------*/
FoamFile
{
    version     2.0;
    format      ascii;
    class       volVectorField;
    location    "1.7";
    object      U;
}
// * * * * * * * * * * * * * * * * * * * * * * * * * * * * * * * * * * * * * //

dimensions      [0 1 -1 0 0 0 0];

internalField   nonuniform List<vector> 
32000
(
(-0.00111117 0.0539938 -1.52038e-21)
(-0.00417955 0.132831 0)
(-0.00866341 0.188903 -1.35529e-20)
(-0.0134098 0.224659 0)
(-0.0178899 0.243528 1.41317e-20)
(-0.0215226 0.248996 0)
(-0.0238716 0.244182 1.4618e-20)
(-0.0246348 0.231715 -1.11131e-20)
(-0.0236238 0.21373 4.46299e-24)
(-0.020756 0.19195 4.84427e-24)
(-0.0160412 0.167763 -3.83872e-21)
(-0.00956839 0.142289 1.54758e-20)
(-0.00148618 0.116441 0)
(0.00801842 0.0909655 -3.9381e-21)
(0.0187313 0.066464 3.9544e-21)
(0.0304228 0.0434114 0)
(0.0428597 0.0221666 1.99658e-20)
(0.0558124 0.00298072 -4.00912e-21)
(0.0690634 -0.013993 0)
(0.0824132 -0.0286875 8.08328e-21)
(0.0956852 -0.0411096 8.06724e-21)
(0.108731 -0.0513288 0)
(0.121427 -0.0594616 0)
(0.133677 -0.0656587 0)
(0.145406 -0.0700951 0)
(0.156564 -0.0729596 0)
(0.16712 -0.0744441 0)
(0.17706 -0.0747364 0)
(0.186385 -0.0740157 -1.60535e-20)
(0.195103 -0.0724492 0)
(0.203234 -0.0701878 1.59564e-20)
(0.210803 -0.067367 0)
(0.217837 -0.0641061 0)
(0.224368 -0.0605076 0)
(0.230426 -0.0566604 -1.57019e-20)
(0.236044 -0.0526392 -7.83497e-21)
(0.241248 -0.0485084 2.33807e-20)
(0.246072 -0.0443301 -2.24655e-23)
(0.250575 -0.0400789 1.54327e-20)
(0.25461 -0.0355575 -2.61978e-23)
(-0.00204947 0.0545075 0)
(-0.00613154 0.134007 2.63681e-20)
(-0.0108445 0.1905 6.78171e-21)
(-0.0153366 0.226425 -5.88375e-24)
(-0.0192113 0.245185 -7.07762e-21)
(-0.0220169 0.25028 0)
(-0.0234071 0.244854 1.45251e-20)
(-0.0231425 0.231578 -1.47321e-20)
(-0.0210792 0.21264 0)
(-0.0171667 0.18981 -3.0268e-20)
(-0.011444 0.164525 0)
(-0.00401679 0.137947 -4.63121e-20)
(0.00495903 0.111027 0)
(0.0152816 0.0845464 0)
(0.0267258 0.059133 1.57902e-20)
(0.0390606 0.0352817 -1.58409e-20)
(0.0520469 0.0133656 -1.59612e-20)
(0.0654496 -0.00635531 0)
(0.0790531 -0.023726 4.80881e-20)
(0.0926611 -0.0386835 -1.60647e-20)
(0.106099 -0.0512433 -1.24091e-23)
(0.119225 -0.061485 -4.83187e-20)
(0.131925 -0.0695383 -3.22231e-20)
(0.14411 -0.0755698 -1.61603e-20)
(0.155713 -0.0797704 4.83244e-20)
(0.166695 -0.0823431 -4.83062e-20)
(0.177034 -0.0834933 4.82932e-20)
(0.186726 -0.083422 -6.41513e-20)
(0.195777 -0.0823198 -1.59276e-20)
(0.204206 -0.0803621 8.79005e-23)
(0.212038 -0.0777082 -4.76939e-20)
(0.219304 -0.0744996 -3.17122e-20)
(0.226036 -0.0708596 6.31819e-20)
(0.232268 -0.0668949 -6.28751e-20)
(0.238037 -0.0626948 -1.55747e-20)
(0.243374 -0.058336 -6.23414e-20)
(0.24831 -0.053884 4.55389e-23)
(0.252882 -0.0493968 1.54271e-20)
(0.257139 -0.0448494 -6.1357e-20)
(0.260945 -0.0400399 -8.44552e-20)
(-0.00300629 0.0548164 -6.04134e-21)
(-0.00812504 0.134739 -1.32022e-20)
(-0.0130679 0.191559 -6.06091e-20)
(-0.0172903 0.227628 0)
(-0.0205307 0.246302 7.03538e-21)
(-0.0224636 0.251068 -7.1551e-21)
(-0.0228347 0.245088 -8.72373e-20)
(-0.0214726 0.231069 2.95561e-20)
(-0.0182871 0.211243 -1.49492e-20)
(-0.0132607 0.187428 9.05843e-20)
(-0.00645377 0.161105 3.05173e-20)
(0.00200374 0.133484 1.54562e-20)
(0.0119363 0.105552 -6.19362e-20)
(0.0231344 0.0781206 0)
(0.0353637 0.0518483 0)
(0.0483805 0.0272505 3.16293e-20)
(0.061943 0.00471329 7.16569e-23)
(0.0758159 -0.0154951 -3.1824e-20)
(0.0897803 -0.0332179 -3.20243e-20)
(0.103642 -0.0483973 -6.39584e-20)
(0.117234 -0.0610571 9.62149e-20)
(0.130422 -0.0712877 1.00354e-22)
(0.143101 -0.079233 2.81583e-23)
(0.15519 -0.0850755 3.21246e-20)
(0.166635 -0.0890216 -6.43808e-20)
(0.177406 -0.0912889 1.2834e-19)
(0.187492 -0.0920968 0)
(0.196898 -0.0916592 3.20582e-20)
(0.205641 -0.0901761 3.19799e-20)
(0.213748 -0.0878321 6.37385e-20)
(0.221249 -0.084794 8.76435e-23)
(0.228182 -0.0812086 0)
(0.234584 -0.0772034 3.14624e-20)
(0.240495 -0.0728869 -3.12472e-20)
(0.24595 -0.0683509 -3.1019e-20)
(0.250987 -0.0636736 9.32947e-20)
(0.255637 -0.0589178 -9.2504e-20)
(0.259938 -0.0541423 6.15397e-20)
(0.263936 -0.0493199 -9.15383e-20)
(0.267503 -0.0442425 3.35008e-20)
(-0.00397067 0.0549795 4.80956e-20)
(-0.0101434 0.135185 -5.24122e-20)
(-0.0153304 0.19223 1.0757e-19)
(-0.0192758 0.228388 0)
(-0.0218516 0.24696 4.19732e-20)
(-0.0228675 0.251408 7.12732e-20)
(-0.0221653 0.244911 1.46875e-20)
(-0.0196427 0.230195 1.3349e-23)
(-0.0152606 0.209535 4.45884e-20)
(-0.00904258 0.184796 -1.5267e-20)
(-0.00108062 0.157502 7.59141e-20)
(0.00847424 0.128898 -9.19381e-20)
(0.0194302 0.100014 9.28236e-20)
(0.0315606 0.0716946 -3.11507e-20)
(0.0446189 0.0446231 3.12799e-20)
(0.0583552 0.0193362 -6.28243e-20)
(0.0725208 -0.00376542 -9.4757e-20)
(0.0868759 -0.0244081 3.16994e-20)
(0.101203 -0.0424348 -3.18737e-20)
(0.115312 -0.0577911 9.58341e-20)
(0.129044 -0.07051 -6.40747e-20)
(0.142271 -0.0806943 -6.38971e-20)
(0.1549 -0.0885021 0)
(0.166862 -0.094132 0)
(0.178113 -0.097806 -6.39018e-20)
(0.188637 -0.0997566 -6.40896e-20)
(0.198434 -0.100217 -6.37353e-20)
(0.20752 -0.0994114 0)
(0.215921 -0.0975509 0)
(0.223673 -0.0948284 -1.26708e-19)
(0.230814 -0.091417 -9.30007e-23)
(0.237387 -0.0874685 6.30861e-20)
(0.243434 -0.0831135 -6.26688e-20)
(0.248999 -0.0784633 -6.24842e-20)
(0.254122 -0.0736114 6.2386e-20)
(0.258839 -0.0686343 0)
(0.263187 -0.0635963 6.16921e-20)
(0.267202 -0.0585538 -1.22387e-19)
(0.270929 -0.0534767 1.2193e-19)
(0.274243 -0.0481576 -1.337e-19)
(-0.00493892 0.0549644 -2.40839e-20)
(-0.0121768 0.135232 3.93311e-20)
(-0.0176102 0.192394 -5.37025e-20)
(-0.021273 0.228601 0)
(-0.023168 0.247073 -6.99853e-20)
(-0.0232309 0.251239 -4.27823e-20)
(-0.021404 0.244273 5.7917e-20)
(-0.0176617 0.228924 0)
(-0.0120184 0.2075 -8.91736e-20)
(-0.00453971 0.181906 -3.01275e-20)
(0.00464892 0.153706 -3.03928e-20)
(0.0153692 0.124189 6.12775e-20)
(0.0274085 0.0944209 -6.15999e-20)
(0.0405251 0.0652788 3.09814e-20)
(0.0544583 0.0374736 0)
(0.0689461 0.0115609 9.42063e-20)
(0.0837345 -0.0120462 3.16473e-20)
(0.0985824 -0.0330669 -6.32939e-20)
(0.113272 -0.0513441 1.26838e-19)
(0.127618 -0.0668298 -1.27151e-19)
(0.14147 -0.0795655 1.27181e-19)
(0.154713 -0.0896664 6.38955e-20)
(0.167262 -0.0973067 0)
(0.179063 -0.102701 6.38731e-20)
(0.190086 -0.106087 1.94918e-22)
(0.200327 -0.107711 0)
(0.2098 -0.107819 6.3734e-20)
(0.218531 -0.106647 -6.353e-20)
(0.226559 -0.104415 6.32655e-20)
(0.233925 -0.101324 1.26448e-19)
(0.240678 -0.0975526 -1.25854e-19)
(0.246865 -0.0932574 1.25485e-19)
(0.252534 -0.0885717 0)
(0.257733 -0.083608 0)
(0.262504 -0.0784607 1.23805e-19)
(0.266887 -0.0732063 0)
(0.270917 -0.0679079 0)
(0.274634 -0.0626206 -1.21753e-19)
(0.278079 -0.0573132 1.21236e-19)
(0.28113 -0.0517777 6.66327e-20)
(-0.00590013 0.0548007 1.19656e-20)
(-0.0142049 0.134955 0)
(-0.0198968 0.192125 1.06751e-19)
(-0.0232783 0.22832 1.36685e-20)
(-0.0244735 0.246678 1.3955e-20)
(-0.0235526 0.250577 8.49562e-20)
(-0.020558 0.24318 1.15117e-19)
(-0.0155387 0.22725 0)
(-0.00856918 0.205124 2.96019e-20)
(0.000236852 0.178742 8.95506e-20)
(0.0107177 0.149708 1.20593e-19)
(0.0226669 0.119349 -3.04756e-20)
(0.0358481 0.0887685 -9.18527e-20)
(0.0499998 0.0588764 0)
(0.0648452 0.0304072 1.24044e-19)
(0.0801121 0.00393622 0)
(0.0955402 -0.02011 1.88025e-19)
(0.110885 -0.0414465 -6.28996e-20)
(0.125931 -0.0599182 0)
(0.1405 -0.0754818 -6.33939e-20)
(0.154452 -0.0881886 -2.01857e-22)
(0.167683 -0.0981686 -6.31831e-20)
(0.180122 -0.105612 -6.34761e-20)
(0.191727 -0.110749 6.36146e-20)
(0.202487 -0.113831 -6.34477e-20)
(0.21241 -0.11512 0)
(0.221524 -0.114873 -6.34029e-20)
(0.229869 -0.113338 6.31606e-20)
(0.237492 -0.110743 0)
(0.244445 -0.107296 0)
(0.250783 -0.103182 0)
(0.256561 -0.0985586 -1.24957e-19)
(0.261833 -0.0935626 1.24297e-19)
(0.266648 -0.0883078 0)
(0.271051 -0.0828878 -6.17707e-20)
(0.275085 -0.0773799 0)
(0.278786 -0.0718453 1.22125e-19)
(0.282195 -0.0663372 -6.05167e-20)
(0.285348 -0.0608238 -1.20815e-19)
(0.288128 -0.0550978 1.32182e-19)
(-0.00684894 0.0544898 8.3335e-20)
(-0.0162183 0.13434 -1.1686e-19)
(-0.0221734 0.1914 -1.99855e-19)
(-0.0252726 0.227526 -1.08802e-19)
(-0.0257589 0.245752 -2.77999e-20)
(-0.0238279 0.249399 -5.67443e-20)
(-0.0196235 0.241611 -2.58598e-19)
(-0.0132773 0.225156 -8.72165e-20)
(-0.00492502 0.202392 -1.47272e-19)
(0.00527037 0.175293 -1.49273e-19)
(0.0171056 0.145499 -2.10683e-19)
(0.0303413 0.114374 -1.21179e-19)
(0.0447159 0.0830586 4.45052e-22)
(0.059946 0.0524925 -1.22865e-19)
(0.0757371 0.023435 -1.24041e-19)
(0.0918052 -0.00352015 -1.86468e-19)
(0.107883 -0.0279358 1.24488e-19)
(0.123725 -0.0495233 -6.26507e-20)
(0.139119 -0.0681291 0)
(0.153894 -0.0837166 1.25876e-19)
(0.167923 -0.0963487 0)
(0.181112 -0.106171 2.53011e-19)
(0.193407 -0.113388 0)
(0.204784 -0.118246 -6.33555e-20)
(0.215246 -0.12101 6.3572e-20)
(0.224818 -0.121957 -1.26248e-19)
(0.233541 -0.121357 0)
(0.241469 -0.119464 -1.26016e-19)
(0.24866 -0.116517 1.25492e-19)
(0.255175 -0.112729 0)
(0.261075 -0.10829 0)
(0.266425 -0.10336 0)
(0.271281 -0.0980758 -1.23585e-19)
(0.275696 -0.0925532 0)
(0.279719 -0.0868857 -1.22811e-19)
(0.283393 -0.0811489 2.44296e-19)
(0.286756 -0.0754031 -2.43052e-19)
(0.289848 -0.0696993 1.20499e-19)
(0.292702 -0.0640053 2.40433e-19)
(0.295204 -0.0581159 -1.31459e-19)
(-0.00777811 0.0540381 -1.07149e-19)
(-0.0182012 0.133401 3.19966e-22)
(-0.0244256 0.190234 1.06423e-19)
(-0.0272444 0.226222 2.17272e-19)
(-0.0270117 0.244293 -2.77153e-20)
(-0.0240487 0.247701 -1.12647e-19)
(-0.0186012 0.239556 1.14738e-19)
(-0.0108826 0.222628 1.74446e-19)
(-0.00109438 0.199291 5.89873e-20)
(0.0105457 0.171547 1.48359e-19)
(0.02379 0.141069 1.20174e-19)
(0.0383646 0.109258 1.81412e-19)
(0.0539789 0.077289 3.65547e-19)
(0.0703245 0.0461308 1.83992e-19)
(0.0870883 0.0165653 0)
(0.103974 -0.0107964 6.21526e-20)
(0.120708 -0.0355071 6.16932e-20)
(0.137043 -0.0572763 6.21538e-20)
(0.152771 -0.0759533 1.2532e-19)
(0.167733 -0.0915096 -6.32434e-20)
(0.181811 -0.104021 0)
(0.194929 -0.113647 -5.10754e-22)
(0.207048 -0.120609 -1.25807e-19)
(0.218163 -0.125167 1.25806e-19)
(0.228294 -0.127602 2.51984e-19)
(0.237482 -0.128203 2.51564e-19)
(0.245785 -0.12725 -1.43407e-22)
(0.253268 -0.125008 1.25129e-19)
(0.260002 -0.121723 1.2481e-19)
(0.266055 -0.117612 -1.24439e-19)
(0.2715 -0.112867 1.2402e-19)
(0.276404 -0.107652 1.23556e-19)
(0.28083 -0.102105 2.46635e-19)
(0.284834 -0.0963398 -3.33819e-22)
(0.288466 -0.0904503 3.6636e-19)
(0.291771 -0.0845106 -2.07143e-22)
(0.294788 -0.0785794 -1.20717e-19)
(0.297558 -0.0727055 -1.20611e-19)
(0.300108 -0.0668571 1.19398e-19)
(0.302327 -0.0608315 1.30492e-19)
(-0.00868239 0.0534579 9.46517e-20)
(-0.0201421 0.132151 1.29385e-19)
(-0.0266381 0.188636 7.93028e-20)
(-0.0291783 0.224417 -8.13816e-20)
(-0.0282204 0.242304 -1.3792e-19)
(-0.0242077 0.245476 1.12623e-19)
(-0.0174871 0.237006 0)
(-0.00835631 0.219655 1.15629e-19)
(0.00291387 0.195808 0)
(0.0160478 0.167491 -2.36913e-19)
(0.0307504 0.136408 5.97996e-20)
(0.0467101 0.103995 -3.01314e-19)
(0.0636036 0.0714579 -1.21623e-19)
(0.0810954 0.0397927 6.06816e-20)
(0.098853 0.00980379 9.73075e-23)
(0.116567 -0.0178819 -6.16813e-20)
(0.133958 -0.04281 -1.24237e-19)
(0.150777 -0.0646889 -2.48889e-19)
(0.166824 -0.0833721 0)
(0.181948 -0.0988403 -1.09954e-22)
(0.196049 -0.111183 -1.2519e-19)
(0.209064 -0.120575 -1.25733e-19)
(0.220974 -0.127254 1.25804e-19)
(0.231793 -0.131493 -1.26188e-19)
(0.241561 -0.133588 1.25208e-19)
(0.250336 -0.13384 -2.50804e-19)
(0.25819 -0.13254 -1.52817e-22)
(0.265204 -0.12996 -2.49885e-19)
(0.271458 -0.126351 -1.24808e-19)
(0.277032 -0.121936 1.76872e-22)
(0.282004 -0.116909 -3.497e-22)
(0.28645 -0.111433 -1.23554e-19)
(0.290435 -0.105648 -1.23051e-19)
(0.294018 -0.0996662 -5.35335e-22)
(0.297252 -0.0935811 -1.21941e-19)
(0.300182 -0.087465 -5.40388e-22)
(0.302849 -0.0813746 -1.20277e-19)
(0.305292 -0.0753569 3.59004e-19)
(0.307534 -0.06938 -1.19397e-19)
(0.309467 -0.0632456 -1.30378e-19)
(-0.00955643 0.0527578 -9.46627e-20)
(-0.0220289 0.130606 2.57503e-20)
(-0.0287959 0.18662 -7.93586e-20)
(-0.0310586 0.222119 -2.69821e-20)
(-0.0293714 0.239787 1.10312e-19)
(-0.024295 0.242724 -2.8037e-20)
(-0.0162761 0.233955 2.84594e-20)
(-0.00569866 0.216228 -1.73362e-19)
(0.00709354 0.191933 5.84068e-20)
(0.0217641 0.163115 1.18259e-19)
(0.0379682 0.131508 0)
(0.0553523 0.0985783 2.40222e-19)
(0.0735575 0.0655617 0)
(0.0922197 0.033479 -2.43452e-19)
(0.110986 0.00315544 -1.22171e-19)
(0.129534 -0.0247687 0)
(0.147576 -0.0498334 0)
(0.164866 -0.0717472 2.47905e-19)
(0.181211 -0.0903694 1.24456e-19)
(0.196473 -0.105692 -2.49219e-19)
(0.210565 -0.117819 1.24684e-19)
(0.223444 -0.126941 0)
(0.235113 -0.133308 -1.25168e-19)
(0.245605 -0.13721 2.49543e-19)
(0.25498 -0.138958 -1.24829e-19)
(0.263313 -0.138861 -1.24926e-19)
(0.270695 -0.137219 1.24495e-19)
(0.277217 -0.134313 0)
(0.282974 -0.130398 2.47869e-19)
(0.288052 -0.1257 -1.23556e-19)
(0.29254 -0.120413 -1.233e-19)
(0.296517 -0.114702 -1.47534e-22)
(0.300054 -0.108705 4.8879e-19)
(0.30321 -0.102534 -3.65257e-19)
(0.306041 -0.0962804 0)
(0.308593 -0.0900147 -1.208e-19)
(0.310907 -0.0837915 -2.39895e-19)
(0.313021 -0.0776558 1.18875e-19)
(0.314955 -0.0715765 1.18295e-19)
(0.3166 -0.0653601 0)
(-0.0103957 0.0519478 -1.88092e-19)
(-0.0238499 0.128782 -2.567e-20)
(-0.0308841 0.184204 2.10272e-19)
(-0.0328699 0.219339 -2.1499e-19)
(-0.0304503 0.23675 0)
(-0.0242981 0.239445 0)
(-0.0149602 0.2304 -5.67765e-20)
(-0.00290763 0.21234 -2.22627e-23)
(0.0114409 0.187657 5.82226e-20)
(0.0276854 0.158411 0)
(0.0454272 0.126361 0)
(0.0642679 0.0930022 -6.00313e-20)
(0.0838105 0.059597 5.37205e-23)
(0.103661 0.0271896 6.08924e-20)
(0.123444 -0.0033768 1.22169e-19)
(0.142825 -0.0314509 0)
(0.161509 -0.0565684 1.23152e-19)
(0.179252 -0.07844 -1.23454e-19)
(0.19587 -0.0969332 -2.4765e-19)
(0.211239 -0.112052 2.48219e-19)
(0.22529 -0.123916 2.76527e-22)
(0.238002 -0.13273 -1.24321e-19)
(0.249397 -0.13876 1.24655e-19)
(0.259531 -0.142311 -2.49159e-19)
(0.268484 -0.143704 0)
(0.276351 -0.14326 1.24405e-19)
(0.283237 -0.141285 -2.48165e-19)
(0.289251 -0.138068 1.23715e-19)
(0.294494 -0.133865 -1.23756e-19)
(0.299066 -0.128906 -1.23198e-19)
(0.303061 -0.123383 -1.2292e-19)
(0.306563 -0.117463 4.88876e-19)
(0.309647 -0.111281 -3.65269e-19)
(0.312374 -0.104948 -2.42452e-19)
(0.3148 -0.0985533 2.41065e-19)
(0.316973 -0.0921646 0)
(0.318933 -0.0858348 2.38793e-19)
(0.32072 -0.0796068 -2.37299e-19)
(0.322345 -0.0734503 -1.18294e-19)
(0.323703 -0.0671784 0)
(-0.0111961 0.0510391 3.9911e-19)
(-0.0255944 0.126698 1.7895e-19)
(-0.0328883 0.181404 -2.1027e-19)
(-0.0345955 0.216094 1.88143e-19)
(-0.0314403 0.233201 -2.74059e-20)
(-0.0242033 0.235643 5.56961e-20)
(-0.0135294 0.226339 0)
(2.26716e-05 0.207986 -5.73726e-20)
(0.0159564 0.182973 5.80402e-20)
(0.0338052 0.153371 5.86538e-20)
(0.0531143 0.12096 -5.91659e-20)
(0.0734372 0.0872614 -5.96579e-20)
(0.0943359 0.053561 6.00313e-20)
(0.115385 0.0209239 0)
(0.136187 -0.00979089 0)
(0.156392 -0.0379235 -1.22164e-19)
(0.175701 -0.0630079 1.2245e-19)
(0.193875 -0.0847592 -1.23107e-19)
(0.210738 -0.103055 1.23206e-19)
(0.226183 -0.117913 1.23749e-19)
(0.240159 -0.129467 -2.4764e-19)
(0.252669 -0.137938 2.47907e-19)
(0.263758 -0.143607 2.61516e-22)
(0.273505 -0.146792 -1.23877e-19)
(0.282009 -0.147825 0)
(0.289387 -0.147037 1.23886e-19)
(0.295761 -0.14474 2.08646e-22)
(0.30125 -0.141227 -1.23195e-19)
(0.305969 -0.136757 0)
(0.310027 -0.131559 2.45334e-19)
(0.313524 -0.125827 -2.44165e-19)
(0.316549 -0.119724 0)
(0.319178 -0.113384 2.42471e-19)
(0.321476 -0.106917 -2.41135e-19)
(0.323499 -0.100408 0)
(0.325295 -0.0939221 0)
(0.326904 -0.0875111 0)
(0.328365 -0.0812155 -2.36362e-19)
(0.329684 -0.0750064 2.34848e-19)
(0.330756 -0.0687043 2.56016e-19)
(-0.0119549 0.0500423 -1.87515e-19)
(-0.0272527 0.124373 -2.04539e-19)
(-0.0347934 0.178243 -2.61788e-20)
(-0.0362179 0.2124 8.02715e-20)
(-0.0323238 0.229154 -1.09157e-19)
(-0.023994 0.231327 1.11098e-19)
(-0.01197 0.221775 -1.12834e-19)
(0.0031011 0.203166 -1.7123e-19)
(0.0206434 0.177877 0)
(0.0401215 0.147989 -5.84612e-20)
(0.0610208 0.1153 5.89716e-20)
(0.0828439 0.0813519 0)
(0.10511 0.0474513 1.19731e-19)
(0.12736 0.0146818 -1.20348e-19)
(0.149175 -0.0160849 -3.62762e-19)
(0.170191 -0.044183 -1.87266e-22)
(0.190104 -0.0691471 2.44187e-19)
(0.208679 -0.0906993 -1.22389e-19)
(0.225755 -0.108729 0)
(0.24124 -0.123269 0)
(0.255107 -0.134467 2.46161e-19)
(0.267381 -0.142561 1.23585e-19)
(0.278132 -0.147846 -1.23381e-19)
(0.287462 -0.150654 -1.23617e-19)
(0.295495 -0.151325 2.46819e-19)
(0.302365 -0.150198 -1.23149e-19)
(0.30821 -0.147592 2.46293e-19)
(0.313164 -0.1438 -4.91083e-19)
(0.317352 -0.139085 4.89763e-19)
(0.320892 -0.133673 -4.88231e-19)
(0.323889 -0.127757 4.86504e-19)
(0.326437 -0.121497 -4.84602e-19)
(0.328614 -0.115027 2.41152e-19)
(0.330487 -0.108452 2.40281e-19)
(0.332111 -0.101854 1.99227e-22)
(0.333535 -0.0952966 1.798e-22)
(0.334797 -0.0888289 -2.36422e-19)
(0.335936 -0.0824895 6.20862e-22)
(0.336953 -0.0762511 -2.33743e-19)
(0.337745 -0.0699429 0)
(-0.0126693 0.048968 2.33301e-20)
(-0.0288161 0.121827 -2.54641e-20)
(-0.0365856 0.174741 7.82758e-20)
(-0.0377193 0.208278 -1.06693e-19)
(-0.0330812 0.224625 5.43935e-20)
(-0.0236514 0.226506 0)
(-0.0102656 0.216714 0)
(0.00634063 0.19788 2.28406e-19)
(0.0255102 0.172369 2.88064e-19)
(0.0466362 0.142265 -5.82684e-20)
(0.0691419 0.109379 2.93531e-19)
(0.0924762 0.0752715 -5.92256e-20)
(0.116113 0.0412669 0)
(0.13956 0.00846341 0)
(0.162375 -0.0222574 2.41633e-19)
(0.18418 -0.0502267 0)
(0.204668 -0.0749826 1.21061e-19)
(0.223612 -0.0962571 -1.21681e-19)
(0.240862 -0.113953 0)
(0.25635 -0.128118 -2.44799e-19)
(0.27007 -0.138916 -1.23193e-19)
(0.282073 -0.146601 -3.68254e-19)
(0.292455 -0.151483 -1.23133e-19)
(0.301343 -0.153903 1.22869e-19)
(0.308883 -0.154213 2.45304e-19)
(0.315228 -0.152754 0)
(0.320534 -0.149852 2.44553e-19)
(0.324945 -0.145801 4.88681e-19)
(0.328599 -0.140862 3.33317e-22)
(0.331621 -0.13526 -2.42911e-19)
(0.334121 -0.129186 -2.42329e-19)
(0.336197 -0.122797 2.4111e-19)
(0.337928 -0.116223 2.40313e-19)
(0.339382 -0.109565 -4.78185e-19)
(0.340614 -0.102904 4.75843e-19)
(0.341672 -0.0962995 -2.37229e-19)
(0.342594 -0.0897982 2.35332e-19)
(0.343417 -0.0834372 4.68153e-19)
(0.344138 -0.0771913 2.32145e-19)
(0.344654 -0.0708996 2.52561e-19)
(-0.0133375 0.0478268 -1.85795e-19)
(-0.0302764 0.11908 1.77274e-19)
(-0.0382508 0.170923 -1.55775e-19)
(-0.0390813 0.20375 1.59234e-19)
(-0.033692 0.219632 2.70953e-19)
(-0.0231542 0.221194 -2.2057e-19)
(-0.00839638 0.211166 2.80091e-19)
(0.00975787 0.192136 1.70189e-19)
(0.0305688 0.166452 -4.02538e-19)
(0.053356 0.136198 1.158e-19)
(0.0774779 0.103196 5.78287e-20)
(0.102327 0.0690202 1.1809e-19)
(0.127331 0.0350079 1.18471e-19)
(0.151962 0.00226975 -2.38677e-19)
(0.175755 -0.0283063 2.39893e-19)
(0.19832 -0.056052 3.61753e-19)
(0.219349 -0.0805124 -3.63866e-19)
(0.238622 -0.101431 4.86279e-19)
(0.256006 -0.118726 2.43333e-19)
(0.271454 -0.132461 3.67078e-19)
(0.284989 -0.142818 1.21996e-19)
(0.296687 -0.150065 2.45422e-19)
(0.30667 -0.154525 -2.44536e-19)
(0.315092 -0.156551 0)
(0.322119 -0.1565 -7.34607e-19)
(0.327928 -0.15472 4.88945e-19)
(0.332685 -0.151537 -2.44164e-19)
(0.33655 -0.147246 -2.43639e-19)
(0.33967 -0.142107 -3.49183e-22)
(0.342178 -0.13634 0)
(0.344188 -0.130134 0)
(0.345799 -0.123641 2.39647e-19)
(0.347093 -0.116988 -2.39237e-19)
(0.348137 -0.110273 2.37919e-19)
(0.348987 -0.103573 -2.36926e-19)
(0.349689 -0.0969436 -2.3569e-19)
(0.35028 -0.0904304 0)
(0.350795 -0.0840684 -2.32919e-19)
(0.351227 -0.0778349 -2.32036e-19)
(0.351475 -0.0715804 -7.56118e-19)
(-0.0139581 0.0466286 1.8576e-19)
(-0.0316264 0.116154 -1.77414e-19)
(-0.0397753 0.166813 2.07766e-19)
(-0.0402852 0.198841 -3.71215e-19)
(-0.034134 0.214196 -2.70792e-19)
(-0.022479 0.21541 2.20569e-19)
(-0.00633939 0.205143 -4.47336e-19)
(0.0133733 0.185941 -2.27021e-19)
(0.0358359 0.160132 2.86986e-19)
(0.0602921 0.129794 -5.21104e-19)
(0.086033 0.0967555 -3.50776e-19)
(0.112392 0.0626 -1.17291e-19)
(0.138751 0.0286766 -3.55777e-19)
(0.164545 -0.00389637 3.57765e-19)
(0.189288 -0.0342288 -2.39889e-19)
(0.212577 -0.0616566 -2.40957e-19)
(0.234104 -0.0857348 0)
(0.25366 -0.106221 -2.42676e-19)
(0.271133 -0.12305 -3.6488e-19)
(0.286499 -0.136304 1.21565e-19)
(0.299808 -0.14618 -2.44213e-19)
(0.311166 -0.152961 0)
(0.320722 -0.156985 2.44533e-19)
(0.328654 -0.158612 2.44207e-19)
(0.335155 -0.158204 -2.42571e-19)
(0.340416 -0.156114 0)
(0.344621 -0.152667 0)
(0.347941 -0.148158 0)
(0.350532 -0.142841 -1.03341e-21)
(0.352533 -0.136934 0)
(0.354062 -0.13062 -4.7977e-19)
(0.35522 -0.12405 -6.47574e-22)
(0.356088 -0.117343 -4.75702e-19)
(0.356735 -0.110594 4.73887e-19)
(0.357215 -0.103876 -2.35679e-19)
(0.357572 -0.0972436 2.35063e-19)
(0.357842 -0.0907381 0)
(0.358059 -0.0843937 4.64341e-19)
(0.358212 -0.0781907 -2.30434e-19)
(0.3582 -0.0719917 0)
(-0.0145303 0.0453833 2.31153e-20)
(-0.0328597 0.113069 0)
(-0.0411459 0.162436 -2.58272e-19)
(-0.0413118 0.193576 3.17576e-19)
(-0.0343836 0.208342 1.61539e-19)
(-0.0216001 0.209174 -2.19279e-19)
(-0.00406877 0.198664 2.23335e-19)
(0.0172111 0.17931 -2.25658e-19)
(0.0413319 0.153419 0)
(0.0674597 0.12306 2.31233e-19)
(0.0948158 0.0900626 -2.32473e-19)
(0.122674 0.0560167 7.68799e-22)
(0.150366 0.0222786 0)
(0.177295 -0.01003 2.37026e-19)
(0.202948 -0.0400206 -1.18823e-19)
(0.226916 -0.0670372 2.39376e-19)
(0.248894 -0.0906483 1.19925e-19)
(0.268683 -0.110628 -2.40872e-19)
(0.286195 -0.126929 0)
(0.301432 -0.139651 3.63307e-19)
(0.314475 -0.14901 1.21042e-19)
(0.325458 -0.155304 0)
(0.33456 -0.158879 0)
(0.341984 -0.160104 0)
(0.347944 -0.159347 2.43292e-19)
(0.352651 -0.156959 0)
(0.356303 -0.153267 -2.42174e-19)
(0.359082 -0.148559 4.82829e-19)
(0.361153 -0.143088 -4.8182e-19)
(0.362658 -0.137066 0)
(0.363719 -0.130669 2.39562e-19)
(0.364437 -0.124045 -2.37537e-19)
(0.364895 -0.117307 2.37536e-19)
(0.365159 -0.110547 0)
(0.365283 -0.103832 0)
(0.365309 -0.0972153 2.33497e-19)
(0.365271 -0.0907353 -2.32075e-19)
(0.365202 -0.0844249 4.61631e-19)
(0.365087 -0.078268 -4.58674e-19)
(0.364825 -0.0721408 0)
(-0.0150535 0.0440996 1.60989e-19)
(-0.0339705 0.109844 5.02507e-20)
(-0.0423497 0.157818 2.06533e-19)
(-0.0421416 0.187982 2.10581e-19)
(-0.0344162 0.202095 -2.15453e-19)
(-0.0204897 0.202509 2.19278e-19)
(-0.00155588 0.191746 2.22018e-19)
(0.0212988 0.17226 2.25656e-19)
(0.0470812 0.146328 0)
(0.0748779 0.116009 2.2979e-19)
(0.103839 0.0831282 2.3247e-19)
(0.133176 0.0492799 2.34186e-19)
(0.162174 0.0158223 0)
(0.190197 -0.0161237 -8.07053e-22)
(0.216715 -0.0456758 2.38193e-19)
(0.24131 -0.07219 -1.19743e-19)
(0.263681 -0.0952516 -1.20622e-19)
(0.283647 -0.114653 3.61185e-19)
(0.301145 -0.130367 2.15201e-22)
(0.316206 -0.142513 -1.2156e-19)
(0.32894 -0.151323 -2.42311e-19)
(0.339515 -0.157108 0)
(0.348137 -0.160226 0)
(0.355036 -0.16105 0)
(0.360447 -0.159951 0)
(0.364597 -0.157281 0)
(0.367699 -0.153362 0)
(0.369946 -0.148478 2.40553e-19)
(0.371507 -0.142876 -2.39554e-19)
(0.372531 -0.136761 0)
(0.37314 -0.130306 0)
(0.373435 -0.123651 2.37536e-19)
(0.3735 -0.116904 0)
(0.373398 -0.110152 2.34892e-19)
(0.373183 -0.10346 -2.33549e-19)
(0.372893 -0.0968758 0)
(0.372561 -0.090437 4.62179e-19)
(0.37222 -0.0841749 -4.59289e-19)
(0.371848 -0.0780775 0)
(0.37135 -0.072036 0)
(-0.0155275 0.0427859 -1.84072e-19)
(-0.0349536 0.1065 -5.01704e-20)
(-0.043374 0.152984 5.13721e-20)
(-0.0427547 0.182087 -2.10581e-19)
(-0.0342063 0.195483 0)
(-0.0191185 0.195441 0)
(0.00123026 0.184416 -1.66593e-19)
(0.0256664 0.164812 -5.61589e-20)
(0.0531109 0.138878 -1.13585e-19)
(0.082569 0.108656 -1.15054e-19)
(0.113118 0.0759675 -1.1567e-19)
(0.143907 0.0424032 1.16531e-19)
(0.174171 0.00931981 1.16849e-19)
(0.203242 -0.0221672 -1.18328e-19)
(0.230569 -0.0511865 0)
(0.255729 -0.0771102 0)
(0.278431 -0.0995431 -2.39243e-19)
(0.298514 -0.118299 0)
(0.315941 -0.133371 0)
(0.330775 -0.144899 2.39905e-19)
(0.343159 -0.153131 4.45025e-22)
(0.353293 -0.158392 -2.42361e-22)
(0.361412 -0.161048 -2.41352e-19)
(0.367772 -0.161475 2.40834e-19)
(0.372627 -0.160045 2.40339e-19)
(0.376222 -0.157108 -2.3998e-19)
(0.378781 -0.152981 0)
(0.380506 -0.147943 2.39534e-19)
(0.381574 -0.142232 2.68312e-22)
(0.382133 -0.136049 -2.37741e-19)
(0.382308 -0.129559 0)
(0.382201 -0.122894 0)
(0.381891 -0.116158 2.34979e-19)
(0.381443 -0.109433 -2.33685e-19)
(0.380907 -0.10278 -2.32614e-19)
(0.380318 -0.0962435 2.31239e-19)
(0.379709 -0.0898593 0)
(0.379109 -0.0836577 0)
(0.378496 -0.0776312 0)
(0.377775 -0.0716868 -2.46063e-19)
(-0.0159525 0.0414493 2.28785e-19)
(-0.0358042 0.103054 -9.99639e-20)
(-0.0442064 0.147959 5.12173e-20)
(-0.0431313 0.175919 0)
(-0.0337275 0.188537 2.67057e-19)
(-0.0174557 0.188 2.9957e-23)
(0.00432247 0.1767 2.20713e-19)
(0.0303465 0.156992 -1.6796e-19)
(0.0594506 0.131091 2.26504e-19)
(0.0905575 0.101024 -1.14379e-19)
(0.12267 0.0685998 0)
(0.154875 0.0354042 1.16143e-19)
(0.186358 0.00278668 -3.50994e-19)
(0.21642 -0.0281474 0)
(0.244491 -0.0565426 3.53852e-19)
(0.270148 -0.0817912 -2.36574e-19)
(0.293112 -0.10352 -2.37973e-19)
(0.313246 -0.121567 1.1925e-19)
(0.330542 -0.135948 0)
(0.345098 -0.146821 -2.40138e-19)
(0.357092 -0.154452 -2.40204e-19)
(0.366754 -0.159178 -6.83632e-22)
(0.374349 -0.161368 2.3972e-19)
(0.380158 -0.161405 2.40282e-19)
(0.384454 -0.159657 -4.79992e-19)
(0.387498 -0.156471 2.39978e-19)
(0.389525 -0.152157 0)
(0.390744 -0.146986 -2.3789e-19)
(0.391335 -0.141189 2.37165e-19)
(0.39145 -0.134959 2.3634e-19)
(0.391213 -0.128454 -2.35422e-19)
(0.390724 -0.1218 2.3442e-19)
(0.390062 -0.115094 0)
(0.389288 -0.108413 2.32775e-19)
(0.38845 -0.101813 4.62643e-19)
(0.387582 -0.0953377 -4.60369e-19)
(0.386713 -0.0890196 4.57861e-19)
(0.385872 -0.0828887 8.82407e-23)
(0.385032 -0.0769422 -2.26604e-19)
(0.384104 -0.071104 4.90853e-19)
(-0.0163284 0.0400968 -1.37235e-19)
(-0.0365181 0.0995225 -2.98699e-19)
(-0.0448349 0.142767 2.04003e-19)
(-0.0432513 0.169507 -1.56493e-19)
(-0.0329531 0.181285 -5.39638e-20)
(-0.0154698 0.180217 5.42385e-20)
(0.00775484 0.168629 -1.10518e-19)
(0.035373 0.148828 -1.11647e-19)
(0.0661317 0.122996 1.12883e-19)
(0.0988696 0.0931377 -2.28001e-19)
(0.132515 0.061049 4.11167e-23)
(0.166091 0.0283044 1.15783e-19)
(0.198737 -0.00375789 0)
(0.229722 -0.0340483 -1.17143e-19)
(0.258464 -0.0617319 -1.18098e-19)
(0.284541 -0.086225 2.36699e-19)
(0.307693 -0.10718 0)
(0.327808 -0.12446 0)
(0.344912 -0.138104 2.38564e-19)
(0.359139 -0.148292 -2.38593e-19)
(0.370701 -0.155304 0)
(0.379862 -0.159486 2.39435e-19)
(0.386916 -0.161214 -2.39312e-19)
(0.392165 -0.160869 -4.78254e-19)
(0.395904 -0.158819 -3.64304e-22)
(0.398405 -0.155401 2.38978e-19)
(0.399913 -0.15092 -4.75366e-19)
(0.400643 -0.145638 2.37888e-19)
(0.400779 -0.139778 -2.37164e-19)
(0.400471 -0.133523 -4.0599e-22)
(0.399845 -0.127023 6.10866e-22)
(0.398998 -0.120397 -2.3442e-19)
(0.398007 -0.113738 -2.32312e-19)
(0.396929 -0.107114 -2.31158e-19)
(0.395811 -0.100582 -1.04207e-21)
(0.394683 -0.0941787 0)
(0.393573 -0.0879362 -2.27319e-19)
(0.392508 -0.0818841 4.52939e-19)
(0.391459 -0.0760247 -6.75605e-19)
(0.39034 -0.0702997 1.1958e-22)
(-0.0166558 0.0387341 -4.55221e-20)
(-0.037091 0.095922 3.97468e-19)
(-0.0452476 0.13743 -2.0407e-19)
(-0.043095 0.16288 1.56587e-19)
(-0.0318562 0.173762 -4.25285e-19)
(-0.0131288 0.172125 5.40774e-20)
(0.011562 0.160236 -2.19382e-19)
(0.0407807 0.140353 0)
(0.0731859 0.114624 0)
(0.107532 0.0850276 -2.26929e-19)
(0.142671 0.0533432 1.14559e-19)
(0.177566 0.0211298 -3.87311e-22)
(0.211308 -0.010291 1.16105e-19)
(0.24314 -0.0398507 0)
(0.272471 -0.0667398 -3.51434e-19)
(0.298886 -0.0904023 1.17686e-19)
(0.322145 -0.110519 -2.35866e-19)
(0.342168 -0.126981 0)
(0.359017 -0.139851 0)
(0.372863 -0.149328 6.35009e-22)
(0.383954 -0.155707 -2.37975e-19)
(0.392587 -0.159343 2.37855e-19)
(0.399084 -0.160614 -2.38506e-19)
(0.403771 -0.1599 2.37994e-19)
(0.406956 -0.157562 6.43252e-22)
(0.408924 -0.153933 6.53106e-22)
(0.40993 -0.149306 2.37517e-19)
(0.410193 -0.143934 -2.35908e-19)
(0.409896 -0.13803 0)
(0.409191 -0.13177 -2.3492e-19)
(0.4082 -0.125294 2.33802e-19)
(0.40702 -0.118714 0)
(0.405723 -0.112115 2.32312e-19)
(0.404366 -0.105563 -2.30222e-19)
(0.402988 -0.0991084 2.28804e-19)
(0.401622 -0.092787 0)
(0.40029 -0.086628 6.80934e-19)
(0.39902 -0.0806613 -4.50778e-19)
(0.39778 -0.0748944 0)
(0.396488 -0.0692879 2.43614e-19)
(-0.0169346 0.0373664 3.62466e-19)
(-0.037519 0.0922663 -1.98428e-19)
(-0.0454328 0.131972 -5.08196e-20)
(-0.0426427 0.156065 5.19081e-20)
(-0.0304101 0.165998 2.12301e-19)
(-0.0104007 0.163759 0)
(0.0157785 0.151557 2.19382e-19)
(0.0466038 0.131603 3.32234e-19)
(0.0806447 0.10601 1.12233e-19)
(0.11657 0.0767274 1.13672e-19)
(0.153157 0.0455146 1.14243e-19)
(0.189308 0.0139102 -3.45413e-19)
(0.224072 -0.0167864 1.15725e-19)
(0.256666 -0.045533 4.64533e-19)
(0.286495 -0.07155 1.17215e-19)
(0.313158 -0.0943131 1.17283e-19)
(0.336439 -0.113534 2.35864e-19)
(0.356295 -0.129133 0)
(0.372826 -0.141196 0)
(0.386239 -0.149944 4.74669e-19)
(0.396822 -0.155683 -9.48219e-19)
(0.404904 -0.158774 -6.47348e-22)
(0.410834 -0.159597 0)
(0.414955 -0.158527 0)
(0.417594 -0.155921 2.3745e-19)
(0.419045 -0.1521 0)
(0.419569 -0.147348 0)
(0.419386 -0.141907 -2.33949e-19)
(0.418681 -0.13598 -4.68358e-19)
(0.417605 -0.129733 0)
(0.416276 -0.123297 -4.64786e-19)
(0.414788 -0.116777 -9.26624e-19)
(0.413212 -0.110252 4.61432e-19)
(0.411598 -0.103783 -4.58223e-19)
(0.409985 -0.0974157 4.56841e-19)
(0.408401 -0.0911837 -4.54141e-19)
(0.406868 -0.0851145 -4.50482e-19)
(0.405411 -0.0792383 0)
(0.403999 -0.073568 0)
(0.402553 -0.0680839 0)
(-0.0171652 0.0359974 -3.62468e-19)
(-0.0377977 0.0885674 0)
(-0.0453789 0.126412 0)
(-0.041875 0.149091 0)
(-0.0285884 0.158026 0)