/*--------------------------------*- C++ -*----------------------------------*\
  =========                 |
  \\      /  F ield         | OpenFOAM: The Open Source CFD Toolbox
   \\    /   O peration     | Website:  https://openfoam.org
    \\  /    A nd           | Version:  7
     \\/     M anipulation  |
\*---------------------------------------------------------------------------*/
FoamFile
{
    version     2.0;
    format      ascii;
    class       volVectorField;
    location    "47.7";
    object      U;
}
// * * * * * * * * * * * * * * * * * * * * * * * * * * * * * * * * * * * * * //

dimensions      [0 1 -1 0 0 0 0];

internalField   nonuniform List<vector> 
2000
(
(-0.00179148 0.000306257 -9.37725e-22)
(-0.00430973 0.00334508 0)
(-0.00540528 0.00815887 0)
(-0.00422028 0.0146667 -4.66778e-21)
(-0.000997797 0.0230785 1.49702e-21)
(0.00401093 0.0336273 5.13716e-23)
(0.01055 0.0464591 -2.58336e-21)
(0.0183318 0.0615903 0)
(0.0269548 0.0788833 0)
(0.0358745 0.0980151 0)
(-0.00194134 0.00149419 0)
(-0.00443234 0.00420829 -3.60072e-21)
(-0.00540292 0.00791386 3.3206e-21)
(-0.00429778 0.012966 6.23215e-21)
(-0.00143882 0.0197127 0)
(0.00290256 0.0284488 5.61063e-21)
(0.00850817 0.0393872 -5.21735e-21)
(0.0151751 0.0526512 0)
(0.0226088 0.0682716 9.62005e-21)
(0.0302843 0.0862024 -1.85451e-20)
(-0.00212903 0.00255551 0)
(-0.00417087 0.00484901 2.87145e-20)
(-0.00436499 0.0075242 0)
(-0.00266998 0.011279 2.51982e-20)
(0.000463485 0.0165523 0)
(0.00470255 0.0236488 -2.24304e-20)
(0.00983178 0.0327951 0)
(0.0157062 0.0441747 2.03332e-20)
(0.0221526 0.0579652 -1.90428e-20)
(0.0286587 0.0744143 -1.86062e-20)
(-0.00228354 0.00336922 -7.5241e-21)
(-0.00337698 0.00511536 -1.43336e-20)
(-0.00209675 0.00689349 -6.66859e-21)
(0.00089735 0.00959958 -1.24567e-20)
(0.00499052 0.0137152 -1.17683e-20)
(0.00975751 0.0195076 1.10858e-20)
(0.0149547 0.0271595 1.05481e-20)
(0.0204636 0.0368517 -1.68995e-22)
(0.0262373 0.048856 1.9096e-20)
(0.0318084 0.0636763 1.85953e-20)
(-0.0023041 0.00382432 -7.44203e-21)
(-0.00187626 0.00487759 -1.4442e-20)
(0.00158936 0.00593544 -2.70614e-20)
(0.00658282 0.00790796 1.24974e-20)
(0.0123081 0.0112745 0)
(0.0182326 0.0162258 0)
(0.0240668 0.0228533 -2.14705e-20)
(0.0296932 0.0312689 -2.03259e-20)
(0.0351818 0.0417607 1.91301e-20)
(0.0401994 0.0549955 5.54983e-20)
(-0.00206371 0.00383863 7.43635e-21)
(0.000522508 0.00405004 7.32617e-21)
(0.00685499 0.00459265 -3.989e-20)
(0.0144789 0.00618229 6.29621e-20)
(0.0224151 0.00925073 -1.17444e-20)
(0.0300277 0.0138838 0)
(0.036986 0.0200543 0)
(0.043165 0.0277551 1.00485e-19)
(0.04873 0.0372058 -9.52672e-20)
(0.0536204 0.0491143 1.82789e-20)
(-0.00142141 0.00337639 5.78085e-20)
(0.00401437 0.00260648 0)
(0.0138184 0.00285938 5.34404e-20)
(0.0245669 0.0044207 -5.02466e-20)
(0.0351094 0.00762559 0)
(0.0447324 0.0124367 2.24049e-20)
(0.0530908 0.0187018 -6.25237e-20)
(0.0600714 0.0262752 -7.98118e-20)
(0.0659104 0.0352403 3.73616e-20)
(0.0709576 0.0462349 3.63064e-20)
(-0.000235699 0.00245066 -1.14759e-19)
(0.00877411 0.000600513 -1.42123e-20)
(0.0225331 0.000803466 -2.62779e-20)
(0.0366965 0.00266353 -6.18838e-20)
(0.049978 0.00636718 -2.35617e-20)
(0.0616352 0.0117415 -2.18282e-20)
(0.0713565 0.0185214 6.92488e-22)
(0.0790811 0.0264411 0)
(0.0851041 0.035416 0)
(0.0902634 0.0459313 -2.74107e-22)
(0.0016274 0.00112306 5.69514e-20)
(0.0149304 -0.00182403 -5.55292e-20)
(0.032956 -0.00142722 3.94987e-20)
(0.0505644 0.00100118 8.6629e-20)
(0.0664033 0.00544418 -2.29529e-20)
(0.079784 0.0115864 2.24796e-20)
(0.0905018 0.0190797 2.07729e-20)
(0.0985964 0.027598 0)
(0.104399 0.0369396 0)
(0.109198 0.0474246 -8.82839e-22)
(0.00427817 -0.000495523 -6.95037e-21)
(0.022536 -0.00444431 6.94993e-20)
(0.0449139 -0.00361842 -1.2874e-20)
(0.0656945 -0.00044095 0)
(0.0835789 0.0048171 0)
(0.0980648 0.0116991 4.29298e-20)
(0.109178 0.0198128 0)
(0.117164 0.0288589 -3.68073e-20)
(0.122396 0.0386827 1.33824e-22)
(0.126179 0.0497009 3.25781e-20)
(0.0570879 0.14394 7.45343e-22)
(0.0864333 0.229717 -7.54621e-22)
(0.0926699 0.299757 -8.61457e-22)
(0.0870072 0.360697 -9.487e-22)
(0.0733975 0.42237 -1.08976e-21)
(0.0622138 0.490836 -1.75657e-23)
(0.0437065 0.570911 5.65032e-22)
(0.0362075 0.6652 1.88063e-21)
(0.00999094 0.784388 0)
(0.0110701 0.920774 -1.33564e-21)
(0.0482475 0.131439 2.75815e-21)
(0.0796863 0.221065 -3.25034e-21)
(0.0894086 0.297671 5.82094e-21)
(0.0851926 0.36207 9.50367e-22)
(0.0721085 0.425102 1.99555e-21)
(0.0611077 0.494023 3.27099e-21)
(0.0429244 0.574367 -1.18382e-21)
(0.0354399 0.66891 -1.25486e-21)
(0.00997399 0.787976 2.47949e-21)
(0.0106292 0.923364 1.33245e-21)
(0.0423179 0.118279 0)
(0.073397 0.209866 -3.07473e-21)
(0.0865146 0.293597 -1.68784e-21)
(0.0838135 0.362104 0)
(0.0712126 0.426831 -6.06219e-21)
(0.060336 0.496364 1.93636e-21)
(0.0423648 0.577068 2.08894e-21)
(0.0348274 0.672046 6.93563e-21)
(0.0100217 0.791349 -2.47148e-21)
(0.0102307 0.925957 4.90023e-21)
(0.0404794 0.105402 0)
(0.0678732 0.196408 3.10083e-21)
(0.0839743 0.287415 0)
(0.0828228 0.360672 7.28931e-21)
(0.0706885 0.427427 -7.32677e-21)
(0.0598958 0.497658 -4.16874e-21)
(0.0420574 0.578667 -1.83257e-22)
(0.0344304 0.674029 -6.77176e-21)
(0.0101838 0.79367 -1.12396e-21)
(0.0098656 0.927937 -6.04597e-21)
(0.0437867 0.0938126 4.64686e-22)
(0.0636554 0.181341 -8.62874e-21)
(0.0817925 0.279045 3.26456e-22)
(0.0821621 0.357712 -6.61303e-21)
(0.0704954 0.427075 0)
(0.0597186 0.498314 -4.01179e-21)
(0.0418953 0.579837 -1.9671e-22)
(0.0341205 0.675871 8.65112e-21)
(0.0103566 0.796149 1.11947e-21)
(0.00953407 0.930183 -1.12343e-21)
(0.0527156 0.0844126 -2.30579e-20)
(0.0615352 0.16568 1.48545e-20)
(0.080028 0.268524 6.44964e-21)
(0.0818045 0.352985 -6.44644e-21)
(0.070623 0.425287 -3.46455e-21)
(0.0598664 0.497588 0)
(0.0420149 0.579495 -7.91112e-21)
(0.034056 0.676016 3.92133e-21)
(0.0106635 0.796994 4.18041e-21)
(0.00922634 0.931492 4.24119e-21)
(0.0667425 0.0777268 -2.7437e-21)
(0.06243 0.150622 0)
(0.0788029 0.256041 0)
(0.0816958 0.346841 0)
(0.0709962 0.423027 -3.57198e-21)
(0.0601522 0.496957 7.02557e-21)
(0.0421353 0.579642 7.73704e-21)
(0.0339404 0.677066 -1.17779e-20)
(0.0108918 0.798971 2.03477e-21)
(0.00895171 0.933596 -6.21553e-21)
(0.0842196 0.0736878 1.68719e-20)
(0.0670505 0.137307 1.21335e-20)
(0.0784148 0.241922 -1.20256e-20)
(0.0818798 0.338126 1.29313e-20)
(0.0716685 0.41809 -1.60456e-20)
(0.0608835 0.493661 0)
(0.0427079 0.576879 -3.54413e-21)
(0.0342074 0.674915 1.55257e-22)
(0.0113342 0.798038 -3.7469e-21)
(0.00868493 0.934138 -3.81641e-21)
(0.102567 0.0713931 -1.40937e-20)
(0.0754048 0.125794 0)
(0.0790311 0.22755 -1.36505e-20)
(0.0822799 0.330089 2.46118e-20)
(0.0723975 0.415177 -9.16307e-21)
(0.0613619 0.493077 -1.63648e-21)
(0.042894 0.577309 3.53671e-21)
(0.0341275 0.676339 3.45706e-23)
(0.0115307 0.800328 5.45604e-21)
(0.0084582 0.936449 5.57328e-21)
(0.11833 0.0695397 -1.14747e-20)
(0.0865579 0.114373 1.12364e-20)
(0.0815351 0.20802 1.48065e-21)
(0.0830821 0.313505 0)
(0.0737069 0.403879 0)
(0.0629803 0.484945 1.56864e-21)
(0.0441542 0.570344 6.41995e-21)
(0.0348437 0.670553 -6.23405e-21)
(0.0121512 0.796813 -1.61037e-21)
(0.0082121 0.936014 1.56167e-21)
(0.133056 0.0775447 0)
(0.104869 0.116108 0)
(0.0900059 0.198941 0)
(0.0865341 0.309475 0)
(0.0748204 0.407938 0)
(0.0623851 0.493297 0)
(0.0434202 0.579949 0)
(0.0339655 0.680976 0)
(0.012207 0.806355 0)
(0.00779641 0.943281 0)
(0.134293 0.0992113 0)
(0.114957 0.145443 0)
(0.0962787 0.216809 0)
(0.0888557 0.319871 0)
(0.0767365 0.420084 0)
(0.0627505 0.506474 0)
(0.0428124 0.5917 0)
(0.0320459 0.691973 0)
(0.0115112 0.816746 0)
(0.00699254 0.949907 0)
(0.124973 0.10755 0)
(0.112789 0.163161 0)
(0.0953133 0.234471 0)
(0.0850571 0.334313 0)
(0.0729335 0.436373 0)
(0.059651 0.525136 0)
(0.0412267 0.610818 0)
(0.0310483 0.709729 0)
(0.0118692 0.831968 0)
(0.00673273 0.961022 0)
(0.108237 0.112196 0)
(0.101221 0.174372 0)
(0.0884963 0.248104 0)
(0.0794276 0.346643 0)
(0.0683585 0.449173 0)
(0.0555087 0.537899 0)
(0.0374449 0.622047 0)
(0.0270744 0.720597 0)
(0.00998859 0.842831 0)
(0.00574226 0.968057 0)
(0.0875915 0.115264 0)
(0.0830773 0.182007 0)
(0.0738806 0.258512 0)
(0.0669765 0.357453 0)
(0.0589686 0.462711 0)
(0.0497744 0.555085 0)
(0.0351604 0.639963 0)
(0.0260637 0.735928 0)
(0.0100152 0.855145 0)
(0.00545151 0.977113 0)
(0.0651008 0.116972 0)
(0.0628063 0.186374 0)
(0.0582125 0.265637 0)
(0.0545507 0.364245 0)
(0.0487344 0.469315 0)
(0.0406569 0.562258 0)
(0.0275087 0.647717 0)
(0.0200575 0.745284 0)
(0.00723562 0.864962 0)
(0.00430566 0.983222 0)
(0.0429229 0.11788 0)
(0.0398773 0.187646 0)
(0.0372329 0.267716 0)
(0.0377032 0.367382 0)
(0.0381259 0.476447 0)
(0.0360535 0.574564 0)
(0.0263717 0.66134 0)
(0.019235 0.756003 0)
(0.00673362 0.873064 0)
(0.00391259 0.989138 0)
(0.024172 0.119737 0)
(0.0213981 0.191519 0)
(0.0195322 0.271085 0)
(0.0201596 0.366954 0)
(0.0220667 0.473375 0)
(0.0227168 0.572903 0)
(0.017137 0.664102 0)
(0.0133011 0.763303 0)
(0.00413515 0.881106 0)
(0.0028458 0.993633 0)
(0.00686026 0.118512 0)
(0.00310032 0.188598 0)
(0.00328994 0.266985 0)
(0.0078671 0.364229 0)
(0.0152723 0.475101 0)
(0.0207469 0.579796 0)
(0.0169964 0.672078 0)
(0.0127528 0.76851 0)
(0.00366809 0.884713 0)
(0.00259651 0.996082 0)
(-0.00565743 0.127479 0)
(-0.0133247 0.197022 0)
(-0.0172034 0.267282 0)
(-0.014224 0.353425 0)
(-0.00494731 0.457894 0)
(0.0057313 0.567606 0)
(0.00862483 0.670393 0)
(0.00848774 0.774302 0)
(0.00203989 0.891291 0)
(0.00178379 0.998871 0)
(0.150719 0.0592166 7.97875e-21)
(0.145251 0.0673362 -7.87723e-21)
(0.131693 0.0693125 4.94103e-22)
(0.112069 0.0702226 0)
(0.0892681 0.0707196 0)
(0.0650114 0.0715367 -1.46144e-22)
(0.0419991 0.0722692 9.16878e-22)
(0.0228199 0.0735612 -9.02563e-22)
(0.00720997 0.0733867 -1.24414e-22)
(-0.00327284 0.0800572 1.22193e-22)
(0.151373 0.0509131 -1.13821e-20)
(0.141478 0.0544054 0)
(0.126834 0.0534918 2.16496e-21)
(0.107369 0.0526577 -3.39254e-21)
(0.0854997 0.0518295 7.53228e-22)
(0.0624044 0.0519936 1.43487e-22)
(0.0406303 0.0524702 -4.30313e-22)
(0.0222975 0.0535311 -8.28763e-22)
(0.00767134 0.0536408 -6.23427e-23)
(-0.00226319 0.0591072 -8.64561e-24)
(0.150982 0.0416939 1.24471e-20)
(0.13883 0.0412991 -4.40012e-21)
(0.123654 0.0379618 4.3571e-21)
(0.104082 0.0354199 -6.32054e-22)
(0.0826759 0.0330499 6.46683e-22)
(0.0603227 0.0322245 0)
(0.0394986 0.0320994 4.31299e-22)
(0.021949 0.032809 1.76888e-23)
(0.00816118 0.0330661 3.37741e-22)
(-0.00133871 0.0373406 1.27319e-22)
(0.149254 0.0308015 -1.81437e-21)
(0.135338 0.0269134 0)
(0.120092 0.0215013 0)
(0.100766 0.0175459 0)
(0.0800717 0.0138165 -3.73192e-22)
(0.0585421 0.0120812 3.31006e-22)
(0.0385884 0.0112778 1.29244e-23)
(0.0217222 0.0115846 4.13087e-22)
(0.00861528 0.0118191 1.09363e-22)
(-0.00050228 0.0149404 8.1685e-24)
(0.146359 0.0184604 -1.88674e-21)
(0.131297 0.0115381 -4.50643e-21)
(0.116273 0.00423509 -1.01255e-21)
(0.097337 -0.000938559 1.01172e-21)
(0.077451 -0.00588617 4.05012e-23)
(0.0568516 -0.00839725 0)
(0.0377124 -0.00986154 4.00478e-22)
(0.0215429 -0.00997386 -7.50563e-22)
(0.00901403 -0.00991645 3.46702e-22)
(0.000186891 -0.00786548 -1.18491e-22)
(0.14247 0.0049587 -1.25701e-20)
(0.126836 -0.00446749 2.4393e-21)
(0.112278 -0.0135571 8.44662e-22)
(0.0938802 -0.0197852 9.83957e-22)
(0.0748159 -0.0258654 0)
(0.0551774 -0.0290255 0)
(0.0368454 -0.0311259 0)
(0.0213625 -0.0316899 -3.54294e-22)
(0.00929972 -0.0319124 0)
(0.000683476 -0.030827 0)
(0.137733 -0.00940327 0)
(0.122023 -0.0207455 2.88573e-21)
(0.108102 -0.0315653 -1.79194e-21)
(0.0903554 -0.0386806 -2.97753e-22)
(0.0721717 -0.0458342 2.99268e-22)
(0.0534754 -0.0495801 -2.74345e-22)
(0.0360005 -0.0523071 2.52582e-22)
(0.0211442 -0.0533362 1.1686e-21)
(0.00943499 -0.0539217 -1.05626e-22)
(0.00104337 -0.0536433 5.51746e-23)
(0.132263 -0.0243274 0)
(0.116874 -0.0369459 -1.0934e-21)
(0.103762 -0.0494733 -3.53446e-22)
(0.0867392 -0.0573216 0)
(0.0695285 -0.0655066 -1.01162e-22)
(0.0517608 -0.0697975 1.56734e-22)
(0.0351025 -0.0731554 -4.62295e-22)
(0.0208308 -0.0746647 -1.74925e-22)
(0.00940943 -0.0756602 1.15211e-22)
(0.00125836 -0.0759891 -1.0209e-22)
(0.126094 -0.0395093 1.7167e-21)
(0.111442 -0.0527696 9.07536e-22)
(0.0992757 -0.0669979 -3.78861e-22)
(0.0830419 -0.075419 9.45111e-23)
(0.0668403 -0.0845966 2.55057e-23)
(0.0500009 -0.0894152 -1.0937e-22)
(0.0341078 -0.0934088 5.75621e-23)
(0.0203857 -0.095411 6.46549e-23)
(0.00922531 -0.0968152 -1.15587e-22)
(0.00134323 -0.0975386 -2.08929e-23)
(0.119334 -0.0546382 -3.3056e-22)
(0.105788 -0.0679899 3.33605e-22)
(0.0946291 -0.0838778 -1.83753e-22)
(0.0792624 -0.0927334 -9.4364e-23)
(0.0640786 -0.102848 3.6187e-24)
(0.0481671 -0.108195 2.51651e-23)
(0.0329904 -0.112811 -8.54982e-23)
(0.0197961 -0.115306 -3.65494e-23)
(0.00889815 -0.117069 0)
(0.00132709 -0.117991 2.0931e-23)
(0.112271 -0.0694575 3.41515e-22)
(0.100013 -0.0824445 -3.44382e-22)
(0.0898929 -0.0999078 -2.07431e-22)
(0.0754567 -0.10909 -1.19643e-22)
(0.0612477 -0.120049 -1.67475e-23)
(0.0462548 -0.125939 1.97552e-23)
(0.0317429 -0.13113 -1.16035e-23)
(0.0190692 -0.1341 -6.85022e-23)
(0.00845528 -0.136132 0)
(0.00124133 -0.137097 1.5307e-23)
(0.105209 -0.083798 0)
(0.0942947 -0.0960335 -1.03796e-21)
(0.0851778 -0.114925 1.69907e-21)
(0.0717112 -0.124374 1.19815e-22)
(0.0583763 -0.136031 1.30352e-22)
(0.0442807 -0.142493 1.94614e-23)
(0.0303786 -0.148167 3.42094e-23)
(0.0182289 -0.151582 4.56293e-23)
(0.00793096 -0.153773 -6.33627e-23)
(0.00111167 -0.154679 -1.52665e-23)
(0.0983202 -0.097554 0)
(0.0887462 -0.10873 -1.31906e-21)
(0.0805414 -0.128807 -4.46585e-22)
(0.0680769 -0.138536 0)
(0.0554949 -0.150678 -3.12361e-22)
(0.0422693 -0.157759 1.60756e-22)
(0.0289298 -0.163785 8.58561e-24)
(0.0173112 -0.16761 -1.48817e-22)
(0.00736372 -0.169845 6.31559e-23)
(0.00096063 -0.170645 -3.76144e-23)
(0.091697 -0.110656 0)
(0.083423 -0.120594 1.32992e-21)
(0.0760041 -0.141478 0)
(0.0645765 -0.151594 9.90176e-22)
(0.0526347 -0.163936 -9.95349e-22)
(0.0402472 -0.171703 -5.95039e-23)
(0.0274397 -0.177914 9.72932e-23)
(0.0163553 -0.182121 1.22464e-22)
(0.00679081 -0.184292 2.73346e-23)
(0.00080688 -0.184987 5.19703e-23)
(0.0854132 -0.123057 1.51518e-20)
(0.0783867 -0.131774 -5.66516e-21)
(0.0715975 -0.152914 -7.40406e-22)
(0.0612335 -0.163628 -1.7861e-21)
(0.0498382 -0.175824 0)
(0.0382439 -0.184349 -1.14015e-22)
(0.0259551 -0.190566 1.16517e-22)
(0.0153971 -0.195133 -6.40486e-23)
(0.00624176 -0.197152 -9.86414e-24)
(0.000661395 -0.197774 9.84245e-24)
(0.0795185 -0.134697 1.7813e-21)
(0.0737185 -0.14249 8.61372e-21)
(0.0673874 -0.163135 1.94376e-21)
(0.0580813 -0.174757 -1.9427e-21)
(0.0471639 -0.186421 -5.18407e-22)
(0.0362927 -0.195775 0)
(0.0245217 -0.201823 -1.53448e-22)
(0.0144662 -0.206739 7.56789e-23)
(0.00573716 -0.208536 -1.75139e-23)
(0.000528973 -0.209139 -5.44985e-24)
(0.074114 -0.145467 -2.20394e-21)
(0.0695756 -0.153022 0)
(0.063511 -0.172216 0)
(0.0551802 -0.185114 0)
(0.0446906 -0.195869 -3.42007e-22)
(0.0344332 -0.206099 8.59705e-22)
(0.0231816 -0.211826 1.96433e-22)
(0.0135862 -0.217083 -1.54401e-22)
(0.00529066 -0.218614 -1.89742e-24)
(0.000410151 -0.219256 7.26104e-24)
(0.0691899 -0.155179 -5.38892e-21)
(0.0659817 -0.163642 6.23245e-21)
(0.0600056 -0.180279 -6.17424e-21)
(0.0525031 -0.194819 3.1532e-21)
(0.0424447 -0.204348 -3.78212e-21)
(0.032675 -0.21546 0)
(0.0219567 -0.220754 -2.06362e-22)
(0.0127712 -0.226342 -3.62954e-23)
(0.00490974 -0.227587 -2.87542e-23)
(0.000300934 -0.228332 -1.23566e-23)
(0.0637484 -0.163446 -2.43199e-21)
(0.0620631 -0.174556 0)
(0.0563519 -0.187525 -5.77709e-21)
(0.0496302 -0.203989 8.45223e-21)
(0.0402057 -0.212086 -2.78599e-21)
(0.0308941 -0.224022 -2.27844e-22)
(0.020799 -0.228811 2.05893e-22)
(0.0120058 -0.234708 1.52017e-23)
(0.00458697 -0.235667 8.69631e-23)
(0.000196213 -0.236582 2.60598e-23)
(0.0582174 -0.169433 -9.89283e-21)
(0.0577811 -0.185933 9.64245e-21)
(0.0528027 -0.194341 7.90824e-22)
(0.0466405 -0.212809 0)
(0.0379962 -0.219395 0)
(0.0290986 -0.232015 2.35332e-22)
(0.0196793 -0.236236 4.28768e-22)
(0.0112686 -0.242387 -4.20401e-22)
(0.00429695 -0.243062 -2.19711e-23)
(0.000113192 -0.244225 2.14518e-23)
(0.0634266 -0.176511 0)
(0.0588274 -0.21275 0)
(0.0531837 -0.210163 0)
(0.0453066 -0.233161 0)
(0.0363038 -0.236512 0)
(0.0267399 -0.250475 0)
(0.0177892 -0.253245 0)
(0.00976538 -0.259772 0)
(0.00370556 -0.259641 0)
(9.12593e-05 -0.2614 0)
(0.0466539 -0.223484 0)
(0.0401464 -0.256456 0)
(0.0376817 -0.249811 0)
(0.0309948 -0.270249 0)
(0.0256603 -0.269824 0)
(0.0186383 -0.282324 0)
(0.0127564 -0.282291 0)
(0.00698839 -0.288177 0)
(0.00286401 -0.286527 0)
(0.000164188 -0.288685 0)
(0.0422263 -0.268727 0)
(0.0343067 -0.300314 0)
(0.0310401 -0.290196 0)
(0.0242682 -0.309848 0)
(0.0198339 -0.306037 0)
(0.0139168 -0.317929 0)
(0.00965161 -0.315387 0)
(0.00523591 -0.321099 0)
(0.00234449 -0.318045 0)
(0.00015271 -0.320711 0)
(0.0361146 -0.319305 0)
(0.0280878 -0.350219 0)
(0.0252097 -0.336809 0)
(0.0189161 -0.356318 0)
(0.0155622 -0.349392 0)
(0.0106063 -0.361359 0)
(0.00763355 -0.356542 0)
(0.00413647 -0.362577 0)
(0.00207616 -0.35814 0)
(0.000134739 -0.361539 0)
(0.0307683 -0.379001 0)
(0.023332 -0.409503 0)
(0.0205345 -0.393802 0)
(0.0149363 -0.413531 0)
(0.0124017 -0.40421 0)
(0.00824608 -0.416716 0)
(0.00620071 -0.410044 0)
(0.00330693 -0.416788 0)
(0.00183949 -0.411122 0)
(8.47854e-05 -0.415518 0)
(0.0259586 -0.450602 0)
(0.0191443 -0.479197 0)
(0.0166286 -0.463665 0)
(0.0117391 -0.482916 0)
(0.00986163 -0.472842 0)
(0.00631725 -0.485554 0)
(0.00489702 -0.478008 0)
(0.00239902 -0.485372 0)
(0.00142192 -0.479068 0)
(-5.07249e-05 -0.484417 0)
(0.0203268 -0.530556 0)
(0.0150044 -0.554334 0)
(0.0128484 -0.542615 0)
(0.00893078 -0.559328 0)
(0.00739939 -0.550947 0)
(0.00447465 -0.562349 0)
(0.00336793 -0.555563 0)
(0.00127592 -0.562544 0)
(0.000727268 -0.556736 0)
(-0.00022987 -0.562288 0)
(0.0156654 -0.606399 0)
(0.0112462 -0.623554 0)
(0.00932415 -0.617646 0)
(0.00610346 -0.629524 0)
(0.00494222 -0.624708 0)
(0.00259044 -0.63289 0)
(0.00178999 -0.628346 0)
(0.000146974 -0.633378 0)
(4.46926e-05 -0.629221 0)
(-0.000351983 -0.633525 0)
(0.00939121 -0.662836 0)
(0.0063986 -0.671972 0)
(0.00533911 -0.672327 0)
(0.00338636 -0.679149 0)
(0.00274425 -0.678435 0)
(0.00121277 -0.682624 0)
(0.00070878 -0.680753 0)
(-0.000340966 -0.683003 0)
(-0.000232098 -0.680887 0)
(-0.000297005 -0.682988 0)
(0.00238084 -0.690473 0)
(0.0016431 -0.697873 0)
(0.00151168 -0.700832 0)
(0.00107312 -0.705047 0)
(0.000868881 -0.705877 0)
(0.000391554 -0.708027 0)
(0.000175703 -0.707388 0)
(-0.000156203 -0.708235 0)
(-0.000121405 -0.707183 0)
(-9.93575e-05 -0.708069 0)
(0.0567751 -0.190019 1.22767e-20)
(0.0457365 -0.237494 -1.20478e-20)
(0.0432876 -0.283999 1.53569e-21)
(0.0375311 -0.336142 0)
(0.0328872 -0.396362 0)
(0.0280816 -0.466482 1.66717e-21)
(0.0227095 -0.542168 -7.02924e-21)
(0.0172042 -0.610781 6.96461e-21)
(0.0107372 -0.662687 1.86015e-21)
(0.00340481 -0.686603 -1.834e-21)
(0.0548763 -0.196566 -1.46624e-20)
(0.0459517 -0.243136 0)
(0.0438698 -0.289283 1.01878e-20)
(0.0382597 -0.341453 -2.32446e-20)
(0.0338743 -0.401549 1.47073e-20)
(0.029056 -0.470982 -1.51006e-21)
(0.0237596 -0.545032 3.30264e-21)
(0.0179065 -0.61192 6.87149e-21)
(0.0113307 -0.661581 1.88561e-21)
(0.00383604 -0.685322 1.86573e-21)
(0.0536263 -0.203545 1.73143e-20)
(0.0468376 -0.249671 -1.156e-20)
(0.0448401 -0.294954 1.14504e-20)
(0.0393506 -0.346524 -1.21938e-20)
(0.0351362 -0.406102 9.06142e-21)
(0.0302388 -0.474574 0)
(0.0248455 -0.546906 -3.31085e-21)
(0.018673 -0.612335 1.61732e-22)
(0.0118297 -0.659823 -3.5587e-21)
(0.00407415 -0.683872 -3.65408e-21)
(0.0530074 -0.209443 -2.80546e-21)
(0.0481983 -0.255642 0)
(0.0461869 -0.300357 0)
(0.0408349 -0.351386 0)
(0.0367003 -0.410462 9.86162e-21)
(0.0316615 -0.477953 -6.56974e-21)
(0.0260451 -0.548628 -1.83539e-23)
(0.0195351 -0.61237 -3.83706e-21)
(0.0122947 -0.65806 -1.95318e-21)
(0.00419067 -0.681816 -2.07247e-21)
(0.0531458 -0.214553 -2.39619e-24)
(0.0499492 -0.260525 -8.50577e-21)
(0.0478429 -0.304812 -6.12618e-21)
(0.0426506 -0.355527 6.12241e-21)
(0.0385204 -0.41426 -3.24805e-21)
(0.0332999 -0.480913 0)
(0.0274087 -0.550121 -3.65304e-21)
(0.0205243 -0.612123 7.85512e-21)
(0.0128219 -0.656317 -4.00883e-21)
(0.0043001 -0.67929 4.07336e-21)
(0.054119 -0.219146 -2.30695e-20)
(0.052128 -0.26446 2.69357e-21)
(0.0498213 -0.308187 -2.67787e-22)
(0.0447645 -0.358649 6.29221e-21)
(0.0405605 -0.417122 0)
(0.035126 -0.48307 0)
(0.0289419 -0.551039 0)
(0.0216524 -0.611484 4.20213e-21)
(0.0134648 -0.65442 0)
(0.00446545 -0.676516 0)
(0.0559298 -0.223086 0)
(0.054773 -0.267531 9.15411e-21)
(0.0521799 -0.31056 -6.149e-21)
(0.0471924 -0.360726 -6.85902e-21)
(0.0428275 -0.418926 6.89478e-21)
(0.0371396 -0.484241 3.91498e-21)
(0.0306385 -0.551164 -3.90907e-21)
(0.0229162 -0.610328 -1.5007e-20)
(0.0142273 -0.652227 1.07038e-21)
(0.00469573 -0.673606 -3.59301e-21)
(0.0585655 -0.226134 0)
(0.05789 -0.269648 -3.01184e-21)
(0.0549621 -0.31194 -1.64257e-21)
(0.0499601 -0.361785 0)
(0.0453504 -0.419684 1.92482e-21)
(0.0393637 -0.484413 -5.84903e-21)
(0.0325061 -0.550447 6.32387e-21)
(0.0243166 -0.60859 2.21915e-21)
(0.0150971 -0.649677 -2.41253e-21)
(0.00498004 -0.67056 4.77203e-21)
(0.0620226 -0.228122 2.92155e-21)
(0.061476 -0.270703 3.21435e-21)
(0.0581878 -0.312257 -7.58274e-22)
(0.0530808 -0.361814 9.06959e-22)
(0.0481559 -0.419411 1.8771e-21)
(0.0418245 -0.483634 3.06655e-21)
(0.0345597 -0.548939 -1.12788e-21)
(0.0258562 -0.606293 -1.20166e-21)
(0.0160593 -0.646778 2.4205e-21)
(0.00530507 -0.667342 1.3033e-21)
(0.066301 -0.228929 -7.75754e-22)
(0.0655333 -0.270646 7.81869e-22)
(0.0618679 -0.311438 -8.44773e-22)
(0.056557 -0.360779 -9.05846e-22)
(0.05126 -0.41809 1.02826e-21)
(0.0445401 -0.481918 -2.08763e-21)
(0.0368206 -0.546661 1.72076e-21)
(0.0275514 -0.603445 6.05336e-22)
(0.017119 -0.64353 0)
(0.00567114 -0.663915 -1.30618e-21)
(0.0713972 -0.228448 7.96191e-22)
(0.0700651 -0.269492 -8.02838e-22)
(0.066012 -0.309442 -9.04304e-22)
(0.0603875 -0.358664 -9.73851e-22)
(0.0546761 -0.415697 -1.06957e-21)
(0.0475209 -0.479289 -5.80445e-23)
(0.0392966 -0.543662 6.07557e-22)
(0.0294025 -0.600101 1.9296e-21)
(0.0182698 -0.63997 0)
(0.00607339 -0.660277 -1.41784e-21)
(0.0773012 -0.226637 0)
(0.0750667 -0.267281 -3.5298e-21)
(0.07063 -0.30627 6.3395e-21)
(0.0645708 -0.355488 9.75558e-22)
(0.0584115 -0.412235 2.19047e-21)
(0.0507726 -0.475719 3.50284e-21)
(0.042011 -0.539887 -1.22451e-21)
(0.0314362 -0.596209 -1.3056e-21)
(0.019537 -0.636059 2.85607e-21)
(0.0065248 -0.656405 1.41451e-21)
(0.0839976 -0.223567 0)
(0.0805303 -0.264044 -3.55573e-21)
(0.0757238 -0.30201 -1.88278e-21)
(0.0691018 -0.351275 0)
(0.0624847 -0.407733 -6.82529e-21)
(0.0543003 -0.471259 2.29634e-21)
(0.0449504 -0.535436 2.62483e-21)
(0.0336275 -0.591868 8.34131e-21)
(0.0208929 -0.631853 -2.84682e-21)
(0.00700808 -0.652317 6.10506e-21)
(0.0914687 -0.219377 0)
(0.086445 -0.259781 3.58625e-21)
(0.0812921 -0.296743 0)
(0.0739894 -0.346057 8.90166e-21)
(0.0668908 -0.402279 -8.94729e-21)
(0.0581139 -0.465819 -5.19072e-21)
(0.0481548 -0.530158 -7.58625e-23)
(0.0360335 -0.586913 -8.55912e-21)
(0.0223942 -0.627238 -1.42738e-21)
(0.00755275 -0.64793 -7.5938e-21)
(0.0996926 -0.214256 2.77606e-20)
(0.092808 -0.254478 -1.05129e-20)
(0.0872959 -0.290786 6.63515e-22)
(0.0792189 -0.339806 -8.58578e-21)
(0.0716661 -0.39593 0)
(0.0622217 -0.459534 -5.39674e-21)
(0.0515618 -0.524315 -3.56849e-22)
(0.0385778 -0.58159 1.16193e-20)
(0.0239688 -0.622372 1.57214e-21)
(0.00811631 -0.643359 -1.57798e-21)
(0.108634 -0.208383 -1.48841e-21)
(0.0995801 -0.248146 1.89772e-20)
(0.0937643 -0.28396 8.91352e-21)
(0.0848795 -0.332341 -8.90753e-21)
(0.0767944 -0.388459 -5.09413e-21)
(0.0666772 -0.452175 0)
(0.0552826 -0.517477 -1.18891e-20)
(0.0414036 -0.575496 5.96065e-21)
(0.0257401 -0.617013 6.28559e-21)
(0.00876352 -0.638448 6.69162e-21)
(0.118214 -0.202188 -3.81575e-21)
(0.106819 -0.240695 0)
(0.100633 -0.276367 0)
(0.0908932 -0.324359 0)
(0.0821889 -0.380567 -5.7085e-21)
(0.0713403 -0.444644 1.07844e-20)
(0.0591173 -0.510624 1.20917e-20)
(0.0442645 -0.569425 -1.88786e-20)
(0.027497 -0.611603 3.3416e-21)
(0.00937466 -0.633446 -9.93849e-21)
(0.128355 -0.19544 -6.6509e-21)
(0.114651 -0.231823 1.78171e-20)
(0.107831 -0.267746 -1.76472e-20)
(0.0973551 -0.315123 2.08578e-20)
(0.0880391 -0.371103 -2.61363e-20)
(0.0765093 -0.435344 0)
(0.0634819 -0.502059 -6.30713e-21)
(0.0476197 -0.562057 -2.35175e-22)
(0.0296139 -0.605417 -6.92264e-21)
(0.0101513 -0.627909 -7.03166e-21)
(0.138661 -0.18912 -4.07018e-21)
(0.122777 -0.223519 0)
(0.115 -0.260088 -2.25564e-20)
(0.10384 -0.307118 4.15251e-20)
(0.0938197 -0.363259 -1.58648e-20)
(0.0815087 -0.427911 -3.03623e-21)
(0.0675667 -0.49525 6.29373e-21)
(0.0506445 -0.555877 -2.7741e-22)
(0.0314519 -0.59973 1.01286e-20)
(0.0107402 -0.622544 1.04057e-20)
(0.14971 -0.179834 -1.76605e-20)
(0.132627 -0.21146 1.72638e-20)
(0.123452 -0.248267 2.43289e-21)
(0.111646 -0.294447 0)
(0.100889 -0.350308 0)
(0.0878586 -0.415325 2.93916e-21)
(0.0730012 -0.484051 1.30362e-20)
(0.0548804 -0.546745 -1.27164e-20)
(0.0341637 -0.592479 -3.42408e-21)
(0.0117622 -0.616138 3.3641e-21)
(0.160779 -0.181628 0)
(0.153344 -0.206946 0)
(0.139552 -0.245468 0)
(0.126115 -0.290566 0)
(0.113787 -0.345324 0)
(0.0989152 -0.408444 0)
(0.0819389 -0.474832 0)
(0.061426 -0.535176 0)
(0.0380593 -0.579429 0)
(0.0126596 -0.602888 0)
(0.183472 -0.163961 0)
(0.189124 -0.193856 0)
(0.167252 -0.236125 0)
(0.154392 -0.280249 0)
(0.139312 -0.334368 0)
(0.121304 -0.395076 0)
(0.100579 -0.457564 0)
(0.0755736 -0.513166 0)
(0.0471883 -0.552824 0)
(0.0166435 -0.572391 0)
(0.215894 -0.146032 0)
(0.227008 -0.176614 0)
(0.196931 -0.218501 0)
(0.18672 -0.260791 0)
(0.167222 -0.313938 0)
(0.145586 -0.371253 0)
(0.120191 -0.429728 0)
(0.0898331 -0.481807 0)
(0.0554692 -0.519864 0)
(0.0181223 -0.540646 0)
(0.257555 -0.133547 0)
(0.27028 -0.16271 0)
(0.233674 -0.203478 0)
(0.22713 -0.244585 0)
(0.201037 -0.296385 0)
(0.175888 -0.34892 0)
(0.144804 -0.402521 0)
(0.108149 -0.448804 0)
(0.0672724 -0.481091 0)
(0.0239417 -0.496065 0)
(0.307798 -0.117725 0)
(0.318899 -0.144673 0)
(0.277437 -0.182621 0)
(0.27228 -0.220592 0)
(0.236126 -0.26747 0)
(0.207163 -0.313021 0)
(0.168121 -0.36125 0)
(0.124398 -0.402642 0)
(0.0759193 -0.433644 0)
(0.0238345 -0.452232 0)
(0.369551 -0.108046 0)
(0.376764 -0.13228 0)
(0.331939 -0.167175 0)
(0.324577 -0.200532 0)
(0.277553 -0.241748 0)
(0.246386 -0.281072 0)
(0.197789 -0.323987 0)
(0.146483 -0.357912 0)
(0.0903388 -0.381978 0)
(0.0334202 -0.39077 0)
(0.43654 -0.0871825 0)
(0.435427 -0.106807 0)
(0.387899 -0.135997 0)
(0.373537 -0.162338 0)
(0.316405 -0.196308 0)
(0.281743 -0.227896 0)
(0.218128 -0.262426 0)
(0.159592 -0.289323 0)
(0.0938549 -0.314957 0)
(0.0253757 -0.335834 0)
(0.510733 -0.0745423 0)
(0.499295 -0.0893084 0)
(0.452954 -0.112905 0)
(0.428207 -0.132542 0)
(0.367104 -0.159955 0)
(0.32504 -0.183458 0)
(0.249532 -0.210791 0)
(0.187196 -0.233489 0)
(0.113205 -0.255934 0)
(0.0500097 -0.256253 0)
(0.565507 -0.0399134 0)
(0.544872 -0.0474363 0)
(0.492109 -0.0617779 0)
(0.455709 -0.0718659 0)
(0.386552 -0.0883726 0)
(0.332036 -0.0997966 0)
(0.243227 -0.116162 0)
(0.171466 -0.129072 0)
(0.0795026 -0.152871 0)
(-0.0121186 -0.199192 0)
(0.761228 -0.019947 0)
(0.735643 -0.0237216 0)
(0.690021 -0.0294749 0)
(0.648286 -0.0346222 0)
(0.585554 -0.0423149 0)
(0.524708 -0.0494881 0)
(0.439746 -0.0606655 0)
(0.353085 -0.074519 0)
(0.237129 -0.102773 0)
(0.162585 -0.157975 0)
(0.191318 -0.159559 1.89003e-20)
(0.217514 -0.139494 -1.86089e-20)
(0.25082 -0.122877 2.78645e-21)
(0.29155 -0.111569 0)
(0.340811 -0.0978705 0)
(0.39972 -0.0894827 3.742e-21)
(0.464415 -0.0715036 -1.71536e-20)
(0.534057 -0.0616543 1.699e-20)
(0.592319 -0.0318591 4.75973e-21)
(0.782076 -0.0169213 -4.7842e-21)
(0.199926 -0.150248 -1.91011e-20)
(0.225435 -0.129409 0)
(0.258643 -0.113671 1.91454e-20)
(0.299447 -0.102891 -4.53216e-20)
(0.348848 -0.0900229 2.98237e-20)
(0.40757 -0.082149 -3.42966e-21)
(0.472108 -0.0652584 7.3623e-21)
(0.541017 -0.056498 1.6104e-20)
(0.60154 -0.0286331 4.40806e-21)
(0.789629 -0.0156401 4.29211e-21)
(0.207458 -0.13963 2.23011e-20)
(0.231616 -0.118867 -1.92338e-20)
(0.26404 -0.104338 1.90525e-20)
(0.304543 -0.094188 -2.37541e-20)
(0.353915 -0.0822351 1.73642e-20)
(0.412639 -0.0749815 0)
(0.477234 -0.0592704 -7.3804e-21)
(0.546051 -0.051716 -7.0455e-23)
(0.609075 -0.025745 -8.34542e-21)
(0.796151 -0.0144351 -8.61279e-21)
(0.215503 -0.128225 -3.77647e-21)
(0.239059 -0.108045 0)
(0.270699 -0.0948393 0)
(0.310708 -0.0853917 0)
(0.35983 -0.0744493 1.90632e-20)
(0.418317 -0.0679316 -1.28859e-20)
(0.482778 -0.0534964 -3.45702e-22)
(0.55133 -0.0472219 -8.2141e-21)
(0.616277 -0.0231457 -4.20722e-21)
(0.80236 -0.0133191 -4.26457e-21)
(0.223027 -0.11639 2.35702e-21)
(0.246402 -0.0971695 -1.17378e-20)
(0.27738 -0.0852903 -1.03887e-20)
(0.317174 -0.0765966 1.03825e-20)
(0.36616 -0.0667151 -6.0922e-21)
(0.424471 -0.0610139 0)
(0.488785 -0.0478972 -7.31415e-21)
(0.556981 -0.0429077 1.59511e-20)
(0.623398 -0.0207314 -8.03864e-21)
(0.808359 -0.0122724 8.55393e-21)
(0.229698 -0.104195 -2.90507e-20)
(0.252812 -0.0862846 2.44472e-21)
(0.282992 -0.0757437 -1.12646e-21)
(0.322757 -0.0679034 1.02553e-20)
(0.371745 -0.0591153 0)
(0.430074 -0.0542893 0)
(0.494379 -0.0424907 0)
(0.562365 -0.0387458 7.74096e-21)
(0.630129 -0.0184487 0)
(0.813976 -0.0112782 0)
(0.235529 -0.091666 0)
(0.258159 -0.075346 1.31495e-20)
(0.287493 -0.0661704 -8.99743e-21)
(0.327171 -0.0593247 -1.12782e-20)
(0.376145 -0.0516656 1.1337e-20)
(0.434577 -0.0477785 6.83069e-21)
(0.498994 -0.0372907 -6.5666e-21)
(0.566973 -0.0347502 -2.6849e-20)
(0.636106 -0.0162892 1.90854e-21)
(0.819007 -0.0103326 -6.26958e-21)
(0.240442 -0.078824 0)
(0.262406 -0.0643328 -4.16412e-21)
(0.291044 -0.056552 -2.36242e-21)
(0.330515 -0.0508106 0)
(0.379392 -0.0443259 3.24221e-21)
(0.437951 -0.0414512 -9.48876e-21)
(0.502463 -0.032275 1.07915e-20)
(0.570663 -0.0309146 4.00605e-21)
(0.641152 -0.0142514 -4.00654e-21)
(0.823367 -0.00943463 8.38672e-21)
(0.244294 -0.0656796 3.15889e-21)
(0.265522 -0.0532341 4.39357e-21)