/*--------------------------------*- C++ -*----------------------------------*\
  =========                 |
  \\      /  F ield         | OpenFOAM: The Open Source CFD Toolbox
   \\    /   O peration     | Website:  https://openfoam.org
    \\  /    A nd           | Version:  7
     \\/     M anipulation  |
\*---------------------------------------------------------------------------*/
FoamFile
{
    version     2.0;
    format      ascii;
    class       volScalarField;
    location    "63";
    object      p;
}
// * * * * * * * * * * * * * * * * * * * * * * * * * * * * * * * * * * * * * //

dimensions      [0 2 -2 0 0 0 0];

internalField   nonuniform List<scalar> 
2000
(
0.0161831
0.0162878
0.016509
0.0167608
0.0170051
0.017226
0.0174223
0.0176034
0.0177783
0.0179807
0.0163984
0.0165157
0.0167554
0.0170342
0.0173083
0.0175561
0.0177692
0.0179531
0.018108
0.0182603
0.01657
0.0167156
0.0169777
0.017286
0.0175922
0.0178704
0.0181082
0.0182991
0.0184442
0.0185536
0.0166941
0.0168872
0.0171748
0.0175136
0.017852
0.0181603
0.0184214
0.0186276
0.0187741
0.0188497
0.0167715
0.0170332
0.0173473
0.0177157
0.0180834
0.0184187
0.0187023
0.0189249
0.0190814
0.0191345
0.0168123
0.017154
0.0174976
0.0178923
0.0182832
0.0186387
0.0189389
0.0191747
0.0193458
0.0193885
0.0168227
0.0172585
0.0176302
0.0180453
0.0184503
0.0188152
0.0191215
0.0193617
0.0195444
0.0195873
0.0168164
0.017355
0.0177509
0.0181778
0.0185848
0.018945
0.0192433
0.0194751
0.0196612
0.0197115
0.0168101
0.0174525
0.0178664
0.0182942
0.0186886
0.0190274
0.0193013
0.0195119
0.019697
0.0197663
0.0168227
0.0175613
0.0179846
0.0183998
0.0187646
0.0190623
0.0192909
0.0194618
0.0196298
0.0197255
0.0187335
0.0207365
0.02349
0.0267539
0.0299704
0.0334128
0.0360732
0.0391921
0.0401304
0.0419354
0.0188505
0.0204658
0.0228373
0.0258113
0.028787
0.0320235
0.0345062
0.0374435
0.0384351
0.0400528
0.0189517
0.0202513
0.0222158
0.0249027
0.0276524
0.0306977
0.0330211
0.035817
0.0367945
0.0382978
0.0190199
0.0200983
0.0216303
0.0240361
0.0265706
0.0294337
0.0316194
0.0342889
0.0352309
0.036671
0.0190395
0.0199996
0.0210849
0.0232192
0.0255461
0.0282367
0.0303034
0.0328586
0.0337716
0.0351709
0.0190011
0.0199292
0.0205832
0.0224566
0.0245783
0.0271013
0.029057
0.0315039
0.032399
0.0337798
0.0189033
0.0198452
0.0201287
0.0217527
0.0236771
0.0260438
0.0279015
0.0302514
0.0311343
0.0324968
0.0187477
0.0196962
0.0197238
0.0210965
0.0228181
0.0250239
0.0267858
0.0290389
0.0299209
0.0312974
0.0185362
0.0194217
0.0193593
0.0205259
0.0220741
0.024129
0.0258053
0.0279562
0.0288259
0.0301915
0.0184495
0.0191315
0.018983
0.019888
0.0212449
0.02314
0.0247475
0.0268013
0.0277157
0.0291288
0.0197239
0.0203009
0.0201884
0.0203366
0.0209638
0.0221582
0.0233851
0.024903
0.0257264
0.0267626
0.0168992
0.0177355
0.0181725
0.0185556
0.0191097
0.0199505
0.0208436
0.021912
0.0225317
0.0231982
0.0142845
0.0152995
0.015911
0.0163466
0.0168675
0.0175732
0.0182551
0.0190435
0.0194522
0.0199009
0.0114212
0.0126597
0.0135483
0.0141326
0.0146195
0.0152215
0.0157699
0.0163818
0.0166348
0.0169354
0.0084162
0.00977926
0.0109965
0.0118527
0.0124203
0.0129601
0.0133931
0.0138618
0.0140168
0.0142314
0.00553182
0.00692572
0.00835323
0.00943292
0.0101449
0.0107118
0.0111074
0.0114812
0.011569
0.011707
0.00304227
0.00436028
0.0058578
0.00706608
0.00785955
0.0084138
0.00876373
0.00907505
0.0091318
0.00922651
0.00116191
0.00225121
0.00359983
0.00478887
0.00560498
0.00613696
0.00643092
0.00666535
0.00667929
0.00672945
6.76853e-05
0.000835602
0.0018547
0.00276886
0.00338529
0.00377431
0.00396793
0.00413528
0.00411115
0.00414112
-0.000797735
-0.000234424
0.000407802
0.000946904
0.00127158
0.00144345
0.00147486
0.00154348
0.0014691
0.00146123
0.0187184
0.0159047
0.0132814
0.0104431
0.00756509
0.00483647
0.00252543
0.000776205
-6.66025e-05
-0.0010675
0.0181334
0.015293
0.012662
0.00985233
0.00705291
0.00442833
0.00224171
0.00060305
-0.000114055
-0.00108544
0.0174369
0.0146969
0.0120893
0.00932835
0.00661017
0.00408591
0.00201514
0.000484504
-0.000154943
-0.000953055
0.0167972
0.0142026
0.0116197
0.00891298
0.00627532
0.00384611
0.00187526
0.000441988
-0.000153947
-0.000793167
0.0162637
0.0138031
0.0112436
0.0085902
0.00602845
0.00369091
0.00181089
0.000458459
-0.000112652
-0.000635241
0.0158686
0.0135033
0.0109653
0.00835719
0.00587279
0.0036159
0.0018128
0.000525125
-3.94722e-05
-0.000482708
0.0156264
0.0133062
0.010788
0.00822075
0.0058025
0.00361565
0.0018758
0.00063541
5.94212e-05
-0.000339254
0.0155465
0.013205
0.01071
0.00817344
0.00581243
0.00368366
0.00199253
0.000781681
0.000178403
-0.000207997
0.0156091
0.0132038
0.0107259
0.0082094
0.00589536
0.00381174
0.00215428
0.000956001
0.000311921
-8.99134e-05
0.0157913
0.0132935
0.0108267
0.00831987
0.00604152
0.00399023
0.00235185
0.00115082
0.00045491
1.55769e-05
0.0160646
0.0134574
0.0109971
0.00849116
0.00623801
0.00420792
0.00257567
0.00135917
0.000603031
0.000109718
0.0164066
0.0136809
0.0112243
0.00871261
0.00647446
0.0044558
0.00281806
0.00157559
0.000753046
0.000193901
0.0168019
0.0139554
0.0114995
0.00897736
0.00674341
0.00472723
0.00307325
0.00179612
0.00090276
0.000269599
0.0172355
0.0142724
0.0118128
0.00927808
0.0070375
0.00501604
0.00333641
0.00201782
0.00105077
0.000338139
0.0176949
0.014626
0.0121556
0.00960855
0.00735064
0.00531718
0.00360393
0.00223862
0.0011963
0.000400669
0.0181695
0.015012
0.01252
0.00996313
0.00767796
0.00562656
0.00387317
0.00245718
0.00133904
0.000458186
0.018644
0.0154238
0.0128972
0.0103354
0.00801495
0.00594057
0.00414215
0.00267263
0.00147903
0.000511613
0.0191098
0.0158659
0.0132904
0.0107272
0.00836367
0.0062602
0.00441175
0.00288568
0.00161701
0.000561963
0.0196136
0.0163969
0.0137378
0.0111654
0.00874358
0.00659756
0.00468915
0.00310019
0.00175502
0.000609691
0.020024
0.0169372
0.0141771
0.0115966
0.00911972
0.00692573
0.00495875
0.00330712
0.00188963
0.000651695
0.0194756
0.017265
0.0146463
0.01217
0.00972156
0.00749929
0.00548035
0.00372891
0.00217772
0.000747124
0.0193636
0.0171741
0.0146698
0.0123374
0.00998709
0.0078422
0.00584287
0.00406845
0.00243314
0.00086199
0.0199057
0.0176534
0.0151069
0.0127831
0.0104152
0.00825381
0.00620913
0.00438309
0.00266827
0.000979001
0.0207543
0.0183079
0.0156565
0.0132757
0.0108553
0.00864979
0.00654754
0.00467355
0.00289989
0.00111272
0.021947
0.0191958
0.0163694
0.0138585
0.0113396
0.00905281
0.00688048
0.00496259
0.00314538
0.00126718
0.0234218
0.0203032
0.017249
0.0145392
0.0118841
0.00948353
0.00723226
0.00526222
0.0034013
0.00142361
0.0250391
0.021542
0.018233
0.0152838
0.0124735
0.00994071
0.00760564
0.00556195
0.00362249
0.00151864
0.0266122
0.022718
0.0191618
0.0159917
0.0130467
0.0103951
0.00797509
0.00581985
0.00374686
0.00150593
0.0278355
0.0236649
0.019913
0.0165643
0.0135145
0.010773
0.00827507
0.00599211
0.00376455
0.0014141
0.0286065
0.0241646
0.0202888
0.0168572
0.0137669
0.0109874
0.00844612
0.00607732
0.00374544
0.00133513
0.0210281
0.0210153
0.0216331
0.0225845
0.0239652
0.0256258
0.0274571
0.0292924
0.0307979
0.031773
0.0213696
0.0216222
0.0223923
0.0234776
0.0250006
0.0267779
0.0287112
0.0306095
0.0321545
0.0331052
0.0214945
0.0220559
0.0230773
0.0244053
0.0261473
0.0281087
0.0301893
0.0321492
0.0336788
0.0345367
0.0217044
0.0224913
0.0237168
0.025271
0.027216
0.029363
0.0316114
0.0336851
0.0352626
0.0361077
0.0220013
0.0230186
0.024418
0.0261605
0.0282723
0.0305783
0.032982
0.0351929
0.0368734
0.0377808
0.0223275
0.0236076
0.0252028
0.0271303
0.0293991
0.0318507
0.0343935
0.0367343
0.0385279
0.03952
0.0226748
0.024226
0.0260473
0.0281754
0.0306143
0.0332202
0.0359005
0.0383602
0.0402519
0.0413154
0.0230573
0.0248718
0.0269374
0.0292763
0.0319016
0.0346781
0.0375066
0.0400837
0.0420593
0.0431737
0.023484
0.0255503
0.0278733
0.030423
0.0332462
0.0362056
0.0391948
0.0418962
0.0439514
0.0451038
0.0239579
0.0262587
0.0288564
0.0316112
0.0346421
0.0377913
0.0409517
0.0437861
0.0459241
0.0471103
0.0244818
0.026987
0.0298842
0.0328342
0.0360862
0.0394296
0.042771
0.0457472
0.0479744
0.0491942
0.0250528
0.0277214
0.0309484
0.0340805
0.0375716
0.0411139
0.0446485
0.0477765
0.0501008
0.0513557
0.0256519
0.0284532
0.0320275
0.0353412
0.0390868
0.0428408
0.046582
0.0498735
0.0523068
0.0535984
0.0262459
0.0291825
0.033093
0.036613
0.0406156
0.0446035
0.0485647
0.0520367
0.0545995
0.0559306
0.0267871
0.0299137
0.0340955
0.0379127
0.0421538
0.046398
0.0505953
0.054263
0.0569658
0.0583467
0.02722
0.0306537
0.0350639
0.0391716
0.0436729
0.0481966
0.0526534
0.0565383
0.0593969
0.060842
0.0275687
0.0313465
0.0359756
0.0403712
0.0451618
0.0499921
0.0547364
0.0588629
0.0618958
0.0634217
0.0277945
0.0319594
0.036791
0.0414869
0.0465818
0.0517422
0.0568061
0.0612106
0.0644503
0.0660818
0.0278754
0.0325156
0.0375349
0.0425564
0.0479735
0.053489
0.0588954
0.0636017
0.0670717
0.0688364
0.0276317
0.0328208
0.0380052
0.0433429
0.0490823
0.0549865
0.0608055
0.0659102
0.069701
0.0716619
0.0286305
0.0351243
0.0407176
0.0466857
0.0530422
0.0596409
0.0661689
0.0719824
0.0763739
0.0787384
0.035085
0.0413979
0.0473355
0.0542751
0.0616769
0.0694105
0.0770329
0.0837838
0.0888536
0.0915424
0.04216
0.048892
0.0555739
0.0636207
0.072129
0.0810645
0.0897418
0.0973091
0.102922
0.105907
0.0496759
0.0571372
0.0649389
0.0742559
0.0840115
0.0942651
0.10396
0.112257
0.118287
0.121389
0.0576355
0.0660336
0.0751319
0.0857948
0.0968896
0.108498
0.119135
0.128079
0.134411
0.137727
0.0661745
0.0755765
0.0860936
0.0981165
0.110584
0.123495
0.13498
0.144461
0.150821
0.153774
0.0747167
0.0852497
0.0970988
0.110365
0.124146
0.138167
0.150417
0.160305
0.166448
0.169384
0.0831618
0.0945064
0.107573
0.122034
0.137103
0.152098
0.165236
0.175629
0.181243
0.181991
0.0888383
0.101218
0.115254
0.13064
0.146702
0.162411
0.176353
0.187021
0.19173
0.194124
0.0935424
0.106221
0.120928
0.137043
0.153957
0.170529
0.186039
0.199216
0.206211
0.191452
0.0265665
0.0326826
0.0388514
0.045826
0.0529836
0.0610907
0.068835
0.0771654
0.0820957
0.0867773
0.0259917
0.032361
0.0384072
0.0451996
0.0520862
0.0599463
0.0673052
0.0753642
0.0797336
0.0843037
0.025816
0.0324801
0.0386148
0.0453129
0.0520725
0.0596926
0.066682
0.0742381
0.0780104
0.0822349
0.02552
0.0322936
0.0384396
0.045065
0.0517259
0.0591551
0.0658443
0.0729998
0.0764455
0.0802877
0.0251682
0.0319295
0.037997
0.0445475
0.051065
0.058282
0.0647031
0.0715619
0.0748735
0.078415
0.0248155
0.0315417
0.0375441
0.043989
0.050387
0.0573572
0.0635328
0.0701129
0.0733586
0.0766749
0.0244575
0.0311518
0.037136
0.0434766
0.0497923
0.056537
0.0625272
0.0687998
0.0720192
0.0751301
0.0240952
0.030758
0.0367522
0.0430209
0.0492707
0.0558331
0.0617219
0.0676487
0.0709319
0.0738042
0.0237412
0.0303756
0.0363904
0.042617
0.0488116
0.0552489
0.0610576
0.0667204
0.070052
0.0726946
0.0234121
0.0300228
0.0360655
0.0422729
0.0484267
0.0547837
0.0605187
0.0660098
0.0693454
0.0718217
0.0231237
0.0297121
0.0357923
0.0420009
0.0481335
0.0544416
0.0601202
0.0654982
0.068817
0.0711896
0.0228722
0.0294384
0.0355717
0.0418028
0.0479387
0.0542268
0.0598772
0.0651775
0.0684819
0.070791
0.0226382
0.0291881
0.0353963
0.0416734
0.0478403
0.0541418
0.0597966
0.0650492
0.0683511
0.0706182
0.0224106
0.0289596
0.0352635
0.0416102
0.0478362
0.0541867
0.0598769
0.0651139
0.0684235
0.0706647
0.0221762
0.028754
0.0351711
0.0416103
0.0479253
0.0543611
0.0601179
0.0653734
0.0686989
0.0709296
0.0219117
0.0285687
0.0351091
0.0416649
0.0481008
0.0546541
0.0605098
0.0658169
0.069162
0.0714109
0.0215853
0.028397
0.0350656
0.0417674
0.0483605
0.0550668
0.0610607
0.0664493
0.0698201
0.0721155
0.021157
0.0282142
0.0350091
0.0418854
0.048667
0.0555572
0.0617318
0.0672348
0.0706343
0.0730431
0.0206185
0.0280413
0.03497
0.0420531
0.0490622
0.0561725
0.0625686
0.0682098
0.0716479
0.0742077
0.0197453
0.0276238
0.0347121
0.0420232
0.0492823
0.0566516
0.0633486
0.0692198
0.0727389
0.075596
0.0208261
0.0289447
0.0361278
0.0437546
0.0514833
0.0592569
0.0664473
0.0726431
0.076416
0.0795565
0.0266029
0.0344453
0.0416808
0.0499427
0.0584428
0.0671089
0.0752428
0.0821486
0.0865964
0.0894338
0.0332299
0.0414055
0.0492802
0.0585454
0.0681057
0.0780315
0.0873796
0.0952761
0.100467
0.103265
0.0401238
0.0490007
0.0580309
0.0687169
0.0798096
0.0915492
0.102594
0.112049
0.118506
0.121913
0.0471372
0.0569962
0.067516
0.0798982
0.092935
0.106991
0.120327
0.132246
0.141032
0.146171
0.054322
0.0653395
0.0776311
0.0918845
0.107237
0.124034
0.140416
0.156121
0.169368
0.178782
0.060891
0.0733297
0.0873479
0.10352
0.12143
0.141225
0.161674
0.18312
0.203985
0.222917
0.0674083
0.0809567
0.0966306
0.114779
0.135338
0.158459
0.184164
0.213879
0.248068
0.287093
0.0704531
0.0847894
0.101554
0.121133
0.144102
0.171104
0.203823
0.245361
0.301447
0.376667
0.0736546
0.0896628
0.107955
0.129645
0.156003
0.188446
0.230136
0.287377
0.374719
0.499238
0.0192262
0.0244579
0.0298919
0.0358879
0.04176
0.0484298
0.0538681
0.0601652
0.0628324
0.0648255
0.0187197
0.0239376
0.0292222
0.0349175
0.0403934
0.0467628
0.0517313
0.0578233
0.0601458
0.0624644
0.0185769
0.0237896
0.0290233
0.0345368
0.0397777
0.045798
0.0503759
0.0560434
0.0579363
0.0610677
0.018472
0.0234746
0.0285145
0.0338282
0.0388424
0.0445388
0.0487952
0.0540597
0.0556125
0.0591241
0.0184045
0.023055
0.0277844
0.0328694
0.0375848
0.042936
0.046877
0.0518045
0.0530788
0.0564932
0.0183842
0.0226276
0.0270348
0.0318369
0.036265
0.0412365
0.0448526
0.0494768
0.0504936
0.0535879
0.0183996
0.0222104
0.0263093
0.0307781
0.0349964
0.039582
0.0429009
0.0472397
0.0480256
0.0507975
0.0184454
0.0218032
0.0255906
0.0297394
0.0337252
0.0379758
0.0410792
0.0451236
0.0457563
0.0482835
0.0185197
0.0214142
0.0248744
0.0287226
0.0324531
0.0363949
0.0393689
0.0430769
0.0437057
0.0460248
0.0186183
0.0210552
0.0241707
0.0277256
0.0311962
0.0348692
0.0377021
0.0410757
0.0418659
0.0439289
0.0168756
0.0176929
0.0181144
0.0185021
0.0188192
0.0190545
0.019212
0.0193028
0.0193509
0.0192976
0.0169971
0.0178622
0.018267
0.0186113
0.0188642
0.0190207
0.019091
0.0190894
0.019041
0.018906
0.0172043
0.0180799
0.0184533
0.0187398
0.0189155
0.0189819
0.0189558
0.0188569
0.0187195
0.018515
0.017515
0.0183583
0.0186861
0.0189026
0.0189915
0.0189616
0.0188359
0.0186388
0.0184119
0.0181298
0.0179454
0.0187101
0.0189786
0.0191153
0.0191119
0.0189839
0.0187597
0.0184679
0.0181524
0.0177863
0.0185066
0.0191459
0.0193432
0.0193926
0.0192941
0.0190697
0.0187514
0.0183708
0.0179703
0.0175213
0.0192034
0.0196732
0.0197884
0.019745
0.019551
0.0192335
0.0188273
0.0183651
0.0178853
0.0173615
0.0200331
0.0202944
0.0203182
0.0201776
0.0198884
0.0194821
0.0189946
0.0184579
0.0179055
0.0173133
0.020984
0.0210052
0.0209292
0.0206877
0.0203042
0.0198134
0.0192507
0.0186475
0.0180298
0.0173729
0.0220257
0.0217884
0.0216086
0.0212644
0.0207883
0.0202173
0.0195858
0.0189225
0.0182472
0.0175419
0.0231031
0.0226163
0.0223345
0.021889
0.0213236
0.0206774
0.0199833
0.0192665
0.018542
0.0178012
0.0242327
0.0234808
0.0230898
0.0225411
0.0218887
0.0211724
0.0204221
0.0196591
0.0188949
0.0181297
0.0253613
0.0243434
0.0238425
0.0231932
0.0224589
0.0216793
0.0208803
0.020079
0.0192851
0.0185068
0.0264366
0.0251655
0.0245593
0.0238157
0.0230076
0.0221736
0.0213351
0.0205046
0.0196919
0.0189121
0.0274108
0.0259085
0.0252066
0.0243793
0.0235089
0.0226318
0.0217647
0.0209156
0.0200956
0.0193272
0.028238
0.0265348
0.025752
0.0248566
0.0239387
0.0230326
0.0221496
0.0212936
0.0204786
0.0197352
0.0288761
0.0270098
0.0261667
0.0252234
0.0242766
0.023358
0.0224739
0.0216239
0.0208255
0.0201194
0.0292895
0.0273043
0.0264268
0.0254608
0.024507
0.0235947
0.0227262
0.0218958
0.0211221
0.0204596
0.0294514
0.027396
0.026515
0.0255556
0.0246198
0.0237346
0.0228989
0.0220988
0.0213475
0.0207286
0.0293447
0.027271
0.0264211
0.0255013
0.0246118
0.0237774
0.0229923
0.0222309
0.0214971
0.0209259
0.0289614
0.0269232
0.0261407
0.0252964
0.0244862
0.0237353
0.0230424
0.0223914
0.0218073
0.021448
0.0282961
0.0263516
0.0256745
0.0249409
0.0242396
0.0235957
0.0230109
0.0224759
0.0220118
0.0217236
0.0273653
0.0255686
0.025031
0.0244398
0.0238725
0.0233535
0.0228864
0.0224666
0.0221055
0.0218585
0.0261951
0.0245939
0.0242249
0.0238036
0.0233934
0.0230174
0.0226821
0.0223874
0.0221395
0.0219671
0.0248192
0.0234534
0.0232764
0.0230489
0.0228163
0.0226009
0.0224125
0.0222554
0.0221329
0.0220621
0.0232783
0.0221792
0.0222111
0.022196
0.0221589
0.0221197
0.022092
0.0220838
0.0220974
0.0221432
0.0216184
0.0208071
0.0210575
0.0212684
0.0214406
0.0215907
0.0217354
0.0218863
0.022046
0.0222212
0.0198872
0.0193744
0.0198458
0.02029
0.0206814
0.0210307
0.0213572
0.0216755
0.0219905
0.0223075
0.0181323
0.0179179
0.0186057
0.0192847
0.0199003
0.0204554
0.0209702
0.0214623
0.0219397
0.022409
0.0164131
0.0164768
0.017367
0.0182749
0.0191146
0.019878
0.0205847
0.0212546
0.0218989
0.0225289
0.0148108
0.0151033
0.0161654
0.0172855
0.0183419
0.0193112
0.0202098
0.0210584
0.0218708
0.022667
0.0132629
0.0137862
0.015007
0.0163262
0.0175906
0.0187608
0.0198488
0.0208745
0.0218532
0.022817
0.0118168
0.0125569
0.0139109
0.0154112
0.0168703
0.0182324
0.0195037
0.0207021
0.0218405
0.022965
0.0105076
0.0114383
0.0128958
0.0145513
0.0161874
0.0177285
0.0191736
0.0205374
0.0218267
0.023091
0.00934984
0.0104409
0.0119749
0.013756
0.0155455
0.0172497
0.0188561
0.0203754
0.0218096
0.0231731
0.00835136
0.00957244
0.0111542
0.0130299
0.0149478
0.016796
0.018549
0.0202088
0.0217663
0.0232647
0.00751535
0.00883679
0.0104377
0.012376
0.0143949
0.0163658
0.0182502
0.0200396
0.0217083
0.0233025
0.00684014
0.00823368
0.00982709
0.0117958
0.0138865
0.0159572
0.0179562
0.0198651
0.0216349
0.0232901
0.00632012
0.00775954
0.00932154
0.0112895
0.0134216
0.0155676
0.0176641
0.0196867
0.0215652
0.0232667
0.00594731
0.00740864
0.00891841
0.0108557
0.012998
0.0151924
0.0173644
0.0194889
0.0215033
0.0232916
0.00570931
0.00717207
0.0086123
0.0104914
0.0126127
0.0148275
0.0170551
0.019281
0.021551
0.0237585
0.0055781
0.00703377
0.00839504
0.0101932
0.0122615
0.0144593
0.0166959
0.0189328
0.021208
0.0234108
0.00555546
0.00699076
0.0082638
0.00996045
0.0119454
0.0140886
0.0162917
0.0184934
0.0207069
0.0228473
0.00563271
0.00703466
0.00821347
0.0097935
0.0116715
0.0137323
0.0158777
0.0180377
0.0202094
0.022306
0.00579648
0.00715483
0.00823767
0.00969219
0.0114469
0.013406
0.015477
0.0175871
0.0197212
0.0217854
0.00603377
0.00734089
0.00832953
0.00965508
0.0112761
0.0131189
0.0151004
0.0171476
0.019235
0.0212692
0.00633258
0.00758297
0.00848168
0.0096792
0.0111612
0.0128772
0.0147568
0.0167288
0.0187597
0.0207608
0.00668149
0.0078713
0.00868617
0.00976023
0.0111023
0.0126852
0.0144534
0.0163404
0.0183061
0.0202693
0.00707019
0.00819651
0.00893458
0.00989244
0.0110977
0.012545
0.0141953
0.0159894
0.0178826
0.0198028
0.00749332
0.00855349
0.00922113
0.010071
0.0111447
0.0124569
0.0139854
0.0156802
0.0174944
0.0193676
0.00795148
0.00894451
0.0095474
0.0102971
0.0112453
0.0124239
0.0138278
0.0154177
0.0171465
0.0189679
0.00841365
0.00934265
0.00988975
0.0105512
0.0113848
0.0124365
0.0137171
0.0151996
0.0168373
0.0186
0.00888069
0.00974862
0.0102469
0.0108306
0.01156
0.0124918
0.0136514
0.0150242
0.016565
0.0182582
0.00935096
0.0101604
0.0106156
0.0111307
0.011766
0.0125857
0.0136275
0.0148892
0.016327
0.0179378
0.00982078
0.0105739
0.010991
0.0114462
0.0119974
0.0127134
0.0136419
0.0147922
0.0161206
0.0176342
0.0102872
0.0109863
0.0113694
0.0117725
0.0122494
0.0128707
0.0136916
0.0147312
0.0159442
0.017342
0.0107482
0.0113952
0.0117481
0.0121059
0.0125178
0.0130537
0.0137741
0.014706
0.0157991
0.0170589
0.0112025
0.0117994
0.0121249
0.0124438
0.0127992
0.0132594
0.0138877
0.0147186
0.0156927
0.0167907
0.0116495
0.0121979
0.0124989
0.0127843
0.0130914
0.0134853
0.0140311
0.0147705
0.0156373
0.0165582
0.0120888
0.0125903
0.0128695
0.0131268
0.0133938
0.0137321
0.0142065
0.0148671
0.0156628
0.0164394
0.0125208
0.0129764
0.0132362
0.0134704
0.013706
0.0140026
0.0144292
0.0150644
0.0160007
0.0172025
0.0129475
0.0133561
0.0135985
0.0138145
0.0140253
0.0142861
0.0146628
0.0152285
0.0160807
0.0171761
0.0133673
0.013729
0.0139563
0.0141584
0.0143498
0.0145782
0.0149026
0.0153848
0.0161025
0.0170263
0.0137791
0.0140944
0.0143092
0.0145017
0.0146793
0.0148819
0.0151613
0.0155731
0.0161825
0.0169658
0.0141812
0.0144514
0.0146561
0.0148433
0.0150134
0.0151978
0.0154413
0.0157939
0.0163109
0.0169767
0.0145714
0.0147982
0.0149958
0.015182
0.0153504
0.015524
0.0157398
0.0160415
0.0164756
0.0170394
0.0149464
0.0151329
0.0153264
0.015516
0.0156885
0.0158582
0.0160545
0.016314
0.0166753
0.0171491
0.015302
0.0154527
0.0156457
0.0158434
0.0160255
0.0161983
0.0163831
0.0166095
0.0169085
0.0173026
0.0156334
0.0157544
0.0159513
0.0161615
0.0163589
0.0165414
0.0167227
0.0169251
0.0171725
0.0174955
0.0159311
0.0160347
0.0162402
0.0164681
0.0166861
0.0168847
0.01707
0.0172574
0.0174635
0.017723
)
;

boundaryField
{
    inlet
    {
        type            zeroGradient;
    }
    outlet
    {
        type            fixedValue;
        value           uniform 0;
    }
    cylinder
    {
        type            zeroGradient;
    }
    top
    {
        type            symmetryPlane;
    }
    bottom
    {
        type            symmetryPlane;
    }
    defaultFaces
    {
        type            empty;
    }
}


// ************************************************************************* //
