/*--------------------------------*- C++ -*----------------------------------*\
  =========                 |
  \\      /  F ield         | OpenFOAM: The Open Source CFD Toolbox
   \\    /   O peration     | Website:  https://openfoam.org
    \\  /    A nd           | Version:  7
     \\/     M anipulation  |
\*---------------------------------------------------------------------------*/
FoamFile
{
    version     2.0;
    format      ascii;
    class       surfaceScalarField;
    location    "10";
    object      phi;
}
// * * * * * * * * * * * * * * * * * * * * * * * * * * * * * * * * * * * * * //

dimensions      [0 3 -1 0 0 0 0];

internalField   nonuniform List<scalar> 
63520
(
6.73839e-06
-0.000158749
0.000152011
2.61821e-05
-0.000355815
0.000336371
5.83057e-05
-0.000446393
0.000414269
0.000103202
-0.000449892
0.000404996
0.000161043
-0.000380965
0.000323124
0.000232051
-0.000251123
0.000180114
0.000316484
-6.95501e-05
-1.48832e-05
0.000414604
0.000156265
-0.000254385
0.000526665
0.000420229
-0.00053229
0.00065289
0.000717352
-0.000843578
0.000793454
0.00104342
-0.00118399
0.000948462
0.00139486
-0.00154986
0.00111793
0.00176854
-0.001938
0.00130176
0.00216165
-0.00234548
0.00149974
0.00257157
-0.00276956
0.00171152
0.00299583
-0.00320761
0.0019366
0.00343199
-0.00365707
0.00217433
0.00387763
-0.00411536
0.00242388
0.00433033
-0.00457989
0.00268429
0.00478765
-0.00504806
0.00295444
0.00524709
-0.00551724
0.00323305
0.00570619
-0.00598481
0.00351875
0.00616246
-0.00644816
0.00381005
0.00661344
-0.00690473
0.00410538
0.00705673
-0.00735206
0.00440313
0.00749002
-0.00778777
0.00470166
0.00791113
-0.00820966
0.00499935
0.00831803
-0.00861572
0.00529462
0.00870888
-0.00900415
0.00558594
0.00908204
-0.00937336
0.00587189
0.00943611
-0.00972206
0.00615115
0.00976993
-0.0100492
0.00642257
0.0100826
-0.010354
0.0066851
0.0103734
-0.010636
0.00693788
0.0106421
-0.0108948
0.00718025
0.0108882
-0.0111306
0.00741173
0.0111117
-0.0113431
0.00763208
0.0113121
-0.0115325
0.00784136
0.0114888
-0.011698
0.0116386
0.00804001
-0.0118372
6.50131e-06
-0.000165251
2.52655e-05
-0.000374579
5.61475e-05
-0.000477275
9.9165e-05
-0.00049291
0.000154469
-0.000436269
0.000222272
-0.000318925
0.000302839
-0.000150117
0.00039644
6.26637e-05
0.000503344
0.000313325
0.000623802
0.000596894
0.000758009
0.000909214
0.000906101
0.00124676
0.00106814
0.0016065
0.00124408
0.0019857
0.00143379
0.00238186
0.00163699
0.00279263
0.00185329
0.0032157
0.00208212
0.0036488
0.0023228
0.00408966
0.00257447
0.00453597
0.00283615
0.00498542
0.0031067
0.00543564
0.00338487
0.00588429
0.0036693
0.00632901
0.00395853
0.00676749
0.00425106
0.00719749
0.00454534
0.00761686
0.00483981
0.00802357
0.00513292
0.00841576
0.00542321
0.00879176
0.00570923
0.00915009
0.00598966
0.00948949
0.00626331
0.00980895
0.00652908
0.0101077
0.00678606
0.0103851
0.0070335
0.0106407
0.00727083
0.0108743
0.00749772
0.0110853
0.00771411
0.0112724
0.0114324
0.00792025
6.27972e-06
-0.000171531
2.43511e-05
-0.000392651
5.39597e-05
-0.000506884
9.50698e-05
-0.00053402
0.000147827
-0.000489027
0.000212436
-0.000383534
0.00028917
-0.000226851
0.000378312
-2.64788e-05
0.000480143
0.000211494
0.000594933
0.000482105
0.000722901
0.000781246
0.000864214
0.00110545
0.00101897
0.00145174
0.00118719
0.00181749
0.00136877
0.00220028
0.00156352
0.00259788
0.00177112
0.0030081
0.00199111
0.0034288
0.00222291
0.00385786
0.00246577
0.00429311
0.00271884
0.00473235
0.00298109
0.00517338
0.00325141
0.00561397
0.00352856
0.00605187
0.00381119
0.00648486
0.00409791
0.00691077
0.00438726
0.00732751
0.00467775
0.00773307
0.00496791
0.0081256
0.00525629
0.00850338
0.00554149
0.00886489
0.00582217
0.00920881
0.00609712
0.009534
0.00636523
0.00983956
0.00662551
0.0101248
0.00687716
0.0103891
0.00711953
0.010632
0.0073522
0.0108526
0.00757499
0.0110496
0.0112194
0.00778799
6.0683e-06
-0.000177599
2.3405e-05
-0.000409987
5.16901e-05
-0.000535169
9.0855e-05
-0.000573185
0.000141032
-0.000539203
0.00020243
-0.000444932
0.000275334
-0.000299755
0.000360044
-0.000111189
0.000456855
0.000114683
0.000566056
0.000372904
0.000687892
0.00065941
0.000822556
0.000970787
0.000970176
0.00130412
0.0011308
0.00165686
0.0013044
0.00202668
0.00149084
0.00241144
0.00168986
0.00280908
0.00190109
0.00321757
0.00212404
0.00363491
0.00235808
0.00405907
0.00260245
0.00448799
0.00285625
0.00491958
0.00311848
0.00535174
0.00338802
0.00578233
0.00366363
0.00620924
0.00394404
0.00663037
0.00422786
0.00704368
0.00451371
0.00744722
0.00480018
0.00783913
0.00508585
0.0082177
0.00536938
0.00858137
0.00564943
0.00892875
0.00592479
0.00925864
0.00619432
0.00957003
0.00645701
0.0098621
0.00671199
0.0101341
0.00695857
0.0103854
0.00719623
0.0106149
0.00742468
0.0108211
0.0110003
0.00764383
5.84325e-06
-0.000183442
2.24095e-05
-0.000426554
4.93144e-05
-0.000562074
8.64741e-05
-0.000610344
0.000134017
-0.000586746
0.000192171
-0.000503086
0.000261229
-0.000368813
0.000341512
-0.000191472
0.000433339
2.28561e-05
0.000537012
0.000269231
0.000652797
0.000543625
0.000780913
0.000842671
0.000921518
0.00116352
0.0010747
0.00150368
0.00124046
0.00186092
0.00141871
0.00223319
0.00160928
0.00261851
0.00181185
0.00301499
0.00202602
0.00342074
0.00225125
0.00383384
0.00248688
0.00425236
0.00273213
0.00467434
0.00298609
0.00509778
0.00324775
0.00552067
0.00351601
0.00594098
0.00378966
0.00635672
0.00406745
0.00676589
0.00434807
0.00716661
0.00463017
0.00755703
0.00491241
0.00793546
0.00519347
0.00830031
0.00547207
0.00865015
0.00574697
0.00898373
0.00601705
0.00929995
0.00628127
0.00959788
0.00653872
0.00987667
0.00678865
0.0101355
0.00703049
0.0103731
0.00726382
0.0105878
0.0107757
0.00748841
5.60819e-06
-0.000189051
2.1348e-05
-0.000442294
4.68025e-05
-0.000587529
8.18828e-05
-0.000645425
0.000126723
-0.000631586
0.000181573
-0.000557937
0.000246746
-0.000433986
0.000322587
-0.000267313
0.000409436
-6.39926e-05
0.000507614
0.000171054
0.000617409
0.000433829
0.000739064
0.000721017
0.000872759
0.00102982
0.00101861
0.00135782
0.00117667
0.00170287
0.00134688
0.00206297
0.00152912
0.00243628
0.00172314
0.00282097
0.00192862
0.00321526
0.00214509
0.00361737
0.00237198
0.00402547
0.00260861
0.00443771
0.00285417
0.00485221
0.00310777
0.00526707
0.00336839
0.00568036
0.00363494
0.00609016
0.00390626
0.00649458
0.00418112
0.00689175
0.00445827
0.00727989
0.00473642
0.00765731
0.0050143
0.00802243
0.00529066
0.00837379
0.00556431
0.00871009
0.0058341
0.00903016
0.006099
0.00933298
0.00635807
0.0096176
0.00661052
0.00988301
0.0068557
0.0101279
0.00709313
0.0103504
0.0105464
0.00732239
5.34986e-06
-0.000194401
2.02031e-05
-0.000457147
4.41265e-05
-0.000611452
7.70369e-05
-0.000678335
0.000119087
-0.000673637
0.000170558
-0.000609408
0.000231788
-0.000495216
0.000303148
-0.000338673
0.000385005
-0.000145849
0.000477702
7.83567e-05
0.000581548
0.000329983
0.000696806
0.000605759
0.00082368
0.000902948
0.000962315
0.00121919
0.00111278
0.0015524
0.00127508
0.00190067
0.00144912
0.00226224
0.00163472
0.00263537
0.00183161
0.00301838
0.00203939
0.00340959
0.00225758
0.00380728
0.00248557
0.00420971
0.00272267
0.00461511
0.00296806
0.00502168
0.00322084
0.00542758
0.00348001
0.00583099
0.0037445
0.00623009
0.00401317
0.00662308
0.00428484
0.00700822
0.00455831
0.00738384
0.00483236
0.00774838
0.00510579
0.00810036
0.00537742
0.00843845
0.00564614
0.00876144
0.00591091
0.00906822
0.00617077
0.00935774
0.00642491
0.00962887
0.00667263
0.00988017
0.00691336
0.0101096
0.0103133
0.00714653
5.06209e-06
-0.000199463
1.89596e-05
-0.000471045
4.12588e-05
-0.000633751
7.18964e-05
-0.000708973
0.000111056
-0.000712796
0.000159053
-0.000657405
0.000216262
-0.000552425
0.000283085
-0.000405497
0.000359917
-0.000222681
0.000447125
-8.85181e-06
0.000545042
0.000232066
0.000653949
0.000496852
0.000774072
0.000782824
0.000905581
0.00108768
0.00104857
0.00140941
0.00120308
0.00174617
0.00136905
0.00209627
0.00154635
0.00245807
0.00173475
0.00282998
0.00193394
0.0032104
0.00214348
0.00359773
0.00236287
0.00399032
0.00259148
0.00438651
0.00282858
0.00478457
0.00307337
0.0051828
0.00332494
0.00557943
0.0035823
0.00597272
0.00384442
0.00636096
0.00411019
0.00674245
0.00437847
0.00711556
0.00464811
0.00747873
0.00491797
0.00783051
0.0051869
0.00816952
0.00545382
0.00849452
0.00571769
0.00880435
0.00597756
0.00909786
0.0062326
0.00937383
0.00648206
0.00963071
0.00672528
0.00986642
0.010077
0.00696158
4.73975e-06
-0.000204203
1.76038e-05
-0.000483909
3.81747e-05
-0.000654322
6.64236e-05
-0.000737222
0.000102575
-0.000748948
0.00014699
-0.00070182
0.000200085
-0.00060552
0.000262298
-0.000467709
0.000334053
-0.000294437
0.000415748
-9.05461e-05
0.000507734
0.000140079
0.000610317
0.000394269
0.000723743
0.000669398
0.000848201
0.000963224
0.000983815
0.00127379
0.00113064
0.00159934
0.00128866
0.00193824
0.00145778
0.00228895
0.00163782
0.00264994
0.00182852
0.00301971
0.00202951
0.00339674
0.00224034
0.00377949
0.00246047
0.00416638
0.00268925
0.00455579
0.00292595
0.00494609
0.00316976
0.00533562
0.00341979
0.0057227
0.00367505
0.00610569
0.00393455
0.00648295
0.00419722
0.0068529
0.00446196
0.00721399
0.00472768
0.00756478
0.0049933
0.0079039
0.00525774
0.00823008
0.00552001
0.00854208
0.00577916
0.00883871
0.00603433
0.00911866
0.00628476
0.00938029
0.00652971
0.00962146
0.0098383
0.00676838
4.37784e-06
-0.00020858
1.61235e-05
-0.000495654
3.48529e-05
-0.000673052
6.05861e-05
-0.000762955
9.36019e-05
-0.000781963
0.000134313
-0.000742531
0.000183187
-0.000654394
0.000240699
-0.000525221
0.000307311
-0.000361049
0.000383448
-0.000166683
0.000469489
5.40385e-05
0.000565756
0.000298002
0.000672519
0.000562635
0.000789986
0.000845757
0.000918302
0.00114548
0.00105755
0.0014601
0.00120773
0.00178806
0.0013688
0.00212788
0.0015406
0.00247813
0.00172291
0.00283739
0.00191544
0.00320421
0.00211779
0.00357714
0.00232948
0.00395469
0.00254995
0.00433533
0.00277852
0.00471751
0.00301448
0.00509966
0.003257
0.00548018
0.0035052
0.00585749
0.00375814
0.00623001
0.00401483
0.00659621
0.00427424
0.00695457
0.00453535
0.00730368
0.0047971
0.00764215
0.00505849
0.00796869
0.00531852
0.00828205
0.00557626
0.00858097
0.00583086
0.00886407
0.00608152
0.00912963
0.00632745
0.00937553
0.00959802
0.00656774
3.97378e-06
-0.000212554
1.45088e-05
-0.00050619
3.12745e-05
-0.000689817
5.43561e-05
-0.000786037
8.40981e-05
-0.000811705
0.000120974
-0.000779407
0.000165506
-0.000698925
0.000218216
-0.000577931
0.000279604
-0.000422437
0.000350126
-0.000237206
0.000430187
-2.60221e-05
0.000520133
0.000208056
0.000620251
0.000462517
0.00073077
0.000735238
0.000851854
0.00102439
0.000983604
0.00132835
0.00112606
0.00164561
0.00127918
0.00197476
0.00144286
0.00231446
0.00161692
0.00266333
0.0018011
0.00302003
0.00199506
0.00338318
0.00219838
0.00375137
0.00241056
0.00412315
0.00263101
0.00449706
0.00285906
0.00487161
0.00309397
0.00524526
0.00333495
0.00561652
0.00358111
0.00598385
0.00383154
0.00634578
0.00408528
0.00670083
0.00434136
0.0070476
0.00459879
0.00738472
0.00485658
0.0077109
0.0051138
0.00802484
0.00536952
0.00832525
0.00562289
0.00861069
0.0058731
0.00887942
0.00611931
0.00912932
0.00935682
0.0063605
3.52421e-06
-0.000216078
1.27511e-05
-0.000515416
2.74252e-05
-0.000704492
4.77123e-05
-0.000806324
7.40345e-05
-0.000838028
0.000106936
-0.000812308
0.000146998
-0.000738988
0.000194794
-0.000625727
0.000250866
-0.000478509
0.000315703
-0.000302043
0.000389738
-0.000100057
0.000473339
0.000124454
0.000566817
0.000369039
0.000670416
0.000631639
0.00078432
0.000910487
0.000908649
0.00120402
0.00104346
0.0015108
0.00118874
0.00182948
0.00134441
0.00215878
0.00151033
0.00249741
0.00168628
0.00284408
0.00187196
0.0031975
0.002067
0.00355633
0.00227096
0.0039192
0.00248331
0.00428472
0.00270345
0.00465146
0.00293071
0.005018
0.00316435
0.00538288
0.00340358
0.00574463
0.00364753
0.00610182
0.00389533
0.00645303
0.00414605
0.00679688
0.00439875
0.00713202
0.00465252
0.00745713
0.00490642
0.00777094
0.00515957
0.0080721
0.00541112
0.00835914
0.00566026
0.00863029
0.00590608
0.00888349
0.0091154
0.00614751
3.02741e-06
-0.000219106
1.08446e-05
-0.000523234
2.3294e-05
-0.000716941
4.06386e-05
-0.000823669
6.33907e-05
-0.00086078
9.21718e-05
-0.00084109
0.00012763
-0.000774446
0.000170394
-0.000668491
0.000221049
-0.000529164
0.000280122
-0.000361116
0.000348073
-0.000168008
0.000425298
4.72295e-05
0.000512125
0.000282211
0.000608819
0.000534945
0.00071558
0.000803726
0.000832547
0.00108705
0.000959792
0.00138355
0.00109733
0.00169195
0.0012451
0.00201101
0.001403
0.00233952
0.00157083
0.00267625
0.00174834
0.00301999
0.00193521
0.00336946
0.00213103
0.00372337
0.00233534
0.0040804
0.0025476
0.0044392
0.0027672
0.00479841
0.00299346
0.00515662
0.00322565
0.00551244
0.00346298
0.00586449
0.00370462
0.00621139
0.00394972
0.00655178
0.00419739
0.00688435
0.00444674
0.00720778
0.0046969
0.00752078
0.00494701
0.00782199
0.00519623
0.00810992
0.00544372
0.0083828
0.00568856
0.00863864
0.00887436
0.0059296
2.48186e-06
-0.000221588
8.78486e-06
-0.000529537
1.8874e-05
-0.00072703
3.3126e-05
-0.000837921
5.21555e-05
-0.00087981
7.66692e-05
-0.000865603
0.000107387
-0.000805164
0.000144996
-0.0007061
0.00019013
-0.000574298
0.000243352
-0.000414338
0.000305155
-0.000229812
0.00037596
-2.35751e-05
0.000456117
0.000202054
0.000545908
0.000445154
0.000645553
0.000704081
0.000755203
0.000977399
0.000874952
0.0012638
0.00100483
0.00156207
0.0011448
0.00187103
0.00129478
0.00218953
0.00145461
0.00251642
0.00162407
0.00285053
0.00180287
0.00319066
0.00199067
0.00353558
0.00218703
0.00388404
0.00239147
0.00423477
0.00260343
0.00458644
0.0028223
0.00493775
0.0030474
0.00528734
0.00327802
0.00563388
0.00351337
0.00597604
0.00375265
0.0063125
0.00399503
0.00664196
0.00423968
0.00696313
0.00448575
0.00727471
0.00473241
0.00757533
0.00497884
0.00786349
0.00522419
0.00813745
0.00546752
0.00839532
0.00863428
0.0057076
1.88686e-06
-0.000223475
6.56992e-06
-0.00053422
1.41624e-05
-0.000734623
2.51724e-05
-0.000848931
4.03275e-05
-0.000894965
6.04271e-05
-0.000885703
8.62678e-05
-0.000831005
0.000118599
-0.000738432
0.000158105
-0.000613804
0.000205387
-0.000461621
0.000260973
-0.000285397
0.000325308
-8.79106e-05
0.000398767
0.000128595
0.00048165
0.00036227
0.000574193
0.000611539
0.000676564
0.000875028
0.000788872
0.00115149
0.000911164
0.00143978
0.00104343
0.00173877
0.0011856
0.00204737
0.00133754
0.00236448
0.00149907
0.00268901
0.00166992
0.0030198
0.00184979
0.00335571
0.0020383
0.00369553
0.002235
0.00403807
0.00243939
0.00438205
0.00265091
0.00472623
0.00286893
0.00506932
0.00309278
0.00541002
0.00332175
0.00574707
0.00355509
0.00607917
0.00379201
0.00640504
0.00403173
0.00672342
0.00427343
0.007033
0.00451632
0.00733244
0.00475958
0.00762024
0.00500236
0.00789466
0.00524369
0.00815398
0.00839566
0.00548231
1.24226e-06
-0.000224717
4.20002e-06
-0.000537178
9.16111e-06
-0.000739584
1.67825e-05
-0.000856552
2.7915e-05
-0.000906097
4.34579e-05
-0.000901246
6.42888e-05
-0.000851836
9.12227e-05
-0.000765366
0.000124994
-0.000647576
0.000166249
-0.000502876
0.000215547
-0.000334694
0.000273361
-0.000145725
0.000340089
6.18675e-05
0.000416051
0.000286308
0.000501498
0.000526091
0.000596617
0.000779908
0.000701531
0.00104658
0.000816304
0.001325
0.000940943
0.00161413
0.0010754
0.00191291
0.00121956
0.00222032
0.00137327
0.0025353
0.0015363
0.00285677
0.00170837
0.00318364
0.00188914
0.00351477
0.0020782
0.003849
0.0022751
0.00418515
0.00247933
0.00452201
0.0026903
0.00485834
0.0029074
0.00519292
0.00312996
0.00552451
0.00335729
0.00585184
0.00358864
0.00617369
0.00382326
0.00648879
0.00406039
0.00679587
0.00429924
0.00709358
0.00453902
0.00738045
0.00477888
0.00765481
0.00501782
0.00791504
0.00815893
0.00525455
5.48601e-07
-0.000225265
1.67756e-06
-0.000538307
3.87662e-06
-0.000741783
7.96849e-06
-0.000860644
1.49369e-05
-0.000913066
2.57874e-05
-0.000912096
4.14828e-05
-0.000867531
6.29054e-05
-0.000786789
9.08436e-05
-0.000675514
0.000125986
-0.000538018
0.000168926
-0.000377635
0.000220168
-0.000196967
0.00028013
1.90476e-06
0.000349155
0.000217283
0.00042751
0.000447736
0.000515398
0.000692021
0.000612957
0.000949021
0.000720268
0.00121769
0.000837353
0.00149704
0.000964182
0.00178608
0.00110067
0.00208383
0.00124667
0.00238929
0.001402
0.00270145
0.00156639
0.00301924
0.00173954
0.00334161
0.00192109
0.00366745
0.00211061
0.00399563
0.00230764
0.00432498
0.00251163
0.00465435
0.00272203
0.00498253
0.0029382
0.00530833
0.00315949
0.00563055
0.00338521
0.00594797
0.00361464
0.00625936
0.00384706
0.00656346
0.00408169
0.00685895
0.00431777
0.00714438
0.00455442
0.00741815
0.00479064
0.00767882
0.00792447
0.0050251
-1.93665e-07
-0.000225072
-9.92549e-07
-0.000537508
-1.67985e-06
-0.000741096
-1.25018e-06
-0.000861074
1.42218e-06
-0.000915738
7.45504e-06
-0.000918129
1.78991e-05
-0.000877976
3.37066e-05
-0.000802596
5.57199e-05
-0.000697527
8.46723e-05
-0.000566971
0.000121193
-0.000414155
0.000165814
-0.000241588
0.000218979
-5.12604e-05
0.00028105
0.000155212
0.000352313
0.000376473
0.000432986
0.000611347
0.000523225
0.000858782
0.000623125
0.00111779
0.000732726
0.00138744
0.000852013
0.00166679
0.000980921
0.00195492
0.00111933
0.00225089
0.00126707
0.00255371
0.00142391
0.0028624
0.00158958
0.00317595
0.00176374
0.00349329
0.001946
0.00381336
0.00213594
0.00413505
0.00233306
0.00445723
0.00253683
0.00477876
0.00274666
0.0050985
0.00296195
0.00541526
0.00318204
0.00572788
0.00340625
0.00603515
0.00363388
0.00633584
0.00386417
0.00662865
0.00409637
0.00691219
0.0043296
0.00718492
0.00456284
0.00744559
0.00769256
0.00479474
-9.8155e-07
-0.00022409
-3.80304e-06
-0.000534686
-7.49226e-06
-0.000737407
-1.08465e-05
-0.00085772
-1.25896e-05
-0.000913995
-1.14863e-05
-0.000919233
-6.39564e-06
-0.000883066
3.70568e-06
-0.000812698
1.97152e-05
-0.000713537
4.24112e-05
-0.000589667
7.24582e-05
-0.000444202
0.000110418
-0.000279548
0.000156758
-9.7601e-05
0.000211863
0.000100108
0.000276035
0.0003123
0.000349511
0.000537872
0.000432462
0.000775831
0.000524999
0.00102526
0.000627179
0.00128526
0.000739004
0.00155497
0.000860427
0.0018335
0.000991349
0.00211996
0.00113162
0.00241344
0.00128104
0.00271299
0.00143935
0.00301764
0.00160625
0.00332639
0.0017814
0.00363821
0.00196438
0.00395206
0.00215475
0.00426686
0.002352
0.00458151
0.0025556
0.0048949
0.00276496
0.0052059
0.00297947
0.00551337
0.00319847
0.00581615
0.00342128
0.00611303
0.00364718
0.00640275
0.0038754
0.00668397
0.00410506
0.00695526
0.00433513
0.00721552
0.00746345
0.00456425
-1.81344e-06
-0.000222277
-6.74404e-06
-0.000529756
-1.35397e-05
-0.000730611
-2.0786e-05
-0.000850473
-2.70484e-05
-0.000907733
-3.09703e-05
-0.000915311
-3.13185e-05
-0.000882718
-2.69979e-05
-0.000817018
-1.70554e-05
-0.00072348
-6.68243e-07
-0.000606054
2.28643e-05
-0.000467735
5.41332e-05
-0.000310817
9.36309e-05
-0.000137099
0.000141762
5.19766e-05
0.00019885
0.000255212
0.000265148
0.000471574
0.000340844
0.000700135
0.000426066
0.000940034
0.000520887
0.00119044
0.000625327
0.00145053
0.000739355
0.00171947
0.000862893
0.00199643
0.00099581
0.00228052
0.00113793
0.00257087
0.00128902
0.00286654
0.00144882
0.00316659
0.00161699
0.00347005
0.00179316
0.00377589
0.00197691
0.00408311
0.00216779
0.00439064
0.00236527
0.00469742
0.00256881
0.00500236
0.00277782
0.00530436
0.00299168
0.00560229
0.00320971
0.00589499
0.00343122
0.00618124
0.00365542
0.00645977
0.00388144
0.00672923
0.00410822
0.00698874
0.00723727
0.0043344
-2.6859e-06
-0.000219591
-9.8032e-06
-0.000522638
-1.97965e-05
-0.000720618
-3.10268e-05
-0.000839243
-4.18942e-05
-0.000896866
-5.09174e-05
-0.000906288
-5.67702e-05
-0.000876866
-5.82855e-05
-0.000815503
-5.44544e-05
-0.000727311
-4.44105e-05
-0.000616098
-2.74172e-05
-0.000484728
-2.85437e-06
-0.000335379
2.9795e-05
-0.000169748
7.09572e-05
1.08143e-05
0.000120976
0.000205193
0.000180122
0.000412427
0.000248601
0.000631656
0.000326558
0.000862077
0.000414082
0.00110292
0.000511212
0.0013534
0.000617935
0.00161275
0.000734191
0.00188017
0.000859871
0.00215484
0.000994818
0.00243592
0.00113883
0.00272253
0.00129166
0.00301377
0.001453
0.0033087
0.00162252
0.00360637
0.00179982
0.00390581
0.00198447
0.00420599
0.00217598
0.0045059
0.00237384
0.0048045
0.00257748
0.00510072
0.0027863
0.00539348
0.00299964
0.00568165
0.00321681
0.00596407
0.00343702
0.00623956
0.00365938
0.00650687
0.00388282
0.00676531
0.00701414
0.00410595
-3.59489e-06
-0.000215996
-1.29656e-05
-0.000513268
-2.62325e-05
-0.000707351
-4.152e-05
-0.000823956
-5.70572e-05
-0.000881328
-7.12358e-05
-0.000892109
-8.2636e-05
-0.000865465
-9.00196e-05
-0.00080812
-9.23223e-05
-0.000725008
-8.86349e-05
-0.000619786
-7.81862e-05
-0.000495177
-6.03267e-05
-0.000353239
-3.45149e-05
-0.00019556
-3.03117e-07
-2.33975e-05
4.26731e-05
0.000162217
9.47031e-05
0.000360397
0.00015601
0.000570349
0.000226757
0.00079133
0.000307052
0.00102262
0.000396951
0.0012635
0.000496459
0.00151324
0.000605536
0.00177109
0.000724092
0.00203628
0.000851995
0.00230802
0.000989062
0.00258546
0.00113507
0.00286776
0.00128974
0.00315403
0.00145277
0.00344335
0.00162378
0.00373479
0.00180237
0.0040274
0.00198809
0.00432018
0.00218043
0.00461216
0.00237886
0.00490229
0.00258279
0.00518955
0.00279156
0.00547287
0.00300449
0.00575115
0.00322078
0.00602327
0.00343953
0.00628813
0.00365963
0.00654521
0.00679406
0.0038797
-4.53555e-06
-0.00021146
-1.6214e-05
-0.000501589
-3.2813e-05
-0.000690752
-5.22098e-05
-0.000804559
-7.2458e-05
-0.00086108
-9.18214e-05
-0.000872746
-0.000108786
-0.000848501
-0.000122045
-0.000794861
-0.000130479
-0.000716575
-0.000133137
-0.000617128
-0.000129215
-0.000499099
-0.000118034
-0.000364419
-9.90299e-05
-0.000214565
-7.17319e-05
-5.06955e-05
-3.57557e-05
0.00012624
9.20781e-06
0.000315433
6.34001e-05
0.000516156
0.000127003
0.000727727
0.000200142
0.000949481
0.000282893
0.00118075
0.000375281
0.00142085
0.000477283
0.00166909
0.000588833
0.00192474
0.000709817
0.00218703
0.000840077
0.0024552
0.000979413
0.00272842
0.00112758
0.00300586
0.00128428
0.00328665
0.00144918
0.00356989
0.00162189
0.00385468
0.001802
0.00414008
0.00198901
0.00442514
0.00218241
0.0047089
0.00238161
0.00499035
0.00258598
0.00526849
0.00279482
0.00554231
0.00300732
0.00581077
0.00322254
0.0060729
0.00343938
0.00632837
0.006577
0.00365643
-5.5022e-06
-0.000205958
-1.9529e-05
-0.000487563
-3.9499e-05
-0.000670782
-6.30342e-05
-0.000781024
-8.80088e-05
-0.000836106
-0.000112559
-0.000848196
-0.000135078
-0.000825982
-0.00015419
-0.000775749
-0.000168724
-0.00070204
-0.00017769
-0.000608162
-0.00018025
-0.000496539
-0.000175699
-0.00036897
-0.000163448
-0.000226816
-0.000143005
-7.1138e-05
-0.000113967
9.72013e-05
-7.60027e-05
0.000277469
-2.88526e-05
0.000469006
2.76842e-05
0.00067119
9.37536e-05
0.000883411
0.00016945
0.00110505
0.000254817
0.00133549
0.000349856
0.00157405
0.000454517
0.00182007
0.000568712
0.00207284
0.000692305
0.00233161
0.000825119
0.00259561
0.000966932
0.00286405
0.00111748
0.0031361
0.00127644
0.00341093
0.00144347
0.00368765
0.00161816
0.0039654
0.00180004
0.00424326
0.00198861
0.00452033
0.00218329
0.00479566
0.00238346
0.00506833
0.00258839
0.00533738
0.00279726
0.0056019
0.00300912
0.00586104
0.00322282
0.00611467
0.00636287
0.00343696
-6.48837e-06
-0.00019947
-2.28888e-05
-0.000471162
-4.62479e-05
-0.000647423
-7.39249e-05
-0.000753347
-0.000103614
-0.000806417
-0.000133323
-0.000818487
-0.000161354
-0.000797951
-0.000186267
-0.000750837
-0.00020684
-0.000681467
-0.000222045
-0.000592958
-0.000231013
-0.000487571
-0.000233014
-0.000366969
-0.000227435
-0.000232395
-0.000213765
-8.48087e-05
-0.000191577
7.50136e-05
-0.000160524
0.000246416
-0.000120324
0.000428806
-7.07567e-05
0.000621623
-1.16572e-05
0.000824312
5.70894e-05
0.00103631
0.000135549
0.00125703
0.00022374
0.00148586
0.000321639
0.00172217
0.000429178
0.0019653
0.000546245
0.00221454
0.000672688
0.00246917
0.00080831
0.00272843
0.000952871
0.00299154
0.00110609
0.00325771
0.00126762
0.00352612
0.00143708
0.00379593
0.00161404
0.0040663
0.00179799
0.00433637
0.00198838
0.00460528
0.00218456
0.00487215
0.0023858
0.00513614
0.00259126
0.00539644
0.00279996
0.00565234
0.00301071
0.00590392
0.00615148
0.00322209
-7.4869e-06
-0.000191983
-2.62701e-05
-0.000452379
-5.30131e-05
-0.00062068
-8.48087e-05
-0.000721551
-0.000119169
-0.000772057
-0.000153978
-0.000783678
-0.000187448
-0.000764481
-0.000218075
-0.00072021
-0.000244592
-0.00065495
-0.000265934
-0.000571616
-0.000281204
-0.000472301
-0.000289647
-0.000358526
-0.000290629
-0.000231413
-0.000283617
-9.18207e-05
-0.000268167
5.95631e-05
-0.000243909
0.000222158
-0.000210543
0.00039544
-0.000167828
0.000578908
-0.000115578
0.000772062
-5.36588e-05
0.000974389
1.80175e-05
0.00118535
9.94918e-05
0.00140439
0.000190762
0.0016309
0.000291783
0.00186428
0.00040247
0.00210385
0.000522695
0.00234894
0.000652287
0.00259883
0.000791032
0.0028528
0.000938672
0.00311007
0.00109489
0.0033699
0.00125934
0.00363149
0.00143159
0.00389406
0.00161115
0.00415681
0.00179747
0.00441895
0.00198991
0.00467971
0.00218771
0.00493834
0.00239001
0.00519414
0.00259579
0.00544656
0.00280383
0.00569588
0.00594262
0.00301269
-8.49008e-06
-0.000183493
-2.96476e-05
-0.000431221
-5.9745e-05
-0.000590583
-9.56072e-05
-0.000685689
-0.000134566
-0.000733099
-0.000174382
-0.000743862
-0.000213181
-0.000725682
-0.000249401
-0.00068399
-0.000281731
-0.000622621
-0.000309072
-0.000544275
-0.000330501
-0.000450872
-0.000345242
-0.000343785
-0.000352638
-0.000224017
-0.000352138
-9.23206e-05
-0.000343279
5.07032e-05
-0.000325671
0.00020455
-0.000298994
0.000368763
-0.000262987
0.000542901
-0.000217444
0.000726519
-0.000162208
0.000919153
-9.71704e-05
0.00112031
-2.22683e-05
0.00132949
6.25193e-05
0.00154612
0.000157173
0.00176963
0.000261631
0.0019994
0.000375792
0.00223478
0.000499514
0.00247511
0.000632611
0.0027197
0.000774849
0.00296784
0.000925947
0.0032188
0.00108557
0.00347187
0.00125331
0.00372632
0.00142871
0.00398142
0.0016112
0.00423646
0.00180015
0.00449077
0.00199478
0.0047437
0.0021942
0.00499472
0.00239736
0.00524341
0.00260298
0.00549025
0.00573599
0.00280961
-9.48973e-06
-0.000174003
-3.29944e-05
-0.000407717
-6.63913e-05
-0.000557186
-0.000106238
-0.000645842
-0.000149688
-0.000689649
-0.000194383
-0.000699168
-0.000238367
-0.000681698
-0.00028002
-0.000642337
-0.000317994
-0.000584647
-0.000351158
-0.000511111
-0.000378565
-0.000423464
-0.00039942
-0.000322931
-0.000413046
-0.00021039
-0.000418875
-8.6492e-05
-0.000416423
4.82515e-05
-0.000405285
0.000193411
-0.000385118
0.000348596
-0.000355644
0.000513426
-0.000316634
0.000687509
-0.000267911
0.00087043
-0.000209345
0.00106175
-0.00014085
0.00126099
-6.23814e-05
0.00146765
2.60654e-05
0.00168118
0.000124455
0.001901
0.000232714
0.00212652
0.000350727
0.0023571
0.000478337
0.00259209
0.000615342
0.00283083
0.000761489
0.00307265
0.000916468
0.00331689
0.0010799
0.00356288
0.00125135
0.00380997
0.00143025
0.00405755
0.00161597
0.00430505
0.00180772
0.00455195
0.00200457
0.00479787
0.00220543
0.00504255
0.00240899
0.00528669
0.00553125
0.00261374
-1.04773e-05
-0.000163526
-3.62824e-05
-0.000381911
-7.28975e-05
-0.000520571
-0.000116617
-0.000602123
-0.000164417
-0.000641849
-0.000213826
-0.000649759
-0.000262811
-0.000632713
-0.0003097
-0.000595448
-0.000353107
-0.00054124
-0.000391877
-0.000472341
-0.000425041
-0.000390301
-0.000451784
-0.000296188
-0.000471415
-0.000190759
-0.000483346
-7.45604e-05
-0.000487079
5.19844e-05
-0.000482189
0.000188521
-0.000468317
0.000334724
-0.000445162
0.000490272
-0.000412477
0.000654824
-0.000370065
0.000828017
-0.000317773
0.00100946
-0.000255493
0.00119871
-0.000183158
0.00139531
-0.000100737
0.00159876
-8.24124e-06
0.00180851
9.42831e-05
0.002024
0.00020675
0.00224463
0.000329034
0.00246981
0.000460964
0.0026989
0.000602319
0.0029313
0.000752823
0.00316639
0.00091213
0.00340357
0.00107982
0.00364229
0.00125535
0.00388202
0.00143809
0.00412231
0.00162725
0.00436279
0.00182187
0.00460325
0.00202081
0.00484361
0.00222271
0.00508479
0.00532797
0.002426
-1.14437e-05
-0.000152082
-3.94827e-05
-0.000353872
-7.92078e-05
-0.000480846
-0.000126654
-0.000554676
-0.00017863
-0.000589874
-0.000232551
-0.000595837
-0.000286315
-0.000578949
-0.0003382
-0.000543563
-0.00038679
-0.000492651
-0.000430905
-0.000428226
-0.000469558
-0.000351647
-0.000501919
-0.000263827
-0.000527283
-0.000165396
-0.000545047
-5.67967e-05
-0.000554696
6.1633e-05
-0.000555789
0.000189613
-0.000547949
0.000326884
-0.000530858
0.000473181
-0.00050425
0.000628216
-0.000467906
0.000791674
-0.000421655
0.000963204
-0.000365365
0.00114242
-0.000298948
0.0013289
-0.00022235
0.00152216
-0.000135555
0.00172171
-3.8583e-05
0.00192703
6.85083e-05
0.00213754
0.000185624
0.00235269
0.000312628
0.0025719
0.000449335
0.00279459
0.000595506
0.00302022
0.000750835
0.00324824
0.000914929
0.00347819
0.00108729
0.00370965
0.0012673
0.0039423
0.00145415
0.00417594
0.00164689
0.00441051
0.00184431
0.00464619
0.00204501
0.00488409
0.00512566
0.00224732
-1.23797e-05
-0.000139702
-4.25655e-05
-0.000323686
-8.52651e-05
-0.000438146
-0.000136262
-0.000503679
-0.000192202
-0.000533934
-0.000250396
-0.000537643
-0.000308676
-0.000520669
-0.000365277
-0.000486962
-0.000418754
-0.000439175
-0.000467908
-0.000379072
-0.000511738
-0.000307817
-0.0005494
-0.000226165
-0.000580176
-0.000134619
-0.000603451
-3.35215e-05
-0.000618697
7.68782e-05
-0.000625457
0.000196373
-0.000623339
0.000324766
-0.000612007
0.000461849
-0.000591178
0.000607387
-0.000560614
0.00076111
-0.000520125
0.000922716
-0.000469561
0.00109186
-0.000408809
0.00126814
-0.000337796
0.00145115
-0.000256481
0.0016404
-0.00016486
0.0018354
-6.2963e-05
0.00203564
4.91468e-05
0.00224058
0.000171367
0.00244968
0.000303552
0.00266241
0.000445506
0.00287826
0.000596969
0.00309678
0.000757597
0.00331757
0.000926937
0.00354031
0.0011044
0.00376484
0.00128922
0.00399112
0.00148041
0.00421932
0.00167676
0.00444984
0.00187678
0.00468407
0.00492374
0.00207869
-1.32759e-05
-0.000126426
-4.55012e-05
-0.000291461
-9.10124e-05
-0.000392635
-0.000145352
-0.00044934
-0.000205008
-0.000474278