/*--------------------------------*- C++ -*----------------------------------*\
  =========                 |
  \\      /  F ield         | OpenFOAM: The Open Source CFD Toolbox
   \\    /   O peration     | Website:  https://openfoam.org
    \\  /    A nd           | Version:  7
     \\/     M anipulation  |
\*---------------------------------------------------------------------------*/
FoamFile
{
    version     2.0;
    format      ascii;
    class       surfaceScalarField;
    location    "6.2";
    object      phi;
}
// * * * * * * * * * * * * * * * * * * * * * * * * * * * * * * * * * * * * * //

dimensions      [0 3 -1 0 0 0 0];

internalField   nonuniform List<scalar> 
15760
(
1.64521e-05
0.000887615
-0.000904067
6.4997e-05
0.00235102
-0.00239957
0.000142654
0.00359568
-0.00367333
0.000246711
0.00466899
-0.00477305
0.000374655
0.00560606
-0.005734
0.00052409
0.00643277
-0.0065822
0.000692709
0.00716845
-0.00733707
0.000878284
0.00782771
-0.00801329
0.00107866
0.00842171
-0.00862209
0.00129174
0.00895912
-0.0091722
0.00151547
0.00944673
-0.00967046
0.00174787
0.00988992
-0.0101223
0.00198698
0.010293
-0.0105321
0.00223086
0.0106595
-0.0109034
0.00247763
0.0109923
-0.0112391
0.00272547
0.0112937
-0.0115415
0.00297259
0.0115656
-0.0118127
0.00321732
0.0118098
-0.0120545
0.00345804
0.0120275
-0.0122683
0.0122194
0.00369323
-0.0124546
1.71504e-05
0.000870465
6.73289e-05
0.00230085
0.000147942
0.00351506
0.000256446
0.00456048
0.000390395
0.00547211
0.000547422
0.00627574
0.000725232
0.00699064
0.000921601
0.00763134
0.00113436
0.00820895
0.00136141
0.00873208
0.00160066
0.00920748
0.00185006
0.00964051
0.0021076
0.0100355
0.00237127
0.0103959
0.00263907
0.0107245
0.00290905
0.0110237
0.00317928
0.0112954
0.00344794
0.0115412
0.00371325
0.0117622
0.0119591
0.0039735
1.77816e-05
0.000852683
6.96175e-05
0.00224901
0.000153226
0.00343145
0.000266226
0.00444749
0.000406233
0.0053321
0.000570907
0.00611107
0.000757963
0.00680359
0.000965179
0.00742413
0.00119039
0.00798374
0.00143146
0.008491
0.00168631
0.00895263
0.00195284
0.00937398
0.00222899
0.00975934
0.00251265
0.0101122
0.00280175
0.0104354
0.0030942
0.0107312
0.00338793
0.0110016
0.00368093
0.0112482
0.00397123
0.0114719
0.0116735
0.00425691
1.83519e-05
0.000834331
7.18814e-05
0.00219548
0.000158564
0.00334477
0.000276155
0.00432989
0.000422327
0.00518593
0.000594755
0.00593864
0.000791161
0.00660718
0.00100933
0.00720596
0.00124708
0.00774599
0.00150229
0.00823579
0.00177286
0.00868206
0.00205667
0.00909016
0.00235162
0.00946439
0.00265554
0.00980827
0.00296626
0.0101247
0.00328158
0.0104159
0.00359926
0.010684
0.0039171
0.0109303
0.0042329
0.0111561
0.0113619
0.00454446
1.88808e-05
0.00081545
7.41634e-05
0.0021402
0.00016404
0.0032549
0.000286377
0.00420756
0.000438882
0.00503342
0.000619239
0.00575828
0.000825169
0.00640125
0.00105445
0.00697668
0.00130491
0.00749553
0.00157442
0.00796627
0.00186089
0.0083956
0.00216219
0.00878886
0.00247618
0.0091504
0.00280068
0.00948377
0.00313343
0.00979192
0.00347209
0.0100773
0.00381428
0.0103418
0.00415757
0.010587
0.00449952
0.0108142
0.0110238
0.00483758
1.93912e-05
0.000796059
7.65204e-05
0.00208307
0.000169763
0.00316165
0.000297067
0.00408025
0.000456155
0.00487433
0.000644702
0.00556974
0.000860413
0.00618554
0.00110106
0.00673604
0.00136447
0.00723212
0.00164853
0.00768221
0.00195114
0.00809299
0.0022702
0.0084698
0.00260357
0.00881703
0.00294904
0.00913831
0.00330429
0.00943668
0.00366688
0.00971467
0.00403427
0.00997438
0.0044038
0.0102175
0.00477273
0.0104453
0.0106584
0.00513813
1.9913e-05
0.000776146
7.90272e-05
0.00202396
0.000175873
0.00306481
0.000308446
0.00394768
0.000474459
0.00470832
0.000671556
0.00537264
0.000897415
0.00595968
0.00114978
0.00648367
0.00142649
0.00695541
0.00172543
0.00738327
0.00204453
0.00777389
0.00238172
0.00813261
0.00273488
0.00846387
0.00310179
0.00877139
0.00348012
0.00905835
0.00386735
0.00932744
0.00426078
0.00958095
0.00465753
0.00982073
0.00505452
0.0100483
0.0102646
0.00544839
2.04779e-05
0.000755668
8.177e-05
0.00196266
0.00018253
0.00296405
0.000320767
0.00380944
0.000494153
0.00453493
0.000700281
0.00516651
0.000936778
0.00572319
0.00120136
0.00621909
0.00149184
0.00666493
0.00180613
0.00706899
0.00214217
0.00743784
0.00249794
0.00777684
0.00287138
0.00809044
0.0032603
0.00838246
0.0036624
0.00865626
0.0040751
0.00891474
0.00449558
0.00916046
0.00492075
0.00939556
0.00534718
0.00962186
0.00984074
0.005771
2.11197e-05
0.000734548
8.48435e-05
0.00189894
0.000189913
0.00285898
0.000334312
0.00366505
0.000515642
0.0043536
0.000731414
0.00495074
0.000979185
0.00547542
0.00125662
0.00594166
0.0015615
0.00636004
0.00189173
0.00673876
0.00224531
0.00708427
0.00262025
0.0074019
0.00301457
0.00769612
0.00342617
0.00797086
0.0038528
0.00822963
0.00429192
0.00847563
0.00474064
0.00871175
0.00519566
0.00894054
0.00565319
0.00916432
0.0093851
0.00610883
2.1873e-05
0.000712675
8.83491e-05
0.00183246
0.000198214
0.00274911
0.000349386
0.00351387
0.000539362
0.00416363
0.000765542
0.00472456
0.00102538
0.00521557
0.00131648
0.00565056
0.00163656
0.00603996
0.00198352
0.00639179
0.00235538
0.00671242
0.00275021
0.00700706
0.00316613
0.0072802
0.00360117
0.00753581
0.00405321
0.00777759
0.00451979
0.00800905
0.00499803
0.0082335
0.00548453
0.00845404
0.00597517
0.00867368
0.00889535
0.00646493
2.27731e-05
0.000689902
9.23917e-05
0.00176285
0.000207633
0.00263387
0.000366309
0.0033552
0.000565773
0.00396416
0.000803283
0.00448705
0.00107617
0.00494268
0.00138193
0.00534481
0.00171822
0.00570367
0.00208289
0.00602712
0.00247396
0.00632135
0.00288958
0.00659145
0.00332795
0.00684182
0.00378729
0.00707648
0.00426565
0.00729924
0.00476078
0.00751391
0.00526994
0.00772434
0.00578971
0.00793427
0.00631571
0.00814768
0.00836874
0.00684231
2.38552e-05
0.000666047
9.70774e-05
0.00168962
0.000218375
0.00251257
0.000385404
0.00318817
0.000595341
0.00375423
0.000845271
0.00423712
0.00113237
0.00465558
0.00145401
0.00502317
0.00180773
0.00534995
0.00219133
0.00564352
0.00260279
0.00590989
0.00304028
0.00615395
0.00350213
0.00637998
0.00398672
0.00659189
0.00449236
0.00679359
0.00501713
0.00698914
0.00555859
0.00718288
0.00611346
0.0073794
0.00667729
0.00758385
0.00780219
0.00724385
2.51535e-05
0.000640893
0.00010251
0.00161227
0.000230638
0.00238444
0.000406989
0.00301182
0.000628525
0.00353269
0.000892132
0.00397351
0.00119481
0.0043529
0.00153375
0.00468423
0.0019064
0.00497731
0.0023104
0.00523952
0.00274369
0.0054766
0.00320442
0.00569322
0.00369097
0.00589342
0.0042019
0.00608096
0.00473584
0.00625965
0.00529128
0.0064337
0.00586628
0.00660788
0.00645802
0.00678765
0.00706219
0.00697968
0.00719229
0.00767209
2.67008e-05
0.000614192
0.000108787
0.00153018
0.00024461
0.00224862
0.000431362
0.00282507
0.000665758
0.00329829
0.000944458
0.00369481
0.00126426
0.0040331
0.00162218
0.00432631
0.00201547
0.00458401
0.00244167
0.00481332
0.00289855
0.00501972
0.0033842
0.00520758
0.00389699
0.00538064
0.00443558
0.00554236
0.00499891
0.00569633
0.00558596
0.00584665
0.00619552
0.00599833
0.00682558
0.00615759
0.00747244
0.00633282
0.00653552
0.00812922
2.85268e-05
0.000585665
0.000115998
0.00144271
0.000260458
0.00210416
0.000458788
0.00262673
0.000707422
0.00304966
0.00100277
0.00339946
0.00134142
0.00369445
0.00172019
0.00394754
0.00213615
0.00416805
0.00258663
0.00436284
0.00306924
0.0045371
0.00358191
0.00469491
0.00412288
0.00483966
0.00469083
0.00497442
0.00528485
0.00510231
0.00590445
0.00522705
0.00654927
0.0053535
0.0072186
0.00548827
0.00791001
0.0056414
0.00582849
0.00861704
3.06576e-05
0.000555008
0.000124219
0.00134915
0.000278323
0.00195006
0.000489487
0.00241557
0.000753831
0.00278532
0.00106751
0.00308579
0.00142687
0.00333508
0.00182855
0.00354587
0.00226941
0.00372719
0.00274658
0.00388566
0.00325748
0.00402621
0.00379977
0.00415262
0.00437147
0.00426796
0.00497107
0.00437482
0.00559763
0.00447575
0.00625094
0.00457374
0.00693154
0.0046729
0.00764037
0.00477944
0.00837733
0.00490443
0.00506839
0.00913743
3.31146e-05
0.000521893
0.000133508
0.00124875
0.000298311
0.00178526
0.000523616
0.00219027
0.000805202
0.00250373
0.00113895
0.00275204
0.001521
0.00295303
0.00194777
0.0031191
0.00241596
0.003259
0.00292252
0.0033791
0.00346463
0.0034841
0.0040397
0.00357755
0.00464544
0.00366222
0.00527993
0.00374032
0.0059419
0.00381379
0.006631
0.00388464
0.00734825
0.00395565
0.00809627
0.00403142
0.00887845
0.00412226
0.00425357
0.00969326
3.59135e-05
0.000485979
0.000143906
0.00114076
0.000320488
0.00160867
0.000561263
0.00194949
0.000861644
0.00220335
0.00121723
0.00239645
0.00162395
0.00254632
0.00207805
0.002665
0.00257609
0.00276096
0.00311488
0.00284031
0.00369145
0.00290753
0.00430301
0.002966
0.00494693
0.0030183
0.00562086
0.00306639
0.00632286
0.00311178
0.00705185
0.00315565
0.00780832
0.00319917
0.00859556
0.00324419
0.00942096
0.00329685
0.00338244
0.0102921
3.90643e-05
0.000446915
0.000155432
0.00102439
0.000344871
0.00141924
0.000602434
0.00169193
0.000923134
0.00188265
0.00130229
0.0020173
0.00173561
0.002113
0.00221921
0.00218139
0.00274957
0.0022306
0.00332344
0.00226644
0.00393781
0.00229316
0.00458985
0.00231396
0.00527686
0.00233129
0.00599623
0.00234702
0.00674548
0.00236253
0.00752245
0.00237868
0.00832592
0.00239571
0.00915684
0.00241327
0.0100234
0.00243027
0.0024484
0.0109575
4.25702e-05
0.000404345
0.00016808
0.000898884
0.000371429
0.00121589
0.000647047
0.00141631
0.000989511
0.00154019
0.00139384
0.00161297
0.00185555
0.00165128
0.00237064
0.0016663
0.00293555
0.0016657
0.00354706
0.00165493
0.00420229
0.00163793
0.00489865
0.0016176
0.00563379
0.00159615
0.0064056
0.00157521
0.00721222
0.00155592
0.00805209
0.00153881
0.00892421
0.00152359
0.0098271
0.00151038
0.0107578
0.00149953
0.0117404
0.00146588
0.00399061
0.0445588
-0.0448562
0.0041983
0.0463865
-0.0465942
0.0042889
0.047697
-0.0477876
0.00428081
0.0487166
-0.0487085
0.00418312
0.0495307
-0.049433
0.00401304
0.0502525
-0.0500824
0.00378607
0.0509538
-0.0507268
0.00351702
0.0516839
-0.0514148
0.00321851
0.0524656
-0.052167
0.00290141
0.0533033
-0.0529862
0.00257476
0.0541869
-0.0538603
0.00224618
0.0550972
-0.0547686
0.00192191
0.0560085
-0.0556843
0.0016069
0.0568923
-0.0565773
0.00130472
0.0577186
-0.0574164
0.0010174
0.0584582
-0.0581709
0.000745364
0.0590844
-0.0588123
0.000487316
0.0595738
-0.0593158
0.000240305
0.0599092
-0.0596621
0.0600762
-0.0598359
0.00432594
0.0442064
0.00458086
0.0461315
0.00471008
0.0475678
0.00473172
0.0486949
0.00465447
0.0496079
0.00449558
0.0504114
0.00427106
0.0511783
0.00399639
0.0519586
0.003685
0.0527769
0.00334849
0.0536398
0.00299652
0.0545389
0.00263722
0.0554565
0.00227723
0.0563685
0.00192181
0.0572477
0.00157487
0.0580655
0.00123884
0.0587942
0.000914676
0.0594085
0.000601752
0.0598868
0.000297986
0.0602129
0.0603742
0.00466136
0.043802
0.00496248
0.0458304
0.00512999
0.0474002
0.00518173
0.0486432
0.00512565
0.049664
0.00497884
0.0505582
0.00475757
0.0513996
0.00447789
0.0522382
0.00415398
0.0531009
0.00379814
0.0539957
0.00342072
0.0549163
0.00303042
0.0558468
0.00263429
0.0567646
0.00223804
0.057644
0.00184595
0.0584576
0.00146089
0.0591793
0.00108435
0.0597851
0.000716394
0.0602547
0.000355762
0.0605736
0.06073
0.00499716
0.0433493
0.00534294
0.0454846
0.00554799
0.0471952
0.00562988
0.0485613
0.00559554
0.0496983
0.0054616
0.0506921
0.00524442
0.0516168
0.00496044
0.0525222
0.0046245
0.0534368
0.00424959
0.0543706
0.00384677
0.0553191
0.0034253
0.0562683
0.00299281
0.0571971
0.00255544
0.0580813
0.0021179
0.0588952
0.00168355
0.0596136
0.00125444
0.0602142
0.000831292
0.0606779
0.00041367
0.0609912
0.0611437
0.00533405
0.0428528
0.00572231
0.0450964
0.0059637
0.0469538
0.00607542
0.0484496
0.00606314
0.0497106
0.00594276
0.0508125
0.00573047
0.051829
0.00544296
0.0528097
0.00509559
0.0537842
0.00470202
0.0547641
0.00427398
0.0557472
0.00382139
0.0567209
0.00335244
0.0576661
0.00287377
0.05856
0.0023906
0.0593784
0.00190678
0.0600975
0.00142494
0.060696
0.000946472
0.0611563
0.000471728
0.0614659
0.0616154
0.0056732
0.0423177
0.00610104
0.0446685
0.00637705
0.0466778
0.00651785
0.0483088
0.00652765
0.0497008
0.00642132
0.0509188
0.00621466
0.0520357
0.00592441
0.0531
0.00556631
0.0541423
0.00515461
0.0551758
0.00470172
0.0562001
0.00421818
0.0572044
0.00371282
0.0581715
0.00319282
0.05908
0.00266392
0.0599072
0.00213054
0.0606308
0.00159585
0.0612307
0.00106195
0.0616902
0.000529955
0.0619979
0.0621453
0.00601623
0.0417499
0.00647998
0.0442048
0.00678832
0.0463695
0.00695693
0.0481402
0.00698845
0.0496693
0.00689641
0.0510109
0.00669602
0.0522361
0.00640379
0.0533922
0.00603573
0.0545103
0.00560656
0.055605
0.0051293
0.0566773
0.00461515
0.0577185
0.00407356
0.0587131
0.00351232
0.0596412
0.00293773
0.0604818
0.00235475
0.0612138
0.00176717
0.0618183
0.00117774
0.0622796
0.00058836
0.0625873
0.0627337
0.00636521
0.0411557
0.00686034
0.0437097
0.00719811
0.0460317
0.00739268
0.0479456
0.00744511
0.0496169
0.00736731
0.0510887
0.00717363
0.0524298
0.00688016
0.0536857
0.00650294
0.0548876
0.00605704
0.0560509
0.00555603
0.0571784
0.00501174
0.0582628
0.00443426
0.0592905
0.00383199
0.0602435
0.00321183
0.061102
0.00257931
0.0618463
0.00193883
0.0624588
0.00129382
0.0629247
0.000646945
0.0632342
0.0633806
0.00672267
0.0405419
0.00724372
0.0431886
0.00760736
0.045668
0.0078254
0.0477276
0.00789742
0.0495448
0.00783344
0.0511526
0.00764669
0.0526165
0.0073526
0.0539798
0.00696702
0.0552732
0.00650521
0.0565127
0.00598119
0.0577024
0.00540736
0.0588367
0.00479446
0.0599034
0.00415151
0.0608865
0.003486
0.0617675
0.00280409
0.0625283
0.00211078
0.0631521
0.00141017
0.0636253
0.000705703
0.0639387
0.0640863
0.00709146
0.0399153
0.00763207
0.042648
0.00801733
0.0452828
0.00825566
0.0474892
0.00834537
0.0494551
0.00829435
0.0512037
0.00811449
0.0527964
0.00782026
0.054274
0.00742708
0.0556663
0.00695022
0.0569896
0.00640401
0.0582486
0.00580139
0.0594393
0.00515366
0.0605512
0.00447049
0.0615696
0.00375999
0.062478
0.00302892
0.0632593
0.00228292
0.0638981
0.00152675
0.0643814
0.000764616
0.0647008
0.064851
0.00747474
0.0392829
0.00802767
0.0420951
0.00842957
0.0448809
0.00868425
0.0472346
0.00878915
0.0493502
0.00874975
0.0512431
0.00857639
0.0529697
0.00828231
0.0545681
0.00788223
0.0560664
0.0073912
0.0574806
0.00682372
0.0588161
0.00619313
0.0600699
0.00551131
0.061233
0.00478852
0.0622924
0.0040335
0.063233
0.0032536
0.0640392
0.00245511
0.0646966
0.00164347
0.0651931
0.000823659
0.0655206
0.0656746
0.00787586
0.0386509
0.00843305
0.0415379
0.00884583
0.0444681
0.0091122
0.0469682
0.00922907
0.0492334
0.00919943
0.0512727
0.00903183
0.0531373
0.00873796
0.054862
0.00833157
0.0564728
0.00782725
0.0579849
0.00723946
0.0594039
0.00658186
0.0607275
0.00586679
0.0619481
0.00510511
0.0630541
0.00430614
0.064032
0.00347787
0.0648675
0.0026272
0.0655473
0.00176026
0.06606
0.000882789
0.0663981
0.0665574
0.0082982
0.0380248
0.00885097
0.0409851
0.00926806
0.044051
0.00954064
0.0466956
0.00966558
0.0491084
0.00964329
0.051295
0.0094803
0.0533003
0.00918644
0.0551558
0.0087742
0.056885
0.00825742
0.0585017
0.00765034
0.0600109
0.00696675
0.0614111
0.00621941
0.0626954
0.00541968
0.0638538
0.00457749
0.0648742
0.00370141
0.0657436
0.00279897
0.0664497
0.00187697
0.066982
0.000941949
0.0673331
0.0674994
0.00874506
0.0374089
0.0092843
0.0404459
0.00969825
0.0436371
0.00997077
0.0464231
0.0100992
0.04898
0.0100813
0.0513129
0.0099213
0.0534603
0.00962699
0.0554501
0.00920919
0.0573029
0.00868072
0.0590302
0.00805537
0.0606363
0.00734691
0.0621195
0.00656837
0.063474
0.00573158
0.0646906
0.00484701
0.0657588
0.00392382
0.0666668
0.00297015
0.0674034
0.00199346
0.0679587
0.00100106
0.0683255
0.0685004
0.00921958
0.0368064
0.00973601
0.0399294
0.0101384
0.0432347
0.0104038
0.0461577
0.0105303
0.0488535
0.0105133
0.0513299
0.0103544
0.0536192
0.0100588
0.0557457
0.00963557
0.0577261
0.0090961
0.0595696
0.0084535
0.0612789
0.00772132
0.0628517
0.00691276
0.0642825
0.00604002
0.0655634
0.00511407
0.0666847
0.00414462
0.0676362
0.00314039
0.0684076
0.00210949
0.0689896
0.00106003
0.0693749
0.0695605
0.00972457
0.0362193
0.0102091
0.0394449
0.0105905
0.0428533
0.0108408
0.0459074
0.0109595
0.0487347
0.0109394
0.0513501
0.0107791
0.0537795
0.0104812
0.0560436
0.0100523
0.058155
0.00950242
0.0601195
0.00884354
0.0619378
0.00808884
0.0636064
0.00725152
0.0651198
0.00634408
0.0664708
0.00537789
0.0676509
0.00436318
0.0686509
0.00330923
0.0694615
0.00222478
0.0700741
0.00111871
0.070481
0.0706792
0.0102614
0.0356512
0.0107052
0.0390011
0.0110553
0.0425031
0.0112822
0.0456805
0.0113866
0.0486303
0.011359
0.0513778
0.0111946
0.0539439
0.010893
0.0563452
0.0104582
0.0585897
0.0098983
0.0606795
0.00922406
0.062612
0.00844806
0.0643824
0.00758335
0.0659845
0.00664257
0.0674116
0.00563747
0.068656
0.00457871
0.0697097
0.00347609
0.0705642
0.00233896
0.0712112
0.00117694
0.071643
0.0718561
0.0108289
0.0351143
0.0112233
0.0386067
0.0115316
0.0421948
0.0117263
0.0454859
0.0118101
0.0485465
0.0117705
0.0514173
0.0115992
0.0541152
0.0112925
0.0566519
0.0108514
0.0590308
0.0102819
0.061249
0.00959323
0.0633007
0.00879722
0.0651784
0.00790659
0.0668752
0.00693403
0.0683841
0.00589155
0.0696985
0.00479018
0.0708111
0.0036402
0.0717141
0.00245152
0.0723999
0.00123446
0.0728601
0.0730906
0.0114368
0.034635
0.0117683
0.0382752
0.0120215
0.0419416
0.012174
0.0453334
0.0122303
0.0484902
0.0121743
0.0514734
0.0119932
0.0542962
0.0116795
0.0569656
0.0112314
0.0594789
0.0106523
0.0618282
0.00994989
0.064003
0.00913496
0.0659933
0.00821979
0.0677904
0.007217
0.0693869
0.00613876
0.0707767
0.00499641
0.0719534
0.00380064
0.0729099
0.00256184
0.0736387
0.001291
0.0741309
0.0743816
0.0121202
0.0342551
0.0123679
0.0380275
0.01254
0.0417695
0.012637
0.0452365
0.0126565
0.0484706
0.0125775
0.0515524
0.0123817
0.054492
0.0120576
0.0572897
0.0116
0.0599365
0.0110099
0.0624184
0.0102931
0.0647198
0.00945933
0.0668271
0.00852031
0.0687294
0.00748848
0.0704188
0.00637606
0.0718891
0.00519461
0.0731349
0.00395509
0.0741494
0.00266833
0.0749254
0.00134575
0.0754535
0.0757273
0.0301919
0.038473
-0.0344097
0.0275937
0.0406257
0.0259983
0.0433649
0.0249658
0.046269
0.0242085
0.0492279
0.0235433
0.0522176
0.0228349
0.0552005
0.0219942
0.0581303
0.0209706
0.0609601
0.0197441
0.0636449
0.0183172
0.0661467
0.0167069
0.0684373
0.0149377
0.0704986
0.0130356
0.0723209
0.0110247
0.0739
0.00892595
0.0752337
0.00675691
0.0763185
0.00453423
0.0771481
0.00227487
0.0777129
0.0780022
0.0407549
0.0433099
-0.0455919
0.0368044
0.0445763
0.0338277
0.0463415
0.0315611
0.0485356
0.0297597
0.0510293
0.0282293
0.053748
0.0268147
0.056615
0.0253996
0.0595454
0.0239059
0.0624538
0.0222884
0.0652623
0.0205286
0.0679066
0.0186262
0.0703398
0.0165919
0.0725328
0.0144418
0.0744709
0.0121928
0.076149
0.0098605
0.077566
0.00745929
0.0787197
0.0050039
0.0796035
0.00251089
0.0802059
0.0805131
0.0502808
0.0484626
-0.0554335
0.0456866
0.0491706
0.0417822
0.0502459
0.0385137
0.0518042
0.0357516
0.0537914
0.0333553
0.0561443
0.0311893
0.058781
0.0291369
0.0615978
0.0271079
0.0644829
0.02504
0.0673302
0.0228964
0.0700502
0.02066
0.0725762
0.0183278
0.0748651
0.0159044
0.0768943
0.0133982
0.0786552
0.0108186
0.0801455
0.00817573
0.0813626
0.00548121
0.082298
0.00274987
0.0829372
0.0832629
0.058499
0.0534839
-0.0635204
0.0536989
0.0539707
0.0492898
0.0546551
0.0453327
0.0557612
0.0418073
0.0573168
0.03865
0.0593016
0.0357738
0.0616571
0.0330862
0.0642854
0.0305031
0.067066
0.027957
0.0698763
0.0253998
0.0726073
0.0228017
0.0751743
0.0201469
0.0775199
0.0174295
0.0796116
0.0146494
0.0814353
0.0118091
0.0829858
0.00891383
0.0842579
0.00597166
0.0852402
0.00299491
0.085914
0.0862579
0.0652696
0.058203
-0.0699888
0.0605508
0.0586895
0.055966
0.0592398
0.0516246
0.0601026
0.0475781
0.0613632
0.0438319
0.0630479
0.0403549
0.0651341
0.037093
0.0675472
0.0339835
0.0701756
0.0309659
0.0728938
0.0279904
0.0755828
0.02502
0.0781448
0.02203
0.0805098
0.019006
0.0826356
0.0159401
0.0845012
0.0128288
0.0860971
0.00967231
0.0874144
0.00647487
0.0884376
0.00324597
0.0891429
0.0895038
0.0706972
0.0625474
-0.0750415
0.0662042
0.0631825
0.0616585
0.0637856
0.0571728
0.0645883
0.0528321
0.065704
0.0486869
0.0671931
0.0447532
0.0690678
0.0410175
0.071283
0.0374453
0.0737478
0.0339932
0.0763459
0.0306176
0.0789584
0.0272813
0.0814812
0.0239556
0.0838355
0.0206204
0.0859708
0.0172625
0.0878592
0.0138733
0.0894863
0.0104488
0.090839
0.00698966
0.0918967
0.00350264
0.0926299
0.0930065
0.0749812
0.0665027
-0.0789365
0.0707757
0.067388
0.06639
0.0681713
0.0619234
0.0690549
0.0574673
0.07016
0.0530943
0.0715661
0.0488516
0.0733105
0.0447582
0.0753764
0.0408086
0.0776974
0.0369797
0.0801748
0.0332404
0.0826977
0.0295589
0.0851627
0.0259073
0.0874871
0.0222639
0.0896142
0.0186124
0.0915107
0.0149412
0.0931574
0.0112432
0.0945369
0.0075165
0.0956235
0.0037653
0.0963811
0.0967718
0.0783572
0.0700808
-0.0819353
0.0744544
0.0712908
0.0702859
0.0723398
0.0659354
0.0734054
0.0614881
0.0746073
0.0570217
0.0760325
0.052599
0.0777333
0.0482607
0.0797147
0.0440241
0.081934
0.0398862
0.0843126
0.0358306
0.0867533
0.0318346
0.0891588
0.0278751
0.0914466
0.0239319
0.0935573
0.019989
0.0954537
0.0160337
0.0971127
0.0120577
0.098513
0.00805724
0.0996239
0.00403504
0.100403
0.100807
0.0810494
0.0732941
-0.0842626
0.0774471
0.074893
0.073517
0.0762699
0.0693328
0.0775896
0.0649708
0.0789693
0.0605052
0.0804981
0.0560028
0.0822357
0.0515154
0.084202
0.0470756
0.0863738
0.0426964
0.0886918
0.0383753
0.0910744
0.0341002
0.0934339
0.0298552
0.0956916
0.0256246
0.0977879
0.0213947
0.0996835
0.0171545
0.101353
0.0128958
0.102772
0.00861479
0.103905
0.00431346
0.104705
0.10512
0.0832362
0.0761339
-0.086076
0.079938
0.0781912
0.0762558
0.0799521
0.0722627
0.0815826
0.0680293
0.0832027
0.0636245
0.0849029
0.0591131
0.0867471
0.0545503
0.0887649
0.0499765
0.0909476
0.0454158
0.0932526
0.0408769
0.0956133
0.036358
0.0979528
0.0318511
0.100199
0.0273465
0.102292
0.0228352
0.104195
0.0183093
0.105879
0.0137627
0.107318
0.00919297
0.108475
0.00460259
0.109295
0.109723
0.0850357
0.0785588
-0.0874606
0.082067
0.08116
0.0786496
0.0833695
0.0748654
0.0853668
0.0707864
0.0872818
0.0664789
0.0892103
0.0620047
0.0912213
0.0574182
0.0933514
0.0527627
0.095603
0.0480685
0.0979468
0.0433523
0.100329
0.0386206
0.102685
0.0338732
0.104946
0.0291073
0.107058
0.0243193
0.108983
0.0195059
0.110692
0.0146649
0.112159
0.0097964
0.113343
0.00490485
0.114187
0.114628
0.0864913
0.0804821
-0.0884146
0.0839132
0.0837381
0.080801
0.0864817
0.0772536
0.0889143
0.0733526
0.0911827
0.069168
0.0933949
0.0647613
0.095628
0.0601857
0.097927
0.0554851
0.100304
0.0506924
0.102739
0.0458297
0.105192
0.0409097
0.107605
0.035939
0.109917
0.0309211
0.112076
0.0258587
0.114045
0.0207541
0.115797
0.01561
0.117303
0.0104304
0.118523
0.00522299
0.119394
0.119851
0.0875883
0.081781
-0.0888872
0.0855003
0.0858261
0.0827651
0.0892169
0.0795037
0.0921757
0.0758149
0.0948715
0.0717795
0.0974303
0.0674639
0.0999436
0.0629232
0.102468
0.0582018
0.105025
0.0533344
0.107607
0.0483463
0.11018
0.0432547
0.112696
0.0380717
0.1151
0.0328068
0.117341
0.0274688
0.119383
0.0220662
0.121199
0.0166073
0.122762
0.0111013
0.124029
0.00556014
0.124935
0.125411
0.0882165
0.0822728
-0.0887084
0.0867713
0.0872713
0.0845328
0.0914554
0.0816437
0.0950648
0.0782261
0.0982892
0.0743793
0.101277
0.0701824
0.104141
0.0656974
0.106953
0.0609728
0.10975
0.056046
0.112534
0.0509449
0.115281
0.0456906
0.11795
0.0402998
0.12049
0.0347873
0.122854
0.0291679
0.125003
0.0234563
0.126911
0.0176673
0.128551
0.011816
0.12988
0.00591995
0.130831
0.131331
0.0882649
0.0817823
-0.0877744
0.0876438
0.0878924
0.086057
0.0930423
0.083663
0.0974587
0.0806065
0.101346
0.0770099
0.104874
0.0729717
0.108179
0.0685682
0.111356
0.0638571
0.114461
0.0588816
0.117509
0.053674
0.120489
0.0482594
0.123365
0.0426588
0.126091
0.0368922
0.12862
0.03098
0.130915
0.0249434
0.132948
0.018804
0.134691
0.0125836
0.1361
0.00630624
0.137109
0.137637
0.0874179
0.0800087
-0.0856443
0.0878835
0.0874268
0.0871835
0.0937422
0.0854757
0.0991666
0.0829237
0.103898
0.0796777
0.10812
0.075864
0.111992
0.0715817
0.115639
0.0669059
0.119136
0.0618918
0.122523
0.0565799
0.125801
0.0510015
0.128943
0.0451831
0.13191
0.0391497
0.134654
0.0329279
0.137137
0.0265455
0.13933
0.020031
0.141205
0.013414
0.142717
0.00672614
0.143796
0.144363
0.0856359
0.0768641
-0.0824913
0.0873957
0.085667
0.0878007
0.0933373
0.0869885
0.0999787
0.0851214
0.105765
0.0823661
0.110875
0.0788762
0.115482
0.0747795
0.119735
0.070176
0.12374
0.06514
0.127559
0.0597262
0.131215
0.0539758
0.134694
0.0479236
0.137962
0.0416017
0.140975
0.0350439
0.143695
0.0282853
0.146089
0.0213626
0.148128
0.0143129
0.149767
0.00717501
0.150934
0.151538
0.0821849
0.0717361
-0.0770568
0.0856398
0.082212
0.087543
0.0914341
0.0879603
0.0995613
0.0870457
0.106679
0.0849854
0.112935
0.0819647
0.118503
0.0781497
0.12355
0.0736775
0.128212
0.0686535
0.132583
0.0631548
0.136713
0.057238
0.140611
0.0509475
0.144252
0.0443235
0.147599
0.0374063
0.150612
0.0302388
0.153256
0.0228665
0.1555
0.0153362
0.157297
0.00770105
0.15857
0.159239
0.0782181
0.0656398
-0.0721218
0.0831468
0.0772834
0.0865375
0.0880434
0.088348
0.0977509
0.0886356
0.106392
0.0875178
0.114053
0.0851618
0.120859
0.0817508
0.126961
0.0774598
0.132503
0.0724393
0.137604
0.0668094
0.142343
0.0606621
0.146758
0.0540677
0.150847
0.0470842
0.154583
0.0397644
0.157932
0.0321604
0.16086
0.024325
0.163336
0.0163113
0.165311
0.00816053
0.16672
0.1674
0.0721799
-0.0634094
0.0790791
0.0842302
0.0876667
0.0894328
0.0896201
0.0883542
0.0857875
0.0820827
0.0773976
0.0718745
0.0656342
0.0587765
0.0513859
0.0435377
0.0353047
0.0267597
0.0179794
0.00905464
0.0163918
-0.0376079
-0.0131936
0.0192081
-0.0484082
0.021512
-0.0577374
0.0233294
-0.0653378
0.0247061
-0.0713655
0.025706
-0.0760413
0.0263983
-0.0796289
0.0268449
-0.0823819
0.0270895
-0.0845073
0.0271548
-0.0861413
0.0270413
-0.0873472
0.0267319
-0.0881052
0.0261922
-0.0883474
0.0253841
-0.0879003
0.024254
-0.0866443
0.022776
-0.0841662
0.0208777
-0.080593
0.0186085
-0.0747877
0.0157696
-0.0692829
-0.0606102
0.0169406
-0.040631
-0.0139176
0.0196454
-0.051113
0.0218457
-0.0599376
0.0235684
-0.0670605
0.0248589
-0.072656
0.0257835
-0.076966
0.0264106
-0.080256
0.0267985
-0.0827698
0.0269867
-0.0846954
0.0269931
-0.0861477
0.0268141
-0.0871682
0.0264298
-0.0877209
0.0258041
-0.0877217
0.0249006
-0.0869968
0.0236662
-0.0854099
0.0220857
-0.0825857
0.0200768
-0.0785841
0.0177299
-0.0724408
0.0147886
-0.0663416
-0.0577663
0.0174953
-0.0435809
-0.0145453
0.0200955
-0.0537132
0.0221858
-0.062028
0.0238052
-0.0686798
0.0250021
-0.0738529
0.0258452
-0.0778091
0.0264018
-0.0808126
0.0267266
-0.0830945
0.026854
-0.0848229
0.026797
-0.0860906
0.0265478
-0.086919
0.0260836
-0.0872567
0.0253675
-0.0870057
0.0243643
-0.0859935
0.0230253
-0.084071
0.02134
-0.0809004
0.0192355
-0.0764796
0.0168011
-0.0700064
0.0138183
-0.0633588
-0.0548225
0.0179998
-0.0464709
-0.0151098
0.0205034
-0.0562169
0.0224862
-0.0640107
0.024002
-0.0701956
0.0251049
-0.0749558
0.025866
-0.0785702
0.0263514
-0.081298
0.0266119
-0.083355
0.0266767
-0.0848877
0.0265539
-0.0859678
0.0262317
-0.0865967
0.0256846
-0.0867096
0.0248759
-0.086197
0.0237718
-0.0848895
0.0223294
-0.0826286
0.0205431
-0.0791141
0.0183515
-0.074288
0.0158418
-0.0674968
0.0128214
-0.0603384
-0.0517901
0.0184575
-0.0492997
-0.0156287
0.0208606
-0.05862
0.0227348
-0.065885
0.0241458
-0.0716066
0.0251545
-0.0759645
0.025834
-0.0792498
0.0262486
-0.0817126
0.0264446
-0.083551
0.0264462
-0.0848893
0.0262562
-0.0857778
0.0258591
-0.0861997
0.0252276
-0.0860781
0.0243254
-0.0852948
0.0231212
-0.0836852
0.0215783
-0.0810857
0.0196966
-0.0772324
0.0174275
-0.0720189
0.0148553
-0.0649246
0.0118038
-0.0572868
-0.0486765
0.018866
-0.0520599
-0.0161058
0.0211594
-0.0609134
0.0229215
-0.067647
0.024226
-0.0729112
0.0251406
-0.0768791
0.0257397
-0.0798488
0.0260847
-0.0820577
0.026217
-0.0836833
0.0261553
-0.0848276
0.0258975
-0.08552
0.0254248
-0.085727
0.0247083
-0.0853616
0.0237131
-0.0842996
0.0224107
-0.0823828
0.0207719
-0.0794468
0.018802
-0.0752625
0.016466
-0.069683
0.0138452
-0.0623038
0.0107699
-0.0542116
-0.0454882
0.0192158
-0.0547387
-0.0165371
0.0213901
-0.0630876
0.0230362
-0.0692932
0.0242335
-0.0741084
0.0250555
-0.0777011
0.0255763
-0.0803696
0.0258539
-0.0823353
0.025924
-0.0837534
0.0257996
-0.0847032
0.0254739
-0.0851944
0.0249254
-0.0851784
0.0241242
-0.0845605
0.0230374
-0.0832128
0.0216402
-0.0809856
0.0199108
-0.0777175
0.017861
-0.0732126
0.0154692
-0.0672912
0.0128147
-0.0596493
0.00972429
-0.0511211
-0.0422314
0.0194968
-0.0573206
-0.0169149
0.0215434
-0.0651343
0.023071
-0.0708207
0.0241616
-0.075199
0.0248936
-0.0784331
0.0253394
-0.0808155
0.0255523
-0.0825482
0.0255621
-0.0837631
0.0253759
-0.084517
0.0249828
-0.0848013
0.0243588
-0.0845544
0.0234739
-0.0836756
0.0222978
-0.0820367
0.0208101
-0.0794979
0.0189967
-0.0759041
0.0168757
-0.0710916
0.0144396
-0.0648551
0.0117668
-0.0569766
0.00867164
-0.048026
-0.0389122
0.0196994
-0.05979
-0.01723
0.021612
-0.0670468
0.0230196
-0.0722283
0.0240056
-0.0761851
0.0246514
-0.0790788
0.0250262
-0.0811903
0.0251777
-0.0826997
0.0251293
-0.0837147
0.0248826
-0.0842704
0.0244228
-0.0843414
0.0237241
-0.0838556
0.0227572
-0.0827087
0.0214949
-0.0807745
0.0199216
-0.0779245
0.0180313
-0.0740138
0.0158486
-0.0689089
0.0133797
-0.0623862
0.0107042
-0.054301
0.00761704
-0.0449389
-0.0355379
0.0198152
-0.0621329
-0.0174723
0.0215895
-0.0688211
0.0228776
-0.0735164
0.0237626
-0.0770701
0.0243269
-0.0796431
0.0246352
-0.0814986
0.0247288
-0.0827932
0.0246245
-0.0836104
0.0243187
-0.0839646
0.0237931
-0.0838159
0.023021
-0.0830835
0.0219745
-0.0816621
0.0206299
-0.07943
0.0189769
-0.0762715
0.0170174
-0.0720543
0.0147825
-0.066674
0.0122921
-0.0598958
0.00962892
-0.0516378
0.0065662
-0.0418761
-0.032118
0.0198369
-0.0643376
-0.0176321
0.0214713
-0.0704555
0.0226421
-0.0746872
0.0234311
-0.0778591
0.0239194
-0.0801314
0.024166
-0.0817451
0.0242052
-0.0828324
0.0240474
-0.0834526
0.023684
-0.0836013
0.023094
-0.0832259