/*--------------------------------*- C++ -*----------------------------------*\
  =========                 |
  \\      /  F ield         | OpenFOAM: The Open Source CFD Toolbox
   \\    /   O peration     | Website:  https://openfoam.org
    \\  /    A nd           | Version:  7
     \\/     M anipulation  |
\*---------------------------------------------------------------------------*/
FoamFile
{
    version     2.0;
    format      ascii;
    class       volScalarField;
    location    "30";
    object      p;
}
// * * * * * * * * * * * * * * * * * * * * * * * * * * * * * * * * * * * * * //

dimensions      [0 2 -2 0 0 0 0];

internalField   nonuniform List<scalar> 
2000
(
-0.00592955
-0.00539269
-0.0050226
-0.00457727
-0.00399485
-0.0032361
-0.00228916
-0.00116007
0.000128766
0.00157984
-0.00450979
-0.00386905
-0.00338174
-0.00282177
-0.00214679
-0.00132508
-0.00034797
0.000776613
0.00202604
0.00339161
-0.00311775
-0.00239513
-0.00180265
-0.00113868
-0.00038247
0.000489029
0.00148153
0.00258597
0.00378006
0.00504199
-0.00176316
-0.000982263
-0.000298052
0.000457453
0.00128198
0.00218892
0.00318118
0.00424939
0.00537265
0.00651777
-0.000457661
0.000358267
0.00112026
0.00195444
0.00283421
0.00376238
0.00473912
0.00575538
0.00679151
0.00780449
0.000783851
0.00161636
0.00244344
0.00334448
0.0042673
0.00520346
0.00615028
0.00709966
0.00803084
0.00888501
0.00194371
0.00278333
0.00366507
0.00462298
0.00557837
0.00651113
0.00741563
0.00828566
0.00909493
0.00974554
0.00300224
0.00385135
0.00477937
0.0057859
0.00676536
0.00768585
0.00853897
0.00932266
0.0100009
0.0103845
0.00394145
0.00481311
0.00578071
0.00682811
0.00782399
0.00872574
0.00952259
0.0102198
0.0107692
0.0108211
0.00475141
0.00566116
0.00666386
0.00774217
0.00874608
0.00962459
0.0103672
0.0109916
0.0114614
0.0112662
0.00544068
0.0128031
0.0190474
0.0256806
0.030781
0.0355897
0.0383988
0.0420715
0.0422748
0.0450574
0.00692834
0.0133989
0.0190923
0.0250959
0.0298127
0.0342444
0.0369651
0.0402567
0.0406546
0.043042
0.00819526
0.0138839
0.0190312
0.0244803
0.0288513
0.0329729
0.0355859
0.0385716
0.0391381
0.0411627
0.00925911
0.0142365
0.0188647
0.0238441
0.0279021
0.0317771
0.0342448
0.0370455
0.0376561
0.039444
0.0101383
0.0144607
0.0186285
0.0232005
0.0269759
0.0306369
0.0329706
0.0356558
0.0362444
0.0379089
0.0108392
0.0145545
0.0183265
0.0225428
0.0260683
0.0295409
0.0317623
0.0343466
0.0348928
0.0365021
0.0113841
0.0145676
0.0180076
0.021899
0.0251934
0.0284987
0.0306251
0.0331281
0.0336623
0.035248
0.0117497
0.0144165
0.017596
0.0212201
0.0243236
0.0274904
0.0295194
0.031925
0.0324599
0.0340559
0.0120632
0.0143087
0.0172493
0.0205905
0.0235019
0.0265451
0.0284967
0.0308377
0.0314155
0.0330092
0.0118282
0.013738
0.0165878
0.0197858
0.0225985
0.025561
0.0274222
0.0296304
0.0302918
0.0319356
0.016158
0.0153541
0.0166594
0.0187314
0.0209668
0.0236122
0.0255894
0.0277321
0.028722
0.0299782
0.0129624
0.0134071
0.0151033
0.0168399
0.0186749
0.0209599
0.0227897
0.0247045
0.0257054
0.0266182
0.00863974
0.0101632
0.0124856
0.0144603
0.0163145
0.0182966
0.0199573
0.0215552
0.0222608
0.0229496
0.00457644
0.00684551
0.00961661
0.0118411
0.0137892
0.0156685
0.0172037
0.0188376
0.0194314
0.0198471
0.00128509
0.00372645
0.00657445
0.00901967
0.0110571
0.0128164
0.0140883
0.015806
0.0163783
0.0168674
-0.00108286
0.001078
0.00372008
0.00618583
0.00825377
0.00997551
0.0111589
0.0129566
0.013251
0.0135772
-0.00275958
-0.00116065
0.00121232
0.00362674
0.00565428
0.00732535
0.00863201
0.01003
0.0105419
0.0107776
-0.00336681
-0.00239304
-0.000582586
0.00159967
0.00340221
0.00483701
0.00587406
0.00683604
0.00735254
0.00765609
-0.00305477
-0.0025954
-0.00131148
0.000345202
0.00168859
0.00276
0.00357785
0.00430257
0.00451045
0.00453548
-0.00149472
-0.00150105
-0.000907171
-0.000172042
0.000415119
0.000871086
0.00121918
0.00162773
0.00173132
0.00168843
0.0128435
0.0105017
0.00661599
0.00282084
-9.38136e-05
-0.0021209
-0.00318566
-0.00337528
-0.00282505
-0.0011363
0.0121709
0.00940052
0.00534015
0.00159832
-0.00106862
-0.00279406
-0.00351751
-0.00347125
-0.00276125
-0.00106171
0.0114697
0.00810485
0.00395735
0.000333749
-0.00206195
-0.00347061
-0.00386471
-0.00357829
-0.00269561
-0.00101648
0.0104968
0.00669172
0.00257741
-0.000873164
-0.00297769
-0.00407439
-0.00416317
-0.00365549
-0.00261987
-0.000979509
0.00926175
0.00521252
0.00121624
-0.00202717
-0.00382665
-0.00461514
-0.00441698
-0.00370841
-0.00253978
-0.000950596
0.0078545
0.00375175
-5.82963e-05
-0.00308076
-0.0045825
-0.0050837
-0.00462722
-0.00374044
-0.00245918
-0.000927757
0.00645406
0.0024197
-0.00116364
-0.00397395
-0.00520805
-0.00546144
-0.00478668
-0.0037501
-0.00238031
-0.00090868
0.00526706
0.00132559
-0.00202814
-0.00465751
-0.00567291
-0.00573185
-0.00488825
-0.00373625
-0.00230514
-0.000894543
0.00444514
0.000549728
-0.00260336
-0.00510561
-0.00595767
-0.00588501
-0.00492748
-0.00369867
-0.00223441
-0.000882378
0.0040434
0.000121945
-0.00287467
-0.00531507
-0.00605894
-0.00591755
-0.0049037
-0.00363676
-0.00216796
-0.000844933
0.00402627
1.70049e-05
-0.00288882
-0.00527543
-0.00599061
-0.00583336
-0.00482001
-0.00355066
-0.00210261
-0.000780706
0.00432984
0.000189259
-0.00266279
-0.00503949
-0.00577268
-0.0056472
-0.00468031
-0.00344263
-0.00203707
-0.000718988
0.00488562
0.000583914
-0.00224297
-0.00464355
-0.00543532
-0.00537806
-0.00449558
-0.00331715
-0.00197104
-0.000665933
0.00562332
0.00114465
-0.00168149
-0.00412596
-0.00501161
-0.00504693
-0.00427734
-0.00317739
-0.00190264
-0.000619594
0.00648305
0.00182554
-0.00102602
-0.00352366
-0.00453138
-0.00467381
-0.00403593
-0.00302646
-0.00183041
-0.000577866
0.00741477
0.0025902
-0.000317037
-0.00286864
-0.00401834
-0.00427538
-0.00377932
-0.00286684
-0.00175326
-0.000539378
0.00836941
0.00340746
0.000413905
-0.00218561
-0.00348925
-0.00386433
-0.00351318
-0.0027002
-0.00167033
-0.000503175
0.00933706
0.00428431
0.00116549
-0.00148234
-0.00295193
-0.00344965
-0.00324309
-0.00252916
-0.00158177
-0.000468547
0.0103932
0.00530624
0.00197765
-0.000743726
-0.00240167
-0.00303224
-0.00297128
-0.00235656
-0.00148832
-0.000434366
0.0111952
0.00631296
0.0027543
-1.78476e-05
-0.00183984
-0.00259938
-0.00267357
-0.00216586
-0.00138022
-0.000397785
0.0108764
0.00759112
0.0041121
0.00148872
-0.000459856
-0.001485
-0.00184712
-0.00160417
-0.00105494
-0.000308995
0.0113973
0.00835258
0.0052204
0.00287926
0.00101837
-9.79826e-05
-0.000691069
-0.000734899
-0.000482656
-6.3684e-05
0.0130489
0.00992013
0.00676544
0.00442386
0.0024643
0.00118793
0.000380804
0.000111645
0.000125983
0.000236028
0.0151033
0.0117495
0.00847941
0.00601384
0.00387286
0.00239769
0.00137802
0.00093771
0.000785791
0.000611371
0.0174999
0.0137919
0.010298
0.00760603
0.00522316
0.0035262
0.0023105
0.00175474
0.00150257
0.00106109
0.0201721
0.0160184
0.0121864
0.00916673
0.00650888
0.00458046
0.0031968
0.00258013
0.0022782
0.00157288
0.0230335
0.0183149
0.0140554
0.010668
0.00774879
0.00559368
0.00408
0.00341394
0.00305889
0.00206972
0.025639
0.0202322
0.0157955
0.0121179
0.00896027
0.00659277
0.00497984
0.00420369
0.00363941
0.00227127
0.0281851
0.0230042
0.0178608
0.0135109
0.010016
0.00748287
0.00576957
0.0047191
0.00371618
0.00199203
0.03077
0.0233755
0.0179537
0.0137546
0.0104677
0.00802355
0.00626668
0.00494177
0.00355211
0.00161994
0.0131737
0.0138883
0.0155377
0.0176181
0.0202383
0.0231606
0.0262529
0.02994
0.0312292
0.0367077
0.0138616
0.0149799
0.0168185
0.0190575
0.021875
0.0249694
0.028257
0.0319842
0.0335142
0.038087
0.0142847
0.0158831
0.0180939
0.0207186
0.0238961
0.0273042
0.0308938
0.0345425
0.0366907
0.0389139
0.0147598
0.0166719
0.0191829
0.02219
0.02572
0.0294524
0.0333348
0.0370837
0.0396958
0.0405934
0.0153236
0.0175388
0.0202906
0.0236031
0.0274079
0.0313994
0.0355144
0.0394584
0.0423949
0.0431602
0.0159064
0.0185023
0.021538
0.0251357
0.0291717
0.0333715
0.0376675
0.041797
0.0449931
0.0461857
0.0164883
0.0195177
0.0229083
0.0268226
0.0311016
0.0355117
0.0399818
0.0442704
0.0476856
0.0493416
0.017088
0.0205725
0.0243627
0.0286245
0.0331786
0.0378325
0.0425069
0.0469596
0.0505622
0.0525219
0.0177227
0.0216765
0.0258893
0.0305101
0.0353635
0.0402938
0.0452119
0.0498584
0.0536342
0.0557562
0.0184005
0.0228351
0.027489
0.0324696
0.037636
0.0428627
0.0480539
0.0529265
0.0568816
0.0591028
0.0191274
0.0240416
0.0291575
0.0344972
0.0399897
0.0455257
0.0510111
0.0561347
0.0602882
0.0625999
0.019901
0.0252707
0.0308781
0.0365764
0.0424144
0.0482738
0.0540732
0.0594682
0.0638448
0.0662567
0.0206978
0.0264832
0.0326218
0.0386804
0.0448946
0.0511037
0.0572486
0.0629413
0.0675544
0.0700759
0.0214741
0.0276492
0.0343492
0.0407833
0.047411
0.0540039
0.0605293
0.0665689
0.0714179
0.0740575
0.0221741
0.0287513
0.0360202
0.0428692
0.0499623
0.0569981
0.063923
0.0703283
0.0754368
0.0782048
0.0227275
0.0297808
0.0375685
0.0449823
0.0525138
0.0600102
0.067372
0.0741761
0.0795912
0.082509
0.0230727
0.0307232
0.0390864
0.0470217
0.0550266
0.0630252
0.0708823
0.0781337
0.0838963
0.0869888
0.0230288
0.0316602
0.0404158
0.0488737
0.0573986
0.0659395
0.0743505
0.0821236
0.0883097
0.0916286
0.0227928
0.0324654
0.0416031
0.0506251
0.0597123
0.0688399
0.0778559
0.086204
0.0928631
0.0964682
0.021913
0.0326617
0.042228
0.0518153
0.0614746
0.0712293
0.0809536
0.0900603
0.097408
0.101461
0.0223849
0.0353476
0.0458536
0.0565737
0.0674406
0.0785341
0.0897393
0.100398
0.109137
0.114184
0.0330443
0.0455213
0.0564441
0.0687523
0.0814284
0.0947524
0.108431
0.12158
0.132434
0.138573
0.0450864
0.0578406
0.0698088
0.0839382
0.0985796
0.1145
0.130976
0.14686
0.159944
0.1674
0.0569911
0.0706371
0.0845825
0.100962
0.118142
0.137302
0.157036
0.175985
0.19146
0.200141
0.0688083
0.083918
0.100353
0.119245
0.139597
0.162676
0.186125
0.208493
0.226458
0.236662
0.0810857
0.098048
0.1171
0.138748
0.162954
0.19052
0.218027
0.244126
0.264478
0.27553
0.0935008
0.112534
0.13411
0.159009
0.187704
0.219818
0.251508
0.281432
0.303561
0.316234
0.106003
0.126954
0.151232
0.179932
0.213175
0.249372
0.285505
0.319234
0.342468
0.353692
0.115914
0.138588
0.165459
0.197449
0.234022
0.273313
0.313613
0.350494
0.37536
0.387754
0.123282
0.14696
0.175827
0.209904
0.248448
0.290278
0.334214
0.375379
0.40481
0.40222
0.0168043
0.0262532
0.0371548
0.0486877
0.059805
0.0715436
0.0826607
0.094511
0.103606
0.111024
0.0151157
0.0249722
0.0356754
0.0469851
0.0577803
0.0692437
0.0798675
0.0913887
0.099943
0.107039
0.0140495
0.0248616
0.0356607
0.0468681
0.0574396
0.0686316
0.0789351
0.0900142
0.0978418
0.104285
0.0126217
0.0239041
0.0348467
0.0460555
0.0565122
0.0675103
0.0775938
0.0883018
0.0955868
0.101472
0.0109667
0.0223683
0.0334469
0.0445813
0.0549122
0.0656975
0.075537
0.0858972
0.0928185
0.0983391
0.00922264
0.0207089
0.0319721
0.0430115
0.053198
0.0637277
0.073275
0.083253
0.0898698
0.0951445
0.00740381
0.0190567
0.0304903
0.0415739
0.0516674
0.0619618
0.0712347
0.0808428
0.0871563
0.0922259
0.00552998
0.017382
0.0290159
0.04021
0.0503409
0.0604642
0.0695451
0.0788658
0.0849066
0.0897808
0.00364754
0.0156922
0.0275859
0.0389064
0.0491502
0.0591862
0.068189
0.0772905
0.0831697
0.0878441
0.00181024
0.014034
0.0262385
0.0377244
0.048088
0.0581006
0.0671224
0.0760161
0.08191
0.0863594
7.41434e-05
0.012445
0.0250096
0.0367056
0.0471893
0.0572365
0.0662973
0.0750623
0.0810362
0.0852775
-0.00153645
0.0109144
0.0238956
0.035844
0.0464768
0.0566105
0.0657194
0.0744396
0.0804912
0.0845943
-0.00302679
0.0094146
0.0228739
0.0351131
0.0459522
0.056227
0.0654121
0.0741544
0.080281
0.0843098
-0.00439228
0.00795812
0.0219445
0.0344965
0.0456078
0.0560783
0.065377
0.0741979
0.0804146
0.0844191
-0.0056363
0.00658508
0.0211236
0.0339928
0.0454457
0.0561622
0.0656221
0.0745821
0.0809093
0.0849152
-0.00679255
0.00533263
0.0203931
0.0335754
0.0454434
0.0564435
0.066117
0.0752746
0.081741
0.0857883
-0.00791844
0.004264
0.0197517
0.0332641
0.0456119
0.0569314
0.06689
0.0762981
0.0829242
0.0870315
-0.00910141
0.0033348
0.0190509
0.0329585
0.0458392
0.0575185
0.0678379
0.0775548
0.0844006
0.0886375
-0.0103127
0.00273309
0.0184473
0.0328042
0.0462079
0.0582879
0.0690439
0.079108
0.0862115
0.0906029
-0.0120074
0.0016558
0.0171686
0.0321582
0.0461542
0.0587353
0.0700467
0.0806211
0.0881941
0.0929227
-0.0114117
0.00388995
0.0177153
0.0330762
0.0479493
0.0616521
0.0742596
0.0857971
0.0943487
0.0995236
0.00225256
0.0145052
0.0267203
0.042577
0.0579483
0.0731165
0.0877417
0.101187
0.111355
0.117099
0.0171597
0.0285985
0.0409755
0.0569541
0.0728166
0.0899676
0.106876
0.122756
0.134941
0.141596
0.0316363
0.0437261
0.0574021
0.0740659
0.0918702
0.111994
0.131983
0.151249
0.166018
0.173867
0.0449858
0.0583892
0.0739558
0.0925948
0.113794
0.137901
0.162471
0.186906
0.205638
0.215286
0.056729
0.0716836
0.0895606
0.111211
0.136655
0.165831
0.196907
0.228706
0.253998
0.267579
0.065528
0.0824537
0.102921
0.127986
0.157978
0.193306
0.232644
0.273831
0.309115
0.331511
0.0737519
0.0922035
0.114947
0.143122
0.17749
0.219376
0.268016
0.320728
0.371259
0.411985
0.0777218
0.0976789
0.122555
0.153643
0.192505
0.240861
0.299177
0.365737
0.437802
0.510507
0.0832468
0.105623
0.132537
0.166382
0.209422
0.263593
0.330791
0.413273
0.51423
0.632316
-0.0115434
-8.26792e-05
0.0123542
0.025483
0.0376482
0.0488819
0.0567778
0.0645137
0.0679351
0.0713312
-0.0109565
0.00116466
0.0128725
0.0252836
0.0366011
0.0471118
0.0542923
0.0615681
0.0647988
0.0681955
-0.00951563
0.00369285
0.0154007
0.0273035
0.0376064
0.0468936
0.0530547
0.0594927
0.0624266
0.0665995
-0.00790815
0.00530479
0.0167875
0.028276
0.0378509
0.0462059
0.0515964
0.0572996
0.059821
0.0644136
-0.00606818
0.00649032
0.0172174
0.0280965
0.0370333
0.0447439
0.0496495
0.0548314
0.0568747
0.0613465
-0.0040508
0.00774496
0.0175338
0.0275963
0.0358301
0.0429638
0.0475
0.0522948
0.0538646
0.0579158
-0.00199304
0.00902757
0.0179776
0.0272125
0.0347077
0.0412532
0.0454181
0.0498947
0.0510427
0.0546552
1.88491e-05
0.0102001
0.0184171
0.0269228
0.0337236
0.0397132
0.043488
0.0477108
0.0484984
0.0518005
0.00194567
0.0112184
0.0187405
0.026598
0.0327749
0.0382922
0.0416853
0.0457234
0.0462102
0.0493349
0.00376121
0.0120831
0.0189391
0.0261819
0.0317927
0.0369288
0.0399837
0.0438677
0.0441355
0.0471278
0.00542981
0.00639609
0.00742685
0.00852075
0.00951848
0.0103659
0.0110583
0.0116382
0.0122199
0.0127181
0.00598709
0.00703108
0.00807396
0.00916002
0.0101267
0.0109184
0.011531
0.0119958
0.0123864
0.012621
0.00644226
0.00758278
0.00861714
0.00966422
0.0105645
0.0112636
0.0117579
0.0120653
0.0122128
0.0121281
0.00683336
0.00807553
0.00907689
0.0100483
0.0108403
0.0114055
0.0117466
0.0118812
0.0118276
0.0115356
0.00721015
0.00853936
0.00948029
0.0103373
0.0109777
0.0113676
0.0115221
0.0114676
0.0112358
0.0108098
0.00762697
0.00900676
0.00985877
0.0105651
0.0110162
0.0111968
0.011139
0.0108824
0.0104792
0.00994031
0.00813731
0.00951077
0.0102469
0.0107739
0.0110105
0.0109635
0.0106833
0.0102233
0.00965268
0.00898943
0.00878968
0.0100843
0.010682
0.0110125
0.0110259
0.0107527
0.0102592
0.00961002
0.00888245
0.00808199
0.00962179
0.010758
0.0112005
0.01133
0.0111283
0.0106476
0.00996646
0.00915558
0.00828978
0.00735872
0.0106448
0.0115511
0.0118316
0.011767
0.0113701
0.0107115
0.00987654
0.00893705
0.00795734
0.00692225
0.0118331
0.0124654
0.0125901
0.0123472
0.0117806
0.0109756
0.0100205
0.00898331
0.00791516
0.0068068
0.0132415
0.01353
0.013492
0.0130795
0.0123628
0.0114375
0.0103896
0.00928042
0.00814904
0.00699834
0.0148267
0.014723
0.0145191
0.0139442
0.0130933
0.0120672
0.0109468
0.00978529
0.00861379
0.00745035
0.0165326
0.0160103
0.0156359
0.0149033
0.0139288
0.0128157
0.0116378
0.0104394
0.00924869
0.00809492
0.0182932
0.0173429
0.0167937
0.0159053
0.0148148
0.0136252
0.0124016
0.0111801
0.00998924
0.00886389
0.0200302
0.0186586
0.0179327
0.0168915
0.0156929
0.0144372
0.0131795
0.0119478
0.010774
0.00969445
0.0216573
0.0198874
0.0189889
0.0178032
0.0165077
0.0151987
0.0139199
0.0126913
0.0115482
0.0105285
0.0230863
0.0209569
0.0198999
0.0185864
0.0172118
0.0158663
0.0145829
0.0133701
0.0122626
0.0113085
0.0242336
0.0217989
0.0206102
0.0191969
0.0177686
0.0164085
0.0151372
0.0139457
0.0128596
0.0119741
0.0250248
0.0223534
0.0210739
0.019602
0.0181569
0.0168122
0.0155726
0.0144019
0.0133158
0.0125019
0.0253993
0.022572
0.0212548
0.0197783
0.0183686
0.0170944
0.0159591
0.0149327
0.0140591
0.0135796
0.02531
0.0224167
0.0211238
0.0197017
0.0183778
0.0172135
0.0162074
0.0153302
0.0146117
0.0142203
0.0247281
0.0218671
0.0206648
0.0193561
0.0181645
0.0171429
0.0162849
0.0155603
0.0149757
0.0146295
0.023651
0.0209206
0.019875
0.0187378
0.0177239
0.0168803
0.0161979
0.015648
0.0152221
0.0149733
0.0220994
0.0195924
0.0187661
0.0178559
0.0170642
0.0164343
0.0159575
0.0156074
0.0153667
0.0152636
0.0201152
0.0179136
0.0173633
0.0167311
0.0162032
0.0158214
0.0155787
0.0154522
0.0154194
0.0154922
0.0177576
0.0159291
0.0157019
0.0153923
0.0151656
0.0150628
0.0150806
0.0152002
0.0153972
0.0156709
0.0150979
0.013693
0.0138248
0.013874
0.0139796
0.0141825
0.0144838
0.0148695
0.015317
0.0158164
0.0122153
0.0112639
0.0117781
0.0122125
0.0126744
0.013204
0.0138073
0.0144762
0.015192
0.0159404
0.00920763
0.00870735
0.00961034
0.0104441
0.0112778
0.0121486
0.0130675
0.0140325
0.0150309
0.0160489
0.00620391
0.00610472
0.00737713
0.00860854
0.00981855
0.0110369
0.012279
0.0135484
0.0148388
0.0161433
0.00315667
0.00346807
0.00510398
0.00672812
0.00831317
0.00987999
0.0114478
0.0130253
0.0146122
0.0162156
0.000148877
0.00085259
0.00282974
0.0048293
0.006779
0.00868754
0.0105772
0.0124605
0.0143411
0.0162472
-0.00275086
-0.00169387
0.000589598
0.00293435
0.00522877
0.00746434
0.00966485
0.0118452
0.0140081
0.0162087
-0.00550181
-0.00413551
-0.00158961
0.00106033
0.00367093
0.00621105
0.00870435
0.011167
0.0135932
0.0160629
-0.00806911
-0.00642784
-0.00370427
-0.000780209
0.00211092
0.00492568
0.00768651
0.0104115
0.0130784
0.0157662
-0.0104333
-0.00857225
-0.00571382
-0.00257589
0.000552002
0.00360532
0.00660191
0.00956434
0.0124546
0.015287
-0.0125815
-0.010554
-0.00760972
-0.00431703
-0.00100321
0.00224625
0.0054431
0.00860961
0.0116926
0.0146415
-0.0145077
-0.0123623
-0.00938582
-0.00599814
-0.00255239
0.000846696
0.00420464
0.00754661
0.0107966
0.0138944
-0.0162119
-0.0139931
-0.0110362
-0.0076138
-0.00409304
-0.00059594
0.00287441
0.00635514
0.00977571
0.0129793
-0.0177035
-0.0154495
-0.0125586
-0.0091599
-0.00562237
-0.00208113
0.00144768
0.00501527
0.00868446
0.0122089
-0.0190187
-0.0167457
-0.0139549
-0.0106324
-0.00713605
-0.00360985
-8.77655e-05
0.00345376
0.0070951
0.0106469
-0.0201454
-0.017879
-0.0152217
-0.0120238
-0.00862324
-0.00516769
-0.00170356
0.00176962
0.00532446
0.00884519
-0.0210905
-0.018856
-0.0163598
-0.0133275
-0.0100688
-0.00672869
-0.00335716
3.90266e-05
0.0035245
0.00699921
-0.0218707
-0.0196886
-0.0173731
-0.0145386
-0.0114596
-0.00827184
-0.00502443
-0.00172641
0.00167884
0.00509516
-0.0225031
-0.0203895
-0.0182678
-0.0156554
-0.0127868
-0.00978323
-0.00669051
-0.00351944
-0.000220934
0.00312343
-0.0230042
-0.020972
-0.0190521
-0.016679
-0.0140447
-0.0112516
-0.00833989
-0.00532095
-0.0021534
0.00110252
-0.0233894
-0.0214493
-0.0197353
-0.0176126
-0.0152295
-0.0126671
-0.0099568
-0.00710959
-0.00409193
-0.000939831
-0.0236716
-0.0218341
-0.0203273
-0.0184607
-0.0163393
-0.0140208
-0.0115266
-0.0088655
-0.00601169
-0.00297433
-0.0238519
-0.0221317
-0.0208339
-0.019226
-0.0173714
-0.0153046
-0.0130355
-0.0105695
-0.00788865
-0.00497207
-0.0239141
-0.0223322
-0.0212483
-0.0199009
-0.0183152
-0.0165033
-0.0144633
-0.0121971
-0.00969511
-0.00690494
-0.0239165
-0.0224712
-0.0215925
-0.0204966
-0.0191722
-0.0176097
-0.0157957
-0.0137272
-0.0114056
-0.00875058
-0.0238428
-0.0225381
-0.021858
-0.0210034
-0.0199291
-0.0186059
-0.0170096
-0.0151328
-0.0129902
-0.0104817
-0.02368
-0.0225227
-0.0220342
-0.0214081
-0.0205686
-0.0194697
-0.0180785
-0.016384
-0.0144172
-0.0120677
-0.02342
-0.0224163
-0.0221092
-0.0216947
-0.0210701
-0.020176
-0.018973
-0.0174483
-0.0156536
-0.0134792
-0.0230543
-0.0222082
-0.0220689
-0.021845
-0.0214114
-0.0206984
-0.0196628
-0.0182929
-0.0166669
-0.0146912
-0.0225746
-0.0218868
-0.021898
-0.0218404
-0.0215705
-0.0210116
-0.0201196
-0.0188855
-0.0174205
-0.0156745
-0.0219742
-0.0214411
-0.0215821
-0.021664
-0.0215284
-0.0210943
-0.0203187
-0.0191945
-0.0178693
-0.016382
-0.0212495
-0.0208622
-0.0211097
-0.0213023
-0.0212709
-0.0209309
-0.0202402
-0.0191865
-0.0179329
-0.0166723
-0.0204002
-0.0201443
-0.0204726
-0.0207465
-0.02079
-0.0205161
-0.0198873
-0.0188856
-0.0176105
-0.0163388
-0.0194299
-0.0192856
-0.0196674
-0.0199925
-0.0200802
-0.019836
-0.0192115
-0.018142
-0.0164567
-0.0139862
-0.0183474
-0.0182911
-0.0186972
-0.0190429
-0.0191488
-0.0189206
-0.0183154
-0.017287
-0.0156788
-0.0134837
-0.0171637
-0.0171659
-0.0175672
-0.0179049
-0.0180071
-0.0177856
-0.0172096
-0.0162577
-0.0148354
-0.0129457
-0.0158933
-0.015921
-0.0162887
-0.0165918
-0.0166633
-0.0164265
-0.0158522
-0.0149245
-0.0135833
-0.0118267
-0.014553
-0.0145719
-0.014878
-0.0151221
-0.0151356
-0.0148557
-0.014251
-0.0133054
-0.0119833
-0.0102737
-0.0131603
-0.0131374
-0.0133623
-0.0135147
-0.0134517
-0.0131068
-0.0124506
-0.0114706
-0.0101506
-0.00846316
-0.0117316
-0.0116375
-0.0117608
-0.011806
-0.0116483
-0.0112233
-0.0105043
-0.00948407
-0.00816267
-0.00650247
-0.0102821
-0.0100935
-0.0101009
-0.0100274
-0.00976354
-0.00925139
-0.00846591
-0.0074054
-0.00608229
-0.00446147
-0.0088249
-0.00852748
-0.0084103
-0.00821189
-0.00783775
-0.00723609
-0.00638719
-0.00529188
-0.00397018
-0.00239985
-0.0073705
-0.00695681
-0.00671299
-0.00638896
-0.00590676
-0.00522107
-0.00431657
-0.00319692
-0.00188441
-0.000368674
)
;

boundaryField
{
    inlet
    {
        type            zeroGradient;
    }
    outlet
    {
        type            fixedValue;
        value           uniform 0;
    }
    cylinder
    {
        type            zeroGradient;
    }
    top
    {
        type            symmetryPlane;
    }
    bottom
    {
        type            symmetryPlane;
    }
    defaultFaces
    {
        type            empty;
    }
}


// ************************************************************************* //
