/*--------------------------------*- C++ -*----------------------------------*\
  =========                 |
  \\      /  F ield         | OpenFOAM: The Open Source CFD Toolbox
   \\    /   O peration     | Website:  https://openfoam.org
    \\  /    A nd           | Version:  7
     \\/     M anipulation  |
\*---------------------------------------------------------------------------*/
FoamFile
{
    version     2.0;
    format      ascii;
    class       volVectorField;
    location    "30";
    object      U;
}
// * * * * * * * * * * * * * * * * * * * * * * * * * * * * * * * * * * * * * //

dimensions      [0 1 -1 0 0 0 0];

internalField   nonuniform List<vector> 
2000
(
(0.000911501 -0.00882006 1.43964e-22)
(0.00333517 0.00400191 0)
(0.00735463 0.0322332 0)
(0.0110888 0.0672878 4.12001e-22)
(0.0138235 0.104297 -1.06935e-22)
(0.015306 0.140874 5.71954e-23)
(0.0157365 0.176112 1.72912e-22)
(0.0154974 0.209581 0)
(0.0148298 0.240634 0)
(0.0138323 0.268281 0)
(0.0017112 -0.00964205 0)
(0.00380863 0.00157698 3.34971e-22)
(0.00706852 0.0286937 -3.08897e-22)
(0.0101296 0.063348 -5.80207e-22)
(0.012442 0.100601 0)
(0.0136888 0.137745 -1.13293e-22)
(0.0139514 0.173563 1.05354e-22)
(0.0135371 0.207492 0)
(0.0126825 0.238951 5.89385e-22)
(0.0114623 0.267103 -1.43428e-21)
(0.00260592 -0.0104761 0)
(0.00455624 -0.00122168 -1.24615e-21)
(0.00714757 0.0242047 0)
(0.00960178 0.0578406 -2.13665e-22)
(0.0115819 0.094837 0)
(0.0127348 0.132245 -7.18904e-22)
(0.0130106 0.168519 0)
(0.01261 0.202907 1.47962e-21)
(0.0117468 0.234847 -1.38575e-21)
(0.0104584 0.263629 -2.40573e-21)
(0.00357443 -0.0112474 2.6868e-22)
(0.00557025 -0.00424732 8.71249e-22)
(0.00759554 0.0189279 1.10296e-22)
(0.00949086 0.0508681 4.84017e-22)
(0.0111785 0.0869927 -2.49733e-22)
(0.0123228 0.124246 1.10864e-25)
(0.0127579 0.160789 6.68356e-22)
(0.0125532 0.195621 9.25182e-23)
(0.011865 0.228118 2.09619e-21)
(0.0106707 0.257631 2.39992e-21)
(0.00458311 -0.0118794 8.88682e-23)
(0.00683347 -0.00731905 -2.69384e-22)
(0.0084252 0.0131122 -1.48413e-21)
(0.00981109 0.0426639 4.79406e-22)
(0.011203 0.0771865 0)
(0.012351 0.113699 0)
(0.0130242 0.150169 -2.61594e-21)
(0.0131639 0.185342 -2.88372e-21)
(0.0128305 0.218444 3.23368e-21)
(0.0118861 0.248764 1.03647e-20)
(0.00559145 -0.0122972 2.30773e-22)
(0.00832895 -0.010235 5.26052e-22)
(0.00967019 0.00708465 -3.63143e-21)
(0.010624 0.0336123 6.18853e-21)
(0.011696 0.0657355 -1.10004e-21)
(0.0127866 0.10073 0)
(0.0136785 0.136547 0)
(0.0142338 0.171749 1.72054e-20)
(0.0144083 0.205381 -1.72058e-20)
(0.013839 0.2365 3.5588e-21)
(0.00656361 -0.0124477 3.84176e-21)
(0.0100555 -0.012797 0)
(0.0113993 0.0012309 4.15683e-21)
(0.0120548 0.0242533 -4.99782e-21)
(0.0127978 0.0532186 0)
(0.0137216 0.0857887 3.73468e-21)
(0.0147067 0.120088 -1.14374e-20)
(0.0156287 0.154664 -1.52601e-20)
(0.0163945 0.18846 7.57867e-21)
(0.016213 0.220129 7.69803e-21)
(0.00748488 -0.0123088 -9.2358e-21)
(0.0120456 -0.0148263 -1.58827e-21)
(0.0137293 -0.0040295 -3.92804e-21)
(0.0143012 0.0152645 -9.56673e-21)
(0.0147634 0.0405017 -4.18239e-21)
(0.015414 0.0697653 -4.93607e-21)
(0.0162958 0.101488 -1.05188e-21)
(0.0174104 0.134394 0)
(0.0187529 0.167522 0)
(0.0188382 0.198968 -9.18127e-23)
(0.00837898 -0.0118948 5.39424e-21)
(0.0143798 -0.016181 -7.73064e-21)
(0.0168276 -0.00828418 5.04557e-21)
(0.0176253 0.0073999 1.44784e-20)
(0.0179479 0.0286863 -4.2401e-21)
(0.0182825 0.0540119 3.85498e-21)
(0.0188658 0.0821395 4.46538e-21)
(0.0199283 0.11208 0)
(0.0217775 0.143131 0)
(0.0220764 0.172653 4.351e-22)
(0.00931529 -0.0112484 -9.22994e-22)
(0.017193 -0.0167737 1.00021e-20)
(0.0208975 -0.0111816 -2.09334e-21)
(0.0223189 0.00138515 0)
(0.0227499 0.0189601 0)
(0.0228287 0.040201 9.85454e-21)
(0.0229647 0.064104 0)
(0.023631 0.0898867 -1.04606e-20)
(0.025733 0.116943 -1.23495e-22)
(0.0274864 0.14182 9.40708e-21)
(0.0125829 0.320326 1.4007e-22)
(-0.00405729 0.382404 -1.41703e-22)
(-0.00507438 0.42075 -2.98646e-22)
(-0.00826187 0.441144 -4.01108e-22)
(-0.00940189 0.454479 -5.29047e-22)
(-0.00743725 0.471381 -2.77725e-23)
(-0.01068 0.509469 2.85016e-22)
(-0.00161219 0.594753 1.00363e-21)
(-0.0131762 0.75122 0)
(0.00531272 0.929106 -7.35577e-22)
(0.00935317 0.320804 2.56933e-22)
(-0.00564038 0.382969 -1.01219e-21)
(-0.00646373 0.420452 1.91835e-21)
(-0.00916596 0.44078 4.01837e-22)
(-0.0102289 0.45397 9.36141e-22)
(-0.00837291 0.470795 1.64338e-21)
(-0.0116027 0.508159 -6.114e-22)
(-0.00274729 0.593812 -6.73532e-22)
(-0.0134479 0.749764 1.31663e-21)
(0.00458972 0.927213 7.33825e-22)
(0.00759992 0.319563 0)
(-0.00612225 0.382437 -8.81014e-22)
(-0.00711787 0.419763 -6.01274e-22)
(-0.00953231 0.440238 0)
(-0.0106896 0.453384 -2.91547e-21)
(-0.00904792 0.469929 9.08913e-22)
(-0.0123327 0.50649 1.06204e-21)
(-0.00378483 0.592074 3.68092e-21)
(-0.0136934 0.747865 -1.31237e-21)
(0.00394025 0.925321 2.67326e-21)
(0.0071762 0.316462 0)
(-0.00562652 0.380818 8.88696e-22)
(-0.00710738 0.418585 0)
(-0.00941797 0.439443 3.3034e-21)
(-0.0108036 0.452684 -3.31987e-21)
(-0.00943738 0.468826 -2.12844e-21)
(-0.0128596 0.504425 -1.23224e-22)
(-0.00469071 0.589337 -3.61391e-21)
(-0.0138642 0.744989 -5.91731e-22)
(0.00335133 0.922541 -3.28996e-21)
(0.00789453 0.311377 1.0056e-21)
(-0.00428196 0.378388 -1.95777e-21)
(-0.00650115 0.417211 5.60184e-22)
(-0.00889472 0.438631 -2.68755e-21)
(-0.0106262 0.452003 0)
(-0.00958878 0.467653 -2.05322e-21)
(-0.013243 0.502084 -1.6242e-22)
(-0.00551719 0.586102 4.58533e-21)
(-0.0140416 0.742127 6.03048e-22)
(0.0027954 0.920184 -6.05194e-22)
(0.00958004 0.303964 -5.68424e-21)
(-0.00220253 0.374498 4.23646e-21)
(-0.00535117 0.414974 2.64946e-21)
(-0.00795425 0.437402 -2.64709e-21)
(-0.010107 0.451145 -1.65841e-21)
(-0.00944042 0.466319 0)
(-0.0134091 0.499284 -4.15157e-21)
(-0.0061626 0.581784 2.07778e-21)
(-0.0141246 0.737695 2.23483e-21)
(0.00226173 0.916394 2.31691e-21)
(0.0119104 0.294195 -7.62302e-22)
(0.000460862 0.37024 0)
(-0.00373918 0.413093 0)
(-0.00673567 0.436539 0)
(-0.00939981 0.450544 -1.82674e-21)
(-0.00914325 0.465148 3.47867e-21)
(-0.013493 0.496588 4.06808e-21)
(-0.00679019 0.577753 -6.30347e-21)
(-0.0143001 0.734266 1.10197e-21)
(0.00175092 0.91398 -3.38595e-21)
(0.0147733 0.280526 4.48421e-21)
(0.00363525 0.362623 4.3189e-21)
(-0.00161591 0.408975 -4.27729e-21)
(-0.00502487 0.434524 6.02694e-21)
(-0.00825409 0.449412 -7.53716e-21)
(-0.0084427 0.463615 0)
(-0.0132424 0.493128 -1.86722e-21)
(-0.00712752 0.571775 7.31046e-23)
(-0.0143014 0.727802 -2.0218e-21)
(0.00123301 0.908935 -2.10742e-21)
(0.0174795 0.265915 -3.93242e-21)
(0.00699606 0.357693 0)
(0.000641182 0.407525 -5.72914e-21)
(-0.00339926 0.43421 1.09891e-20)
(-0.00722327 0.449312 -4.24659e-21)
(-0.0078494 0.462928 -8.48324e-22)
(-0.0130886 0.490952 1.86326e-21)
(-0.00763817 0.56826 1.60697e-23)
(-0.0145583 0.724969 2.93869e-21)
(0.000772734 0.907193 3.07005e-21)
(0.0216133 0.237955 -3.62176e-21)
(0.0109881 0.340818 3.51486e-21)
(0.00385822 0.398861 5.64974e-22)
(-0.000693836 0.430244 0)
(-0.00529642 0.447338 0)
(-0.00644376 0.46081 8.16034e-22)
(-0.0122606 0.486115 3.50116e-21)
(-0.0075297 0.559318 -3.41065e-21)
(-0.0144131 0.715157 -8.97628e-22)
(0.00023118 0.900228 8.65394e-22)
(0.023808 0.229284 0)
(0.0205167 0.34416 0)
(0.00930671 0.404166 0)
(0.00274439 0.434792 0)
(-0.00307467 0.450827 0)
(-0.00529646 0.463296 0)
(-0.0118814 0.4873 0)
(-0.00912256 0.559996 0)
(-0.0155751 0.715523 0)
(-0.000617235 0.90051 0)
(0.027653 0.236306 0)
(0.0341123 0.350415 0)
(0.0235383 0.411788 0)
(0.0139161 0.441632 0)
(0.00460289 0.456775 0)
(-7.24001e-05 0.468936 0)
(-0.00771674 0.490974 0)
(-0.00704349 0.559318 0)
(-0.013801 0.705921 0)
(-0.00150999 0.881111 0)
(0.0312532 0.245689 0)
(0.0390737 0.358922 0)
(0.0294981 0.423525 0)
(0.019906 0.452456 0)
(0.00945406 0.464789 0)
(0.00261319 0.474421 0)
(-0.00639924 0.495101 0)
(-0.00745294 0.564177 0)
(-0.0134579 0.71144 0)
(-0.00140242 0.884326 0)
(0.0327012 0.247192 0)
(0.0440154 0.358929 0)
(0.0367802 0.429337 0)
(0.0265938 0.461452 0)
(0.0155305 0.474832 0)
(0.0078405 0.483859 0)
(-0.00168027 0.502211 0)
(-0.00425337 0.565888 0)
(-0.0121814 0.703562 0)
(-0.0027182 0.86752 0)
(0.0316888 0.250657 0)
(0.0396057 0.360128 0)
(0.03689 0.437597 0)
(0.0284514 0.471015 0)
(0.017875 0.482581 0)
(0.0101245 0.489437 0)
(0.00104223 0.507103 0)
(-0.0015372 0.571518 0)
(-0.00751795 0.70869 0)
(-0.00121611 0.867777 0)
(0.0312279 0.247855 0)
(0.0385767 0.357041 0)
(0.0367279 0.4413 0)
(0.0293838 0.480552 0)
(0.0193104 0.49388 0)
(0.0113237 0.500302 0)
(0.00211961 0.516363 0)
(-0.00237957 0.576983 0)
(-0.01012 0.707098 0)
(-0.00264616 0.859153 0)
(0.0236515 0.245072 0)
(0.030174 0.355397 0)
(0.031298 0.444927 0)
(0.0274457 0.487395 0)
(0.0206331 0.500955 0)
(0.0151761 0.505572 0)
(0.00847575 0.520301 0)
(0.00556643 0.580488 0)
(-0.00242704 0.708869 0)
(-0.00139173 0.855971 0)
(0.0203945 0.245459 0)
(0.02169 0.35385 0)
(0.0226505 0.446277 0)
(0.0192069 0.491258 0)
(0.013948 0.5067 0)
(0.00951796 0.512434 0)
(0.00345607 0.528163 0)
(-0.000204796 0.587828 0)
(-0.00524276 0.713223 0)
(-0.00161317 0.853207 0)
(0.0098864 0.23967 0)
(0.0125219 0.35139 0)
(0.0159679 0.447629 0)
(0.0158863 0.495635 0)
(0.0142078 0.511036 0)
(0.0135585 0.515668 0)
(0.0108802 0.53094 0)
(0.0075069 0.589904 0)
(-0.00158785 0.713165 0)
(-0.000746768 0.851166 0)
(0.000651012 0.244964 0)
(-0.00139916 0.349595 0)
(0.00163211 0.442249 0)
(0.00413968 0.491512 0)
(0.00531527 0.508434 0)
(0.0065766 0.514841 0)
(0.00590884 0.533793 0)
(0.00487624 0.597155 0)
(-0.000453799 0.719418 0)
(-0.000591585 0.849784 0)
(0.0346215 0.140229 3.42096e-21)
(0.0419483 0.167345 -3.36677e-21)
(0.045809 0.191885 2.11281e-22)
(0.0436696 0.205345 0)
(0.0382765 0.213958 0)
(0.0325027 0.211609 -8.16225e-23)
(0.0239272 0.20774 4.28735e-22)
(0.0187334 0.203649 -4.2122e-22)
(0.00927387 0.196554 -6.26302e-23)
(0.00352358 0.201695 6.10292e-23)
(0.0454571 0.117332 -4.30504e-21)
(0.0498213 0.148937 0)
(0.0502119 0.17611 7.39905e-22)
(0.0450812 0.190976 -1.00099e-21)
(0.0376165 0.199361 -3.21146e-23)
(0.0304411 0.196259 7.97685e-23)
(0.0220317 0.191901 -2.36707e-22)
(0.016799 0.186073 -4.20632e-22)
(0.00868962 0.179155 -3.55408e-23)
(0.00426941 0.183274 -5.05142e-24)
(0.0568373 0.107948 4.77397e-21)
(0.0579215 0.140541 -1.62388e-21)
(0.0547457 0.165727 1.60831e-21)
(0.0465777 0.178579 2.27699e-22)
(0.0368556 0.184715 -1.23634e-22)
(0.028227 0.180146 0)
(0.0198246 0.17512 2.37253e-22)
(0.0146991 0.16773 -5.88e-24)
(0.00810286 0.16152 1.7268e-22)
(0.00490898 0.163866 6.48164e-23)
(0.0680273 0.105338 -7.23472e-22)
(0.0651727 0.135245 0)
(0.0584645 0.155532 0)
(0.0474886 0.16477 0)
(0.0357883 0.16797 -6.79029e-22)
(0.025971 0.162019 4.56226e-22)
(0.0176087 0.156452 -2.44848e-23)
(0.0126905 0.147943 2.17537e-22)
(0.00750284 0.142632 5.75636e-23)
(0.00537635 0.142692 4.1142e-24)
(0.0780993 0.10344 -8.2839e-22)
(0.070698 0.127486 -1.5839e-21)
(0.060735 0.141567 5.24838e-23)
(0.0473977 0.14699 -5.24445e-23)
(0.0341837 0.147521 2.19605e-22)
(0.0235664 0.14079 0)
(0.0153495 0.135036 2.7694e-22)
(0.0107576 0.126028 -4.39309e-22)
(0.00679602 0.121532 2.01635e-22)
(0.00553826 0.119206 -6.20169e-23)
(0.0858235 0.0974676 -3.86589e-21)
(0.0740938 0.113989 9.59316e-22)
(0.0615939 0.121875 4.37262e-22)
(0.046519 0.124145 -2.01522e-22)
(0.0322885 0.12273 0)
(0.021189 0.115968 0)
(0.0131529 0.110425 0)
(0.00893223 0.101543 -2.42912e-22)
(0.00594067 0.0976642 0)
(0.00536117 0.0933096 0)
(0.0905621 0.0847654 0)
(0.0754372 0.0938535 1.97537e-22)
(0.0613279 0.0963935 -7.94582e-23)
(0.0451666 0.0965131 5.856e-22)
(0.0303858 0.0939112 -5.88596e-22)
(0.0190324 0.0877367 -3.30104e-22)
(0.0111506 0.0827228 3.68729e-22)
(0.00725402 0.074487 8.65254e-22)
(0.00495189 0.0710886 -7.34079e-23)
(0.00488963 0.0654317 3.22696e-23)
(0.0923671 0.0650624 0)
(0.075116 0.0680743 -1.17488e-22)
(0.0603026 0.0664032 7.29536e-23)
(0.0436088 0.0653044 0)
(0.0286644 0.0620649 -1.78663e-22)
(0.0172055 0.0568493 5.5406e-22)
(0.00941916 0.0525671 -4.53416e-22)
(0.00575423 0.0453815 -1.03673e-22)
(0.00390082 0.0425042 7.46585e-23)
(0.00423006 0.0364398 -5.98073e-23)
(0.0917086 0.0399147 4.13077e-22)
(0.0735911 0.0387251 -6.40844e-23)
(0.0588215 0.0338325 -5.10102e-23)
(0.0420415 0.0321605 -8.2431e-23)
(0.0271984 0.0285636 -1.85523e-22)
(0.0157454 0.0244542 -2.81788e-22)
(0.00799453 0.0210327 7.97388e-23)
(0.00448194 0.0152148 6.00026e-23)
(0.00289972 0.0130601 -7.49026e-23)
(0.00350587 0.00742942 -1.4415e-23)
(0.0891822 0.0116976 -3.19089e-23)
(0.0712635 0.0081238 3.22761e-23)
(0.0570537 0.000663862 4.28837e-23)
(0.040606 -0.00123829 8.2305e-23)
(0.0259722 -0.00509245 -9.54396e-23)
(0.0146522 -0.00809069 1.91201e-22)
(0.00690688 -0.0105454 -1.14407e-22)
(0.00350541 -0.0147565 -2.51073e-23)
(0.00206423 -0.0159597 0)
(0.00265325 -0.0205348 1.43837e-23)
(0.0854086 -0.0172753 3.10062e-23)
(0.0684901 -0.0217358 -3.13253e-23)
(0.0551608 -0.0314261 4.34581e-23)
(0.0392766 -0.0333933 8.14663e-23)
(0.0249863 -0.037467 9.42218e-23)
(0.0139101 -0.0394179 -2.76077e-24)
(0.0061991 -0.0408145 -4.31326e-23)
(0.00288129 -0.0432998 -9.15206e-23)
(0.00148555 -0.043428 0)
(0.00205149 -0.0466695 1.24813e-23)
(0.0809512 -0.0452059 0)
(0.0655488 -0.0494476 7.71243e-23)
(0.053244 -0.0611443 -1.98248e-22)
(0.0380218 -0.0631182 -8.15851e-23)
(0.0242543 -0.0673724 -1.78767e-22)
(0.0135115 -0.0683554 -2.69666e-22)
(0.00589349 -0.0686646 7.70521e-23)
(0.00262651 -0.069487 5.72021e-23)
(0.0011778 -0.0685966 -6.61324e-23)
(0.0015765 -0.0705797 -1.24466e-23)
(0.076219 -0.0708978 0)
(0.0626006 -0.0742155 -5.42168e-23)
(0.0513046 -0.0876538 7.72652e-23)
(0.0369181 -0.0896534 0)
(0.0237403 -0.0939704 5.24648e-22)
(0.0134502 -0.0941404 -1.70618e-22)
(0.0059631 -0.0934265 -1.57773e-22)
(0.00271109 -0.0928656 -3.39583e-22)
(0.0011027 -0.0911892 6.59163e-23)
(0.00121711 -0.092199 -4.24653e-23)
(0.0715096 -0.0937429 0)
(0.0597509 -0.0958082 5.46641e-23)
(0.0493574 -0.11056 0)
(0.0359999 -0.112697 -5.826e-22)
(0.023424 -0.116887 5.85637e-22)
(0.0136912 -0.116516 3.00315e-22)
(0.00634292 -0.114944 -1.78436e-23)
(0.00305451 -0.113451 3.30716e-22)
(0.00118879 -0.111312 6.24897e-23)
(0.000954067 -0.111688 6.28346e-23)
(0.0670374 -0.113616 3.18307e-21)
(0.0570863 -0.114447 -1.15018e-21)
(0.0474427 -0.129863 -3.42183e-22)
(0.035271 -0.132386 2.91917e-22)
(0.0232826 -0.136214 0)
(0.0141581 -0.135688 2.80831e-22)
(0.00693332 -0.133488 -5.32749e-23)
(0.00354188 -0.131585 -4.30171e-22)
(0.00135453 -0.129293 -1.95755e-23)
(0.000755835 -0.129332 1.95608e-23)
(0.0629325 -0.130721 1.08196e-21)
(0.0546923 -0.130681 1.43807e-21)
(0.0456221 -0.145873 -2.06035e-22)
(0.0347145 -0.149191 2.0592e-22)
(0.0232836 -0.152397 2.42366e-22)
(0.0147479 -0.152174 0)
(0.00762436 -0.149581 4.49893e-22)
(0.00406331 -0.147757 -2.45041e-22)
(0.00153788 -0.145534 -1.49094e-22)
(0.000596997 -0.14545 -3.35107e-23)
(0.0592881 -0.145396 -5.88201e-22)
(0.0526914 -0.145244 0)
(0.0439875 -0.159105 0)
(0.0343039 -0.163749 0)
(0.0233956 -0.166076 2.33994e-22)
(0.0153605 -0.166608 -4.75706e-22)
(0.00832392 -0.163815 -4.35087e-22)
(0.00453894 -0.162454 5.45882e-22)
(0.00170549 -0.160413 -3.47626e-23)
(0.000463643 -0.160347 6.75745e-23)
(0.0560199 -0.157919 -1.67455e-21)
(0.051096 -0.158908 7.33239e-22)
(0.0425717 -0.170162 -7.26388e-22)
(0.0339705 -0.176698 -5.84864e-22)
(0.0235892 -0.177928 7.54516e-22)
(0.0159291 -0.179585 0)
(0.00898686 -0.176724 1.9972e-22)
(0.0049345 -0.17608 -1.09616e-23)
(0.00185221 -0.174251 9.71536e-23)
(0.000351516 -0.174291 2.82362e-23)
(0.0523662 -0.168276 -6.93283e-22)
(0.0493482 -0.172353 0)
(0.0411418 -0.179687 -2.48818e-22)
(0.0334996 -0.188588 -2.5413e-22)
(0.0237898 -0.18857 2.37863e-22)
(0.0164037 -0.191583 9.14463e-23)
(0.00961761 -0.188729 -1.99266e-22)
(0.00527007 -0.188931 -3.28798e-23)
(0.00199973 -0.187296 -1.86273e-22)
(0.000261762 -0.187507 -5.74044e-23)
(0.0488729 -0.175904 -2.6293e-21)
(0.0473735 -0.186096 2.56264e-21)
(0.039845 -0.1884 8.48284e-23)
(0.0328279 -0.199878 0)
(0.0238797 -0.198544 0)
(0.0166511 -0.202967 -9.42666e-23)
(0.0101 -0.200141 -3.1797e-22)
(0.00550646 -0.201211 3.11946e-22)
(0.00213492 -0.199732 2.817e-23)
(0.000190469 -0.200185 -2.75375e-23)
(0.0532554 -0.185338 0)
(0.0490381 -0.218166 0)
(0.0410733 -0.208225 0)
(0.032808 -0.225766 0)
(0.0241204 -0.22168 0)
(0.0164416 -0.229504 0)
(0.0102318 -0.226862 0)
(0.00526796 -0.229918 0)
(0.00210478 -0.228514 0)
(6.8114e-05 -0.229442 0)
(0.0444087 -0.235477 0)
(0.0371558 -0.267608 0)
(0.0329695 -0.255367 0)
(0.0256845 -0.272749 0)
(0.0201772 -0.267298 0)
(0.0138084 -0.276474 0)
(0.00904534 -0.273436 0)
(0.00468602 -0.277476 0)
(0.00218465 -0.275345 0)
(4.5836e-05 -0.276729 0)
(0.0413286 -0.286434 0)
(0.032584 -0.318785 0)
(0.0284195 -0.304577 0)
(0.0213357 -0.323025 0)
(0.0168624 -0.315872 0)
(0.0113564 -0.326287 0)
(0.00781626 -0.321779 0)
(0.00423017 -0.326586 0)
(0.00215473 -0.323255 0)
(0.000102141 -0.325266 0)
(0.0363981 -0.34197 0)
(0.0276578 -0.374518 0)
(0.0241615 -0.358137 0)
(0.0175213 -0.377822 0)
(0.0141363 -0.368548 0)
(0.0094716 -0.38018 0)
(0.00691319 -0.373855 0)
(0.00391529 -0.379674 0)
(0.00217549 -0.37474 0)
(0.000168035 -0.377845 0)
(0.0312413 -0.405655 0)
(0.0233348 -0.438591 0)
(0.0201967 -0.420192 0)
(0.0143913 -0.441194 0)
(0.0118898 -0.429773 0)
(0.00796017 -0.442866 0)
(0.0061691 -0.434691 0)
(0.0036004 -0.44177 0)
(0.00215325 -0.435183 0)
(0.000192667 -0.439683 0)
(0.0262601 -0.482982 0)
(0.0191972 -0.515958 0)
(0.0165987 -0.496439 0)
(0.0116608 -0.51864 0)
(0.00992839 -0.505602 0)
(0.00657857 -0.520157 0)
(0.00540894 -0.510423 0)
(0.00310405 -0.518864 0)
(0.00197884 -0.510876 0)
(0.000122127 -0.517031 0)
(0.0205103 -0.578682 0)
(0.0151541 -0.609353 0)
(0.0130618 -0.59163 0)
(0.00913594 -0.613345 0)
(0.00782912 -0.600522 0)
(0.00504603 -0.615525 0)
(0.00421985 -0.605422 0)
(0.002125 -0.614745 0)
(0.00136564 -0.606292 0)
(-8.50869e-05 -0.613786 0)
(0.0161561 -0.687724 0)
(0.0114431 -0.711724 0)
(0.00949895 -0.699753 0)
(0.00620537 -0.717261 0)
(0.00526575 -0.707887 0)
(0.00300458 -0.720548 0)
(0.00238692 -0.712371 0)
(0.000607722 -0.72059 0)
(0.000349291 -0.713471 0)
(-0.000341629 -0.720755 0)
(0.00887776 -0.784624 0)
(0.00582105 -0.797395 0)
(0.00480952 -0.794422 0)
(0.00312688 -0.804907 0)
(0.00261631 -0.801458 0)
(0.00122431 -0.808637 0)
(0.000693924 -0.804211 0)
(-0.000432641 -0.808691 0)
(-0.000376904 -0.804404 0)
(-0.000372225 -0.808911 0)
(0.00160026 -0.836947 0)
(0.00106618 -0.846394 0)
(0.000998524 -0.848319 0)
(0.000863142 -0.853671 0)
(0.000677622 -0.853235 0)
(0.000307677 -0.856238 0)
(1.71075e-05 -0.854194 0)
(-0.00030745 -0.855651 0)
(-0.00028474 -0.853386 0)
(-0.000142694 -0.855311 0)
(0.0510303 -0.204924 4.16417e-21)
(0.0456157 -0.254899 -4.08776e-21)
(0.043486 -0.305682 6.01962e-22)
(0.0385277 -0.361484 0)
(0.0336169 -0.425358 0)
(0.0285144 -0.50237 8.66069e-22)
(0.0229165 -0.595537 -4.01841e-21)
(0.0174538 -0.696973 4.00109e-21)
(0.0109479 -0.787851 1.2e-21)
(0.00341762 -0.833001 -1.18753e-21)
(0.0506088 -0.212736 -4.94631e-21)
(0.0465134 -0.261753 0)
(0.0445066 -0.311764 4.30772e-21)
(0.0395357 -0.367281 -1.02418e-20)
(0.0347127 -0.431059 6.88529e-21)
(0.0295545 -0.5079 -7.8017e-22)
(0.0239929 -0.60007 1.89333e-21)
(0.018053 -0.699593 4.17573e-21)
(0.0118735 -0.787532 1.26664e-21)
(0.00424286 -0.832624 1.27607e-21)
(0.0507729 -0.220531 5.90061e-21)
(0.0479881 -0.268744 -4.55835e-21)
(0.045901 -0.317577 4.51509e-21)
(0.0408814 -0.372358 -5.87434e-21)
(0.0360742 -0.435755 4.32984e-21)
(0.030802 -0.512197 0)
(0.0251298 -0.603293 -1.89807e-21)
(0.0187772 -0.701193 1.62497e-22)
(0.0124722 -0.78613 -2.22098e-21)
(0.00464558 -0.83258 -2.42273e-21)
(0.0514826 -0.227442 -9.62369e-22)
(0.0499069 -0.275285 0)
(0.047674 -0.323193 0)
(0.0426075 -0.377306 0)
(0.0377435 -0.44031 5.30005e-21)
(0.0322905 -0.516267 -3.56337e-21)
(0.0263957 -0.606277 -5.07411e-23)
(0.0196445 -0.702406 -2.49268e-21)
(0.0128501 -0.784787 -1.28339e-21)
(0.00472569 -0.831397 -1.39201e-21)
(0.0528011 -0.233498 2.9947e-22)
(0.0521856 -0.280787 -3.08344e-21)
(0.0497611 -0.327955 -2.83471e-21)
(0.0446618 -0.381629 2.83298e-21)
(0.0396831 -0.444392 -1.7132e-21)
(0.0339979 -0.519949 0)
(0.0278225 -0.60898 -2.21962e-21)
(0.0206569 -0.70336 5.108e-21)
(0.013231 -0.783584 -2.64101e-21)
(0.00472015 -0.82914 2.70726e-21)
(0.054805 -0.238842 -8.36359e-21)
(0.0548571 -0.285185 6.86074e-22)
(0.0521656 -0.331551 -4.23893e-22)
(0.0470103 -0.384877 2.99029e-21)
(0.0418529 -0.447503 0)
(0.0358912 -0.522765 0)
(0.0294025 -0.610978 0)
(0.0218109 -0.703827 2.78921e-21)
(0.0137585 -0.782234 0)
(0.00478378 -0.826323 0)
(0.0575272 -0.243388 0)
(0.0579762 -0.288525 3.93883e-21)
(0.0549429 -0.333991 -2.68874e-21)
(0.0496694 -0.38694 -3.68975e-21)
(0.044254 -0.449431 3.709e-21)
(0.0379654 -0.524441 2.42982e-21)
(0.0311256 -0.611977 -2.38565e-21)
(0.0230951 -0.703581 -1.00071e-20)
(0.0144571 -0.78051 7.10955e-22)
(0.00495179 -0.823319 -2.55795e-21)
(0.0609816 -0.246959 0)
(0.0615718 -0.290755 -1.25357e-21)
(0.0581412 -0.335303 -7.91166e-22)
(0.0526723 -0.387844 0)
(0.0469157 -0.450164 1.1737e-21)
(0.0402448 -0.524921 -3.54088e-21)
(0.0330058 -0.611876 4.12211e-21)
(0.0245141 -0.702493 1.51753e-21)
(0.0153062 -0.77829 -1.71346e-21)
(0.00520944 -0.820217 3.37986e-21)
(0.0651857 -0.249409 1.0097e-21)
(0.0656584 -0.291787 1.48013e-21)
(0.0617852 -0.335449 -2.8563e-22)
(0.0560408 -0.387591 4.97936e-22)
(0.0498681 -0.449728 1.09282e-21)
(0.0427597 -0.524248 1.92468e-21)
(0.0350643 -0.610735 -7.56198e-22)
(0.0260679 -0.700607 -8.40571e-22)
(0.0162639 -0.775594 1.71913e-21)
(0.00551998 -0.81699 9.56996e-22)
(0.0701613 -0.250626 -3.17555e-22)
(0.0702495 -0.291561 3.20019e-22)
(0.0658875 -0.334372 -4.17803e-22)
(0.0597845 -0.386145 -4.97334e-22)
(0.0531301 -0.448104 6.41473e-22)
(0.0455349 -0.522423 -1.3158e-21)
(0.0373323 -0.608554 1.1663e-21)
(0.0277845 -0.697912 4.28114e-22)
(0.0173352 -0.772397 0)
(0.00588289 -0.813536 -9.59097e-22)
(0.0759308 -0.250531 3.32377e-22)
(0.0753562 -0.290072 -3.3512e-22)
(0.0704562 -0.332052 -4.701e-22)
(0.063909 -0.383481 -5.61466e-22)
(0.0567155 -0.44528 -6.81632e-22)
(0.0485825 -0.519478 -6.65663e-23)
(0.0398138 -0.605427 4.17975e-22)
(0.0296542 -0.694537 1.38535e-21)
(0.018496 -0.768792 0)
(0.00627585 -0.809857 -1.07587e-21)
(0.0825102 -0.249099 0)
(0.0809804 -0.28738 -1.74871e-21)
(0.0754989 -0.328502 3.23115e-21)
(0.0684191 -0.379613 5.6246e-22)
(0.0606322 -0.44124 1.3934e-21)
(0.0519178 -0.51535 2.35391e-21)
(0.042543 -0.60123 -8.52577e-22)
(0.0317268 -0.69034 -9.45797e-22)
(0.0197978 -0.764668 2.16819e-21)
(0.00673465 -0.80587 1.07332e-21)
(0.0898963 -0.246397 0)
(0.0871183 -0.283591 -1.69564e-21)
(0.0810184 -0.323819 -1.0014e-21)
(0.073318 -0.374598 0)
(0.0648978 -0.436046 -4.46656e-21)
(0.0555407 -0.510168 1.49164e-21)
(0.04549 -0.596177 1.87102e-21)
(0.0339501 -0.685549 6.1935e-21)
(0.0211818 -0.760199 -2.16118e-21)
(0.00721103 -0.801676 4.78005e-21)
(0.0980698 -0.242558 0)
(0.093762 -0.278778 1.71023e-21)
(0.0870239 -0.318049 0)
(0.078614 -0.368512 5.62907e-21)
(0.0695145 -0.429699 -5.65792e-21)
(0.0594842 -0.503764 -3.69264e-21)
(0.0487359 -0.589937 -1.05164e-22)
(0.0364269 -0.679761 -6.43017e-21)
(0.0227499 -0.755108 -1.06807e-21)
(0.00778352 -0.797112 -5.94558e-21)
(0.107003 -0.237775 1.09295e-20)
(0.100914 -0.273006 -4.24049e-21)
(0.0934789 -0.311502 9.0446e-22)
(0.0843051 -0.361392 -5.06728e-21)
(0.0745199 -0.422306 0)
(0.0637299 -0.49641 -3.90357e-21)
(0.0521907 -0.583028 -4.31415e-22)
(0.0390111 -0.673614 8.79839e-21)
(0.0243418 -0.749814 1.24948e-21)
(0.00832982 -0.792413 -1.254e-21)
(0.116656 -0.232192 -2.30086e-21)
(0.108547 -0.266327 8.70723e-21)
(0.100429 -0.303947 5.34852e-21)
(0.0904789 -0.352975 -5.34485e-21)
(0.0799254 -0.413626 -3.47991e-21)
(0.0683602 -0.48767 0)
(0.0560169 -0.574662 -9.0423e-21)
(0.0419502 -0.666192 4.52472e-21)
(0.0262163 -0.743685 4.96314e-21)
(0.00903688 -0.787221 5.47337e-21)
(0.126958 -0.226348 -1.52553e-21)
(0.11672 -0.258723 0)
(0.107835 -0.295656 0)
(0.0970215 -0.344083 0)
(0.0856197 -0.404573 -4.18255e-21)
(0.0731974 -0.478794 7.64886e-21)
(0.0599272 -0.566455 9.26696e-21)
(0.0448466 -0.659095 -1.48263e-20)
(0.0279784 -0.737726 2.7327e-21)
(0.00960892 -0.78206 -8.12815e-21)
(0.137826 -0.219678 -1.40581e-21)
(0.125595 -0.24962 9.71418e-21)
(0.115673 -0.286186 -9.6213e-21)
(0.104077 -0.333753 1.40547e-20)
(0.0918605 -0.393652 -1.7765e-20)
(0.0786305 -0.467626 0)
(0.0644802 -0.5557 -4.9008e-21)
(0.0483893 -0.649755 -2.5767e-22)
(0.0302656 -0.730394 -5.73476e-21)
(0.010504 -0.776113 -5.91083e-21)
(0.148791 -0.213946 -1.60339e-21)
(0.134695 -0.241751 0)
(0.123473 -0.278149 -1.3972e-20)
(0.111109 -0.325091 2.71475e-20)
(0.09799 -0.384769 -1.07057e-20)
(0.0838269 -0.458939 -2.28128e-21)
(0.0686508 -0.547632 4.89045e-21)
(0.0514379 -0.642618 -3.39512e-22)
(0.0320851 -0.724168 8.30982e-21)
(0.0110022 -0.77059 8.74469e-21)
(0.161382 -0.203467 -7.78771e-21)
(0.145795 -0.229284 7.62319e-21)
(0.132849 -0.265268 1.42813e-21)
(0.119674 -0.311155 0)
(0.105649 -0.370013 0)
(0.0905842 -0.443867 2.19953e-21)
(0.0743961 -0.533318 1.04294e-20)
(0.0559632 -0.630642 -1.01309e-20)
(0.0350498 -0.715308 -2.86888e-21)
(0.0122403 -0.763626 2.81128e-21)
(0.174923 -0.209376 0)
(0.170063 -0.227011 0)
(0.150605 -0.262794 0)
(0.135301 -0.306859 0)
(0.119159 -0.363815 0)
(0.102013 -0.435828 0)
(0.0835959 -0.523106 0)
(0.0626567 -0.618171 0)
(0.0389531 -0.701364 0)
(0.0127336 -0.749866 0)
(0.204932 -0.189268 0)
(0.212077 -0.211497 0)
(0.180599 -0.250853 0)
(0.165828 -0.293787 0)
(0.146205 -0.350695 0)
(0.125949 -0.421603 0)
(0.10395 -0.506357 0)
(0.0785819 -0.597088 0)
(0.049571 -0.674781 0)
(0.0180565 -0.71789 0)
(0.242278 -0.165182 0)
(0.252269 -0.186004 0)
(0.210673 -0.226171 0)
(0.200387 -0.268722 0)
(0.176345 -0.325632 0)
(0.152844 -0.394787 0)
(0.12616 -0.476559 0)
(0.0950116 -0.563563 0)
(0.0591493 -0.638753 0)
(0.0190121 -0.683158 0)
(0.285999 -0.145409 0)
(0.296583 -0.164744 0)
(0.250811 -0.208349 0)
(0.245505 -0.250764 0)
(0.214499 -0.306443 0)
(0.188088 -0.372826 0)
(0.156116 -0.450352 0)
(0.118392 -0.530946 0)
(0.0747383 -0.598419 0)
(0.0273606 -0.634524 0)
(0.33907 -0.121412 0)
(0.349929 -0.142037 0)
(0.301004 -0.184603 0)
(0.296429 -0.221109 0)
(0.256019 -0.272579 0)
(0.226935 -0.334692 0)
(0.187371 -0.40658 0)
(0.141119 -0.481334 0)
(0.0875492 -0.545071 0)
(0.0273026 -0.583679 0)
(0.408264 -0.10821 0)
(0.416409 -0.12914 0)
(0.363946 -0.166688 0)
(0.36002 -0.198754 0)
(0.310732 -0.249331 0)
(0.2803 -0.306227 0)
(0.230473 -0.370718 0)
(0.173884 -0.435132 0)
(0.109258 -0.487407 0)
(0.0411881 -0.512739 0)
(0.488412 -0.0831506 0)
(0.489846 -0.100829 0)
(0.437468 -0.131596 0)
(0.430525 -0.160006 0)
(0.369279 -0.205348 0)
(0.335977 -0.251241 0)
(0.267831 -0.304162 0)
(0.199668 -0.357638 0)
(0.121753 -0.407249 0)
(0.0343449 -0.440677 0)
(0.589214 -0.0714106 0)
(0.582837 -0.0865517 0)
(0.534766 -0.112451 0)
(0.516095 -0.136433 0)
(0.448026 -0.173223 0)
(0.407392 -0.206727 0)
(0.320479 -0.248961 0)
(0.245518 -0.2918 0)
(0.15197 -0.330962 0)
(0.0643889 -0.340721 0)
(0.681799 -0.0374112 0)
(0.664888 -0.0458006 0)
(0.61224 -0.0616461 0)
(0.576511 -0.0756279 0)
(0.501655 -0.0977767 0)
(0.445074 -0.115065 0)
(0.340326 -0.142136 0)
(0.253059 -0.167931 0)
(0.131418 -0.200109 0)
(0.0116306 -0.245004 0)
(0.865001 -0.0193414 0)
(0.84159 -0.0233204 0)
(0.796662 -0.0295422 0)
(0.75319 -0.0361309 0)
(0.686784 -0.0453102 0)
(0.618761 -0.054188 0)
(0.518619 -0.0683431 0)
(0.413999 -0.0846733 0)
(0.27377 -0.11326 0)
(0.173872 -0.166515 0)
(0.211131 -0.187594 6.56709e-21)
(0.247136 -0.166276 -6.47859e-21)
(0.285473 -0.141822 1.34975e-21)
(0.326278 -0.122936 0)
(0.376921 -0.101567 0)
(0.442984 -0.0901856 2.5082e-21)
(0.521674 -0.0685684 -1.25137e-20)
(0.617046 -0.0589385 1.24398e-20)
(0.70918 -0.0290516 3.74418e-21)
(0.884241 -0.0161135 -3.75648e-21)
(0.222102 -0.178641 -4.28671e-21)
(0.257578 -0.15691 0)
(0.295778 -0.132555 9.95262e-21)
(0.33624 -0.114036 -2.49949e-20)
(0.386714 -0.0937033 1.75649e-20)
(0.452479 -0.083089 -2.28391e-21)
(0.531223 -0.0627927 5.08562e-21)
(0.625377 -0.0539244 1.17909e-20)
(0.717975 -0.0256673 3.43874e-21)
(0.890623 -0.0147477 3.3267e-21)
(0.231509 -0.168362 4.61465e-21)
(0.26573 -0.14694 -8.11886e-21)
(0.302865 -0.123209 8.04239e-21)
(0.342804 -0.105188 -1.37362e-20)
(0.393107 -0.085931 9.85477e-21)
(0.458856 -0.0761305 0)
(0.537703 -0.0571979 -5.09821e-21)
(0.631226 -0.0491899 -9.83394e-23)
(0.724712 -0.0225886 -6.25745e-21)
(0.895641 -0.0134777 -6.62264e-21)
(0.241233 -0.157218 -8.78761e-22)
(0.275833 -0.136511 0)
(0.31161 -0.113654 0)
(0.350685 -0.0962733 0)
(0.400415 -0.0781651 1.1658e-20)
(0.465869 -0.0692353 -8.01134e-21)
(0.544583 -0.0517249 -4.10218e-22)
(0.637395 -0.0446878 -5.98501e-21)
(0.731451 -0.0197863 -3.1499e-21)
(0.90057 -0.0123023 -3.21949e-21)
(0.25028 -0.145566 2.63355e-21)
(0.286198 -0.125853 -2.91622e-21)
(0.320752 -0.103956 -5.03952e-21)
(0.359156 -0.0873416 5.03669e-21)
(0.408284 -0.0704166 -3.59504e-21)
(0.473426 -0.0624122 0)
(0.552025 -0.0463609 -4.93836e-21)
(0.644166 -0.0403601 1.13823e-20)
(0.738513 -0.017177 -5.76635e-21)
(0.905608 -0.0111921 6.43147e-21)
(0.258165 -0.133402 -4.93479e-21)
(0.295453 -0.114985 -9.15272e-22)
(0.329091 -0.0941689 -1.42518e-21)
(0.366805 -0.0784727 4.80468e-21)
(0.415422 -0.0627493 0)
(0.480387 -0.0557245 0)
(0.559054 -0.0411527 0)
(0.650762 -0.03621 5.31858e-21)
(0.745386 -0.0147166 0)
(0.910445 -0.0101276 0)
(0.264772 -0.120619 0)
(0.303369 -0.103848 4.2738e-21)
(0.336447 -0.0842661 -3.14061e-21)
(0.373265 -0.0696272 -5.94002e-21)
(0.421266 -0.0551782 5.97112e-21)
(0.486104 -0.049191 4.28742e-21)
(0.564971 -0.036122 -3.94491e-21)
(0.656505 -0.0322587 -1.82202e-20)
(0.751548 -0.0124053 1.28154e-21)
(0.91473 -0.0091093 -4.50107e-21)
(0.269927 -0.107143 0)
(0.31001 -0.0923735 -1.13998e-21)
(0.342744 -0.0742079 -8.91356e-22)
(0.37869 -0.060733 0)
(0.425849 -0.0476451 1.95061e-21)
(0.490493 -0.0427777 -5.48949e-21)
(0.569582 -0.0312344 6.96655e-21)
(0.661089 -0.0284918 2.79096e-21)
(0.756681 -0.0102379 -2.76398e-21)
(0.918274 -0.00813528 6.01222e-21)
(0.273407 -0.0929 -9.28555e-23)
(0.315278 -0.0804869 1.3471e-21)