/*--------------------------------*- C++ -*----------------------------------*\
  =========                 |
  \\      /  F ield         | OpenFOAM: The Open Source CFD Toolbox
   \\    /   O peration     | Website:  https://openfoam.org
    \\  /    A nd           | Version:  7
     \\/     M anipulation  |
\*---------------------------------------------------------------------------*/
FoamFile
{
    version     2.0;
    format      ascii;
    class       volScalarField;
    location    "3";
    object      p;
}
// * * * * * * * * * * * * * * * * * * * * * * * * * * * * * * * * * * * * * //

dimensions      [0 2 -2 0 0 0 0];

internalField   nonuniform List<scalar> 
2000
(
0.454854
0.45696
0.461315
0.466533
0.471506
0.475613
0.478724
0.480983
0.482625
0.483863
0.454288
0.456303
0.460667
0.465738
0.470522
0.474414
0.477291
0.479294
0.480654
0.481582
0.453248
0.455291
0.459574
0.464516
0.469123
0.472838
0.475539
0.477349
0.478479
0.479138
0.451662
0.453802
0.45798
0.462732
0.467144
0.470705
0.473283
0.47497
0.475941
0.476402
0.449479
0.451791
0.45581
0.460293
0.464468
0.467879
0.470377
0.472005
0.472891
0.473244
0.446682
0.449262
0.453042
0.457177
0.461065
0.464315
0.466751
0.468363
0.469218
0.469551
0.443294
0.446251
0.449726
0.453447
0.457001
0.460065
0.46243
0.464036
0.464878
0.465235
0.439391
0.442824
0.445961
0.449225
0.452413
0.455247
0.457486
0.45905
0.459882
0.46028
0.435071
0.439049
0.441853
0.444659
0.447453
0.449977
0.451954
0.453326
0.454074
0.45462
0.430399
0.435011
0.437498
0.43987
0.442256
0.444366
0.44587
0.446686
0.446818
0.447254
0.48583
0.489175
0.490785
0.49483
0.494705
0.500506
0.49819
0.503661
0.501402
0.503957
0.482789
0.486165
0.487638
0.491689
0.491629
0.497413
0.495283
0.500679
0.498613
0.501106
0.479554
0.483031
0.484362
0.488429
0.4884
0.494222
0.492255
0.497612
0.495723
0.498167
0.476049
0.479738
0.480955
0.485031
0.485023
0.490926
0.489097
0.494452
0.492724
0.495133
0.472201
0.476283
0.47743
0.48151
0.481534
0.487539
0.485827
0.491204
0.489622
0.492003
0.467942
0.472649
0.473789
0.477872
0.477968
0.484066
0.482465
0.487875
0.486424
0.488778
0.463231
0.468794
0.470012
0.474106
0.474344
0.480503
0.479031
0.484465
0.483139
0.48545
0.4581
0.464673
0.466086
0.470196
0.470643
0.476799
0.475519
0.480948
0.479767
0.482015
0.45268
0.460268
0.462039
0.466202
0.466946
0.472998
0.471993
0.477324
0.476321
0.478423
0.447309
0.455603
0.457829
0.462032
0.463101
0.468947
0.468403
0.473525
0.47281
0.474756
0.436933
0.445912
0.449348
0.453415
0.455319
0.459708
0.460228
0.464052
0.464219
0.464903
0.409446
0.421115
0.426785
0.432731
0.436633
0.442066
0.443577
0.44741
0.44799
0.450549
0.379732
0.39342
0.400261
0.407427
0.413119
0.420154
0.423158
0.427306
0.427742
0.426771
0.344844
0.360301
0.36829
0.376748
0.38366
0.392073
0.396095
0.401768
0.40531
0.410859
0.30569
0.323067
0.332706
0.342387
0.351123
0.360547
0.366937
0.372505
0.371454
0.370891
0.260539
0.279675
0.290259
0.301116
0.310343
0.320263
0.325994
0.330101
0.338645
0.34853
0.211463
0.231675
0.244098
0.256041
0.266882
0.277864
0.284358
0.288574
0.281231
0.292306
0.155406
0.175164
0.186242
0.196987
0.207153
0.217044
0.225297
0.230377
0.235778
0.246269
0.091998
0.111743
0.123967
0.132992
0.138539
0.143855
0.1465
0.149731
0.161305
0.172316
0.0249296
0.0383695
0.0451928
0.0509192
0.0542108
0.0590685
0.0597053
0.0623786
0.0636271
0.0679578
0.423412
0.391988
0.361114
0.324657
0.284598
0.23817
0.190376
0.134197
0.0752566
0.0126676
0.416206
0.383985
0.35263
0.315842
0.275531
0.228885
0.18153
0.125476
0.0679848
0.00761214
0.40895
0.377053
0.345109
0.308164
0.267629
0.220895
0.173742
0.117809
0.0616981
0.00294407
0.401744
0.370567
0.33797
0.300867
0.260125
0.21334
0.166249
0.11039
0.0558386
-0.00163148
0.394928
0.364686
0.331439
0.294077
0.253119
0.206232
0.159005
0.10317
0.0502578
-0.00641065
0.388761
0.359406
0.325516
0.287742
0.246556
0.199499
0.151967
0.0961701
0.0447386
-0.0120734
0.383537
0.354907
0.320393
0.282046
0.240594
0.193279
0.145274
0.0895839
0.039272
-0.0188363
0.379563
0.351381
0.316266
0.277182
0.235362
0.187665
0.139032
0.0835192
0.0340428
-0.0250346
0.377111
0.349018
0.313364
0.273385
0.23102
0.18277
0.133376
0.0780507
0.0295039
-0.0271873
0.37629
0.347839
0.311718
0.270688
0.227586
0.178617
0.128362
0.0732366
0.0260754
-0.0263091
0.376983
0.34769
0.311128
0.268916
0.224972
0.175172
0.123969
0.0690597
0.0237404
-0.024707
0.379067
0.348549
0.311493
0.268
0.223186
0.17242
0.120116
0.0653122
0.0216373
-0.0220362
0.382548
0.350601
0.312943
0.268013
0.222293
0.170275
0.116623
0.0617218
0.019259
-0.0191935
0.387391
0.354033
0.315492
0.268844
0.221998
0.168328
0.11314
0.0580639
0.0165782
-0.0164852
0.393407
0.358421
0.318463
0.270215
0.221634
0.166073
0.109504
0.0543599
0.0138918
-0.0139543
0.400007
0.363102
0.321415
0.271622
0.221159
0.163955
0.106419
0.0510834
0.0114736
-0.0116778
0.406802
0.36855
0.325525
0.274611
0.223056
0.164533
0.105616
0.0494486
0.00968363
-0.00969606
0.415471
0.378104
0.33467
0.283443
0.231106
0.171031
0.109586
0.0504672
0.00877903
-0.00801816
0.427842
0.393432
0.349835
0.298321
0.244196
0.181996
0.116938
0.0534133
0.00865594
-0.00659508
0.435217
0.402807
0.357055
0.303515
0.246695
0.182829
0.116411
0.0524042
0.00819232
-0.00522502
0.432753
0.402834
0.349148
0.289623
0.227865
0.16205
0.0969772
0.0403106
0.00593423
-0.000749498
0.441992
0.40138
0.343134
0.276598
0.208624
0.139315
0.0764379
0.0267228
0.00317764
0.0018222
0.452296
0.405268
0.341696
0.268968
0.194335
0.123339
0.0645083
0.0249642
0.0100219
0.00380695
0.463742
0.411872
0.342086
0.26271
0.182098
0.110478
0.0564997
0.0260259
0.0155801
0.00487782
0.48136
0.425709
0.347954
0.25914
0.173078
0.103829
0.0582599
0.0360408
0.0241589
0.00641896
0.505642
0.442854
0.353387
0.255502
0.169085
0.106485
0.0693696
0.0509265
0.0335973
0.0100568
0.52826
0.459883
0.3633
0.262593
0.179317
0.122018
0.0883804
0.0667607
0.0414363
0.0139501
0.561962
0.497208
0.396486
0.29049
0.203411
0.143993
0.106752
0.0783991
0.0471618
0.0164251
0.620868
0.551417
0.43783
0.32381
0.231352
0.164366
0.121177
0.0873697
0.0508691
0.0155254
0.651782
0.587856
0.472325
0.350143
0.251145
0.178311
0.131308
0.0923638
0.0520478
0.0149608
0.470613
0.476756
0.484106
0.495001
0.510528
0.533281
0.557195
0.579215
0.634432
0.656954
0.480471
0.489593
0.496997
0.508468
0.523877
0.545682
0.570505
0.587057
0.640129
0.656577
0.490484
0.500154
0.507892
0.520329
0.536335
0.557562
0.582865
0.596767
0.645503
0.655903
0.500615
0.509841
0.517277
0.530198
0.546329
0.566794
0.591976
0.604533
0.648292
0.65498
0.510242
0.519132
0.526152
0.53911
0.554791
0.574136
0.598681
0.609775
0.648949
0.653457
0.519078
0.527637
0.53449
0.54737
0.562422
0.580493
0.604186
0.613498
0.648654
0.651527
0.527029
0.535154
0.541992
0.554726
0.569195
0.586017
0.608853
0.616414
0.647999
0.649425
0.534066
0.541734
0.54861
0.561061
0.574996
0.590588
0.612576
0.618627
0.64702
0.647228
0.540169
0.547443
0.554417
0.566461
0.579894
0.594244
0.615369
0.620128
0.645704
0.644991
0.545345
0.552321
0.55946
0.571032
0.584012
0.597136
0.617406
0.621042
0.644166
0.642792
0.549648
0.556424
0.563769
0.574839
0.587426
0.599379
0.618841
0.621522
0.64254
0.640686
0.553164
0.559816
0.567383
0.577933
0.59018
0.601044
0.619758
0.621655
0.640889
0.638695
0.555988
0.562565
0.570361
0.580394
0.592346
0.60221
0.620234
0.621499
0.63923
0.63682
0.558176
0.564726
0.572749
0.582305
0.593998
0.602967
0.62035
0.621116
0.63757
0.635048
0.559776
0.566352
0.574575
0.583721
0.595187
0.603375
0.620162
0.620552
0.635898
0.633357
0.560865
0.567524
0.575889
0.584698
0.595959
0.603483
0.619707
0.619839
0.634199
0.631722
0.561519
0.56833
0.576781
0.585317
0.596373
0.60335
0.619034
0.61901
0.632466
0.630129
0.561789
0.568827
0.57733
0.585661
0.596495
0.603035
0.618196
0.618105
0.630704
0.628573
0.561766
0.569069
0.577599
0.585798
0.596386
0.602586
0.617225
0.617153
0.628919
0.627048
0.561437
0.569029
0.577578
0.585722
0.596067
0.60201
0.616136
0.616176
0.627114
0.625566
0.559185
0.568322
0.576572
0.585246
0.59474
0.600578
0.613255
0.613617
0.622792
0.621932
0.564465
0.571849
0.578737
0.58627
0.594259
0.59826
0.610014
0.608613
0.617463
0.61596
0.569085
0.575715
0.581807
0.588082
0.594717
0.596817
0.60739
0.604268
0.612547
0.610443
0.570781
0.576606
0.58228
0.587904
0.594018
0.594998
0.604734
0.600624
0.608032
0.605577
0.572818
0.577661
0.582466
0.587221
0.592738
0.592627
0.601635
0.596928
0.603477
0.600816
0.573864
0.578173
0.582384
0.586449
0.59146
0.590364
0.598568
0.59329
0.59888
0.595945
0.574338
0.578198
0.581938
0.585469
0.590088
0.588264
0.595646
0.589852
0.59431
0.591034
0.574349
0.577961
0.581325
0.584434
0.588624
0.586347
0.592836
0.58653
0.589569
0.584398
0.574071
0.577604
0.580656
0.583508
0.587024
0.584207
0.590162
0.583198
0.58397
0.580609
0.574087
0.577662
0.580754
0.583676
0.585452
0.585353
0.58878
0.581872
0.585269
0.55755
0.554721
0.561157
0.565732
0.567669
0.570439
0.571512
0.572299
0.572421
0.572699
0.571973
0.553141
0.560303
0.564684
0.566637
0.569557
0.570584
0.571453
0.571581
0.572049
0.571015
0.551979
0.559528
0.563838
0.56578
0.568713
0.569667
0.570579
0.570684
0.571228
0.569955
0.55106
0.558322
0.562812
0.564855
0.567808
0.568746
0.569699
0.569785
0.570341
0.568916
0.550383
0.556972
0.561735
0.563898
0.566884
0.567845
0.568837
0.568912
0.569448
0.567968
0.549799
0.555651
0.560703
0.562956
0.565968
0.566972
0.567994
0.568069
0.568552
0.567115
0.549175
0.554375
0.559697
0.562025
0.565059
0.566124
0.567165
0.567256
0.56764
0.566332
0.548418
0.553116
0.558697
0.561106
0.564162
0.565303
0.566357
0.566478
0.566725
0.565588
0.547434
0.551845
0.557695
0.560208
0.563289
0.564518
0.565582
0.565739
0.565832
0.564872
0.54608
0.550641
0.556679
0.559339
0.562445
0.563773
0.564844
0.565051
0.564978
0.564202
0.544441
0.549426
0.555629
0.558498
0.561629
0.563072
0.564158
0.56441
0.564172
0.563596
0.542595
0.548209
0.554526
0.557686
0.560834
0.56242
0.563524
0.563825
0.563426
0.563071
0.540575
0.546995
0.553368
0.556892
0.560061
0.561806
0.562945
0.563305
0.562753
0.562642
0.538436
0.545747
0.552178
0.556092
0.559316
0.561231
0.562424
0.562853
0.562163
0.562316
0.53622
0.544461
0.550945
0.555297
0.558593
0.560696
0.56196
0.562471
0.561666
0.562094
0.533946
0.543152
0.549663
0.55451
0.557889
0.560198
0.561554
0.562159
0.56127
0.561973
0.531648
0.541801
0.548348
0.553718
0.557204
0.559734
0.561204
0.561915
0.560978
0.561954
0.529313
0.54037
0.547002
0.552906
0.556534
0.559299
0.560907
0.561735
0.56079
0.562018
0.527027
0.538883
0.545646
0.552059
0.555875
0.558879
0.560654
0.561609
0.560694
0.562173
0.524419
0.537108
0.544196
0.551125
0.555223
0.558477
0.560454
0.561546
0.56072
0.562349
0.520533
0.533254
0.541903
0.549335
0.554136
0.557875
0.560324
0.561767
0.561882
0.563106
0.525157
0.533813
0.541966
0.549549
0.554128
0.55825
0.560997
0.562744
0.563595
0.564114
0.528144
0.534437
0.54255
0.550115
0.55452
0.559007
0.562016
0.564028
0.5651
0.56514
0.530801
0.536453
0.544114
0.55185
0.556405
0.561342
0.564691
0.566839
0.567702
0.567749
0.529136
0.535381
0.542802
0.550612
0.555261
0.560446
0.564275
0.567158
0.56899
0.569457
0.534917
0.541212
0.548424
0.556309
0.561634
0.567338
0.571682
0.574556
0.575506
0.5755
0.530741
0.537802
0.544822
0.552724
0.558225
0.564125
0.569125
0.573293
0.576275
0.580111
0.536701
0.543932
0.551207
0.55921
0.565976
0.573169
0.579857
0.585087
0.588552
0.594426
0.533417
0.541216
0.548213
0.556067
0.562843
0.570034
0.577782
0.585329
0.588616
0.612883
0.536011
0.543916
0.551191
0.55926
0.567054
0.575909
0.585951
0.59813
0.614395
0.659889
0.513401
0.516554
0.517512
0.521915
0.519503
0.52725
0.522336
0.529798
0.526097
0.529272
0.51074
0.513259
0.514047
0.51867
0.516354
0.524278
0.519402
0.527076
0.52328
0.526547
0.508345
0.511051
0.512287
0.516647
0.514709
0.522098
0.517474
0.524832
0.520978
0.5242
0.505638
0.508733
0.510318
0.514618
0.513018
0.519962
0.515677
0.522597
0.518831
0.521935
0.502804
0.506108
0.507846
0.512159
0.510845
0.517522
0.513576
0.520156
0.516566
0.519572
0.499982
0.503372
0.505179
0.509447
0.508403
0.514857
0.511228
0.517559
0.514179
0.517113
0.497181
0.500616
0.502463
0.506662
0.505869
0.512107
0.508783
0.514895
0.511737
0.514601
0.494383
0.497832
0.49968
0.503821
0.503248
0.509309
0.50628
0.512186
0.509257
0.512046
0.491577
0.495001
0.496804
0.500897
0.50051
0.506449
0.50369
0.509414
0.506718
0.509426
0.488741
0.492114
0.493837
0.497895
0.49766
0.503516
0.500992
0.506572
0.504101
0.50673
0.425444
0.430751
0.432958
0.434954
0.436938
0.438556
0.43944
0.439414
0.438151
0.435461
0.420272
0.426301
0.428285
0.429994
0.431617
0.432721
0.432949
0.432111
0.429995
0.426718
0.414976
0.421689
0.423546
0.425098
0.426434
0.427068
0.426708
0.425227
0.422604
0.418933
0.409668
0.416975
0.418861
0.420413
0.421564
0.42181
0.420958
0.418977
0.415956
0.411953
0.404498
0.412273
0.414407
0.41613
0.417201
0.417148
0.415899
0.413519
0.410139
0.405812
0.399657
0.407765
0.41041
0.412464
0.413543
0.413269
0.411699
0.408987
0.405261
0.400634
0.395364
0.403701
0.407116
0.409625
0.410775
0.410339
0.408508
0.405504
0.401455
0.396561
0.391859
0.400378
0.404763
0.407803
0.409057
0.4085
0.406457
0.403196
0.398865
0.393742
0.389386
0.398103
0.403564
0.407149
0.408517
0.407874
0.405659
0.402174
0.397619
0.392304
0.388123
0.397128
0.403684
0.407778
0.409251
0.408545
0.406194
0.402521
0.397804
0.392319
0.38815
0.397625
0.405239
0.409762
0.411309
0.410551
0.408089
0.404272
0.399455
0.393815
0.389927
0.399866
0.408338
0.41314
0.414699
0.413876
0.411306
0.407378
0.402531
0.396815
0.393561
0.403897
0.412981
0.41789
0.419376
0.418444
0.415743
0.411715
0.406866
0.401185
0.399149
0.409741
0.419155
0.423968
0.425268
0.424147
0.421269
0.417154
0.412347
0.406414
0.406728
0.417345
0.426805
0.431299
0.432273
0.430873
0.427762
0.423543
0.418752
0.412673
0.416235
0.426612
0.43581
0.439766
0.44029
0.438516
0.435122
0.430778
0.425986
0.41976
0.427529
0.43742
0.445932
0.44921
0.449179
0.446967
0.44327
0.438788
0.433918
0.427389
0.440455
0.449376
0.456956
0.459424
0.458776
0.456108
0.452117
0.447437
0.442282
0.435389
0.454633
0.46214
0.468608
0.470172
0.468892
0.465812
0.461567
0.456568
0.450866
0.443891
0.469576
0.475407
0.480578
0.481181
0.4793
0.47592
0.471556
0.466301
0.460234
0.453555
0.484838
0.488817
0.49255
0.492162
0.489718
0.486144
0.481851
0.476668
0.470815
0.4674
0.500029
0.502005
0.504216
0.502842
0.499866
0.496091
0.491814
0.486874
0.481863
0.479595
0.514615
0.514585
0.515287
0.512989
0.509549
0.505631
0.501449
0.496904
0.492605
0.490632
0.528152
0.526221
0.525507
0.522382
0.518559
0.514561
0.510548
0.506449
0.502734
0.500962
0.540268
0.536634
0.534664
0.530846
0.52674
0.522737
0.518949
0.515298
0.5121
0.510547
0.550673
0.54561
0.542598
0.538247
0.533969
0.53004
0.526525
0.523333
0.52064
0.519311
0.55917
0.553008
0.549204
0.544497
0.540164
0.536386
0.533184
0.530458
0.528272
0.527181
0.565653
0.558755
0.554433
0.549557
0.545288
0.541732
0.538875
0.536614
0.534925
0.534092
0.570104
0.562843
0.558284
0.553427
0.54934
0.546075
0.543589
0.541781
0.540568
0.54001
0.572582
0.565319
0.560801
0.556145
0.552355
0.549444
0.547354
0.545985
0.545218
0.544947
0.573225
0.566281
0.562065
0.557786
0.554395
0.551898
0.550223
0.54928
0.548935
0.548958
0.5722
0.56585
0.562172
0.558432
0.55554
0.55351
0.552273
0.551748
0.5518
0.552124
0.569694
0.564174
0.561244
0.558188
0.555884
0.55437
0.553588
0.553471
0.553895
0.554522
0.565914
0.561412
0.559411
0.557166
0.555526
0.554567
0.554255
0.554536
0.555301
0.55622
0.561075
0.55773
0.5568
0.555471
0.554559
0.55419
0.554359
0.55503
0.55611
0.557299
0.55539
0.553288
0.553536
0.553204
0.553072
0.553319
0.55398
0.555041
0.556418
0.557856
0.549064
0.54824
0.549736
0.550461
0.551144
0.552025
0.553186
0.554643
0.556316
0.557987
0.542286
0.542734
0.545512
0.547327
0.548848
0.550372
0.552037
0.553898
0.55588
0.557776
0.535232
0.536904
0.540965
0.543881
0.546245
0.548411
0.55057
0.552838
0.55516
0.55731
0.528056
0.530874
0.536191
0.540196
0.543393
0.546185
0.548816
0.551492
0.554267
0.556776
0.520886
0.524752
0.531276
0.536339
0.540348
0.543742
0.546808
0.549855
0.553169
0.555802
0.51378
0.518624
0.526296
0.532373
0.537155
0.541105
0.54454
0.547776
0.55117
0.553868
0.506891
0.512593
0.521325
0.528354
0.533866
0.538325
0.542086
0.545463
0.54882
0.551544
0.500327
0.506727
0.516423
0.52433
0.53053
0.535461
0.53953
0.543066
0.546417
0.549195
0.494179
0.501074
0.511631
0.520334
0.527183
0.53256
0.536926
0.540635
0.544
0.546878
0.488463
0.495756
0.506941
0.516392
0.523854
0.529659
0.534325
0.53823
0.541639
0.544649
0.483198
0.490813
0.502384
0.512534
0.520564
0.526791
0.531775
0.535922
0.53944
0.542568
0.478398
0.486203
0.498057
0.508776
0.51733
0.523977
0.529302
0.53373
0.537424
0.54064
0.474067
0.481934
0.493972
0.505138
0.514166
0.521223
0.526891
0.531617
0.535526
0.538793
0.470228
0.47803
0.490124
0.501632
0.511079
0.51852
0.52451
0.529522
0.533662
0.536942
0.466964
0.474545
0.486538
0.498267
0.508049
0.515878
0.522117
0.527395
0.531774
0.535159
0.464019
0.471395
0.483205
0.49506
0.5051
0.513206
0.519762
0.525214
0.529734
0.533365
0.461429
0.468589
0.480134
0.492018
0.502241
0.510574
0.517357
0.522967
0.5276
0.531416
0.459217
0.466132
0.477324
0.489134
0.49946
0.507955
0.514901
0.520643
0.525377
0.529313
0.457367
0.464012
0.474771
0.486408
0.496748
0.505336
0.512389
0.51823
0.523057
0.527092
0.455858
0.462215
0.472473
0.483843
0.49411
0.502716
0.509818
0.515721
0.520628
0.524759
0.454671
0.460726
0.47043
0.481445
0.491552
0.500101
0.50719
0.513106
0.518069
0.522298
0.453782
0.459526
0.468638
0.479224
0.489088
0.497503
0.504511
0.510379
0.515345
0.519662
0.453167
0.458593
0.467093
0.477188
0.486737
0.494945
0.501797
0.507538
0.512405
0.516749
0.452799
0.457904
0.465789
0.475351
0.484526
0.492462
0.499089
0.504625
0.50926
0.51329
0.452648
0.457429
0.464715
0.473722
0.482481
0.490097
0.496431
0.501644
0.505874
0.508963
0.452651
0.457125
0.463853
0.472306
0.480631
0.487912
0.493957
0.498896
0.502931
0.506061
0.452807
0.456975
0.463188
0.471103
0.478991
0.485941
0.491736
0.496486
0.500434
0.503672
0.453092
0.456951
0.462702
0.470106
0.477556
0.484168
0.489705
0.494254
0.498041
0.501202
0.453468
0.457018
0.462369
0.469297
0.47631
0.482555
0.48779
0.492079
0.495624
0.498594
0.453893
0.45714
0.462158
0.468657
0.475238
0.48109
0.485973
0.48995
0.493209
0.495934
0.45432
0.457278
0.462034
0.46816
0.474328
0.479775
0.484277
0.487906
0.490854
0.493309
0.454694
0.457386
0.461953
0.467768
0.473561
0.478613
0.482726
0.485992
0.488613
0.490783
0.454948
0.457409
0.461855
0.467424
0.472892
0.477581
0.481321
0.484226
0.486515
0.488385
0.45502
0.457287
0.461668
0.467047
0.472244
0.476617
0.480018
0.482583
0.484541
0.486099
)
;

boundaryField
{
    inlet
    {
        type            zeroGradient;
    }
    outlet
    {
        type            fixedValue;
        value           uniform 0;
    }
    cylinder
    {
        type            zeroGradient;
    }
    top
    {
        type            symmetryPlane;
    }
    bottom
    {
        type            symmetryPlane;
    }
    defaultFaces
    {
        type            empty;
    }
}


// ************************************************************************* //
