/*--------------------------------*- C++ -*----------------------------------*\
  =========                 |
  \\      /  F ield         | OpenFOAM: The Open Source CFD Toolbox
   \\    /   O peration     | Website:  https://openfoam.org
    \\  /    A nd           | Version:  7
     \\/     M anipulation  |
\*---------------------------------------------------------------------------*/
FoamFile
{
    version     2.0;
    format      ascii;
    class       surfaceScalarField;
    location    "3";
    object      phi;
}
// * * * * * * * * * * * * * * * * * * * * * * * * * * * * * * * * * * * * * //

dimensions      [0 3 -1 0 0 0 0];

internalField   nonuniform List<scalar> 
3880
(
-0.000164406
0.0038174
-0.00365299
0.00018706
0.00844361
-0.00879508
0.00126763
0.0112936
-0.0123742
0.00299839
0.0130009
-0.0147317
0.00519385
0.0138756
-0.0160711
0.00765189
0.0142155
-0.0166736
0.0102037
0.0142786
-0.0168304
0.0127292
0.0142557
-0.0167812
0.015157
0.0142678
-0.0166955
0.0143807
0.0174588
-0.0166825
-0.000256035
0.00407344
-1.60497e-05
0.00820363
0.000962862
0.0103147
0.00267861
0.0112852
0.00496153
0.0115927
0.00760963
0.0115674
0.0104405
0.0114477
0.0133135
0.0113827
0.0161342
0.0114471
0.0116546
0.0188603
-0.000320859
0.0043943
-0.000166218
0.00804899
0.000774508
0.00937395
0.00250902
0.00955068
0.00489429
0.00920745
0.00773151
0.00873022
0.0108282
0.00835098
0.0140267
0.00818426
0.017212
0.00826174
0.00852569
0.0203409
-0.000344767
0.00473906
-0.000197058
0.00790128
0.000771453
0.00840544
0.00258803
0.0077341
0.0051171
0.00667838
0.00815752
0.00568979
0.011508
0.00500048
0.014999
0.00469326
0.0185009
0.0047599
0.00504303
0.0219835
-0.000317706
0.00505677
-8.3048e-05
0.00766662
0.00101606
0.00730634
0.00301319
0.00573697
0.00575853
0.00393303
0.00903707
0.00241126
0.0126369
0.00140061
0.0163824
0.000947852
0.0201379
0.00100432
0.00128485
0.0238961
-0.000234401
0.00529117
0.000183242
0.00724897
0.00154976
0.00593982
0.00385217
0.00343455
0.006908
0.000877201
0.0104744
-0.00115511
0.0143262
-0.00245127
0.0182868
-0.00301273
0.0222274
-0.00293627
-0.00264561
0.0261579
-9.1183e-05
0.00538236
0.000619774
0.00653801
0.00238116
0.00417843
0.00511332
0.000702387
0.00856942
-0.0025789
0.0124671
-0.00505282
0.0165688
-0.0065529
0.0207039
-0.0071479
0.0247659
-0.0069982
-0.00663178
0.028752
9.86812e-05
0.00528367
0.00120253
0.00543417
0.00347438
0.00190659
0.00672927
-0.00255251
0.0106375
-0.00648715
0.0148756
-0.00929091
0.0192031
-0.0108804
0.0234638
-0.0114087
0.0275945
-0.0111289
-0.0105677
0.0315304
0.000321235
0.00496244
0.0018992
0.0038562
0.00475607
-0.000950281
0.00856572
-0.00636217
0.0129084
-0.0108299
0.0174412
-0.0138237
0.0219468
-0.0153859
0.0262924
-0.0157543
0.0304426
-0.0152791
-0.0143905
0.0342654
0.00057286
0.00438958
0.00267175
0.00175731
0.00613023
-0.00440876
0.0104452
-0.0106772
0.0151212
-0.0155058
0.0198351
-0.0185377
0.0244416
-0.0199924
0.0288987
-0.0202114
0.0331772
-0.0195576
0.0366778
-0.017891
0.0189263
0.0588029
-0.0602704
0.0190863
0.0660467
-0.0662067
0.0180615
0.0717525
-0.0707276
0.0162773
0.0771326
-0.0753485
0.0140637
0.0812659
-0.0790524
0.0114049
0.0864852
-0.0838264
0.00874163
0.0867363
-0.0840729
0.00594272
0.092929
-0.0901301
0.0029378
0.0893311
-0.0863261
0.104151
-0.101213
0.0207178
0.0569454
0.0209115
0.065853
0.0198314
0.0728327
0.0179394
0.0790246
0.0155356
0.0836697
0.0126563
0.0893645
0.00967807
0.0897144
0.00657343
0.0960337
0.00317005
0.0927345
0.107321
0.0225146
0.0547717
0.0227204
0.0656472
0.0216118
0.0739412
0.0196121
0.0810243
0.0170386
0.0862432
0.0139433
0.0924598
0.0106508
0.093007
0.00722919
0.0994553
0.00342747
0.0965362
0.110749
0.0243131
0.0524421
0.0245212
0.0654392
0.0233905
0.0750718
0.021282
0.0831328
0.0185656
0.0889596
0.0152611
0.0957643
0.0116608
0.0966073
0.00791642
0.1032
0.00371504
0.100738
0.114464
0.0261158
0.0502224
0.0262904
0.0652646
0.0251506
0.0762116
0.0229359
0.0853475
0.0201105
0.091785
0.016604
0.0992709
0.0127074
0.100504
0.00863877
0.107268
0.00403553
0.105341
0.118499
0.027923
0.0484573
0.0280007
0.065187
0.0268681
0.0773441
0.0245626
0.0876531
0.0216626
0.0946849
0.017962
0.102972
0.0137873
0.104679
0.00939732
0.111658
0.00439038
0.110348
0.12289
0.0297292
0.0474801
0.029626
0.0652902
0.0285189
0.0784512
0.0261568
0.0900152
0.0232138
0.0976279
0.0193261
0.106859
0.0148957
0.109109
0.0101854
0.116369
0.00477856
0.115755
0.127668
0.0315081
0.0475024
0.0311415
0.0656568
0.0300735
0.0795192
0.0276859
0.0924028
0.0247413
0.100572
0.0206815
0.110919
0.0160364
0.113754
0.0110198
0.121385
0.00520646
0.121568
0.132875
0.0331928
0.0485751
0.0325143
0.0663353
0.031511
0.0805225
0.0291501
0.0947637
0.0262459
0.103477
0.0219934
0.115172
0.0171674
0.11858
0.0118284
0.126724
0.00565945
0.127737
0.138534
0.03482
0.0504329
0.0338782
0.0672771
0.0328782
0.0815225
0.0305284
0.0971135
0.0278025
0.106203
0.0233228
0.119651
0.0184905
0.123412
0.0127264
0.132488
0.00620244
0.134261
0.144737
0.131044
0.0665545
-0.147166
0.117988
0.0803336
0.104063
0.0954473
0.0897218
0.111454
0.0748934
0.121031
0.0602693
0.134275
0.0457554
0.137926
0.0312589
0.146985
0.0150638
0.150456
0.1598
0.145482
0.0807635
-0.159691
0.130765
0.095051
0.116134
0.110077
0.101452
0.126136
0.0852103
0.137273
0.0688639
0.150622
0.0516913
0.155099
0.0337892
0.164887
0.015883
0.168362
0.175683
0.158141
0.0966017
-0.173979
0.142707
0.110485
0.127364
0.125421
0.112172
0.141328
0.0955699
0.153875
0.0783599
0.167832
0.0596101
0.173849
0.0404083
0.184089
0.0228867
0.185884
0.19857
0.173255
0.111008
-0.187661
0.157624
0.126116
0.141381
0.141664
0.124879
0.157831
0.10729
0.171464
0.0893429
0.185779
0.0701373
0.193054
0.0493756
0.20485
0.0249826
0.210277
0.223553
0.189743
0.124686
-0.203421
0.174359
0.141501
0.157616
0.158406
0.139437
0.17601
0.118761
0.192141
0.0955644
0.208975
0.0683684
0.22025
0.037532
0.235687
0.0149109
0.232898
0.238464
0.20674
0.139038
-0.221093
0.190464
0.157777
0.17335
0.17552
0.15579
0.19357
0.137906
0.210024
0.120348
0.226533
0.104856
0.235742
0.0924474
0.248095
0.0602811
0.265064
0.298745
0.228481
0.149535
-0.238978
0.214392
0.171866
0.195665
0.194247
0.172302
0.216932
0.143602
0.238725
0.10916
0.260975
0.0679022
0.277001
0.0224693
0.293528
2.72455e-05
0.287506
0.298772
0.238797
0.166481
-0.255742
0.224568
0.186095
0.212335
0.20648
0.19927
0.229997
0.184259
0.253735
0.164708
0.280526
0.141455
0.300254
0.110959
0.324024
0.0585481
0.339917
0.35732
0.289692
0.174916
-0.298128
0.267874
0.207913
0.238573
0.235781
0.20781
0.26076
0.174327
0.287219
0.141394
0.313459
0.105939
0.335708
0.0714771
0.358486
0.0398573
0.371537
0.397177
0.274778
-0.248106
0.285084
0.282143
0.266565
0.242741
0.208086
0.165839
0.114895
0.0598249
0.0439026
-0.150437
-0.0406309
0.0461892
-0.161978
0.0484458
-0.176236
0.0499776
-0.189193
0.0509228
-0.204366
0.0515832
-0.221753
0.0506544
-0.238049
0.0516695
-0.256757
0.0446999
-0.291158
-0.234021
0.0437671
-0.153687
-0.040518
0.0457041
-0.163915
0.0478771
-0.178409
0.0491075
-0.190424
0.0499742
-0.205233
0.0502785
-0.222058
0.0496181
-0.237389
0.0497676
-0.256907
0.0419529
-0.283343
-0.218628
0.0423779
-0.156614
-0.03945
0.0439586
-0.165495
0.0459878
-0.180438
0.047058
-0.191494
0.0478782
-0.206053
0.0480888
-0.222268
0.0476415
-0.236941
0.0473218
-0.256587
0.0383716
-0.274393
-0.202651
0.0403978
-0.159315
-0.0376968
0.0417036
-0.166801
0.0436236
-0.182358
0.044633
-0.192503
0.0454792
-0.206899
0.0457189
-0.222508
0.045492
-0.236714
0.044625
-0.25572
0.0345828
-0.264351
-0.186195
0.0377973
-0.16173
-0.0353829
0.0388473
-0.167851
0.0406676
-0.184179
0.0417116
-0.193547
0.042635
-0.207823
0.0429928
-0.222866
0.0429675
-0.236689
0.0414616
-0.254214
0.030532
-0.253421
-0.169425
0.034545
-0.163727
-0.0325483
0.0354409
-0.168747
0.0372149
-0.185953
0.0383928
-0.194725
0.0394623
-0.208892
0.0400047
-0.223408
0.0401541
-0.236839
0.0379671
-0.252027
0.0263428
-0.241797
-0.152433
0.0306306
-0.165216
-0.0291412
0.0315362
-0.169653
0.0332858
-0.187702
0.0346772
-0.196117
0.0359366
-0.210152
0.0367116
-0.224183
0.0369775
-0.237104
0.0340568
-0.249107
0.0220075
-0.229748
-0.135409
0.0260968
-0.16625
-0.0250625
0.0272448
-0.170801
0.0289686
-0.189426
0.0306401
-0.197788
0.0321332
-0.211645
0.0331743
-0.225224
0.0334929
-0.237423
0.0298425
-0.245456
0.0175314
-0.217437
-0.118747
0.0210915
-0.167068
-0.0202739
0.0227084
-0.172418
0.0243507
-0.191068
0.0263349
-0.199772
0.0280825
-0.213392
0.0294077
-0.226549
0.0297179
-0.237733
0.0254309
-0.241169
0.0128355
-0.204841
-0.103096
0.0158287
-0.168006
-0.0148902
0.0180366
-0.174625
0.0195358
-0.192567
0.0218403
-0.202077
0.0238471
-0.215399
0.0254569
-0.228159
0.0257297
-0.238006
0.0209426
-0.236382
0.00816669
-0.192065
-0.0887487
0.0105166
-0.169311
-0.00921158
0.0132583
-0.177367
0.0146102
-0.193919
0.0172079
-0.204675
0.0194779
-0.217669
0.0213605
-0.230042
0.0215937
-0.238239
0.0163679
-0.231156
0.00350961
-0.179207
-0.0758776
0.00521094
-0.17098
-0.00354272
0.0083162
-0.180472
0.00959531
-0.195198
0.012459
-0.207538
0.0150145
-0.220224
0.0171485
-0.232176
0.0173571
-0.238448
0.0118095
-0.225609
-0.00106556
-0.166332
-0.064609
-3.96681e-06
-0.172789
0.00181335
0.003147
-0.183623
0.00451493
-0.196566
0.00766287
-0.210686
0.0104951
-0.223057
0.0128476
-0.234528
0.0130342
-0.238634
0.00739084
-0.219965
-0.00443714
-0.154504
-0.0539557
-0.0050936
-0.17436
0.00666451
-0.00202773
-0.186689
-0.000519647
-0.198074
0.00289047
-0.214096
0.00590345
-0.22607
0.00847123
-0.237096
0.0086521
-0.238815
0.00305434
-0.214368
-0.00799765
-0.143452
-0.0441471
-0.0101199
-0.175428
0.011188
-0.00722582
-0.189583
-0.00533351
-0.199967
-0.00204821
-0.217382
0.00128063
-0.229399
0.00409159
-0.239907
0.00428099
-0.239005
-0.00110429
-0.208982
-0.0115418
-0.133014
-0.0352229
-0.0150442
-0.175835
0.0154517
-0.0123873
-0.19224
-0.0101562
-0.202198
-0.00690928
-0.220629
-0.00321592
-0.233092
-0.000189009
-0.242934
-4.32432e-05
-0.23915
-0.00528915
-0.203736
-0.0149547
-0.123349
-0.0271809
-0.0195877
-0.175749
0.0195008
-0.0170676
-0.19476
-0.0145215
-0.204744
-0.0110867
-0.224063
-0.00723937
-0.236939
-0.00404644
-0.246127
-0.00377104
-0.239426
-0.00900735
-0.1985
-0.018195
-0.114161
-0.0199889
-0.0232123
-0.175859
0.0233229
-0.0208035
-0.197169
-0.0180675
-0.20748
-0.0145701
-0.227561
-0.0107238
-0.240786
-0.00749983
-0.249351
-0.00728964
-0.239636
-0.0124236
-0.193366
-0.0213046
-0.10528
-0.0136005
-0.0262022
-0.176666
0.0270089
-0.0241871
-0.199184
-0.0214561
-0.210211
-0.0181753
-0.230842
-0.0143374
-0.244623
-0.0111142
-0.252574
-0.0108806
-0.23987
-0.015924
-0.188323
-0.0244046
-0.0967995
-0.00797478
-0.0308223
-0.176206
0.0303624
-0.0300595
-0.199947
-0.0276108
-0.21266
-0.0249766
-0.233476
-0.0207176
-0.248882
-0.0168369
-0.256455
-0.0159048
-0.240802
-0.0199147
-0.184313
-0.0273182
-0.089396
-0.00279621
-0.00031496
-0.175225
-0.000665943
-0.00124843
-0.199013
0.00205474
-0.215963
0.0067687
-0.23819
0.00767038
-0.249784
-0.00273044
-0.246054
-0.0337834
-0.209749
-0.0838551
-0.134241
-0.129279
-0.0439726
0.0110915
-0.0267998
-0.176437
0.0280122
-0.0240065
-0.201807
-0.0186236
-0.221346
-0.0152906
-0.241523
-0.0208283
-0.244246
-0.0450209
-0.221861
-0.0909081
-0.163861
-0.143515
-0.0816348
-0.178693
-0.00879454
0.0132001
-0.0492152
-0.17997
0.0527478
-0.0459248
-0.205097
-0.0419408
-0.22533
-0.0433419
-0.240122
-0.0586901
-0.228898
-0.0953466
-0.185205
-0.146069
-0.113139
-0.190817
-0.0368876
-0.210525
0.0109138
0.00902384
-0.0776184
-0.1812
0.0788485
-0.0755825
-0.207133
-0.0726583
-0.228254
-0.0809962
-0.231784
-0.109033
-0.200861
-0.156237
-0.138
-0.206488
-0.0628881
-0.238202
-0.00517346
-0.242499
0.0152108
0.00135141
-0.106249
-0.180801
0.10585
-0.106695
-0.206687
-0.110582
-0.224367
-0.131243
-0.211123
-0.173168
-0.158936
-0.224856
-0.0863121
-0.264436
-0.0233086
-0.277853
0.00824321
-0.271089
0.00844704
-0.00396491
-0.139646
-0.175243
0.134088
-0.14681
-0.199523
-0.163213
-0.207964
-0.199357
-0.174979
-0.248852
-0.109441
-0.29254
-0.0426243
-0.313246
-0.00260265
-0.310628
0.00562568
-0.300595
-0.00158609
-0.00473486
-0.182572
-0.157737
0.165065
-0.201581
-0.180513
-0.231992
-0.177553
-0.277332
-0.129639
-0.322191
-0.0645829
-0.348101
-0.0167137
-0.350621
-8.30506e-05
-0.341394
-0.00360099
-0.336462
-0.00651773
-0.00194805
-0.231529
-0.133864
0.207656
-0.262131
-0.149911
-0.305777
-0.133907
-0.355709
-0.0797073
-0.391159
-0.0291328
-0.400472
-0.00740097
-0.392829
-0.00772569
-0.387985
-0.00844535
-0.390756
-0.00374679
0.000801796
-0.270911
-0.0874224
0.224469
-0.327118
-0.0937041
-0.398206
-0.062818
-0.455502
-0.0224116
-0.476411
-0.00822368
-0.47131
-0.0125018
-0.468356
-0.0106795
-0.47436
-0.00244143
-0.479127
0.0010195
0.000393367
-0.341485
0.254063
-0.43519
-0.498008
-0.520419
-0.528643
-0.541145
-0.551824
-0.554266
-0.553246
-0.0409682
0.00486339
0.0354389
-0.0467617
0.0338057
-0.0508827
0.0568688
-0.0531538
0.0811197
-0.053459
0.106155
-0.0520518
0.132681
-0.0455032
0.158516
-0.0381071
0.20026
-0.023454
0.209816
0.230609
-0.0411547
0.00987377
0.0361443
-0.045705
0.038356
-0.0488554
0.0600192
-0.0502768
0.0825411
-0.0500116
0.10589
-0.0479178
0.130587
-0.0430252
0.153624
-0.0336066
0.190841
-0.0214995
0.197709
0.20911
-0.0416944
0.0144676
0.0371005
-0.0451315
0.0417931
-0.0473061
0.0621937
-0.0478813
0.0831163
-0.047086
0.105095
-0.0445111
0.128012
-0.0393314
0.148444
-0.0301878
0.181698
-0.018772
0.186293
0.190338
-0.0417545
0.018581
0.0376412
-0.0443309
0.0443695
-0.0456655
0.0635284
-0.0454177
0.0828684
-0.0440732
0.10375
-0.0410357
0.124975
-0.0357299
0.143138
-0.0268025
0.17277
-0.0162444
0.175735
0.174093
-0.0412672
0.0221482
0.0376999
-0.0430996
0.0462019
-0.0437968
0.0642255
-0.0428929
0.0819645
-0.041077
0.101934
-0.037649
0.121547
-0.0323004
0.13779
-0.0236917
0.164162
-0.0140525
0.166096
0.160041
-0.0403082
0.0252044
0.037252
-0.0414894
0.0473831
-0.0416731
0.0644092
-0.0402766
0.080568
-0.0380643
0.0997221
-0.0343684
0.117851
-0.0290488
0.13247
-0.0209244
0.156037
-0.0122147
0.157386
0.147826
-0.0389221
0.0278256
0.036301
-0.0396005
0.0480615
-0.0393766
0.0641853
-0.0376478
0.0788392
-0.0351102
0.0971844
-0.0312659
0.114007
-0.0260365
0.12724
-0.0184911
0.148492
-0.010662
0.149557
0.137164
-0.0371481
0.0300789
0.0348947
-0.0374705
0.048384
-0.0369358
0.0636506
-0.0350448
0.0769483
-0.0322875
0.0944271
-0.0284005
0.11012
-0.0233183
0.122158
-0.0163483
0.141522
-0.00928078
0.14249
0.127883
-0.035057
0.0320209
0.0331151
-0.0351379
0.0484648
-0.034352
0.0628647
-0.0324419
0.0750383
-0.0295789
0.0915641
-0.0257516
0.106293
-0.0208787
0.117285
-0.0144308
0.135074
-0.00797422
0.136033
0.119909
-0.0327351
0.0337004
0.0310555
-0.0326661
0.0483959
-0.031664
0.0618625
-0.0298269
0.0732012
-0.0269491
0.0886863
-0.0232639
0.102607
-0.0186607
0.112682
-0.0126788
0.129092
-0.00670508
0.130059
0.113204
-0.0302632
0.0351582
0.0288055
-0.030124
0.0482566
-0.0289454
0.060684
-0.0272252
0.071481
-0.0243999
0.085861
-0.0209055
0.0991128
-0.0166196
0.108396
-0.0110662
0.123539
-0.00549585
0.124489
0.107708
-0.0276965
0.0364088
0.0264459
-0.0275559
0.048116
-0.0262481
0.0593761
-0.0246582
0.0698912
-0.0219453
0.083148
-0.0186655
0.095833
-0.0147301
0.104461
-0.00959257
0.118401
-0.00439444
0.119291
0.103314
-0.0251318
0.0374562
0.0240844
-0.0250212
0.0480054
-0.0236338
0.0579887
-0.0221685
0.0684259
-0.0196179
0.0805974
-0.0165594
0.0927746
-0.0129935
0.100895
-0.00827459
0.113682
-0.00344416
0.11446
0.0998694
-0.022654
0.0382993
0.021811
-0.0225821
0.0479335
-0.0211617
0.0565682
-0.0197971
0.0670613
-0.0174476
0.0782479
-0.0146054
0.0899324
-0.0114155
0.097705
-0.00711946
0.109386
-0.00266182
0.110003
0.0972076
-0.0203045
0.0389302
0.0196736
-0.0202643
0.0478934
-0.0188713
0.0551752
-0.0175801
0.0657701
-0.0154548
0.0761226
-0.0128175
0.0872951
-0.0100007
0.0948881
-0.00612138
0.105507
-0.00204011
0.105922
0.0951675
-0.0181007
0.0393426
0.0176883
-0.0180752
0.0478679
-0.0167684
0.0538684
-0.015532
0.0645338
-0.0136471
0.0742377
-0.011201
0.0848489
-0.00874779
0.092435
-0.0052654
0.102025
-0.0015593
0.102215
0.0936082
-0.0160505
0.039545
0.0158481
-0.0160192
0.0478366
-0.0148425
0.0526917
-0.0136464
0.0633376
-0.0120207
0.072612
-0.00975321
0.0825815
-0.0076499
0.0903317
-0.00453389
0.0989087
-0.00119825
0.0988798
0.0924099
-0.0141452
0.0395703
0.0141199
-0.0140867
0.047778
-0.0130801
0.0516852
-0.0119133
0.0621707
-0.0105626
0.0712613
-0.00846582
0.0804846
-0.00669587
0.0885617
-0.00391083
0.0961236
-0.00094117
0.0959101
0.0914688
-0.012342
0.0394396
0.0124726
-0.0122667
0.0477028
-0.011459
0.0508774
-0.0103248
0.0610365
-0.00925633
0.0701929
-0.00732715
0.0785555
-0.00587295
0.0871075
-0.00338241
0.0936331
-0.000779748
0.0933074
0.090689
-0.0107058
0.0393616
0.0107839
-0.0105123
0.0475092
-0.00991403
0.0502792
-0.00880479
0.0599273
-0.00805107
0.0694392
-0.00630365
0.076808
-0.00519563
0.0859995
-0.00296235
0.0913998
-0.000724958
0.09107
0.0899641
-0.0803188
0.0311188
0.0885616
-0.0735207
0.0407111
-0.0684747
0.0452331
-0.0620175
0.0534701
-0.0543253
0.061747
-0.0454718
0.0679546
-0.0347321
0.0752597
-0.0227643
0.079432
-0.010292
0.0785978
0.0796721
-0.0746875
0.028761
0.0770453
-0.0683165
0.0343401
-0.0640806
0.0409972
-0.0575425
0.0469321
-0.0495125
0.0537169
-0.0412232
0.0596653
-0.0308442
0.0648808
-0.0206818
0.0692695
-0.0110058
0.0689218
0.0686663
-0.0665598
0.0239981
0.0713227
-0.061172
0.0289523
-0.0559306
0.0357558
-0.0500168
0.0410184
-0.0429979
0.0466979
-0.0357398
0.0524072
-0.0268683
0.0560094
-0.0181678
0.060569
-0.00968602
0.06044
0.0589802
-0.0608584
0.0199338
0.0649227
-0.0563493
0.0244432
-0.0509836
0.0303901
-0.0450196
0.0350544
-0.0381412
0.0398195
-0.0309904
0.0452563
-0.0230207
0.0480397
-0.0152244
0.0527727
-0.00766453
0.0528801
0.0513157
-0.0550669
0.0166893
0.0583114
-0.0510254
0.0204018
-0.0460329
0.0253976
-0.040411
0.0294324
-0.0339214
0.0333299
-0.0270169
0.0383519
-0.0197573
0.04078
-0.0125742
0.0455896
-0.00589685
0.0462028
0.0454189
-0.0504631
0.0133886
0.0537639
-0.0465488
0.0164874
-0.0416498
0.0204986
-0.0361502
0.0239328
-0.029993
0.0271727
-0.0231975
0.0315564
-0.0165677
0.0341503
-0.00984579
0.0388677
-0.00415348
0.0405105
0.0412654
-0.0468195
0.0103814
0.0498268
-0.0429371
0.012605
-0.0380492
0.0156107
-0.0325115
0.0183951
-0.026528
0.0211893
-0.0194399
0.0244683
-0.0132843
0.0279946
-0.00659318
0.0321766
-0.00199044
0.0359077
0.0392749
-0.0443628
0.00733809
0.0474061
-0.040342
0.00858414
-0.0353356
0.0106043
-0.0295918
0.0126513
-0.0236213
0.0152187
-0.0156514
0.0164984
-0.00977135
0.0221145
-0.00165765
0.0240629
0.0024691
0.031781
0.041744
-0.048689
0.00392775
0.0520993
-0.0442799
0.00417508
-0.0387256
0.00505002
-0.0322001
0.00612576
-0.025667
0.00868565
-0.015805
0.00663632
-0.00875142
0.015061
0.0020274
0.0132841
0.0112936
0.0225148
0.0530376
-0.13457
0.138498
-0.130395
-0.125345
-0.119219
-0.110534
-0.103898
-0.0888365
-0.0755524
-0.0530376
-0.00936178
0.0878295
0.0100938
-0.0063684
0.0740519
-0.00517812
0.0701325
-0.00346818
0.0632128
-0.00236234
0.0572055
-0.00146197
0.0528635
-0.000799134
0.0491639
-0.000452563
0.0470596
-0.000893852
0.0525406
0.137604
-0.00832835
0.087
0.0091579
-0.00556263
0.0712862
-0.00469083
0.0692606
-0.00309968
0.0616216
-0.00216292
0.0562688
-0.00134844
0.052049
-0.000759507
0.048575
-0.000421949
0.046722
-0.000759177
0.0528778
0.136845
-0.00743062
0.0860721
0.00835854
-0.00481105
0.0686666
-0.00410333
0.0685529
-0.00271883
0.0602371
-0.0019347
0.0554846
-0.00121848
0.0513328
-0.000703426
0.0480599
-0.000374445
0.046393
-0.0005956
0.053099
0.136249
-0.00649064
0.0850454
0.0075173
-0.00428343
0.0664594
-0.00356648
0.067836
-0.00238715
0.0590578
-0.00172376
0.0548212
-0.00109407
0.0507031
-0.000637528
0.0476034
-0.000305513
0.046061
-0.000422997
0.0532165
0.135826
-0.00523355
0.083909
0.00636991
-0.00383896
0.0650648
-0.00304894
0.0670459
-0.00209295
0.0581018
-0.00151841
0.0542467
-0.000966487
0.0501512
-0.000555256
0.0471922
-0.000216135
0.0457219
-0.000246748
0.0532471
0.13558
-0.00365149
0.0826923
0.00486822
-0.00332962
0.064743
-0.00251631
0.0662326
-0.00180762
0.0573931
-0.00130509
0.0537442
-0.000826605
0.0496727
-0.000453064
0.0468186
-0.000109485
0.0453783
-7.63749e-05
0.053214
0.135503
-0.0020524
0.0814875
0.00325723
-0.00272455
0.0654151
-0.00197387
0.0654819
-0.0015158
0.0569351
-0.0010767
0.0533051
-0.00066989
0.0492659
-0.000330741
0.0464795
1.52371e-05
0.0450323
0.00011799
0.0531112
0.135621
-0.000793142
0.0804012
0.0018794
-0.00208323
0.0667052
-0.00144407
0.0648428
-0.00120886
0.0566999
-0.000831934
0.0529281
-0.000496325
0.0489303
-0.000192064
0.0461752
0.000125543
0.0447147
0.000312577
0.0529242
0.135934
-3.25571e-05
0.0795445
0.000889236
-0.00146414
0.0681368
-0.000948947
0.0643276
-0.00088417
0.0566351
-0.00057518
0.0526191
-0.000310211
0.0486653
-4.54917e-05
0.0459105
0.00024759
0.0444216
0.000486657
0.0526851
0.136421
0.000561432
0.0787842
0.000198927
-0.000880853
0.0695791
-0.000502269
0.063949
-0.00054463
0.0566774
-0.000314818
0.0523893
-0.000116193
0.0484667
0.000116544
0.0456778
0.000374248
0.0441639
0.000639811
0.0524196
0.13706
0.000863575
0.0781693
-0.000248717
-0.000327522
0.0707702
-0.00011431
0.0637358
-0.000194657
0.0567578
-6.35634e-05
0.0522582
7.93936e-05
0.0483237
0.000264416
0.0454927
0.000491157
0.0439372
0.000765196
0.0521455
0.137826
0.00110425
0.0776658
-0.000600782
0.000188911
0.0716855
0.000290615
0.0636341
0.000140971
0.0569074
0.000200334
0.0521989
0.000264444
0.0482596
0.000400216
0.045357
0.000591139
0.0437463
0.000861231
0.0518754
0.138687
0.00134529
0.0772944
-0.000973844
0.000651574
0.0723793
0.000654904
0.0636308
0.000450252
0.0571121
0.000438103
0.052211
0.000440524
0.0482572
0.000523486
0.045274
0.000671847
0.0435979
0.000937461
0.0516098
0.139624
0.00156603
0.0771263
-0.00139797
0.00114437
0.0728009
0.000981027
0.0637941
0.000759928
0.0573332
0.000660274
0.0523107
0.000603084
0.0483144
0.000630686
0.0452464
0.000731754
0.0434969
0.000991777
0.0513498
0.140616
0.00181937
0.0771986
-0.00189164
0.00166356
0.0729567
0.00129703
0.0641606
0.00106291
0.0575673
0.00087049
0.0525031
0.000750079
0.0484348
0.000720272
0.0452762
0.000770493
0.0434466
0.00102434
0.051096
0.14164
0.00212936
0.0775288
-0.00245951
0.00221141
0.0728747
0.00163518
0.0647369
0.00135635
0.0578461
0.00106741
0.0527921
0.000880017
0.0486222
0.000791591
0.0453646
0.000788864
0.0434494
0.00103747
0.0508474
0.142678
0.00247679
0.0781501
-0.0030981
0.00277131
0.0725801
0.00199008
0.0655181
0.00163718
0.058199
0.00125065
0.0531786
0.000991738
0.0488811
0.000844555
0.0455118
0.000788696
0.0435052
0.00103478
0.0506013
0.143713
0.00285328
0.0791098
-0.00381298
0.0033024
0.072131
0.00236043
0.0664601
0.00190289
0.0586566
0.00142053
0.0536609
0.0010846
0.049217
0.000879431
0.045717
0.00077275
0.0436119
0.00102059
0.0503534
0.144733
0.00333007
0.0804182
-0.00463847
0.00380529
0.0716558
0.00275057
0.0675148
0.00214431
0.0592628
0.00157236
0.0542329
0.00115435
0.049635
0.000893414
0.0459779
0.000741409
0.0437639
0.00100379
0.0500911
0.145737
0.00361796
0.0821499
-0.00534969
0.00411154
0.0711622
0.00306591
0.0685604
0.00233386
0.0599949
0.00169356
0.0548732
0.0012019
0.0501267
0.000886025
0.0462938
0.00069567
0.0439543
0.000978353
0.0498084
0.146715
-0.0510345
0.0741088
0.0590756
-0.0361263
0.056254
-0.0298115
0.0622456
-0.0230006
0.053184
-0.0180402
0.0499128
-0.0135982
0.0456847
-0.00968812
0.0423838
-0.0063379
0.040604
-0.00486903
0.0483395
0.141846
-0.0468345
0.065554
0.0553893
-0.0412846
0.0507041
-0.0333936
0.0543546
-0.0274838
0.0472742
-0.0219667
0.0443957
-0.0169153
0.0406332
-0.0122502
0.0377187
-0.00795015
0.036304
-0.00445754
0.0448469
0.137389
-0.0471434
0.0550565
0.057641
-0.0445227
0.0480834
-0.0363999
0.0462318
-0.0310502
0.0419245
-0.0251996
0.0385451
-0.0197325
0.0351662
-0.0143962
0.0323824
-0.00914996
0.0310578
-0.00420627
0.0399032
0.133183
-0.0510866
0.047389
0.058754
-0.0478422
0.044839
-0.0401999
0.0385895
-0.0347103
0.0364349
-0.0285882
0.032423
-0.022621
0.029199
-0.0164688
0.0262302
-0.010083
0.0246719
-0.00411378
0.033934
0.129069
-0.0568657
0.0382109
0.0660438
-0.0511295
0.0391028
-0.0435466
0.0310066
-0.0375461
0.0304344
-0.0313737
0.0262506
-0.0254115
0.0232367
-0.0194236
0.0202423
-0.0133497
0.018598
-0.00689667
0.027481
0.122172
-0.0601287
0.0320073
0.0663323
-0.0548297
0.0338038
-0.0479851
0.024162
-0.0418659
0.0243152
-0.0355408
0.0199255
-0.0288297
0.0165257
-0.0211119
0.0125245
-0.0120492
0.00953534
-0.00333484
0.0187666
0.118837
-0.0643818
0.0235115
0.0728776
-0.0564999
0.0259219
-0.0497811
0.0174433
-0.0432973
0.0178313
-0.0374233
0.0140515
-0.0317679
0.0108703
-0.0261311
0.0068877
-0.0201997
0.00360401
-0.0131835
0.0117503
0.105654
-0.0672441
0.0170821
0.0736735
-0.0605383
0.0192161
-0.0544225
0.0113275
-0.0484489
0.0118577
-0.0430174
0.00861994
-0.0374395
0.00529246
-0.0301525
-0.000399341
-0.0214683
-0.00508021
-0.0109473
0.00122937
0.0947065
-0.0700104
0.00883198
0.0782605
-0.0604748
0.0096805
-0.0549794
0.00583211
-0.048826
0.00570432
-0.0439704
0.00376433
-0.0401656
0.00148765
-0.0380672
-0.00249774
-0.0356296
-0.00751781
-0.0329352
-0.001465
0.0617713
-0.0767597
0.0855916
-0.0670792
-0.0612471
-0.0555427
-0.0517784
-0.0502908
-0.0527885
-0.0603063
-0.0617713
0.00789141
0.0590463
-0.00786207
0.00640481
0.0568759
0.00494034
0.0591054
0.00312878
0.0605656
0.00246735
0.0667053
0.00123238
0.0675672
0.00119618
0.0729138
0.000199673
0.07467
0.000555872
0.0779043
0.0861475
0.0092768
0.059524
-0.00975449
0.00715038
0.0590023
0.00531709
0.0609387
0.00353525
0.0623474
0.00279784
0.0674427
0.00146307
0.068902
0.00133221
0.0730446
0.000170348
0.0758318
0.000619424
0.0774553
0.0867669
0.010465
0.0602264
-0.0111674
0.00820134
0.061266
0.00624752
0.0628925
0.0045099
0.064085
0.00357146
0.0683811
0.00214401
0.0703294
0.00174647
0.0734422
0.00049125
0.077087
0.000784331
0.0771622
0.0875513
0.0111684
0.0610222
-0.0119642
0.00920752
0.0632268
0.00748567
0.0646144
0.00575389
0.0658168
0.00464875
0.0694862
0.00311657
0.0718616
0.00242432
0.0741344
0.00106335
0.078448
0.00105291
0.0771726
0.0886042
0.0116095
0.0617423
-0.0123296
0.0101607
0.0646756
0.00876131
0.0660138
0.0071137
0.0674644
0.00587721
0.0707227
0.00424839
0.0734904
0.00327239
0.0751104
0.0017899
0.0799305
0.00137869
0.0775838
0.0899829
0.0121296
0.0622108
-0.0125981
0.0112166
0.0655886
0.0101002
0.0671302
0.00854243
0.0690221
0.00718402
0.0720811
0.00544584
0.0752286
0.00419845
0.0763578
0.00257116
0.0815578
0.00171037
0.0784446
0.0916932
0.0129451
0.0623184
-0.0130527
0.0124649
0.0660689
0.0115378
0.0680572
0.010018
0.070542
0.0085269
0.0735723
0.00664993
0.0771056
0.00513617
0.0778716
0.00333332
0.0833606
0.00201357
0.0797644
0.0937068
0.0141099
0.0620268
-0.0138184
0.0139129
0.0662659
0.0130588
0.0689114
0.011525
0.0720758
0.00988047
0.0752168
0.00783579
0.0791503
0.00605297
0.0796544
0.00404263
0.085371
0.00227692
0.0815301
0.0959837
0.0155595
0.061339
-0.0148716
0.0155305
0.0662948
0.0146572
0.0697847
0.0130652
0.0736677
0.0112444
0.0770377
0.00900969
0.0813849
0.00694747
0.0817166
0.0047
0.0876185
0.00250754
0.0837225
0.0984913
0.0171855
-0.016117
0.0172736
0.0163307
0.0146499
0.0126352
0.0101937
0.00783739
0.00532572
0.00272212
0.000845059
0.00354452
0.00348427
-0.0008819
0.00749473
-0.00841922
0.0121819
-0.0153644
0.0170118
-0.0203356
0.0217249
-0.0232508
0.02627
-0.0245375
0.0307344
-0.0246759
0.035309
-0.0241321
-0.0232129
0.00113222
0.00241231
0.00428572
-0.00403541
0.00872768
-0.0128612
0.0135958
-0.0202325
0.0183743
-0.0251141
0.0229045
-0.0277809
0.0272355
-0.0288686
0.0315175
-0.0289578
0.0358511
-0.0284658
-0.0278798
0.00142749
0.000984813
0.00503517
-0.00764308
0.00973968
-0.0175657
0.0145734
-0.0250663
0.0191036
-0.0296443
0.0232962
-0.0319735
0.0272912
-0.0328636
0.0312558
-0.0329224
0.0352909
-0.0325008
-0.0320389
0.00172344
-0.000738624
0.00568556
-0.0116052
0.010456
-0.0223361
0.0150551
-0.0296654
0.0191868
-0.033776
0.0229485
-0.0357353
0.0265543
-0.0364693
0.0301781
-0.0365462
0.0339015
-0.0362243
-0.0358342
0.0020068
-0.00274542
0.00619049
-0.0157889
0.0108333
-0.0269789
0.0150417
-0.0338738
0.0186857
-0.0374199
0.0219806
-0.0390302
0.0251887
-0.0396774
0.028475
-0.0398325
0.0318958
-0.0396451
-0.0393212
0.00225882
-0.00500424
0.00651171
-0.0200418
0.0108618
-0.031329
0.0145789
-0.0375909
0.0176992
-0.0405402
0.0205266
-0.0418576
0.0233418
-0.0424926
0.0262867
-0.0427774
0.0293877
-0.0427461
-0.0424819
0.00245824
-0.00746248
0.0066254
-0.024209
0.010559
-0.0352626
0.0137332
-0.0407651
0.0163275
-0.0431346
0.0186965
-0.0442266
0.0211103
-0.0449065
0.0236781
-0.0453451
0.0263933
-0.0454613
-0.0452298
0.00258509
-0.0100476
0.00652377
-0.0281477
0.00995735
-0.0386962
0.012571
-0.0433787
0.0146504
-0.045214
0.0165607
-0.0461369
0.0185372
-0.0468829
0.0206502
-0.0474582
0.022863
-0.0476741
-0.0474293
0.0026237
-0.0126713
0.00621203
-0.031736
0.00909401
-0.0415782
0.0111479
-0.0454325
0.0127226
-0.0467888
0.0141572
-0.0475714
0.0156341
-0.0483597
0.0171857
-0.0490098
0.0187581
-0.0492465
-0.0489451
0.00256389
-0.0152352
0.00570422
-0.0348763
0.00800531
-0.0438793
0.0095074
-0.0469346
0.0105817
-0.0478631
0.0115121
-0.0485019
0.0124203
-0.0492679
0.0133101
-0.0498996
0.0141371
-0.0500736
-0.0496982
0.00248664
-0.0177218
0.00513918
-0.0375289
0.00684535
-0.0455854
0.00779322
-0.0478825
0.00835305
-0.0484229
0.00874044
-0.0488893
0.0090183
-0.0495457
0.00917836
-0.0500597
0.00921629
-0.0501115
-0.0496935
0.00226591
-0.0199877
0.00435033
-0.0396133
0.00544785
-0.046683
0.00585407
-0.0482887
0.00591116
-0.04848
0.00576232
-0.0487404
0.00542372
-0.0492071
0.00488979
-0.0495257
0.00420843
-0.0494301
-0.0490278
0.00196135
-0.0219491
0.00343719
-0.0410891
0.00392442
-0.0471702
0.00379843
-0.0481627
0.0033631
-0.0480447
0.00270198
-0.0480793
0.00180215
-0.0483073
0.000678372
-0.048402
-0.000577069
-0.0481747
-0.0477915
0.00158453
-0.0235336
0.00242812
-0.0419327
0.00231168
-0.0470537
0.00166183
-0.0475129
0.000748698
-0.0471315
-0.000381943
-0.0469487
-0.00175673
-0.0469325
-0.003353
-0.0468057
-0.00505529
-0.0464724
-0.0461823
0.00115241
-0.024686
0.00135635
-0.0421366
0.000647751