/*--------------------------------*- C++ -*----------------------------------*\
  =========                 |
  \\      /  F ield         | OpenFOAM: The Open Source CFD Toolbox
   \\    /   O peration     | Website:  https://openfoam.org
    \\  /    A nd           | Version:  7
     \\/     M anipulation  |
\*---------------------------------------------------------------------------*/
FoamFile
{
    version     2.0;
    format      ascii;
    class       volVectorField;
    location    "3";
    object      U;
}
// * * * * * * * * * * * * * * * * * * * * * * * * * * * * * * * * * * * * * //

dimensions      [0 1 -1 0 0 0 0];

internalField   nonuniform List<vector> 
2000
(
(-0.00596395 0.0369744 -1.10439e-20)
(-0.00619167 0.0858356 0)
(0.00571315 0.118639 0)
(0.0255362 0.140017 -5.47181e-20)
(0.0486912 0.152286 1.73128e-20)
(0.0718608 0.158151 2.42903e-22)
(0.0929862 0.160254 -2.9773e-20)
(0.111049 0.160705 0)
(0.125796 0.160955 0)
(0.13758 0.161909 0)
(-0.010047 0.0384123 0)
(-0.015554 0.0818599 -4.22919e-20)
(-0.00708277 0.107978 3.89982e-20)
(0.0115413 0.123888 7.31e-20)
(0.0352889 0.132896 0)
(0.0603959 0.137669 6.38569e-20)
(0.0842559 0.140372 -5.93767e-20)
(0.105385 0.14253 0)
(0.123178 0.145058 1.04941e-19)
(0.137824 0.148419 -1.97928e-19)
(-0.0142457 0.0402819 0)
(-0.0235378 0.0781682 3.35455e-19)
(-0.016615 0.0971753 0)
(0.00226271 0.106949 2.90815e-19)
(0.0275385 0.111978 0)
(0.0549473 0.115032 -2.53235e-19)
(0.0814651 0.11789 0)
(0.105288 0.121526 2.22596e-19)
(0.125584 0.126312 -2.08464e-19)
(0.142531 0.132125 -1.96104e-19)
(-0.0184939 0.0422769 -8.79097e-20)
(-0.029811 0.0745978 -1.67825e-19)
(-0.0220767 0.0863963 -7.75511e-20)
(-0.00096864 0.089887 -1.45003e-19)
(0.0271567 0.0906484 -1.34662e-19)
(0.0574663 0.0916575 1.26556e-19)
(0.086616 0.0943807 1.17775e-19)
(0.112651 0.0992918 -9.13848e-22)
(0.134693 0.106258 2.07374e-19)
(0.153194 0.114362 1.95795e-19)
(-0.0226363 0.0440187 -8.72829e-20)
(-0.0338908 0.0708118 -1.67427e-19)
(-0.0225901 0.0758624 -3.10678e-19)
(0.0031522 0.0734662 1.43633e-19)
(0.0357737 0.0702503 0)
(0.0697539 0.0693614 0)
(0.10152 0.0719653 -2.35135e-19)
(0.129171 0.0780666 -2.20039e-19)
(0.151981 0.0870958 2.0544e-19)
(0.171153 0.0971903 5.79878e-19)
(-0.0264239 0.0450902 8.69837e-20)
(-0.0352235 0.0664757 8.38088e-20)
(-0.0173094 0.065673 -4.58558e-19)
(0.0156539 0.0584178 7.15082e-19)
(0.0544951 0.0521795 -1.3296e-19)
(0.0928657 0.0501105 0)
(0.127098 0.0530086 0)
(0.155625 0.0604214 1.08971e-18)
(0.178036 0.0713821 -1.02367e-18)
(0.196918 0.0831701 1.92302e-19)
(-0.0294996 0.0450883 6.8564e-19)
(-0.0332465 0.0612538 0)
(-0.0056007 0.0558616 6.14263e-19)
(0.037038 0.0453606 -5.71071e-19)
(0.0834632 0.037627 0)
(0.126525 0.0355919 2.47497e-19)
(0.162713 0.0395494 -6.89106e-19)
(0.191165 0.0486263 -8.66644e-19)
(0.211911 0.0613897 4.0505e-19)
(0.2295 0.0747334 3.80942e-19)
(-0.0314394 0.0437194 -1.36494e-18)
(-0.0273534 0.0548634 -1.63953e-19)
(0.0128992 0.0464935 -3.00632e-19)
(0.0670712 0.0347383 -7.00843e-19)
(0.121617 0.0273558 -2.62806e-19)
(0.168904 0.0267764 -2.42203e-19)
(0.206006 0.0326692 5.22661e-21)
(0.233169 0.043896 0)
(0.250965 0.0583834 0)
(0.266133 0.0735567 -1.87432e-21)
(-0.031812 0.0408794 6.79313e-19)
(-0.0169292 0.0472094 -6.45001e-19)
(0.0382748 0.037721 4.53245e-19)
(0.10478 0.026861 9.79076e-19)
(0.166787 0.0216257 -2.58273e-19)
(0.216912 0.0236937 2.47762e-19)
(0.253473 0.0321314 2.2871e-19)
(0.278126 0.0458308 0)
(0.291934 0.0619493 0)
(0.303055 0.0802249 -2.68935e-21)
(-0.0301857 0.0366299 -8.36014e-20)
(-0.00140453 0.0385239 8.06016e-19)
(0.0702896 0.0299402 -1.48391e-19)
(0.148513 0.0219944 0)
(0.215996 0.0202609 0)
(0.266753 0.0255495 4.79764e-19)
(0.301204 0.0365436 0)
(0.322706 0.0524299 -4.15934e-19)
(0.333057 0.0697923 -2.46065e-22)
(0.338657 0.0932367 3.62736e-19)
(0.155511 0.170035 7.44574e-21)
(0.159829 0.188674 -7.56758e-21)
(0.155774 0.203204 -7.66087e-21)
(0.154599 0.217527 -7.79275e-21)
(0.115222 0.228651 -7.93172e-21)
(0.136753 0.2429 -2.16704e-23)
(0.0511479 0.243718 3.99663e-21)
(0.111465 0.261089 1.23257e-20)
(-0.0129618 0.250727 0)
(0.0691974 0.293093 -8.39196e-21)
(0.160694 0.164106 2.95268e-20)
(0.165405 0.186729 -3.03207e-20)
(0.160651 0.204725 5.3503e-20)
(0.15953 0.221299 7.80565e-21)
(0.119539 0.233812 1.5637e-20)
(0.140316 0.249431 2.39818e-20)
(0.0542622 0.250744 -8.05893e-21)
(0.112996 0.268226 -8.21601e-21)
(-0.0116244 0.259208 1.64069e-20)
(0.0674949 0.300695 8.37254e-21)
(0.16832 0.15708 0)
(0.172314 0.184432 -3.01462e-20)
(0.166378 0.206028 -1.53234e-20)
(0.165107 0.224924 0)
(0.124267 0.238977 -4.70836e-20)
(0.144262 0.255961 1.56744e-20)
(0.0575642 0.25799 1.57722e-20)
(0.11478 0.275545 4.85624e-20)
(-0.0103554 0.268072 -1.63535e-20)
(0.0661599 0.308186 3.29472e-20)
(0.178957 0.149338 0)
(0.180631 0.181952 3.04024e-20)
(0.17298 0.207168 0)
(0.171359 0.228521 6.18889e-20)
(0.12942 0.244137 -6.2204e-20)
(0.148626 0.262521 -3.15829e-20)
(0.0610691 0.265474 -4.28568e-23)
(0.116903 0.283078 -4.83267e-20)
(-0.00907695 0.27728 -8.07302e-21)
(0.0652318 0.315618 -4.08613e-20)
(0.193203 0.141454 3.11994e-22)
(0.190502 0.179264 -9.05617e-20)
(0.180519 0.208021 3.34869e-22)
(0.178341 0.23198 -6.15662e-20)
(0.135049 0.249113 0)
(0.153474 0.269073 -3.14061e-20)
(0.0647952 0.273142 -1.1871e-22)
(0.119425 0.290847 6.36636e-20)
(-0.00772719 0.286796 7.98224e-21)
(0.0647236 0.323078 -8.0136e-21)
(0.211432 0.134297 -2.41131e-19)
(0.202073 0.176471 1.52655e-19)
(0.189049 0.208561 6.16284e-20)
(0.186099 0.235228 -6.15851e-20)
(0.14122 0.253679 -3.07915e-20)
(0.158896 0.275403 0)
(0.0687803 0.280722 -6.23923e-20)
(0.122411 0.29864 3.12626e-20)
(-0.00624235 0.296453 3.1444e-20)
(0.0646331 0.330548 3.1469e-20)
(0.233552 0.128895 -3.01724e-20)
(0.215442 0.173882 0)
(0.198609 0.208828 0)
(0.194633 0.238377 0)
(0.147967 0.258042 -3.11353e-20)
(0.16493 0.281855 6.18293e-20)
(0.0730347 0.288459 6.20555e-20)
(0.125831 0.306726 -9.3144e-20)
(-0.00464069 0.306355 1.54873e-20)
(0.0649746 0.3382 -4.65163e-20)
(0.258785 0.126099 1.85001e-19)
(0.230596 0.17193 1.25369e-19)
(0.209231 0.208775 -1.24184e-19)
(0.203993 0.241043 1.24361e-19)
(0.155368 0.261453 -1.5392e-19)
(0.171813 0.287567 0)
(0.0777236 0.295532 -3.04817e-20)
(0.129961 0.314493 2.27875e-22)
(-0.00262899 0.316121 -3.02583e-20)
(0.0656313 0.345996 -3.01922e-20)
(0.285645 0.126028 -1.57125e-19)
(0.247366 0.17078 0)
(0.220687 0.208854 -1.41835e-19)
(0.213804 0.244582 2.49336e-19)
(0.163138 0.266188 -9.22469e-20)
(0.178812 0.29493 -1.5326e-20)
(0.0822996 0.303666 3.04154e-20)
(0.134114 0.323253 1.46134e-22)
(-0.000945014 0.326377 4.48121e-20)
(0.067015 0.354003 4.44823e-20)
(0.312619 0.125674 -1.29196e-19)
(0.268113 0.167237 1.27447e-19)
(0.235227 0.204089 1.5813e-20)
(0.225898 0.242201 0)
(0.172622 0.264649 0)
(0.188537 0.297649 1.50759e-20)
(0.0887261 0.308398 5.9156e-20)
(0.140024 0.330422 -5.79579e-20)
(0.00238101 0.335686 -1.43245e-20)
(0.0677975 0.363285 1.40575e-20)
(0.343357 0.146031 0)
(0.313031 0.185527 0)
(0.278469 0.228636 0)
(0.253798 0.273311 0)
(0.192516 0.296146 0)
(0.199748 0.329414 0)
(0.0941081 0.335517 0)
(0.148815 0.3562 0)
(0.00269576 0.36232 0)
(0.0771431 0.378498 0)
(0.380485 0.18637 0)
(0.34429 0.220218 0)
(0.308712 0.256471 0)
(0.282522 0.297576 0)
(0.223115 0.325296 0)
(0.223161 0.362401 0)
(0.112248 0.37378 0)
(0.162299 0.399808 0)
(0.000287061 0.409435 0)
(0.0856213 0.447307 0)
(0.415092 0.225893 0)
(0.373818 0.25964 0)
(0.337843 0.296254 0)
(0.310319 0.335057 0)
(0.251296 0.364557 0)
(0.247916 0.399122 0)
(0.13541 0.41588 0)
(0.179837 0.443017 0)
(0.0169859 0.449914 0)
(0.101976 0.431579 0)
(0.452582 0.262807 0)
(0.411277 0.300654 0)
(0.374344 0.339741 0)
(0.344885 0.380778 0)
(0.281335 0.41257 0)
(0.277763 0.448981 0)
(0.160165 0.462253 0)
(0.20919 0.494579 0)
(0.0309055 0.505329 0)
(0.103886 0.613093 0)
(0.494739 0.303893 0)
(0.453099 0.345386 0)
(0.416444 0.386593 0)
(0.384056 0.427893 0)
(0.317481 0.46716 0)
(0.298228 0.502978 0)
(0.173297 0.530987 0)
(0.187418 0.554808 0)
(-0.00628354 0.553294 0)
(0.0834043 0.475957 0)
(0.539515 0.326376 0)
(0.495121 0.371916 0)
(0.454497 0.416933 0)
(0.42687 0.467025 0)
(0.356522 0.507749 0)
(0.35815 0.558464 0)
(0.236927 0.579515 0)
(0.304996 0.638175 0)
(0.156642 0.661792 0)
(0.161523 0.792176 0)
(0.591968 0.386648 0)
(0.555396 0.439228 0)
(0.516015 0.486769 0)
(0.475991 0.529414 0)
(0.393413 0.577452 0)
(0.347726 0.614089 0)
(0.19377 0.646961 0)
(0.167408 0.652196 0)
(-0.0681853 0.647718 0)
(0.0701745 0.664737 0)
(0.622543 0.364366 0)
(0.578105 0.422912 0)
(0.543594 0.487791 0)
(0.534351 0.562385 0)
(0.470796 0.625558 0)
(0.476305 0.703638 0)
(0.347589 0.754168 0)
(0.3755 0.834712 0)
(0.178846 0.867673 0)
(0.135418 0.91435 0)
(0.756906 0.490059 0)
(0.709129 0.539598 0)
(0.636921 0.582903 0)
(0.574276 0.62722 0)
(0.47194 0.681277 0)
(0.426959 0.735021 0)
(0.273421 0.775023 0)
(0.27215 0.818385 0)
(0.0854842 0.825494 0)
(0.129077 0.869228 0)
(0.671349 0.377383 0)
(0.721785 0.501462 0)
(0.717964 0.605344 0)
(0.716622 0.700353 0)
(0.632036 0.788203 0)
(0.607923 0.881777 0)
(0.440588 0.957587 0)
(0.408484 1.03722 0)
(0.167263 1.08129 0)
(0.142852 1.15835 0)
(0.394476 0.131664 1.12204e-19)
(0.429247 0.166483 -1.11052e-19)
(0.465311 0.204603 1.18526e-20)
(0.499834 0.239017 0)
(0.538813 0.275484 0)
(0.582706 0.298762 7.2177e-21)
(0.624094 0.348693 -1.96114e-20)
(0.668005 0.339926 1.91853e-20)
(0.763102 0.444507 1.26389e-21)
(0.622051 0.290566 -1.2467e-21)
(0.409302 0.134571 -1.4608e-19)
(0.441164 0.168515 0)
(0.477994 0.204774 7.89463e-20)
(0.510796 0.237221 -1.69096e-19)
(0.549634 0.269825 9.61599e-20)
(0.593263 0.293347 -7.61022e-21)
(0.632825 0.338034 1.14162e-20)
(0.681151 0.333114 1.38492e-20)
(0.756993 0.425412 -8.14631e-22)
(0.593513 0.252986 -8.3387e-22)
(0.424095 0.137452 1.66899e-19)
(0.454335 0.16651 -9.75097e-20)
(0.493164 0.199978 9.65548e-20)
(0.523986 0.230641 -7.62429e-20)
(0.562711 0.260382 5.77128e-20)
(0.605413 0.283933 0)
(0.643377 0.324888 -1.14406e-20)
(0.693597 0.323146 -4.81652e-22)
(0.748777 0.402213 -4.10477e-21)
(0.563124 0.214244 -3.27894e-22)
(0.437806 0.140135 -2.65499e-20)
(0.46413 0.164692 0)
(0.504924 0.195312 0)
(0.533338 0.224909 0)
(0.572034 0.25163 4.75492e-20)
(0.613792 0.275723 -3.06915e-20)
(0.65098 0.312831 1.56836e-21)
(0.701875 0.313596 -5.30385e-21)
(0.733503 0.377542 -8.6741e-22)
(0.527482 0.174578 1.11186e-21)
(0.450501 0.141859 -6.0251e-21)
(0.472952 0.161593 -7.51138e-20)
(0.516611 0.18835 -4.05684e-20)
(0.543029 0.217423 4.05302e-20)
(0.581985 0.241431 -1.66157e-20)
(0.622797 0.265892 0)
(0.659601 0.299929 -1.05131e-20)
(0.708279 0.301627 1.18533e-20)
(0.71522 0.349508 -4.95207e-21)
(0.489492 0.134046 -2.58368e-22)
(0.46159 0.141177 -1.94656e-19)
(0.479941 0.157753 2.87409e-20)
(0.526597 0.180064 4.59528e-21)
(0.551242 0.209743 3.94127e-20)
(0.590305 0.231095 0)
(0.630183 0.256187 0)
(0.666554 0.287035 0)
(0.710828 0.288637 6.02793e-21)
(0.692034 0.319287 0)
(0.449215 0.0932693 0)
(0.47024 0.136779 0)
(0.485529 0.153376 6.50198e-20)
(0.535449 0.170155 -4.29059e-20)
(0.558976 0.201377 -3.33694e-20)
(0.59817 0.220099 3.35362e-20)
(0.637182 0.245633 1.09157e-20)
(0.673008 0.273477 -1.25755e-20)
(0.71003 0.273313 -2.14352e-20)
(0.665967 0.285756 1.94156e-21)
(0.409074 0.0531465 1.61174e-21)
(0.476037 0.127456 0)
(0.489903 0.149007 -2.21328e-20)
(0.542501 0.159019 -9.93336e-21)
(0.565579 0.192766 0)
(0.604659 0.208826 6.07053e-21)
(0.642854 0.234773 -1.95913e-20)
(0.677525 0.259408 1.28311e-20)
(0.705006 0.256036 2.02119e-21)
(0.636418 0.249308 -1.04522e-21)
(0.366183 0.0153216 -1.45762e-21)
(0.47899 0.113171 2.38377e-20)
(0.493499 0.145337 2.06314e-20)
(0.54742 0.146947 -6.0056e-21)
(0.571078 0.183753 4.30658e-21)
(0.60998 0.197139 7.44427e-21)
(0.647496 0.223255 8.86987e-21)
(0.680346 0.244535 -2.12374e-21)
(0.696179 0.236266 -1.23782e-21)
(0.603877 0.210265 1.04861e-21)
(0.311581 -0.0192582 -4.44407e-22)
(0.479878 0.0953824 -5.53538e-21)
(0.496939 0.142568 5.62077e-21)
(0.549909 0.134307 -4.89504e-21)
(0.575393 0.174268 -4.29839e-21)
(0.61393 0.185133 3.2371e-21)
(0.650796 0.211229 -6.17264e-21)
(0.680808 0.228831 2.94168e-21)
(0.683387 0.214365 4.13863e-22)
(0.567678 0.170651 0)
(0.272644 -0.0513565 4.45126e-22)
(0.479889 0.0769532 5.54664e-21)
(0.500743 0.139972 -5.62226e-21)
(0.550242 0.121445 -4.87345e-21)
(0.578962 0.164112 -4.24e-21)
(0.616837 0.172844 -3.1876e-21)
(0.6529 0.198591 4.21844e-22)
(0.679086 0.212163 1.19765e-21)
(0.667063 0.190597 1.89006e-21)
(0.528898 0.130651 0)
(0.23387 -0.0818115 3.88698e-22)
(0.47984 0.0608922 0)
(0.504742 0.135737 -2.05283e-20)
(0.548819 0.108693 3.53699e-20)
(0.581891 0.153211 4.24447e-21)
(0.6187 0.160412 7.10242e-21)
(0.653723 0.185368 8.30441e-21)
(0.675186 0.194529 -1.97908e-21)
(0.647848 0.165399 -1.09895e-21)
(0.48895 0.0904645 6.74765e-22)
(0.197365 -0.110517 -3.87589e-22)
(0.479424 0.0488506 0)
(0.508033 0.12801 -2.20264e-20)
(0.54597 0.0964063 -9.82803e-21)
(0.583979 0.141571 0)
(0.619549 0.147867 -1.96444e-20)
(0.653487 0.171438 7.11285e-21)
(0.669629 0.175835 4.55625e-21)
(0.626876 0.138806 6.81982e-21)
(0.45131 0.0510439 -6.72545e-22)
(0.165149 -0.137242 -1.17746e-21)
(0.477637 0.0403728 0)
(0.509792 0.11629 2.21969e-20)
(0.542143 0.0848367 0)
(0.585222 0.12925 3.12442e-20)
(0.619881 0.135117 -3.14123e-20)
(0.652772 0.156686 -9.05488e-21)
(0.663062 0.156057 1.67139e-21)
(0.605005 0.110824 -6.3426e-21)
(0.414689 0.0113933 -1.22034e-21)
(0.134371 -0.16358 1.16851e-21)
(0.473716 0.0336343 1.9952e-19)
(0.51026 0.101739 -7.56097e-20)
(0.538804 0.0738461 -5.63155e-21)
(0.58622 0.116251 -3.76842e-20)
(0.620907 0.121968 0)
(0.652443 0.141083 -8.87251e-21)
(0.656047 0.135324 3.60869e-21)
(0.582778 0.0818627 8.95377e-21)
(0.37977 -0.0274286 -6.4813e-25)
(0.106211 -0.189353 6.46873e-25)
(0.468154 0.0269179 8.7152e-21)
(0.51072 0.085982 1.21778e-19)
(0.537278 0.0630362 3.82547e-20)
(0.587678 0.102617 -3.8239e-20)
(0.622771 0.108313 -1.43194e-20)
(0.652131 0.124893 0)
(0.647837 0.113998 -1.19139e-20)
(0.559881 0.0523065 6.30477e-21)
(0.346785 -0.0649181 2.01855e-21)
(0.0812001 -0.213834 -6.86105e-22)
(0.461916 0.0197465 -2.72228e-20)
(0.510857 0.0699607 0)
(0.536017 0.0520947 0)
(0.587722 0.0887194 0)
(0.622274 0.0944985 -1.07245e-20)
(0.64868 0.108565 2.5024e-20)
(0.636227 0.0924103 1.18106e-20)
(0.535339 0.0224962 -1.14027e-20)
(0.315129 -0.101045 -4.97399e-27)
(0.0592798 -0.236886 6.77214e-22)
(0.452518 0.0128995 -6.04184e-20)
(0.50514 0.0543907 9.54268e-20)
(0.528626 0.0413103 -9.45686e-20)
(0.579854 0.0753047 6.7668e-20)
(0.613656 0.0810139 -8.25989e-20)
(0.63741 0.0922426 0)
(0.618119 0.0703525 -7.27147e-21)
(0.507206 -0.00808937 -1.26569e-22)
(0.28406 -0.13645 -5.51685e-22)
(0.0404774 -0.259021 4.56262e-22)
(0.435123 0.0085712 -2.95395e-20)
(0.488847 0.0403412 0)
(0.511513 0.0311378 -9.94849e-20)
(0.562132 0.0627183 1.58548e-19)
(0.59721 0.06777 -5.56555e-20)
(0.619525 0.0755812 -5.91195e-21)
(0.594976 0.047109 7.25328e-21)
(0.476698 -0.0403568 1.32007e-21)
(0.253722 -0.172436 2.45731e-21)
(0.0247211 -0.281349 -4.16742e-22)
(0.422562 0.00828132 -1.3519e-19)
(0.478752 0.0281989 1.32287e-19)
(0.504381 0.0211802 1.37017e-20)
(0.556083 0.0503457 0)
(0.593586 0.054203 0)
(0.614016 0.0582927 6.73382e-21)
(0.582153 0.0225966 1.21465e-20)
(0.453523 -0.074246 -1.16525e-20)
(0.227333 -0.209449 -4.91559e-23)
(0.0118153 -0.304863 4.64942e-23)
(0.442614 0.00457452 0)
(0.501539 -0.00104043 0)
(0.540739 -0.00749536 0)
(0.593359 0.0169741 0)
(0.630688 0.0194951 0)
(0.642364 0.0167364 0)
(0.587297 -0.0334304 0)
(0.425926 -0.150426 0)
(0.178552 -0.293321 0)
(-0.0176754 -0.36295 0)
(0.443318 -0.0655673 0)
(0.50495 -0.0534114 0)
(0.552707 -0.069022 0)
(0.605094 -0.0325515 0)
(0.624279 -0.0420637 0)
(0.591132 -0.0702992 0)
(0.462655 -0.166003 0)
(0.250069 -0.313094 0)
(0.0474598 -0.43067 0)
(-0.0361836 -0.459145 0)
(0.452622 -0.122137 0)
(0.514507 -0.109534 0)
(0.564757 -0.121891 0)
(0.614179 -0.0991278 0)
(0.607299 -0.12246 0)
(0.525477 -0.185108 0)
(0.35881 -0.310942 0)
(0.152423 -0.450405 0)
(-0.0103912 -0.524862 0)
(-0.03238 -0.523947 0)
(0.46664 -0.187919 0)
(0.529716 -0.18713 0)
(0.582945 -0.193994 0)
(0.606387 -0.182687 0)
(0.553734 -0.234506 0)
(0.41381 -0.332233 0)
(0.21748 -0.477019 0)
(0.0407167 -0.590973 0)
(-0.0429705 -0.61581 0)
(-0.0119223 -0.5961 0)
(0.458317 -0.257884 0)
(0.521082 -0.26224 0)
(0.570564 -0.276461 0)
(0.562852 -0.293533 0)
(0.460219 -0.384258 0)
(0.285276 -0.512594 0)
(0.103121 -0.647491 0)
(-0.0148633 -0.708859 0)
(-0.0357944 -0.690831 0)
(0.00625292 -0.674418 0)
(0.444386 -0.337095 0)
(0.513293 -0.35393 0)
(0.557554 -0.390465 0)
(0.506936 -0.451497 0)
(0.353366 -0.577301 0)
(0.163141 -0.706062 0)
(0.0218632 -0.797383 0)
(-0.0275299 -0.799456 0)
(-0.00792705 -0.762094 0)
(0.0138727 -0.760959 0)
(0.432296 -0.430291 0)
(0.504565 -0.476694 0)
(0.516213 -0.547522 0)
(0.405209 -0.646605 0)
(0.221285 -0.779849 0)
(0.0624505 -0.876092 0)
(-0.00771319 -0.908521 0)
(-0.00434861 -0.87177 0)
(0.0155497 -0.84762 0)
(0.0090906 -0.861283 0)
(0.403011 -0.54612 0)
(0.434902 -0.614163 0)
(0.398688 -0.717846 0)
(0.255625 -0.848838 0)
(0.101523 -0.976052 0)
(0.0148436 -1.03252 0)
(0.00766972 -1.01754 0)
(0.022419 -0.975738 0)
(0.0172361 -0.982789 0)
(-0.000333823 -0.999129 0)
(0.227793 -0.613713 0)
(0.282503 -0.735415 0)
(0.245196 -0.926663 0)
(0.123327 -1.11119 0)
(0.0310423 -1.2227 0)
(0.0174888 -1.22406 0)
(0.0310629 -1.18934 0)
(0.0196143 -1.18568 0)
(0.00021607 -1.21426 0)
(-0.00334998 -1.21507 0)
(0.23301 -0.731029 0)
(0.202006 -0.979049 0)
(0.0693979 -1.22373 0)
(-0.0209019 -1.31967 0)
(0.00450964 -1.34562 0)
(0.0415232 -1.37355 0)
(0.0189167 -1.39687 0)
(-0.00883083 -1.40315 0)
(-0.0047829 -1.4066 0)
(0.00187253 -1.4031 0)
(0.38907 -0.000967537 1.41761e-19)
(0.396378 -0.0801135 -1.39041e-19)
(0.407531 -0.145347 1.77884e-20)
(0.409275 -0.213254 0)
(0.403888 -0.283025 0)
(0.385732 -0.355017 1.89663e-20)
(0.365108 -0.4249 -7.92092e-20)
(0.345267 -0.532625 7.88696e-20)
(0.167088 -0.565312 2.20953e-20)
(0.216123 -0.616489 -2.1897e-20)
(0.372519 -0.0130428 -1.6986e-19)
(0.377963 -0.08897 0)
(0.389764 -0.15054 1.19661e-19)
(0.38555 -0.215666 -2.72087e-19)
(0.381925 -0.282671 1.70754e-19)
(0.361994 -0.35226 -1.75081e-20)
(0.33663 -0.414385 3.69493e-20)
(0.321426 -0.519012 7.62873e-20)
(0.142409 -0.540124 2.211e-20)
(0.204251 -0.57168 2.05627e-20)
(0.358819 -0.0267254 2.01769e-19)
(0.360977 -0.103306 -1.35452e-19)
(0.373912 -0.159768 1.3413e-19)
(0.362849 -0.219815 -1.39278e-19)
(0.360915 -0.281881 1.03409e-19)
(0.338587 -0.347238 0)
(0.308578 -0.402712 -3.70389e-20)
(0.297578 -0.498885 5.57267e-22)
(0.118163 -0.513711 -4.06782e-20)
(0.189239 -0.528879 -4.12856e-20)
(0.346225 -0.0393204 -3.31105e-20)
(0.34528 -0.115283 0)
(0.35954 -0.168989 0)
(0.341964 -0.224904 0)
(0.341248 -0.283275 1.07962e-19)
(0.316066 -0.344083 -7.19358e-20)
(0.28192 -0.39397 -1.89141e-22)
(0.274732 -0.479551 -3.9101e-20)
(0.0960193 -0.490719 -2.08343e-20)
(0.173742 -0.490077 -2.09586e-20)
(0.33436 -0.0510642 1.10181e-21)
(0.331067 -0.12325 -9.93224e-20)
(0.346102 -0.174913 -6.88485e-20)
(0.323383 -0.227412 6.87989e-20)
(0.323015 -0.283725 -3.55349e-20)
(0.294927 -0.340618 0)
(0.257032 -0.386018 -3.84061e-20)
(0.253467 -0.462109 7.97743e-20)
(0.0773271 -0.47049 -4.0616e-20)
(0.159686 -0.455985 4.22831e-20)
(0.322674 -0.0620606 -2.68063e-19)
(0.318264 -0.128961 3.24006e-20)
(0.333361 -0.178148 -1.26192e-21)
(0.307443 -0.226738 6.93458e-20)
(0.306477 -0.281478 0)
(0.275924 -0.334831 0)
(0.234376 -0.376403 0)
(0.234225 -0.444912 3.98684e-20)
(0.0626031 -0.451121 0)
(0.147669 -0.425624 0)
(0.310622 -0.0719237 0)
(0.306489 -0.133247 1.01915e-19)
(0.320883 -0.179966 -6.82882e-20)
(0.293892 -0.224193 -7.16166e-20)
(0.291707 -0.277108 7.19864e-20)
(0.259658 -0.326956 3.84677e-20)
(0.214502 -0.365036 -3.8551e-20)
(0.217411 -0.427303 -1.40678e-19)
(0.051373 -0.432115 1.00765e-20)
(0.137069 -0.39821 -3.20412e-20)
(0.298055 -0.08039 0)
(0.295395 -0.136113 -3.36892e-20)
(0.30815 -0.180656 -1.73728e-20)
(0.28192 -0.220699 0)
(0.278271 -0.271491 1.8789e-20)
(0.246031 -0.317989 -5.6562e-20)
(0.19751 -0.352955 5.95335e-20)
(0.203185 -0.409896 2.02219e-20)
(0.0424986 -0.413922 -2.12588e-20)
(0.126775 -0.373504 4.30167e-20)
(0.285168 -0.087526 3.36291e-20)
(0.284844 -0.137661 3.42887e-20)
(0.295021 -0.180057 -8.5303e-21)
(0.270744 -0.216458 8.99504e-21)
(0.26552 -0.264881 1.84171e-20)
(0.234378 -0.30839 2.86329e-20)
(0.182872 -0.340661 -9.99655e-21)
(0.191295 -0.393123 -1.0151e-20)
(0.0348091 -0.396639 2.13289e-20)
(0.116074 -0.351414 1.07287e-20)
(0.272307 -0.0935149 -8.51095e-21)
(0.274785 -0.138172 8.5175e-21)
(0.281783 -0.178125 -8.71916e-21)
(0.259967 -0.211585 -8.98307e-21)
(0.253044 -0.257345 9.41151e-21)
(0.22399 -0.298257 -1.90749e-20)
(0.169829 -0.328142 1.50253e-20)
(0.181219 -0.376794 5.09214e-21)
(0.0275926 -0.379859 0)
(0.105016 -0.331899 -1.07528e-20)
(0.25985 -0.0985709 8.57084e-21)
(0.265139 -0.138013 -8.5839e-21)
(0.268862 -0.175078 -8.85589e-21)
(0.249506 -0.206418 -9.10525e-21)
(0.240786 -0.249181 -9.45803e-21)
(0.214439 -0.287817 -1.09348e-22)
(0.157824 -0.31552 5.01777e-21)
(0.172452 -0.360695 1.52573e-20)
(0.0207142 -0.363245 0)
(0.0942043 -0.31496 -1.06823e-20)
(0.248201 -0.102582 0)
(0.255843 -0.137376 -3.50916e-20)
(0.25664 -0.171135 6.2111e-20)
(0.239407 -0.201164 9.12022e-21)
(0.228912 -0.240704 1.88668e-20)
(0.205592 -0.277343 2.90143e-20)
(0.146638 -0.303065 -1.00471e-20)
(0.164687 -0.344874 -1.01696e-20)
(0.0144263 -0.346784 2.1122e-20)
(0.0843579 -0.300494 1.06576e-20)
(0.237856 -0.105306 0)
(0.246926 -0.136206 -3.52922e-20)
(0.24544 -0.166315 -1.79339e-20)
(0.229781 -0.195719 0)
(0.217648 -0.232003 -5.70926e-20)
(0.197464 -0.266874 1.90905e-20)
(0.136277 -0.290904 2.00945e-20)
(0.157792 -0.329439 6.08569e-20)
(0.00904433 -0.330589 -2.10534e-20)
(0.0759894 -0.2882 4.21871e-20)
(0.229296 -0.106885 0)
(0.23853 -0.134587 3.5591e-20)
(0.235529 -0.160716 0)
(0.220774 -0.189966 7.50364e-20)
(0.207219 -0.223152 -7.54228e-20)
(0.190116 -0.256358 -3.94219e-20)
(0.126825 -0.279065 -5.5872e-22)
(0.15172 -0.314439 -6.04005e-20)
(0.00470984 -0.314771 -1.01868e-20)
(0.0693031 -0.277663 -5.23849e-20)
(0.222804 -0.107519 2.86827e-19)
(0.230821 -0.132712 -1.0718e-19)
(0.227086 -0.154712 1.11204e-21)
(0.212542 -0.183954 -7.43504e-20)
(0.197793 -0.214351 0)
(0.183606 -0.245888 -3.94751e-20)
(0.118363 -0.267662 -5.55352e-22)
(0.146449 -0.299965 8.052e-20)
(0.00134501 -0.299479 1.03211e-20)
(0.0642691 -0.26848 -1.03619e-20)
(0.218408 -0.107172 -1.46869e-21)
(0.223887 -0.130561 1.82939e-19)
(0.220126 -0.14864 7.51346e-20)
(0.205213 -0.177779 -7.50862e-20)
(0.189458 -0.205806 -3.85467e-20)
(0.17796 -0.235564 0)
(0.11093 -0.256855 -8.00374e-20)
(0.141959 -0.286137 3.95259e-20)
(-0.00125452 -0.284888 4.0472e-20)
(0.0607552 -0.260308 4.07612e-20)
(0.215896 -0.105795 -3.7317e-20)
(0.217778 -0.127997 0)
(0.214488 -0.142609 0)
(0.198825 -0.171438 0)
(0.182214 -0.197654 -3.92463e-20)
(0.17316 -0.225397 7.7673e-20)
(0.104505 -0.246681 7.98379e-20)
(0.138214 -0.272969 -1.19234e-19)
(-0.00331274 -0.271101 2.01883e-20)
(0.0586258 -0.252833 -6.03814e-20)
(0.21484 -0.103362 -7.57374e-20)
(0.212552 -0.12492 1.54329e-19)
(0.209941 -0.136623 -1.52851e-19)
(0.193332 -0.164843 1.56193e-19)
(0.175978 -0.189953 -1.93825e-19)
(0.169147 -0.215433 0)
(0.0990179 -0.237154 -3.97401e-20)
(0.135161 -0.26047 5.92362e-23)
(-0.00499545 -0.258202 -3.98645e-20)
(0.057798 -0.245834 -3.94745e-20)
(0.214834 -0.100624 -3.94365e-20)
(0.208046 -0.121622 0)
(0.206176 -0.130999 -1.77708e-19)
(0.188609 -0.158113 3.14032e-19)
(0.170606 -0.18275 -1.16649e-19)
(0.165825 -0.205673 -1.95944e-20)
(0.0943469 -0.228113 3.96519e-20)
(0.132683 -0.248412 -3.41862e-22)
(-0.00640768 -0.246166 5.87438e-20)
(0.0582615 -0.238921 5.82801e-20)
(0.215828 -0.0977075 -1.65027e-19)
(0.20277 -0.117872 1.6085e-19)
(0.202269 -0.125864 2.01041e-20)
(0.183683 -0.151318 0)
(0.165494 -0.176531 0)
(0.162988 -0.196344 1.95806e-20)
(0.0906513 -0.220364 7.84207e-20)
(0.131126 -0.23749 -7.69049e-20)
(-0.00725886 -0.235286 -1.92134e-20)
(0.0600359 -0.232647 1.89174e-20)
(0.219803 -0.0743108 0)
(0.182092 -0.100895 0)
(0.189066 -0.105225 0)
(0.162081 -0.129714 0)
(0.145175 -0.154353 0)
(0.143103 -0.171739 0)
(0.0723286 -0.197059 0)
(0.118327 -0.207581 0)
(-0.0137196 -0.209497 0)
(0.0717197 -0.212811 0)
(0.205473 -0.0930547 0)
(0.168618 -0.109215 0)
(0.176024 -0.124328 0)
(0.150987 -0.138576 0)
(0.13325 -0.155112 0)
(0.131697 -0.167891 0)
(0.0611585 -0.181307 0)
(0.110525 -0.189256 0)
(-0.017077 -0.187178 0)
(0.0793967 -0.187314 0)
(0.181594 -0.0584735 0)
(0.154454 -0.0715611 0)
(0.153735 -0.0911252 0)
(0.132292 -0.107006 0)
(0.114018 -0.124734 0)
(0.117496 -0.141441 0)
(0.0482226 -0.153651 0)
(0.102758 -0.166415 0)
(-0.0216559 -0.1653 0)
(0.0770024 -0.162226 0)
(0.166775 -0.0580456 0)
(0.143138 -0.069866 0)
(0.139954 -0.0848036 0)
(0.120478 -0.0960862 0)
(0.100045 -0.108208 0)
(0.106472 -0.122124 0)
(0.0360366 -0.130423 0)
(0.0944234 -0.143247 0)
(-0.0272535 -0.14338 0)
(0.071621 -0.139353 0)
(0.149178 -0.0462951 0)
(0.130791 -0.0570545 0)
(0.125895 -0.0714462 0)
(0.109281 -0.082422 0)
(0.0875053 -0.0930219 0)
(0.0972567 -0.105976 0)
(0.025951 -0.11223 0)
(0.0868784 -0.124309 0)
(-0.0320738 -0.125202 0)
(0.0667217 -0.122113 0)
(0.136351 -0.0377084 0)
(0.120423 -0.0464859 0)
(0.113958 -0.0580275 0)
(0.0991531 -0.0676508 0)
(0.0758514 -0.0768026 0)
(0.0885213 -0.0887423 0)
(0.0162934 -0.0949519 0)
(0.079178 -0.106966 0)
(-0.0369977 -0.109635 0)
(0.0619755 -0.109241 0)
(0.12571 -0.0300122 0)
(0.111988 -0.0368288 0)
(0.104369 -0.0457201 0)
(0.0906961 -0.0536259 0)
(0.0658676 -0.061315 0)
(0.0803261 -0.0711192 0)
(0.00657382 -0.0787387 0)
(0.0708793 -0.0901892 0)
(-0.0435726 -0.0968185 0)
(0.0563157 -0.102901 0)
(0.118521 -0.0225589 0)
(0.106115 -0.0269285 0)
(0.0973491 -0.0333094 0)
(0.0839846 -0.039419 0)
(0.0580793 -0.0464477 0)
(0.0725953 -0.0530329 0)
(-0.00355141 -0.0634516 0)
(0.061541 -0.0728946 0)
(-0.0561836 -0.0856057 0)
(0.046841 -0.0913449 0)
(0.127043 -0.0145746 0)
(0.117352 -0.0160084 0)
(0.106457 -0.0195831 0)
(0.0912616 -0.0236476 0)
(0.0642449 -0.0307418 0)
(0.0770769 -0.0271026 0)
(-0.0072583 -0.0496266 0)
(0.0593863 -0.0465575 0)
(-0.072397 -0.0699977 0)
(0.020461 -0.13648 0)
(0.344404 -0.00493229 0)
(0.336699 -0.00560421 0)
(0.324841 -0.0069124 0)
(0.309431 -0.00861652 0)
(0.293228 -0.0114197 0)
(0.281212 -0.00937919 0)
(0.225426 -0.0246801 0)
(0.249097 -0.0207853 0)
(0.104715 -0.0484249 0)
(0.194443 -0.10772 0)
(0.22883 -0.0546898 1.71883e-19)
(0.200787 -0.0796632 -1.67045e-19)
(0.185462 -0.044088 2.06446e-20)
(0.166632 -0.048117 0)
(0.149964 -0.0361138 0)
(0.137527 -0.0302424 1.9467e-20)
(0.127325 -0.0240601 -7.64323e-20)
(0.12136 -0.0178545 7.49394e-20)
(0.134589 -0.0133529 1.84234e-20)
(0.354196 -0.00547335 -1.8583e-20)
(0.231839 -0.0465342 -1.93233e-19)
(0.195918 -0.0726596 0)
(0.185768 -0.0387375 1.34137e-19)
(0.16539 -0.0438302 -3.02844e-19)
(0.149943 -0.0319675 1.87119e-19)
(0.137873 -0.0271704 -1.85494e-20)
(0.128112 -0.0215946 3.66151e-20)
(0.122746 -0.0158883 7.23729e-20)
(0.137861 -0.0129029 1.78668e-20)
(0.358767 -0.0058257 1.75594e-20)
(0.234583 -0.0383096 2.24376e-19)
(0.191045 -0.0630355 -1.50833e-19)
(0.186243 -0.0336476 1.49442e-19)
(0.164024 -0.0392092 -1.49584e-19)
(0.150154 -0.0278142 1.11089e-19)
(0.138343 -0.0240176 0)
(0.129078 -0.0190745 -3.6701e-20)
(0.124238 -0.0139609 -5.72994e-23)
(0.141259 -0.0124669 -3.61774e-20)
(0.363665 -0.00625264 -3.57435e-20)
(0.236483 -0.0329697 -3.64421e-20)
(0.187095 -0.0513312 0)
(0.187343 -0.0285243 0)
(0.163142 -0.0340452 0)
(0.150659 -0.023546 1.10634e-19)
(0.138857 -0.020694 -7.3497e-20)
(0.129988 -0.0164764 -3.03722e-23)
(0.125504 -0.0120976 -3.65702e-20)
(0.144227 -0.0119783 -1.82139e-20)
(0.368516 -0.0067053 -1.80257e-20)
(0.236977 -0.0336436 1.54984e-21)
(0.183934 -0.0396994 -1.07243e-19)
(0.187846 -0.0235702 -7.27473e-20)
(0.162389 -0.0284001 7.27189e-20)
(0.151031 -0.019195 -3.66381e-20)
(0.139196 -0.0172329 0)
(0.130661 -0.013852 -3.67434e-20)
(0.126398 -0.0103288 7.34789e-20)
(0.146556 -0.0113691 -3.67349e-20)
(0.373091 -0.00714289 3.65833e-20)
(0.236324 -0.0394005 -2.79278e-19)
(0.182808 -0.0299524 3.43233e-20)
(0.187459 -0.019043 -4.66946e-22)
(0.161763 -0.0225384 7.20429e-20)
(0.151172 -0.0148965 0)
(0.139359 -0.0137467 0)
(0.131108 -0.0112829 0)
(0.126959 -0.00869018 3.68131e-20)
(0.148343 -0.0105944 0)
(0.377329 -0.00752311 0)
(0.234744 -0.0448274 0)
(0.184502 -0.0220879 1.05198e-19)
(0.186668 -0.0148345 -7.06315e-20)
(0.161477 -0.016686 -7.18325e-20)
(0.151156 -0.0107507 7.22108e-20)
(0.139415 -0.0103282 3.64971e-20)
(0.131367 -0.00881772 -3.6664e-20)
(0.127235 -0.00720011 -1.29266e-19)
(0.149628 -0.00965173 9.29446e-21)
(0.38122 -0.00779405 -2.7837e-20)
(0.232394 -0.0445242 0)
(0.188372 -0.0148595 -3.46462e-20)
(0.185753 -0.0104937 -1.75846e-20)
(0.161531 -0.0109435 0)
(0.15098 -0.00676754 1.80768e-20)
(0.139351 -0.00701423 -5.45284e-20)
(0.131419 -0.00645302 5.51033e-20)
(0.127247 -0.00583946 1.85237e-20)
(0.15036 -0.0085734 -1.86258e-20)
(0.384779 -0.00790769 3.73856e-20)
(0.229649 -0.0368054 3.3321e-20)
(0.192943 -0.00721509 3.45272e-20)
(0.18468 -0.00555342 -8.5576e-21)
(0.161749 -0.00532919 8.85428e-21)
(0.15061 -0.00289046 1.79826e-20)
(0.139137 -0.00379763 2.72458e-20)
(0.131243 -0.00415909 -9.16797e-21)
(0.127008 -0.00454789 -9.24927e-21)
(0.150515 -0.00737593 1.86869e-20)
(0.387943 -0.0078329 9.36454e-21)
(0.226646 -0.0233309 -8.4206e-21)
(0.197145 0.00115625 8.51044e-21)
(0.183424 0.00017767 -8.72368e-21)
(0.161941 0.000176812 -8.84212e-21)
(0.150056 0.00095997 8.97446e-21)
(0.138757 -0.000649033 -1.81275e-20)
(0.13083 -0.00189228 1.37557e-20)
(0.126529 -0.00326211 4.6331e-21)
(0.150155 -0.00605439 0)
(0.39058 -0.00753556 -9.38535e-21)
(0.2234 -0.00696543 8.3995e-21)
(0.200388 0.0099692 -8.48991e-21)
(0.182075 0.00669351 -8.69194e-21)
(0.161911 0.00560795 -8.81656e-21)
(0.149359 0.00484432 -8.96317e-21)
(0.138191 0.00247079 -6.33399e-24)
(0.130191 0.000382256 4.5714e-21)
(0.125822 -0.00193843 1.38586e-20)
(0.149362 -0.00459737 0)