0 	0.516667 	0.5 	412.533
0 	0.55 	0.5 	411.904
0 	0.583333 	0.5 	411.288
0 	0.616667 	0.5 	410.647
0 	0.65 	0.5 	409.901
0 	0.683333 	0.5 	409.04
0 	0.716667 	0.5 	408.073
0 	0.75 	0.5 	407.019
0 	0.783333 	0.5 	405.897
0 	0.816667 	0.5 	404.722
0 	0.85 	0.5 	403.505
0 	0.883333 	0.5 	402.247
0 	0.916667 	0.5 	400.948
0 	0.95 	0.5 	399.613
0 	0.983333 	0.5 	398.246
0 	1.01667 	0.5 	396.852
0 	1.05 	0.5 	395.433
0 	1.08333 	0.5 	393.987
0 	1.11667 	0.5 	392.509
0 	1.15 	0.5 	390.997
0 	1.18333 	0.5 	389.452
0 	1.21667 	0.5 	387.877
0 	1.25 	0.5 	386.271
0 	1.28333 	0.5 	384.636
0 	1.31667 	0.5 	382.973
0 	1.35 	0.5 	381.288
0 	1.38333 	0.5 	379.584
0 	1.41667 	0.5 	377.859
0 	1.45 	0.5 	376.113
0 	1.48333 	0.5 	374.432
0 	1.575 	0.5 	370.313
0 	1.725 	0.5 	364.03
0 	1.875 	0.5 	356.452
0 	2.025 	0.5 	347.808
0 	2.175 	0.5 	338.414
0 	2.325 	0.5 	328.425
