/*--------------------------------*- C++ -*----------------------------------*\
  =========                 |
  \\      /  F ield         | OpenFOAM: The Open Source CFD Toolbox
   \\    /   O peration     | Website:  https://openfoam.org
    \\  /    A nd           | Version:  7
     \\/     M anipulation  |
\*---------------------------------------------------------------------------*/
FoamFile
{
    version     2.0;
    format      ascii;
    class       volScalarField;
    location    "5.6";
    object      p;
}
// * * * * * * * * * * * * * * * * * * * * * * * * * * * * * * * * * * * * * //

dimensions      [0 2 -2 0 0 0 0];

internalField   nonuniform List<scalar> 
32000
(
0.500698
0.500543
0.500483
0.500401
0.500374
0.500439
0.500609
0.500878
0.50124
0.50171
0.502319
0.503094
0.504033
0.505118
0.506335
0.507676
0.509144
0.510745
0.512482
0.514348
0.516332
0.51842
0.520597
0.522854
0.525179
0.527563
0.529991
0.532448
0.534918
0.537384
0.539837
0.542264
0.544657
0.547008
0.549309
0.551552
0.553734
0.55586
0.557913
0.559805
0.500711
0.500515
0.500433
0.500331
0.500293
0.500356
0.500528
0.500795
0.501148
0.501608
0.502208
0.502969
0.503891
0.504956
0.506147
0.507456
0.508885
0.51044
0.512124
0.513932
0.515851
0.517868
0.519969
0.522143
0.524379
0.526669
0.528999
0.531356
0.533724
0.536089
0.538439
0.540763
0.543052
0.545299
0.547496
0.549635
0.551716
0.55374
0.555692
0.557498
0.500717
0.500483
0.500379
0.500258
0.500212
0.500274
0.500447
0.500714
0.501062
0.501517
0.50211
0.50286
0.503766
0.50481
0.505974
0.507252
0.508644
0.510156
0.511789
0.513537
0.515391
0.517336
0.51936
0.52145
0.523596
0.525789
0.528018
0.530272
0.532535
0.534794
0.537036
0.539253
0.541434
0.543572
0.545659
0.547691
0.549665
0.551584
0.55343
0.555147
0.500702
0.500428
0.500305
0.500169
0.50012
0.500185
0.500362
0.500631
0.50098
0.501434
0.502023
0.502765
0.503655
0.504677
0.505816
0.507065
0.508422
0.509891
0.511474
0.513163
0.51495
0.516822
0.518767
0.520772
0.522825
0.52492
0.527046
0.529193
0.531347
0.533496
0.535628
0.537732
0.539801
0.541825
0.543799
0.545719
0.547581
0.549391
0.551127
0.552749
0.50068
0.500372
0.500234
0.500085
0.500035
0.500105
0.500284
0.500555
0.500909
0.501365
0.501951
0.502684
0.503558
0.504559
0.505673
0.506893
0.508216
0.509644
0.511175
0.512805
0.514525
0.516324
0.518188
0.520105
0.522064
0.524058
0.526078
0.528116
0.53016
0.532195
0.534212
0.5362
0.538151
0.540058
0.541915
0.543718
0.545465
0.547161
0.548783
0.550304
0.500638
0.500297
0.500148
0.499992
0.499943
0.500018
0.500202
0.500478
0.500839
0.5013
0.501886
0.502611
0.503471
0.504453
0.505543
0.506735
0.508024
0.50941
0.51089
0.512461
0.514116
0.515841
0.517622
0.519449
0.521311
0.523202
0.525115
0.527043
0.528972
0.530892
0.53279
0.534657
0.536486
0.538271
0.540007
0.541689
0.543317
0.544894
0.546397
0.547813
0.500578
0.500211
0.500055
0.499897
0.499851
0.499932
0.500123
0.500407
0.500777
0.501244
0.501832
0.502551
0.503398
0.504361
0.505428
0.506592
0.507847
0.509191
0.510621
0.512135
0.513722
0.515371
0.517068
0.518802
0.520565
0.522352
0.524157
0.525972
0.527785
0.529584
0.53136
0.533103
0.534806
0.536466
0.538076
0.539634
0.541138
0.542592
0.543973
0.545277
0.5005
0.500112
0.499954
0.499797
0.499755
0.499843
0.500044
0.500338
0.500718
0.501194
0.501785
0.502499
0.503335
0.504281
0.505326
0.506462
0.507683
0.508984
0.510366
0.511822
0.513342
0.514913
0.516523
0.518162
0.519825
0.521507
0.523202
0.524902
0.526596
0.528272
0.529922
0.531537
0.533112
0.534643
0.536125
0.537554
0.53893
0.540257
0.541512
0.542699
0.5004
0.499997
0.49984
0.499688
0.499653
0.49975
0.499963
0.500268
0.500661
0.501147
0.501742
0.502454
0.503281
0.504211
0.505234
0.506342
0.507528
0.508789
0.510123
0.511521
0.512973
0.514465
0.515986
0.517529
0.519091
0.520667
0.522251
0.523834
0.525405
0.526956
0.528476
0.529961
0.531405
0.532804
0.534155
0.535452
0.536696
0.537892
0.539018
0.540081
0.500277
0.499864
0.499711
0.499568
0.499544
0.499652
0.499877
0.500196
0.500601
0.501099
0.501701
0.502414
0.503233
0.504148
0.505149
0.506229
0.507382
0.508603
0.509889
0.51123
0.512612
0.514023
0.515455
0.516903
0.518363
0.519832
0.521302
0.522766
0.524213
0.525635
0.527024
0.528376
0.529686
0.530952
0.532167
0.53333
0.534439
0.535501
0.536495
0.53743
0.500129
0.499711
0.499566
0.499436
0.499424
0.499547
0.499786
0.500119
0.500538
0.501049
0.50166
0.502375
0.503188
0.504089
0.505069
0.506122
0.507241
0.508424
0.509663
0.510946
0.512257
0.513587
0.514929
0.516281
0.517639
0.519
0.520356
0.521699
0.52302
0.524311
0.525567
0.526784
0.527959
0.529088
0.530167
0.531191
0.532163
0.533088
0.53395
0.53475
0.499953
0.499536
0.499402
0.499288
0.499294
0.499433
0.499687
0.500035
0.500469
0.500994
0.501616
0.502336
0.503145
0.504033
0.504992
0.506017
0.507105
0.508251
0.509443
0.510666
0.511906
0.513155
0.514408
0.515664
0.51692
0.518172
0.519412
0.520633
0.521825
0.522984
0.524105
0.525186
0.526224
0.527215
0.528155
0.529041
0.529873
0.53066
0.531387
0.532051
0.499749
0.499338
0.499218
0.499123
0.499151
0.499308
0.499578
0.499942
0.500392
0.500933
0.501568
0.502294
0.5031
0.503976
0.504915
0.505915
0.506973
0.508081
0.509225
0.510389
0.511558
0.512726
0.513891
0.515052
0.516205
0.517347
0.51847
0.519567
0.52063
0.521655
0.52264
0.523584
0.524484
0.525336
0.526136
0.526882
0.527574
0.528222
0.528816
0.529339
0.499517
0.499114
0.499011
0.498941
0.498992
0.49917
0.499457
0.499838
0.500306
0.500865
0.501514
0.502247
0.503052
0.503917
0.504838
0.505814
0.506842
0.507912
0.509008
0.510112
0.511211
0.5123
0.513378
0.514443
0.515494
0.516525
0.51753
0.518501
0.519434
0.520326
0.521175
0.521981
0.522742
0.523455
0.524115
0.52472
0.525272
0.525782
0.526245
0.526625
0.499255
0.498866
0.498783
0.498739
0.498817
0.499017
0.499322
0.499721
0.500209
0.500787
0.501452
0.502193
0.502997
0.503853
0.504758
0.505712
0.50671
0.507742
0.50879
0.509835
0.510864
0.511874
0.512866
0.513837
0.514785
0.515705
0.516592
0.517438
0.51824
0.518998
0.519711
0.52038
0.521003
0.521575
0.522096
0.522562
0.522975
0.523348
0.523681
0.523918
0.498964
0.498592
0.498532
0.498518
0.498623
0.498846
0.499171
0.499589
0.500098
0.500697
0.501378
0.502129
0.502934
0.503783
0.504674
0.505607
0.506576
0.50757
0.508568
0.509554
0.510515
0.511449
0.512355
0.513233
0.514079
0.514889
0.515657
0.516378
0.517051
0.517676
0.518254
0.518786
0.51927
0.519703
0.520085
0.520413
0.520688
0.520927
0.521134
0.52123
0.498645
0.498294
0.498258
0.498275
0.498409
0.498657
0.499003
0.499442
0.499973
0.500592
0.501291
0.502052
0.50286
0.503705
0.504584
0.505497
0.506437
0.507392
0.508342
0.509269
0.510164
0.511023
0.511846
0.512632
0.513377
0.514076
0.514726
0.515324
0.515868
0.516362
0.516806
0.517202
0.517548
0.517844
0.518088
0.518281
0.518421
0.518528
0.518615
0.518572
0.498298
0.497971
0.497961
0.49801
0.498175
0.498447
0.498817
0.499278
0.499831
0.500472
0.501187
0.50196
0.502774
0.503617
0.504487
0.505381
0.506292
0.507208
0.508108
0.508978
0.509808
0.510595
0.511337
0.512032
0.512677
0.513268
0.513802
0.514278
0.514696
0.51506
0.515372
0.515633
0.515844
0.516004
0.516113
0.516173
0.516182
0.516162
0.516134
0.515955
0.497924
0.497624
0.497641
0.497723
0.497917
0.498217
0.498611
0.499096
0.499673
0.500335
0.501067
0.501853
0.502674
0.503518
0.50438
0.505256
0.506139
0.507015
0.507868
0.508682
0.509449
0.510165
0.510828
0.511435
0.511981
0.512465
0.512886
0.513242
0.513538
0.513774
0.513956
0.514085
0.514162
0.514189
0.514167
0.514097
0.51398
0.513836
0.5137
0.513392
0.497524
0.497254
0.497297
0.497412
0.497637
0.497965
0.498385
0.498896
0.499497
0.50018
0.50093
0.501729
0.502559
0.503406
0.504262
0.505122
0.505977
0.506814
0.50762
0.50838
0.509086
0.509734
0.51032
0.510839
0.51129
0.51167
0.51198
0.51222
0.512395
0.512508
0.512563
0.512562
0.512509
0.512406
0.512256
0.512061
0.511822
0.511561
0.511324
0.510894
0.4971
0.49686
0.49693
0.497077
0.497334
0.497691
0.498139
0.498677
0.499302
0.500007
0.500775
0.501588
0.502428
0.503279
0.504131
0.504975
0.505803
0.506603
0.507363
0.508071
0.508719
0.509301
0.509811
0.510246
0.510604
0.510883
0.511085
0.511214
0.511272
0.511264
0.511195
0.51107
0.510891
0.510662
0.510388
0.510073
0.509717
0.509345
0.509013
0.508469
0.496652
0.496444
0.49654
0.496718
0.497006
0.497394
0.497872
0.498439
0.499089
0.499815
0.500602
0.50143
0.502281
0.503137
0.503985
0.504816
0.505618
0.506382
0.507097
0.507754
0.508346
0.508864
0.509302
0.509656
0.509923
0.510105
0.510204
0.510224
0.510169
0.510046
0.509858
0.509612
0.509312
0.508962
0.50857
0.508141
0.507674
0.507197
0.506778
0.50613
0.496182
0.496006
0.496126
0.496336
0.496655
0.497074
0.497584
0.498179
0.498856
0.499604
0.50041
0.501254
0.502117
0.502978
0.503824
0.504641
0.505419
0.506148
0.506821
0.507429
0.507966
0.508423
0.508792
0.509067
0.509248
0.509336
0.509337
0.509253
0.50909
0.508855
0.508554
0.508193
0.507777
0.507313
0.506809
0.506271
0.505701
0.505124
0.504624
0.503882
0.49569
0.495544
0.495689
0.495928
0.496279
0.496731
0.497273
0.497899
0.498603
0.499374
0.500199
0.50106
0.501934
0.502802
0.503645
0.50445
0.505204
0.5059
0.506532
0.507094
0.507579
0.507977
0.508279
0.50848
0.508578
0.508578
0.508484
0.508301
0.508035
0.507695
0.507287
0.506817
0.506293
0.50572
0.50511
0.504471
0.503803
0.503134
0.502559
0.501733
0.495175
0.495058
0.495227
0.495496
0.495878
0.496363
0.496939
0.497597
0.498329
0.499124
0.499969
0.500846
0.501732
0.502606
0.503447
0.50424
0.504973
0.505638
0.506231
0.506748
0.507183
0.507525
0.507764
0.507893
0.507914
0.507829
0.507645
0.507368
0.507006
0.506566
0.506057
0.505486
0.504859
0.504186
0.503477
0.502743
0.501985
0.50123
0.500587
0.499688
0.494638
0.494549
0.49474
0.495038
0.495452
0.49597
0.496581
0.497272
0.498033
0.498852
0.499718
0.50061
0.501509
0.502389
0.503229
0.504012
0.504724
0.505358
0.505915
0.50639
0.506777
0.507066
0.507244
0.507306
0.507253
0.507088
0.50682
0.506454
0.506
0.505467
0.504865
0.504199
0.503478
0.502711
0.501911
0.501091
0.500249
0.499416
0.49871
0.497748
0.494077
0.494014
0.494228
0.494554
0.494999
0.495552
0.496198
0.496923
0.497714
0.498559
0.499445
0.500354
0.501264
0.502151
0.502991
0.503763
0.504455
0.505062
0.505583
0.506018
0.50636
0.506597
0.506718
0.506716
0.506592
0.506353
0.506004
0.505555
0.505016
0.504397
0.503707
0.502954
0.502146
0.501293
0.500411
0.499512
0.498597
0.497692
0.49693
0.495913
0.493494
0.493455
0.493691
0.494044
0.494521
0.495108
0.495791
0.496551
0.497372
0.498243
0.499149
0.500074
0.500996
0.50189
0.502729
0.503492
0.504165
0.504745
0.505233
0.50563
0.505928
0.506116
0.506181
0.506118
0.505929
0.505618
0.505195
0.504668
0.50405
0.50335
0.50258
0.501746
0.500859
0.499929
0.498974
0.498005
0.497024
0.496056
0.495243
0.494183
0.492888
0.492871
0.493127
0.493507
0.494016
0.494639
0.495358
0.496153
0.497006
0.497904
0.498831
0.499772
0.500705
0.501605
0.502443
0.503197
0.503853
0.504407
0.504863
0.505223
0.505479
0.505619
0.505631
0.50551
0.505258
0.50488
0.504386
0.503787
0.503095
0.502321
0.501476
0.500569
0.49961
0.498612
0.497591
0.496562
0.495525
0.494503
0.493647
0.492552
0.492258
0.492261
0.492537
0.492944
0.493485
0.494143
0.494898
0.49573
0.496616
0.49754
0.498488
0.499445
0.50039
0.501295
0.502132
0.502876
0.503514
0.504044
0.50447
0.504794
0.505009
0.505102
0.505062
0.504885
0.504573
0.504132
0.503572
0.502905
0.502144
0.501301
0.500388
0.499414
0.498391
0.497332
0.496255
0.495175
0.494092
0.493026
0.492135
0.491017
0.491604
0.491625
0.49192
0.492354
0.492928
0.493621
0.494413
0.49528
0.496199
0.49715
0.498119
0.499092
0.500047
0.500956
0.501791
0.502525
0.503146
0.503652
0.504049
0.504338
0.504512
0.504559
0.504469
0.504238
0.503868
0.503367
0.502744
0.502013
0.501188
0.500281
0.499304
0.49827
0.497189
0.496078
0.494954
0.493832
0.492712
0.491614
0.490699
0.489572
0.490923
0.49096
0.491276
0.491738
0.492345
0.493073
0.493901
0.494803
0.495754
0.496731
0.497721
0.498709
0.499674
0.500587
0.501417
0.502141
0.502745
0.503228
0.503596
0.50385
0.503983
0.503984
0.503844
0.50356
0.503134
0.502575
0.501893
0.501102
0.500216
0.499249
0.498214
0.497124
0.495992
0.494835
0.493672
0.492517
0.491372
0.490255
0.48933
0.488209
0.490214
0.490266
0.490604
0.491094
0.491734
0.492497
0.493361
0.494297
0.495279
0.496282
0.497293
0.498295
0.499268
0.500183
0.501008
0.50172
0.502306
0.502765
0.503104
0.503323
0.503415
0.50337
0.50318
0.502844
0.502364
0.501749
0.50101
0.500161
0.499217
0.498193
0.497104
0.495962
0.494784
0.493588
0.492392
0.491214
0.490056
0.488934
0.488013
0.486921
0.489475
0.489542
0.489901
0.490421
0.491094
0.491893
0.492792
0.493761
0.494771
0.4958
0.49683
0.497846
0.498826
0.499741
0.50056
0.501258
0.501825
0.50226
0.502569
0.502752
0.502803
0.502711
0.502471
0.502082
0.501548
0.500878
0.500083
0.499179
0.498179
0.497101
0.495959
0.494769
0.493549
0.492318
0.491096
0.489902
0.488741
0.487629
0.486735
0.485699
0.488704
0.488784
0.489166
0.489717
0.490423
0.491258
0.492191
0.493192
0.49423
0.495282
0.49633
0.497359
0.498345
0.499258
0.500067
0.50075
0.501296
0.501706
0.501984
0.502131
0.502138
0.501999
0.501708
0.501266
0.500677
0.499952
0.499103
0.498143
0.497089
0.495957
0.494765
0.493529
0.492269
0.491005
0.489761
0.488557
0.487403
0.486318
0.485472
0.484528
0.487897
0.487992
0.488397
0.488979
0.489721
0.490591
0.491558
0.492588
0.493652
0.494726
0.495792
0.496831
0.49782
0.498728
0.499527
0.500192
0.500715
0.501098
0.501343
0.501451
0.501415
0.501227
0.500883
0.500387
0.499743
0.498962
0.498057
0.497042
0.495935
0.49475
0.493508
0.492225
0.490924
0.489628
0.488362
0.487151
0.486011
0.484964
0.48419
0.483384
0.487052
0.487162
0.487591
0.488207
0.488984
0.48989
0.490889
0.491948
0.493035
0.49413
0.495211
0.496258
0.497248
0.498149
0.498934
0.499579
0.500077
0.50043
0.50064
0.500707
0.500624
0.500385
0.499988
0.499435
0.498735
0.497898
0.496937
0.495867
0.494704
0.493467
0.492173
0.490843
0.489498
0.488165
0.486872
0.48565
0.484523
0.483523
0.482839
0.482222
0.486166
0.486293
0.486748
0.487398
0.488213
0.489153
0.490183
0.491268
0.492378
0.493491
0.494584
0.495637
0.496625
0.497517
0.498283
0.498905
0.499376
0.499696
0.499868
0.499892
0.499759
0.499467
0.499014
0.498404
0.497645
0.49675
0.495732
0.494606
0.493389
0.492097
0.49075
0.489368
0.487974
0.486595
0.485264
0.484017
0.482892
0.481936
0.481367
0.481013
0.485236
0.485381
0.485864
0.486551
0.487404
0.488379
0.489437
0.490546
0.491678
0.492806
0.49391
0.494965
0.495947
0.496826
0.497572
0.498167
0.498606
0.49889
0.499021
0.498998
0.498813
0.498465
0.497954
0.497285
0.496467
0.495513
0.494437
0.493255
0.491981
0.490633
0.48923
0.487791
0.48634
0.484901
0.483507
0.482201
0.481032
0.480087
0.47967
0.479753
0.484262
0.484428
0.484942
0.485666
0.486557
0.487565
0.48865
0.489782
0.490932
0.492073
0.493184
0.494239
0.495212
0.496073
0.496793
0.497358
0.497762
0.498007
0.498093
0.498019
0.49778
0.497374
0.496803
0.496073
0.495196
0.494182
0.493048
0.491808
0.490477
0.489072
0.487611
0.486111
0.484593
0.483076
0.481585
0.480153
0.478816
0.47767
0.477064
0.477243
0.565902
0.574756
0.580733
0.586362
0.590277
0.593825
0.596609
0.599046
0.601068
0.6028
0.604266
0.605524
0.606582
0.607458
0.608185
0.608771
0.609231
0.609553
0.609769
0.609872
0.609875
0.609779
0.609598
0.609325
0.608963
0.608512
0.607954
0.607301
0.606547
0.605683
0.60472
0.603635
0.602445
0.601142
0.599728
0.598208
0.596613
0.594934
0.593368
0.591661
0.563497
0.572299
0.578382
0.584142
0.588183
0.591859
0.594745
0.597259
0.59934
0.601128
0.602641
0.603922
0.604999
0.605909
0.606665
0.607262
0.607737
0.608091
0.608332
0.608452
0.608468
0.608389
0.608223
0.607977
0.607626
0.607181
0.60664
0.605998
0.605255
0.604405
0.603446
0.602378
0.601196
0.599899
0.598492
0.596984
0.595398
0.593725
0.592173
0.590483
0.561018
0.569787
0.575972
0.581881
0.586061
0.589876
0.59287
0.595466
0.597611
0.599455
0.601015
0.60232
0.603418
0.604361
0.605143
0.605752
0.606242
0.606625
0.606889
0.607028
0.607059
0.606998
0.606848
0.606626
0.606289
0.605852
0.605326
0.604697
0.603965
0.60313
0.602177
0.601127
0.599954
0.598666
0.597269
0.595774
0.594202
0.592537
0.590999
0.589325
0.558461
0.56722
0.573497
0.579578
0.583912
0.587873
0.590983
0.59367
0.595886
0.597781
0.599382
0.600719
0.601844
0.60281
0.603612
0.604244
0.604753
0.605156
0.605438
0.605599
0.605649
0.605609
0.605475
0.605267
0.604949
0.604525
0.604015
0.603399
0.602679
0.601858
0.600916
0.599878
0.598717
0.597443
0.596059
0.594577
0.59302
0.591369
0.589845
0.588184
0.555822
0.564597
0.570957
0.577231
0.581732
0.58585
0.589084
0.59187
0.594161
0.596106
0.597746
0.599118
0.600273
0.601258
0.602079
0.602737
0.603266
0.603684
0.603983
0.604167
0.604239
0.60422
0.604104
0.603906
0.603607
0.603202
0.602706
0.602105
0.601398
0.600589
0.599663
0.598635
0.597488
0.596231
0.594862
0.593394
0.591854
0.590218
0.588707
0.58706
0.553096
0.561914
0.568355
0.574841
0.57952
0.583809
0.587174
0.590065
0.592434
0.594432
0.596111
0.597518
0.598702
0.599707
0.600546
0.601228
0.601776
0.602212
0.602528
0.602734
0.602829
0.602829
0.602733
0.602546
0.602267
0.60188
0.601399
0.600814
0.600122
0.599326
0.598417
0.597401
0.596269
0.59503
0.593677
0.592226
0.590702
0.589083
0.587585
0.58595
0.550282
0.559172
0.565689
0.572404
0.577273
0.581747
0.585253
0.588254
0.590704
0.592758
0.594478
0.595919
0.597131
0.598157
0.599014
0.599718
0.600284
0.600739
0.601074
0.601301
0.601417
0.601436
0.601361
0.601189
0.600929
0.600559
0.600094
0.599527
0.59885
0.598069
0.597176
0.596177
0.59506
0.59384
0.592506
0.591071
0.589564
0.587961
0.586477
0.584855
0.547377
0.556369
0.562958
0.569919
0.574992
0.579664
0.583321
0.586439
0.588973
0.591085
0.592848
0.594322
0.595561
0.596608
0.597483
0.598208
0.598792
0.599266
0.59962
0.599868
0.600006
0.600043
0.599989
0.599833
0.599591
0.599241
0.598791
0.598242
0.597582
0.596818
0.595943
0.594962
0.593862
0.592661
0.591347
0.58993
0.588441
0.586854
0.585383
0.583774
0.544384
0.553506
0.560159
0.567386
0.572676
0.57756
0.581377
0.584618
0.587241
0.589412
0.591218
0.592726
0.593992
0.595061
0.595954
0.596699
0.597301
0.597795
0.598168
0.598436
0.598595
0.59865
0.598617
0.598479
0.598254
0.597924
0.597491
0.59696
0.596319
0.595573
0.594716
0.593755
0.592676
0.591494
0.590201
0.588803
0.587331
0.58576
0.584303
0.582707
0.541305
0.550584
0.557295
0.564804
0.570322
0.575432
0.579421
0.582792
0.585507
0.587741
0.589591
0.591133
0.592425
0.593515
0.594427
0.595191
0.595812
0.596324
0.596718
0.597004
0.597184
0.597258
0.597245
0.597126
0.596918
0.596609
0.596193
0.595681
0.59506
0.594334
0.593497
0.592557
0.591499
0.590338
0.589067
0.587689
0.586235
0.584682
0.583236
0.581654
0.538143
0.547607
0.554366
0.562172
0.567932
0.573282
0.577452
0.58096
0.583771
0.58607
0.587965
0.589541
0.590859
0.591971
0.592901
0.593684
0.594324
0.594855
0.59527
0.595574
0.595775
0.595867
0.595874
0.595775
0.595584
0.595295
0.594899
0.594406
0.593806
0.593101
0.592286
0.591368
0.590334
0.589194
0.587945
0.586589
0.585152
0.583617
0.582185
0.580615
0.534904
0.544576
0.551375
0.559491
0.565504
0.571107
0.57547
0.579122
0.582033
0.5844
0.58634
0.58795
0.589294
0.590428
0.591375
0.592178
0.592837
0.593388
0.593823
0.594145
0.594367
0.594477
0.594504
0.594425
0.594251
0.593984
0.593607
0.593135
0.592557
0.591874
0.591082
0.590187
0.589178
0.58806
0.586835
0.585501
0.584082
0.582567
0.581147
0.579589
0.531598
0.541499
0.548326
0.556761
0.56304
0.568908
0.573475
0.577277
0.580293
0.582729
0.584717
0.586361
0.587731
0.588886
0.589851
0.590673
0.591353
0.591922
0.592378
0.592718
0.59296
0.59309
0.593135
0.593077
0.59292
0.592674
0.592319
0.591867
0.591313
0.590653
0.589885
0.589013
0.588031
0.586937
0.585736
0.584426
0.583026
0.581531
0.580124
0.578577
0.528233
0.538382
0.545224
0.553985
0.56054
0.566684
0.571465
0.575424
0.578549
0.581059
0.583095
0.584774
0.58617
0.587345
0.588329
0.58917
0.58987
0.590458
0.590934
0.591293
0.591554
0.591704
0.591767
0.59173
0.591591
0.591367
0.591033
0.590603
0.590073
0.589438
0.588694
0.587848
0.586893
0.585823
0.584646
0.583363
0.581984
0.580508
0.579116
0.577579
0.524822
0.535233
0.542075
0.551165
0.558005
0.564435
0.569441
0.573564
0.576803
0.579389
0.581476
0.583189
0.584611
0.585806
0.58681
0.587669
0.588389
0.588996
0.589492
0.58987
0.59015
0.59032
0.590401
0.590385
0.590264
0.590061
0.589751
0.589343
0.588837
0.588227
0.58751
0.586688
0.585763
0.584719
0.583568
0.582311
0.580955
0.579499
0.578123
0.576595
0.52138
0.532062
0.538889
0.548305
0.555438
0.562162
0.567402
0.571697
0.575054
0.577719
0.579859
0.581607
0.583056
0.58427
0.585293
0.586172
0.586911
0.587536
0.588051
0.588448
0.588747
0.588938
0.589036
0.58904
0.58894
0.588756
0.588472
0.588086
0.587604
0.587021
0.586331
0.585535
0.584639
0.583623
0.582499
0.581271
0.579938
0.578503
0.577144
0.575626
0.517921
0.52888
0.535674
0.54541
0.552841
0.559866
0.56535
0.569822
0.573303
0.576051
0.578245
0.580028
0.581504
0.582738
0.583781
0.584677
0.585435
0.586079
0.586611
0.587029
0.587346
0.587557
0.587672
0.587697
0.587617
0.587454
0.587194
0.586832
0.586374
0.585819
0.585157
0.584388
0.583521
0.582535
0.58144
0.580241
0.578935
0.577521
0.57618
0.57467
0.514465
0.5257
0.532443
0.542486
0.550218
0.557548
0.563283
0.567939
0.571548
0.574382
0.576634
0.578453
0.579955
0.58121
0.582271
0.583186
0.583961
0.584624
0.585174
0.585611
0.585946
0.586178
0.58631
0.586355
0.586298
0.586154
0.585919
0.585582
0.585148
0.58462
0.583987
0.583246
0.58241
0.581455
0.58039
0.579221
0.577944
0.576553
0.575231
0.573729
0.51103
0.522536
0.529209
0.539541
0.547573
0.555211
0.561203
0.566048
0.569791
0.572715
0.575024
0.576881
0.57841
0.579685
0.580765
0.581697
0.58249
0.583171
0.583739
0.584196
0.584548
0.5848
0.58495
0.585013
0.58498
0.584856
0.584645
0.584334
0.583925
0.583425
0.582822
0.582109
0.581303
0.580381
0.579348
0.578211
0.576965
0.575597
0.574295
0.572801
0.507635
0.519402
0.525984
0.536581
0.544911
0.552855
0.559111
0.56415
0.568031
0.571048
0.573417
0.575312
0.576868
0.578164
0.579262
0.580212
0.581022
0.58172
0.582306
0.582782
0.583151
0.583424
0.583592
0.583674
0.583665
0.583561
0.583373
0.583089
0.582705
0.582233
0.58166
0.580976
0.580202
0.579313
0.578315
0.57721
0.575996
0.574654
0.573373
0.571887
0.504302
0.516313
0.522784
0.533616
0.542237
0.550485
0.557008
0.562245
0.566268
0.569381
0.571812
0.573747
0.575331
0.576647
0.577762
0.57873
0.579557
0.580273
0.580876
0.58137
0.581756
0.582048
0.582237
0.582335
0.58235
0.582267
0.582103
0.581845
0.581487
0.581043
0.5805
0.579846
0.579105
0.578251
0.577288
0.576217
0.575039
0.573724
0.572465
0.570988
0.501051
0.513284
0.519624
0.530655
0.539558
0.548102
0.554894
0.560333
0.564502
0.567714
0.570209
0.572186
0.573798
0.575135
0.576267
0.577251
0.578096
0.578828
0.579448
0.57996
0.580364
0.580674
0.580883
0.580999
0.581037
0.580975
0.580834
0.580604
0.580272
0.579854
0.579343
0.578719
0.578012
0.577194
0.576269
0.575234
0.574093
0.572807
0.571571
0.570103
0.497902
0.510329
0.51652
0.52771
0.536881
0.545712
0.552773
0.558415
0.562732
0.566048
0.56861
0.57063
0.57227
0.573627
0.574778
0.575778
0.57664
0.577388
0.578024
0.578553
0.578975
0.579302
0.579531
0.579664
0.579725
0.579685
0.579567
0.579363
0.579057
0.578667
0.578187
0.577595
0.576921
0.576142
0.575256
0.574259
0.573157
0.571903
0.570692
0.569235
0.494876
0.507462
0.513486
0.52479
0.534212
0.543319
0.550645
0.556493
0.56096
0.564383
0.567013
0.569078
0.570748
0.572126
0.573294
0.57431
0.575189
0.575952
0.576603
0.577148
0.577588
0.577932
0.578181
0.578331
0.578413
0.578396
0.578301
0.578123
0.577843
0.577481
0.577032
0.576473
0.575834
0.575094
0.574249
0.573292
0.572232
0.571013
0.569829
0.568383
0.491989
0.504696
0.510537
0.521907
0.53156
0.540928
0.548513
0.554566
0.559186
0.562718
0.56542
0.567532
0.569232
0.570631
0.571818
0.572849
0.573743
0.57452
0.575186
0.575747
0.576205
0.576564
0.576833
0.577
0.577103
0.577108
0.577035
0.576884
0.576631
0.576296
0.575877
0.575354
0.574749
0.57405
0.573248
0.572334
0.571317
0.570137
0.568982
0.56755
0.489256
0.50204
0.507686
0.519073
0.528932
0.538543
0.54638
0.552636
0.55741
0.561054
0.563829
0.56599
0.567722
0.569143
0.570349
0.571394
0.572303
0.573093
0.573774
0.574349
0.574825
0.575199
0.575486
0.575671
0.575794
0.575821
0.57577
0.575645
0.575418
0.575111
0.574723
0.574235
0.573667
0.573009
0.572252
0.571383
0.570413
0.569276
0.568154
0.566736
0.486692
0.499505
0.504946
0.516299
0.526338
0.53617
0.544248
0.550704
0.555633
0.559392
0.562243
0.564454
0.566218
0.567662
0.568886
0.569946
0.570868
0.571671
0.572365
0.572955
0.573446
0.573836
0.57414
0.574343
0.574485
0.574536
0.574506
0.574406
0.574205
0.573926
0.573568
0.573116
0.572586
0.57197
0.57126
0.570439
0.569518
0.568429
0.567344
0.565943
0.484304
0.497096
0.502326
0.513594
0.523786
0.533814
0.542121
0.548772
0.553857
0.557731
0.560661
0.562923
0.564722
0.566189
0.567431
0.568504
0.56944
0.570254
0.570961
0.571564
0.572071
0.572476
0.572797
0.573018
0.573178
0.573251
0.573241
0.573166
0.572991
0.572741
0.572413
0.571998
0.571506
0.570933
0.57027
0.5695
0.568633
0.567596
0.566554
0.565171
0.4821
0.494817
0.499835
0.510969
0.521283
0.53148
0.540002
0.546843
0.552082
0.556073
0.559083
0.561398
0.563233
0.564724
0.565984
0.567071
0.568018
0.568843
0.569562
0.570178
0.570698
0.571118
0.571455
0.571695
0.571871
0.571967
0.571977
0.571925
0.571777
0.571554
0.571256
0.570878
0.570425
0.569897
0.569282
0.568566
0.567756
0.566778
0.565785
0.564425
0.480084
0.492671
0.497479
0.508433
0.518835
0.529175
0.537893
0.544917
0.550309
0.554417
0.55751
0.559881
0.561752
0.563268
0.564546
0.565645
0.566603
0.567439
0.568169
0.568797
0.569329
0.569764
0.570116
0.570374
0.570565
0.570682
0.570713
0.570683
0.570561
0.570366
0.570099
0.569757
0.569343
0.56886
0.568295
0.567635
0.566887
0.565974
0.565038
0.563705
0.478258
0.490657
0.495264
0.505994
0.51645
0.526902
0.535798
0.542996
0.548539
0.552765
0.555943
0.558371
0.560281
0.561821
0.563116
0.564227
0.565195
0.566041
0.566781
0.567419
0.567964
0.568412
0.568778
0.569054
0.569261
0.569398
0.569449
0.56944
0.569343
0.569176
0.568939
0.568633
0.568259
0.56782
0.567307
0.566706
0.566025
0.565184
0.564314
0.563015
0.476625
0.488774
0.49319
0.503659
0.514132
0.524666
0.533719
0.541082
0.546773
0.551117
0.554382
0.55687
0.558819
0.560384
0.561695
0.562818
0.563794
0.56465
0.565398
0.566046
0.566602
0.567063
0.567442
0.567735
0.567958
0.568113
0.568184
0.568195
0.568123
0.567983
0.567777
0.567507
0.567172
0.566778
0.566317
0.565778
0.565168
0.564407
0.563615
0.56236
0.475188
0.487017
0.491257
0.501431
0.511887
0.52247
0.531659
0.539176
0.545012
0.549474
0.552828
0.555378
0.557367
0.558958
0.560285
0.561419
0.562402
0.563266
0.564022
0.564678
0.565244
0.565716
0.566108
0.566417
0.566655
0.566827
0.566917
0.566947
0.566902
0.566787
0.566612
0.566377
0.566081
0.565733
0.565324
0.564848
0.564315
0.563643
0.562941
0.561744
0.473953
0.485383
0.489463
0.499315
0.509719
0.520318
0.529623
0.537282
0.54326
0.54784
0.551284
0.553897
0.555927
0.557543
0.558886
0.56003
0.561019
0.561889
0.562651
0.563315
0.563889
0.564372
0.564775
0.565099
0.565353
0.565539
0.56565
0.565698
0.565677
0.565589
0.565443
0.565242
0.564985
0.564682
0.564326
0.563916
0.563464
0.56289
0.562293
0.561172
0.472931
0.483866
0.487807
0.497313
0.507631
0.518216
0.527613
0.535404
0.541519
0.546216
0.549751
0.552428
0.554498
0.556141
0.557498
0.558651
0.559645
0.560519
0.561287
0.561956
0.562538
0.56303
0.563445
0.563782
0.564051
0.564251
0.564382
0.564447
0.56445
0.564387
0.56427
0.564104
0.563884
0.563625
0.563323
0.56298
0.562611
0.562147
0.561672
0.560653
0.472138
0.482462
0.486283
0.495427
0.505628
0.516171
0.525638
0.53355
0.539797
0.544608
0.548234
0.550975
0.553085
0.554753
0.556124
0.557284
0.558282
0.559159
0.55993
0.560603
0.561192
0.561691
0.562117
0.562466
0.562749
0.562963
0.563112
0.563194
0.56322
0.563181
0.563093
0.56296
0.562776
0.562562
0.562313
0.562037
0.561755
0.561409
0.561079
0.560195
0.471594
0.481169
0.484889
0.493661
0.503717
0.514191
0.523708
0.531726
0.538098
0.543019
0.546735
0.549538
0.551689
0.553381
0.554764
0.55593
0.55693
0.557808
0.558581
0.559256
0.55985
0.560356
0.560791
0.561151
0.561448
0.561674
0.561841
0.56194
0.561987
0.561973
0.561912
0.561811
0.561663
0.561491
0.561294
0.561086
0.560892
0.560674
0.560512
0.559811
0.471347
0.479994
0.483618
0.491993
0.501858
0.512226
0.521765
0.529877
0.536373
0.541406
0.545215
0.548086
0.55028
0.552
0.553397
0.554568
0.555571
0.556449
0.557223
0.5579
0.558498
0.559011
0.559455
0.559826
0.560135
0.560375
0.560559
0.560675
0.560743
0.560753
0.560719
0.560648
0.560535
0.560405
0.560259
0.560118
0.560014
0.559931
0.559965
0.559515
0.471456
0.478893
0.482408
0.490341
0.499959
0.510178
0.519717
0.527917
0.534541
0.539697
0.54361
0.546559
0.548806
0.550562
0.55198
0.553162
0.554171
0.555052
0.555829
0.556511
0.557114
0.557636
0.55809
0.558473
0.558796
0.559051
0.559251
0.559387
0.559476
0.559511
0.559504
0.559462
0.559385
0.559296
0.559201
0.559126
0.559113
0.559171
0.559431
0.559326
0.471889
0.477789
0.481197
0.488793
0.498254
0.508375
0.517919
0.526184
0.532904
0.538148
0.542137
0.545141
0.547423
0.549197
0.550621
0.551804
0.552811
0.553689
0.554464
0.555148
0.555754
0.556282
0.556743
0.557137
0.55747
0.557739
0.557953
0.558106
0.558213
0.55827
0.558286
0.558271
0.558226
0.558173
0.558125
0.55811
0.55818
0.558375
0.558875
0.559237
0.471479
0.473697
0.476683
0.484055
0.493785
0.504188
0.514023
0.522551
0.529499
0.534919
0.539026
0.542073
0.544315
0.545986
0.547275
0.548324
0.549222
0.550019
0.550737
0.551386
0.551967
0.552486
0.552941
0.553338
0.553676
0.55396
0.554192
0.554374
0.554513
0.554612
0.554677
0.554719
0.554746
0.554777
0.554835
0.554957
0.555216
0.555737
0.556876
0.558836
0.462238
0.465533
0.47014
0.477919
0.487239
0.496811
0.505816
0.513721
0.520296
0.52556
0.529663
0.532803
0.535196
0.537041
0.538507
0.53972
0.540764
0.541688
0.54252
0.543273
0.543955
0.544569
0.545117
0.545605
0.546034
0.546406
0.546724
0.546993
0.547215
0.547398
0.547547
0.547673
0.547788
0.54791
0.54807
0.548313
0.54873
0.549509
0.551105
0.553802
0.452205
0.457467
0.463474
0.471319
0.479998
0.488735
0.496992
0.504366
0.510643
0.515796
0.519919
0.523168
0.525719