/*--------------------------------*- C++ -*----------------------------------*\
  =========                 |
  \\      /  F ield         | OpenFOAM: The Open Source CFD Toolbox
   \\    /   O peration     | Website:  https://openfoam.org
    \\  /    A nd           | Version:  7
     \\/     M anipulation  |
\*---------------------------------------------------------------------------*/
FoamFile
{
    version     2.0;
    format      ascii;
    class       surfaceScalarField;
    location    "5.6";
    object      phi;
}
// * * * * * * * * * * * * * * * * * * * * * * * * * * * * * * * * * * * * * //

dimensions      [0 3 -1 0 0 0 0];

internalField   nonuniform List<scalar> 
63520
(
-3.18428e-06
2.03397e-05
-1.71554e-05
-1.11257e-05
0.000164283
-0.000156341
-2.28119e-05
0.00039149
-0.000379804
-3.70529e-05
0.000672031
-0.000657791
-5.26671e-05
0.000987122
-0.000971507
-6.85488e-05
0.00132449
-0.0013086
-8.36822e-05
0.0016755
-0.00166037
-9.71611e-05
0.00203407
-0.00202059
-0.000108187
0.00239577
-0.00238475
-0.000116083
0.00275748
-0.00274959
-0.000120283
0.00311674
-0.00311254
-0.000120316
0.00347157
-0.00347154
-0.000115811
0.00382029
-0.00382479
-0.000106482
0.0041613
-0.00417063
-9.21112e-05
0.00449314
-0.00450751
-7.25505e-05
0.00481437
-0.00483393
-4.77045e-05
0.0051236
-0.00514844
-1.75245e-05
0.00541952
-0.0054497
1.80008e-05
0.0057009
-0.00573643
5.88496e-05
0.00596663
-0.00600748
0.00010497
0.00621572
-0.00626184
0.000156282
0.00644734
-0.00649865
0.000212688
0.00666081
-0.00671722
0.000274077
0.00685563
-0.00691702
0.000340316
0.00703146
-0.0070977
0.000411263
0.00718813
-0.00725908
0.000486769
0.00732564
-0.00740114
0.000566679
0.00744412
-0.00752403
0.000650832
0.00754385
-0.007628
0.000739059
0.00762521
-0.00771343
0.000831189
0.00768868
-0.00778081
0.000927048
0.00773483
-0.00783068
0.00102645
0.00776426
-0.00786367
0.0011292
0.00777765
-0.00788039
0.00123507
0.00777565
-0.00788152
0.0013438
0.00775896
-0.00786769
0.00145511
0.00772823
-0.00783953
0.00156859
0.00768405
-0.00779754
0.00168377
0.00762827
-0.00774344
0.00756338
0.00179996
-0.00767958
-3.82409e-06
2.41637e-05
-1.3129e-05
0.000173588
-2.66994e-05
0.00040506
-4.32442e-05
0.000688575
-6.15076e-05
0.00100538
-8.03204e-05
0.0013433
-9.86144e-05
0.0016938
-0.000115457
0.00205091
-0.000130045
0.00241036
-0.000141663
0.0027691
-0.000149717
0.0031248
-0.000153716
0.00347557
-0.000153261
0.00381983
-0.00014804
0.00415608
-0.00013782
0.00448292
-0.000122435
0.00479898
-0.00010177
0.00510293
-7.57518e-05
0.0053935
-4.43488e-05
0.0056695
-7.56988e-06
0.00592985
3.45484e-05
0.0061736
8.19464e-05
0.00639994
0.00013454
0.00660822
0.000192228
0.00679794
0.000254895
0.00696879
0.000322418
0.00712061
0.000394662
0.00725339
0.000471478
0.0073673
0.000552713
0.00746261
0.000638209
0.00753971
0.000727797
0.00759909
0.000821299
0.00764132
0.000918521
0.00766704
0.00101925
0.00767692
0.00112323
0.00767167
0.00123019
0.007652
0.00133975
0.00761866
0.00145151
0.0075723
0.00156491
0.00751487
0.00744906
0.00167924
-4.3944e-06
2.8558e-05
-1.49324e-05
0.000184125
-3.02337e-05
0.000420361
-4.88809e-05
0.000707223
-6.9532e-05
0.00102604
-9.09784e-05
0.00136474
-0.000112134
0.00171495
-0.000132027
0.00207081
-0.000149835
0.00242817
-0.000164817
0.00278408
-0.000176363
0.00313634
-0.000183964
0.00348317
-0.000187195
0.00382306
-0.000185729
0.00415462
-0.00017931
0.0044765
-0.000167746
0.00478742
-0.000150904
0.00508609
-0.0001287
0.00537129
-0.000101089
0.00564189
-6.80594e-05
0.00589682
-2.96339e-05
0.00613518
1.41405e-05
0.00635617
6.31956e-05
0.00655916
0.000117447
0.00674369
0.000176796
0.00690944
0.000241124
0.00705628
0.00031031
0.00718421
0.000384221
0.00729339
0.000462719
0.00738411
0.000545651
0.00745678
0.000632851
0.00751189
0.000724139
0.00755004
0.000819316
0.00757187
0.00091815
0.00757809
0.00102037
0.00756945
0.00112564
0.00754673
0.00123358
0.00751072
0.00134371
0.00746218
0.00145541
0.00740317
0.00733654
0.00156792
-4.88014e-06
3.3438e-05
-1.65681e-05
0.000195813
-3.3453e-05
0.000437246
-5.39981e-05
0.000727768
-7.68001e-05
0.00104884
-0.000100605
0.00138855
-0.0001243
0.00173865
-0.000146896
0.0020934
-0.000167558
0.00244883
-0.000185528
0.00280205
-0.000200173
0.00315099
-0.000210968
0.00349397
-0.000217476
0.00382957
-0.000219346
0.00415649
-0.000216304
0.00447346
-0.000208146
0.00477926
-0.000194724
0.00507267
-0.000175934
0.0053525
-0.000151717
0.00561767
-0.000122053
0.00586716
-8.69512e-05
0.00610007
-4.64424e-05
0.00631566
-5.8169e-07
0.0065133
5.05572e-05
0.00669255
0.000106886
0.00685311
0.000168309
0.00699485
0.000234714
0.0071178
0.000305986
0.00722212
0.000381994
0.0073081
0.000462595
0.00737618
0.000547632
0.00742685
0.000636927
0.00746074
0.000730274
0.00747852
0.000827426
0.00748094
0.00092809
0.00746878
0.00103191
0.00744291
0.00113844
0.00740419
0.00124714
0.00735347
0.00135736
0.00729295
0.00722562
0.00146827
-5.31912e-06
3.87571e-05
-1.80207e-05
0.000208515
-3.6309e-05
0.000455534
-5.85273e-05
0.000749986
-8.32024e-05
0.00107351
-0.000109048
0.00141439
-0.000134941
0.00176454
-0.000159878
0.00211834
-0.000182997
0.00247195
-0.000203543
0.0028226
-0.000220868
0.00316831
-0.000234427
0.00350753
-0.000243769
0.00383891
-0.000248532
0.00416125
-0.000248427
0.00447336
-0.00024323
0.00477407
-0.000232779
0.00506222
-0.000216961
0.00533669
-0.000195708
0.00559642
-0.000168984
0.00584044
-0.000136787
0.00606788
-9.91394e-05
0.00627801
-5.60837e-05
0.00647025
-7.6796e-06
0.00664415
4.60002e-05
0.00679943
0.00010487
0.00693598
0.000168834
0.00705384
0.000237792
0.00715316
0.000311627
0.00723427
0.000390208
0.00729759
0.00047339
0.00734367
0.000560996
0.00737313
0.00065282
0.00738669
0.000748607
0.00738515
0.000848041
0.00736935
0.000950733
0.00734022
0.0010562
0.00729873
0.00116385
0.00724582
0.00127296
0.00718384
0.00711594
0.00138264
-5.68771e-06
4.44446e-05
-1.92813e-05
0.000222108
-3.87853e-05
0.000475038
-6.24339e-05
0.000773634
-8.8702e-05
0.00109978
-0.000116271
0.00144196
-0.000144003
0.00179227
-0.000170894
0.00214523
-0.000196066
0.00249712
-0.000218759
0.00284529
-0.000238315
0.00318787
-0.000254178
0.00352339
-0.000265888
0.00385062
-0.000273067
0.00416843
-0.000275411
0.0044757
-0.000272687
0.00477134
-0.000264721
0.00505425
-0.000251389
0.00532336
-0.000232612
0.00557764
-0.000208349
0.00581617
-0.000178586
0.00603811
-0.000143336
0.00624276
-0.000102629
0.00642954
-5.65126e-05
0.00659803
-5.04932e-06
0.00674797
5.1691e-05
0.00687924
0.00011363
0.0069919
0.00018068
0.00708611
0.000252743
0.00716221
0.000329702
0.00722064
0.000411423
0.00726195
0.000497743
0.00728681
0.000588454
0.00729598
0.000683297
0.0072903
0.000781942
0.0072707
0.000883971
0.00723819
0.000988858
0.00719384
0.00109596
0.00713872
0.00120449
0.00707531
0.00700694
0.00131349
-6.00159e-06
5.04462e-05
-2.0347e-05
0.000236454
-4.08651e-05
0.000495556
-6.56901e-05
0.000798459
-9.32472e-05
0.00112734
-0.000122197
0.00147091
-0.000151394
0.00182147
-0.00017983
0.00217367
-0.000206621
0.00252391
-0.000231004
0.00286967
-0.000252317
0.00320918
-0.000269995
0.00354107
-0.000283567
0.00386419
-0.000292645
0.0041775
-0.000296917
0.00447997
-0.000296137
0.00477056
-0.000290122
0.00504824
-0.000278741
0.00531197
-0.000261909
0.00556081
-0.000239574
0.00579384
-0.000211716
0.00601026
-0.000178336
0.00620938
-0.000139459
0.00639066
-9.51201e-05
0.00655369
-4.53683e-05
0.00669822
9.74158e-06
0.00682413
7.01472e-05
0.00693149
0.000135777
0.00702048
0.00020655
0.00709144
0.000282371
0.00714481
0.000363122
0.0071812
0.000448651
0.00720128
0.000538762
0.00720587
0.000633194
0.00719587
0.000731611
0.00717229
0.000833568
0.00713623
0.000938506
0.0070889
0.00104573
0.0070315
0.00115437
0.00696667
0.00689793
0.00126339
-6.26098e-06
5.67072e-05
-2.12155e-05
0.000251408
-4.25348e-05
0.000516875
-6.82656e-05
0.00082419
-9.67964e-05
0.00115587
-0.000126771
0.00150089
-0.000157035
0.00185173
-0.000186585
0.00220322
-0.000214538
0.00255186
-0.000240129
0.00289526
-0.000262694
0.00323175
-0.000281663
0.00356004
-0.00029656
0.00387909
-0.000306987
0.00418793
-0.000312623
0.00448561
-0.000313216
0.00477116
-0.000308574
0.00504359
-0.000298562
0.00530196
-0.000283088
0.00554533
-0.000262092
0.00577284
-0.000235548
0.00598371
-0.000203452
0.00617728
-0.000165817
0.00635303
-0.000122671
0.00651055
-7.40495e-05
0.00664959
-1.99924e-05
0.00677008
3.94533e-05
0.00687205
0.000104235
0.0069557
0.000174293
0.00702138
0.000249554
0.00706955
0.000329919
0.00710083
0.000415257
0.00711595
0.000505386
0.00711575
0.000600053
0.0071012
0.00069892
0.00707342
0.000801527
0.00703363
0.000907282
0.00698315
0.00101543
0.00692334
0.00112505
0.00685705
0.00678801
0.00123497
-6.46541e-06
6.31725e-05
-2.18815e-05
0.000266824
-4.37831e-05
0.000538777
-7.0143e-05
0.00085055
-9.93194e-05
0.00118504
-0.000129946
0.00153151
-0.000160866
0.00188265
-0.000191081
0.00223343
-0.000219716
0.0025805
-0.000246007
0.00292156
-0.000269292
0.00325503
-0.000289
0.00357974
-0.000304649
0.00389474
-0.000315836
0.00419912
-0.000322234
0.00449201
-0.000323585
0.00477251
-0.000319692
0.0050397
-0.000310416
0.00529269
-0.000295657
0.00553058
-0.000275352
0.00575254
-0.000249469
0.00595783
-0.000218
0.00614581
-0.00018095
0.00631598
-0.000138336
0.00646793
-9.01833e-05
0.00660144
-3.65185e-05
0.00671641
2.26292e-05
0.0068129
8.72278e-05
0.0068911
0.000157239
0.00695137
0.000232614
0.00699418
0.000313279
0.00702017
0.000399128
0.0070301
0.000489999
0.00702487
0.00058566
0.00700554
0.000685774
0.00697331
0.000789879
0.00692952
0.000897355
0.00687567
0.0010074
0.0068133
0.001119
0.00674545
0.00667614
0.00123088
-6.614e-06
6.97865e-05
-2.23424e-05
0.000282552
-4.46038e-05
0.000561038
-7.13114e-05
0.000877257
-0.000100798
0.00121453
-0.000131694
0.00156241
-0.000162843
0.0019138
-0.00019326
0.00226385
-0.000222077
0.00260931
-0.000248538
0.00294802
-0.000271985
0.00327848
-0.000291849
0.00359961
-0.000307646
0.00391053
-0.000318968
0.00421044
-0.000325487
0.00449853
-0.000326938
0.00477396
-0.000323123
0.00503589
-0.000313896
0.00528346
-0.000299154
0.00551583
-0.000278833
0.00573222
-0.000252894
0.00593189
-0.000221324
0.00611424
-0.000184124
0.00627878
-0.000141304
0.00642511
-9.28753e-05
0.00655301
-3.88513e-05
0.00666239
2.07541e-05
0.00675329
8.59288e-05
0.00682593
0.000156659
0.00688064
0.000232923
0.00691792
0.000314676
0.00693842
0.000401841
0.00694293
0.000494286
0.00693243
0.000591804
0.00690803
0.000694077
0.00687104
0.000800646
0.00682295
0.000910874
0.00676544
0.00102391
0.00670026
0.00113867
0.00663069
0.00656108
0.00125373
-6.70433e-06
7.64908e-05
-2.25974e-05
0.000298445
-4.49969e-05
0.000583438
-7.17675e-05
0.000904028
-0.000101225
0.00124399
-0.000132
0.00159318
-0.000162945
0.00194475
-0.000193086
0.00229399
-0.000221569
0.00263779
-0.000247651
0.0029741
-0.00027068
0.00330151
-0.00029009
0.00361902
-0.000305397
0.00392584
-0.000316198
0.00422124
-0.000322156
0.00450448
-0.000323007
0.00477481
-0.00031855
0.00503143
-0.000308636
0.00527355
-0.000293159
0.00550036
-0.00027205
0.00571111
-0.00024527
0.00590511
-0.000212803
0.00608178
-0.000174644
0.00624062
-0.000130794
0.00638126
-8.12563e-05
0.00650348
-2.60328e-05
0.00660717
3.48797e-05
0.00669238
0.00010149
0.00675932
0.000173808
0.00680832
0.000251837
0.00683989
0.000335567
0.00685469
0.000424956
0.00685354
0.00051991
0.00683748
0.000620254
0.00680768
0.0007257
0.00676559
0.000835805
0.00671285
0.000949929
0.00665132
0.00106719
0.006583
0.0011864
0.00651148
0.00644149
0.00130599
-6.73784e-06
8.32287e-05
-2.26487e-05
0.000314356
-4.49656e-05
0.000605755
-7.15177e-05
0.00093058
-0.000100607
0.00127308
-0.000130868
0.00162344
-0.000161167
0.00197504
-0.000190547
0.00232337
-0.00021817
0.00266542
-0.000243307
0.00299923
-0.000265315
0.00332351
-0.000283638
0.00363734
-0.000297795
0.00394
-0.000307381
0.00423083
-0.000312062
0.00450917
-0.000311573
0.00477432
-0.000305711
0.00502557
-0.000294321
0.00526216
-0.000277298
0.00548333
-0.000254572
0.00568838
-0.000226103
0.00587664
-0.000191869
0.00604754
-0.000151862
0.00620061
-0.000106078
0.00633548
-5.45117e-05
0.00645191
2.84632e-06
0.00654981
6.60142e-05
0.00662921
0.000135018
0.00669031
0.000209891
0.00673344
0.000290666
0.00675911
0.000377367
0.00676798
0.000469989
0.00676092
0.000568481
0.00673898
0.000672714
0.00670345
0.000782439
0.00665586
0.000897246
0.00659804
0.0010165
0.00653207
0.00113929
0.00646021
0.00126436
0.00638641
0.00631588
0.00138997
-6.71432e-06
8.99429e-05
-2.25007e-05
0.000330143
-4.45215e-05
0.000627775
-7.05771e-05
0.000956635
-9.89614e-05
0.00130146
-0.000128318
0.0016528
-0.000157531
0.00200426
-0.000185659
0.00235149
-0.000211886
0.00269165
-0.0002355
0.00302285
-0.000255872
0.00334389
-0.000272454
0.00365392
-0.000284771
0.00395232
-0.000292424
0.00423848
-0.000295079
0.00451182
-0.000292471
0.00477171
-0.000284395
0.00501749
-0.000270696
0.00524846
-0.000251266
0.0054639
-0.000226035
0.00566315
-0.000194961
0.00584557
-0.000158022
0.0060106
-0.000115203
0.00615779
-6.64981e-05
0.00628677
-1.18954e-05
0.00639731
4.86232e-05
0.00648929
0.000115088
0.00656275
0.000187542
0.00661786
0.00026604
0.00665495
0.000350642
0.00667451
0.000441405
0.00667722
0.000538365
0.00666396
0.000641519
0.00663583
0.000750788
0.00659418
0.000865977
0.00654068
0.000986718
0.0064773
0.00111241
0.00640638
0.00124212
0.0063305
0.00137453
0.006254
0.00618269
0.00150772
-6.63642e-06
9.65793e-05
-2.2162e-05
0.000345668
-4.36802e-05
0.000649293
-6.89701e-05
0.000981925
-9.63214e-05
0.00132881
-0.00012439
0.00168087
-0.000152077
0.00203194
-0.000178464
0.00237788
-0.000202758
0.00271594
-0.000224264
0.00304435
-0.00024237
0.00336199
-0.000256542
0.0036681
-0.000266314
0.00396209
-0.00027129
0.00424346
-0.000271139
0.00451167
-0.0002656
0.00476617
-0.000254465
0.00500636
-0.000237578
0.00523157
-0.00021483
0.00544116
-0.000186151
0.00563447
-0.000151499
0.00581092
-0.000110847
0.00596995
-6.41829e-05
0.00611113
-1.14938e-05
0.00623408
4.72347e-05
0.00633858
0.000112027
0.0064245
0.000182924
0.00649185
0.000259982
0.0065408
0.000343271
0.00657166
0.000432878
0.0065849
0.000528888
0.00658121
0.000631381
0.00656147
0.000740401
0.00652681
0.000855926
0.00647866
0.000977823
0.00641878
0.00110579
0.00634933
0.00123926
0.00627291
0.00137732
0.00619244
0.00151858
0.00611274
0.00604031
0.00166095
-6.50735e-06
0.000103087
-2.16439e-05
0.000360804
-4.24642e-05
0.000670114
-6.67305e-05
0.00100619
-9.27325e-05
0.00135482
-0.000119139
0.00170727
-0.000144871
0.00205768
-0.000169034
0.00240204
-0.000190857
0.00273776
-0.000209669
0.00306317
-0.000224877
0.0033772
-0.00023596
0.00367918
-0.000242464
0.00396859
-0.000244
0.00424499
-0.000240243
0.00450791
-0.000230932
0.00475686
-0.000215858
0.00499128
-0.000194866
0.00521058
-0.000167847
0.00541414
-0.00013473
0.00560135
-9.54711e-05
0.00577166
-5.0044e-05
0.00592453
1.567e-06
0.00605952
5.93733e-05
0.00617628
0.000123393
0.00627456
0.000193654
0.00635423
0.000270203
0.0064153
0.000353103
0.0064579
0.00044244
0.00648232
0.000538317
0.00648903
0.000640849
0.00647868
0.000750149
0.00645217
0.000866311
0.00641065
0.000989371
0.0063556
0.00111927
0.00628888
0.00125577
0.00621283
0.00139838
0.0061303
0.00154621
0.00604461
0.00169784
0.00596111
0.00588714
0.00185101
-6.33155e-06
0.000109418
-2.09606e-05
0.000375433
-4.09009e-05
0.000690054
-6.39014e-05
0.00102919
-8.82541e-05
0.00137917
-0.00011264
0.00173166
-0.000136002
0.00208104
-0.000157467
0.00242351
-0.000176292
0.00275659
-0.000191829
0.0030787
-0.000203505
0.00338888
-0.000210817
0.00368649
-0.000213324
0.0039711
-0.000210645
0.00424231
-0.000202463
0.00449973
-0.000188517
0.00474292
-0.0001686
0.00497137
-0.000142557
0.00518454
-0.000110279
0.00538186
-7.16929e-05
0.00556277
-2.67543e-05
0.00572672
2.45629e-05
0.00587321
8.22736e-05
0.0060018
0.000146391
0.00611216
0.000216931
0.00620402
0.000293925
0.00627724
0.000377417
0.00633181
0.000467475
0.00636784
0.000564193
0.0063856
0.000667685
0.00638553
0.000778085
0.00636828
0.000895537
0.00633472
0.00102018
0.00628601
0.0011521
0.00622368
0.00129131
0.00614967
0.00143767
0.00606647
0.00159077
0.0059772
0.00174976
0.00588562
0.00191322
0.00579765
0.00572162
0.00207874
-6.11456e-06
0.000115533
-2.01291e-05
0.000389448
-3.90235e-05
0.000708948
-6.05348e-05
0.0010507
-8.29582e-05
0.00140159
-0.000104985
0.00175369
-0.000125579
0.00210163
-0.000143892
0.00244182
-0.000159205
0.0027719
-0.000170896
0.00309039
-0.000178415
0.0033964
-0.000181278
0.00368935
-0.000179058
0.00396888
-0.000171386
0.00423464
-0.000157951
0.0044863
-0.000138496
0.00472346
-0.000112815
0.00494568
-8.07538e-05
0.00515247
-4.22028e-05
0.00534331
2.91182e-06
0.00551765
5.46355e-05
0.00567499
0.000112994
0.00581485
0.000178001
0.0059368
0.000249668
0.00604049
0.000328009
0.00612568
0.00041305
0.0061922
0.000504834
0.00624003
0.000603426
0.00626925
0.000708917
0.00628011
0.000821428
0.00627302
0.000941101
0.00624861
0.0010681
0.00620772
0.0012026
0.00615152
0.00134473
0.00608154
0.00149459
0.00599981
0.00165212
0.00590894
0.001817
0.00581232
0.00198848
0.00571413
0.00216516
0.00562098
0.0055423
0.00234448
-5.8626e-06
0.000121395
-1.91691e-05
0.000402754
-3.68698e-05
0.000726649
-5.66909e-05
0.00107052
-7.69287e-05
0.00142183
-9.62836e-05
0.00177304
-0.000113737
0.00211909
-0.000128464
0.00245655
-0.000139772
0.00278321
-0.000147065
0.00309768
-0.000149817
0.00339915
-0.000147564
0.0036871
-0.000139896
0.00396121
-0.000126457
0.0042212
-0.000106943
0.00446678
-8.11019e-05
0.00469762
-4.87305e-05
0.00491331
-9.67517e-06
0.00511342
3.61743e-05
0.00529746
8.88925e-05
0.00546493
0.000148525
0.00561536
0.000215097
0.00574828
0.00028862
0.00586327
0.000369102
0.00596001
0.000456553
0.00603823
0.000550991
0.00609776
0.000652449
0.00613857
0.000760987
0.00616071
0.000876685
0.00616441
0.000999657
0.00615005
0.00113004
0.00611822
0.00126802
0.00606974
0.00141377
0.00600576
0.00156749
0.00592782
0.00172931
0.00583798
0.00189928
0.00573897
0.00207719
0.00563441
0.00226239
0.00552893
0.00245353
0.00542984
0.00534784
0.00264798
-5.58243e-06
0.000126978
-1.81019e-05
0.000415273
-3.44821e-05
0.000743029
-5.24368e-05
0.00108848
-7.026e-05
0.00143965
-8.66576e-05
0.00178944
-0.000100627
0.00213305
-0.000111364
0.00246729
-0.000118203
0.00279005
-0.000120571
0.00310005
-0.00011797
0.00339655
-0.000109956
0.00367909
-9.61379e-05
0.00394739
-7.6172e-05
0.00420124
-4.97649e-05
0.00444038
-1.66703e-05
0.00466452
2.33115e-05
0.00487333
7.03331e-05
0.0050664
0.000124505
0.00524329
0.000185901
0.00540354
0.000254568
0.00554669
0.000330528
0.00567232
0.000413792
0.00578001
0.00050436
0.00586944
0.000602236
0.00594035
0.000707425
0.00599257
0.000819951
0.00602604
0.000939854
0.00604081
0.0010672
0.00603706
0.00120209
0.00601517
0.00134464
0.00597567
0.00149502
0.00591936
0.00165343
0.00584735
0.00182008
0.00576118
0.00199516
0.0056629
0.00217879
0.00555534
0.00237087
0.00544233
0.0025709
0.00532891
0.00277759
0.00522314
0.00513713
0.0029883
-5.28124e-06
0.000132259
-1.69505e-05
0.000426942
-3.1906e-05
0.000757985
-4.78454e-05
0.00110442
-6.30557e-05
0.00145486
-7.62437e-05
0.00180263
-8.64194e-05
0.00214323
-9.27971e-05
0.00247366
-9.47352e-05
0.00279198
-9.16868e-05
0.003097
-8.31784e-05
0.00338804
-6.8789e-05
0.0036647
-4.8146e-05
0.00392675
-2.0921e-05
0.00417401
1.31687e-05
0.00440629
5.43618e-05
0.00462333
0.000102853
0.00482484
0.000158793
0.00501046
0.000222292
0.00517979
0.000293423
0.00533241
0.00037223
0.00546789
0.000458736
0.00558581
0.000552945
0.0056858
0.000654851
0.00576753
0.000764445
0.00583076
0.000881722
0.0058753
0.00100668
0.00590108
0.00113935
0.00590814
0.00127976
0.00589665
0.00142799
0.00586694
0.00158413
0.00581952
0.00174833
0.00575516
0.00192076
0.00567492
0.00210165
0.00558029
0.00229122
0.00547333
0.00248965
0.00535691
0.00269697
0.00523501
0.00291278
0.0051131
0.00313596
0.00499996
0.00490924
0.00336385
-4.96637e-06
0.000137225
-1.57392e-05
0.000437715
-2.91895e-05
0.000771435
-4.29938e-05
0.00111822
-5.54257e-05
0.0014673
-6.51882e-05
0.00181239
-7.12994e-05
0.00214934
-7.29888e-05
0.00247535
-6.96365e-05
0.00278863
-6.07207e-05
0.00308809
-4.57916e-05
0.00337311
-2.44517e-05
0.00364336
3.65157e-06
0.00389865
3.88301e-05
0.00413883
8.13547e-05
0.00436376
0.000131455
0.00457323
0.000189318
0.00476698
0.000255093
0.00494468
0.000328885
0.00510599
0.000410769
0.00525052
0.000500785
0.00537787
0.00059895
0.00548765
0.000705265
0.00557949
0.000819712
0.00565309
0.00094227
0.0057082
0.00107291
0.00574465
0.00121162
0.00576237
0.00135839
0.00576137
0.00151323
0.00574182
0.00167615
0.00570401
0.00184724
0.00564844
0.00202659
0.00557581
0.00221435
0.00548716
0.00241072
0.00538392
0.00261593
0.00526812
0.00283022
0.00514263
0.00305369
0.00501154
0.0032861
0.00488068
0.00352649
0.00475958
0.00466347
0.00377226
-4.64516e-06
0.00014187
-1.44927e-05
0.000447562
-2.63823e-05
0.000783324
-3.7962e-05
0.0011298
-4.7485e-05
0.00147682
-5.3645e-05
0.00181855
-5.54629e-05
0.00215116
-5.218e-05
0.00247207
-4.31946e-05
0.00277965
-2.80086e-05
0.0030729
-6.19513e-06
0.0033513
2.26201e-05
0.00361454
5.87689e-05
0.0038625
0.000102545
0.00409506
0.000154206
0.0043121
0.000213969
0.00451347
0.000282015
0.00469893
0.000358486
0.00486821
0.000443484
0.005021
0.000537079
0.00515693
0.000639308
0.00527564
0.000750182
0.00537677
0.000869692
0.00545998
0.000997808
0.00552497
0.00113449
0.00557151
0.0012797
0.00559945
0.00143338
0.00560869
0.00159548
0.00559926
0.00176599
0.00557131
0.00194488
0.00552512
0.00213216
0.00546115
0.00232789
0.00538008
0.00253216
0.00528289
0.00274514
0.00517095
0.00296703
0.00504623
0.0031981
0.00491156
0.00343852
0.00477112
0.0036882
0.00463101
0.00394631
0.00450146
0.00439937
0.00421042
-4.32484e-06
0.000146195
-1.32359e-05
0.000456473
-2.35342e-05
0.000793623
-3.28302e-05
0.0011391
-3.93499e-05
0.00148334
-4.17715e-05
0.00182097
-3.91123e-05
0.0021485
-3.06221e-05
0.00246358
-1.57132e-05
0.00276474
6.09082e-06
0.0030511
3.51949e-05
0.00332219
7.19511e-05
0.00357779
0.00011667
0.00381778
0.000169625
0.0040421
0.000231058
0.00425067
0.000301175
0.00444335
0.000380145
0.00461996
0.000468101
0.00478026
0.000565142
0.00492396
0.000671327
0.00505074
0.000786689
0.00516028
0.00091123
0.00525223
0.00104493
0.00532628
0.00118774
0.00538216
0.0013396
0.00541965
0.00150043
0.00543861
0.00167017
0.00543895
0.00184872
0.00542071
0.00203602
0.00538402
0.00223197
0.00532917
0.00243655
0.00525658
0.00264973
0.0051669
0.00287155
0.00506107
0.00310211
0.00494039
0.00334158
0.00480676
0.00359021
0.00466294
0.00384822
0.0045131
0.00411563
0.0043636
0.00439182
0.00422527
0.0041167
0.00467449
-4.01235e-06
0.000150207
-1.1993e-05
0.000464454
-2.06935e-05
0.000802323
-2.76773e-05
0.00114608
-3.11354e-05
0.0014868
-2.97243e-05
0.00181956
-2.24514e-05
0.00214123
-8.5703e-06
0.0024497
1.24955e-05
0.00274367
4.1205e-05
0.00302239
7.7942e-05
0.00328545
0.000123037
0.00353269
0.000176778
0.00376404
0.000239419
0.00397946
0.000311184
0.0041789
0.000392264
0.00436227
0.000482815
0.00452941
0.000582959
0.00468011
0.000692783
0.00481413
0.000812338
0.00493119
0.000941647
0.00503097
0.0010807
0.00511318
0.00122945
0.00517753
0.00138784
0.00522377
0.00155579
0.00525171
0.00173318
0.00526121
0.00191991
0.00525222
0.00211584
0.00522478
0.00232085
0.00517902
0.00253479
0.00511522
0.00275757
0.0050338
0.00298908
0.00493539
0.00322929
0.00482086
0.00347822
0.00469146
0.00373597
0.004549
0.00400276
0.00439615
0.00427883
0.00423703
0.0045643
0.00407813
0.0048587
0.00393087
0.00381546
0.00515994
-3.71434e-06
0.000153921
-1.0787e-05
0.000471526
-1.79059e-05
0.000809442
-2.25781e-05
0.00115075
-2.29516e-05
0.00148717
-1.7655e-05
0.00181426
-5.67905e-06
0.00212925
1.37228e-05
0.0024303
4.11203e-05
0.00271627
7.69581e-05
0.00298655
0.000121601
0.00324081
0.000175357
0.00347894
0.000238495
0.0037009
0.000311246
0.00390671
0.000393814
0.00409634
0.000486373
0.00426971
0.000589062
0.00442672
0.00070199
0.00456718
0.000825227
0.00469089
0.000958814
0.0047976
0.00110276
0.00488703
0.00125702
0.00495891
0.00142156
0.00501299
0.00159627
0.00504906
0.00178104
0.00506694
0.00197574
0.00506652
0.0021802
0.00504776
0.00239425
0.00501073
0.00261769
0.00495557
0.00285034
0.00488257
0.00309199
0.00479214
0.00334249
0.00468489
0.0036017
0.00456165
0.00386955
0.00442361
0.00414608
0.00427247
0.00443143
0.0041108
0.00472583
0.00394262
0.00502948
0.00377449
0.00534206
0.00361828
0.00349582
0.0056617
-3.43702e-06
0.000157358
-9.63837e-06
0.000477727
-1.52126e-05
0.000815016
-1.7601e-05
0.00115314
-1.49003e-05
0.00148447
-5.70478e-06
0.00180507
1.10167e-05
0.00211253
3.60164e-05
0.0024053
6.98601e-05
0.00268243
0.000112982
0.00294343
0.000165731
0.00318806
0.000228393
0.00341627
0.000301215
0.00362808
0.000384408
0.00382352
0.000478152
0.00400259
0.000582602
0.00416526
0.000697878
0.00431144
0.000824067
0.00444099
0.000961224
0.00455374
0.00110937
0.00464945
0.00126849
0.00472791
0.00143853
0.00478887
0.00161941
0.00483211
0.00181101
0.00485746
0.00201317
0.00486477
0.00222573
0.00485396
0.00244846
0.00482503
0.00268114
0.00477805
0.00292352
0.0047132
0.00317533
0.00463076
0.0034363
0.00453117
0.00370618
0.00441501
0.00398476
0.00428308
0.00427185
0.00413652
0.00456741
0.00397692
0.00487149
0.00380672
0.0051843
0.00362981
0.00550605
0.00345274
0.0058366
0.00328773
0.00315816
0.00617426
-3.18597e-06
0.000160544
-8.56479e-06
0.000483106
-1.26492e-05
0.0008191
-1.28058e-05
0.0011533
-7.07138e-06
0.00147874
5.99995e-06
0.001792
2.74657e-05
0.00209106
5.80889e-05
0.00237467
9.84351e-05
0.00264209
0.000148932
0.00289293
0.000209911
0.00312708
0.000281643
0.00334454
0.000364349
0.00354537
0.000458219
0.00372965
0.000563411
0.0038974
0.000680052
0.00404862
0.000808243
0.00418325
0.000948046
0.00430119
0.00109949
0.00440229
0.00126258
0.00448636
0.00143728
0.00455322
0.00162349
0.00460266
0.00182111
0.0046345
0.00202997
0.00464859
0.0022499
0.00464485
0.00248066
0.00462321
0.00272199
0.0045837
0.0029736
0.00452644
0.00323518
0.00445162
0.00350638
0.00435956
0.00378686
0.00425069
0.00407629
0.00412559
0.00437432
0.00398504
0.00468072
0.00383012
0.0049953
0.00366234
0.00531805
0.00348397
0.00564912
0.00329875
0.00598873
0.00311313
0.00633685
0.00293962
0.00280301
0.006692
-2.96578e-06
0.00016351
-7.58028e-06
0.000487721
-1.02447e-05
0.000821764
-8.24102e-06
0.00115129
4.61199e-07
0.00147003
1.73532e-05
0.00177511
4.35224e-05
0.0020649
7.97477e-05
0.00233845
0.000126598
0.00259524
0.000184495
0.00283503
0.000253761
0.00305782
0.000334643
0.00326366
0.000427345
0.00345267
0.000532032
0.00362496
0.000648836
0.0037806
0.000777858
0.0039196
0.000919171
0.00404194
0.00107281
0.00414755
0.00123879
0.00423631
0.00141706
0.00430809
0.00160756
0.00436272
0.00181017
0.00440004
0.00202475
0.00441992
0.00225109
0.00442225
0.00248896
0.00440698
0.00273807
0.00437409
0.00299812
0.00432365
0.00326875
0.00425581
0.00354957
0.0041708
0.00384017
0.00406896
0.00414012
0.00395074
0.00444899
0.00381672
0.00476636
0.00366767
0.00509187
0.00350461
0.00542525
0.00332896
0.00576637
0.00314285
0.00611532
0.0029498
0.00647232
0.00275613
0.00683742
0.00257451
0.00243107
0.00720937
-2.77963e-06
0.000166289
-6.69464e-06
0.000491636
-8.0193e-06
0.000823089
-3.94152e-06
0.00114722
7.64247e-06
0.00145845
2.8274e-05
0.00175447
5.90725e-05
0.0020341
0.000100838
0.00229668
0.000154144
0.00254193
0.000219412
0.00276977
0.000296951
0.00298028
0.000386993
0.00317362
0.000489719
0.00334995
0.000605269
0.00350941
0.000733749
0.00365212
0.000875231
0.00377812
0.00102976
0.00388741
0.00119733
0.00397997
0.00137793
0.00405572
0.00157148
0.00411454
0.00177788
0.00415632
0.00199697
0.00418095
0.00222857
0.00418833
0.00247241
0.00417841
0.00272822
0.00415117
0.00299567
0.00410664
0.00327437
0.00404495
0.00356391
0.00396627
0.00386382
0.00387089
0.00417362
0.00375916
0.0044928
0.00363157
0.00482081
0.0034887
0.00515717
0.00333132
0.00550139
0.00316039
0.0058531
0.00297725
0.00621208
0.00278387
0.00657833
0.00258355
0.00695204
0.00238242
0.00733336
0.00219318
0.00204321
0.00772123
-2.62911e-06
0.000168918
-5.91283e-06
0.000494919
-5.98389e-06
0.00082316
7.27425e-08
0.00114116
1.44396e-05
0.00144408
3.87105e-05
0.0017302
7.40393e-05
0.00199877
0.00012125
0.00224947
0.000180926
0.00248225
0.000253484
0.00269721
0.000339227
0.00289454
0.00043837
0.00307447
0.000551073
0.00323724
0.00067745
0.00338303
0.000817579
0.00351199
0.0009715
0.00362419
0.00113922
0.00371969
0.00132071
0.00379848
0.00151591
0.00386052
0.00172471
0.00390574
0.00194696
0.00393407
0.00218247
0.00394544
0.00243098
0.00393981
0.00269222
0.00391717
0.00296583
0.00387755
0.00325142
0.00382105
0.00354856
0.00374781
0.00385674
0.00365809
0.00417544
0.00355219
0.00450409
0.00343051
0.00484208
0.00329358
0.00518879
0.00314199
0.00554362
0.00297649
0.00590598
0.00279803
0.0062754
0.00260783
0.00665153
0.00240774
0.00703428
0.0022008
0.00742383
0.00199287
0.00782039
0.00179662
0.00164048
0.00822312
-2.51403e-06
0.000171432
-5.23448e-06
0.00049764
-4.13856e-06
0.000822064
3.80008e-06
0.00113322
2.08445e-05
0.00142704
4.8644e-05
0.0017024
8.83889e-05
0.00195902
0.000140928
0.00219694
0.000206856
0.00241632
0.00028659
0.00261747
0.000380423
0.0028007
0.000488557
0.00296634
0.000611129
0.00311467
0.000748229
0.00324593
0.000899902
0.00336031
0.00106616
0.00345794
0.00124697
0.00353888
0.00144226
0.00360319
0.00165193
0.00365084
0.00187584
0.00368183
0.00211378
0.00369612
0.00236552
0.0036937
0.00263076
0.00367458
0.00290915
0.00363879
0.00320029
0.00358641
0.00350373
0.00351761
0.00381896
0.00343258
0.00414541
0.00333163
0.00448249
0.00321511
0.00482952
0.00308348
0.00518582
0.00293728
0.00555067
0.00277713
0.00592336
0.00260381
0.00630318
0.0024182
0.00668953
0.00222148
0.00708196
0.00201531
0.00748026
0.0018025
0.00788455
0.00158858
0.00829514
0.00138602
0.00122419
0.00871143
-2.43249e-06
0.000173865
-4.65358e-06
0.000499861
-2.47218e-06
0.000819882
7.25605e-06
0.00112349
2.68754e-05
0.00140742
5.80922e-05
0.00167119
0.000102135
0.00191498
0.000159876
0.0021392
0.000231924
0.00234428
0.000318696
0.0025307
0.000420477
0.00269892
0.000537455
0.00284936
0.000669748
0.00298238
0.000817416
0.00309827