/*--------------------------------*- C++ -*----------------------------------*\
  =========                 |
  \\      /  F ield         | OpenFOAM: The Open Source CFD Toolbox
   \\    /   O peration     | Website:  https://openfoam.org
    \\  /    A nd           | Version:  7
     \\/     M anipulation  |
\*---------------------------------------------------------------------------*/
FoamFile
{
    version     2.0;
    format      ascii;
    class       volVectorField;
    location    "5.6";
    object      U;
}
// * * * * * * * * * * * * * * * * * * * * * * * * * * * * * * * * * * * * * //

dimensions      [0 1 -1 0 0 0 0];

internalField   nonuniform List<vector> 
32000
(
(-8.72641e-05 0.000733107 -4.345e-22)
(-0.000645366 0.00637274 0)
(-0.00166619 0.0153729 -3.8756e-21)
(-0.00287904 0.0265301 0)
(-0.00417973 0.0390933 4.03322e-21)
(-0.00545849 0.0525709 0)
(-0.00663501 0.0666166 4.16549e-21)
(-0.00764826 0.0809839 -3.16682e-21)
(-0.0084523 0.0954951 8.8603e-25)
(-0.00901454 0.110023 1.16171e-24)
(-0.00931493 0.124466 -1.09085e-21)
(-0.00934566 0.138745 4.40485e-21)
(-0.00910648 0.152789 0)
(-0.00860081 0.166533 -1.1198e-21)
(-0.00783562 0.179917 1.12446e-21)
(-0.00682112 0.192882 0)
(-0.00556962 0.205372 5.69256e-21)
(-0.00409542 0.217332 -1.14194e-21)
(-0.0024142 0.228714 0)
(-0.000541434 0.23947 2.3102e-21)
(0.00150754 0.249562 2.31579e-21)
(0.00371738 0.258955 0)
(0.00607348 0.267621 0)
(0.00856178 0.27554 0)
(0.0111683 0.282699 0)
(0.0138794 0.289089 0)
(0.0166821 0.29471 0)
(0.0195642 0.299568 0)
(0.0225147 0.303674 -4.68384e-21)
(0.025523 0.307042 0)
(0.0285791 0.309691 4.68247e-21)
(0.0316734 0.311644 0)
(0.0347972 0.312926 0)
(0.0379414 0.31356 0)
(0.0410968 0.313575 -4.66105e-21)
(0.0442542 0.312997 -2.33463e-21)
(0.0474031 0.311851 6.97925e-21)
(0.0505426 0.310158 5.00274e-26)
(0.053659 0.30799 4.63368e-21)
(0.0566033 0.305443 -1.95509e-24)
(-0.000126731 0.000888473 0)
(-0.000891546 0.00673739 7.56819e-21)
(-0.0022413 0.0158697 1.93752e-21)
(-0.00384635 0.0271042 2.77527e-25)
(-0.00558318 0.0396932 -2.01619e-21)
(-0.0073248 0.05315 0)
(-0.00897813 0.0671347 4.16325e-21)
(-0.010475 0.0814084 -4.22084e-21)
(-0.0117646 0.0957972 0)
(-0.0128099 0.11018 -8.64201e-21)
(-0.0135881 0.124462 0)
(-0.0140884 0.138565 -1.32106e-20)
(-0.0143078 0.152423 0)
(-0.0142477 0.165975 0)
(-0.0139133 0.179164 4.5069e-21)
(-0.0133136 0.191933 -4.52145e-21)
(-0.0124593 0.204228 -4.55196e-21)
(-0.0113632 0.215996 0)
(-0.0100394 0.227189 1.37771e-20)
(-0.00850249 0.237761 -4.59933e-21)
(-0.00676707 0.247674 6.84391e-24)
(-0.00484759 0.256895 -1.38922e-20)
(-0.00275787 0.265397 -9.28755e-21)
(-0.000511924 0.273159 -4.66585e-21)
(0.00187638 0.280168 1.3974e-20)
(0.00439396 0.286416 -1.40117e-20)
(0.00702812 0.291904 1.40331e-20)
(0.00976642 0.296637 -1.86783e-20)
(0.0125969 0.300625 -4.66282e-21)
(0.0155085 0.303883 3.17411e-23)
(0.0184908 0.306431 -1.39822e-20)
(0.0215334 0.308291 -9.32554e-21)
(0.024626 0.309488 1.86767e-20)
(0.0277581 0.310047 -1.86112e-20)
(0.0309192 0.309996 -4.62999e-21)
(0.0340979 0.309363 -1.85765e-20)
(0.0372816 0.308176 -3.01309e-25)
(0.0404669 0.306458 4.62828e-21)
(0.0436293 0.304285 -1.83948e-20)
(0.0466253 0.301757 -2.66324e-20)
(-0.000169537 0.00103711 -1.73706e-21)
(-0.00113976 0.00708435 -3.7839e-21)
(-0.00281253 0.0163635 -1.7431e-20)
(-0.00480048 0.0276847 0)
(-0.00695775 0.0403051 2.01571e-21)
(-0.00914192 0.0537457 -2.05001e-21)
(-0.0112506 0.0676729 -2.49804e-20)
(-0.0132097 0.0818534 8.44295e-21)
(-0.0149616 0.0961203 -4.27522e-21)
(-0.0164649 0.110357 2.59182e-20)
(-0.0176962 0.124473 8.7277e-21)
(-0.0186416 0.138396 4.40693e-21)
(-0.0192957 0.152064 -1.77512e-20)
(-0.0196581 0.165419 0)
(-0.0197326 0.178406 0)
(-0.0195261 0.190971 9.0633e-21)
(-0.0190479 0.203062 2.59653e-23)
(-0.0183095 0.214629 -9.12492e-21)
(-0.0173245 0.225623 -9.17828e-21)
(-0.0161061 0.236003 -1.84089e-20)
(-0.0146677 0.245728 2.77186e-20)
(-0.0130232 0.254767 2.22436e-23)
(-0.0111864 0.263094 -1.31572e-23)
(-0.00917021 0.270688 9.28073e-21)
(-0.00698825 0.277537 -1.86531e-20)
(-0.00465363 0.283634 3.72683e-20)
(-0.00217906 0.288977 0)
(0.000422902 0.293574 9.34476e-21)
(0.0031402 0.297434 9.34652e-21)
(0.00596143 0.300573 1.86983e-20)
(0.00887538 0.303011 3.17229e-23)
(0.0118706 0.30477 0)
(0.0149357 0.305874 9.33058e-21)
(0.0180591 0.306351 -9.24167e-21)
(0.0212285 0.30623 -9.22817e-21)
(0.02443 0.30554 2.78142e-20)
(0.0276494 0.304309 -2.76092e-20)
(0.0308807 0.302568 1.84423e-20)
(0.0340882 0.300393 -2.74445e-20)
(0.0371332 0.29789 1.05571e-20)
(-0.000216741 0.00122626 1.38988e-20)
(-0.00139676 0.00751586 -1.51329e-20)
(-0.00339109 0.0169505 3.09852e-20)
(-0.00575128 0.02836 0)
(-0.00831418 0.0410094 1.20895e-20)
(-0.0109234 0.0544286 2.04959e-20)
(-0.0134663 0.0682907 4.1666e-21)
(-0.0158621 0.0823695 2.60361e-24)
(-0.0180502 0.0965073 1.28179e-20)
(-0.0199864 0.110589 -4.32494e-21)
(-0.0216439 0.124531 2.18098e-20)
(-0.0230069 0.138265 -2.64171e-20)
(-0.0240689 0.151732 2.66178e-20)
(-0.0248275 0.16488 -8.9487e-21)
(-0.0252844 0.177655 8.98601e-21)
(-0.0254458 0.190007 -1.8092e-20)
(-0.02532 0.201886 -2.7289e-20)
(-0.0249169 0.213241 9.12051e-21)
(-0.0242488 0.224028 -9.18465e-21)
(-0.0233282 0.234203 2.75947e-20)
(-0.0221678 0.243731 -1.84648e-20)
(-0.0207807 0.252579 -1.84948e-20)
(-0.0191798 0.260722 0)
(-0.0173782 0.26814 0)
(-0.0153892 0.274819 -1.85857e-20)
(-0.0132252 0.280755 -1.86323e-20)
(-0.0108988 0.285945 -1.86108e-20)
(-0.00842262 0.290397 0)
(-0.00580905 0.294121 0)
(-0.00306986 0.297133 -3.72588e-20)
(-0.000216811 0.299452 -7.35867e-23)
(0.00273793 0.301101 1.86122e-20)
(0.00578189 0.302106 -1.85239e-20)
(0.00890221 0.302496 -1.85601e-20)
(0.0120848 0.302299 1.85175e-20)
(0.0153139 0.301548 0)
(0.0185729 0.300275 1.84282e-20)
(0.0218529 0.298511 -3.66685e-20)
(0.0251082 0.296338 3.65662e-20)
(0.0282036 0.293865 -4.23065e-20)
(-0.000271169 0.00142092 -6.95051e-21)
(-0.00166345 0.00795941 1.13485e-20)
(-0.00397247 0.0175584 -1.54912e-20)
(-0.00669439 0.0290599 0)
(-0.00964632 0.0417388 -2.01498e-20)
(-0.0126594 0.0551355 -1.22979e-20)
(-0.0156134 0.0689319 1.66496e-20)
(-0.0184211 0.0829084 0)
(-0.0210189 0.0969132 -2.56365e-20)
(-0.0233599 0.110837 -8.64347e-21)
(-0.0254157 0.124602 -8.71904e-21)
(-0.0271689 0.138143 1.76197e-20)
(-0.0286108 0.151406 -1.77466e-20)
(-0.0297378 0.164342 8.9276e-21)
(-0.0305507 0.1769 0)
(-0.0310541 0.189033 2.71481e-20)
(-0.0312552 0.200692 9.10503e-21)
(-0.031163 0.21183 -1.82858e-20)
(-0.0307887 0.222402 3.66582e-20)
(-0.030144 0.232368 -3.67798e-20)
(-0.0292406 0.241691 3.68449e-20)
(-0.0280911 0.250341 1.84948e-20)
(-0.0267082 0.258293 0)
(-0.0251043 0.265526 1.85856e-20)
(-0.0232921 0.272029 4.85164e-23)
(-0.0212838 0.277796 0)
(-0.0190919 0.282826 1.86108e-20)
(-0.0167291 0.287125 -1.86304e-20)
(-0.0142076 0.290705 1.85529e-20)
(-0.0115395 0.293581 3.72114e-20)
(-0.00873712 0.295774 -3.7116e-20)
(-0.00581334 0.297306 3.70594e-20)
(-0.00278135 0.298206 0)
(0.00034466 0.298502 0)
(0.00354889 0.298226 3.68466e-20)
(0.00681325 0.297412 0)
(0.0101192 0.296095 0)
(0.0134547 0.29431 -3.65069e-20)
(0.0167644 0.292143 3.63474e-20)
(0.0199154 0.289706 2.11205e-20)
(-0.000332852 0.00163439 3.47424e-21)
(-0.00194206 0.00844415 0)
(-0.00456077 0.0182144 3.09717e-20)
(-0.00763191 0.0298096 3.9534e-21)
(-0.0109559 0.0425171 4.02924e-21)
(-0.0143524 0.0558884 2.45859e-20)
(-0.0176933 0.0696156 3.32881e-20)
(-0.0208866 0.083486 0)
(-0.0238664 0.097354 8.54643e-21)
(-0.0265839 0.111116 2.59135e-20)
(-0.0290087 0.124699 3.48898e-20)
(-0.0311223 0.138042 -8.80824e-21)
(-0.0329147 0.151096 -2.66186e-20)
(-0.0343811 0.163814 0)
(-0.035521 0.17615 3.59607e-20)
(-0.0363382 0.188058 0)
(-0.0368389 0.199491 5.45342e-20)
(-0.0370313 0.210405 -1.82251e-20)
(-0.0369254 0.220756 0)
(-0.036532 0.230506 -1.84063e-20)
(-0.0358625 0.239619 -3.71033e-23)
(-0.0349288 0.248065 -1.84199e-20)
(-0.0337431 0.255818 -1.84699e-20)
(-0.0323172 0.262861 1.85604e-20)
(-0.0306632 0.269181 -1.8512e-20)
(-0.0287933 0.274772 0)
(-0.0267196 0.279635 -1.85935e-20)
(-0.0244547 0.283775 1.85226e-20)
(-0.0220107 0.287204 0)
(-0.0194001 0.289938 0)
(-0.0166353 0.291997 0)
(-0.0137298 0.293407 -3.70237e-20)
(-0.0106973 0.294194 3.68281e-20)
(-0.00755359 0.294392 0)
(-0.00431616 0.294032 -1.83911e-20)
(-0.00100493 0.293152 0)
(0.00235909 0.291791 3.65527e-20)
(0.00576058 0.289987 -1.80977e-20)
(0.00913537 0.287831 -3.629e-20)
(0.0123511 0.285437 4.19238e-20)
(-0.000403354 0.00185893 2.43143e-20)
(-0.00223415 0.00895245 -3.40311e-20)
(-0.00515558 0.0188995 -5.80649e-20)
(-0.00856331 0.0305888 -3.16192e-20)
(-0.0122412 0.0433227 -8.05675e-21)
(-0.0159982 0.0566665 -1.6391e-20)
(-0.0197008 0.0703221 -7.489e-20)
(-0.0232526 0.0840836 -2.53047e-20)
(-0.0265853 0.097812 -4.27017e-20)
(-0.029649 0.11141 -4.31874e-20)
(-0.0324122 0.124807 -6.10587e-20)
(-0.0348554 0.13795 -3.51967e-20)
(-0.0369672 0.150791 4.80683e-24)
(-0.0387419 0.163288 -3.57286e-20)
(-0.0401784 0.175398 -3.59605e-20)
(-0.0412796 0.187077 -5.42512e-20)
(-0.042051 0.19828 3.63202e-20)
(-0.0424995 0.208966 -1.82179e-20)
(-0.0426345 0.219093 0)
(-0.0424662 0.228623 3.67188e-20)
(-0.0420055 0.237521 0)
(-0.0412634 0.245758 7.38067e-20)
(-0.0402516 0.253309 0)
(-0.0389817 0.260157 -1.85355e-20)
(-0.0374651 0.266289 1.85768e-20)
(-0.0357136 0.2717 -3.69877e-20)
(-0.0337392 0.276391 0)
(-0.0315542 0.280366 -3.71014e-20)
(-0.0291705 0.283638 3.69473e-20)
(-0.0266007 0.286224 0)
(-0.0238574 0.288144 0)
(-0.0209543 0.289425 0)
(-0.017906 0.290095 -3.67174e-20)
(-0.0147293 0.290189 0)
(-0.0114433 0.289742 -3.66388e-20)
(-0.00807022 0.288794 7.29474e-20)
(-0.00463324 0.287387 -7.27049e-20)
(-0.00115119 0.285566 3.60503e-20)
(0.00230362 0.283424 7.21618e-20)
(0.00559732 0.281081 -4.17489e-20)
(-0.000483055 0.00209253 -3.1261e-20)
(-0.0025409 0.00948116 6.48257e-24)
(-0.00575781 0.0196076 3.09649e-20)
(-0.0094879 0.0313903 6.32311e-20)
(-0.0135002 0.0441492 -8.05518e-21)
(-0.0175944 0.0574628 -3.27713e-20)
(-0.0216321 0.0710438 3.32781e-20)
(-0.0255136 0.084694 5.06159e-20)
(-0.0291688 0.098281 1.70818e-20)
(-0.0325475 0.111712 4.317e-20)
(-0.0356169 0.124923 3.48857e-20)
(-0.0383568 0.137863 5.27776e-20)
(-0.0407554 0.15049 1.06426e-19)
(-0.042806 0.162764 5.36055e-20)
(-0.044507 0.174645 0)
(-0.0458605 0.186091 1.80561e-20)
(-0.0468713 0.197063 1.81262e-20)
(-0.0475457 0.207519 1.82029e-20)
(-0.0478922 0.217418 3.65992e-20)
(-0.0479205 0.226725 -1.83495e-20)
(-0.0476409 0.235405 0)
(-0.047064 0.24343 -3.24503e-23)
(-0.0462008 0.250777 -3.69057e-20)
(-0.0450622 0.257427 3.69401e-20)
(-0.0436594 0.263368 7.39692e-20)
(-0.0420037 0.268596 7.40126e-20)
(-0.0401069 0.27311 2.65177e-23)
(-0.0379809 0.276917 3.69248e-20)
(-0.0356374 0.280028 3.68859e-20)
(-0.0330887 0.282461 -3.68336e-20)
(-0.0303477 0.284237 3.67682e-20)
(-0.0274281 0.285384 3.66903e-20)
(-0.0243452 0.285932 7.33176e-20)
(-0.0211168 0.285917 -1.13387e-22)
(-0.0177636 0.285378 1.09291e-19)
(-0.0143096 0.284359 -2.2603e-23)
(-0.010781 0.282906 -3.613e-20)
(-0.00719979 0.281069 -3.61449e-20)
(-0.00364572 0.278946 3.58363e-20)
(-0.000256592 0.276662 4.15088e-20)
(-0.000572248 0.00233318 2.77764e-20)
(-0.00286249 0.0100237 3.78016e-20)
(-0.00636733 0.020331 2.32106e-20)
(-0.010405 0.0322055 -2.37101e-20)
(-0.0147313 0.0449864 -4.02605e-20)
(-0.0191382 0.058267 3.27686e-20)
(-0.0234834 0.071771 0)
(-0.0276646 0.0853083 3.37345e-20)
(-0.0316108 0.0987522 0)
(-0.0352715 0.112016 -6.90741e-20)
(-0.0386135 0.125039 1.74527e-20)
(-0.0416161 0.137776 -8.79656e-20)
(-0.0442671 0.150187 -3.54724e-20)
(-0.0465594 0.162237 1.78735e-20)
(-0.0484909 0.173888 3.78986e-23)
(-0.0500632 0.185102 -1.80488e-20)
(-0.0512804 0.195841 -3.63133e-20)
(-0.0521482 0.206065 -7.29102e-20)
(-0.0526746 0.215736 0)
(-0.0528689 0.224819 4.10574e-23)
(-0.0527406 0.23328 -3.6719e-20)
(-0.0522998 0.241093 -3.6854e-20)
(-0.0515569 0.248233 3.69055e-20)
(-0.0505224 0.254684 -3.70178e-20)
(-0.049207 0.260433 3.69061e-20)
(-0.0476218 0.265476 -7.38368e-20)
(-0.0457781 0.269812 2.21271e-23)
(-0.0436872 0.273448 -7.37558e-20)
(-0.0413606 0.276395 -3.68857e-20)
(-0.0388103 0.278671 -6.94456e-24)
(-0.036049 0.2803 -1.03216e-22)
(-0.0330907 0.281308 -3.66902e-20)
(-0.0299511 0.281729 -3.66002e-20)
(-0.0266489 0.281601 -1.26216e-22)
(-0.0232061 0.280966 -3.63861e-20)
(-0.0196488 0.279873 -1.42763e-22)
(-0.0160059 0.278373 -3.60599e-20)
(-0.0123029 0.276521 1.07567e-19)
(-0.008626 0.27442 -3.58362e-20)
(-0.00511981 0.272205 -4.15085e-20)
(-0.000670999 0.00257816 -2.77733e-20)
(-0.00319888 0.0105742 7.56092e-21)
(-0.00698348 0.0210615 -2.32147e-20)
(-0.0113134 0.0330246 -7.9013e-21)
(-0.0159327 0.045824 3.22072e-20)
(-0.020627 0.0590689 -8.19155e-21)
(-0.0252508 0.0724936 8.31508e-21)
(-0.029701 0.0859162 -5.06069e-20)
(-0.0339054 0.0992162 1.70694e-20)
(-0.0378139 0.112312 3.45352e-20)
(-0.0413933 0.125148 0)
(-0.0446231 0.137682 7.03763e-20)
(-0.0474907 0.149878 0)
(-0.0499889 0.161705 -7.14314e-20)
(-0.0521151 0.173127 -3.5933e-20)
(-0.0538708 0.184109 0)
(-0.0552593 0.194615 0)
(-0.056286 0.204608 7.2883e-20)
(-0.0569585 0.214051 3.66114e-20)
(-0.0572857 0.22291 -7.33302e-20)
(-0.0572764 0.231153 3.66955e-20)
(-0.0569401 0.238754 0)
(-0.0562867 0.245689 -3.68997e-20)
(-0.0553263 0.251941 7.37005e-20)
(-0.0540692 0.257498 -3.6828e-20)
(-0.052526 0.262356 -3.69241e-20)
(-0.0507075 0.266513 3.6797e-20)
(-0.0486247 0.269977 0)
(-0.0462886 0.272759 7.35284e-20)
(-0.0437106 0.274877 -3.66454e-20)
(-0.0409034 0.276355 -3.66637e-20)
(-0.0378809 0.277221 -9.20251e-23)
(-0.0346591 0.277512 1.45675e-19)
(-0.0312575 0.277266 -1.08904e-19)
(-0.0276993 0.276532 0)
(-0.0240126 0.275361 -3.61201e-20)
(-0.020229 0.273811 -7.18774e-20)
(-0.0163779 0.271944 3.55983e-20)
(-0.0125506 0.269872 3.55016e-20)
(-0.00890173 0.267733 0)
(-0.000778963 0.00282502 -5.55217e-20)
(-0.00354936 0.0111266 -7.55858e-21)
(-0.00760554 0.0217907 6.18637e-20)
(-0.0122118 0.0338381 -6.31746e-20)
(-0.0171023 0.0466521 0)
(-0.0220578 0.0598578 0)
(-0.0269312 0.0732006 -1.66363e-20)
(-0.0316182 0.0865073 -1.26729e-23)
(-0.036047 0.0996633 1.70669e-20)
(-0.0401681 0.112592 0)
(-0.0439489 0.125242 0)
(-0.0473688 0.137574 -1.75798e-20)
(-0.0504156 0.149558 3.01998e-23)
(-0.0530821 0.161162 1.78737e-20)
(-0.0553656 0.172357 3.59328e-20)
(-0.0572673 0.183109 0)
(-0.05879 0.193385 3.6329e-20)
(-0.0599391 0.203149 -3.6348e-20)
(-0.0607218 0.212367 -7.30954e-20)
(-0.0611464 0.221004 7.32886e-20)
(-0.0612212 0.229032 9.46623e-23)
(-0.0609551 0.236423 -3.67269e-20)
(-0.0603575 0.243154 3.68586e-20)
(-0.0594383 0.24921 -7.36297e-20)
(-0.0582074 0.254578 0)
(-0.0566747 0.259252 3.68609e-20)
(-0.0548506 0.263233 -7.35634e-20)
(-0.0527455 0.266525 3.6689e-20)
(-0.0503699 0.269142 -3.67183e-20)
(-0.0477349 0.271101 -3.66462e-20)
(-0.0448528 0.272427 -3.66435e-20)
(-0.0417373 0.27315 1.4566e-19)
(-0.0384047 0.273306 -1.08891e-19)
(-0.0348749 0.27294 -7.24363e-20)
(-0.0311722 0.272102 7.20218e-20)
(-0.0273265 0.27085 0)
(-0.0233726 0.269248 7.15621e-20)
(-0.0193435 0.267366 -7.11141e-20)
(-0.0153344 0.265324 -3.55014e-20)
(-0.0115138 0.263272 0)
(-0.000895919 0.00307137 1.17952e-19)
(-0.00391324 0.011675 5.28537e-20)
(-0.00823221 0.0225104 -6.18632e-20)
(-0.0130984 0.0346365 5.52785e-20)
(-0.018238 0.04746 -8.04906e-21)
(-0.0234284 0.0606225 1.63697e-20)
(-0.0285212 0.0738812 0)
(-0.0334124 0.087071 -1.68675e-20)
(-0.038031 0.100083 1.70641e-20)
(-0.0423284 0.112846 1.72736e-20)
(-0.0462729 0.125311 -1.74248e-20)
(-0.0498448 0.137445 -1.76052e-20)
(-0.0530321 0.149219 1.77158e-20)
(-0.0558279 0.160605 0)
(-0.0582294 0.171576 0)
(-0.0602379 0.182101 -3.61522e-20)
(-0.0618559 0.192151 3.62378e-20)
(-0.0630887 0.20169 -3.64582e-20)
(-0.0639434 0.210686 3.64882e-20)
(-0.0644276 0.219106 3.6668e-20)
(-0.064549 0.226922 -7.33883e-20)
(-0.0643161 0.234107 7.34869e-20)
(-0.063738 0.24064 8.97107e-23)
(-0.0628243 0.246503 -3.67388e-20)
(-0.0615842 0.251685 0)
(-0.0600272 0.25618 3.67978e-20)
(-0.0581633 0.259987 8.69825e-23)
(-0.0560023 0.263111 -3.6618e-20)
(-0.0535543 0.265565 0)
(-0.0508296 0.267367 7.30974e-20)
(-0.0478402 0.268541 -7.27492e-20)
(-0.0445997 0.269119 0)
(-0.0411245 0.26914 7.24374e-20)
(-0.0374346 0.268651 -7.20382e-20)
(-0.0335552 0.267705 0)
(-0.029518 0.266368 0)
(-0.0253612 0.264711 0)
(-0.0211213 0.262812 -7.08998e-20)
(-0.0168962 0.260804 7.04452e-20)
(-0.0128717 0.258846 8.15405e-20)
(-0.00102128 0.00331458 -5.54971e-20)
(-0.00428932 0.0122136 -6.04092e-20)
(-0.00886215 0.0232127 -7.728e-21)
(-0.0139719 0.0354103 2.368e-20)
(-0.0193379 0.0482372 -3.21798e-20)
(-0.0247361 0.0613523 3.27375e-20)
(-0.030018 0.0745241 -3.32488e-20)
(-0.0350803 0.087596 -5.05701e-20)
(-0.0398531 0.100465 0)
(-0.0442897 0.113064 -1.72716e-20)
(-0.0483597 0.125348 1.74228e-20)
(-0.0520441 0.137286 0)
(-0.0553318 0.148854 3.54876e-20)
(-0.0582164 0.160026 -3.56716e-20)
(-0.0606953 0.170778 -1.07786e-19)
(-0.0627696 0.181083 -7.34025e-23)
(-0.064442 0.19091 7.25358e-20)
(-0.0657179 0.20023 -3.63634e-20)
(-0.066604 0.209009 0)
(-0.0671075 0.217218 0)
(-0.0672356 0.224828 7.33131e-20)
(-0.0669963 0.231814 3.67542e-20)
(-0.0663986 0.238154 -3.6694e-20)
(-0.0654515 0.243831 -3.67808e-20)
(-0.0641639 0.248833 7.34513e-20)
(-0.0625449 0.253153 -3.66546e-20)
(-0.0606038 0.256792 7.33739e-20)
(-0.0583501 0.259753 -1.4634e-19)
(-0.0557931 0.262048 1.4603e-19)
(-0.0529428 0.263696 -1.45663e-19)
(-0.0498107 0.264721 1.45243e-19)
(-0.0464102 0.265156 -1.44773e-19)
(-0.0427574 0.265041 7.20676e-20)
(-0.0388727 0.264427 7.19032e-20)
(-0.0347819 0.263371 1.0514e-22)
(-0.0305183 0.261945 9.71903e-23)
(-0.0261235 0.260228 -7.08359e-20)
(-0.0216378 0.25831 2.0244e-22)
(-0.01716 0.256337 -7.01125e-20)
(-0.0128972 0.254483 0)
(-0.00115454 0.00355244 6.93247e-21)
(-0.00467636 0.0127368 -7.54546e-21)
(-0.00949366 0.0238899 2.31762e-20)
(-0.0148301 0.0361503 -3.1562e-20)
(-0.0204001 0.0489735 1.60828e-20)
(-0.025979 0.0620359 0)
(-0.0314191 0.0751178 0)
(-0.0366188 0.0880709 6.74205e-20)
(-0.0415101 0.100797 8.5332e-20)
(-0.0460482 0.113234 -1.72486e-20)
(-0.0502044 0.125341 8.7168e-20)
(-0.0539611 0.137089 -1.75749e-20)
(-0.057308 0.148455 0)
(-0.0602394 0.15942 0)
(-0.0627534 0.169959 7.18312e-20)
(-0.064851 0.180049 0)
(-0.0665353 0.189662 3.621e-20)
(-0.0678116 0.198768 -3.64174e-20)
(-0.0686866 0.207338 0)
(-0.0691668 0.215342 -7.31471e-20)
(-0.0692592 0.222754 -3.66299e-20)
(-0.0689714 0.229547 -1.09976e-19)
(-0.0683122 0.235702 -3.67367e-20)
(-0.0672902 0.241201 3.6658e-20)
(-0.0659139 0.24603 7.32998e-20)
(-0.0641919 0.250185 0)
(-0.0621331 0.253662 7.30969e-20)
(-0.0597466 0.256467 1.46033e-19)
(-0.0570411 0.258611 1.27925e-22)
(-0.0540262 0.26011 -7.25847e-20)
(-0.050713 0.260991 -7.2475e-20)
(-0.0471145 0.261286 7.21102e-20)
(-0.0432468 0.261038 7.19384e-20)
(-0.0391303 0.260298 -1.43178e-19)
(-0.0347911 0.25913 1.42538e-19)
(-0.0302642 0.257611 -7.1073e-20)
(-0.0255946 0.25583 7.05355e-20)
(-0.0208265 0.25389 1.40398e-19)
(-0.0160579 0.251952 6.96401e-20)
(-0.0115211 0.250208 8.02578e-20)
(-0.00129495 0.00378264 -5.54117e-20)
(-0.00507289 0.0132393 5.27848e-20)
(-0.0101251 0.0245347 -4.63147e-20)
(-0.0156714 0.0368475 4.73056e-20)
(-0.0214227 0.0496587 8.03759e-20)
(-0.0271552 0.0626626 -6.54213e-20)
(-0.0327227 0.0756512 8.30715e-20)
(-0.038026 0.0884841 5.0546e-20)
(-0.0429995 0.101069 -1.19426e-19)
(-0.0476009 0.113346 3.45034e-20)
(-0.0518035 0.125279 1.74086e-20)
(-0.0555912 0.136841 3.51996e-20)
(-0.0589552 0.148013 3.54733e-20)
(-0.0618906 0.158776 -7.13824e-20)
(-0.064396 0.169111 7.1808e-20)
(-0.066473 0.178993 1.08301e-19)
(-0.068125 0.188399 -1.08717e-19)
(-0.0693574 0.197301 1.45514e-19)
(-0.0701766 0.20567 7.29513e-20)
(-0.0705889 0.213479 1.09747e-19)
(-0.070601 0.220701 3.66308e-20)
(-0.0702203 0.227312 7.33326e-20)
(-0.0694552 0.233291 -7.32874e-20)
(-0.068314 0.23862 0)
(-0.066805 0.243288 -2.19812e-19)
(-0.0649363 0.247286 1.4631e-19)
(-0.0627165 0.250612 -7.29737e-20)
(-0.0601542 0.25327 -7.28294e-20)
(-0.0572579 0.255271 -2.69625e-23)
(-0.0540366 0.256631 0)
(-0.0505011 0.257374 0)
(-0.0466643 0.257535 7.18339e-20)
(-0.042542 0.257157 -7.16889e-20)
(-0.0381545 0.256294 7.12938e-20)
(-0.0335284 0.255014 -7.10271e-20)
(-0.0286999 0.2534 -7.06706e-20)
(-0.0237178 0.251551 0)
(-0.0186301 0.249583 -6.98518e-20)
(-0.0135323 0.24768 -6.96014e-20)
(-0.00868504 0.246051 -2.39999e-19)
(-0.00144172 0.00400312 5.54168e-20)
(-0.0054773 0.0137164 -5.27817e-20)
(-0.0107545 0.0251401 6.17597e-20)
(-0.016494 0.0374934 -1.10363e-19)
(-0.022404 0.0502832 -8.0369e-20)
(-0.028263 0.0632217 6.54211e-20)
(-0.0339272 0.0761128 -1.32878e-19)
(-0.0393003 0.0888237 -6.73883e-20)
(-0.0443197 0.101267 8.53107e-20)
(-0.048946 0.113388 -1.55259e-19)
(-0.0531547 0.125151 -1.04593e-19)
(-0.0569319 0.136534 -3.5188e-20)
(-0.06027 0.147518 -1.06368e-19)
(-0.0631655 0.158087 1.0704e-19)
(-0.0656177 0.168225 -7.18075e-20)
(-0.0676289 0.177909 -7.21743e-20)
(-0.069203 0.187118 0)
(-0.0703455 0.195824 -7.27443e-20)
(-0.0710627 0.204002 -1.09453e-19)
(-0.0713607 0.211626 3.65075e-20)
(-0.0712459 0.218669 -7.32119e-20)
(-0.0707257 0.225108 0)
(-0.0698081 0.230922 7.32868e-20)
(-0.0685013 0.236094 7.32787e-20)
(-0.066813 0.240611 -7.29871e-20)
(-0.0647514 0.244464 0)
(-0.0623248 0.247651 0)
(-0.0595413 0.250174 0)
(-0.0564091 0.252044 -1.66339e-22)
(-0.0529372 0.253274 0)
(-0.0491362 0.253891 -1.4396e-19)
(-0.0450187 0.253927 -1.47112e-22)
(-0.0406004 0.253426 -1.42732e-19)
(-0.0359015 0.252444 1.42149e-19)
(-0.0309489 0.251053 -7.06953e-20)
(-0.0257801 0.249343 7.04923e-20)
(-0.0204474 0.247422 0)
(-0.0150031 0.245423 1.39273e-19)
(-0.00953813 0.243551 -6.91167e-20)
(-0.00434479 0.242042 0)
(-0.00159404 0.0042121 6.92032e-21)
(-0.00588792 0.0141636 0)
(-0.0113802 0.0256997 -7.71195e-20)
(-0.017296 0.03808 9.45703e-20)
(-0.0233426 0.0508376 4.81812e-20)
(-0.0293012 0.0637029 -6.53712e-20)
(-0.0350317 0.0764913 6.64282e-20)
(-0.0404411 0.0890778 -6.73484e-20)
(-0.0454702 0.10138 0)
(-0.0500828 0.113347 6.90018e-20)
(-0.0542574 0.124945 -6.96885e-20)
(-0.0579819 0.136153 1.18103e-23)
(-0.0612507 0.146957 0)
(-0.0640618 0.157342 7.13594e-20)
(-0.0664155 0.167291 -3.5855e-20)
(-0.0683149 0.176787 7.22085e-20)
(-0.0697644 0.185809 3.62514e-20)
(-0.0707698 0.194331 -7.26928e-20)
(-0.0713372 0.20233 0)
(-0.0714729 0.209779 1.09578e-19)
(-0.0711831 0.216655 3.65747e-20)
(-0.0704751 0.222935 0)
(-0.0693566 0.228597 0)
(-0.0678356 0.233624 0)
(-0.0659199 0.238003 7.30971e-20)
(-0.0636172 0.241725 0)
(-0.0609358 0.244787 -7.28068e-20)
(-0.0578836 0.247189 1.45139e-19)
(-0.0544688 0.248941 -1.44737e-19)
(-0.0507004 0.250057 0)
(-0.0465888 0.25056 7.19104e-20)
(-0.0421468 0.250482 -7.13946e-20)
(-0.0373899 0.249868 7.12913e-20)
(-0.0323385 0.248776 0)
(-0.0270194 0.24728 0)
(-0.0214716 0.245475 7.00674e-20)
(-0.0157511 0.243479 -6.96401e-20)
(-0.00991431 0.241442 1.38467e-19)
(-0.0040461 0.239598 -1.37579e-19)
(0.00152757 0.238211 0)
(-0.001751 0.00440797 4.83922e-20)
(-0.00630298 0.0145769 1.50627e-20)
(-0.0120003 0.0262077 6.16917e-20)
(-0.018076 0.0386 6.29837e-20)
(-0.0242371 0.0513133 -6.42436e-20)
(-0.0302691 0.0640961 6.53711e-20)
(-0.0360358 0.0767757 6.63784e-20)
(-0.0414482 0.0892347 6.73482e-20)
(-0.0464513 0.101396 0)
(-0.0510121 0.11321 6.89684e-20)
(-0.0551121 0.124647 6.96882e-20)
(-0.0587419 0.135688 7.03161e-20)
(-0.0618978 0.146319 0)
(-0.0645797 0.156527 -1.32731e-23)
(-0.0667891 0.166299 7.1781e-20)
(-0.0685299 0.175617 -3.60428e-20)
(-0.0698074 0.184463 -3.62059e-20)
(-0.0706276 0.192813 1.09064e-19)
(-0.0709967 0.200644 6.34973e-23)
(-0.070921 0.207932 -3.65118e-20)
(-0.0704068 0.214654 -7.31098e-20)
(-0.0694613 0.220788 0)
(-0.0680923 0.226311 0)
(-0.0663075 0.231208 0)
(-0.0641145 0.235465 0)
(-0.0615213 0.239072 0)
(-0.0585358 0.242024 0)
(-0.0551662 0.244321 7.24526e-20)
(-0.0514208 0.245972 -7.21514e-20)
(-0.0473088 0.246989 0)
(-0.0428409 0.247394 0)
(-0.0380299 0.247218 7.13936e-20)
(-0.0328916 0.246505 0)
(-0.0274463 0.245314 7.05758e-20)
(-0.0217216 0.24372 -7.01718e-20)
(-0.0157572 0.241825 0)
(-0.00961293 0.239755 1.38693e-19)
(-0.00334985 0.237676 -1.37824e-19)
(0.002955 0.235855 0)
(0.00894073 0.234589 0)
(-0.00191173 0.00458946 -5.53032e-20)
(-0.00672076 0.0149531 -1.50475e-20)
(-0.012613 0.0266591 1.54082e-20)
(-0.0188322 0.0390466 -6.29837e-20)
(-0.0250865 0.0517022 0)
(-0.0311661 0.0643921 0)
(-0.0369396 0.0769555 -4.97791e-20)
(-0.0423226 0.0892827 -1.68199e-20)
(-0.0472641 0.101301 -3.41104e-20)
(-0.0517354 0.112964 -3.45118e-20)
(-0.0557209 0.124244 -3.48592e-20)
(-0.0592142 0.135123 3.51195e-20)
(-0.0622139 0.145589 3.53881e-20)
(-0.0647217 0.155631 -3.57063e-20)
(-0.0667409 0.165235 0)
(-0.0682763 0.174387 0)
(-0.0693339 0.183068 -7.24233e-20)
(-0.0699203 0.191258 0)
(-0.070042 0.198935 0)
(-0.0697053 0.206076 7.2971e-20)
(-0.0689168 0.212658 1.06327e-22)
(-0.0676837 0.21866 2.05955e-23)
(-0.0660138 0.224061 -7.3073e-20)
(-0.0639148 0.228843 7.29163e-20)
(-0.0613943 0.232993 7.27977e-20)
(-0.0584603 0.236501 -7.26374e-20)
(-0.055121 0.23936 0)
(-0.0513849 0.241572 7.22972e-20)
(-0.0472607 0.24314 3.73246e-23)
(-0.042758 0.244076 -7.17118e-20)
(-0.037888 0.244402 0)
(-0.0326637 0.244147 0)
(-0.0271016 0.243353 7.0707e-20)
(-0.0212225 0.242077 -7.03172e-20)
(-0.015054 0.240399 -6.99087e-20)
(-0.00863722 0.238421 6.94949e-20)
(-0.00203571 0.236279 0)
(0.00468444 0.234156 0)
(0.0114556 0.232353 0)
(0.0178818 0.231206 -7.74451e-20)
(-0.00207536 0.00475565 6.90204e-20)
(-0.00713956 0.0152893 -3.0077e-20)
(-0.0132167 0.0270495 1.53971e-20)
(-0.0195635 0.0394142 0)
(-0.02589 0.051997 8.01847e-20)
(-0.0319921 0.0645821 1.22524e-23)
(-0.0377436 0.0770208 6.63337e-20)
(-0.0430654 0.0892107 -5.04756e-20)
(-0.047911 0.101084 6.81543e-20)
(-0.0522556 0.112596 -3.4445e-20)
(-0.0560874 0.123722 0)
(-0.0594029 0.134445 3.51673e-20)
(-0.0622035 0.144754 -1.06231e-19)
(-0.0644929 0.154637 0)
(-0.0662762 0.164084 1.07633e-19)
(-0.0675595 0.173081 -7.20242e-20)
(-0.0683497 0.181611 -7.23877e-20)
(-0.0686539 0.189654 3.62807e-20)
(-0.0684789 0.197191 0)
(-0.0678317 0.204199 -7.29368e-20)
(-0.066719 0.210656 -7.30258e-20)
(-0.0651482 0.216541 -7.74501e-23)
(-0.0631272 0.221835 7.292e-20)
(-0.0606637 0.226519 7.2906e-20)
(-0.0577656 0.23058 -1.45512e-19)
(-0.0544411 0.234007 7.26365e-20)
(-0.0506989 0.236793 0)
(-0.0465478 0.238937 -7.20607e-20)
(-0.0419973 0.240442 7.17774e-20)
(-0.0370577 0.24132 7.14636e-20)
(-0.0317408 0.241588 -7.11221e-20)
(-0.0260606 0.241275 7.07552e-20)
(-0.0200341 0.24042 0)
(-0.0136828 0.23908 7.00637e-20)
(-0.00703499 0.237333 1.39141e-19)
(-0.00013288 0.235285 -1.38454e-19)
(0.00695616 0.233078 1.37484e-19)
(0.0141604 0.23091 -6.65008e-23)
(0.0214229 0.229121 -6.80093e-20)
(0.0283139 0.228092 1.54078e-19)
(-0.0022411 0.00490587 -4.14202e-20)
(-0.00755777 0.0155836 -9.0125e-20)
(-0.0138098 0.0273755 6.15184e-20)
(-0.0202686 0.0396979 -4.71427e-20)
(-0.026647 0.0521914 -1.60764e-20)
(-0.0327472 0.0646584 1.63087e-20)
(-0.038449 0.0769621 -3.31495e-20)
(-0.0436786 0.0890078 -3.36097e-20)
(-0.0483946 0.100732 3.40865e-20)
(-0.0525764 0.112093 -6.89152e-20)
(-0.0562162 0.123068 -5.49712e-23)
(-0.0593137 0.133639 3.50998e-20)
(-0.0618732 0.143797 0)
(-0.0639007 0.153531 -3.5682e-20)
(-0.0654031 0.162831 -3.59009e-20)
(-0.0663884 0.171685 7.2085e-20)
(-0.0668642 0.180075 0)
(-0.0668384 0.187986 0)
(-0.0663185 0.195396 7.28097e-20)
(-0.0653119 0.202285 -7.28192e-20)
(-0.0638259 0.208633 0)
(-0.0618681 0.214418 7.2966e-20)
(-0.0594466 0.219621 -7.28516e-20)
(-0.0565695 0.224224 -1.45571e-19)
(-0.0532448 0.228214 -4.52853e-23)
(-0.0494815 0.231578 7.2517e-20)
(-0.0452886 0.234311 -1.44416e-19)
(-0.0406759 0.236408 7.20596e-20)
(-0.0356536 0.237873 -7.17763e-20)
(-0.0302331 0.238714 -9.16207e-23)
(-0.0244271 0.238948 9.01961e-23)
(-0.0182508 0.2386 -7.0754e-20)
(-0.0117221 0.237708 -7.01443e-20)
(-0.00486357 0.236327 -6.97179e-20)
(0.00229565 0.234533 -2.5057e-22)
(0.00971224 0.232432 0)
(0.017315 0.230171 -6.83381e-20)
(0.0250259 0.227963 1.35949e-19)
(0.0327996 0.226185 -2.02747e-19)
(0.0401751 0.22527 -2.07695e-22)
(-0.00240819 0.00503976 -1.37854e-20)
(-0.00797391 0.0158345 1.20092e-19)
(-0.014391 0.0276345 -6.15219e-20)
(-0.0209465 0.0398936 4.71473e-20)
(-0.0273571 0.0522799 -1.28166e-19)
(-0.0334318 0.0646139 1.62985e-20)
(-0.039057 0.0767711 -6.62473e-20)
(-0.0441646 0.0886642 0)
(-0.0487185 0.100234 0)
(-0.0527027 0.111443 -6.88723e-20)
(-0.0561133 0.122266 3.48282e-20)
(-0.0589538 0.13269 -1.2787e-23)
(-0.0612313 0.142703 3.53676e-20)
(-0.0629546 0.152296 0)
(-0.0641326 0.161459 -1.0757e-19)
(-0.0647751 0.17018 3.59959e-20)
(-0.0648908 0.178444 -7.23221e-20)
(-0.0644886 0.186235 0)
(-0.0635767 0.193533 0)
(-0.0621634 0.200319 6.55343e-23)
(-0.0602563 0.206572 -7.28294e-20)
(-0.0578638 0.212273 7.28346e-20)
(-0.0549944 0.217402 -7.28344e-20)
(-0.0516565 0.221942 7.2678e-20)
(-0.0478587 0.225879 6.0915e-23)
(-0.0436106 0.2292 6.8132e-23)
(-0.0389222 0.231899 7.2183e-20)
(-0.0338041 0.233971 -7.17799e-20)
(-0.0282678 0.235417 0)
(-0.0223257 0.236245 -7.11913e-20)
(-0.0159921 0.236469 7.08519e-20)
(-0.00928343 0.236113 0)
(-0.00221902 0.23521 7.01429e-20)
(0.00517749 0.233814 -6.94307e-20)
(0.0128757 0.231997 6.90784e-20)
(0.0208311 0.229865 0)
(0.0289687 0.227567 2.04672e-19)
(0.0372038 0.225327 -1.35481e-19)
(0.0455026 0.223562 0)
(0.0533772 0.222758 7.60118e-20)
(-0.002576 0.0051572 1.10125e-19)
(-0.00838666 0.0160411 -6.00206e-20)
(-0.0149589 0.0278246 -1.53649e-20)
(-0.0215964 0.0399985 1.56943e-20)
(-0.0280201 0.0522583 6.40558e-20)
(-0.0340465 0.0644429 0)
(-0.0395691 0.0764403 6.62475e-20)
(-0.0445259 0.0881708 1.00723e-19)
(-0.0488865 0.0995802 3.4009e-20)
(-0.0526395 0.110632 3.44158e-20)
(-0.0557853 0.121305 3.4758e-20)
(-0.0583313 0.131583 -1.05357e-19)
(-0.0602878 0.141456 3.53555e-20)
(-0.0616662 0.150915 1.42497e-19)
(-0.0624779 0.15995 3.58216e-20)
(-0.0627345 0.16855 3.59837e-20)
(-0.0624463 0.176699 7.23216e-20)
(-0.0616231 0.184382 0)
(-0.0602743 0.191582 0)
(-0.0584089 0.198279 1.45615e-19)
(-0.0560356 0.204454 -2.91206e-19)
(-0.0531634 0.210087 -6.44046e-23)
(-0.0498012 0.215159 0)