/*--------------------------------*- C++ -*----------------------------------*\
  =========                 |
  \\      /  F ield         | OpenFOAM: The Open Source CFD Toolbox
   \\    /   O peration     | Website:  https://openfoam.org
    \\  /    A nd           | Version:  7
     \\/     M anipulation  |
\*---------------------------------------------------------------------------*/
FoamFile
{
    version     2.0;
    format      ascii;
    class       volScalarField;
    location    "2.8";
    object      p;
}
// * * * * * * * * * * * * * * * * * * * * * * * * * * * * * * * * * * * * * //

dimensions      [0 2 -2 0 0 0 0];

internalField   nonuniform List<scalar> 
32000
(
1.04556
1.04454
1.04465
1.04502
1.04568
1.04659
1.04767
1.04889
1.05019
1.05153
1.05292
1.05435
1.05587
1.05751
1.05928
1.06119
1.06323
1.06538
1.06762
1.06995
1.07234
1.0748
1.07731
1.07986
1.08244
1.08503
1.0876
1.09015
1.09265
1.0951
1.09749
1.0998
1.10204
1.10418
1.10625
1.10823
1.11012
1.11193
1.11365
1.11512
1.04288
1.04201
1.04218
1.04258
1.04327
1.04417
1.04523
1.04639
1.04762
1.04889
1.05017
1.05147
1.05286
1.05434
1.05596
1.05771
1.05959
1.06159
1.06369
1.06589
1.06816
1.0705
1.07291
1.07538
1.07789
1.08043
1.08296
1.08548
1.08796
1.0904
1.09277
1.09508
1.09731
1.09945
1.10151
1.10349
1.10537
1.10718
1.10889
1.11035
1.04012
1.03943
1.03966
1.04011
1.04081
1.04171
1.04275
1.04385
1.04501
1.04618
1.04735
1.04853
1.04978
1.05111
1.05257
1.05416
1.05588
1.05772
1.05967
1.06173
1.06388
1.0661
1.06841
1.0708
1.07324
1.07573
1.07822
1.08071
1.08317
1.08559
1.08796
1.09026
1.09249
1.09463
1.0967
1.09867
1.10055
1.10235
1.10405
1.10552
1.03732
1.03679
1.03708
1.03757
1.03831
1.03921
1.04022
1.04127
1.04235
1.04342
1.04448
1.04553
1.04664
1.04783
1.04912
1.05054
1.05209
1.05377
1.05557
1.05749
1.05951
1.06162
1.06383
1.06613
1.06851
1.07094
1.0734
1.07586
1.0783
1.08071
1.08307
1.08537
1.08759
1.08974
1.09181
1.09378
1.09566
1.09745
1.09915
1.10062
1.0345
1.03415
1.03449
1.03503
1.03579
1.03669
1.03766
1.03866
1.03966
1.04063
1.04157
1.0425
1.04346
1.04449
1.04562
1.04687
1.04825
1.04976
1.05141
1.05319
1.05507
1.05707
1.05918
1.0614
1.06371
1.06609
1.06851
1.07094
1.07336
1.07576
1.07811
1.0804
1.08264
1.08479
1.08686
1.08884
1.09071
1.0925
1.0942
1.09566
1.03164
1.03147
1.03186
1.03245
1.03323
1.03413
1.03508
1.03603
1.03694
1.03781
1.03863
1.03943
1.04025
1.04113
1.04209
1.04317
1.04437
1.04572
1.04721
1.04884
1.05059
1.05247
1.05448
1.05662
1.05887
1.06119
1.06357
1.06597
1.06837
1.07075
1.0731
1.07539
1.07763
1.07979
1.08186
1.08384
1.08572
1.0875
1.08919
1.09066
1.02877
1.02878
1.02923
1.02986
1.03067
1.03157
1.03249
1.03338
1.03421
1.03498
1.03568
1.03635
1.03703
1.03775
1.03855
1.03945
1.04048
1.04166
1.04299
1.04447
1.04608
1.04785
1.04976
1.05182
1.054
1.05627
1.0586
1.06096
1.06334
1.06571
1.06805
1.07035
1.07259
1.07475
1.07682
1.0788
1.08068
1.08246
1.08415
1.08562
1.0259
1.02609
1.02659
1.02727
1.0281
1.029
1.0299
1.03073
1.03149
1.03215
1.03274
1.03327
1.03381
1.03437
1.035
1.03574
1.0366
1.03761
1.03877
1.04009
1.04157
1.04322
1.04504
1.04701
1.04912
1.05133
1.05362
1.05595
1.0583
1.06065
1.06299
1.06529
1.06752
1.06969
1.07176
1.07374
1.07562
1.07739
1.07908
1.08055
1.02303
1.0234
1.02396
1.02469
1.02554
1.02644
1.02731
1.0281
1.02877
1.02934
1.02981
1.03022
1.0306
1.03101
1.03148
1.03205
1.03274
1.03357
1.03457
1.03573
1.03708
1.03861
1.04033
1.04223
1.04426
1.04641
1.04864
1.05094
1.05327
1.0556
1.05793
1.06022
1.06246
1.06462
1.06669
1.06867
1.07054
1.07231
1.07399
1.07545
1.02018
1.02072
1.02134
1.02212
1.023
1.0239
1.02474
1.02548
1.02608
1.02655
1.02691
1.02719
1.02743
1.02769
1.028
1.02839
1.02891
1.02958
1.03041
1.03142
1.03263
1.03405
1.03567
1.03748
1.03943
1.04152
1.0437
1.04596
1.04826
1.05058
1.05289
1.05518
1.0574
1.05956
1.06163
1.0636
1.06547
1.06722
1.06889
1.07035
1.01734
1.01806
1.01874
1.01957
1.02047
1.02137
1.02219
1.02288
1.02342
1.0238
1.02405
1.0242
1.02431
1.02442
1.02457
1.0248
1.02515
1.02564
1.0263
1.02717
1.02825
1.02955
1.03107
1.03278
1.03466
1.03668
1.03881
1.04102
1.0433
1.04559
1.04789
1.05016
1.05238
1.05452
1.05658
1.05855
1.0604
1.06214
1.0638
1.06524
1.01453
1.01542
1.01616
1.01703
1.01795
1.01886
1.01966
1.02032
1.02079
1.02109
1.02124
1.02127
1.02124
1.0212
1.0212
1.02127
1.02146
1.02178
1.02228
1.02299
1.02394
1.02513
1.02654
1.02816
1.02996
1.03191
1.03399
1.03616
1.0384
1.04067
1.04294
1.04519
1.04739
1.04952
1.05157
1.05352
1.05536
1.05708
1.05872
1.06015
1.01175
1.01281
1.0136
1.01452
1.01547
1.01637
1.01717
1.01779
1.01821
1.01843
1.01848
1.0184
1.01824
1.01806
1.01791
1.01783
1.01785
1.01801
1.01835
1.01892
1.01974
1.0208
1.02211
1.02364
1.02535
1.02723
1.02925
1.03137
1.03358
1.03582
1.03806
1.04029
1.04247
1.04458
1.04661
1.04854
1.05035
1.05205
1.05366
1.05507
1.00902
1.01022
1.01108
1.01204
1.01301
1.01392
1.0147
1.0153
1.01567
1.01583
1.01578
1.01559
1.01531
1.015
1.01471
1.01448
1.01434
1.01434
1.01453
1.01495
1.01564
1.01659
1.01779
1.01922
1.02085
1.02266
1.02461
1.02669
1.02885
1.03105
1.03327
1.03546
1.03761
1.03969
1.0417
1.04361
1.0454
1.04706
1.04864
1.05002
1.00632
1.00767
1.00858
1.00959
1.01058
1.0115
1.01227
1.01285
1.01318
1.01328
1.01315
1.01286
1.01247
1.01204
1.01161
1.01123
1.01094
1.01078
1.01083
1.01112
1.01167
1.0125
1.01359
1.01492
1.01646
1.0182
1.0201
1.02212
1.02423
1.02639
1.02857
1.03072
1.03284
1.03489
1.03686
1.03874
1.04049
1.04212
1.04365
1.04501
1.00366
1.00515
1.00611
1.00717
1.00818
1.00911
1.00989
1.01045
1.01075
1.01079
1.0106
1.01022
1.00972
1.00916
1.0086
1.00808
1.00765
1.00735
1.00726
1.00741
1.00784
1.00854
1.00952
1.01075
1.01221
1.01387
1.0157
1.01767
1.01973
1.02184
1.02397
1.02608
1.02815
1.03017
1.0321
1.03394
1.03565
1.03723
1.03872
1.04003
1.00105
1.00266
1.00367
1.00477
1.00581
1.00676
1.00754
1.00809
1.00837
1.00837
1.00811
1.00765
1.00705
1.00638
1.0057
1.00505
1.00448
1.00405
1.00382
1.00384
1.00414
1.00472
1.00559
1.00672
1.00809
1.00968
1.01144
1.01335
1.01535
1.0174
1.01948
1.02154
1.02357
1.02554
1.02743
1.02922
1.03088
1.0324
1.03383
1.03511
0.998477
1.00019
1.00126
1.0024
1.00348
1.00445
1.00524
1.00578
1.00604
1.00601
1.0057
1.00517
1.00448
1.0037
1.0029
1.00212
1.00143
1.00087
1.00051
1.00041
1.00058
1.00105
1.0018
1.00283
1.00412
1.00563
1.00732
1.00916
1.0111
1.01309
1.01511
1.01712
1.01909
1.02101
1.02284
1.02458
1.02618
1.02764
1.02901
1.03023
0.995946
0.997753
0.998874
1.00006
1.00117
1.00217
1.00297
1.00352
1.00377
1.00371
1.00336
1.00277
1.00199
1.00112
1.0002
0.99931
0.998495
0.997819
0.997339
0.997108
0.997159
0.997507
0.998154
0.999089
1.00029
1.00172
1.00334
1.00511
1.00697
1.0089
1.01086
1.01281
1.01472
1.01658
1.01835
1.02002
1.02156
1.02295
1.02425
1.02542
0.993455
0.995339
0.996509
0.997749
0.998897
0.999918
1.00074
1.00129
1.00154
1.00146
1.00108
1.00043
0.999588
0.998618
0.9976
0.996599
0.995674
0.994884
0.994288
0.993938
0.99387
0.994105
0.994647
0.995489
0.996604
0.997956
0.999498
1.00119
1.00298
1.00484
1.00672
1.00861
1.01046
1.01225
1.01396
1.01555
1.01702
1.01833
1.01956
1.02067
0.991
0.992946
0.994164
0.995453
0.996642
0.997693
0.998534
0.9991
0.99935
0.999267
0.99886
0.998167
0.997254
0.9962
0.995087
0.993984
0.992955
0.992059
0.991353
0.990889
0.990708
0.990834
0.991276
0.992026
0.993056
0.994327
0.995789
0.997399
0.999115
1.0009
1.00271
1.00452
1.0063
1.00802
1.00965
1.01117
1.01256
1.01379
1.01494
1.01599
0.988575
0.99057
0.991833
0.993173
0.994405
0.995489
0.996354
0.996938
0.997197
0.997112
0.996687
0.995955
0.994982
0.993853
0.992652
0.991455
0.990328
0.989331
0.988522
0.987953
0.987665
0.987687
0.988033
0.988693
0.98964
0.990827
0.992208
0.993737
0.995374
0.99708
0.998816
1.00055
1.00225
1.00389
1.00544
1.00688
1.00818
1.00934
1.01039
1.01137
0.986178
0.988207
0.989514
0.990903
0.992179
0.9933
0.994194
0.994799
0.995072
0.99499
0.994551
0.993786
0.992762
0.991565
0.990284
0.988999
0.987781
0.98669
0.985785
0.985117
0.98473
0.984655
0.984908
0.985482
0.986344
0.987448
0.988746
0.990194
0.99175
0.993375
0.99503
0.996681
0.9983
0.999857
1.00133
1.00268
1.00389
1.00496
1.00593
1.00683
0.983802
0.985854
0.987201
0.988639
0.98996
0.99112
0.992046
0.992677
0.992967
0.99289
0.992441
0.99165
0.990581
0.989324
0.98797
0.986604
0.9853
0.984123
0.98313
0.982372
0.981892
0.981726
0.981891
0.98238
0.983159
0.98418
0.985396
0.986762
0.988236
0.989777
0.991347
0.992912
0.994444
0.995916
0.997297
0.99856
0.999684
1.00066
1.00154
1.00237
0.981445
0.983508
0.984891
0.986374
0.987742
0.988943
0.989904
0.990563
0.990872
0.990802
0.990347
0.989533
0.988426
0.987115
0.985695
0.984254
0.982873
0.981617
0.980544
0.979703
0.979138
0.978887
0.978969
0.979376
0.980073
0.981012
0.982146
0.98343
0.984821
0.986276
0.987758
0.989235
0.990679
0.992062
0.993354
0.994527
0.995561
0.996444
0.997235
0.997992
0.979101
0.981164
0.982578
0.984104
0.985517
0.986762
0.98776
0.988448
0.988777
0.988716
0.988256
0.987424
0.986283
0.984924
0.983443
0.981935
0.980482
0.979155
0.97801
0.977095
0.976453
0.976125
0.976128
0.976456
0.977073
0.977932
0.978986
0.980188
0.981495
0.982864
0.984257
0.985644
0.986999
0.988292
0.989494
0.990577
0.99152
0.992315
0.993015
0.993696
0.976762
0.978817
0.980256
0.981822
0.983281
0.984569
0.985605
0.986324
0.986674
0.986621
0.986158
0.985309
0.984139
0.982736
0.9812
0.979629
0.978114
0.976724
0.975516
0.974534
0.973824
0.973424
0.973356
0.973609
0.974148
0.974929
0.975903
0.977024
0.978247
0.979529
0.980834
0.982131
0.983396
0.9846
0.985713
0.986706
0.987562
0.98827
0.988885
0.989492
0.974422
0.976458
0.97792
0.979522
0.981025
0.982358
0.983433
0.984181
0.984551
0.984507
0.98404
0.983177
0.981979
0.980536
0.978949
0.977324
0.975753
0.974309
0.973046
0.972007
0.971236
0.970773
0.970638
0.97082
0.971286
0.97199
0.972885
0.973926
0.975065
0.976261
0.977478
0.978688
0.979864
0.98098
0.982005
0.982912
0.983684
0.984312
0.984846
0.985386
0.97207
0.974083
0.975563
0.977198
0.978743
0.98012
0.981234
0.982012
0.982399
0.982361
0.98189
0.981012
0.979789
0.978309
0.976678
0.975006
0.973388
0.971898
0.970587
0.969499
0.968677
0.968158
0.967962
0.968078
0.968472
0.969102
0.969921
0.970881
0.971938
0.973049
0.974179
0.975302
0.976393
0.977423
0.978364
0.97919
0.979884
0.980438
0.980901
0.98138
0.969699
0.971684
0.973178
0.974843
0.976429
0.977848
0.979002
0.979807
0.980207
0.980173
0.979697
0.978805
0.977557
0.976044
0.974375
0.972663
0.971007
0.969479
0.968129
0.967
0.966134
0.965568
0.965317
0.96537
0.965697
0.966254
0.966996
0.967877
0.968852
0.969879
0.970926
0.971964
0.972971
0.97392
0.974782
0.975533
0.976158
0.976649
0.977049
0.977477
0.967299
0.969254
0.970761
0.972452
0.974075
0.975536
0.976726
0.977556
0.977968
0.977935
0.977452
0.976544
0.975273
0.97373
0.97203
0.970286
0.968599
0.967041
0.965661
0.964499
0.963597
0.962989
0.962689
0.962686
0.962947
0.963433
0.964099
0.964901
0.965795
0.96674
0.967704
0.968661
0.969588
0.97046
0.971249
0.971935
0.972502
0.972939
0.973291
0.973678
0.964863
0.966788
0.968304
0.970018
0.971676
0.973176
0.9744
0.975252
0.975674
0.97564
0.975146
0.974221
0.972928
0.971361
0.969635
0.967867
0.966157
0.964577
0.963174
0.961986
0.961056
0.960413
0.96007
0.960012
0.960211
0.960627
0.961219
0.961942
0.962754
0.963619
0.964503
0.965381
0.966232
0.967032
0.967757
0.968387
0.968908
0.969307
0.969624
0.969986
0.962383
0.964279
0.965802
0.967536
0.969226
0.970761
0.972015
0.972887
0.973317
0.973279
0.972773
0.97183
0.970516
0.968927
0.967182
0.965398
0.963674
0.962079
0.96066
0.959455
0.958502
0.95783
0.957447
0.95734
0.957478
0.957826
0.958343
0.958987
0.95972
0.960505
0.96131
0.962112
0.96289
0.963624
0.964293
0.964878
0.965366
0.965743
0.966046
0.966404
0.95985
0.961722
0.96325
0.965002
0.966721
0.968288
0.969567
0.970456
0.970891
0.970846
0.970325
0.969364
0.96803
0.966424
0.964666
0.962873
0.961143
0.959541
0.958114
0.956897
0.955928
0.955231
0.954813
0.954658
0.954739
0.955019
0.955462
0.956029
0.956681
0.957386
0.958113
0.95884
0.959549
0.960222
0.960843
0.961394
0.961864
0.962237
0.962549
0.962929
0.957257
0.95911
0.960644
0.962415
0.964159
0.965751
0.967051
0.967953
0.96839
0.968336
0.967797
0.966816
0.965466
0.963848
0.962083
0.960289
0.958559
0.956959
0.95553
0.954308
0.953327
0.952609
0.952158
0.951959
0.951983
0.952197
0.952567
0.953055
0.953628
0.954252
0.9549
0.955553
0.956194
0.956811
0.957389
0.957916
0.958381
0.95877
0.959118
0.959551
0.954599
0.956441
0.957982
0.95977
0.961535
0.963147
0.964463
0.965373
0.965808
0.965741
0.965184
0.964185
0.96282
0.961194
0.95943
0.957642
0.955921
0.954328
0.952903
0.951681
0.950693
0.949958
0.949477
0.949234
0.949203
0.949353
0.94965
0.950059
0.950549
0.951091
0.951659
0.952236
0.95281
0.953371
0.953911
0.95442
0.954892
0.955313
0.955723
0.956249
0.951871
0.95371
0.95526
0.957064
0.958845
0.960471
0.961799
0.962713
0.963141
0.963059
0.962484
0.961467
0.960091
0.958464
0.956705
0.95493
0.953225
0.951646
0.950232
0.949014
0.948022
0.947273
0.946764
0.946479
0.946394
0.946479
0.946702
0.947032
0.947438
0.947893
0.948378
0.948876
0.949379
0.949882
0.950382
0.950875
0.951359
0.951828
0.952325
0.952987
0.949067
0.950914
0.952475
0.954292
0.956086
0.957722
0.959056
0.959969
0.960387
0.960288
0.959694
0.958663
0.95728
0.955656
0.953911
0.952155
0.950471
0.948912
0.947513
0.946305
0.945314
0.944552
0.944015
0.943689
0.943549
0.943568
0.943718
0.943966
0.944285
0.944652
0.945049
0.945462
0.945886
0.946322
0.946771
0.947238
0.947732
0.948257
0.948875
0.949729
0.946185
0.94805
0.949621
0.951452
0.953255
0.954898
0.956234
0.957141
0.957544
0.957426
0.956815
0.955772
0.954388
0.952773
0.951048
0.949319
0.947662
0.946128
0.944749
0.943554
0.942565
0.941791
0.941228
0.940858
0.940663
0.940617
0.940692
0.940856
0.941087
0.941362
0.941664
0.941983
0.942318
0.94267
0.943045
0.943455
0.943924
0.944493
0.945287
0.946492
0.943227
0.945118
0.946699
0.948543
0.950354
0.951999
0.953332
0.954228
0.954613
0.954476
0.95385
0.952799
0.951418
0.94982
0.948123
0.946425
0.944801
0.943295
0.941941
0.940762
0.939777
0.938992
0.9384
0.937988
0.937737
0.937623
0.93762
0.9377
0.937839
0.938018
0.938221
0.938439
0.938669
0.938915
0.93918
0.939474
0.93982
0.940272
0.940969
0.942472
1.11939
1.12654
1.13068
1.13503
1.13823
1.14107
1.14346
1.14561
1.14754
1.14926
1.15078
1.15216
1.15337
1.15441
1.15528
1.15599
1.1566
1.15708
1.15747
1.15779
1.15804
1.1582
1.15829
1.15831
1.15826
1.15813
1.15787
1.1575
1.15701
1.15636
1.15557
1.15459
1.15343
1.1521
1.15056
1.14893
1.14708
1.14537
1.14332
1.14241
1.1146
1.12231
1.12674
1.13138
1.13473
1.13772
1.14018
1.14243
1.14441
1.14622
1.1478
1.14924
1.15047
1.15156
1.15248
1.15325
1.15386
1.15438
1.15482
1.15517
1.15544
1.15563
1.15575
1.15581
1.15579
1.15567
1.15545
1.1551
1.15461
1.15398
1.15319
1.15224
1.15107
1.14975
1.14822
1.14661
1.14476
1.14306
1.14103
1.14013
1.10973
1.11802
1.12275
1.12769
1.1312
1.13435
1.13688
1.13924
1.14127
1.14316
1.14479
1.1463
1.14756
1.14869
1.14968
1.15049
1.15111
1.15167
1.15216
1.15254
1.15284
1.15307
1.15321
1.15331
1.15331
1.15321
1.15303
1.15269
1.15221
1.15161
1.15083
1.1499
1.14874
1.14744
1.14592
1.14434
1.1425
1.1408
1.1388
1.1379
1.10478
1.11368
1.11873
1.12395
1.12765
1.13094
1.13359
1.13603
1.13813
1.14007
1.14178
1.14332
1.14464
1.14582
1.14684
1.1477
1.14836
1.14897
1.14949
1.14991
1.15025
1.15051
1.15069
1.15081
1.15084
1.15076
1.1506
1.15029
1.14983
1.14925
1.14849
1.14757
1.14644
1.14516
1.14366
1.14209
1.14028
1.13859
1.13661
1.13573
1.09976
1.10928
1.11467
1.12018
1.12408
1.1275
1.13028
1.13279
1.13497
1.13697
1.13874
1.14033
1.14171
1.14294
1.144
1.1449
1.14562
1.14627
1.14682
1.14727
1.14765
1.14795
1.14816
1.14831
1.14837
1.14832
1.14818
1.14789
1.14746
1.1469
1.14616
1.14527
1.14416
1.14291
1.14144
1.13988
1.1381
1.13643
1.13446
1.1336
1.09468
1.10485
1.11057
1.11638
1.12048
1.12405
1.12695
1.12954
1.13181
1.13386
1.1357
1.13734
1.13878
1.14005
1.14115
1.14209
1.14287
1.14356
1.14414
1.14464
1.14505
1.14538
1.14564
1.14582
1.1459
1.14588
1.14576
1.1455
1.1451
1.14457
1.14386
1.14299
1.14192
1.14068
1.13925
1.13771
1.13596
1.13431
1.13236
1.13152
1.08955
1.10038
1.10643
1.11256
1.11687
1.12058
1.1236
1.12628
1.12863
1.13074
1.13264
1.13433
1.13583
1.13715
1.13829
1.13928
1.14011
1.14084
1.14147
1.142
1.14245
1.14282
1.14311
1.14332
1.14343
1.14344
1.14334
1.14312
1.14275
1.14225
1.14157
1.14073
1.13969
1.13849
1.13709
1.13557
1.13385
1.13222
1.13029
1.12947
1.08436
1.09588
1.10227
1.10871
1.11323
1.1171
1.12024
1.123
1.12543
1.12761
1.12958
1.13132
1.13288
1.13424
1.13543
1.13647
1.13735
1.13812
1.13878
1.13935
1.13985
1.14026
1.14059
1.14083
1.14097
1.14101
1.14094
1.14075
1.14042
1.13994
1.13929
1.13848
1.13749
1.13632
1.13496
1.13347
1.13178
1.13018
1.12827
1.12747
1.07914
1.09134
1.09808
1.10485
1.10957
1.11359
1.11686
1.11972
1.12223
1.12448
1.12651
1.12831
1.12991
1.13133
1.13256
1.13365
1.13458
1.13539
1.1361
1.13671
1.13725
1.1377
1.13806
1.13833
1.1385
1.13858
1.13854
1.13839
1.13809
1.13764
1.13703
1.13626
1.1353
1.13417
1.13286
1.1314
1.12975
1.12818
1.12629
1.12551
1.07388
1.08679
1.09387
1.10096
1.1059
1.11008
1.11347
1.11643
1.11903
1.12134
1.12343
1.12528
1.12694
1.12841
1.12969
1.13083
1.13181
1.13266
1.13341
1.13407
1.13465
1.13514
1.13553
1.13584
1.13604
1.13615
1.13615
1.13603
1.13577
1.13536
1.13479
1.13406
1.13314
1.13205
1.13078
1.12937
1.12775
1.12621
1.12435
1.12359
1.0686
1.08222
1.08964
1.09706
1.10221
1.10655
1.11008
1.11313
1.11581
1.11819
1.12036
1.12226
1.12397
1.12549
1.12682
1.128
1.12903
1.12993
1.13072
1.13142
1.13204
1.13258
1.133
1.13335
1.13359
1.13373
1.13377
1.13368
1.13345
1.13309
1.13255
1.13187
1.13099
1.12995
1.12873
1.12736
1.12578
1.12428
1.12245
1.12171
1.06331
1.07748
1.0854
1.09315
1.09851
1.10302
1.10667
1.10983
1.1126
1.11505
1.11728
1.11924
1.121
1.12257
1.12395
1.12518
1.12625
1.12719
1.12802
1.12877
1.12943
1.13001
1.13047
1.13086
1.13113
1.13131
1.13138
1.13133
1.13115
1.13082
1.13033
1.12969
1.12887
1.12787
1.1267
1.12538
1.12385
1.12239
1.12059
1.11986
1.05802
1.07291
1.08115
1.08923
1.0948
1.09948
1.10326
1.10652
1.10938
1.11191
1.1142
1.11621
1.11804
1.11965
1.12108
1.12235
1.12346
1.12445
1.12532
1.12612
1.12682
1.12744
1.12794
1.12836
1.12868
1.12889
1.129
1.12899
1.12885
1.12857
1.12812
1.12753
1.12675
1.12582
1.1247
1.12344
1.12194
1.12053
1.11877
1.11806
1.05275
1.06834
1.07691
1.0853
1.09109
1.09593
1.09985
1.10322
1.10617
1.10877
1.11112
1.11319
1.11507
1.11673
1.11822
1.11953
1.12068
1.12171
1.12263
1.12347
1.12421
1.12487
1.12541
1.12587
1.12623
1.12648
1.12662
1.12665
1.12655
1.12632
1.12592
1.12538
1.12466
1.12378
1.12272
1.12152
1.12007
1.1187
1.11698
1.11629
1.0475
1.06376
1.07267
1.08137
1.08737
1.09239
1.09644
1.09992
1.10296
1.10563
1.10805
1.11018
1.11211
1.11382
1.11535
1.1167
1.1179
1.11897
1.11993
1.12081
1.12159
1.1223
1.12288
1.12337
1.12378
1.12406
1.12425
1.12432
1.12426
1.12407
1.12373
1.12325
1.12258
1.12177
1.12077
1.11963
1.11824
1.11692
1.11524
1.11457
1.04228
1.05918
1.06844
1.07744
1.08366
1.08884
1.09303
1.09662
1.09975
1.1025
1.10498
1.10717
1.10915
1.11091
1.11249
1.11388
1.11512
1.11623
1.11723
1.11816
1.11898
1.11972
1.12035
1.12088
1.12132
1.12164
1.12187
1.12198
1.12198
1.12184
1.12155
1.12112
1.12052
1.11977
1.11884
1.11776
1.11643
1.11516
1.11353
1.11288
1.0371
1.05459
1.06422
1.07352
1.07994
1.0853
1.08962
1.09333
1.09655
1.09938
1.10191
1.10416
1.10619
1.108
1.10963
1.11106
1.11234
1.1135
1.11454
1.11551
1.11637
1.11714
1.11781
1.11838
1.11887
1.11923
1.1195
1.11965
1.1197
1.11961
1.11937
1.11901
1.11847
1.11779
1.11693
1.11593
1.11466
1.11345
1.11186
1.11123
1.03197
1.05003
1.06002
1.0696
1.07623
1.08176
1.08623
1.09005
1.09336
1.09626
1.09886
1.10116
1.10325
1.1051
1.10677
1.10825
1.10957
1.11077
1.11185
1.11285
1.11375
1.11457
1.11528
1.11588
1.11641
1.11681
1.11712
1.11732
1.11742
1.11738
1.1172
1.11691
1.11644
1.11584
1.11504
1.11412
1.11292
1.11177
1.11023
1.10963
1.0269
1.04549
1.05584
1.06569
1.07253
1.07823
1.08284
1.08678
1.09017
1.09315
1.09581
1.09818
1.10031
1.10221
1.10393
1.10544
1.1068
1.10804
1.10916
1.1102
1.11114
1.11199
1.11275
1.11339
1.11395
1.1144
1.11475
1.115
1.11515
1.11516
1.11504
1.11481
1.11442
1.11389
1.11318
1.11234
1.11121
1.11013
1.10864
1.10807
1.0219
1.041
1.05169
1.06179
1.06884
1.07472
1.07947
1.08352
1.087
1.09006
1.09278
1.0952
1.09739
1.09934
1.10109
1.10265
1.10405
1.10532
1.10648
1.10755
1.10854
1.10941
1.11021
1.11089
1.11149
1.11198
1.11238
1.11267
1.11287
1.11295
1.11289
1.11272
1.11241
1.11197
1.11134
1.11058
1.10954
1.10853
1.10709
1.10656
1.01697
1.03657
1.04758
1.05791
1.06517
1.07122
1.07612
1.08028
1.08385
1.08698
1.08976
1.09224
1.09448
1.09647
1.09827
1.09987
1.1013
1.10261
1.1038
1.10491
1.10593
1.10684
1.10768
1.1084
1.10902
1.10957
1.11001
1.11035
1.1106
1.11073
1.11074
1.11064
1.11041
1.11006
1.10951
1.10886
1.1079
1.10697
1.10559
1.1051
1.01211
1.03222
1.04352
1.05406
1.06152
1.06774
1.07278
1.07706
1.08071
1.08392
1.08676
1.0893
1.09159
1.09362
1.09546
1.09709
1.09856
1.09991
1.10113
1.10227
1.10333
1.10427
1.10514
1.1059
1.10656
1.10715
1.10763
1.10803
1.10833
1.10852
1.10859
1.10857
1.10842
1.10816
1.10771
1.10715
1.1063
1.10545
1.10414
1.10368
1.00734
1.02794
1.0395
1.05023
1.05789
1.06429
1.06947
1.07386
1.0776
1.08088
1.08378
1.08638
1.08871
1.09079
1.09267
1.09433
1.09583
1.09721
1.09847
1.09964
1.10073
1.1017
1.1026
1.10341
1.1041
1.10473
1.10526
1.1057
1.10606
1.10631
1.10645
1.1065
1.10644
1.10627
1.10592
1.10547
1.10472
1.10397
1.10273
1.1023
1.00266
1.02372
1.03552
1.04643
1.05429
1.06086
1.06618
1.07068
1.07451
1.07786
1.08082
1.08347
1.08585
1.08797
1.08989
1.09158
1.09311
1.09453
1.09581
1.09701
1.09813
1.09913
1.10007
1.10091
1.10164
1.10231
1.10289
1.10338
1.10378
1.1041
1.10431
1.10444
1.10447
1.10439
1.10415
1.10382
1.10318
1.10253
1.10137
1.10098
0.998078
1.01953
1.03159
1.04267
1.05072
1.05746
1.06293
1.06754
1.07146
1.07487
1.07789
1.08059
1.08301
1.08517
1.08712
1.08884
1.0904
1.09185
1.09317
1.09439
1.09554
1.09657
1.09753
1.09842
1.09918
1.0999
1.10051
1.10105
1.10151
1.10188
1.10217
1.10238
1.10249
1.10252
1.10239
1.10218
1.10167
1.10113
1.10006
1.09971
0.993594
1.01517
1.02771
1.03894
1.04718
1.05409
1.05971
1.06442
1.06843
1.07191
1.07499
1.07774
1.0802
1.08239
1.08437
1.08612
1.08771
1.08918
1.09053
1.09178
1.09295
1.09401
1.095
1.09592
1.09672
1.09748
1.09813
1.09872
1.09923
1.09967
1.10003
1.10032
1.10052
1.10065
1.10064
1.10056
1.10018
1.09977
1.0988
1.09849
0.989231
1.0111
1.02388
1.03524
1.04369
1.05077
1.05652
1.06134
1.06543
1.06898
1.07211
1.07491
1.07741
1.07963
1.08163
1.08341
1.08503
1.08653
1.0879
1.08917
1.09037
1.09145
1.09248
1.09343
1.09426
1.09505
1.09575
1.09639
1.09695
1.09745
1.09788
1.09825
1.09855
1.09879
1.0989
1.09895
1.09872
1.09845
1.09759
1.09733
0.985
1.0071
1.0201
1.03158
1.04023
1.04748
1.05338
1.0583
1.06247
1.06609
1.06927
1.07211
1.07465
1.0769
1.07892
1.08072
1.08236
1.08389
1.08529
1.08658
1.0878
1.0889
1.08995
1.09093
1.0918
1.09263
1.09337
1.09405
1.09467
1.09524
1.09574
1.09619
1.09658
1.09693
1.09717
1.09736
1.09729
1.09716
1.09643
1.09623
0.980908
1.00317
1.01638
1.02797
1.03682
1.04424
1.05027
1.0553
1.05955
1.06323
1.06646
1.06935
1.07191
1.07418
1.07623
1.07805
1.07972
1.08126
1.08268
1.08399
1.08523
1.08636
1.08743
1.08844
1.08934
1.0902
1.09099
1.09171
1.09239
1.09301
1.09359
1.09412
1.09461
1.09507
1.09544
1.09578
1.09588
1.09592
1.09533
1.09521
0.976962
0.999331
1.01272
1.02441
1.03346
1.04104
1.04721
1.05234
1.05667
1.06041
1.06369
1.06661
1.0692
1.0715
1.07356
1.07541
1.07709
1.07865
1.08009
1.08141
1.08267
1.08382
1.08491
1.08594
1.08688
1.08777
1.0886
1.08937
1.09009
1.09078
1.09143
1.09204
1.09263
1.0932
1.09371
1.09422
1.09449
1.09472
1.09429
1.09426
0.97315
0.995582
1.00912
1.02091
1.03015
1.0379
1.0442
1.04943
1.05383
1.05764
1.06095
1.06392
1.06653
1.06884
1.07092
1.07278
1.07448
1.07605
1.07751
1.07884
1.08012
1.08128
1.0824
1.08345
1.08442
1.08534
1.08621
1.08702
1.0878
1.08855
1.08927
1.08996
1.09065
1.09134
1.09199
1.09266
1.09312
1.09356
1.09331
1.09339
0.969505
0.991923
1.00559
1.01747
1.02691
1.03481
1.04125
1.04657
1.05105
1.05491
1.05827
1.06126
1.06389
1.06622
1.06831
1.07018
1.07189
1.07347
1.07494
1.07628
1.07757
1.07875
1.07989
1.08095
1.08196
1.0829
1.08381
1.08467
1.0855
1.08631
1.08709
1.08788
1.08865
1.08947
1.09026
1.0911
1.09177
1.09244
1.09241
1.09261
0.966033
0.988354
1.00213
1.0141
1.02374
1.03179
1.03835
1.04377
1.04832
1.05224
1.05563
1.05864
1.06128
1.06362
1.06572
1.0676
1.06932
1.07091
1.07239
1.07374
1.07503
1.07623
1.07738
1.07846
1.0795
1.08047
1.08141
1.08232
1.08319
1.08406
1.08491
1.08578
1.08665
1.08758
1.08852
1.08954
1.09043
1.09136
1.09158
1.09194
0.962745
0.984876
0.998747
1.01081
1.02064
1.02884
1.03552
1.04104
1.04565
1.04961
1.05303
1.05606
1.05871
1.06106
1.06316
1.06505
1.06678
1.06836
1.06985
1.07121
1.07251
1.07371
1.07488
1.07598
1.07703
1.07803
1.07901
1.07996
1.08087
1.08181
1.08273
1.08367
1.08464
1.08569
1.08677
1.08797
1.08909
1.09031
1.09083
1.09139
0.959666
0.98149
0.995453
1.00761
1.01762
1.02596
1.03276
1.03837
1.04305
1.04705
1.05049
1.05353
1.05618
1.05854
1.06064
1.06252
1.06426
1.06584
1.06733
1.06869
1.06999
1.07121
1.07238
1.07349
1.07457
1.07559
1.0766
1.07759
1.07855
1.07954
1.08053
1.08155
1.08262
1.08378
1.08501
1.08639
1.08775
1.08928
1.09016
1.09097
0.956816
0.97821
0.992267
1.00452
1.0147
1.02317
1.03008
1.03577
1.04051
1.04454
1.048
1.05104
1.0537
1.05605
1.05815
1.06003
1.06177
1.06335
1.06482
1.06619
1.06749
1.06871
1.06989
1.07101
1.0721
1.07315
1.07418
1.07522
1.07622
1.07727
1.07831
1.07942
1.08058
1.08186
1.08323
1.0848
1.08641
1.08828
1.08957
1.09072
0.954225
0.975058
0.989213
1.00157
1.0119
1.02049
1.02751
1.03327
1.03806
1.04211
1.04558
1.04862
1.05127
1.05361
1.05571
1.05758
1.0593
1.06088
1.06234
1.06371
1.065
1.06622
1.0674
1.06853
1.06963
1.07071
1.07176
1.07283
1.07388
1.07498
1.07609
1.07727
1.07853
1.07992
1.08143
1.08319
1.08506
1.08729
1.08906
1.09067
0.951887
0.971965
0.986215
0.99867
1.00914
1.01784
1.02496
1.03079
1.03563
1.03971
1.04318
1.04621
1.04885
1.05118
1.05325
1.05512
1.05683
1.05839
1.05985
1.0612
1.06248
1.06371
1.06489
1.06603
1.06714
1.06823
1.06931
1.07042
1.07151
1.07266
1.07384
1.07509
1.07644
1.07794
1.07959
1.08153
1.08366
1.08628
1.08863
1.09084
0.94962
0.968695
0.983049
0.995612
1.00622
1.01505
1.02228
1.02819
1.03308
1.03719
1.04067
1.0437
1.04633
1.04865
1.05072
1.05257
1.05427
1.05583
1.05727
1.05862
1.0599
1.06112
1.06231
1.06345
1.06458
1.06569
1.0668
1.06794
1.06908
1.07028
1.07152
1.07286
1.07429
1.0759
1.07769
1.07981
1.08221
1.08525
1.08825
1.0913
0.947771
0.965728
0.980152
0.992764
1.00345
1.01236
1.01966
1.02563
1.03055
1.03467
1.03816
1.04118
1.0438
1.04612
1.04818
1.05004
1.05173
1.05327
1.05471
1.05605
1.05733
1.05855
1.05974
1.06089
1.06203
1.06316
1.0643
1.06547
1.06665
1.06789
1.0692
1.0706
1.07212
1.07383
1.07574
1.07803
1.08068
1.08412
1.08784
1.09199
0.942125
0.958803
0.973299
0.985919
0.996659
1.00568
1.01306
1.01901
1.02382
1.02782
1.03121
1.03416
1.03675
1.03903
1.04106
1.04288
1.04453
1.04604
1.04743
1.04874
1.04998
1.05118
1.05235
1.05351
1.05466
1.05582
1.05701
1.05824
1.05951
1.06086
1.06229
1.06385
1.06555
1.06748
1.06968
1.07234
1.07558
1.08003
1.08574
1.09358
0.925245
0.941249
0.95523
0.967445
0.977968
0.986962
0.994463
1.00064
1.00576
1.01005
1.01371
1.0169
1.0197
1.02219
1.02441
1.02642
1.02825
1.02995
1.03153
1.03302
1.03445
1.03584
1.0372
1.03854
1.03989
1.04124
1.04262
1.04405
1.04552
1.04707
1.04871
1.05049
1.05242
1.05461
1.05711
1.06015
1.06395
1.06931
1.07648
1.0862
0.908066
0.923344
0.93673
0.948567
0.958883
0.967834
0.975435
0.981817
0.987186
0.99174
0.995657
0.999073
1.00209
1.00478
1.00721
1.00942
1.01146
1.01335
1.01514
1.01684
1.01847
1.02006
1.02163
1.02318
1.02473
1.02629
1.02788
1.0295
1.03119
1.03295
1.0348
1.0368
1.03897
1.0414
1.04419
1.04756
1.05174
1.05758
1.06533
1.07576
0.890447
0.905077
0.917922
0.929434
0.939578
0.948483
0.956151
0.962681
0.968245
0.973013
0.977146
0.980777
0.984005
0.986905
0.989536
0.991949
0.994186
0.996281
0.998267
1.00017
1.00201
1.00381
1.00559
1.00735
1.00911
1.01089
1.01269
1.01454
1.01644
1.01842
1.0205
1.02273
1.02514
1.02782
1.03087
1.0345
1.03894
1.04498
1.05287
1.06352
0.872465
0.886494
0.898839
0.910037
0.920007
0.92885
0.936556
0.943206
0.948941
0.95391
0.958257
0.962104
0.965549
0.968663
0.971507
0.974131
0.976577
0.978881
0.981077
0.983189
0.985243
0.987257
0.989247
0.991227
0.993209
0.995206
0.997229
0.999296
1.00142
1.00362
1.00593
1.00838
1.01101
1.01392
1.01717
1.021
1.02558
1.03167
1.03946
1.05004
0.854048
0.867545
0.879428
0.890322
0.900118
0.908891
0.916621
0.923371
0.929262
0.93442
0.938973
0.943036
0.946699
0.950033
0.953098
0.955942
0.958606
0.961128
0.96354
0.965871
0.968142
0.970375
0.972584
0.974782
0.976984
0.9792
0.981442
0.983726
0.986064
0.988481
0.990995
0.993649
0.996478
0.999568
1.00299
1.00694
1.01159
1.01764
1.02525
1.03566
0.835153
0.848187
0.859654
0.870268
0.879902
0.888608
0.896358
0.903197
0.909229
0.914564
0.919315
0.923587
0.927468
0.931026
0.934316
0.937385
0.940276
0.943023
0.94566
0.948215
0.950709
0.953163
0.955591
0.95801
0.960429
0.96286
0.965315
0.967808
0.97035
0.972965
0.975669
0.978504
0.981501
0.984741
0.988284
0.992324
0.996991
1.00297
1.01038
1.0206
0.815743
0.828384
0.839487
0.849851
0.859342
0.86799
0.875757
0.882676
0.888839
0.894341
0.899282
0.903759
0.907856
0.911638
0.915157
0.918457
0.921579
0.924557
0.927425
0.930208
0.932928
0.935605
0.938255
0.940892
0.943525
0.946166
0.948827
0.951519
0.954254
0.957053
0.959931
0.962926
0.966067
0.969428
0.973064
0.977158
0.981821
0.987702
0.994917
1.00494
0.795797
0.808108
0.8189
0.829046
0.838413
0.847011
0.854795
0.861789
0.868076
0.873737
0.878861
0.883538
0.887849
0.891855
0.895604
0.899138
0.902496
0.90571
0.908812
0.911826
0.914774
0.917676
0.920548
0.923401
0.926245
0.929092
0.931951
0.934833
0.93775
0.94072
0.943757
0.946897
0.950162
0.953626
0.957336
0.961464
0.966105
0.971884
0.978901
0.988715
0.775297
0.787339
0.797867
0.807827
0.817089
0.825648
0.833451
0.840519
0.846923
0.852738
0.85804
0.862914
0.867436
0.871663
0.875643
0.879412
0.883007