/*--------------------------------*- C++ -*----------------------------------*\
  =========                 |
  \\      /  F ield         | OpenFOAM: The Open Source CFD Toolbox
   \\    /   O peration     | Website:  https://openfoam.org
    \\  /    A nd           | Version:  7
     \\/     M anipulation  |
\*---------------------------------------------------------------------------*/
FoamFile
{
    version     2.0;
    format      ascii;
    class       surfaceScalarField;
    location    "2.8";
    object      phi;
}
// * * * * * * * * * * * * * * * * * * * * * * * * * * * * * * * * * * * * * //

dimensions      [0 3 -1 0 0 0 0];

internalField   nonuniform List<scalar> 
63520
(
-1.99094e-05
0.000771347
-0.000751438
-6.68789e-05
0.00203036
-0.00198339
-0.000134565
0.00307805
-0.00301037
-0.000217312
0.00391833
-0.00383558
-0.000309894
0.00457271
-0.00448013
-0.000407378
0.00506709
-0.00496961
-0.000505213
0.00542674
-0.00532891
-0.000599292
0.00567394
-0.00557986
-0.00068599
0.00582765
-0.00574095
-0.000762179
0.00590316
-0.00582697
-0.000825198
0.00591271
-0.0058497
-0.000872836
0.00586607
-0.00581843
-0.000903281
0.00577113
-0.00574069
-0.000915081
0.0056345
-0.0056227
-0.000907103
0.00546196
-0.00546994
-0.000878507
0.0052588
-0.0052874
-0.000828736
0.00503003
-0.0050798
-0.000757486
0.00478041
-0.00485166
-0.000664697
0.00451462
-0.00460741
-0.000550553
0.0042372
-0.00435134
-0.000415465
0.00395253
-0.00408762
-0.000260049
0.00366479
-0.00382021
-8.51317e-05
0.00337794
-0.00355285
0.000108269
0.00309562
-0.00328902
0.000318986
0.00282114
-0.00303186
0.000545718
0.00255743
-0.00278416
0.000787042
0.00230699
-0.00254832
0.00104144
0.00207193
-0.00232633
0.00130736
0.0018539
-0.00211981
0.00158319
0.00165415
-0.00192998
0.00186735
0.00147352
-0.00175768
0.00215826
0.00131249
-0.00160339
0.00245438
0.00117117
-0.00146729
0.00275423
0.00104944
-0.00134929
0.00305641
0.000946928
-0.0012491
0.00335955
0.000863181
-0.00116632
0.00366231
0.000797729
-0.00110049
0.00396331
0.000750172
-0.00105118
0.00426104
0.000722658
-0.00102039
0.000720995
0.00455351
-0.00101347
-1.75641e-05
0.00078891
-5.94352e-05
0.00207223
-0.000120232
0.00313885
-0.000195121
0.00399322
-0.000279415
0.004657
-0.000368572
0.00515625
-0.000458264
0.00551643
-0.00054452
0.0057602
-0.000623758
0.00590688
-0.000692862
0.00597227
-0.000749179
0.00596903
-0.000790477
0.00590737
-0.000814899
0.00579555
-0.000820951
0.00564055
-0.000807467
0.00544847
-0.000773569
0.00522491
-0.000718653
0.00497511
-0.000642393
0.00470415
-0.000544713
0.00441694
-0.000425764
0.00411825
-0.00028594
0.00381271
-0.000125863
0.00350472
5.36483e-05
0.00319843
0.000251592
0.00289768
0.000466786
0.00260595
0.000697904
0.00232631
0.000943506
0.00206139
0.00120207
0.00181337
0.001472
0.00158396
0.0017517
0.00137446
0.00203953
0.00118569
0.0023339
0.00101811
0.00263328
0.000871796
0.00293617
0.000746546
0.00324117
0.000641926
0.00354695
0.000557404
0.0038522
0.000492481
0.00415559
0.000446775
0.0044557
0.000422554
0.000426068
0.00475062
-1.51183e-05
0.000804029
-5.15443e-05
0.00210866
-0.000104967
0.00319227
-0.000171362
0.00405961
-0.00024661
0.00473225
-0.000326583
0.00523622
-0.000407187
0.00559704
-0.000484626
0.00583764
-0.000555393
0.00597765
-0.000616406
0.00603328
-0.000665
0.00601762
-0.000698916
0.00594128
-0.000716285
0.00581292
-0.000715586
0.00563985
-0.000695618
0.00542851
-0.000655479
0.00518477
-0.000594549
0.00491418
-0.000512469
0.00462207
-0.000409137
0.0043136
-0.000284701
0.00399382
-0.00013955
0.00366756
2.57106e-05
0.00333946
0.000210257
0.00301388
0.000413066
0.00269487
0.000632951
0.00238606
0.000868585
0.00209068
0.00111851
0.00181146
0.00138119
0.00155069
0.00165499
0.00131016
0.00193831
0.00109114
0.0022295
0.000894502
0.00252696
0.000720647
0.00282914
0.000569615
0.00313457
0.000441122
0.00344184
0.000334653
0.00374965
0.000249595
0.00405674
0.000185386
0.00436187
0.000141646
0.00466368
0.000120743
0.000129339
0.00496041
-1.25534e-05
0.000816582
-4.32969e-05
0.0021394
-8.89417e-05
0.00323791
-0.000146285
0.00411695
-0.000211797
0.00479776
-0.000281772
0.00530619
-0.000352411
0.00566767
-0.000420081
0.00590531
-0.000481372
0.00603894
-0.000533246
0.00608515
-0.000573063
0.00605744
-0.000598561
0.00596678
-0.00060785
0.00582221
-0.000599387
0.00563139
-0.000571961
0.00540108
-0.000524648
0.00513745
-0.000456803
0.00484634
-0.000368063
0.00453333
-0.000258323
0.00420387
-0.000127716
0.00386321
2.33747e-05
0.00351647
0.000194326
0.0031685
0.00038431
0.0028239
0.000592306
0.00248687
0.000817118
0.00216125
0.0010574
0.0018504
0.00131167
0.00155719
0.00157837
0.00128399
0.00185588
0.00103264
0.00214257
0.000804458
0.00243678
0.000600287
0.00273692
0.000420511
0.00304143
0.000265103
0.00334886
0.000133698
0.00365781
2.56968e-05
0.00396702
-5.96165e-05
0.0042753
-0.000122888
0.00458146
-0.000164517
0.00488428
-0.000182078
-0.000168499
0.00518212
-9.93764e-06
0.00082652
-3.4773e-05
0.00216424
-7.22872e-05
0.00327543
-0.000120072
0.00416474
-0.000175224
0.00485292
-0.000234462
0.00536543
-0.000294293
0.00572751
-0.000351268
0.00596228
-0.00040212
0.00608979
-0.000443869
0.0061269
-0.000473892
0.00608746
-0.000489938
0.00598283
-0.000490123
0.00582239
-0.000472894
0.00561416
-0.000437023
0.00536521
-0.000381585
0.00508202
-0.00030594
0.00477069
-0.000209711
0.0044371
-9.27897e-05
0.00408694
4.46797e-05
0.00372574
0.000202304
0.00335884
0.000379459
0.00299135
0.000575307
0.00262805
0.000788811
0.00227337
0.00101876
0.00193131
0.00126378
0.00160537
0.00152241
0.00129857
0.00179305
0.00101335
0.00207409
0.000751601
0.00236387
0.000514676
0.00266076
0.000303403
0.00296314
0.000118126
0.00326949
-4.12472e-05
0.00357835
-0.000175166
0.00388839
-0.000284335
0.00419835
-0.000369583
0.00450712
-0.000431658
0.00481361
-0.000471002
0.0051167
-0.000485175
-0.000466726
0.00541493
-7.25933e-06
0.000833779
-2.60228e-05
0.002183
-5.51242e-05
0.00330453
-9.29471e-05
0.00420256
-0.000137186
0.00489715
-0.000185009
0.00541325
-0.000233258
0.00577575
-0.00027869
0.00600771
-0.000318175
0.00612928
-0.000348821
0.00615755
-0.000368053
0.0061067
-0.000373644
0.00598842
-0.000363709
0.00581246
-0.000336709
0.00558716
-0.000291426
0.00531992
-0.000226934
0.00501752
-0.000142595
0.00468635
-3.80447e-05
0.00433255
8.68139e-05
0.00396209
0.000231824
0.00358073
0.000396582
0.00319409
0.000580447
0.00280748
0.000782562
0.00242593
0.00100187
0.00205406
0.00123716
0.00169602
0.00148703
0.0013555
0.00175
0.0010356
0.00202448
0.000738866
0.00230885
0.000467239
0.00260144
0.000222085
0.00290062
4.21867e-06
0.00320481
-0.00018606
0.00351248
-0.000348921
0.00382222
-0.000484903
0.00413271
-0.000594828
0.00444277
-0.000679645
0.00475134
-0.000740227
0.00505744
-0.000777095
0.00536008
-0.000787822
-0.000764616
0.00565797
-4.56689e-06
0.000838346
-1.71579e-05
0.00219559
-3.76259e-05
0.003325
-6.51331e-05
0.00423007
-9.79855e-05
0.00493001
-0.000133801
0.00544907
-0.000169753
0.00581171
-0.000202836
0.00604079
-0.000230085
0.00615653
-0.000248708
0.00617617
-0.00025619
0.00611418
-0.000250342
0.00598257
-0.000229311
0.00579143
-0.000191576
0.00554943
-0.00013593
0.00526428
-6.14674e-05
0.00494306
3.24294e-05
0.00459245
0.000146107
0.00421888
0.000279646
0.00382855
0.000432866
0.00342751
0.000605337
0.00302162
0.000796396
0.00261643
0.00100517
0.00221716
0.00123058
0.00182864
0.00147139
0.00145521
0.0017262
0.00110069
0.0019935
0.0007683
0.0022717
0.000460663
0.00255917
0.000179764
0.00285428
-7.3017e-05
0.00315538
-0.000296886
0.00346092
-0.000491602
0.00376941
-0.000657406
0.00407945
-0.000794944
0.00438978
-0.00090516
0.00469928
-0.000989145
0.00500696
-0.00104791
0.00531195
-0.00108208
0.00561344
-0.00108931
-0.00106159
0.00591042
-1.89987e-06
0.000840245
-8.26842e-06
0.00220196
-1.99579e-05
0.00333669
-3.68921e-05
0.004247
-5.79643e-05
0.00495108
-8.12458e-05
0.00547235
-0.000104269
0.00583473
-0.000124278
0.0060608
-0.000138481
0.00617073
-0.000144211
0.0061819
-0.000139036
0.006109
-0.000120823
0.00596436
-8.77579e-05
0.00575836
-3.83538e-05
0.00550002
2.85661e-05
0.00519736
0.000113875
0.00485775
0.000218165
0.00448816
0.000341754
0.00409529
0.000484691
0.00368561
0.000646758
0.00326544
0.000827498
0.00284088
0.00102622
0.0024177
0.00124203
0.00200135
0.00147382
0.00159685
0.00172032
0.00120871
0.00198013
0.000840878
0.00225173
0.0004967
0.00253353
0.000178861
0.00282391
-0.000110609
0.00312122
-0.000370327
0.00342386
-0.000599532
0.0037303
-0.000798044
0.00403909
-0.000966188
0.00434887
-0.00110472
0.00465843
-0.00121472
0.00496672
-0.00129743
0.00527283
-0.00135402
0.00557599
-0.00138524
0.00587554
-0.00138887
-0.00135674
0.00617069
7.22646e-07
0.000839523
5.49693e-07
0.00220213
-2.30014e-06
0.00333954
-8.48703e-06
0.00425319
-1.74786e-05
0.00496007
-2.78011e-05
0.00548267
-3.7347e-05
0.00584427
-4.36303e-05
0.00606709
-4.40552e-05
0.00617115
-3.60952e-05
0.00617394
-1.74201e-05
0.00609033
1.40308e-05
0.00593291
6.00125e-05
0.00571238
0.000121966
0.00543807
0.000201023
0.0051183
0.000298016
0.00476076
0.000413495
0.00437268
0.00054774
0.00396104
0.000700752
0.0035326
0.000872275
0.00309392
0.00106181
0.00265134
0.00126865
0.00221087
0.00149184
0.00177816
0.00173026
0.00135843
0.00198262
0.000956346
0.0022475
0.000576002
0.00252337
0.000220832
0.00280864
-0.000106409
0.00310169
-0.000403659
0.0034009
-0.000669543
0.00370471
-0.000903342
0.00401161
-0.00110494
0.00432019
-0.00127477
0.00462915
-0.00141369
0.00493736
-0.00152293
0.00524381
-0.00160388
0.00554768
-0.00165789
0.00584833
-0.00168588
0.00614524
-0.00168578
-0.00164937
0.00643786
3.26422e-06
0.000836258
9.20389e-06
0.00219619
1.5165e-05
0.00333358
1.98045e-05
0.00424855
2.30956e-05
0.00495678
2.60599e-05
0.00547971
3.04411e-05
0.00583989
3.84421e-05
0.00605909
5.24435e-05
0.00615715
7.48102e-05
0.00615157
0.000107753
0.00605738
0.000153242
0.00588742
0.000212958
0.00565266
0.00028828
0.00536275
0.000380279
0.0050263
0.000489738
0.0046513
0.000617155
0.00424527
0.00076275
0.00381545
0.000926475
0.00336887
0.00110803
0.00291237
0.00130686
0.0024525
0.00152222
0.00199551
0.00175312
0.00154726
0.00199842
0.00111314
0.00225678
0.000697983
0.00252677
0.000306009
0.00280686
-5.92595e-05
0.00309547
-0.000395013
0.00339098
-0.000699169
0.0036918
-0.00097037
0.00399641
-0.00120795
0.00430333
-0.00141187
0.00461122
-0.00158265
0.00491884
-0.00172131
0.00522512
-0.0018292
0.00552913
-0.0019079
0.00583016
-0.00195892
0.00612765
-0.00198337
0.00642127
-0.0019794
-0.00193881
0.00671071
5.69867e-06
0.000830559
1.76039e-05
0.00218429
3.22655e-05
0.00331891
4.77069e-05
0.00423311
6.33747e-05
0.00494111
7.98475e-05
0.00546323
9.85018e-05
0.00582124
0.000121243
0.00603634
0.00015022
0.00612818
0.00018762
0.00611417
0.000235513
0.00600949
0.000295758
0.00582717
0.000369947
0.00557848
0.000459383
0.00527331
0.000565065
0.00492062
0.000687708
0.00452866
0.000827745
0.00410523
0.000985334
0.00365786
0.00116036
0.00319384
0.00135247
0.00272026
0.00156106
0.00224391
0.00178533
0.00177125
0.00202425
0.00130834
0.00227662
0.00086076
0.00254111
0.000433494
0.00281626
3.08637e-05
0.00310052
-0.000343524
0.00339233
-0.000686815
0.00369008
-0.000996922
0.00399223
-0.00127252
0.00429727
-0.00151299
0.0046038
-0.0017184
0.00491054
-0.00188939
0.00521631
-0.00202708
0.00552012
-0.00213302
0.00582115
-0.00220893
0.00611875
-0.00225653
0.0064125
-0.00227712
0.00670222
-0.00226912
-0.00222448
0.00698789
8.00546e-06
0.000822554
2.56648e-05
0.00216663
4.88275e-05
0.00329575
7.4948e-05
0.00420699
0.000102979
0.00491308
0.000133068
0.00543315
0.000166226
0.00578808
0.000204053
0.00599852
0.000248451
0.00608378
0.000301407
0.00606121
0.000364832
0.00594606
0.00044046
0.00575154
0.000529777
0.00548916
0.000633989
0.0051691
0.000754013
0.0048006
0.000890487
0.00439218
0.00104377
0.00395195
0.00121393
0.0034877
0.00140079
0.00300698
0.00160394
0.00251712
0.00182271
0.00202514
0.00205622
0.00153773
0.00230343
0.00106114
0.00256308
0.00060111
0.0028338
0.000162769
0.00311412
-0.00024946
0.0034025
-0.000631903
0.00369737
-0.000981678
0.00399715
-0.00129671
0.00430034
-0.0015757
0.00460547
-0.00181813
0.00491122
-0.00202415
0.00521636
-0.00219453
0.00551982
-0.00233054
0.00582068
-0.00243388
0.0061182
-0.00250645
0.00641186
-0.00255018
0.00670133
-0.0025666
0.00698661
-0.0025544
-0.00250581
0.00726795
1.01606e-05
0.000812393
3.33056e-05
0.00214348
6.46905e-05
0.00326437
0.000101267
0.00417041
0.000141535
0.00487281
0.00018523
0.00538945
0.000233007
0.0057403
0.000286149
0.00594538
0.000346295
0.00602363
0.000415218
0.00599229
0.000494654
0.00586663
0.00058619
0.00566001
0.000691189
0.00538416
0.000810751
0.00504954
0.000945694
0.00466565
0.00109657
0.00424131
0.00126363
0.00378489
0.00144688
0.00330444
0.00164606
0.0028078
0.00186066
0.00230251
0.00208998
0.00179583
0.00233306
0.00129465
0.00258878
0.000805413
0.00285587
0.000334022
0.00313291
-0.000114277
0.00341842
-0.00053497
0.00371085
-0.00092433
0.00400863
-0.00127946
0.00431024
-0.00159831
0.00461419
-0.00187965
0.0049191
-0.00212304
0.00522369
-0.00232874
0.00552682
-0.00249766
0.00582752
-0.00263124
0.00612497
-0.00273132
0.00641853
-0.00280001
0.00670777
-0.00283943
0.0069925
-0.00285133
0.00727286
-0.00283476
-0.00278232
0.00754937
1.21451e-05
0.000800248
4.0455e-05
0.00211517
7.97037e-05
0.00322512
0.000126415
0.0041237
0.000178685
0.00482054
0.000235862
0.00533227
0.000298248
0.00567792
0.000366809
0.00587682
0.000442911
0.00594753
0.000528095
0.00590711
0.000623904
0.00577082
0.000731765
0.00555215
0.0008529
0.00526302
0.000988286
0.00491415
0.00113863
0.0045153
0.00130438
0.00407556
0.0014857
0.00360357
0.00168248
0.00310766
0.00189438
0.0025959
0.00212082
0.00207607
0.002361
0.00155565
0.00261391
0.00104174
0.00287835
0.000540966
0.00315301
5.93622e-05
0.00343645
-0.000397711
0.00372714
-0.000825662
0.00402354
-0.00122073
0.0043241
-0.00158002
0.00462732
-0.00190153
0.00493177
-0.0021841
0.00523613
-0.0024274
0.0055392
-0.00263182
0.00583996
-0.00279841
0.0061375
-0.00292878
0.00643113
-0.00302495
0.00672031
-0.0030892
0.00700473
-0.00312385
0.00728431
-0.00313091
0.00755935
-0.0031098
-0.00305358
0.00783062
1.39417e-05
0.000786306
4.70488e-05
0.00208206
9.37318e-05
0.00317843
0.000150167
0.00406726
0.000214096
0.00475661
0.000284513
0.00526185
0.000361378
0.00560105
0.000445338
0.00579286
0.000537478
0.00585539
0.000639094
0.00580549
0.000751522
0.00565839
0.00087601
0.00542766
0.00101363
0.00512541
0.00116521
0.00476257
0.00133135
0.00434916
0.00151237
0.00389454
0.00170833
0.00340762
0.00191901
0.00289698
0.00214399
0.00237093
0.00238258
0.00183748
0.00263389
0.00130434
0.00289684
0.000778793
0.00317017
0.000267631
0.00345251
-0.000222976
0.00374237
-0.000687571
0.00403822
-0.00112151
0.0043385
-0.00152101
0.00464168
-0.00188321
0.00494631
-0.00220616
0.005251
-0.0024888
0.00555451
-0.00273091
0.00585575
-0.00293305
0.00615377
-0.00309643
0.00644779
-0.00322281
0.00673723
-0.00331439
0.00702168
-0.00337365
0.00730093
-0.0034031
0.00757502
-0.003405
0.00784439
-0.00337917
-0.00331927
0.00811008
1.55368e-05
0.00077077
5.30327e-05
0.00204457
0.000106656
0.00312481
0.000172318
0.0040016
0.000247466
0.00468146
0.00033077
0.00517855
0.000421862
0.00550996
0.000521077
0.00569364
0.000629211
0.00574726
0.000747307
0.0056874
0.000876479
0.00552922
0.00101778
0.00528636
0.00117211
0.00497108
0.00134017
0.00459452
0.00152239
0.00416693
0.00171899
0.00369795
0.00192989
0.00319672
0.00215478
0.00267209
0.00239311
0.0021326
0.0026441
0.00158649
0.00290677
0.00104167
0.00317994
0.000505622
0.00346229
-1.4719e-05
0.00375237
-0.000513061
0.00404867
-0.00098387
0.00434963
-0.00142246
0.00465368
-0.00182506
0.00495932
-0.00218885
0.00526514
-0.00251197
0.00556982
-0.00279348
0.0058722
-0.0030333
0.00617128
-0.00323214
0.00646624
-0.00339138
0.00675642
-0.00351299
0.00704135
-0.00359933
0.00732076
-0.00365305
0.00759454
-0.00367688
0.00786287
-0.00367333
0.00812631
-0.00364261
-0.00357909
0.00838614
1.69199e-05
0.00075385
5.8363e-05
0.00200312
0.000118378
0.00306479
0.000192697
0.00392728
0.000278532
0.00459563
0.000374264
0.00508282
0.000479218
0.005405
0.000593423
0.00557944
0.000717386
0.00562329
0.000851886
0.0055529
0.000997807
0.0053833
0.001156
0.00512817
0.00132717
0.0047999
0.00151186
0.00440982
0.00171038
0.00396842
0.00192277
0.00348555
0.00214884
0.00297064
0.00238817
0.00243276
0.00264007
0.00188069
0.00290366
0.0013229
0.00317785
0.000767483
0.00346137
0.000222101
0.00375282
-0.000306166
0.00405069
-0.000810925
0.0043534
-0.00128658
0.00465938
-0.00172844
0.00496707
-0.00213275
0.005275
-0.00249678
0.00558178
-0.00281876
0.00588619
-0.00309789
0.00618716
-0.00333426
0.00648379
-0.00352877
0.00677539
-0.00368298
0.00706143
-0.00379903
0.00734158
-0.00387948
0.00761568
-0.00392715
0.00788377
-0.00394498
0.00814614
-0.00393569
0.00840347
-0.00389995
-0.00383288
0.00865726
1.80841e-05
0.000735766
6.3008e-05
0.0019582
0.000128823
0.00299898
0.000211167
0.00384494
0.000307076
0.00449972
0.000414683
0.00497521
0.000533029
0.00528666
0.000661846
0.00545062
0.000801355
0.00548378
0.000952068
0.00540218
0.00111463
0.00522074
0.00128967
0.00495313
0.00147771
0.00461186
0.00167911
0.00420842
0.00189402
0.00375351
0.00212235
0.00325723
0.00236375
0.00272923
0.00261767
0.00217884
0.00288331
0.00161506
0.00315964
0.00104656
0.00344547
0.000481657
0.00373942
-7.18502e-05
0.00404
-0.000606747
0.00434563
-0.00111656
0.0046547
-0.00159565
0.00496559
-0.00203933
0.00527676
-0.00244393
0.00558676
-0.00280678
0.00589427
-0.00312627
0.00619814
-0.00340176
0.00649741
-0.00363353
0.00679131
-0.00382267
0.00707927
-0.00397094
0.00736092
-0.00408068
0.00763605
-0.00415461
0.00790465
-0.00419575
0.00816688
-0.00420721
0.00842315
-0.00419196
0.00867427
-0.00415107
-0.00408054
0.00892193
1.90256e-05
0.00071674
6.69481e-05
0.00191028
0.000137938
0.00292799
0.000227627
0.00375525
0.000332932
0.00439441
0.000451779
0.00485636
0.000582953
0.00515549
0.000725902
0.00530767
0.000880568
0.00532912
0.0010472
0.00523555
0.00122618
0.00504176
0.00141793
0.00476138
0.00162276
0.00440702
0.00184086
0.00399032
0.00207219
0.00352218
0.00231652
0.0030129
0.00257334
0.00247241
0.00284196
0.00191023
0.00312142
0.0013356
0.00341058
0.000757406
0.0037081
0.000184132
0.00401251
-0.000376259
0.00432221
-0.000916447
0.00463554
-0.00142989
0.00495085
-0.00191095
0.0052665
-0.00235498
0.00558094
-0.00275837
0.00589278
-0.00311861
0.00620075
-0.00343424
0.0065038
-0.00370481
0.00680109
-0.00393082
0.00709198
-0.00411356
0.00737604
-0.00425501
0.00765305
-0.00435769
0.00792297
-0.00442453
0.00818591
-0.00445869
0.00844218
-0.00446348
0.00869229
-0.00444207
0.00893717
-0.00439595
-0.00432206
0.0091787
1.97444e-05
0.000696996
7.01768e-05
0.00185985
0.000145699
0.00285247
0.000242018
0.00365893
0.000355991
0.00428044
0.000485379
0.00472697
0.000628736
0.00501213
0.000785252
0.00515115
0.000954595
0.00515978
0.00113674
0.0050534
0.00133184
0.00484666
0.00154007
0.00455316
0.00176155
0.00418555
0.00199624
0.00375563
0.00224395
0.00327446
0.00250427
0.00275259
0.00277654
0.00220014
0.00305988
0.00162688
0.00335321
0.00104227
0.00365522
0.000455396
0.00396444
-0.000125092
0.00427927
-0.00069109
0.00459801
-0.00123519
0.00491893
-0.00175081
0.00524031
-0.00223233
0.00556049
-0.00267517
0.00587796
-0.00307584
0.00619134
-0.00343199
0.00649947
-0.00374237
0.0068014
-0.00400674
0.00709641
-0.00422583
0.00738401
-0.00440116
0.00766394
-0.00453493
0.00793612
-0.00462987
0.00820065
-0.00468907
0.00845783
-0.00471587
0.00870808
-0.00471373
0.00895203
-0.00468602
0.00919073
-0.00463465
-0.00455752
0.00942618
2.02444e-05
0.000676751
7.27011e-05
0.00180739
0.000152108
0.00277306
0.000254326
0.00355671
0.000376205
0.00415856
0.000515386
0.00458779
0.000670226
0.00485729
0.000839673
0.00498171
0.00102313
0.00497631
0.00122033
0.00485621
0.00143116
0.00463582
0.00165557
0.00432875
0.00189345
0.00394767
0.00214458
0.0035045
0.00240857
0.00301047
0.00268481
0.00247634
0.00297249
0.00191246
0.00327054
0.00132883
0.00357771
0.000735104
0.00389254
0.000140572
0.00421339
-0.000445951
0.00453855
-0.00101624
0.00486618
-0.00156283
0.00519449
-0.00207911
0.00552169
-0.00255953
0.00584613
-0.00299961
0.0061663
-0.00339602
0.0064809
-0.00374659
0.00678885
-0.00405032
0.00708933
-0.00430721
0.00738175
-0.00451825
0.00766579
-0.0046852
0.00794133
-0.00481048
0.00820849
-0.00489702
0.00846752
-0.0049481
0.00871887
-0.00496722
0.00896309
-0.00495795
0.00920095
-0.00492387
0.00943356
-0.00486727
-0.00478706
0.0096631
2.05331e-05
0.000656218
7.45419e-05
0.00175338
0.000157196
0.00269041
0.000264581
0.00344933
0.000393591
0.00402955
0.000541791
0.00443959
0.000707373
0.00469171
0.000889066
0.00480001
0.00108604
0.00477934
0.00129775
0.00464449
0.00152387
0.00440971
0.00176409
0.00408853
0.00201809
0.00369367
0.00228544
0.00323715
0.00256555
0.00273037
0.0028576
0.00218429
0.00316059
0.00160947
0.00347328
0.00101614
0.00379421
0.000414174
0.00412175
-0.000186964
0.0044541
-0.000778307
0.00478939
-0.00135153
0.00512569
-0.00189912
0.0054611
-0.00241452
0.0057938
-0.00289224
0.00612214
-0.00332794
0.00644463
-0.00371851
0.00676006
-0.00406202
0.00706744
-0.0043577
0.00736609
-0.00460587
0.00765559
-0.00480775
0.00793578
-0.00496539
0.00820672
-0.00508142
0.00846869
-0.00515899
0.00872213
-0.00520154
0.00896762
-0.00521271
0.00920586
-0.00519619
0.00943772
-0.00515573
0.00966443
-0.00509398
-0.00501088
0.00988826
2.06218e-05
0.000635597
7.57342e-05
0.00169827
0.000161023
0.00260512
0.000272858
0.00333749
0.00040823
0.00389418
0.000564671
0.00428315
0.000740236
0.00451614
0.000933466
0.00460678
0.0011433
0.00456951
0.00136897
0.00441882
0.00160989
0.00416879
0.00186552
0.0038329
0.00213532
0.00342387
0.00241863
0.00295383
0.00271465
0.00243436
0.00302235
0.00187658
0.00334052
0.0012913
0.0036677
0.00068896
0.00400224
7.96364e-05
0.0043423
-0.000527027
0.00468593
-0.00112193
0.00503108
-0.00169668
0.00537571
-0.00224376
0.00571784
-0.00275665
0.00605562
-0.00323002
0.0063874
-0.00365972
0.00671175
-0.00404286
0.00702754
-0.0043778
0.00733392
-0.00466408
0.00763035
-0.0049023
0.00791658
-0.00509399
0.00819263
-0.00524144
0.00845876
-0.00534754
0.0087154
-0.00541563
0.00896317
-0.00544931
0.00920281
-0.00545234
0.00943515
-0.00542854
0.00966117
-0.00538175
0.00988219
-0.00531499
-0.00522923
0.0101005
2.05258e-05
0.000615071
7.63262e-05
0.00164247
0.000163674
0.00251777
0.000279277
0.00322189
0.00042027
0.00375319
0.000584187
0.00411923
0.000768985
0.00433134
0.000973041
0.00440273
0.00119509
0.00434746
0.00143413
0.00417978
0.00168934
0.00391358
0.00195996
0.00356228
0.00224521
0.00313863
0.0025442
0.00265485
0.00285589
0.00212267
0.00317903
0.00155343
0.00351218
0.000958154
0.00385365
0.00034749
0.00420157
-0.000268277
0.00455388
-0.000879341
0.00490845
-0.0014765
0.00526307
-0.00205131
0.00561559
-0.00259627
0.00596395
-0.00310502
0.00630629
-0.00357236
0.00664096
-0.0039944
0.00696662
-0.00436853
0.00728225
-0.00469343
0.00758713
-0.00496897
0.00788091
-0.00519607
0.00816351
-0.00537658
0.00843513
-0.00551306
0.00869622
-0.00560864
0.00894742
-0.00566683
0.00918949
-0.00569138
0.00942332
-0.00568617
0.00964988
-0.0056551
0.00987024
-0.00560212
0.0100858
-0.00553055
-0.00544238
0.0102989
2.0264e-05
0.000594807
7.63788e-05
0.00158635
0.000165259
0.00242889
0.000284
0.00310315
0.000429918
0.00360727
0.000600588
0.00394856
0.000793899
0.00413803
0.00100809
0.00418854
0.00124171
0.00411384
0.00149355
0.00392793
0.00176256
0.00364458
0.00204774
0.00327709
0.00234807
0.0028383
0.00266243
0.00234049
0.00298952
0.00179557
0.00332786
0.00121509
0.00367573
0.000610282
0.00403121
-7.98724e-06
0.00439217
-0.000629239
0.00475636
-0.00124353
0.00512142
-0.00184156
0.005485
-0.00241489
0.00584484
-0.00295611
0.00619882
-0.003459
0.00654507
-0.00391861
0.00688199
-0.00433132
0.00720833
-0.00469487
0.00752319
-0.00500829
0.00782605
-0.00527182
0.0081167
-0.00548673
0.00839529
-0.00565517
0.0086622
-0.00577998
0.00891808
-0.00586452
0.00916373
-0.00591248
0.00940009
-0.00592775
0.00962819
-0.00591428
0.00984913
-0.00587603
0.0100641
-0.00581705
0.0102744
-0.00574092
-0.00565062
0.0104827
1.98593e-05
0.000574948
7.59639e-05
0.00153025
0.000165913
0.00233894
0.000287226
0.00298184
0.000437439
0.00345706
0.000614197
0.00377181
0.000815354
0.00393688
0.00103904
0.00396486
0.00128363
0.00386925
0.00154772
0.00366384
0.00183005
0.00336225
0.00212937
0.00297777
0.00244443
0.00252324
0.00277383
0.00201108
0.00311603
0.00145337
0.00346926
0.000861866
0.00383153
0.000248012
0.00420064
-0.0003771
0.00457422
-0.00100282
0.00494977
-0.00161907
0.00532474
-0.00221653
0.00569663
-0.00278678
0.00606308
-0.00332256
0.00642194
-0.00381785
0.00677133
-0.004268
0.00710975
-0.00466973
0.00743605
-0.00502117
0.0077495
-0.00532174
0.00804975
-0.00557207
0.00833681
-0.00577379
0.008611
-0.00592936
0.00887293
-0.00604191
0.00912343
-0.00611501
0.00936347
-0.00615252
0.00959416
-0.00615843
0.00981665
-0.00613677
0.0100321
-0.00609153
0.0102419
-0.00602681
0.0104474
-0.00594643
-0.00585434
0.0106511
1.93383e-05
0.000555609
7.51628e-05
0.00147442
0.000165789
0.00224831
0.00028919
0.00285843
0.000443149
0.0033031
0.00062541
0.00358954
0.000833819
0.00372847
0.00106641
0.00373226
0.00132144
0.00361423
0.00159729
0.00338799
0.00189249
0.00306706
0.00220556
0.0026647
0.00253498
0.00219382
0.00287909
0.00166697
0.00323606
0.00109641
0.00360381
0.000494112
0.00398007
-0.000128246
0.00436234
-0.00075937
0.00474798
-0.00138846
0.00513424
-0.00200534
0.0055184
-0.00260069
0.0058978
-0.00316619
0.00627001
-0.00369477
0.00663286
-0.0041807
0.00698452
-0.00461967
0.00732359
-0.0050088
0.00764907
-0.00534665
0.00796041
-0.00563308
0.00825745
-0.00586911
0.00854041
-0.00605675
0.00880984
-0.00619879
0.00906654
-0.00629861
0.00931152
-0.00635999
0.00954593
-0.00638693
0.00977102
-0.00638352
0.00998806
-0.00635381
0.0101984
-0.00630183
0.0104032
-0.00623169
0.0106042
-0.00614743
-0.00605389
0.0108038
1.87301e-05
0.000536879
7.40652e-05
0.00141909
0.000165057
0.00215732
0.000290154
0.00273334
0.000447406
0.00314585
0.000634679
0.00340227
0.000849838
0.00351331
0.00109085
0.00349125
0.00135583
0.00334925
0.00164301
0.00310081
0.00195068
0.00275939
0.00227714
0.00233825
0.00262057
0.00185038
0.00297904
0.0013085
0.00335039
0.00072506
0.00373223
0.000112269
0.00412196
-0.000517978
0.00451679
-0.0011542
0.00491378
-0.00178545
0.00530996
-0.00240152
0.00570241
-0.00299314
0.00608837
-0.00355215
0.00646535
-0.00407174
0.00683118
-0.00454654
0.00718414
-0.00497262
0.00752293
-0.00534759
0.00784675
-0.00567047
0.00815524
-0.00594157
0.00844845
-0.00616233
0.00872684
-0.00633514
0.00899116
-0.00646311
0.00924241
-0.00654986
0.00948178
-0.00659936
0.00971058
-0.00661573
0.00993017
-0.00660311
0.010142
-0.00656559
0.0103473
-0.00650718
0.0105476
-0.00643201
0.0107445
-0.00634426
-0.00624965
0.0109402
1.80656e-05
0.000518813
7.27665e-05
0.00136439
0.000163901
0.00206619
0.000290401
0.00260684
0.000450598
0.00298565
0.000642501
0.00321037
0.000864011
0.0032918
0.00111305
0.00324221
0.00138761
0.00307469
0.00168575
0.00280267
0.00200555
0.00243959
0.00234504
0.00199876
0.00270214
0.00149328
0.00307458
0.000936061
0.00345986
0.000339775
0.00385527
-0.000283136
0.00425785
-0.000920557
0.00466448
-0.00156083
0.00507197
-0.00219294
0.00547711
-0.00280666
0.0058768
-0.00339283
0.00626821
-0.00394356
0.00664881
-0.00445235
0.00701651
-0.00491424
0.00736969
-0.0053258
0.00770722
-0.00568513
0.00802849
-0.00599174
0.00833338
-0.00624645
0.00862216
-0.00645112
0.00889552
-0.0066085
0.00915442
-0.00672201
0.00940005
-0.00679549
0.00963377
-0.00683308
0.00985703
-0.00683898
0.0100713
-0.00681738
0.0102781
-0.00677236
0.0104788
-0.00670789
0.0106749
-0.0066281
0.0108679
-0.00653732
-0.00644203
0.0110603
1.73761e-05
0.000501437
7.13658e-05
0.0013104
0.000162512
0.00197504
0.000290227
0.00247912
0.000453136
0.00282274
0.000649401
0.0030141
0.000876977
0.00306422
0.00113374
0.00298544
0.00141759
0.00279084
0.0017264
0.00249386
0.00205803
0.00210795
0.00241025
0.00164654
0.00278065
0.00112288
0.00316663
0.000550081
0.00356533
-5.89268e-05
0.00397366
-0.000691467
0.00438832
-0.00133522
0.00480587
-0.00197838
0.00522283
-0.00260989
0.00563578
-0.00321961
0.00604151
-0.00379856
0.00643711
-0.00433915
0.00682008
-0.00483532
0.00718843
-0.00528259
0.00754068
-0.00567805
0.00787592
-0.00602037
0.00819376
-0.00630958
0.0084943
-0.00654699
0.00877809
-0.0067349
0.00904601
-0.00687642
0.00929923
-0.00697523
0.00953914
-0.0070354
0.00976723
-0.00706117
0.00998506
-0.00705682
0.0101942
-0.00702654
0.0103962
-0.00697438
0.0105926
-0.00690427
0.0107848
-0.00682033
0.0109745
-0.00672698
-0.00663149
0.011164
1.66928e-05
0.000484744
6.99626e-05
0.00125713
0.000161081
0.00188392
0.000289933
0.00235027
0.000455436
0.00265724
0.000655918
0.00281362
0.000889391
0.00283075
0.0011537
0.00272113
0.00144663
0.00249792
0.00176589
0.0021746
0.0021091
0.00176474
0.00247374
0.00128191
0.00285706
0.000739557
0.00325609
0.00015105
0.00366759
-0.000470428
0.00408808
-0.00111196
0.00451391
-0.00176104
0.00494131
-0.00240578
0.00536654
-0.00303513
0.00578601
-0.00363908
0.0061964
-0.00420895
0.00659481
-0.00473756
0.00697879
-0.00521931
0.0073465
-0.00565029
0.00769665
-0.0060282
0.00802855
-0.00635227
0.00834207
-0.0066231
0.00863757
-0.00684249
0.00891583
-0.00701316
0.00917796
-0.00713855
0.00942533
-0.0072226
0.00965947
-0.00726954
0.00988201
-0.00728371
0.0100946
-0.00726942
0.0102989
-0.00723084
0.0104965
-0.00717196
0.0106889
-0.00709666
0.0108776
-0.00700901
0.0110641
-0.00691356
-0.00681831
0.011251
1.60464e-05
0.000468697
6.86549e-05
0.00120452
0.000159796
0.00179278
0.000289813
0.00222025
0.000457912
0.00248914
0.000662583
0.00260895
0.000901897
0.00259144
0.00117367
0.00244936
0.00147557
0.00219602
0.00180511
0.00184505
0.00215968
0.00141018
0.00253642
0.000905171
0.00293223
0.000343748
0.00334374
-0.000260461
0.00376731
-0.000893995
0.00419906
-0.00154371
0.00463497
-0.00219695
0.00507098
-0.0028418
0.00550313
-0.00346727
0.00592766
-0.00406362
0.00634123
-0.00462252
0.00674095
-0.00513728
0.00712451
-0.00560288
0.00749025