/*--------------------------------*- C++ -*----------------------------------*\
  =========                 |
  \\      /  F ield         | OpenFOAM: The Open Source CFD Toolbox
   \\    /   O peration     | Website:  https://openfoam.org
    \\  /    A nd           | Version:  7
     \\/     M anipulation  |
\*---------------------------------------------------------------------------*/
FoamFile
{
    version     2.0;
    format      ascii;
    class       volVectorField;
    location    "2.8";
    object      U;
}
// * * * * * * * * * * * * * * * * * * * * * * * * * * * * * * * * * * * * * //

dimensions      [0 1 -1 0 0 0 0];

internalField   nonuniform List<vector> 
32000
(
(-0.000946216 0.0304486 -9.07327e-22)
(-0.00447088 0.0802434 0)
(-0.0102424 0.121702 -8.08057e-21)
(-0.0168672 0.154961 0)
(-0.0239276 0.180879 8.41998e-21)
(-0.0309562 0.200491 0)
(-0.0375983 0.214806 8.70863e-21)
(-0.043579 0.224709 -6.62177e-21)
(-0.0486965 0.230953 2.82131e-24)
(-0.0528101 0.23414 2.94377e-24)
(-0.0558302 0.234753 -2.28663e-21)
(-0.0577043 0.233173 9.22073e-21)
(-0.0584124 0.229709 0)
(-0.0579638 0.224618 -2.34375e-21)
(-0.0563855 0.218124 2.35349e-21)
(-0.0537179 0.210434 0)
(-0.0500135 0.20174 1.18733e-20)
(-0.0453333 0.192229 -2.38349e-21)
(-0.0397448 0.182081 0)
(-0.0333222 0.171472 4.80204e-21)
(-0.0261432 0.160573 4.79155e-21)
(-0.0182887 0.149546 0)
(-0.00984313 0.138543 0)
(-0.0008928 0.127707 0)
(0.0084765 0.117164 0)
(0.0181802 0.10703 0)
(0.0281359 0.0974004 0)
(0.0382637 0.0883571 0)
(0.0484871 0.0799645 -9.55702e-21)
(0.0587341 0.0722715 0)
(0.068938 0.0653111 9.51056e-21)
(0.0790376 0.0591015 0)
(0.0889777 0.0536485 0)
(0.0987105 0.0489471 0)
(0.108194 0.0449842 -9.38113e-21)
(0.117388 0.041742 -4.68509e-21)
(0.126257 0.0392021 1.3985e-20)
(0.134788 0.0373477 -1.22558e-23)
(0.142975 0.0362617 9.23837e-21)
(0.150553 0.0361652 -1.53584e-23)
(-0.00148881 0.0312011 0)
(-0.00568112 0.0819938 1.57371e-20)
(-0.0117257 0.124137 4.04302e-21)
(-0.0184046 0.157853 -2.14519e-24)
(-0.0253656 0.184022 -4.21508e-21)
(-0.0321998 0.203697 0)
(-0.0385912 0.217905 8.66554e-21)
(-0.0442892 0.227552 -8.78992e-21)
(-0.0491059 0.233412 0)
(-0.0529103 0.236112 -1.80502e-20)
(-0.0556173 0.236151 0)
(-0.0571763 0.233932 -2.76067e-20)
(-0.0575688 0.229778 0)
(-0.0568028 0.223961 0)
(-0.0549047 0.216717 9.39888e-21)
(-0.0519153 0.208264 -9.42921e-21)
(-0.0478873 0.198804 -9.49239e-21)
(-0.0428817 0.188532 0)
(-0.0369681 0.177639 2.85797e-20)
(-0.0302224 0.166309 -9.54626e-21)
(-0.0227234 0.154719 -8.29212e-24)
(-0.0145546 0.143038 -2.8696e-20)
(-0.00580364 0.131427 -1.91352e-20)
(0.00344203 0.120031 -9.60016e-21)
(0.0130946 0.108985 2.8706e-20)
(0.0230659 0.0984049 -2.87076e-20)
(0.0332703 0.0883922 2.87168e-20)
(0.0436266 0.0790294 -3.81525e-20)
(0.0540574 0.0703823 -9.47358e-21)
(0.0644889 0.062499 6.25544e-23)
(0.0748526 0.0554111 -2.84073e-20)
(0.0850869 0.049135 -1.89036e-20)
(0.0951373 0.0436736 3.77005e-20)
(0.104956 0.0390189 -3.75289e-20)
(0.1145 0.0351537 -9.29973e-21)
(0.123733 0.0320568 -3.72631e-20)
(0.132621 0.0297087 2.46072e-23)
(0.14115 0.0280933 9.23218e-21)
(0.14932 0.0272989 -3.67164e-20)
(0.156868 0.0275596 -5.1695e-20)
(-0.00205224 0.0318108 -3.60798e-21)
(-0.00692367 0.083409 -7.8764e-21)
(-0.0132292 0.126172 -3.61791e-20)
(-0.0199346 0.160328 0)
(-0.0267544 0.186759 4.1958e-21)
(-0.0333417 0.206524 -4.26722e-21)
(-0.0394203 0.220662 -5.20317e-20)
(-0.0447674 0.230095 1.76219e-20)
(-0.0492117 0.235614 -8.91768e-21)
(-0.0526353 0.237865 5.40452e-20)
(-0.0549566 0.237368 1.82046e-20)
(-0.0561267 0.234543 9.21162e-21)
(-0.0561295 0.229729 -3.69417e-20)
(-0.0549748 0.223213 0)
(-0.0526885 0.215244 0)
(-0.0493113 0.206049 1.88255e-20)
(-0.0448981 0.195843 3.18127e-23)
(-0.0395112 0.184829 -1.89311e-20)
(-0.0332202 0.173208 -1.90341e-20)
(-0.0261034 0.16117 -3.79985e-20)
(-0.0182435 0.148903 5.71395e-20)
(-0.00972531 0.136582 5.93985e-23)
(-0.000638076 0.124374 1.89825e-23)
(0.00892679 0.112431 1.90745e-20)
(0.0188785 0.100893 -3.82419e-20)
(0.0291271 0.0898795 7.62345e-20)
(0.0395852 0.0794951 0)
(0.0501696 0.0698247 1.9066e-20)
(0.0608006 0.0609346 1.90298e-20)
(0.0714034 0.0528724 3.79524e-20)
(0.0819094 0.0456682 6.2392e-23)
(0.0922572 0.0393368 0)
(0.102392 0.033878 1.87739e-20)
(0.112267 0.0292797 -1.86336e-20)
(0.12184 0.0255208 -1.85153e-20)
(0.131077 0.0225771 5.57592e-20)
(0.139947 0.0204256 -5.52874e-20)
(0.148436 0.0190507 3.68177e-20)
(0.156548 0.0185462 -5.4765e-20)
(0.164025 0.0191572 2.04889e-20)
(-0.0026317 0.0323373 2.8756e-20)
(-0.00819506 0.0846617 -3.13144e-20)
(-0.0147526 0.127973 6.42292e-20)
(-0.0214618 0.16253 0)
(-0.0281026 0.189208 2.50587e-20)
(-0.0343928 0.209068 4.25423e-20)
(-0.0400999 0.22315 8.74324e-21)
(-0.0450311 0.232392 8.99379e-24)
(-0.0490344 0.237594 2.66283e-20)
(-0.0520024 0.239424 -9.08948e-21)
(-0.0538617 0.23842 4.53305e-20)
(-0.0545691 0.235017 -5.48815e-20)
(-0.0541098 0.229572 5.53739e-20)
(-0.0524945 0.222383 -1.85708e-20)
(-0.0497511 0.213713 1.86481e-20)
(-0.0459217 0.203801 -3.7425e-20)
(-0.0410612 0.192871 -5.63977e-20)
(-0.0352343 0.181137 1.88614e-20)
(-0.0285136 0.168808 -1.89412e-20)
(-0.0209794 0.156083 5.69412e-20)
(-0.0127165 0.143157 -3.80527e-20)
(-0.00381319 0.130214 -3.79267e-20)
(0.00563831 0.117427 0)
(0.0155446 0.104953 0)
(0.0258123 0.0929388 -3.79239e-20)
(0.0363487 0.0815078 -3.80642e-20)
(0.0470639 0.070767 -3.78486e-20)
(0.0578731 0.0608035 0)
(0.0686959 0.0516843 0)
(0.0794566 0.0434568 -7.5392e-20)
(0.0900866 0.03615 -8.08707e-23)
(0.100525 0.029776 3.75944e-20)
(0.110717 0.0243312 -3.73498e-20)
(0.120617 0.0197997 -3.72904e-20)
(0.130186 0.0161563 3.72439e-20)
(0.139392 0.0133722 0)
(0.148204 0.0114215 3.68783e-20)
(0.156614 0.0102883 -7.31963e-20)
(0.164629 0.0100693 7.29464e-20)
(0.171994 0.0110221 -8.17319e-20)
(-0.00322066 0.0327268 -1.43986e-20)
(-0.00948099 0.0856179 2.34941e-20)
(-0.016281 0.129399 -3.2074e-20)
(-0.0229716 0.164321 0)
(-0.0293995 0.191242 -4.17801e-20)
(-0.0353489 0.211213 -2.5535e-20)
(-0.0406305 0.22527 3.4574e-20)
(-0.0450841 0.234357 0)
(-0.0485798 0.239285 -5.32544e-20)
(-0.0510234 0.240736 -1.79866e-20)
(-0.0523501 0.239265 -1.81459e-20)
(-0.0525216 0.235324 3.65793e-20)
(-0.0515278 0.229283 -3.67732e-20)
(-0.0493822 0.221456 1.84907e-20)
(-0.0461136 0.212118 0)
(-0.0417656 0.20152 5.61157e-20)
(-0.0363966 0.189896 1.88291e-20)
(-0.0300732 0.17747 -3.7638e-20)
(-0.0228704 0.164459 7.53984e-20)
(-0.0148715 0.151072 -7.55346e-20)
(-0.00616495 0.137511 7.5515e-20)
(0.00315812 0.123968 3.79258e-20)
(0.0130031 0.110623 0)
(0.0232734 0.0976406 3.78958e-20)
(0.0338723 0.0851702 1.26638e-22)
(0.0447049 0.0733407 0)
(0.0556797 0.062262 3.78478e-20)
(0.0667105 0.0520234 -3.77449e-20)
(0.0777156 0.0426924 3.75876e-20)
(0.0886193 0.0343159 7.52174e-20)
(0.0993534 0.0269217 -7.48936e-20)
(0.109857 0.0205192 7.47218e-20)
(0.120079 0.0151012 0)
(0.129972 0.0106473 0)
(0.139503 0.00712842 7.3885e-20)
(0.14864 0.00451081 0)
(0.157357 0.00276459 0)
(0.165648 0.00187248 -7.28092e-20)
(0.173524 0.00193343 7.2507e-20)
(0.180736 0.00321741 4.07028e-20)
(-0.0038143 0.0330103 7.15921e-21)
(-0.0107725 0.0863377 0)
(-0.0178058 0.130509 6.38226e-20)
(-0.0244614 0.165753 8.167e-21)
(-0.0306476 0.192904 8.33678e-21)
(-0.0362146 0.212993 5.07764e-20)
(-0.0410213 0.227046 6.88036e-20)
(-0.044941 0.236006 0)
(-0.0478656 0.240694 1.7694e-20)
(-0.0497167 0.241803 5.35531e-20)
(-0.0504405 0.239902 7.21048e-20)
(-0.0500058 0.235459 -1.82078e-20)
(-0.0484069 0.22886 -5.48817e-20)
(-0.0456606 0.220432 0)
(-0.0417991 0.210461 7.40091e-20)
(-0.0368689 0.19921 0)
(-0.0309303 0.186925 1.11954e-19)
(-0.0240535 0.173838 -3.74386e-20)
(-0.0163173 0.160175 0)
(-0.00780833 0.146156 -3.76409e-20)
(0.00138209 0.131988 -1.11856e-22)
(0.0111595 0.117874 -3.74774e-20)
(0.0214255 0.103998 -3.76524e-20)
(0.0320802 0.090533 3.77233e-20)
(0.0430244 0.0776314 -3.76244e-20)
(0.0541609 0.0654271 0)
(0.0653967 0.0540334 -3.76281e-20)
(0.0766441 0.043541 3.74842e-20)
(0.0878207 0.0340182 0)
(0.0988514 0.0255116 0)
(0.109669 0.0180472 0)
(0.120213 0.0116315 -7.44049e-20)
(0.130434 0.00625354 7.40111e-20)
(0.140289 0.00188896 0)
(0.149746 -0.00149638 -3.68573e-20)
(0.158777 -0.00394094 0)
(0.167361 -0.00547974 7.29813e-20)
(0.175492 -0.00613223 -3.61487e-20)
(0.183189 -0.00579801 -7.22788e-20)
(0.19021 -0.0041963 8.06499e-20)
(-0.00440643 0.0331736 4.98948e-20)
(-0.01206 0.0867936 -6.9919e-20)
(-0.019319 0.131267 -1.19514e-19)
(-0.0259222 0.166787 -6.50649e-20)
(-0.0318401 0.194152 -1.66184e-20)
(-0.0369904 0.214365 -3.39013e-20)
(-0.0412777 0.228434 -1.54603e-19)
(-0.0446093 0.237299 -5.21713e-20)
(-0.0469037 0.241785 -8.80988e-20)
(-0.0480991 0.242592 -8.92631e-20)
(-0.0481533 0.240304 -1.26008e-19)
(-0.0470437 0.235403 -7.24775e-20)
(-0.0447713 0.228287 2.26991e-22)
(-0.0413575 0.219297 -7.33987e-20)
(-0.0368378 0.208734 -7.40073e-20)
(-0.0312622 0.19687 -1.11162e-19)
(-0.0246951 0.18396 7.41573e-20)
(-0.0172106 0.170249 -3.72954e-20)
(-0.00889146 0.155972 0)
(0.000172395 0.141354 7.4747e-20)
(0.00988572 0.126614 0)
(0.0201499 0.111961 1.50049e-19)
(0.0308628 0.0975868 0)
(0.0419215 0.0836685 -3.755e-20)
(0.0532238 0.0703649 3.77053e-20)
(0.0646705 0.0578137 -7.48319e-20)
(0.0761672 0.0461311 0)
(0.0876251 0.0354098 -7.47824e-20)
(0.0989616 0.0257183 7.44707e-20)
(0.110102 0.0171027 0)
(0.120981 0.00958704 0)
(0.13154 0.00317464 0)
(0.14173 -0.00214902 -7.3566e-20)
(0.151514 -0.00641242 0)
(0.160861 -0.00965507 -7.32678e-20)
(0.16975 -0.0119208 1.45798e-19)
(0.178161 -0.01325 -1.4516e-19)
(0.186094 -0.0136654 7.19611e-20)
(0.193574 -0.013067 1.43782e-19)
(0.200368 -0.0111659 -8.01268e-20)
(-0.00499279 0.0332204 -6.41526e-20)
(-0.0133349 0.0869849 1.62729e-22)
(-0.0208108 0.131672 6.36577e-20)
(-0.0273487 0.167418 1.29964e-19)
(-0.0329769 0.194976 -1.65769e-20)
(-0.0376787 0.215314 -6.73965e-20)
(-0.0414061 0.229419 6.86142e-20)
(-0.044102 0.238219 1.04354e-19)
(-0.0457115 0.242538 3.52797e-20)
(-0.046191 0.243085 8.88116e-20)
(-0.0455124 0.240453 7.18968e-20)
(-0.0436635 0.235137 1.08544e-19)
(-0.0406524 0.227548 2.18581e-19)
(-0.0365061 0.218042 1.09927e-19)
(-0.031265 0.206929 0)
(-0.0249841 0.194495 3.70758e-20)
(-0.017732 0.181004 3.6784e-20)
(-0.00958736 0.16671 3.70051e-20)
(-0.000637253 0.151857 7.44871e-20)
(0.00902405 0.136682 -3.75834e-20)
(0.0192971 0.121409 0)
(0.0300787 0.106254 -3.30516e-22)
(0.041263 0.0914174 -7.453e-20)
(0.0527433 0.077081 7.45073e-20)
(0.0644151 0.0634086 1.49265e-19)
(0.0761771 0.0505422 1.49028e-19)
(0.0879335 0.0386009 -9.4711e-23)
(0.0995947 0.0276785 7.41677e-20)
(0.111078 0.0178442 7.40227e-20)
(0.122311 0.00914293 -7.38547e-20)
(0.133228 0.00159661 7.36641e-20)
(0.143774 -0.00479445 7.34511e-20)
(0.153904 -0.0100483 1.46781e-19)
(0.163584 -0.0141985 -2.4399e-22)
(0.172787 -0.0172893 2.1839e-19)
(0.181497 -0.0193707 -1.04269e-22)
(0.189697 -0.0204886 -7.20703e-20)
(0.197393 -0.0206704 -7.20756e-20)
(0.204616 -0.0198182 7.13885e-20)
(0.211142 -0.0176381 7.94668e-20)
(-0.00556774 0.0331515 5.67146e-20)
(-0.0145877 0.0869135 7.74532e-20)
(-0.0222732 0.13172 4.74825e-20)
(-0.028735 0.167636 -4.86884e-20)
(-0.0340562 0.195362 -8.25519e-20)
(-0.0382833 0.215824 6.73807e-20)
(-0.041416 0.22998 0)
(-0.043433 0.238741 6.92429e-20)
(-0.0443072 0.24293 0)
(-0.0440159 0.243258 -1.41873e-19)
(-0.0425458 0.240327 3.58018e-20)
(-0.0398966 0.234641 -1.80375e-19)
(-0.036085 0.226628 -7.27454e-20)
(-0.0311449 0.216652 3.62904e-20)
(-0.0251229 0.205037 1.83391e-23)
(-0.0180793 0.192079 -3.68159e-20)
(-0.0100883 0.178053 -7.40132e-20)
(-0.00123371 0.163222 -1.48101e-19)
(0.00839262 0.14784 0)
(0.0186916 0.13215 -1.0818e-22)
(0.0295589 0.116387 -7.42836e-20)
(0.0408866 0.100774 -7.45246e-20)
(0.0525644 0.0855146 7.45281e-20)
(0.0644825 0.0707991 -7.47471e-20)
(0.0765334 0.0567956 7.41151e-20)
(0.0886142 0.0436499 -1.48518e-19)
(0.100628 0.0314833 -9.49522e-23)
(0.112484 0.0203909 -1.48074e-19)
(0.124101 0.010442 -7.4021e-20)
(0.135406 0.00168054 9.52884e-23)
(0.146338 -0.00587394 -2.56728e-22)
(0.156845 -0.0122243 -7.34495e-20)
(0.166885 -0.0173924 -7.32147e-20)
(0.176427 -0.0214165 -3.46194e-22)
(0.185452 -0.0243465 -7.26816e-20)
(0.193947 -0.026238 -3.42628e-22)
(0.2019 -0.0271434 -7.18464e-20)
(0.209322 -0.0270954 2.1441e-19)
(0.216251 -0.0259994 -7.13872e-20)
(0.222475 -0.0235586 -7.9313e-20)
(-0.00612606 0.0329705 -5.67178e-20)
(-0.0158089 0.086582 1.54287e-20)
(-0.023698 0.13141 -4.75122e-20)
(-0.0300761 0.167436 -1.61574e-20)
(-0.0350769 0.195301 6.60297e-20)
(-0.0388085 0.21588 -1.67891e-20)
(-0.0413169 0.230097 1.70422e-20)
(-0.0426172 0.238846 -1.03828e-19)
(-0.0427115 0.24294 3.49898e-20)
(-0.0415992 0.243089 7.08388e-20)
(-0.0392839 0.239902 0)
(-0.0357779 0.233896 1.43879e-19)
(-0.0311082 0.225506 0)
(-0.0253169 0.21511 -1.45603e-19)
(-0.018458 0.203043 -7.30034e-20)
(-0.0105982 0.189612 0)
(-0.00181777 0.175101 0)
(0.0077935 0.159783 1.47526e-19)
(0.0181384 0.14392 7.3917e-20)
(0.0291126 0.127765 -1.47932e-19)
(0.0406061 0.11156 7.39676e-20)
(0.0525058 0.0955338 0)
(0.0646972 0.0798977 -7.40891e-20)
(0.077067 0.0648466 1.47656e-19)
(0.0895051 0.0505537 -7.38693e-20)
(0.101907 0.037168 -7.39384e-20)
(0.114173 0.0248128 7.3683e-20)
(0.126215 0.0135844 0)
(0.13795 0.00355189 1.4689e-19)
(0.149309 -0.00524216 -7.3243e-20)
(0.160233 -0.0127807 -7.32141e-20)
(0.170673 -0.0190696 -1.55881e-22)
(0.180592 -0.0241353 2.90664e-19)
(0.189966 -0.0280204 -2.17339e-19)
(0.198778 -0.0307805 0)
(0.207023 -0.0324771 -7.20407e-20)
(0.214695 -0.0331692 -1.4323e-19)
(0.221807 -0.0328958 7.09379e-20)
(0.228408 -0.0315669 7.07103e-20)
(0.234299 -0.0288854 0)
(-0.00666332 0.0326822 -1.12793e-19)
(-0.01699 0.0859954 -1.5387e-20)
(-0.0250769 0.130745 1.26015e-19)
(-0.0313666 0.166817 -1.28824e-19)
(-0.0360388 0.194785 0)
(-0.039259 0.215469 0)
(-0.0411188 0.229756 -3.40246e-20)
(-0.0416704 0.238514 -2.07099e-23)
(-0.0409461 0.242544 3.48996e-20)
(-0.0389683 0.242554 0)
(-0.0357588 0.239157 0)
(-0.0313446 0.232878 -3.59668e-20)
(-0.0257642 0.224162 3.75052e-24)
(-0.0190691 0.213398 3.64013e-20)
(-0.0113214 0.200932 7.30017e-20)
(-0.00259568 0.187081 0)
(0.00702054 0.172138 7.33462e-20)
(0.0174315 0.156386 -7.35776e-20)
(0.0285342 0.140096 -1.47176e-19)
(0.0402179 0.123529 1.47318e-19)
(0.0523664 0.106933 8.54367e-23)
(0.0648613 0.0905442 -7.366e-20)
(0.077584 0.0745802 7.37549e-20)
(0.0904175 0.0592411 -1.47421e-19)
(0.103249 0.044704 0)
(0.115971 0.031121 7.35915e-20)
(0.128485 0.0186173 -1.46828e-19)
(0.140701 0.00728969 7.32098e-20)
(0.152539 -0.00279299 -7.33159e-20)
(0.163932 -0.0115899 -7.30545e-20)
(0.174823 -0.0190866 -7.30231e-20)
(0.185169 -0.0252926 2.90299e-19)
(0.194939 -0.0302383 -2.17053e-19)
(0.204112 -0.0339713 -1.44324e-19)
(0.21268 -0.0365525 1.43498e-19)
(0.220642 -0.0380497 0)
(0.227999 -0.0385285 1.42546e-19)
(0.234768 -0.0380346 -1.41653e-19)
(0.24101 -0.0364845 -7.0709e-20)
(0.246541 -0.0335838 0)
(-0.00717515 0.0322917 2.3937e-19)
(-0.0181225 0.0851624 1.07316e-19)
(-0.0264024 0.129732 -1.26014e-19)
(-0.0326019 0.16578 1.12733e-19)
(-0.036941 0.193811 -1.64272e-20)
(-0.0396389 0.214583 3.33835e-20)
(-0.040832 0.228941 0)
(-0.0406091 0.237726 -3.44095e-20)
(-0.0390331 0.241721 3.48104e-20)
(-0.0361511 0.24163 3.51845e-20)
(-0.0320046 0.238068 -3.54922e-20)
(-0.0266363 0.231564 -3.57601e-20)
(-0.0200975 0.222573 3.59844e-20)
(-0.0124506 0.211495 0)
(-0.0037674 0.198685 0)
(0.00586913 0.184469 -7.28844e-20)
(0.0163637 0.169151 7.30561e-20)
(0.0276137 0.153021 -7.3217e-20)
(0.0395093 0.136361 7.32763e-20)
(0.0519331 0.119437 7.33882e-20)
(0.0647623 0.102506 -1.46777e-19)
(0.0778728 0.0858089 1.46785e-19)
(0.0911417 0.0695699 1.08419e-22)
(0.104448 0.0539936 -7.32679e-20)
(0.117676 0.0392611 0)
(0.130718 0.0255268 7.32495e-20)
(0.143472 0.0129174 1.49992e-22)
(0.15585 0.00153021 -7.28669e-20)
(0.167774 -0.00856684 0)
(0.179179 -0.017335 1.45416e-19)
(0.190014 -0.0247627 -1.44723e-19)
(0.20024 -0.0308631 0)
(0.209831 -0.0356707 1.44146e-19)
(0.218774 -0.0392383 -1.43351e-19)
(0.227066 -0.041632 0)
(0.234713 -0.0429256 0)
(0.241725 -0.0431915 0)
(0.248123 -0.0424828 -1.41201e-19)
(0.253976 -0.0407236 1.40295e-19)
(0.259123 -0.0376256 1.55155e-19)
(-0.00765799 0.0318059 -1.12486e-19)
(-0.0191993 0.0840939 -1.22661e-19)
(-0.0276674 0.12838 -1.56992e-20)
(-0.033777 0.164331 4.81365e-20)
(-0.0377825 0.192378 -6.54593e-20)
(-0.0399526 0.213215 6.66311e-20)
(-0.040466 0.227642 -6.76871e-20)
(-0.0394488 0.236465 -1.0279e-19)
(-0.0369946 0.240451 0)
(-0.033176 0.240295 -3.50906e-20)
(-0.0280552 0.236609 3.53974e-20)
(-0.0216927 0.229929 0)
(-0.014154 0.220716 7.17486e-20)
(-0.00551292 0.209378 -7.21199e-20)
(0.00414781 0.19628 -2.16979e-19)
(0.0147353 0.181757 2.26786e-24)
(0.0261461 0.166122 1.45611e-19)
(0.0382701 0.149675 -7.29214e-20)
(0.0509899 0.132703 0)
(0.0641805 0.115483 0)
(0.0777124 0.0982742 1.45869e-19)
(0.0914559 0.081326 7.31236e-20)
(0.105283 0.064868 -7.30029e-20)
(0.119069 0.0491088 -7.30621e-20)
(0.132696 0.0342325 1.45869e-19)
(0.146052 0.0203958 -7.27756e-20)
(0.159037 0.00772655 1.45617e-19)
(0.171564 -0.00367814 -2.90424e-19)
(0.183556 -0.0137518 2.8983e-19)
(0.194953 -0.022458 -2.89155e-19)
(0.205707 -0.0297882 2.88398e-19)
(0.215786 -0.0357594 -2.87557e-19)
(0.22517 -0.0404105 1.4317e-19)
(0.233853 -0.0437991 1.42956e-19)
(0.24184 -0.0459968 2.69264e-22)
(0.249145 -0.0470831 2.53316e-22)
(0.255782 -0.0471372 -1.40952e-19)
(0.261781 -0.0462197 4.40037e-22)
(0.267222 -0.0442639 -1.39624e-19)
(0.271963 -0.0409908 0)
(-0.00810869 0.0312321 1.40035e-20)
(-0.0202137 0.0828026 -1.52801e-20)
(-0.0288654 0.126702 4.69669e-20)
(-0.0348874 0.162479 -6.40143e-20)
(-0.0385621 0.190489 3.26348e-20)
(-0.0402032 0.211363 0)
(-0.04003 0.225849 0)
(-0.0382045 0.234719 1.37093e-19)
(-0.0348514 0.238717 1.73047e-19)
(-0.03007 0.238527 -3.49967e-20)
(-0.0239444 0.234759 1.76333e-19)
(-0.0165537 0.227949 -3.55639e-20)
(-0.00797893 0.218565 0)
(0.00169296 0.207022 0)
(0.0123674 0.193693 1.44575e-19)
(0.023941 0.178923 0)
(0.0363014 0.163032 7.23067e-20)
(0.0493298 0.146328 -7.24079e-20)
(0.0629006 0.129107 0)
(0.0768808 0.111651 -1.45273e-19)
(0.0911339 0.0942265 -7.30454e-20)
(0.105524 0.077088 -2.17993e-19)
(0.119919 0.0604699 -7.27898e-20)
(0.134189 0.0445847 7.2633e-20)
(0.148212 0.0296192 1.44907e-19)
(0.161877 0.0157319 0)
(0.175082 0.00305094 1.44489e-19)
(0.187743 -0.00832721 2.88924e-19)
(0.199784 -0.018338 3.05884e-22)
(0.21115 -0.0269474 -1.43755e-19)
(0.221799 -0.0341505 -1.43682e-19)
(0.231704 -0.0399682 1.42958e-19)
(0.240854 -0.044444 1.42792e-19)
(0.24925 -0.0476402 -2.84289e-19)
(0.256904 -0.0496337 2.83205e-19)
(0.263838 -0.0505096 -1.41346e-19)
(0.270077 -0.0503535 1.40286e-19)
(0.275654 -0.0492339 2.79502e-19)
(0.280659 -0.0470942 1.38732e-19)
(0.284979 -0.0436676 1.52642e-19)
(-0.00852489 0.0305786 -1.1159e-19)
(-0.0211603 0.0813035 1.06469e-19)
(-0.0299904 0.124712 -9.35464e-20)
(-0.0359284 0.160236 9.56197e-20)
(-0.0392781 0.188153 1.62689e-19)
(-0.0403933 0.209028 -1.32468e-19)
(-0.0395313 0.223557 1.68259e-19)
(-0.0368893 0.232476 1.02293e-19)
(-0.0326231 0.236503 -2.41905e-19)
(-0.0268587 0.236308 6.96544e-20)
(-0.0197039 0.232495 3.48534e-20)
(-0.0112573 0.2256 7.09149e-20)
(-0.00161658 0.216095 7.11377e-20)
(0.00911702 0.204401 -1.43164e-19)
(0.020836 0.1909 1.43689e-19)
(0.0334258 0.175942 2.16233e-19)
(0.046764 0.159857 -2.17169e-19)
(0.0607226 0.14296 2.89633e-19)
(0.0751668 0.125553 1.4468e-19)
(0.0899554 0.107925 2.17787e-19)
(0.104945 0.090348 7.22447e-20)
(0.119992 0.073082 1.4525e-19)
(0.13496 0.0563653 -1.44583e-19)
(0.149714 0.0404137 0)
(0.16413 0.0254161 -4.33907e-19)
(0.178095 0.011532 2.88803e-19)
(0.191508 -0.00111049 -1.44208e-19)
(0.204284 -0.0124162 -1.43931e-19)
(0.216355 -0.0223229 -1.67066e-22)
(0.227667 -0.0307997 0)
(0.238185 -0.0378452 0)
(0.247891 -0.0434846 1.42132e-19)
(0.25678 -0.0477659 -1.42131e-19)
(0.264862 -0.0507564 1.41347e-19)
(0.272157 -0.052538 -1.41073e-19)
(0.278697 -0.053201 -1.40497e-19)
(0.284514 -0.0528369 0)
(0.289648 -0.0515223 -1.38989e-19)
(0.2942 -0.0492117 -1.38538e-19)
(0.298086 -0.0456528 -4.56293e-19)
(-0.00890485 0.029854 1.1157e-19)
(-0.0220347 0.0796136 -1.06542e-19)
(-0.0310375 0.12243 1.2476e-19)
(-0.0368958 0.157617 -2.22955e-19)
(-0.0399282 0.185379 -1.6261e-19)
(-0.0405241 0.206214 1.32467e-19)
(-0.0389757 0.220766 -2.68818e-19)
(-0.0355141 0.229729 -1.3643e-19)
(-0.0303261 0.233797 1.72537e-19)
(-0.023565 0.233621 -3.13427e-19)
(-0.0153627 0.229797 -2.10899e-19)
(-0.00583849 0.222859 -7.05491e-20)
(0.00489205 0.213281 -2.13625e-19)
(0.0167125 0.201491 2.1466e-19)
(0.0295015 0.187874 -1.43686e-19)
(0.0431322 0.172788 -1.44084e-19)
(0.0574716 0.156571 0)
(0.0723815 0.139545 -1.44563e-19)
(0.0877173 0.122018 -2.16892e-19)
(0.103329 0.104283 7.22242e-20)
(0.119065 0.0866195 -1.44721e-19)
(0.134777 0.0692906 0)
(0.150319 0.0525389 1.44579e-19)
(0.165555 0.0365825 1.44257e-19)
(0.180357 0.0216119 -1.43283e-19)
(0.19461 0.00778696 0)
(0.208214 -0.00476512 0)
(0.221088 -0.0159511 0)
(0.233165 -0.0257114 -6.22676e-22)
(0.244399 -0.0340186 0)
(0.254762 -0.0408754 -2.84299e-19)
(0.264242 -0.0463113 -4.67229e-22)
(0.272844 -0.0503792 -2.8251e-19)
(0.280587 -0.0531511 2.81673e-19)
(0.2875 -0.0547137 -1.40164e-19)
(0.293624 -0.0551618 1.40038e-19)
(0.298999 -0.0545927 0)
(0.303674 -0.0530907 2.7729e-19)
(0.307758 -0.0506223 -1.37644e-19)
(0.311201 -0.0469517 0)
(-0.00924756 0.0290678 1.38928e-20)
(-0.0228335 0.077751 0)
(-0.0320022 0.119875 -1.55248e-19)
(-0.037785 0.154642 1.90811e-19)
(-0.0405094 0.182183 9.71204e-20)
(-0.0405951 0.202931 -1.3185e-19)
(-0.0383664 0.217477 1.3425e-19)
(-0.034087 0.226475 -1.35794e-19)
(-0.0279736 0.230589 0)
(-0.0202076 0.230451 1.39131e-19)
(-0.0109453 0.226646 -1.39975e-19)
(-0.00032786 0.219705 3.53424e-22)
(0.0115107 0.210101 0)
(0.0244375 0.198265 1.42372e-19)
(0.0383167 0.184589 -7.13524e-20)
(0.0530082 0.169436 1.43172e-19)
(0.0683674 0.15315 7.16013e-20)
(0.0842451 0.136059 -1.43613e-19)
(0.100486 0.118477 0)
(0.116932 0.100702 2.15681e-19)
(0.133421 0.0830183 7.1712e-20)
(0.149799 0.065693 0)
(0.165915 0.0489715 0)
(0.181626 0.0330737 0)
(0.196803 0.0181909 1.43687e-19)
(0.21133 0.00448242 0)
(0.225107 -0.00792599 -1.4307e-19)
(0.238056 -0.0189437 2.85322e-19)
(0.250116 -0.0285143 -2.84856e-19)
(0.261247 -0.0366144 0)
(0.271428 -0.0432511 1.41918e-19)
(0.280656 -0.0484586 -1.40872e-19)
(0.288946 -0.0522945 1.41026e-19)
(0.296326 -0.0548356 0)
(0.302835 -0.0561725 0)
(0.308523 -0.0564046 1.39185e-19)
(0.31344 -0.0556342 -1.38337e-19)
(0.317642 -0.0539531 2.75762e-19)
(0.321248 -0.0513398 -2.73995e-19)
(0.324243 -0.0475771 0)
(-0.00955267 0.0282294 9.68355e-20)
(-0.0235546 0.0757353 3.02176e-20)
(-0.0328807 0.117071 1.24155e-19)
(-0.0385917 0.151332 1.2666e-19)
(-0.0410177 0.178582 -1.29521e-19)
(-0.0406042 0.19919 1.31849e-19)
(-0.0377042 0.213697 1.33636e-19)
(-0.0326122 0.222714 1.35793e-19)
(-0.0255747 0.226874 0)
(-0.0168004 0.226788 1.38478e-19)
(-0.00647105 0.223029 1.39973e-19)
(0.00525003 0.216119 1.40947e-19)
(0.0182094 0.206533 0)
(0.0322569 0.194701 -3.73119e-22)
(0.0472415 0.18102 1.42855e-19)
(0.0630089 0.165858 -7.17354e-20)
(0.0794019 0.149566 -7.20732e-20)
(0.0962594 0.132475 2.15289e-19)
(0.113415 0.114904 -1.66922e-23)
(0.130701 0.097156 -7.22107e-20)
(0.147947 0.0795202 -1.43654e-19)
(0.16499 0.0622659 0)
(0.181673 0.045641 0)
(0.197849 0.0298665 0)
(0.213386 0.0151335 0)
(0.228167 0.00160012 0)
(0.242096 -0.0106105 0)
(0.255096 -0.0214106 1.42201e-19)
(0.267112 -0.0307479 -1.41609e-19)
(0.278112 -0.0386032 0)
(0.288084 -0.0449886 0)
(0.297034 -0.0499433 1.40869e-19)
(0.304987 -0.0535295 0)
(0.311981 -0.0558281 1.39707e-19)
(0.318067 -0.0569339 -1.38908e-19)
(0.323302 -0.0569498 0)
(0.327748 -0.0559827 2.75827e-19)
(0.331467 -0.0541312 -2.74101e-19)
(0.334589 -0.0513861 0)
(0.337135 -0.04755 0)
(-0.00982051 0.0273486 -1.10716e-19)
(-0.0241968 0.0735867 -3.01869e-20)
(-0.03367 0.114042 3.091e-20)
(-0.0393112 0.147711 -1.26659e-19)
(-0.0414481 0.174598 0)
(-0.0405467 0.19501 0)
(-0.0369862 0.209438 -1.00255e-19)
(-0.0310899 0.218452 -3.38234e-20)
(-0.0231329 0.222652 -6.84678e-20)
(-0.0133514 0.222626 -6.93156e-20)
(-0.00195238 0.218933 -6.97187e-20)
(0.010878 0.212087 7.02381e-20)
(0.0249663 0.202558 7.04639e-20)
(0.0401444 0.190778 -7.10574e-20)
(0.0562448 0.177145 0)
(0.0730989 0.162033 0)
(0.0905353 0.145794 -1.43028e-19)
(0.10838 0.128767 0)
(0.126456 0.111273 0)
(0.144584 0.0936202 1.42512e-19)
(0.162584 0.0761003 2.85252e-23)
(0.180286 0.0589853 -2.18478e-22)
(0.197525 0.0425244 -1.42721e-19)
(0.214152 0.0269388 1.42413e-19)
(0.23003 0.0124184 1.42015e-19)
(0.245043 -0.00088089 -1.41779e-19)
(0.259096 -0.0128391 0)
(0.272119 -0.0233723 1.41623e-19)
(0.284063 -0.0324326 2.65993e-22)
(0.294903 -0.040006 -1.40667e-19)
(0.304637 -0.0461099 0)
(0.313282 -0.0507882 0)
(0.320874 -0.0541077 1.39616e-19)
(0.327462 -0.0561535 -1.38846e-19)
(0.333106 -0.0570237 -1.38533e-19)
(0.337875 -0.0568245 1.37713e-19)
(0.341839 -0.0556663 0)
(0.345069 -0.053654 0)
(0.347704 -0.0507903 0)
(0.349806 -0.0468991 -1.47765e-19)
(-0.010052 0.026435 1.37764e-19)
(-0.02476 0.0713257 -6.01831e-20)
(-0.0343674 0.110813 3.08361e-20)
(-0.0399387 0.143807 0)
(-0.0417939 0.170255 1.60845e-19)
(-0.0404156 0.190411 3.01907e-23)
(-0.0362061 0.204716 1.33063e-19)
(-0.0295153 0.213699 -1.01271e-19)
(-0.0206461 0.217927 1.36624e-19)
(-0.00986155 0.217965 -6.90066e-20)
(0.00260603 0.214354 0)
(0.0165476 0.207598 7.00238e-20)
(0.031769 0.198163 -2.11496e-19)
(0.0480834 0.186479 0)
(0.0653064 0.172945 2.12632e-19)
(0.0832537 0.157937 -1.42093e-19)
(0.101739 0.141812 -1.42418e-19)
(0.120575 0.124911 7.12882e-20)
(0.139572 0.107561 0)
(0.158538 0.0900705 -1.42742e-19)
(0.177287 0.0727351 -1.42448e-19)
(0.195636 0.0558281 -2.60382e-22)
(0.213416 0.039599 1.41909e-19)
(0.230472 0.0242681 1.42043e-19)
(0.246667 0.0100232 -2.83683e-19)
(0.261883 -0.002983 1.41776e-19)
(0.276031 -0.0146343 0)
(0.289045 -0.0248517 -1.40671e-19)
(0.300884 -0.0335922 1.40331e-19)
(0.311533 -0.0408477 1.39957e-19)
(0.321 -0.0466409 -1.39547e-19)
(0.329314 -0.0510206 1.391e-19)
(0.336521 -0.0540581 0)
(0.342682 -0.0558422 1.38496e-19)
(0.347868 -0.0564739 2.7568e-19)
(0.35216 -0.056062 -2.74225e-19)
(0.355635 -0.0547196 2.73338e-19)
(0.358374 -0.0525569 3.39396e-22)
(0.360523 -0.0495882 -1.35337e-19)
(0.362187 -0.0456594 2.94397e-19)
(-0.0102486 0.0254978 -8.26297e-20)
(-0.0252447 0.0689729 -1.79994e-19)
(-0.0349709 0.10741 1.22944e-19)
(-0.0404687 0.139647 -9.43226e-20)
(-0.0420472 0.165581 -3.24286e-20)
(-0.0402013 0.185418 3.26854e-20)
(-0.0353535 0.19955 -6.65744e-20)
(-0.0278785 0.20847 -6.73476e-20)
(-0.0181056 0.21271 6.8165e-20)
(-0.0063243 0.21281 -1.37694e-19)
(0.00720834 0.209292 3.81533e-23)
(0.0222601 0.202649 6.99182e-20)
(0.0386158 0.19334 0)
(0.0560692 0.181792 -7.05161e-20)
(0.0744179 0.168404 -7.09079e-20)
(0.0934612 0.153554 1.42022e-19)
(0.112998 0.137602 0)
(0.132824 0.12089 0)
(0.152738 0.103747 1.42092e-19)
(0.172536 0.0864865 -1.42109e-19)
(0.192019 0.0694039 0)
(0.210999 0.0527733 1.41868e-19)
(0.229298 0.0368436 -1.41821e-19)
(0.246757 0.021833 -2.82954e-19)
(0.263237 0.00792615 -1.63577e-22)
(0.278624 -0.00472846 1.41253e-19)
(0.292832 -0.0160194 -2.81067e-19)
(0.3058 -0.025873 1.40668e-19)
(0.317499 -0.0342525 -1.40329e-19)
(0.327923 -0.0411558 -1.48698e-22)
(0.337092 -0.046611 4.0502e-22)
(0.345046 -0.050672 -1.39098e-19)
(0.351845 -0.0534142 -1.38048e-19)
(0.357561 -0.0549295 -1.37517e-19)
(0.362276 -0.0553216 -5.78482e-22)
(0.366081 -0.054701 0)
(0.369065 -0.0531825 -1.35687e-19)
(0.371314 -0.0508809 2.70742e-19)
(0.372983 -0.0478213 -4.03894e-19)
(0.37422 -0.043872 4.03206e-23)
(-0.0104124 0.0245462 -2.74395e-20)
(-0.0256525 0.0665486 2.39625e-19)
(-0.0354783 0.103861 -1.22983e-19)
(-0.0408952 0.135261 9.43551e-20)
(-0.0421982 0.160607 -2.56439e-19)
(-0.039891 0.180058 3.26127e-20)
(-0.0344136 0.193967 -1.32459e-19)
(-0.0261638 0.202787 0)
(-0.0154959 0.207017 0)
(-0.0027246 0.207171 -1.37261e-19)
(0.0118683 0.203752 6.92485e-20)
(0.0280276 0.19724 -1.43725e-22)
(0.0455165 0.188086 7.01408e-20)
(0.0641089 0.176711 0)
(0.0835837 0.163515 -2.11574e-19)
(0.103723 0.148875 7.07792e-20)
(0.124308 0.13315 -1.41461e-19)
(0.14512 0.116688 0)
(0.165942 0.0998169 0)
(0.186558 0.0828524 1.82712e-22)
(0.206758 0.0660901 -1.41558e-19)
(0.226344 0.0498038 1.41166e-19)
(0.245134 0.0342404 -1.41246e-19)
(0.262963 0.0196149 1.40942e-19)
(0.279691 0.00610744 3.18504e-22)
(0.295209 -0.00613838 3.32609e-22)
(0.309434 -0.017017 1.40456e-19)
(0.322317 -0.0264612 -1.39634e-19)
(0.333837 -0.0344407 0)
(0.343999 -0.0409599 -1.39265e-19)
(0.352837 -0.0460524 1.38602e-19)
(0.360404 -0.049777 0)
(0.366772 -0.0522127 1.38046e-19)
(0.372026 -0.0534546 -1.37162e-19)
(0.376259 -0.053608 1.36161e-19)
(0.379572 -0.0527844 0)
(0.382064 -0.0510996 4.06621e-19)
(0.383827 -0.0486714 -2.69242e-19)
(0.385026 -0.0455358 0)
(0.385849 -0.0415825 1.45784e-19)
(-0.0105456 0.0235887 2.18721e-19)
(-0.0259851 0.0640726 -1.1967e-19)
(-0.0358879 0.100191 -3.06594e-20)
(-0.0412115 0.13068 3.13163e-20)
(-0.0422354 0.155363 1.28058e-19)
(-0.0394688 0.174363 0)
(-0.0333674 0.187996 1.32459e-19)
(-0.0243498 0.196675 2.00935e-19)
(-0.0127938 0.200869 6.78663e-20)
(0.000961185 0.201066 6.87183e-20)
(0.0166095 0.197749 6.91404e-20)
(0.0338729 0.191382 -2.08874e-19)
(0.0524929 0.182406 6.99856e-20)
(0.0722227 0.17124 2.80585e-19)
(0.0928215 0.158277 7.06396e-20)
(0.114053 0.143894 7.06063e-20)
(0.13568 0.128452 1.41459e-19)
(0.157469 0.112298 0)
(0.179185 0.0957619 0)
(0.200599 0.0791585 2.82662e-19)
(0.221491 0.0627831 -5.64072e-19)
(0.241652 0.0469077 -2.11632e-22)
(0.260895 0.0317761 0)
(0.279052 0.0175988 0)
(0.295984 0.00455035 1.40517e-19)
(0.311586 -0.00723173 0)
(0.325783 -0.0176487 0)
(0.338535 -0.0266406 -1.3865e-19)
(0.349833 -0.0341843 -2.77549e-19)
(0.359695 -0.0402906 0)
(0.368168 -0.0449989 -2.75878e-19)
(0.37532 -0.0483724 -5.50612e-19)
(0.381236 -0.0504937 2.74222e-19)
(0.386013 -0.0514598 -2.72821e-19)
(0.389756 -0.0513776 2.72378e-19)
(0.392574 -0.0503585 -2.70768e-19)