/*--------------------------------*- C++ -*----------------------------------*\
  =========                 |
  \\      /  F ield         | OpenFOAM: The Open Source CFD Toolbox
   \\    /   O peration     | Website:  https://openfoam.org
    \\  /    A nd           | Version:  7
     \\/     M anipulation  |
\*---------------------------------------------------------------------------*/
FoamFile
{
    version     2.0;
    format      ascii;
    class       surfaceScalarField;
    location    "0.4125";
    object      phi;
}
// * * * * * * * * * * * * * * * * * * * * * * * * * * * * * * * * * * * * * //

dimensions      [0 3 -1 0 0 0 0];

internalField   nonuniform List<scalar> 
760
(
1.42732e-08
-1.42908e-08
-2.23518e-08
3.6625e-08
-1.14287e-07
9.19351e-08
-2.4543e-07
1.31143e-07
-3.96003e-07
1.50573e-07
-5.47255e-07
1.51252e-07
-6.83066e-07
1.35812e-07
-7.90526e-07
1.0746e-07
-8.6006e-07
6.95338e-08
-8.85487e-07
2.54272e-08
-8.64164e-07
-2.13233e-08
-7.97236e-07
-6.69276e-08
-6.89941e-07
-1.07295e-07
-5.51843e-07
-1.38098e-07
-3.96835e-07
-1.55008e-07
-2.42682e-07
-1.54153e-07
-1.09762e-07
-1.3292e-07
-1.8578e-08
-9.11838e-08
1.57744e-08
-3.43523e-08
1.57744e-08
-3.43526e-08
2.00619e-08
-1.80425e-07
1.82698e-07
-4.34046e-07
3.45556e-07
-7.64356e-07
4.61453e-07
-1.13194e-06
5.18156e-07
-1.49677e-06
5.16083e-07
-1.82268e-06
4.61722e-07
-2.07973e-06
3.6451e-07
-2.24537e-06
2.35171e-07
-2.30508e-06
8.51441e-08
-2.25296e-06
-7.34498e-08
-2.09218e-06
-2.27704e-07
-1.83553e-06
-3.63948e-07
-1.50549e-06
-4.68131e-07
-1.13375e-06
-5.26748e-07
-7.59416e-07
-5.28492e-07
-4.25453e-07
-4.66883e-07
-1.72748e-07
-3.43889e-07
-3.10014e-08
-1.76099e-07
-1.52269e-08
-9.20652e-08
1.12127e-07
-3.56876e-07
4.47509e-07
-7.64395e-07
7.53075e-07
-1.26818e-06
9.65242e-07
-1.8142e-06
1.06417e-06
-2.34834e-06
1.05022e-06
-2.82154e-06
9.34919e-07
-3.19289e-06
7.35861e-07
-3.43145e-06
4.73726e-07
-3.51729e-06
1.70991e-07
-3.44236e-06
-1.48384e-07
-3.21111e-06
-4.5895e-07
-2.8411e-06
-7.33965e-07
-2.36298e-06
-9.46245e-07
-1.81972e-06
-1.07001e-06
-1.26412e-06
-1.08409e-06
-7.54324e-07
-9.76674e-07
-3.46841e-07
-7.51372e-07
-8.71735e-08
-4.35766e-07
-1.024e-07
-1.45086e-07
2.57213e-07
-5.25259e-07
8.27682e-07
-1.08131e-06
1.30912e-06
-1.747e-06
1.63093e-06
-2.4536e-06
1.77078e-06
-3.13543e-06
1.73205e-06
-3.73415e-06
1.53364e-06
-4.2016e-06
1.20331e-06
-4.50149e-06
7.73619e-07
-4.61044e-06
2.79934e-07
-4.51876e-06
-2.4006e-07
-4.2313e-06
-7.46415e-07
-3.76805e-06
-1.19721e-06
-3.16451e-06
-1.54979e-06
-2.47099e-06
-1.76354e-06
-1.75044e-06
-1.80464e-06
-1.07411e-06
-1.653e-06
-5.14907e-07
-1.31058e-06
-1.39177e-07
-8.11496e-07
-2.41578e-07
-1.93515e-07
4.50727e-07
-6.84757e-07
1.31892e-06
-1.38517e-06
2.00954e-06
-2.20654e-06
2.4523e-06
-3.0645e-06
2.62874e-06
-3.88256e-06
2.55011e-06
-4.59507e-06
2.24614e-06
-5.14897e-06
1.75721e-06
-5.50469e-06
1.12935e-06
-5.63669e-06
4.11927e-07
-5.5339e-06
-3.42851e-07
-5.20056e-06
-1.07975e-06
-4.65719e-06
-1.74058e-06
-3.94147e-06
-2.26551e-06
-3.10849e-06
-2.59652e-06
-2.2296e-06
-2.68353e-06
-1.38907e-06
-2.49353e-06
-6.78198e-07
-2.02145e-06
-1.87647e-07
-1.30205e-06
-4.29225e-07
-2.39836e-07
6.90563e-07
-8.40042e-07
1.91913e-06
-1.6827e-06
2.85219e-06
-2.65615e-06
3.42576e-06
-3.65962e-06
3.63221e-06
-4.60628e-06
3.49676e-06
-5.42462e-06
3.06449e-06
-6.05864e-06
2.39123e-06
-6.46728e-06
1.53798e-06
-6.62387e-06
5.68523e-07
-6.5161e-06
-4.50626e-07
-6.1466e-06
-1.44924e-06
-5.53445e-06
-2.35273e-06
-4.71704e-06
-3.08293e-06
-3.75187e-06
-3.56168e-06
-2.71727e-06
-3.71813e-06
-1.71075e-06
-3.50005e-06
-8.44254e-07
-2.88794e-06
-2.3603e-07
-1.91027e-06
-6.65255e-07
-2.86605e-07
9.77168e-07
-9.96688e-07
2.62921e-06
-1.98133e-06
3.83684e-06
-3.10382e-06
4.54825e-06
-4.24648e-06
4.77487e-06
-5.31304e-06
4.56333e-06
-6.22809e-06
3.97954e-06
-6.93495e-06
3.09809e-06
-7.39311e-06
1.99614e-06
-7.57612e-06
7.51539e-07
-7.47059e-06
-5.5616e-07
-7.07653e-06
-1.8433e-06
-6.40937e-06
-3.01988e-06
-5.50326e-06
-3.98904e-06
-4.41504e-06
-4.6499e-06
-3.22778e-06
-4.90539e-06
-2.05188e-06
-4.67595e-06
-1.02197e-06
-3.91785e-06
-2.88069e-07
-2.64417e-06
-9.53324e-07
-3.36135e-07
1.3133e-06
-1.15984e-06
3.45292e-06
-2.28706e-06
4.96405e-06
-3.5536e-06
5.81479e-06
-4.82486e-06
6.04613e-06
-5.997e-06
5.73547e-06
-6.99374e-06
4.97627e-06
-7.76103e-06
3.86539e-06
-8.26184e-06
2.49694e-06
-8.47183e-06
9.6153e-07
-8.37707e-06
-6.50921e-07
-7.97394e-06
-2.24643e-06
-7.27163e-06
-3.72219e-06
-6.29714e-06
-4.96354e-06
-5.10215e-06
-5.84489e-06
-3.77047e-06
-6.23707e-06
-2.42344e-06
-6.02298e-06
-1.21994e-06
-5.12135e-06
-3.47396e-07
-3.51672e-06
-1.30072e-06
-3.90679e-07
1.70398e-06
-1.33418e-06
4.39643e-06
-2.60375e-06
6.23362e-06
-4.00424e-06
7.21528e-06
-5.38474e-06
7.42663e-06
-6.63741e-06
6.98815e-06
-7.68991e-06
6.02876e-06
-8.49579e-06
4.67127e-06
-9.02559e-06
3.02675e-06
-9.25995e-06
1.19589e-06
-9.18553e-06
-7.25346e-07
-8.79423e-06
-2.63774e-06
-8.08603e-06
-4.43039e-06
-7.07572e-06
-5.97385e-06
-5.80323e-06
-7.11737e-06
-4.34641e-06
-7.6939e-06
-2.83287e-06
-7.53652e-06
-1.44596e-06
-6.50826e-06
-4.17644e-07
-4.54503e-06
-1.71836e-06
-4.53059e-07
2.15704e-06
-1.52473e-06
5.4681e-06
-2.93331e-06
7.6422e-06
-4.44805e-06
8.73002e-06
-5.90394e-06
8.88252e-06
-7.19525e-06
8.27946e-06
-8.261e-06
7.09451e-06
-9.06934e-06
5.4796e-06
-9.60405e-06
3.56146e-06
-9.85463e-06
1.44647e-06
-9.81027e-06
-7.6971e-07
-9.458e-06
-2.99e-06
-8.78552e-06
-5.10287e-06
-7.78929e-06
-6.97008e-06
-6.48856e-06
-8.4181e-06
-4.94468e-06
-9.23777e-06
-3.28255e-06
-9.19866e-06
-1.70709e-06
-8.08371e-06
-5.02936e-07
-5.74919e-06
-2.2213e-06
-5.27796e-07
2.68484e-06
-1.73838e-06
6.67868e-06
-3.27597e-06
9.17979e-06
-4.86915e-06
1.03232e-05
-6.34433e-06
1.03577e-05
-7.60811e-06
9.54324e-06
-8.62169e-06
8.10809e-06
-9.37707e-06
6.23498e-06
-9.87835e-06
4.06275e-06
-1.01288e-05
1.6969e-06
-1.01228e-05
-7.7568e-07
-9.84305e-06
-3.26977e-06
-9.26234e-06
-5.68358e-06
-8.35236e-06
-7.88006e-06
-7.10057e-06
-9.6699e-06
-5.53675e-06
-1.08016e-05
-3.76741e-06
-1.0968e-05
-2.01002e-06
-9.84111e-06
-6.08799e-07
-7.15041e-06
-2.8301e-06
-6.23006e-07
3.30784e-06
-1.98573e-06
8.04141e-06
-3.62943e-06
1.08235e-05
-5.23907e-06
1.19328e-05
-6.64471e-06
1.17633e-05
-7.78181e-06
1.06803e-05
-8.64859e-06
8.97487e-06
-9.27208e-06
6.85847e-06
-9.68441e-06
4.47508e-06
-9.90763e-06
1.92013e-06
-9.94483e-06
-7.38485e-07
-9.77579e-06
-3.4388e-06
-9.35759e-06
-6.10179e-06
-8.63176e-06
-8.60589e-06
-7.54207e-06
-1.07596e-05
-6.06713e-06
-1.22765e-05
-4.27028e-06
-1.27648e-05
-2.36091e-06
-1.17505e-05
-7.43691e-07
-8.76763e-06
-3.57379e-06
-7.53523e-07
4.06137e-06
-2.28244e-06
9.57032e-06
-3.98411e-06
1.25252e-05
-5.506e-06
1.34547e-05
-6.70681e-06
1.29642e-05
-7.57623e-06
1.15498e-05
-8.1682e-06
9.56684e-06
-8.55615e-06
7.24642e-06
-8.80647e-06
4.7254e-06
-8.96383e-06
2.07748e-06
-9.04296e-06
-6.59351e-07
-9.02394e-06
-3.45782e-06
-8.85018e-06
-6.27555e-06
-8.43165e-06
-9.02442e-06
-7.65896e-06
-1.15323e-05
-6.43751e-06
-1.3498e-05
-4.75188e-06
-1.44505e-05
-2.76368e-06
-1.37387e-05
-9.2148e-07
-1.06098e-05
-4.49527e-06
-9.45596e-07
5.00696e-06
-2.64682e-06
1.12715e-05
-4.30798e-06
1.41863e-05
-5.57035e-06
1.47171e-05
-6.36837e-06
1.37622e-05
-6.7817e-06
1.19631e-05
-6.93959e-06
9.72473e-06
-6.96934e-06
7.27617e-06
-6.97272e-06
4.72878e-06
-7.01657e-06
2.12133e-06
-7.12858e-06
-5.47341e-07
-7.2934e-06
-3.29299e-06
-7.44769e-06
-6.12125e-06
-7.47612e-06
-8.99599e-06
-7.21521e-06
-1.17932e-05
-6.47913e-06
-1.42341e-05
-5.12952e-06
-1.58001e-05
-3.21252e-06
-1.56557e-05
-1.16471e-06
-1.26576e-05
-5.65998e-06
-1.24107e-06
6.24804e-06
-3.08336e-06
1.31138e-05
-4.50543e-06
1.56084e-05
-5.23245e-06
1.54441e-05
-5.35412e-06
1.38838e-05
-5.08162e-06
1.16906e-05
-4.63143e-06
9.27453e-06
-4.18035e-06
6.82509e-06
-3.85585e-06
4.40428e-06
-3.73874e-06
2.00422e-06
-3.86689e-06
-4.19189e-07
-4.23424e-06
-2.92564e-06
-4.78329e-06
-5.5722e-06
-5.39164e-06
-8.38764e-06
-5.85823e-06
-1.13266e-05
-5.90536e-06
-1.41869e-05
-5.23119e-06
-1.64742e-05
-3.66686e-06
-1.722e-05
-1.50479e-06
-1.48197e-05
-7.16477e-06
-1.68689e-06
7.93493e-06
-3.51914e-06
1.49461e-05
-4.31564e-06
1.64049e-05
-4.0891e-06
1.52176e-05
-3.19415e-06
1.29889e-05
-2.00057e-06
1.0497e-05
-7.9758e-07
8.07154e-06
2.16411e-07
5.8111e-06
9.14981e-07
3.70571e-06
1.2221e-06
1.69711e-06
1.09835e-06
-2.95443e-07
5.37246e-07
-2.36454e-06
-4.2672e-07
-4.60824e-06
-1.69622e-06
-7.11814e-06
-3.07587e-06
-9.94695e-06
-4.2341e-06
-1.30287e-05
-4.69959e-06
-1.60088e-05
-3.97651e-06
-1.79431e-05
-1.96095e-06
-1.68353e-05
-9.12572e-06
-2.27129e-06
1.02062e-05
-3.60891e-06
1.62837e-05
-3.08269e-06
1.58787e-05
-1.34762e-06
1.34825e-05
8.92871e-07
1.07484e-05
3.15059e-06
8.2393e-06
5.13357e-06
6.08857e-06
6.68398e-06
4.26068e-06
7.72093e-06
2.66876e-06
8.20143e-06
1.21661e-06
8.09841e-06
-1.92424e-07
7.3932e-06
-1.65932e-06
6.0806e-06
-3.29564e-06
4.19242e-06
-5.22995e-06
1.84664e-06
-7.60117e-06
-6.70399e-07
-1.05117e-05
-2.80422e-06
-1.38749e-05
-3.68946e-06
-1.70579e-05
-2.46026e-06
-1.80645e-05
-1.1586e-05
-2.69695e-06
1.29032e-05
-2.20743e-06
1.57942e-05
7.13883e-07
1.29574e-05
4.4638e-06
9.73261e-06
8.12627e-06
7.08592e-06
1.12945e-05
5.07111e-06
1.38222e-05
3.5608e-06
1.56815e-05
2.40143e-06
1.68852e-05
1.46509e-06
1.74483e-05
6.53512e-07
1.73694e-05
-1.13543e-07
1.66229e-05
-9.12874e-07
1.51588e-05
-1.83156e-06
1.29144e-05
-2.98549e-06
9.85198e-06
-4.53879e-06
6.05184e-06
-6.71152e-06
1.90022e-06
-9.72332e-06
-1.59531e-06
-1.35623e-05
-2.59407e-06
-1.70657e-05
-1.418e-05
-5.79036e-07
1.34822e-05
4.12017e-06
1.1095e-05
1.02998e-05
6.77772e-06
1.57883e-05
4.24412e-06
2.01501e-05
2.72413e-06
2.34496e-05
1.77157e-06
2.58529e-05
1.15753e-06
2.75143e-05
7.40038e-07
2.85472e-05
4.32187e-07
2.90195e-05
1.81222e-07
2.89552e-05
-4.92618e-08
2.8331e-05
-2.88663e-07
2.70731e-05
-5.737e-07
2.50457e-05
-9.58015e-07
2.2043e-05
-1.53612e-06
1.78102e-05
-2.47869e-06
1.21751e-05
-4.08829e-06
5.52158e-06
-6.90878e-06
9.59209e-08
-1.164e-05
-1.40841e-05
1.34822e-05
2.45772e-05
3.13549e-05
3.5599e-05
3.83231e-05
4.00947e-05
4.12522e-05
4.19923e-05
4.24245e-05
4.26057e-05
4.25564e-05
4.22678e-05
4.16941e-05
4.0736e-05
3.91999e-05
3.67212e-05
3.26329e-05
2.57242e-05
1.40841e-05
)
;

boundaryField
{
    movingWall
    {
        type            calculated;
        value           uniform 0;
    }
    fixedWalls
    {
        type            calculated;
        value           uniform 0;
    }
    frontAndBack
    {
        type            empty;
        value           nonuniform 0();
    }
}


// ************************************************************************* //
