/*--------------------------------*- C++ -*----------------------------------*\
  =========                 |
  \\      /  F ield         | OpenFOAM: The Open Source CFD Toolbox
   \\    /   O peration     | Website:  https://openfoam.org
    \\  /    A nd           | Version:  7
     \\/     M anipulation  |
\*---------------------------------------------------------------------------*/
FoamFile
{
    version     2.0;
    format      ascii;
    class       surfaceScalarField;
    location    "2.7";
    object      phi;
}
// * * * * * * * * * * * * * * * * * * * * * * * * * * * * * * * * * * * * * //

dimensions      [0 3 -1 0 0 0 0];

internalField   nonuniform List<scalar> 
3880
(
0.000156438
0.00287058
-0.00302701
0.000656889
0.00635009
-0.00685054
0.00147824
0.00870921
-0.00953056
0.00258477
0.0103935
-0.0115001
0.0039336
0.0116536
-0.0130025
0.00547688
0.0126388
-0.0141821
0.00716281
0.0134452
-0.0151311
0.00893626
0.0141394
-0.0159129
0.0107386
0.0147699
-0.0165721
0.0153704
0.0125064
-0.0171382
0.000168752
0.00270182
0.000711943
0.0058069
0.00160561
0.00781553
0.00281375
0.00918541
0.00429401
0.0101734
0.0059994
0.0109334
0.00787846
0.0115662
0.00987482
0.0121431
0.0119257
0.012719
0.0133368
0.0139593
0.000186454
0.00251537
0.000782991
0.00521037
0.00176165
0.00683688
0.00308419
0.00786287
0.00470776
0.00854979
0.00658605
0.00905515
0.00866874
0.00948347
0.0109
0.00991185
0.0132151
0.0104038
0.0110164
0.0155355
0.000211014
0.00230436
0.000873887
0.0045475
0.00195295
0.00575782
0.00340528
0.00641054
0.0051858
0.00676926
0.00724805
0.00699289
0.00954322
0.00718829
0.0120177
0.00743734
0.0146082
0.00781336
0.00839242
0.0172322
0.000243774
0.00206058
0.000988036
0.00380324
0.0021854
0.00456045
0.00378534
0.0048106
0.00573823
0.00481637
0.00799573
0.0047354
0.0105099
0.0046741
0.0132309
0.0047164
0.0161001
0.00494412
0.00545595
0.0190366
0.000285829
0.00177475
0.00112808
0.00296099
0.00246344
0.00322508
0.0042307
0.00304335
0.00637283
0.00267424
0.00883693
0.0022713
0.011574
0.00193699
0.0145378
0.0017526
0.0176787
0.00180327
0.00221059
0.0209241
0.000337844
0.00143691
0.00129521
0.00200363
0.00278879
0.00173151
0.00474372
0.00108842
0.00709268
0.00032528
0.00977482
-0.000410845
0.0127365
-0.0010247
0.0159327
-0.00144356
0.0193246
-0.00158867
-0.00132283
0.022858
0.000399829
0.00103708
0.00148857
0.000914885
0.00315915
6.0924e-05
0.00532072
-0.00107315
0.00789336
-0.00224736
0.0108051
-0.00332259
0.0139927
-0.00421228
0.0174059
-0.00485675
0.0210146
-0.00519743
-0.00510839
0.0248002
0.000470967
0.000566114
0.00170464
-0.000318787
0.00356693
-0.00180137
0.00594961
-0.00345583
0.00875974
-0.00505749
0.0119136
-0.00647644
0.015335
-0.00763368
0.0189578
-0.00847956
0.0227428
-0.00898243
-0.00911017
0.0267446
0.000549486
1.66288e-05
0.00193681
-0.00170611
0.00399803
-0.00386258
0.00660713
-0.00606493
0.00966042
-0.00811078
0.0130686
-0.00988458
0.0167528
-0.011318
0.0206393
-0.0123661
0.0246472
-0.0129903
0.0287437
-0.0132067
0.0143698
0.0620059
-0.0638693
0.0150927
0.067869
-0.0685919
0.0146428
0.0740024
-0.0735526
0.0133787
0.0798005
-0.0785363
0.0116083
0.0851732
-0.0834028
0.00949966
0.0899554
-0.0878468
0.00723536
0.093992
-0.0917277
0.00486287
0.0977689
-0.0953964
0.00243841
0.101216
-0.0987917
0.104731
-0.102293
0.016093
0.0598721
0.0169756
0.0669864
0.0165613
0.0744167
0.0152166
0.0811451
0.0132716
0.0871182
0.0109136
0.0923134
0.0083422
0.0965634
0.00562072
0.10049
0.00281955
0.104017
0.107551
0.0178872
0.0575205
0.0188961
0.0659775
0.0185117
0.0748011
0.0170885
0.0825683
0.0149732
0.0892336
0.012366
0.0949205
0.00948595
0.0994435
0.00640712
0.103569
0.00321829
0.107206
0.110769
0.019741
0.0550116
0.0208366
0.0648819
0.0204754
0.0751623
0.0189781
0.0840656
0.0167005
0.0915112
0.0138485
0.0977726
0.010662
0.10263
0.00722035
0.107011
0.00363446
0.110792
0.114404
0.0216377
0.0524104
0.022776
0.0637436
0.0224312
0.0755071
0.0208667
0.0856301
0.018439
0.093939
0.0153507
0.100861
0.011864
0.106117
0.00805753
0.110817
0.00406727
0.114782
0.118471
0.0235523
0.0497822
0.0246897
0.0626062
0.0243547
0.0758421
0.0227325
0.0872522
0.0201707
0.0965008
0.0168594
0.104172
0.0130835
0.109893
0.00891423
0.114987
0.00451518
0.119181
0.122986
0.0254452
0.047195
0.0265443
0.0615071
0.0262155
0.0761709
0.024549
0.0889187
0.0218737
0.0991761
0.0183578
0.107688
0.0143089
0.113942
0.0097835
0.119512
0.00497536
0.12399
0.127962
0.0272512
0.0447441
0.0282879
0.0604704
0.0279716
0.0764871
0.0262811
0.0906093
0.0235187
0.101939
0.0198225
0.111384
0.0155232
0.118241
0.0106547
0.12438
0.00544312
0.129201
0.133405
0.0289189
0.0425698
0.0298781
0.0595111
0.0295868
0.0767785
0.0278953
0.0923008
0.0250746
0.104759
0.021226
0.115233
0.016704
0.122763
0.0115123
0.129572
0.00591133
0.134802
0.139316
0.0304892
0.0408243
0.0313713
0.058629
0.0310657
0.077084
0.0293754
0.0939912
0.0265057
0.107629
0.0225263
0.119212
0.017808
0.127481
0.0123242
0.135056
0.006363
0.140763
0.145679
0.11997
0.0575412
-0.136687
0.106044
0.0725553
0.0934675
0.0896607
0.0812753
0.106183
0.068792
0.120112
0.055957
0.132047
0.0425947
0.140843
0.0287372
0.148914
0.0144847
0.155016
0.160164
0.141758
0.0745591
-0.158776
0.125381
0.0889319
0.109971
0.105071
0.0950551
0.121099
0.0800453
0.135122
0.0647887
0.147304
0.0490787
0.156553
0.033053
0.164939
0.0167518
0.171317
0.176915
0.158143
0.0908795
-0.174464
0.141472
0.105603
0.125006
0.121537
0.108653
0.137452
0.0919143
0.151861
0.0746984
0.16452
0.056755
0.174497
0.0384036
0.183291
0.019561
0.19016
0.196476
0.173481
0.106285
-0.188887
0.157015
0.12207
0.140079
0.138473
0.122696
0.154835
0.104503
0.170053
0.0853972
0.183626
0.0651273
0.194767
0.0440647
0.204353
0.0223093
0.211915
0.218786
0.189806
0.121136
-0.204657
0.173458
0.138418
0.156091
0.155839
0.137737
0.173189
0.118096
0.189694
0.09703
0.204692
0.0744402
0.217356
0.0506971
0.228096
0.0258519
0.23676
0.244638
0.206826
0.135651
-0.221341
0.190573
0.15467
0.172954
0.173458
0.153863
0.19228
0.132996
0.210561
0.110229
0.227459
0.0855417
0.242044
0.0591158
0.254522
0.0306163
0.26526
0.275254
0.226704
0.149447
-0.240499
0.210704
0.170671
0.192756
0.191406
0.172601
0.212435
0.149652
0.23351
0.123405
0.253706
0.0937488
0.2717
0.0616596
0.286611
0.0298087
0.297111
0.305063
0.24412
0.16091
-0.255584
0.228915
0.185875
0.211752
0.20857
0.192599
0.231587
0.170874
0.255236
0.146089
0.278491
0.117719
0.300071
0.0846936
0.319637
0.0453119
0.336492
0.350374
0.263571
0.159306
-0.261967
0.255331
0.194115
0.238798
0.225103
0.215985
0.2544
0.187909
0.283312
0.155134
0.311266
0.118299
0.336906
0.0795384
0.358397
0.0398494
0.376181
0.390224
0.244865
-0.217078
0.259625
0.261953
0.252918
0.233453
0.203851
0.164538
0.115758
0.0599837
0.0395251
-0.143843
-0.0323698
0.0436084
-0.162859
0.046113
-0.176968
0.0479488
-0.190723
0.0492107
-0.205919
0.0501267
-0.222257
0.0497262
-0.240099
0.0478696
-0.253727
0.0395185
-0.253616
-0.204312
0.0391565
-0.149911
-0.033088
0.0426647
-0.166367
0.0448777
-0.179181
0.0465237
-0.192369
0.0476498
-0.207045
0.0483989
-0.223006
0.0477839
-0.239484
0.04534
-0.251284
0.0362706
-0.244547
-0.191007
0.0383896
-0.155155
-0.033146
0.0413534
-0.169331
0.0432892
-0.181117
0.0447623
-0.193842
0.0457851
-0.208068
0.0463778
-0.223599
0.0455728
-0.238679
0.0425298
-0.248241
0.0329271
-0.234944
-0.177183
0.0370421
-0.159621
-0.0325755
0.0395194
-0.171809
0.041217
-0.182815
0.042557
-0.195182
0.0435165
-0.209027
0.043993
-0.224075
0.0430201
-0.237706
0.0394427
-0.244663
0.029425
-0.224926
-0.162966
0.0350632
-0.163335
-0.0313497
0.0371096
-0.173855
0.03862
-0.184325
0.0398808
-0.196442
0.0408261
-0.209972
0.041234
-0.224483
0.0401236
-0.236595
0.036091
-0.240631
0.0257969
-0.214632
-0.14848
0.032431
-0.166329
-0.0294365
0.034118
-0.175542
0.0355023
-0.185709
0.0367442
-0.197684
0.0377267
-0.210955
0.0381136
-0.22487
0.0368981
-0.23538
0.0324931
-0.236225
0.0220934
-0.204232
-0.13384
0.0291638
-0.16866
-0.0268326
0.0305748
-0.176953
0.0318976
-0.187032
0.0331795
-0.198966
0.0342469
-0.212022
0.034657
-0.22528
0.0333663
-0.234089
0.0286585
-0.231518
0.0183695
-0.193943
-0.11918
0.0253139
-0.170403
-0.0235715
0.026534
-0.178173
0.027856
-0.188354
0.0292307
-0.200341
0.0304252
-0.213217
0.0308991
-0.225754
0.0295608
-0.232751
0.0245952
-0.226552
0.014605
-0.183953
-0.104846
0.0209593
-0.17164
-0.0197217
0.0220656
-0.179279
0.0234385
-0.189727
0.0249496
-0.201852
0.026307
-0.214574
0.0268839
-0.226331
0.025532
-0.231399
0.0203743
-0.221394
0.0106054
-0.174184
-0.0917173
0.0161954
-0.172455
-0.0153807
0.017251
-0.180335
0.0187133
-0.191189
0.0203934
-0.203532
0.0219439
-0.216125
0.0226627
-0.22705
0.0213452
-0.230082
0.0161163
-0.216165
0.00660365
-0.164672
-0.0802713
0.0111404
-0.172917
-0.0106781
0.0121886
-0.181383
0.013763
-0.192764
0.015633
-0.205402
0.0174
-0.217892
0.0182984
-0.227948
0.0170745
-0.228858
0.0119047
-0.210996
0.00271696
-0.155484
-0.0704642
0.00588105
-0.173081
-0.00571756
0.00694467
-0.182447
0.00864214
-0.194461
0.0107138
-0.207474
0.0127175
-0.219895
0.0138349
-0.229065
0.012773
-0.227796
0.00779242
-0.206015
-0.00100928
-0.146682
-0.0621088
0.000464584
-0.172904
-0.000641887
0.00161862
-0.183601
0.00343712
-0.19628
0.00571051
-0.209747
0.0079642
-0.222149
0.00933409
-0.230435
0.00849528
-0.226957
0.00382452
-0.201344
-0.00404524
-0.138812
-0.0544984
-0.00478606
-0.172525
0.00440783
-0.00369352
-0.184693
-0.00177622
-0.198197
0.000693453
-0.212217
0.00319942
-0.224655
0.00484658
-0.232083
0.00428352
-0.226394
9.56703e-05
-0.197156
-0.00722607
-0.131491
-0.0477357
-0.0099741
-0.171871
0.00931978
-0.00891769
-0.18575
-0.00692797
-0.200187
-0.00429044
-0.214854
-0.00152136
-0.227424
0.000448152
-0.234052
6.71045e-05
-0.226013
-0.00377031
-0.193319
-0.01037
-0.124891
-0.0417553
-0.014944
-0.170908
0.0139804
-0.0139808
-0.186713
-0.0119524
-0.202215
-0.00916651
-0.21764
-0.0061467
-0.230444
-0.0038853
-0.236313
-0.00380127
-0.226097
-0.00733614
-0.189784
-0.013412
-0.118815
-0.0364539
-0.0195889
-0.169614
0.0182952
-0.0187794
-0.187522
-0.0167511
-0.204244
-0.0138513
-0.22054
-0.0105995
-0.233696
-0.00802064
-0.238892
-0.00759653
-0.226521
-0.0107213
-0.186659
-0.0163277
-0.113209
-0.0317254
-0.0237392
-0.168066
0.0221913
-0.0231501
-0.188112
-0.0211836
-0.20621
-0.0182304
-0.223493
-0.0147933
-0.237133
-0.0119254
-0.24176
-0.0111784
-0.227268
-0.0139185
-0.183919
-0.0191071
-0.10802
-0.0274693
-0.027368
-0.166333
0.0256352
-0.0271155
-0.188364
-0.0252954
-0.20803
-0.022355
-0.226434
-0.0187731
-0.240715
-0.0156292
-0.244904
-0.0145586
-0.228339
-0.0169312
-0.181547
-0.0217509
-0.103201
-0.0235958
-0.0307877
-0.164177
0.028632
-0.0310094
-0.188142
-0.0294313
-0.209608
-0.026534
-0.229331
-0.0227764
-0.244472
-0.019283
-0.248397
-0.0177458
-0.229876
-0.0197931
-0.179499
-0.0242063
-0.0987874
-0.0199469
-0.00631449
-0.162875
0.00501258
-0.00789211
-0.186565
-0.00705682
-0.210443
-0.0055036
-0.230884
-0.00702769
-0.242948
-0.017635
-0.23779
-0.0419188
-0.205592
-0.0775977
-0.14382
-0.109474
-0.0669115
-0.00665958
-0.0347111
-0.161845
0.0336803
-0.0338954
-0.187381
-0.0323843
-0.211954
-0.0321525
-0.231116
-0.03822
-0.236881
-0.0565099
-0.2195
-0.0884268
-0.173675
-0.125929
-0.106318
-0.153892
-0.0389485
0.000518051
-0.0609855
-0.160709
0.0598503
-0.060978
-0.187388
-0.0607287
-0.212204
-0.0637648
-0.22808
-0.0760317
-0.224614
-0.101899
-0.193633
-0.13828
-0.137293
-0.173697
-0.0709016
-0.195001
-0.0176451
0.00301359
-0.0893209
-0.15777
0.0863817
-0.0914084
-0.185301
-0.094069
-0.209543
-0.102182
-0.219967
-0.121756
-0.20504
-0.154133
-0.161257
-0.191693
-0.0997331
-0.221488
-0.0411068
-0.234403
-0.00472974
0.00242956
-0.119691
-0.151325
0.113246
-0.125803
-0.179189
-0.133835
-0.201511
-0.149285
-0.204518
-0.176512
-0.177812
-0.212588
-0.12518
-0.246719
-0.0656027
-0.267774
-0.0200514
-0.27293
0.000425682
0.000637657
-0.152363
-0.139469
0.140507
-0.165269
-0.166283
-0.181551
-0.185228
-0.205826
-0.180243
-0.239078
-0.14456
-0.274446
-0.0898122
-0.300908
-0.039141
-0.312168
-0.00879087
-0.311954
0.000211834
-0.000818326
-0.187396
-0.119084
0.167011
-0.209763
-0.143916
-0.236609
-0.158382
-0.269784
-0.147067
-0.306007
-0.108337
-0.336473
-0.0593459
-0.35342
-0.0221946
-0.357036
-0.00517479
-0.354929
-0.00189535
-0.00119366
-0.220828
-0.0904429
0.192188
-0.255137
-0.109608
-0.294698
-0.118821
-0.336668
-0.105098
-0.373824
-0.0711811
-0.398166
-0.0350044
-0.407666
-0.012694
-0.407929
-0.00491188
-0.406775
-0.00304932
-0.000717974
-0.247217
-0.0494413
0.206216
-0.295955
-0.0608699
-0.349915
-0.0648607
-0.400442
-0.0545714
-0.437353
-0.0342692
-0.45651
-0.0158477
-0.462633
-0.00657055
-0.463789
-0.00375587
-0.464717
-0.00212136
-0.000158002
-0.263747
0.214305
-0.324617
-0.389477
-0.444049
-0.478318
-0.494166
-0.500736
-0.504492
-0.506613
-0.0376993
0.0112192
0.0314927
-0.0422159
0.0381969
-0.045122
0.0627564
-0.0463987
0.0876584
-0.0456889
0.112536
-0.042673
0.137491
-0.0367265
0.161064
-0.0273207
0.182782
-0.0149709
0.193866
0.199335
-0.0380106
0.016432
0.0327977
-0.0417023
0.0418887
-0.0439651
0.0650192
-0.0446141
0.0883074
-0.0433758
0.111298
-0.0399767
0.134092
-0.033997
0.155084
-0.0249309
0.173716
-0.0135411
0.182476
0.185794
-0.0380779
0.021075
0.0334349
-0.0410593
0.0448702
-0.0426777
0.0666375
-0.0427203
0.0883501
-0.0409966
0.109574
-0.0372856
0.130381
-0.0312992
0.149098
-0.0226745
0.165091
-0.0121755
0.171977
0.173618
-0.0376106
0.025223
0.0334625
-0.0399973
0.0472568
-0.041044
0.0676842
-0.0405657
0.0878718
-0.0384524
0.107461
-0.0345341
0.126462
-0.0286354
0.143199
-0.0205046
0.15696
-0.0108939
0.162367
0.162724
-0.0366382
0.0289055
0.0329557
-0.0385211
0.0491398
-0.0390827
0.0682458
-0.0381852
0.0869742
-0.035787
0.105062
-0.031766
0.122441
-0.0260378
0.137471
-0.0184456
0.149368
-0.00970001
0.153621
0.153024
-0.0352406
0.032164
0.0319821
-0.0367017
0.0506009
-0.0368588
0.0684029
-0.0356385
0.0857539
-0.0330522
0.102476
-0.029021
0.11841
-0.0235318
0.131982
-0.0165055
0.142342
-0.00859357
0.145709
0.144431
-0.0334898
0.0350455
0.0306083
-0.0346088
0.0517199
-0.0344407
0.0682348
-0.0329875
0.0843007
-0.0302992
0.0997878
-0.0263359
0.114447
-0.0211381
0.126784
-0.0146877
0.135892
-0.00757177
0.138593
0.136859
-0.0314538
0.037595
0.0289043
-0.032304
0.0525701
-0.0318887
0.0678196
-0.0302851
0.0826971
-0.027571
0.0970737
-0.0237393
0.110615
-0.0188706
0.121915
-0.012993
0.130014
-0.00663075
0.132231
0.130228
-0.0292012
0.0398534
0.0269428
-0.029847
0.0532158
-0.0292571
0.0672297
-0.0275764
0.0810164
-0.0249016
0.0943988
-0.0212524
0.106966
-0.016738
0.117401
-0.0114201
0.124696
-0.0057666
0.126577
0.124462
-0.0267998
0.0418559
0.0247974
-0.027295
0.053711
-0.0265951
0.0665299
-0.0248997
0.079321
-0.0223181
0.0918173
-0.0188903
0.103538
-0.0147449
0.113255
-0.00996694
0.119918
-0.0049759
0.121586
0.119486
-0.0243174
0.0436309
0.0225423
-0.0247051
0.0540987
-0.0239503
0.0657751
-0.0222912
0.0776618
-0.0198454
0.0893716
-0.0166665
0.100359
-0.0128959
0.109485
-0.00863256
0.115655
-0.00425648
0.11721
0.115229
-0.0218069
0.0451987
0.0202391
-0.0221179
0.0544097
-0.0213526
0.0650097
-0.0197694
0.0760786
-0.0174922
0.0870944
-0.0145809
0.097448
-0.0111857
0.10609
-0.00741024
0.111879
-0.0036037
0.113404
0.111625
-0.0193242
0.0465729
0.0179501
-0.0195783
0.0546638
-0.0188364
0.0642678
-0.0173584
0.0746006
-0.0152728
0.0850089
-0.0126395
0.0948147
-0.0096147
0.103065
-0.00629778
0.108562
-0.00301543
0.110121
0.10861
-0.016914
0.0477616
0.0157252
-0.0171199
0.0548697
-0.0164252
0.0635731
-0.0150723
0.0732477
-0.0131932
0.0831298
-0.0108414
0.0924629
-0.00817837
0.100402
-0.00529011
0.105674
-0.00248827
0.107319
0.106122
-0.0146108
0.0487694
0.0136031
-0.0147679
0.0550267
-0.014135
0.0629402
-0.0129191
0.0720318
-0.0112544
0.0814651
-0.00918245
0.0903909
-0.00687001
0.0980893
-0.00438091
0.103185
-0.00201845
0.104957
0.104103
-0.0124384
0.0495986
0.0116092
-0.0125388
0.0551271
-0.0119743
0.0623756
-0.0109009
0.0709585
-0.00945283
0.0800171
-0.00765482
0.0885929
-0.00568058
0.0961151
-0.00356261
0.101067
-0.00160186
0.102996
0.102501
-0.0104075
0.0502496
0.00975646
-0.0104405
0.0551602
-0.00994451
0.0618796
-0.00901394
0.0700279
-0.00778023
0.0787834
-0.00624758
0.0870603
-0.00459878
0.0944663
-0.00282637
0.0992946
-0.00123411
0.101404
0.101267
-0.00851858
0.0507212
0.00804703
-0.00847561
0.0551172
-0.00804353
0.0614475
-0.00725163
0.069236
-0.00622559
0.0777573
-0.0049472
0.0857819
-0.00361116
0.0931302
-0.00216213
0.0978456
-0.000910516
0.100152
0.100357
-0.006771
0.0510103
0.00648184
-0.006642
0.0549882
-0.00626389
0.0610694
-0.00560191
0.068574
-0.00477301
0.0769284
-0.00373585
0.0847447
-0.0027011
0.0920955
-0.00155771
0.0967022
-0.000625787
0.0992205
0.099731
-0.00513765
0.0510644
0.00508357
-0.00490675
0.0547573
-0.00456567
0.0607283
-0.00402945
0.0680378
-0.00338906
0.076288
-0.00258938
0.083945
-0.00184641
0.0913525
-0.00100223
0.095858
-0.000373819
0.0985921
0.0993572
-0.0646045
0.0433872
0.0722817
-0.0591492
0.049302
-0.0540911
0.0556702
-0.0485637
0.0625104
-0.0419659
0.0696903
-0.034415
0.076394
-0.0257885
0.082726
-0.0168156
0.0868852
-0.00797026
0.0897467
0.0913869
-0.0592595
0.0369705
0.0656762
-0.0534388
0.0434813
-0.0478187
0.0500501
-0.0419368
0.0566284
-0.0355391
0.0632926
-0.0286936
0.0695486
-0.0213281
0.0753605
-0.0140992
0.0796562
-0.00697408
0.0826216
0.0844129
-0.0526142
0.0315231
0.0580617
-0.0472047
0.0380718
-0.0416756
0.044521
-0.0359153
0.0508682
-0.0298577
0.0572349
-0.0236803
0.0633713
-0.0173234
0.0690036
-0.0114218
0.0737547
-0.00569809
0.0768978
0.0787148
-0.0459715
0.0268935
0.050601
-0.0409344
0.0330347
-0.0355417
0.0391282
-0.0298867
0.0452132
-0.0240743
0.0514226
-0.0183678
0.0576647
-0.0128138
0.0634496
-0.00802033
0.0689612
-0.00381956
0.0726971
0.0748952
-0.0396965
0.0228097
0.0437804
-0.0349062
0.0282443
-0.029562
0.033784
-0.0238743
0.0395255
-0.0180767
0.045625
-0.0125604
0.0521485
-0.00757398
0.0584631
-0.00372135
0.0651086
-0.0013452
0.0703209
0.07355
-0.034393
0.0189801
0.0382226
-0.0295995
0.0234508
-0.0240609
0.0282455
-0.0180707
0.0335352
-0.0119352
0.0394895
-0.00617224
0.0463855
-0.00144701
0.0537379
0.0017764
0.0618852
0.00208593
0.0700114
0.0756359
-0.0322684
0.0150263
0.0362222
-0.0270324
0.0182148
-0.0208568
0.0220699
-0.0140299
0.0267083
-0.00689408
0.0323536
0.000108302
0.0393832
0.00564689
0.0481993
0.00888043
0.0586516
0.00727753
0.0716143
0.0829135
-0.0428906
0.01003
0.0478869
-0.0366119
0.0119361
-0.029176
0.014634
-0.0206332
0.0181655
-0.0111769
0.0228973
-0.00113608
0.0293424
0.00816417
0.038899
0.0151276
0.0516882
0.0144386
0.0723033
0.0973521
-0.0984051
0.00353163
0.104903
-0.0911413
0.00467234
-0.0825015
0.00599418
-0.0720424
0.0077064
-0.059407
0.010262
-0.0443671
0.0143024
-0.0262718
0.0208038
-0.00555788
0.0309742
0.0109555
0.05579
0.108308
-0.258813
0.262344
-0.254141
-0.248146
-0.24044
-0.230178
-0.215876
-0.195072
-0.164098
-0.108308
-0.00383476
0.0717756
0.00434088
-0.00271407
0.0645556
-0.00148752
0.0568351
-0.000399238
0.0495128
0.000392665
0.0429885
0.000741972
0.0378733
0.000365139
0.036599
-0.0011358
0.0493878
-0.00287761
0.106645
0.259467
-0.00303941
0.0714674
0.00334766
-0.00216997
0.0636861
-0.00114489
0.0558101
-0.000232913
0.0486008
0.000412543
0.042343
0.000657133
0.0376287
0.000251505
0.0370046
-0.001115
0.0507543
-0.00261342
0.108144
0.256853
-0.00227108
0.0713207
0.00241773
-0.00161372
0.0630288
-0.000794031
0.0549904
-6.0626e-05
0.0478674
0.000445198
0.0418372
0.00059875
0.0374752
0.0001829
0.0374205
-0.00103963
0.0519769
-0.00232935
0.109433
0.254524
-0.00157406
0.0713046
0.00159015
-0.00111103
0.0625657
-0.000477947
0.0543573
9.43918e-05
0.047295
0.000482154
0.0414494
0.000569153
0.0373882
0.00016789
0.0378217
-0.000902629
0.0530474
-0.00200492
0.110536
0.252519
-0.000970104
0.071391
0.000883712
-0.00067703
0.0622727
-0.00020704
0.0538873
0.000228918
0.0468591
0.000521789
0.0411566
0.000566932
0.037343
0.000202929
0.0381858
-0.000709361
0.0539597
-0.00164515
0.111472
0.250874
-0.000458853
0.0715407
0.000309178
-0.000310326
0.0621241
2.19768e-05
0.053555
0.000344705
0.0465364
0.000565616
0.0409357
0.000590408
0.0373182
0.00028186
0.0384943
-0.000469005
0.0547105
-0.00125718
0.11226
0.249617
-2.3343e-05
0.0716985
-0.000134512
-2.21633e-05
0.0621229
0.000211795
0.053321
0.000444635
0.0463035
0.000614055
0.0407662
0.000636631
0.0372956
0.000397593
0.0387333
-0.000190756
0.0552989
-0.000847373
0.112916
0.248769
0.000276688
0.0718996
-0.000477716
0.000239028
0.0621606
0.000366084
0.053194
0.000529704
0.0461399
0.000665667
0.0406303
0.000700895
0.0372604
0.000541881
0.0388924
0.000115903
0.0557249
-0.000421691
0.113454
0.248348
0.000506592
0.0720828
-0.000689869
0.000427994
0.0622392
0.000485826
0.0531362
0.000600098
0.0460256
0.000717562
0.0405128
0.000777035
0.0372009
0.000705484
0.0389639
0.000441217
0.0559891
1.40067e-05
0.113881
0.248362
0.000663963
0.0722177
-0.000798793
0.00056164
0.0623415
0.000574058
0.0531237
0.000655295
0.0459444
0.00076576
0.0404024
0.000857871
0.0371088
0.000878618
0.0389432
0.00077513
0.0560926
0.000452832
0.114203
0.248815
0.000750243
0.0722879
-0.000820478
0.000646736
0.062445
0.000632029
0.0531384
0.00069248
0.0458839
0.000804151
0.0402907
0.000934579
0.0369784
0.00105038
0.0388274
0.00110645
0.0560366
0.000887827
0.114422
0.249702
0.000789995
0.0722915
-0.000793579
0.000701691
0.0625333
0.000668895
0.0531712
0.000714422
0.0458384
0.000830666
0.0401744
0.00100167
0.0368074
0.00121338
0.0386156
0.00142809
0.0558218
0.00131498
0.114535
0.251017
0.000797802
0.0722354
-0.00074173
0.000735224
0.0625959
0.000686707
0.0532198
0.000718565
0.0458066
0.000839334
0.0400537
0.00105079
0.0365959
0.00135783
0.0383086
0.00172976
0.0554499
0.00172642
0.114538
0.252744
0.000794812
0.0721367
-0.000696121
0.000759055
0.0626317
0.000691094
0.0532877
0.000705253
0.0457924
0.000826578
0.0399323
0.00107567
0.0363469
0.00147604
0.0379082
0.00200322
0.0549227
0.0021155
0.114426
0.254859
0.00080465
0.0720209
-0.000688789
0.000786178
0.0626501
0.000689328
0.0533846
0.000676452
0.0458053
0.000790353
0.0398184
0.00107132
0.0360659
0.00156149
0.0374181
0.00224122
0.054243
0.00247562
0.114192
0.257335
0.000853951
0.0719187
-0.000751825
0.000831684
0.0626724
0.000690982
0.0535253
0.000636375
0.0458599
0.000730628
0.0397242
0.00103432
0.0357622
0.00160885
0.0368435
0.00243748
0.0534144
0.00280041
0.113829
0.260135
0.000973419
0.0718629
-0.000917571
0.000914098
0.0627317
0.000708628
0.0537307
0.000592112
0.0459764
0.000649838
0.0396665
0.000962856
0.0354492
0.00161344
0.036193
0.00258628
0.0524415
0.00308352
0.113332
0.263219
0.00119356
0.0718867
-0.00121742
0.00105394
0.0628714
0.00075688
0.0540278
0.000553353
0.0461799
0.000552801
0.039667
0.000856227
0.0351457
0.00157014
0.035479
0.00268177
0.0513299
0.00331778
0.112696
0.266537
0.00153067
0.0720237
-0.00166761
0.00126707
0.063135
0.000846582
0.0544483
0.000528485
0.046498
0.000444286
0.0397512
0.000713279
0.0348768
0.00147229
0.03472
0.00272028
0.0500819
0.0034998
0.111916
0.270036
0.00204046
0.072215
-0.00223177
0.00156264
0.0636128
0.00098205
0.0550289
0.000521548
0.0469585
0.000330254
0.0399425
0.00053945
0.0346676
0.00132548
0.033934
0.00271986
0.0486875
0.00364847
0.110988
0.273685
-0.0513667
0.0590272
0.0645544
-0.0405947
0.0528408
-0.0319551
0.0463893
-0.0248148
0.0398182
-0.0186219
0.0337496
-0.0130971
0.0291428
-0.00830319
0.0291401
-0.00459925
0.0449836
-0.00221221
0.1086
0.271473
-0.0555945
0.0489523
0.0656694
-0.0464861
0.0437324
-0.0383302
0.0382334
-0.0309685
0.0324565
-0.0241713
0.0269524
-0.0177879
0.0227594
-0.0119061
0.0232584
-0.00691683
0.0399943
-0.00296121
0.104645
0.268512
-0.0591172
0.0403088
0.0677607
-0.0512856
0.0359008
-0.0437074
0.0306552
-0.0363795
0.0251286
-0.0291554
0.0197282
-0.0219242
0.0155282
-0.0148149
0.0161491
-0.00833755
0.0335169
-0.00312715
0.0994344
0.265384
-0.0632442
0.0330903
0.0704627
-0.0561973
0.0288539
-0.0490674
0.0235253
-0.0418291
0.0178903
-0.0343004
0.0121995
-0.0263245
0.00755226
-0.017989
0.00781358
-0.00996086
0.0254888
-0.00337
0.0928436
0.262014
-0.0679409
0.0263185
0.0747126
-0.0614021
0.0223151
-0.0547112
0.0168344
-0.0477093
0.0108884
-0.0400502
0.00454047
-0.0315193
-0.000978681
-0.0220366
-0.00166909
-0.0123351
0.0157873
-0.00411161
0.0846201
0.257903
-0.0726969
0.0205484
0.078467
-0.0668067
0.016425
-0.0608301
0.0108578
-0.0545186
0.00457686
-0.0471718
-0.0028063
-0.0383113
-0.00983921
-0.0278074
-0.012173
-0.0163676
0.00434742
-0.00599829
0.0742508
0.251904
-0.0777413
0.0145995
0.0836901
-0.0722438
0.0109275
-0.067056
0.00567001
-0.0619988
-0.000480339
-0.0561893
-0.00861582
-0.0485346
-0.0174938
-0.0384108
-0.0222968
-0.0264184
-0.00764502
-0.0125792
0.0604116
0.239325
-0.0825209
0.00971804
0.0874024
-0.0781192
0.00652582
-0.074515
0.00206585
-0.0711921
-0.00380327
-0.0680075
-0.0118005
-0.0637541
-0.0217472
-0.0572252
-0.0288257
-0.0468196
-0.0180506
-0.0286838
0.0422758
0.210641
-0.0868694
0.00467559
0.0919118
-0.0831777
0.00283419
-0.0813139
0.000201965
-0.0814689
-0.00364823
-0.0837322
-0.00953719
-0.0878922
-0.0175871
-0.0921923
-0.0245255
-0.0912717
-0.0189712
-0.0705812
0.0215853
0.14006
-0.0904124
0.095088
-0.0875782
-0.0873762
-0.0910245
-0.100562
-0.118149
-0.142674
-0.161646
-0.14006
0.00100836
0.0657746
-0.00222847
4.49674e-05
0.0666328
-0.000417623
0.0682233
-0.000788009
0.0708331
-0.00100493
0.0749296
-0.00119739
0.0786594
-0.00106723
0.08356
-0.000867177
0.0872024
-0.000432881
0.0914775
0.0946551
0.00201106
0.0667854
-0.00302193
0.00121361
0.0674303
0.000645568
0.0687913
0.000133743
0.0713449
-0.000208336
0.0752716
-0.000508368
0.0789595
-0.00050933
0.0835609
-0.000476228
0.0871693
-0.000222753
0.0912241
0.0944323
0.0031647
0.0675323
-0.00391156
0.00245102
0.068144
0.00183961
0.0694027
0.00124617
0.0719384
0.000770654
0.0757472
0.000307307
0.0794228
0.000124138
0.0837441
-5.5505e-05
0.0873489
5.76906e-06
0.0911628
0.0944381
0.00438267
0.0679919
-0.00484224
0.00377628
0.0687504
0.00313351
0.0700455
0.00244301
0.0726289
0.00182474
0.0763654
0.0012131
0.0800345
0.000821836
0.0841354
0.000460219
0.0877105
0.000253404
0.0913696
0.0946915
0.00563295
0.0681529
-0.00579399
0.00517134
0.069212
0.00451961
0.0706972
0.0037386
0.0734099
0.00297141
0.0771326
0.00218826
0.0808176
0.00157455
0.0847491
0.000985379
0.0882997
0.000515242
0.0918397
0.0952068
0.00692553
0.0679931
-0.00676575
0.00663956
0.0694979
0.00599886
0.0713379
0.00513318
0.0742756
0.00421105
0.0780547
0.00323935
0.0817893
0.00238518
0.0856033
0.00154604
0.0891388
0.000793229
0.0925925
0.096
0.00827198
0.0674905
-0.00776935
0.008184
0.0695859
0.00757004
0.0719519
0.00662337
0.0752222
0.00554032
0.0791378
0.00436432
0.0829653
0.00325307
0.0867145
0.00214264
0.0902493
0.00108813
0.0936471
0.0970881
0.00968225
0.0666329
-0.00882465
0.00980462
0.0694635
0.00922816
0.0725283
0.00820244
0.076248
0.00695297
0.0803873
0.00555879
0.0843595
0.00417567
0.0880976
0.00277414
0.0916508
0.00140012
0.0950211
0.0984882
0.0111658
0.0654211
-0.00995392
0.0115
0.0691293
0.0109663
0.073062
0.00986188
0.0773524
0.00844132
0.0818078
0.00681726
0.0859836
0.00514961
0.0897653
0.00343914
0.0933613
0.00172923
0.096731
0.100217
0.0127291
-0.0111774
0.0132665
0.012776
0.0115921
0.00999707
0.00813381
0.00617137
0.00413627
0.00207552
0.000633767
-0.000617138
0.00217763
-0.00324997
0.00443369
-0.00611865
0.00725727
-0.00888851
0.0105361
-0.0113896
0.0141837
-0.0135322
0.0181416
-0.0152758
0.0223947
-0.0166192
0.0270288
-0.0176244
-0.0185477
0.000716371
-0.00133351
0.00240666
-0.00494026
0.00483767
-0.00854966
0.00784387
-0.0118947
0.011301
-0.0148467
0.0151169
-0.0173481
0.0192305
-0.0193894
0.0236134
-0.0210021
0.0282631
-0.0222741
-0.0233726
0.000794179
-0.00212769
0.00261334
-0.00675941
0.00518628
-0.0111226
0.0083239
-0.0150323
0.0118862
-0.018409
0.0157691
-0.021231
0.0198976
-0.0235178
0.0242173
-0.0253218
0.0286727
-0.0267295
-0.0278459
0.000862605
-0.00299029
0.00278354
-0.00868035
0.00545239
-0.0137915
0.00865559
-0.0182355
0.0122371
-0.0219906
0.0160818
-0.0250757
0.0201047
-0.0275407
0.0242407
-0.0294579
0.0284264
-0.0309152
-0.031995
0.000916984
-0.00390728
0.00290378
-0.0106671
0.00561172
-0.0164994
0.00880436
-0.0214282
0.0123128
-0.025499
0.0160158
-0.0287787
0.0198276
-0.0313526
0.023687
-0.0333173
0.027544
-0.0347722
-0.0358006
0.00095279
-0.00486007
0.00296191
-0.0126763
0.00564396
-0.0191814
0.0087437
-0.0245279
0.0120848
-0.02884
0.015547
-0.0322409
0.0190524
-0.0348579
0.0225529
-0.0368178
0.0260197
-0.038239
-0.0392175
0.000965845
-0.00582591
0.00294782
-0.0146582
0.00553394
-0.0217676
0.00845643
-0.0274504
0.0115383
-0.0319219
0.0146678
-0.0353703
0.0177807
-0.0379709
0.0208477
-0.0398848
0.0238618
-0.0412532
-0.0421883
0.000952578
-0.00677849
0.0028541
-0.0165598
0.00527264
-0.0241861
0.00793574
-0.0301135
0.0106733
-0.0346595
0.0133878
-0.0380849
0.0160338
-0.0406169
0.0186018
-0.0424527
0.0211049
-0.0437563
-0.0446549
0.000910291
-0.00768878
0.00267663
-0.0183261
0.00485796
-0.0263674
0.00718595
-0.0324415
0.00950448
-0.036978
0.0117353
-0.0403156
0.0138534
-0.042735
0.0158687
-0.044468
0.0178111
-0.0456988
-0.0465655
0.000837251
-0.00852603
0.00241499
-0.0199038
0.00429496
-0.0282474
0.00622225
-0.0343688
0.00806087
-0.0388166
0.00975472
-0.0420095
0.0112997
-0.04428
0.0127229
-0.0458911
0.014067
-0.0470429
-0.0478791
0.000780933
-0.00930697
0.00214617
-0.0212691
0.00368011
-0.0297813
0.00515531
-0.035844
0.00646388
-0.0401252
0.00757525
-0.0431209
0.00850604
-0.0452108
0.00929847
-0.0466836
0.010005
-0.0477494
-0.0485522
0.000667025
-0.00997399
0.00175951
-0.0223616
0.00289476
-0.0309166
0.00387797
-0.0368272
0.00463074
-0.040878
0.00514619
-0.0436363
0.00545801
-0.0455226
0.00561922
-0.0468448
0.0056879
-0.0478181
-0.0485819
0.000530533
-0.0105045
0.00131521
-0.0231462
0.00201921
-0.0316206
0.0024875
-0.0372955
0.00267284
-0.0410633
0.00259013
-0.0435536
0.00228642
-0.0452189
0.00182176
-0.0463801
0.00125674
-0.0472531
-0.047967
0.000375014
-0.0108795
0.000825972
-0.0235972
0.0010794
-0.031874
0.00102551
-0.0372416
0.000648131
-0.0406859
-1.8994e-05
-0.0428865
-0.000919646
-0.0443183
-0.00199068
-0.0453091