/*--------------------------------*- C++ -*----------------------------------*\
  =========                 |
  \\      /  F ield         | OpenFOAM: The Open Source CFD Toolbox
   \\    /   O peration     | Website:  https://openfoam.org
    \\  /    A nd           | Version:  7
     \\/     M anipulation  |
\*---------------------------------------------------------------------------*/
FoamFile
{
    version     2.0;
    format      ascii;
    class       volScalarField;
    location    "0.15";
    object      p;
}
// * * * * * * * * * * * * * * * * * * * * * * * * * * * * * * * * * * * * * //

dimensions      [0 2 -2 0 0 0 0];

internalField   nonuniform List<scalar> 
400
(
7.38724e-06
-0.00588764
-0.0130278
-0.0184638
-0.0204802
-0.0182861
-0.0118179
-0.00152172
0.0118069
0.0271273
0.0432317
0.0588195
0.0725838
0.0833211
0.0900705
0.0922867
0.090049
0.0842853
0.0769021
0.0710355
0.00582649
-0.000237617
-0.0057639
-0.00947008
-0.0105135
-0.00834445
-0.00288959
0.00553639
0.0163391
0.0287167
0.0417214
0.0543256
0.0654987
0.0743028
0.0800046
0.0822032
0.0809793
0.0769908
0.0712673
0.0652572
0.013384
0.00496115
-0.00100468
-0.00441533
-0.00526379
-0.00325335
0.00161219
0.00903358
0.0185018
0.029341
0.0407484
0.0518441
0.0617357
0.0695989
0.0747683
0.076841
0.0758068
0.072069
0.0658504
0.0574613
0.0201859
0.00858569
0.00120334
-0.00267218
-0.00372704
-0.00188872
0.00272889
0.00978129
0.0187747
0.0290859
0.0399788
0.0506366
0.0602118
0.0678925
0.0729797
0.0749792
0.0737428
0.0694529
0.0616874
0.0500323
0.0245671
0.00963483
0.000567669
-0.00398503
-0.00530264
-0.00350608
0.00117723
0.00833602
0.0174607
0.0279437
0.0390747
0.0500544
0.0600284
0.0681411
0.0736016
0.0757734
0.0743422
0.0692884
0.0596431
0.0444508
0.0252716
0.00698675
-0.00382195
-0.00904899
-0.0105082
-0.00849457
-0.0033499
0.00443554
0.014317
0.0256787
0.0378085
0.0498924
0.0610315
0.0702819
0.0767114
0.0794925
0.0781088
0.0723335
0.0606902
0.0417775
0.0212244
-0.000446643
-0.0129478
-0.0186909
-0.0200182
-0.0174016
-0.0113046
-0.00230665
0.00900107
0.021983
0.0359112
0.0499397
0.0631006
0.0743275
0.0825002
0.0865438
0.0856847
0.0794453
0.0658045
0.0429241
0.0113214
-0.0138192
-0.0278758
-0.0338199
-0.0345797
-0.0308343
-0.0231887
-0.0123222
0.00112516
0.0165
0.0330629
0.0499365
0.0660777
0.0802755
0.0911793
0.0974005
0.0978236
0.0916272
0.0761134
0.048921
-0.00572763
-0.0344808
-0.0498517
-0.0554927
-0.0550499
-0.0494773
-0.0395564
-0.0260781
-0.0097251
0.00885035
0.0289218
0.0496055
0.0697987
0.0881438
0.103026
0.112665
0.115488
0.110169
0.0930842
0.0611498
-0.0315394
-0.0641013
-0.0803725
-0.0849241
-0.0823601
-0.0740249
-0.0609294
-0.0439881
-0.0239067
-0.00129716
0.0231782
0.0486836
0.0741051
0.0979662
0.118374
0.133081
0.139903
0.136772
0.118722
0.0815792
-0.0682471
-0.104837
-0.121266
-0.123475
-0.117434
-0.105057
-0.0876526
-0.0662641
-0.0415798
-0.0141034
0.0156506
0.0469876
0.0788751
0.109794
0.137602
0.15953
0.172611
0.173696
0.155828
0.113083
-0.118845
-0.159595
-0.174794
-0.172606
-0.161046
-0.142845
-0.119682
-0.0927053
-0.0625098
-0.0293842
0.00643032
0.0445203
0.084086
0.123712
0.161116
0.193021
0.215515
0.223944
0.20837
0.159953
-0.187886
-0.232474
-0.243767
-0.233762
-0.213577
-0.187062
-0.15629
-0.122424
-0.0858241
-0.0464004
-0.0039466
0.0415983
0.0898867
0.13985
0.189307
0.234619
0.270886
0.291466
0.282045
0.228825
-0.283
-0.32949
-0.3316
-0.308073
-0.274591
-0.236352
-0.195687
-0.153537
-0.109767
-0.0636699
-0.014362
0.0389358
0.0966161
0.158318
0.222381
0.285228
0.341187
0.381296
0.38512
0.330525
-0.418123
-0.459698
-0.442033
-0.395594
-0.342043
-0.287679
-0.234561
-0.182873
-0.131547
-0.0789128
-0.0231334
0.0375614
0.104638
0.178912
0.25991
0.344955
0.428424
0.499322
0.529624
0.483709
-0.61937
-0.63654
-0.578301
-0.494058
-0.411206
-0.335634
-0.267753
-0.205939
-0.147488
-0.089317
-0.0283443
0.038445
0.113913
0.200582
0.300074
0.412081
0.532948
0.651432
0.732444
0.720584
-0.935556
-0.878149
-0.741661
-0.598042
-0.47438
-0.372615
-0.288829
-0.217717
-0.153897
-0.0923946
-0.0286392
0.0417894
0.12337
0.220831
0.339025
0.48226
0.652276
0.841655
1.01495
1.09627
-1.48057
-1.20194
-0.920991
-0.692544
-0.517678
-0.387701
-0.290188
-0.213411
-0.14814
-0.0871808
-0.0244945
0.0455942
0.129135
0.233327
0.367386
0.543139
0.772641
1.06029
1.39819
1.73406
-2.57156
-1.60191
-1.04347
-0.714837
-0.497811
-0.353397
-0.255534
-0.184279
-0.126581
-0.0737598
-0.0191784
0.0431005
0.119799
0.219686
0.356034
0.549845
0.829828
1.23508
1.88111
2.95926
-4.4451
-2.01727
-0.969806
-0.564358
-0.35707
-0.239059
-0.169374
-0.123303
-0.087178
-0.0533495
-0.0166459
0.0275535
0.0843426
0.161238
0.271619
0.441397
0.718831
1.22152
2.38403
4.92939
)
;

boundaryField
{
    movingWall
    {
        type            zeroGradient;
    }
    fixedWalls
    {
        type            zeroGradient;
    }
    frontAndBack
    {
        type            empty;
    }
}


// ************************************************************************* //
