/*--------------------------------*- C++ -*----------------------------------*\
  =========                 |
  \\      /  F ield         | OpenFOAM: The Open Source CFD Toolbox
   \\    /   O peration     | Website:  https://openfoam.org
    \\  /    A nd           | Version:  7
     \\/     M anipulation  |
\*---------------------------------------------------------------------------*/
FoamFile
{
    version     2.0;
    format      ascii;
    class       surfaceScalarField;
    location    "0.15";
    object      phi;
}
// * * * * * * * * * * * * * * * * * * * * * * * * * * * * * * * * * * * * * //

dimensions      [0 3 -1 0 0 0 0];

internalField   nonuniform List<scalar> 
760
(
1.42407e-08
-1.42797e-08
-2.23432e-08
3.65838e-08
-1.14174e-07
9.18312e-08
-2.45166e-07
1.30992e-07
-3.95564e-07
1.50398e-07
-5.4664e-07
1.51077e-07
-6.82295e-07
1.35655e-07
-7.89633e-07
1.07338e-07
-8.59093e-07
6.946e-08
-8.84501e-07
2.54081e-08
-8.63216e-07
-2.12857e-08
-7.96379e-07
-6.6837e-08
-6.89219e-07
-1.0716e-07
-5.51285e-07
-1.37934e-07
-3.96452e-07
-1.54833e-07
-2.42465e-07
-1.53988e-07
-1.09679e-07
-1.32786e-07
-1.85783e-08
-9.11008e-08
1.57511e-08
-3.43295e-08
1.5751e-08
-3.43216e-08
2.00418e-08
-1.80231e-07
1.82493e-07
-4.33559e-07
3.4516e-07
-7.63484e-07
4.60918e-07
-1.13064e-06
5.17552e-07
-1.49504e-06
5.1548e-07
-1.82057e-06
4.61188e-07
-2.07733e-06
3.64098e-07
-2.2428e-06
2.34922e-07
-2.30247e-06
8.50825e-08
-2.25044e-06
-7.33189e-08
-2.08988e-06
-2.27394e-07
-1.83355e-06
-3.63489e-07
-1.50391e-06
-4.67573e-07
-1.1326e-06
-5.26149e-07
-7.58669e-07
-5.27919e-07
-4.25054e-07
-4.66402e-07
-1.72597e-07
-3.43557e-07
-3.09791e-08
-1.75947e-07
-1.5228e-08
-9.19617e-08
1.12003e-07
-3.56475e-07
4.47006e-07
-7.63536e-07
7.52221e-07
-1.26676e-06
9.64138e-07
-1.81216e-06
1.06295e-06
-2.34569e-06
1.04902e-06
-2.81836e-06
9.33857e-07
-3.18931e-06
7.35046e-07
-3.42763e-06
4.73238e-07
-3.51342e-06
1.70874e-07
-3.43862e-06
-1.4812e-07
-3.20768e-06
-4.58331e-07
-2.83812e-06
-7.33053e-07
-2.36056e-06
-9.45132e-07
-1.81789e-06
-1.06881e-06
-1.26288e-06
-1.08293e-06
-7.53605e-07
-9.75677e-07
-3.46518e-07
-7.50645e-07
-8.70938e-08
-4.35372e-07
-1.02322e-07
-1.44926e-07
2.56929e-07
-5.24697e-07
8.26777e-07
-1.08016e-06
1.30768e-06
-1.74515e-06
1.62913e-06
-2.45102e-06
1.76881e-06
-3.13213e-06
1.73013e-06
-3.73023e-06
1.53195e-06
-4.19721e-06
1.20203e-06
-4.49683e-06
7.72855e-07
-4.60571e-06
2.79756e-07
-4.51419e-06
-2.39638e-07
-4.22709e-06
-7.45434e-07
-3.76438e-06
-1.19576e-06
-3.16149e-06
-1.54802e-06
-2.46868e-06
-1.76162e-06
-1.74883e-06
-1.80278e-06
-1.07315e-06
-1.65137e-06
-5.14447e-07
-1.30934e-06
-1.39052e-07
-8.10767e-07
-2.41373e-07
-1.93322e-07
4.5025e-07
-6.841e-07
1.31755e-06
-1.38386e-06
2.00745e-06
-2.20447e-06
2.44974e-06
-3.06164e-06
2.62598e-06
-3.87894e-06
2.54743e-06
-4.59079e-06
2.24381e-06
-5.1442e-06
1.75544e-06
-5.49964e-06
1.1283e-06
-5.63157e-06
4.11688e-07
-5.52895e-06
-3.4226e-07
-5.19599e-06
-1.07839e-06
-4.65318e-06
-1.73857e-06
-3.93814e-06
-2.26306e-06
-3.10592e-06
-2.59385e-06
-2.22779e-06
-2.6809e-06
-1.38795e-06
-2.49121e-06
-6.77656e-07
-2.01964e-06
-1.87495e-07
-1.30093e-06
-4.28867e-07
-2.39635e-07
6.89885e-07
-8.39369e-07
1.91729e-06
-1.68137e-06
2.84945e-06
-2.65407e-06
3.42244e-06
-3.65676e-06
3.62867e-06
-4.60267e-06
3.49335e-06
-5.42038e-06
3.06152e-06
-6.05393e-06
2.38899e-06
-6.46229e-06
1.53666e-06
-6.61883e-06
5.68225e-07
-6.51122e-06
-4.49875e-07
-6.14209e-06
-1.44752e-06
-5.53047e-06
-2.35019e-06
-4.71372e-06
-3.07981e-06
-3.74929e-06
-3.55828e-06
-2.71544e-06
-3.71476e-06
-1.70961e-06
-3.49703e-06
-8.43692e-07
-2.88556e-06
-2.35869e-07
-1.90875e-06
-6.64736e-07
-2.86422e-07
9.76307e-07
-9.96074e-07
2.62694e-06
-1.98013e-06
3.8335e-06
-3.10194e-06
4.54425e-06
-4.2439e-06
4.77063e-06
-5.30981e-06
4.55926e-06
-6.2243e-06
3.97601e-06
-6.93074e-06
3.09542e-06
-7.38865e-06
1.99457e-06
-7.57161e-06
7.51185e-07
-7.46621e-06
-5.55272e-07
-7.07247e-06
-1.84126e-06
-6.40578e-06
-3.01688e-06
-5.50025e-06
-3.98534e-06
-4.41269e-06
-4.64584e-06
-3.2261e-06
-4.90135e-06
-2.05083e-06
-4.6723e-06
-1.02145e-06
-3.91494e-06
-2.87917e-07
-2.64228e-06
-9.52653e-07
-3.3599e-07
1.3123e-06
-1.15936e-06
3.45031e-06
-2.28611e-06
4.96025e-06
-3.55212e-06
5.81026e-06
-4.82282e-06
6.04134e-06
-5.99445e-06
5.73088e-06
-6.99074e-06
4.9723e-06
-7.7577e-06
3.86239e-06
-8.25831e-06
2.49517e-06
-8.46825e-06
9.61126e-07
-8.37359e-06
-6.49934e-07
-7.9707e-06
-2.24415e-06
-7.26875e-06
-3.71882e-06
-6.29471e-06
-4.95938e-06
-5.10023e-06
-5.84032e-06
-3.76909e-06
-6.23249e-06
-2.42257e-06
-6.01882e-06
-1.21951e-06
-5.118e-06
-3.4727e-07
-3.51452e-06
-1.29992e-06
-3.9059e-07
1.70289e-06
-1.33388e-06
4.3936e-06
-2.60316e-06
6.22953e-06
-4.00331e-06
7.21041e-06
-5.38346e-06
7.42148e-06
-6.63579e-06
6.98322e-06
-7.68799e-06
6.0245e-06
-8.49365e-06
4.66804e-06
-9.02332e-06
3.02484e-06
-9.25763e-06
1.19544e-06
-9.18325e-06
-7.2431e-07
-8.79209e-06
-2.63531e-06
-8.08411e-06
-4.4268e-06
-7.07408e-06
-5.96941e-06
-5.80193e-06
-7.11247e-06
-4.34546e-06
-7.68897e-06
-2.83226e-06
-7.53202e-06
-1.44565e-06
-6.50461e-06
-4.17553e-07
-4.54261e-06
-1.71748e-06
-4.53037e-07
2.15592e-06
-1.52465e-06
5.46522e-06
-2.93315e-06
7.63802e-06
-4.44777e-06
8.72504e-06
-5.90354e-06
8.87725e-06
-7.19473e-06
8.2744e-06
-8.26036e-06
7.09013e-06
-9.06859e-06
5.47628e-06
-9.60323e-06
3.55948e-06
-9.85378e-06
1.44598e-06
-9.80941e-06
-7.6868e-07
-9.45716e-06
-2.98756e-06
-8.78474e-06
-5.09922e-06
-7.7886e-06
-6.96555e-06
-6.48799e-06
-8.41308e-06
-4.94424e-06
-9.23271e-06
-3.28225e-06
-9.19401e-06
-1.70694e-06
-8.07992e-06
-5.02888e-07
-5.74666e-06
-2.22036e-06
-5.27846e-07
2.68377e-06
-1.73854e-06
6.67591e-06
-3.27626e-06
9.17574e-06
-4.86957e-06
1.03183e-05
-6.34486e-06
1.03525e-05
-7.60874e-06
9.53828e-06
-8.62238e-06
8.10378e-06
-9.37779e-06
6.23169e-06
-9.87908e-06
4.06077e-06
-1.01295e-05
1.69638e-06
-1.01234e-05
-7.74712e-07
-9.84359e-06
-3.26741e-06
-9.26278e-06
-5.68004e-06
-8.35268e-06
-7.87564e-06
-7.10077e-06
-9.66499e-06
-5.53686e-06
-1.07966e-05
-3.76746e-06
-1.09634e-05
-2.01003e-06
-9.83735e-06
-6.08797e-07
-7.14789e-06
-2.82916e-06
-6.23124e-07
3.30689e-06
-1.98611e-06
8.03889e-06
-3.63014e-06
1.08198e-05
-5.24014e-06
1.19283e-05
-6.64613e-06
1.17585e-05
-7.78353e-06
1.06757e-05
-8.65055e-06
8.9708e-06
-9.27421e-06
6.85535e-06
-9.68661e-06
4.47317e-06
-9.90982e-06
1.91959e-06
-9.94691e-06
-7.37627e-07
-9.77768e-06
-3.43663e-06
-9.35921e-06
-6.09851e-06
-8.63307e-06
-8.60179e-06
-7.54305e-06
-1.0755e-05
-6.06779e-06
-1.22719e-05
-4.27066e-06
-1.27605e-05
-2.36109e-06
-1.17469e-05
-7.43736e-07
-8.76524e-06
-3.5729e-06
-7.53695e-07
4.06059e-06
-2.28299e-06
9.56819e-06
-3.98517e-06
1.25219e-05
-5.50761e-06
1.34508e-05
-6.70896e-06
1.29599e-05
-7.57888e-06
1.15456e-05
-8.17125e-06
9.56318e-06
-8.55949e-06
7.24359e-06
-8.80997e-06
4.72365e-06
-8.96732e-06
2.07695e-06
-9.04632e-06
-6.58635e-07
-9.02702e-06
-3.45593e-06
-8.85286e-06
-6.27267e-06
-8.43385e-06
-9.0208e-06
-7.66064e-06
-1.15282e-05
-6.43868e-06
-1.34938e-05
-4.75258e-06
-1.44466e-05
-2.76401e-06
-1.37355e-05
-9.21568e-07
-1.06077e-05
-4.49446e-06
-9.45803e-07
5.00639e-06
-2.64749e-06
1.12699e-05
-4.30928e-06
1.41837e-05
-5.57233e-06
1.47138e-05
-6.37105e-06
1.37586e-05
-6.78502e-06
1.19596e-05
-6.94344e-06
9.7216e-06
-6.97358e-06
7.27373e-06
-6.97718e-06
4.72725e-06
-7.02106e-06
2.12083e-06
-7.13291e-06
-5.46783e-07
-7.2974e-06
-3.29144e-06
-7.45121e-06
-6.11886e-06
-7.47903e-06
-8.99297e-06
-7.21746e-06
-1.17898e-05
-6.4807e-06
-1.42306e-05
-5.13048e-06
-1.57968e-05
-3.21298e-06
-1.5653e-05
-1.16484e-06
-1.26558e-05
-5.6593e-06
-1.24129e-06
6.24768e-06
-3.08406e-06
1.31127e-05
-4.5068e-06
1.56065e-05
-5.23459e-06
1.54416e-05
-5.35703e-06
1.3881e-05
-5.08526e-06
1.16878e-05
-4.63569e-06
9.27202e-06
-4.18509e-06
6.82312e-06
-3.86087e-06
4.40303e-06
-3.74382e-06
2.00379e-06
-3.87182e-06
-4.18782e-07
-4.23881e-06
-2.92445e-06
-4.78733e-06
-5.57035e-06
-5.39501e-06
-8.38529e-06
-5.86084e-06
-1.1324e-05
-5.90721e-06
-1.41842e-05
-5.23233e-06
-1.64717e-05
-3.66741e-06
-1.72179e-05
-1.50495e-06
-1.48183e-05
-7.16425e-06
-1.68708e-06
7.93476e-06
-3.51979e-06
1.49454e-05
-4.31693e-06
1.64036e-05
-4.09115e-06
1.52158e-05
-3.19698e-06
1.29869e-05
-2.00417e-06
1.0495e-05
-8.01849e-07
8.0697e-06
2.11627e-07
5.80964e-06
9.09879e-07
3.70477e-06
1.2169e-06
1.69677e-06
1.09328e-06
-2.95167e-07
5.32526e-07
-2.36369e-06
-4.30904e-07
-4.60692e-06
-1.69972e-06
-7.11647e-06
-3.0786e-06
-9.94508e-06
-4.23605e-06
-1.30268e-05
-4.7008e-06
-1.6007e-05
-3.9771e-06
-1.79416e-05
-1.96112e-06
-1.68343e-05
-9.12537e-06
-2.27143e-06
1.02062e-05
-3.60941e-06
1.62833e-05
-3.08374e-06
1.58779e-05
-1.34936e-06
1.34815e-05
8.90396e-07
1.07471e-05
3.14739e-06
8.238e-06
5.12971e-06
6.08738e-06
6.67961e-06
4.25974e-06
7.71623e-06
2.66816e-06
8.19661e-06
1.21639e-06
8.09369e-06
-1.92251e-07
7.38879e-06
-1.65879e-06
6.07669e-06
-3.29481e-06
4.18913e-06
-5.22891e-06
1.84407e-06
-7.60001e-06
-6.72237e-07
-1.05105e-05
-2.80537e-06
-1.38739e-05
-3.69002e-06
-1.7057e-05
-2.46042e-06
-1.80639e-05
-1.15858e-05
-2.69701e-06
1.29032e-05
-2.20774e-06
1.57941e-05
7.13166e-07
1.2957e-05
4.46254e-06
9.73209e-06
8.12438e-06
7.08529e-06
1.12919e-05
5.07045e-06
1.38191e-05
3.56019e-06
1.56779e-05
2.40095e-06
1.68813e-05
1.46478e-06
1.74443e-05
6.53407e-07
1.73655e-05
-1.13449e-07
1.66193e-05
-9.126e-07
1.51556e-05
-1.83114e-06
1.29117e-05
-2.98497e-06
9.84987e-06
-4.53822e-06
6.05034e-06
-6.71095e-06
1.89929e-06
-9.7228e-06
-1.59577e-06
-1.35619e-05
-2.5942e-06
-1.70654e-05
-1.418e-05
-5.79033e-07
1.34822e-05
4.12007e-06
1.1095e-05
1.02995e-05
6.77764e-06
1.57876e-05
4.24397e-06
2.01489e-05
2.72394e-06
2.3448e-05
1.77137e-06
2.58509e-05
1.15735e-06
2.75119e-05
7.39897e-07
2.85446e-05
4.32101e-07
2.90168e-05
1.81197e-07
2.89526e-05
-4.92271e-08
2.83285e-05
-2.88576e-07
2.7071e-05
-5.73574e-07
2.50439e-05
-9.57863e-07
2.20416e-05
-1.53595e-06
1.78092e-05
-2.47853e-06
1.21745e-05
-4.08815e-06
5.52132e-06
-6.90867e-06
9.58527e-08
-1.164e-05
-1.40841e-05
1.34822e-05
2.45772e-05
3.13548e-05
3.55988e-05
3.83228e-05
4.00941e-05
4.12515e-05
4.19914e-05
4.24235e-05
4.26047e-05
4.25554e-05
4.22669e-05
4.16933e-05
4.07354e-05
3.91995e-05
3.67209e-05
3.26328e-05
2.57241e-05
1.40841e-05
)
;

boundaryField
{
    movingWall
    {
        type            calculated;
        value           uniform 0;
    }
    fixedWalls
    {
        type            calculated;
        value           uniform 0;
    }
    frontAndBack
    {
        type            empty;
        value           nonuniform 0();
    }
}


// ************************************************************************* //
