/*--------------------------------*- C++ -*----------------------------------*\
  =========                 |
  \\      /  F ield         | OpenFOAM: The Open Source CFD Toolbox
   \\    /   O peration     | Website:  https://openfoam.org
    \\  /    A nd           | Version:  7
     \\/     M anipulation  |
\*---------------------------------------------------------------------------*/
FoamFile
{
    version     2.0;
    format      ascii;
    class       volVectorField;
    location    "0.15";
    object      U;
}
// * * * * * * * * * * * * * * * * * * * * * * * * * * * * * * * * * * * * * //

dimensions      [0 1 -1 0 0 0 0];

internalField   nonuniform List<vector> 
400
(
(0.0002592 -0.00025424 0)
(0.000148756 0.000103978 0)
(-0.00117438 0.000550422 0)
(-0.00347711 0.000867041 0)
(-0.00636897 0.00102584 0)
(-0.00945677 0.00104173 0)
(-0.0123866 0.000939638 0)
(-0.0148655 0.000745825 0)
(-0.0166679 0.000485029 0)
(-0.0176356 0.000180851 0)
(-0.0176796 -0.000142706 0)
(-0.0167838 -0.000459747 0)
(-0.0150112 -0.000741543 0)
(-0.0125095 -0.000956526 0)
(-0.00951461 -0.00107145 0)
(-0.00634743 -0.00105435 0)
(-0.00339737 -0.00088043 0)
(-0.0010835 -0.000542727 0)
(0.000203678 -8.4347e-05 0)
(0.000272789 0.000265371 0)
(-6.72836e-05 -0.000174651 0)
(-0.00160006 0.0016365 0)
(-0.00568843 0.00359835 0)
(-0.0117064 0.00500988 0)
(-0.0188673 0.00571564 0)
(-0.0263628 0.00573258 0)
(-0.0334192 0.00514669 0)
(-0.0393667 0.0040726 0)
(-0.0436766 0.00263469 0)
(-0.0459761 0.000962145 0)
(-0.0460586 -0.000809363 0)
(-0.0438946 -0.00253488 0)
(-0.0396421 -0.00405923 0)
(-0.0336542 -0.00522038 0)
(-0.0264774 -0.00585909 0)
(-0.0188317 -0.0058375 0)
(-0.0115562 -0.00507028 0)
(-0.00551006 -0.00357144 0)
(-0.00148319 -0.00155288 0)
(-3.36019e-05 0.000232051 0)
(-0.000511388 0.00108847 0)
(-0.00368948 0.00573274 0)
(-0.0105757 0.010211 0)
(-0.0199662 0.0133877 0)
(-0.0307226 0.0149239 0)
(-0.0417634 0.0148166 0)
(-0.0520456 0.013236 0)
(-0.0606571 0.0104408 0)
(-0.0668732 0.00673232 0)
(-0.0701818 0.00243581 0)
(-0.0703 -0.00210268 0)
(-0.067189 -0.00651497 0)
(-0.0610668 -0.010413 0)
(-0.0524163 -0.0134006 0)
(-0.0419808 -0.0151008 0)
(-0.0307344 -0.0152032 0)
(-0.019806 -0.0135366 0)
(-0.0103521 -0.0101667 0)
(-0.00352802 -0.00554919 0)
(-0.000460369 -0.000945975 0)
(-0.000904825 0.00347371 0)
(-0.0056612 0.0122099 0)
(-0.0152823 0.0198962 0)
(-0.0278812 0.0251619 0)
(-0.0419295 0.0275567 0)
(-0.0561041 0.0270976 0)
(-0.0691596 0.0240736 0)
(-0.0800187 0.0189263 0)
(-0.0878309 0.0121783 0)
(-0.0919963 0.00439963 0)
(-0.0921812 -0.00380107 0)
(-0.0883337 -0.0117778 0)
(-0.0806993 -0.0188531 0)
(-0.0698323 -0.0243396 0)
(-0.0565965 -0.0275869 0)
(-0.0421414 -0.0280614 0)
(-0.0278234 -0.0254627 0)
(-0.0150761 -0.0198682 0)
(-0.00547597 -0.0119196 0)
(-0.0008387 -0.00321988 0)
(-0.001249 0.00686592 0)
(-0.00749804 0.0209312 0)
(-0.0197818 0.032468 0)
(-0.0354928 0.0400469 0)
(-0.0526784 0.0432282 0)
(-0.0697728 0.0421319 0)
(-0.085359 0.0372238 0)
(-0.0982407 0.0291713 0)
(-0.107489 0.018751 0)
(-0.112452 0.00680533 0)
(-0.112761 -0.00577022 0)
(-0.108344 -0.0180267 0)
(-0.0994426 -0.0289678 0)
(-0.0866352 -0.0375773 0)
(-0.0708507 -0.0428829 0)
(-0.0533664 -0.0440665 0)
(-0.0357441 -0.0406234 0)
(-0.0197136 -0.0325528 0)
(-0.00733311 -0.0205718 0)
(-0.0011737 -0.00648785 0)
(-0.00157055 0.0111977 0)
(-0.00927228 0.0318389 0)
(-0.0241845 0.0478912 0)
(-0.0429573 0.0579944 0)
(-0.0631871 0.0618531 0)
(-0.0830619 0.0597996 0)
(-0.101014 0.0525567 0)
(-0.115767 0.0410703 0)
(-0.126352 0.0264022 0)
(-0.132095 0.00968143 0)
(-0.132607 -0.0079034 0)
(-0.127785 -0.0250956 0)
(-0.117839 -0.0405677 0)
(-0.103322 -0.0529458 0)
(-0.0851755 -0.060883 0)
(-0.0647639 -0.0631951 0)
(-0.0438394 -0.0590649 0)
(-0.0244529 -0.0482863 0)
(-0.00920745 -0.0315263 0)
(-0.00149962 -0.0107123 0)
(-0.00189555 0.0164528 0)
(-0.0110676 0.0449246 0)
(-0.0286252 0.0661534 0)
(-0.0504338 0.07896 0)
(-0.0736142 0.0833403 0)
(-0.0961129 0.0799722 0)
(-0.116243 0.0699354 0)
(-0.132692 0.0545161 0)
(-0.144498 0.0350883 0)
(-0.151002 0.0130698 0)
(-0.151809 -0.0100716 0)
(-0.146779 -0.0327888 0)
(-0.136053 -0.05343 0)
(-0.120108 -0.0702464 0)
(-0.0998347 -0.0814614 0)
(-0.0766244 -0.0854248 0)
(-0.0523897 -0.0808634 0)
(-0.0295173 -0.0671987 0)
(-0.011226 -0.0448942 0)
(-0.00185249 -0.0159286 0)
(-0.00224725 0.0226639 0)
(-0.0129631 0.0602372 0)
(-0.0332263 0.0872646 0)
(-0.0580354 0.102876 0)
(-0.084007 0.107539 0)
(-0.108868 0.102441 0)
(-0.130867 0.0891396 0)
(-0.148722 0.06933 0)
(-0.161545 0.0447202 0)
(-0.168741 0.0170013 0)
(-0.169934 -0.0121179 0)
(-0.164944 -0.0408442 0)
(-0.153808 -0.0672348 0)
(-0.136858 -0.0891684 0)
(-0.114844 -0.10439 0)
(-0.0890955 -0.110667 0)
(-0.0616167 -0.106089 0)
(-0.0351177 -0.0894795 0)
(-0.0135154 -0.0608886 0)
(-0.00226746 -0.0222465 0)
(-0.0026493 0.0299087 0)
(-0.0150365 0.0778794 0)
(-0.0380915 0.111239 0)
(-0.0658075 0.12961 0)
(-0.0942653 0.134173 0)
(-0.121024 0.126838 0)
(-0.144358 0.109785 0)
(-0.163119 0.0851913 0)
(-0.176586 0.0551089 0)
(-0.184301 0.0214644 0)
(-0.185949 -0.0138601 0)
(-0.181312 -0.0489054 0)
(-0.170287 -0.0815081 0)
(-0.152977 -0.109209 0)
(-0.129875 -0.129244 0)
(-0.102104 -0.138679 0)
(-0.0716318 -0.134741 0)
(-0.0414324 -0.115347 0)
(-0.0162014 -0.0798172 0)
(-0.0027819 -0.0298487 0)
(-0.00313379 0.0383133 0)
(-0.0173828 0.0979993 0)
(-0.0433189 0.138056 0)
(-0.0737199 0.158891 0)
(-0.104107 0.162744 0)
(-0.131971 0.152527 0)
(-0.15576 0.131217 0)
(-0.17461 0.101544 0)
(-0.188096 0.0658946 0)
(-0.195992 0.0263632 0)
(-0.198107 -0.015101 0)
(-0.1942 -0.0564957 0)
(-0.183994 -0.0955562 0)
(-0.167277 -0.129571 0)
(-0.144127 -0.155278 0)
(-0.115256 -0.168934 0)
(-0.0823842 -0.166636 0)
(-0.0485962 -0.144979 0)
(-0.0194214 -0.102062 0)
(-0.00344327 -0.0389938 0)
(-0.00375587 0.0480732 0)
(-0.0201477 0.120791 0)
(-0.0490245 0.167606 0)
(-0.0816536 0.190202 0)
(-0.11301 0.192394 0)
(-0.140703 0.178466 0)
(-0.163581 0.152386 0)
(-0.181271 0.117495 0)
(-0.193809 0.0764699 0)
(-0.201322 0.0314646 0)
(-0.203814 -0.0156519 0)
(-0.201059 -0.0630067 0)
(-0.192589 -0.108411 0)
(-0.177788 -0.149057 0)
(-0.156146 -0.18127 0)
(-0.127699 -0.200437 0)
(-0.0935786 -0.201243 0)
(-0.0566861 -0.178406 0)
(-0.0233465 -0.128052 0)
(-0.00432348 -0.0500349 0)
(-0.00462031 0.059505 0)
(-0.0235777 0.146501 0)
(-0.0553597 0.199599 0)
(-0.0893465 0.222622 0)
(-0.120088 0.221731 0)
(-0.145652 0.203045 0)
(-0.165618 0.17172 0)
(-0.180367 0.131717 0)
(-0.190583 0.0859063 0)
(-0.196866 0.0363444 0)
(-0.199501 -0.01537 0)
(-0.198326 -0.0677093 0)
(-0.192693 -0.1188 0)
(-0.181533 -0.165977 0)
(-0.163585 -0.205354 0)
(-0.137893 -0.231495 0)
(-0.104528 -0.237435 0)
(-0.0656797 -0.215335 0)
(-0.0282143 -0.158219 0)
(-0.00554457 -0.0634625 0)
(-0.00592955 0.0731513 0)
(-0.0280912 0.17543 0)
(-0.0624848 0.233405 0)
(-0.09623 0.254582 0)
(-0.123834 0.248583 0)
(-0.144395 0.223898 0)
(-0.158687 0.187001 0)
(-0.16814 0.142379 0)
(-0.174245 0.0929108 0)
(-0.178167 0.0403466 0)
(-0.18053 -0.0142048 0)
(-0.181301 -0.0698006 0)
(-0.179713 -0.125162 0)
(-0.174265 -0.178101 0)
(-0.162862 -0.22486 0)
(-0.143258 -0.259437 0)
(-0.113875 -0.27314 0)
(-0.0753379 -0.254856 0)
(-0.0343668 -0.192907 0)
(-0.00732444 -0.079993 0)
(-0.00806441 0.0899668 0)
(-0.0343466 0.207863 0)
(-0.0703942 0.267707 0)
(-0.101002 0.283453 0)
(-0.121567 0.269685 0)
(-0.13313 0.237736 0)
(-0.138212 0.195319 0)
(-0.139534 0.147166 0)
(-0.139454 0.0958607 0)
(-0.139689 0.0425891 0)
(-0.141202 -0.0122454 0)
(-0.144139 -0.0685009 0)
(-0.147735 -0.125767 0)
(-0.15021 -0.182718 0)
(-0.148728 -0.236242 0)
(-0.139616 -0.280323 0)
(-0.119053 -0.30485 0)
(-0.084897 -0.294932 0)
(-0.0422532 -0.232151 0)
(-0.0100473 -0.100715 0)
(-0.0116777 0.111588 0)
(-0.0431809 0.243771 0)
(-0.0783059 0.299844 0)
(-0.100622 0.304959 0)
(-0.108368 0.280364 0)
(-0.105785 0.240308 0)
(-0.0976144 0.193222 0)
(-0.0878801 0.143502 0)
(-0.0796276 0.0929998 0)
(-0.0749219 0.0420689 0)
(-0.0749414 -0.00974508 0)
(-0.080023 -0.0632174 0)
(-0.0895805 -0.118985 0)
(-0.101883 -0.176935 0)
(-0.11375 -0.235236 0)
(-0.120333 -0.288793 0)
(-0.11527 -0.327046 0)
(-0.0922854 -0.331557 0)
(-0.0522176 -0.275135 0)
(-0.0143134 -0.127259 0)
(-0.0176174 0.140742 0)
(-0.0548987 0.281866 0)
(-0.0828702 0.324493 0)
(-0.0881114 0.312368 0)
(-0.0751673 0.274397 0)
(-0.0526863 0.226729 0)
(-0.027582 0.177257 0)
(-0.00466011 0.12911 0)
(0.0129366 0.0828906 0)
(0.023267 0.0379274 0)
(0.0252212 -0.00709048 0)
(0.018332 -0.0537732 0)
(0.00281267 -0.103762 0)
(-0.0201498 -0.158321 0)
(-0.0478198 -0.217482 0)
(-0.0750964 -0.278304 0)
(-0.0936458 -0.331668 0)
(-0.0922181 -0.357412 0)
(-0.0634759 -0.318929 0)
(-0.0207155 -0.162046 0)
(-0.0260064 0.182264 0)
(-0.0664856 0.317035 0)
(-0.0735261 0.330957 0)
(-0.0481532 0.29533 0)
(-0.00570005 0.244212 0)
(0.0410727 0.192389 0)
(0.0844921 0.145056 0)
(0.12036 0.102977 0)
(0.146514 0.0651361 0)
(0.16185 0.0298831 0)
(0.165738 -0.00468648 0)
(0.15773 -0.0406496 0)
(0.137527 -0.0802725 0)
(0.105238 -0.125943 0)
(0.0620585 -0.179736 0)
(0.0115956 -0.241996 0)
(-0.0380292 -0.307752 0)
(-0.0720124 -0.359648 0)
(-0.0709877 -0.355754 0)
(-0.0285839 -0.209052 0)
(-0.0317431 0.241377 0)
(-0.0630345 0.333924 0)
(-0.0219718 0.299642 0)
(0.0505656 0.240036 0)
(0.127394 0.182984 0)
(0.196806 0.135422 0)
(0.25414 0.0974246 0)
(0.298049 0.0668684 0)
(0.328618 0.0413633 0)
(0.346256 0.0187777 0)
(0.35116 -0.00280446 0)
(0.343081 -0.0252823 0)
(0.321241 -0.0508106 0)
(0.284408 -0.082071 0)
(0.23132 -0.122455 0)
(0.161923 -0.175637 0)
(0.079816 -0.243218 0)
(-0.0033531 -0.318144 0)
(-0.0573634 -0.366737 0)
(-0.0309152 -0.270211 0)
(0.00230826 0.28637 0)
(0.0143149 0.294061 0)
(0.139839 0.210075 0)
(0.26488 0.143061 0)
(0.364196 0.0968653 0)
(0.440136 0.0654988 0)
(0.49654 0.0440213 0)
(0.536679 0.028733 0)
(0.563255 0.0171006 0)
(0.578114 0.0074345 0)
(0.582187 -0.00149846 0)
(0.575496 -0.0108043 0)
(0.557098 -0.0217525 0)
(0.524912 -0.0361721 0)
(0.475532 -0.0570129 0)
(0.404342 -0.0890424 0)
(0.305591 -0.139239 0)
(0.174276 -0.215446 0)
(0.0352033 -0.310936 0)
(0.0120831 -0.304779 0)
(0.293148 0.148894 0)
(0.389649 0.127926 0)
(0.557568 0.0758009 0)
(0.674739 0.0433813 0)
(0.743786 0.0252376 0)
(0.787078 0.0149504 0)
(0.815452 0.00898583 0)
(0.833924 0.00534904 0)
(0.845348 0.00292475 0)
(0.851332 0.00109779 0)
(0.852624 -0.000501708 0)
(0.849339 -0.00217092 0)
(0.84096 -0.00424042 0)
(0.826103 -0.00726002 0)
(0.802019 -0.0122928 0)
(0.76355 -0.02146 0)
(0.699427 -0.0389165 0)
(0.584438 -0.0723427 0)
(0.409338 -0.128341 0)
(0.302176 -0.152205 0)
)
;

boundaryField
{
    movingWall
    {
        type            fixedValue;
        value           uniform (1 0 0);
    }
    fixedWalls
    {
        type            noSlip;
    }
    frontAndBack
    {
        type            empty;
    }
}


// ************************************************************************* //
