/*--------------------------------*- C++ -*----------------------------------*\
  =========                 |
  \\      /  F ield         | OpenFOAM: The Open Source CFD Toolbox
   \\    /   O peration     | Website:  https://openfoam.org
    \\  /    A nd           | Version:  7
     \\/     M anipulation  |
\*---------------------------------------------------------------------------*/
FoamFile
{
    version     2.0;
    format      ascii;
    class       surfaceScalarField;
    location    "82.4";
    object      phi;
}
// * * * * * * * * * * * * * * * * * * * * * * * * * * * * * * * * * * * * * //

dimensions      [0 3 -1 0 0 0 0];

internalField   nonuniform List<scalar> 
3880
(
-2.05927e-05
-0.000528236
0.000548829
-1.83105e-05
-0.00126276
0.00126048
2.02457e-05
-0.00168496
0.0016464
0.000102292
-0.00183896
0.00175692
0.000234681
-0.00175418
0.00162179
0.000425298
-0.00145066
0.00126004
0.000682221
-0.000943011
0.000686087
0.00101148
-0.000243974
-8.52809e-05
0.00141412
0.000632493
-0.00103514
0.00166963
0.00188305
-0.00213856
-9.42189e-06
-0.000518814
1.56568e-05
-0.00128784
8.28475e-05
-0.00175215
0.000195549
-0.00195166
0.000358075
-0.00191671
0.000577081
-0.00166967
0.000860688
-0.00122662
0.00121619
-0.000599476
0.00164696
0.000201725
0.00116791
0.00214868
6.65509e-06
-0.000525469
6.28316e-05
-0.00134402
0.000169541
-0.00185886
0.000325175
-0.0021073
0.000530596
-0.00212213
0.000790232
-0.0019293
0.00111129
-0.00154768
0.00150165
-0.000989829
0.00196678
-0.000263405
0.000628985
0.0025057
2.66726e-05
-0.000552142
0.00012189
-0.00143924
0.00027795
-0.00201492
0.00048782
-0.00231717
0.000748391
-0.0023827
0.00106122
-0.00224213
0.00143186
-0.00191832
0.00186797
-0.00142594
0.00237658
-0.000772013
4.5455e-05
0.00296011
5.03506e-05
-0.000602493
0.000190487
-0.00157937
0.000403405
-0.00222784
0.000676239
-0.00259
0.00100175
-0.00270821
0.00137841
-0.0026188
0.00180976
-0.00234966
0.00230268
-0.00191886
0.00286497
-0.0013343
-0.000591641
0.00350206
7.65118e-05
-0.000679005
0.000265103
-0.00176796
0.000538881
-0.00250162
0.000879086
-0.00293021
0.00127451
-0.00310363
0.00172079
-0.00306508
0.0022195
-0.00284837
0.00277665
-0.00247601
0.00340031
-0.00195796
-0.00128893
0.00409759
0.000103756
-0.00078276
0.000341237
-0.00200544
0.000675303
-0.00283568
0.00108141
-0.00333631
0.00154476
-0.00356698
0.0020586
-0.00357892
0.00262302
-0.00341279
0.00324355
-0.00309654
0.00392862
-0.00264303
-0.00204597
0.00468567
0.000130469
-0.000913229
0.000413692
-0.00228867
0.000802177
-0.00322417
0.00126585
-0.00379998
0.00178678
-0.00408791
0.00235634
-0.00414848
0.00297364
-0.00403009
0.00364438
-0.00376728
0.00437862
-0.00337728
-0.00285121
0.00518386
0.000154915
-0.00106814
0.000476931
-0.00261068
0.000908466
-0.0036557
0.00141437
-0.00430588
0.00197412
-0.00464767
0.00257767
-0.00475203
0.00322331
-0.00467572
0.00391696
-0.00446093
0.00467197
-0.00413228
-0.00368191
0.00550267
0.000175326
-0.00124347
0.000525467
-0.00296083
0.00098354
-0.00411378
0.00151014
-0.00483249
0.00208302
-0.00522054
0.00269134
-0.00536036
0.00333256
-0.00531694
0.00401141
-0.00513978
0.00474302
-0.00486389
0.0055715
-0.00451039
0.00329026
0.0156703
-0.0170775
0.00468713
0.0364021
-0.037799
0.00521902
0.0575844
-0.0581163
0.00506526
0.076978
-0.0768242
0.00450221
0.0961632
-0.0956001
0.00366929
0.116531
-0.115699
0.00265474
0.139482
-0.138467
0.00147893
0.169592
-0.168416
0.000472393
0.214373
-0.213367
0.268075
-0.267603
0.00362036
0.0141986
0.0053108
0.0347117
0.00614005
0.0567551
0.00617691
0.0769411
0.00570296
0.0966371
0.00487119
0.117363
0.00377772
0.140575
0.00244646
0.170923
0.00107869
0.215741
0.269154
0.00396329
0.012741
0.0058969
0.0327781
0.00703404
0.055618
0.00727897
0.0766962
0.00690426
0.0970118
0.00607716
0.11819
0.00490445
0.141748
0.00341147
0.172416
0.00169002
0.217463
0.270844
0.00432642
0.0113747
0.00642794
0.0306765
0.00787501
0.0541709
0.00834647
0.0762247
0.00808507
0.0972732
0.0072697
0.119006
0.00602166
0.142996
0.00436793
0.17407
0.00229456
0.219536
0.273139
0.00471691
0.0101598
0.00689338
0.0285001
0.0086389
0.0524254
0.00935508
0.0755085
0.00922444
0.0974039
0.00843228
0.119798
0.00711603
0.144312
0.0053054
0.175881
0.0028873
0.221954
0.276026
0.00513326
0.00912414
0.00728986
0.0263435
0.0093052
0.0504101
0.0102819
0.0745319
0.010302
0.0973838
0.00954712
0.120553
0.00817303
0.145686
0.00621273
0.177841
0.00346102
0.224706
0.279487
0.00555641
0.0082534
0.00761707
0.0242828
0.00985839
0.0481687
0.0111063
0.0732839
0.0113005
0.0971896
0.0106016
0.121252
0.00918379
0.147104
0.00708405
0.179941
0.00401489
0.227775
0.283502
0.00593888
0.00749838
0.00786882
0.0223529
0.010287
0.0457506
0.0118096
0.0717613
0.012197
0.0968023
0.0115711
0.121878
0.0101256
0.148549
0.00790246
0.182164
0.0045366
0.231141
0.288038
0.00619906
0.00680199
0.00802001
0.0205319
0.0105762
0.0431943
0.0123861
0.0699515
0.0130026
0.0961857
0.012475
0.122405
0.0110187
0.150006
0.00868038
0.184502
0.00503498
0.234786
0.293073
0.00629296
0.00608052
0.00810884
0.018716
0.0107378
0.0405654
0.0127815
0.0679078
0.0136309
0.0953363
0.0132291
0.122807
0.0118143
0.15142
0.00936872
0.186948
0.00551761
0.238637
0.298591
0.0193113
0.0108672
-0.0240979
0.0149482
0.0230791
0.0129507
0.0425629
0.0117814
0.0690771
0.0102575
0.0968601
0.00824931
0.124815
0.00570714
0.153963
0.00269936
0.189955
0.000236526
0.2411
0.298828
0.0201338
0.014283
-0.0235497
0.0156863
0.0275267
0.0128236
0.0454256
0.0113182
0.0705824
0.0097923
0.0983861
0.0078182
0.126789
0.0053195
0.156461
0.00245607
0.192819
0.000168435
0.243388
0.298996
0.0197077
0.0161869
-0.0216116
0.0160896
0.0311448
0.0129036
0.0486116
0.010928
0.072558
0.0092352
0.100079
0.00729879
0.128726
0.00492362
0.158836
0.00221299
0.19553
0.000105168
0.245496
0.299101
0.0183746
0.0170559
-0.0192435
0.0157064
0.033813
0.0127853
0.0515327
0.0106464
0.0746969
0.00883369
0.101892
0.00690386
0.130656
0.0046169
0.161123
0.00207815
0.198068
0.000109925
0.247464
0.299211
0.016658
0.0171737
-0.0167758
0.0147984
0.0356726
0.012326
0.0540051
0.0102481
0.0767748
0.00842851
0.103711
0.00652528
0.132559
0.00431795
0.163331
0.0019028
0.200483
6.70544e-05
0.2493
0.299278
0.0147303
0.0166334
-0.01419
0.0135847
0.0368181
0.0115767
0.0560131
0.00973657
0.0786149
0.00805822
0.10539
0.00624762
0.134369
0.00412955
0.165449
0.00184178
0.202771
0.000100633
0.251041
0.299379
0.0127635
0.0154639
-0.011594
0.0123355
0.0372462
0.0107959
0.0575527
0.00914219
0.0802686
0.0075927
0.106939
0.00590624
0.136056
0.00390511
0.16745
0.00171472
0.204962
7.10971e-05
0.252684
0.29945
0.010733
0.013733
-0.00900209
0.0109143
0.0370649
0.00991933
0.0585477
0.00861987
0.0815681
0.00725157
0.108307
0.0056838
0.137624
0.00377814
0.169356
0.00171166
0.207028
0.000137897
0.254258
0.299588
0.00922176
0.0112548
-0.00674363
0.0100529
0.0362337
0.00936897
0.0592317
0.0081805
0.0827565
0.00690471
0.109583
0.00544055
0.139088
0.0036209
0.171175
0.00162732
0.209022
0.000119386
0.255766
0.299707
0.00678431
-0.00381458
0.00868101
0.00887099
0.00803409
0.00686051
0.00540041
0.00364997
0.00168061
0.00023506
0.0055379
-0.0243369
-0.00529892
0.00513424
-0.023146
0.00441773
-0.0208951
0.00361212
-0.0184379
0.00277392
-0.0159376
0.00192035
-0.0133364
0.0010552
-0.0107289
0.000212484
-0.00815938
-0.000759837
-0.00577131
-0.00303903
0.00462586
-0.0242012
-0.00476152
0.00396277
-0.0224829
0.00310807
-0.0200404
0.00221341
-0.0175433
0.00130839
-0.0150326
0.000404099
-0.0124321
-0.00049884
-0.00982594
-0.00137585
-0.00728237
-0.00230719
-0.00483997
-0.00231771
0.00354495
-0.0237537
-0.00399252
0.00266632
-0.0216043
0.00170384
-0.0190779
0.000736943
-0.0165764
-0.000216892
-0.0140788
-0.0011488
-0.0115002
-0.0020591
-0.00891564
-0.00293025
-0.00641122
-0.00378784
-0.00398237
-0.00169052
0.00229242
-0.0230536
-0.00299245
0.00125761
-0.0205695
0.000220801
-0.0180411
-0.000789486
-0.0155661
-0.00176614
-0.0131021
-0.00270222
-0.0105641
-0.00359127
-0.00802658
-0.00441906
-0.00558344
-0.00517512
-0.00322632
-0.00117666
0.000886127
-0.0221475
-0.00179224
-0.000247161
-0.0194362
-0.00131809
-0.0169702
-0.00234498
-0.0145392
-0.00331516
-0.0121319
-0.00422429
-0.00965499
-0.0050633
-0.00718756
-0.00581683
-0.00482991
-0.00645303
-0.00259012
-0.000781305
-0.000620227
-0.0210895
-0.000437775
-0.00180884
-0.0182476
-0.0028836
-0.0158954
-0.00389383
-0.013529
-0.00482881
-0.011197
-0.00568394
-0.00879986
-0.00644826
-0.00642324
-0.00710503
-0.00417314
-0.00761404
-0.00208111
-0.000500217
-0.00218532
-0.0199052
0.001001
-0.00338017
-0.0170527
-0.0044293
-0.0148463
-0.00539676
-0.0125615
-0.00627271
-0.010321
-0.00705233
-0.00802024
-0.00772459
-0.00575098
-0.00827228
-0.00362545
-0.00865667
-0.00169672
-0.000322535
-0.00374109
-0.0186417
0.0024776
-0.00491041
-0.0158834
-0.00591211
-0.0138446
-0.00681635
-0.0116573
-0.00761615
-0.00952121
-0.00830623
-0.00733016
-0.00887761
-0.0051796
-0.00931395
-0.00318911
-0.00958416
-0.00142651
-0.000233242
-0.00523439
-0.0173418
0.00393448
-0.00635423
-0.0147635
-0.00729361
-0.0129052
-0.00812091
-0.01083
-0.00883501
-0.00880711
-0.00942955
-0.00673561
-0.00989972
-0.00470944
-0.0102311
-0.00285773
-0.0104031
-0.00125455
-0.000215196
-0.00661902
-0.0160424
0.00531963
-0.00767409
-0.0137085
-0.00854315
-0.0120362
-0.00928666
-0.0100864
-0.00991303
-0.00818074
-0.0104137
-0.00623491
-0.0107898
-0.00433342
-0.0110291
-0.00261837
-0.011122
-0.0011617
-0.000250568
-0.00785953
-0.0147732
0.00659027
-0.00884192
-0.0127261
-0.00963933
-0.0112388
-0.0102986
-0.00942722
-0.0108419
-0.00763737
-0.011257
-0.00581986
-0.0115516
-0.00403875
-0.0117162
-0.00245382
-0.0117504
-0.00112753
-0.000321725
-0.00893731
-0.0135556
0.00771972
-0.00984238
-0.011821
-0.0105716
-0.0105095
-0.0111512
-0.00884762
-0.0116212
-0.00716742
-0.0119635
-0.00547759
-0.0121931
-0.00380909
-0.0123023
-0.00234465
-0.0122981
-0.00113173
-0.000411674
-0.00984037
-0.0124041
0.00868887
-0.0106674
-0.010994
-0.0113362
-0.00984072
-0.0118454
-0.00833844
-0.0122551
-0.0067577
-0.0125409
-0.00519182
-0.0127239
-0.00362602
-0.0127979
-0.00227071
-0.0127748
-0.00115478
-0.000504239
-0.0105672
-0.0113254
0.00948852
-0.011318
-0.0102431
-0.0119365
-0.00922222
-0.0123878
-0.00788719
-0.0127523
-0.00639319
-0.0129996
-0.00494453
-0.013155
-0.0034706
-0.0132136
-0.00221215
-0.0131899
-0.00117844
-0.000584092
-0.0111237
-0.0103176
0.0101159
-0.0118019
-0.00956491
-0.0123811
-0.008643
-0.0127893
-0.00747899
-0.013124
-0.00605846
-0.0133515
-0.00471712
-0.0134978
-0.00332429
-0.0135598
-0.00215014
-0.0135524
-0.0011858
-0.000636676
-0.0115207
-0.00936862
0.0105717
-0.0121319
-0.00895372
-0.0126817
-0.00809321
-0.0130632
-0.00709744
-0.013383
-0.00573868
-0.0136088
-0.00449134
-0.0137635
-0.00316955
-0.0138466
-0.00206707
-0.0138712
-0.0011612
-0.000648093
-0.0117707
-0.00845551
0.0108576
-0.0123245
-0.00839993
-0.0128515
-0.00756618
-0.0132236
-0.00672535
-0.0135421
-0.00542018
-0.0137835
-0.00424991
-0.013963
-0.0029901
-0.0140835
-0.0019466
-0.0141547
-0.00109
-0.000604988
-0.0118784
-0.00755193
0.0109748
-0.0123927
-0.00788557
-0.0129015
-0.00705734
-0.0132825
-0.00634441
-0.0136131
-0.00508953
-0.0138866
-0.00397644
-0.0141061
-0.00277055
-0.0142793
-0.00177341
-0.014411
-0.000958293
-0.000494389
-0.0118405
-0.00664314
0.0109317
-0.0123492
-0.00737684
-0.0128438
-0.00656279
-0.0132516
-0.00593661
-0.0136076
-0.00473353
-0.0139284
-0.00365568
-0.0142024
-0.00249649
-0.0144427
-0.00153318
-0.0146482
-0.000752721
-0.000303502
-0.0117057
-0.00570895
0.0107715
-0.0122432
-0.00683937
-0.0127088
-0.00609713
-0.0131461
-0.00549931
-0.0135371
-0.00434252
-0.0139161
-0.00327666
-0.0142591
-0.00215349
-0.0145806
-0.00121171
-0.014875
-0.000458307
-2.04121e-05
-0.0519545
-0.0054799
0.0517254
-0.0532786
-0.00551524
-0.0546715
-0.00470426
-0.0560566
-0.00411417
-0.0572021
-0.00319701
-0.0580967
-0.00238209
-0.0587001
-0.0015501
-0.0590409
-0.000870883
-0.0591669
-0.000332292
-2.51466e-05
-0.061281
-0.00538572
0.0611868
-0.0621054
-0.00469091
-0.0629001
-0.00390954
-0.0637798
-0.00323439
-0.0644995
-0.00247735
-0.0650656
-0.00181598
-0.0654369
-0.0011788
-0.0656348
-0.000673013
-0.0656978
-0.000269243
-3.11979e-05
-0.0727212
-0.00542126
0.0727568
-0.0731324
-0.00427969
-0.073562
-0.00348002
-0.0740922
-0.00270414
-0.0745129
-0.00205665
-0.0748659
-0.00146304
-0.0750789
-0.000965747
-0.0751921
-0.000559833
-0.0752151
-0.000246224
-3.45379e-05
-0.0869539
-0.00544107
0.0869737
-0.0872144
-0.00401919
-0.0874587
-0.00323571
-0.087798
-0.00236479
-0.0880449
-0.00180983
-0.0882757
-0.00123223
-0.0883994
-0.000841995
-0.0884773
-0.000481936
-0.0884863
-0.000237233
-3.22958e-05
-0.104096
-0.00524029
0.103895
-0.104381
-0.00373427
-0.104611
-0.00300566
-0.10489
-0.00208502
-0.105082
-0.0016182
-0.105273
-0.00104174
-0.105375
-0.000739592
-0.105461
-0.000396342
-0.105486
-0.000211751
-1.65028e-05
-0.123082
-0.00472068
0.122563
-0.123518
-0.00329881
-0.123865
-0.00265805
-0.124177
-0.00177337
-0.124404
-0.00139163
-0.124604
-0.000841043
-0.124733
-0.00061088
-0.12485
-0.000278955
-0.124908
-0.000154026
9.07836e-06
-0.141761
-0.00385891
0.140899
-0.142395
-0.00266473
-0.14291
-0.00214323
-0.143292
-0.00139171
-0.143589
-0.00109468
-0.143811
-0.000618769
-0.143977
-0.000444495
-0.144107
-0.000149314
-0.144183
-7.79054e-05
3.30005e-05
-0.157594
-0.00271892
0.156454
-0.1584
-0.0018584
-0.159054
-0.0014897
-0.159495
-0.000950131
-0.159845
-0.000744582
-0.16007
-0.000394332
-0.160243
-0.000271604
-0.160343
-4.92503e-05
-0.160403
-1.79218e-05
3.97213e-05
-0.168723
-0.00140279
0.167407
-0.169634
-0.000947175
-0.170366
-0.000758007
-0.170838
-0.00047756
-0.171209
-0.000373815
-0.171415
-0.000188296
-0.171562
-0.00012424
-0.171608
-3.79895e-06
-0.17163
4.31056e-06
2.6446e-05
-0.174384
0.172981
-0.175331
-0.176089
-0.176567
-0.176941
-0.177129
-0.177253
-0.177257
-0.177253
-0.0119535
0.0527314
0.0109475
-0.0126587
0.061892
-0.0132309
0.0733289
-0.0135333
0.0872761
-0.0133395
0.103701
-0.0123708
0.121594
-0.0104422
0.138971
-0.00757341
0.153585
-0.00398361
0.163817
0.168998
-0.0113317
0.0534761
0.010587
-0.0119905
0.0625509
-0.0124954
0.0738338
-0.0127112
0.0874919
-0.0124402
0.10343
-0.0114469
0.120601
-0.00959189
0.137116
-0.00691619
0.150909
-0.00362367
0.160524
0.165374
-0.010746
0.0541615
0.0100606
-0.0113413
0.0631462
-0.011769
0.0742616
-0.0119098
0.0876327
-0.0115878
0.103108
-0.0106021
0.119615
-0.00884171
0.135355
-0.00635331
0.148421
-0.00332176
0.157493
0.162052
-0.0100665
0.0548248
0.00940327
-0.0106023
0.063682
-0.0109488
0.074608
-0.0110157
0.0876997
-0.0106516
0.102744
-0.00968815
0.118652
-0.00804022
0.133707
-0.00575699
0.146138
-0.00300345
0.154739
0.159049
-0.00927591
0.0554575
0.00864319
-0.00975538
0.0641614
-0.0100288
0.0748815
-0.0100339
0.0877047
-0.00964348
0.102353
-0.00872042
0.117729
-0.0072017
0.132189
-0.00513757
0.144074
-0.00267393
0.152276
0.156375
-0.00839359
0.0560491
0.00780195
-0.00880966
0.0645775
-0.00901393
0.0750857
-0.00896816
0.087659
-0.00856782
0.101953
-0.00770397
0.116865
-0.00633175
0.130816
-0.00450022
0.142242
-0.0023363
0.150112
0.154039
-0.00743823
0.0565906
0.00689675
-0.00778547
0.0649247
-0.00792163
0.0752219
-0.00783301
0.0875703
-0.00743587
0.101556
-0.00664712
0.116076
-0.00543634
0.129606
-0.00384905
0.140655
-0.00199279
0.148255
0.152046
-0.00642492
0.0570708
0.00594473
-0.00670199
0.0652018
-0.00677217
0.0752921
-0.00664766
0.0874458
-0.00626415
0.101173
-0.00556261
0.115374
-0.00452427
0.128567
-0.00318937
0.13932
-0.00164592
0.146712
0.1504
-0.00537037
0.0574771
0.00496408
-0.0055783
0.0654097
-0.00558516
0.0752989
-0.00543139
0.0872921
-0.00506988
0.100811
-0.00446444
0.114769
-0.00360562
0.127708
-0.00252748
0.138242
-0.00129869
0.145483
0.149101
-0.00429236
0.0577955
0.0039739
-0.004435
0.0655524
-0.00437996
0.0752439
-0.00420293
0.087115
-0.0038694
0.100477
-0.00336604
0.114266
-0.00269039
0.127033
-0.00186984
0.137421
-0.00095431
0.144568
0.148147
-0.00322008
0.0580175
0.00299813
-0.00329771
0.06563
-0.00318092
0.0751271
-0.00298455
0.0869187
-0.00268169
0.100175
-0.00228293
0.113867
-0.0017903
0.12654
-0.00122409
0.136855
-0.000616596
0.14396
0.14753
-0.00217527
0.0581451
0.00204762
-0.00218193
0.0656367
-0.00200963
0.0749548
-0.00179372
0.0867027
-0.00152249
0.0999034
-0.00122583
0.11357
-0.000912371
0.126227
-0.000595938
0.136538
-0.000288316
0.143652
0.147242
-0.00119
0.0581932
0.00114194
-0.00111432
0.065561
-0.000898991
0.0747395
-0.000662218
0.086466
-0.000425566
0.0996667
-0.000227872
0.113372
-8.78228e-05
0.126087
-1.22242e-05
0.136463
1.61034e-05
0.143624
0.147258
-0.000297412
0.0582028
0.000287814
-0.000125768
0.0653894
0.000118507
0.0744952
0.000404433
0.08618
0.000625508
0.0994457
0.000740605
0.113257
0.000723525
0.126104
0.000575127
0.136611
0.000321739
0.143878
0.14758
0.0005687
0.058139
-0.000504914
0.000830127
0.0651279
0.00113509
0.0741902
0.00142839
0.0858867
0.00162249
0.0992516
0.00165137
0.113229
0.00148091
0.126274
0.00111695
0.136975
0.000603646
0.144391
0.148184
0.00137121
0.0580038
-0.00123604
0.00169857
0.0648006
0.00204275
0.0738461
0.00235789
0.0855716
0.00253349
0.099076
0.00248815
0.113274
0.00217887
0.126584
0.00161674
0.137537
0.000862886
0.145145
0.149046
0.0020801
0.0578332
-0.00190943
0.00247561
0.064405
0.0028549
0.0734668
0.00319252
0.085234
0.00335648
0.098912
0.00324903
0.113381
0.00281655
0.127016
0.00207422
0.13828
0.00109946
0.146119
0.150146
0.00270619
0.057661
-0.002534
0.00315972
0.0639515
0.00356691
0.0730596
0.00392197
0.0848789
0.00407637
0.0987576
0.00391635
0.113541
0.00337695
0.127555
0.00247612
0.139181
0.00130593
0.14729
0.151452
0.00327052
0.0575188
-0.00312839
0.00376585
0.0634562
0.00420012
0.0726253
0.00457306
0.084506
0.00472495
0.0986057
0.00452288
0.113743
0.0038885
0.12819
0.00284249
0.140227
0.00149281
0.148639
0.152945
0.00367811
0.0575323
-0.00369156
0.00417278
0.0629615
0.00463183
0.0721663
0.00501272
0.0841251
0.00516226
0.0984562
0.00493516
0.113971
0.0042396
0.128885
0.00309444
0.141372
0.00161767
0.150116
0.154562
-0.0385272
0.0528832
0.0431763
-0.0348867
0.059321
-0.0324874
0.069767
-0.0299761
0.0816138
-0.026997
0.0954771
-0.023196
0.11017
-0.0184299
0.124119
-0.0127973
0.135739
-0.00654683
0.143866
0.148016
-0.0470223
0.0488802
0.0510253
-0.0437275
0.0560262
-0.0407564
0.0667959
-0.0373726
0.07823
-0.0334633
0.0915677
-0.0285744
0.105281
-0.0225996
0.118144
-0.0156621
0.128802
-0.00804342
0.136247
0.139972
-0.0566786
0.0450615
0.0604973
-0.053325
0.0526726
-0.0496826
0.0631535
-0.0454222
0.0739696
-0.0404037
0.0865493
-0.0341764
0.0990534
-0.0267948
0.110763
-0.0184172
0.120424
-0.0093328
0.127162
0.130639
-0.0683302
0.0414291
0.0719626
-0.0644727
0.0488152
-0.0599957
0.0586765
-0.0547418
0.0687157
-0.048431
0.0802384
-0.0406736
0.091296
-0.0316985
0.101788
-0.0217143
0.11044
-0.0110828
0.116531
0.119557
-0.0813444
0.0372118
0.0855616
-0.0766698
0.0441406
-0.0711133
0.05312
-0.0644462
0.0620485
-0.0563721
0.0721644
-0.0467365
0.0816605
-0.035944
0.0909952
-0.024215
0.0987108
-0.012025
0.104341
0.107532
-0.0963756
0.0329732
0.100614
-0.0905633
0.0383282
-0.0836985
0.0462553
-0.0753548
0.0537047
-0.0654232
0.0622328
-0.0539636
0.0702008
-0.0413088
0.0783404
-0.0277568
0.0851589
-0.0140636
0.0906477
0.0934679
-0.110722
0.0268866
0.116809
-0.103664
0.0312707
-0.0951521
0.037743
-0.0846636
0.0432162
-0.0725411
0.0501104
-0.0587713
0.0564311
-0.0436943
0.0632634
-0.0278369
0.0693014
-0.0125195
0.0753304
0.0809484
-0.125997
0.0208724
0.132012
-0.117751
0.0230246
-0.107792
0.0277833
-0.0958983
0.031323
-0.0824158
0.0366279
-0.0671205
0.0411357
-0.050566
0.0467089
-0.0333615
0.0520969
-0.0175837
0.0595526
0.0633647
-0.140097
0.0101287
0.150841
-0.128628
0.0115553
-0.114957
0.0141124
-0.0996043
0.0159705
-0.0819504
0.018974
-0.0623711
0.0215564
-0.0407995
0.0251373
-0.0181511
0.0294485
0.00303209
0.0383695
0.0663968
-0.241521
0.251649
-0.229965
-0.215853
-0.199882
-0.180908
-0.159352
-0.134215
-0.104766
-0.0663968
0.00189888
0.0447018
-0.00342438
0.000535802
0.0523883
-0.000472628
0.0615057
-0.00117711
0.0726671
-0.00160988
0.0859944
-0.00176632
0.100771
-0.00153839
0.116581
-0.00116072
0.131634
-0.00176514
0.151445
0.249884
0.00226604
0.0461921
-0.00375632
0.000937918
0.0537165
-0.000114612
0.0625582
-0.000845194
0.0733976
-0.00132194
0.0864712
-0.00151114
0.10096
-0.00136362
0.116433
-0.00103444
0.131305
-0.0015615
0.151972
0.248323
0.00270896
0.0475821
-0.00409901
0.00141966
0.0550058
0.000396388
0.0635815
-0.000372248
0.0741663
-0.00086639
0.0869653
-0.00109837
0.101192
-0.00102222
0.116357
-0.00079971
0.131082
-0.00135764
0.15253
0.246965
0.00315314
0.0488747
-0.00444567
0.00190838
0.0562505
0.000920574
0.0645693
0.000134749
0.0749521
-0.000346521
0.0874466
-0.000623409
0.101469
-0.000597819
0.116331
-0.000509178
0.130994
-0.00109536
0.153116
0.24587
0.00359054
0.0500676
-0.00478348
0.00240915
0.0574319
0.00146553
0.0655129
0.000727021
0.0756906
0.000218515
0.0879551
-0.000116014
0.101803
-0.000112643
0.116328
-0.00017716
0.131058
-0.000787102
0.153726
0.245083
0.00403647
0.0511326
-0.00510142
0.00294133
0.0585271
0.0020498
0.0664045
0.00135057
0.0763898
0.000854511
0.0884511
0.000509987
0.102148
0.000405128
0.116433
0.000240682
0.131223
-0.000438379
0.154405
0.244644
0.00448988
0.0520343
-0.00539164
0.00350306
0.0595139
0.0026734
0.0672341
0.00201792
0.0770453
0.00153319
0.0889359
0.00117651
0.102504
0.000977731
0.116632
0.000721596
0.131479
-4.32761e-05
0.15517
0.244601
0.00494409
0.0527373
-0.00564705
0.00408422
0.0603738
0.00332689
0.0679914
0.00272195
0.0776503
0.0022524
0.0894054
0.00187899
0.102878
0.0015967
0.116914
0.00122757
0.131848
0.000340279
0.156057
0.244941
0.00539141
0.0532055
-0.00585962
0.00467364
0.0610915
0.00399915
0.0686659
0.00345162
0.0781978
0.00300388
0.0898531
0.00261373
0.103268
0.00225041
0.117277
0.00176294
0.132335
0.000759357
0.157061
0.2457
0.00581879
0.053407
-0.00602027
0.00525898
0.0616513
0.00467865
0.0692463
0.00419531
0.0786811
0.00377725
0.0902712
0.00337103
0.103674
0.00292955
0.117719
0.00232314
0.132942
0.00120032
0.158184
0.246901
0.00620743
0.0533165
-0.00611695
0.00582241
0.0620364
0.0053495
0.0697192
0.0049363
0.0790943
0.00455447
0.090653
0.00413613
0.104093
0.00362155
0.118233
0.0028984
0.133665
0.00165325
0.159429
0.248554
0.00654901
0.0529191
-0.00615165
0.00635617
0.0622292
0.00600327
0.0700721
0.00566684
0.0794308
0.00532739
0.0909925
0.00490283
0.104517
0.0043209
0.118815
0.00348445
0.134501
0.00211488
0.160799
0.250669
0.0068251
0.0522146
-0.0061206
0.00684141
0.0622129
0.00661916
0.0702943
0.00636674
0.0796832
0.0060765
0.0912827
0.00565414
0.10494
0.00501301
0.119456
0.00407027
0.135444
0.00257797
0.162291
0.253247
0.00702388
0.051219
-0.00602831
0.00726301
0.0619738
0.007181
0.0703763
0.00701954
0.0798446
0.00678596
0.0915163
0.00637573
0.10535
0.00568571
0.120146
0.00464671
0.136483
0.00303586
0.163902
0.256283
0.00713682
0.049967
-0.00588479
0.00760792
0.0615027
0.00767396
0.0703103
0.00760957
0.079909
0.00744083
0.091685
0.00705353
0.105737
0.00632747
0.120872
0.00520509
0.137605
0.00348271
0.165624
0.259765
0.00716088
0.0485125
-0.00570634
0.00786618
0.0607974
0.00808468
0.0700918
0.00812253
0.0798712
0.00802696
0.0917806
0.00767315
0.106091
0.00692594
0.12162
0.00573581
0.138796
0.00390988
0.16745
0.263675
0.00710177
0.0469249
-0.0055142
0.00803165
0.0598675
0.00840292
0.0697205
0.00854747
0.0797266
0.00853243
0.0917956
0.00822466
0.106399
0.00747378
0.122371
0.00623364
0.140036
0.00431355
0.16937
0.267989
0.00697579
0.0452766
-0.00532753
0.00810187
0.0587414
0.00862145
0.069201
0.0088721
0.079476
0.00894053
0.0917272
0.00868852
0.106651
0.00795098
0.123108
0.00668396
0.141303
0.0046795
0.171375
0.272668
0.00679079
0.043621
-0.0051351
0.00808082
0.0574514
0.00875241
0.0685294
0.00911255
0.0791158
0.00927008
0.0915697
0.00908543
0.106835
0.00837529
0.123818
0.00709972
0.142578
0.00501488
0.173459
0.277683
0.00650666
0.041936
-0.00482166
0.00786515
0.0560929
0.0086859
0.0677086
0.00915255
0.0786492
0.00940613
0.0913161
0.00930172
0.10694
0.00865774
0.124462
0.00740035
0.143836
0.00531122
0.175548
0.282995
-0.0192393
0.0414393
0.019736
-0.0169431
0.0537967
-0.0140769
0.0648424
-0.0109351
0.0755075
-0.00775642
0.0881374
-0.00438953
0.103573
-0.000910186
0.120983
0.00177021
0.141155
0.00152693
0.175792
0.284521
-0.0327872
0.0396218
0.0346046
-0.029684
0.0506934
-0.0255465
0.0607049
-0.0209622
0.0709232
-0.016192
0.0833672
-0.0110196
0.0984003
-0.00563772
0.115601
-0.00115751
0.136675
0.000167447
0.174467
0.284689
-0.0475222
0.0370141
0.0501299
-0.0433176
0.0464888
-0.0378269
0.0552143
-0.0318634
0.0649596
-0.0255028
0.0770066
-0.01839
0.0912876
-0.0108785
0.108089
-0.00432471
0.130121
-0.00126517
0.171407
0.283424
-0.063608
0.0335715
0.0670506
-0.0580234
0.0409043
-0.0513876
0.0485784
-0.0441533
0.0577253
-0.0360403
0.0688936
-0.0267694
0.0820167
-0.0169719
0.0982919
-0.008183
0.121332
-0.00296763
0.166192
0.280456
-0.0813457
0.0287677
0.0861495
-0.0746173
0.0341759
-0.0671702
0.0411313
-0.0584929
0.049048
-0.0483942
0.0587949
-0.0368856
0.0705081
-0.0247252
0.0861315
-0.0134219
0.110029
-0.00541446
0.158184
0.275042
-0.101464
0.0234511
0.10678
-0.0938403
0.0265524
-0.0853318
0.0326228
-0.0749339
0.0386501
-0.0629566
0.0468177
-0.0494328
0.0569842
-0.0351064
0.0718051
-0.0212108
0.0961336
-0.00982664
0.1468
0.265215
-0.124349
0.0163552
0.131445
-0.116268
0.0184715
-0.106897
0.0232521
-0.0954735
0.0272263
-0.0825503
0.0338944
-0.0676818
0.0421158
-0.0517469
0.0558701
-0.0351643
0.0795511
-0.0186755
0.130311
0.246539
-0.155279
0.00910967
0.162525
-0.146695
0.00988671
-0.13655
0.0131073
-0.124759
0.015435
-0.111287
0.0204225
-0.0958963
0.0267254
-0.0788778
0.0388516
-0.0600999
0.0607732
-0.0365354
0.106747
0.210004
-0.21114
0.00253576
0.217714
-0.20431
0.00305628
-0.195691
0.00448827
-0.186182
0.00592671
-0.174555
0.00879467
-0.160857
0.0130283
-0.143127
0.0211217
-0.117983
0.0356292
-0.0759235
0.064687
0.134081
-0.290813
0.293348
-0.287756
-0.283268
-0.277341
-0.268547
-0.255518
-0.234397
-0.198768
-0.134081
0.0022754
0.0206569
-0.00319633
0.000609675
0.0362704
-0.00105476
0.0517944
-0.00252938
0.0685252
-0.00372016
0.0873403
-0.00468682
0.107747
-0.00524601
0.132004
-0.00562306
0.162902
-0.00447897
0.21657
0.288869
0.00203302
0.0212331
-0.00260924
0.000676174
0.0376272
-0.00085225
0.0533228
-0.00227737
0.0699503
-0.00346417
0.0885271
-0.00441799
0.108701
-0.0050003
0.132586
-0.00539406
0.163296
-0.00425701
0.215433
0.284612
0.00190107
0.0215243
-0.00219219
0.000840356
0.0386879
-0.00051421
0.0546774
-0.00182848
0.0712646
-0.00296296
0.0896616
-0.00388849
0.109626
-0.00450457
0.133203
-0.00487801
0.163669
-0.00388936
0.214444
0.280723
0.00185307
0.0215716
-0.00190043
0.00107447
0.0394665
-0.000111038
0.0558629
-0.00128688
0.0724404
-0.00234466
0.0907194
-0.00324775
0.110529
-0.00388649
0.133841
-0.00428856
0.164071
-0.00346585
0.213622
0.277257
0.00188335
0.021389
-0.00170071
0.00139018
0.0399597
0.000423933
0.0568291
-0.000659889
0.0735243
-0.00163801
0.0916975
-0.00251724
0.111409
-0.00318383
0.134508
-0.00363453
0.164522
-0.00299465
0.212982
0.274263
0.00199044
0.0209746
-0.00157608
0.00179212
0.040158
0.00104977
0.0575715
4.97029e-05
0.0745243
-0.000828762
0.092576
-0.00169304
0.112273
-0.0023943
0.135209
-0.00291442
0.165042
-0.00248314
0.21255
0.271779
0.00216579
0.020326
-0.00151716
0.00227329
0.0400505
0.00176318
0.0580816
0.000948993
0.0753385
8.49751e-05
0.09344
-0.00078042
0.113138
-0.00151099
0.13594
-0.00213144
0.165663
-0.00193752
0.212357
0.269842
0.00239728
0.0194471
-0.00151838
0.0028215
0.0396263
0.00255317
0.0583499
0.00189515
0.0759965
0.00110181
0.0942333
0.000215466
0.114025
-0.00053011
0.136685
-0.00129742
0.16643
-0.00136216
0.212421
0.26848
0.00267109
0.0183536
-0.00157762
0.00342062
0.0388768
0.00340441
0.0583661
0.00290666
0.0764943
0.00218489
0.0949551
0.00134428
0.114865
0.000499747
0.13753
-0.000434985
0.167365
-0.00075883
0.212745
0.267721
0.00297315
-0.001697
0.00405096
0.00430083
0.00397093
0.00332591
0.00249255
0.0015554
0.000503832
-0.000117928
0.000190672
-0.00143414
0.000554809
-0.00332496
0.00101792
-0.00457688
0.001538
-0.00535257
0.0020926
-0.00577514
0.0026716
-0.00593936
0.00327284
-0.00591818
0.00390023
-0.00576716
0.00456571
-0.00552938
-0.0052436
0.000196143
-0.00163029
0.000556486
-0.00368531
0.00100103
-0.00502143
0.00148666
-0.0058382
0.00199217
-0.00628064
0.00250968
-0.00645688
0.00303929
-0.00644779
0.00358588
-0.00631375
0.00415731
-0.00610082
-0.00584781
0.000192547
-0.00182283
0.000530245
-0.004023
0.000930899
-0.00542208
0.00135269
-0.00626
0.00177747
-0.00670541
0.00220102
-0.00688043
0.0026269
-0.00687367
0.00306245
-0.0067493
0.00351573
-0.0065541
-0.0063246
0.00017884
-0.00200167
0.000474287
-0.00431845
0.000806118
-0.00575391
0.00113655
-0.00659043
0.00145222
-0.00702108
0.00175358
-0.00718179
0.00204813
-0.00716823
0.00234622
-0.00704738
0.00265809
-0.00686596
-0.00665896
0.000154514
-0.00215619
0.000388577
-0.00455251
0.000628789
-0.00599412
0.000844251
-0.00680589
0.00102789
-0.00720472
0.00118532
-0.00733922
0.00132793
-0.00731084
0.00146865
-0.0071881
0.00161953
-0.00701685
-0.00683166
0.000119663
-0.00227585
0.000274891
-0.00470774
0.000404324
-0.00612356
0.000486616
-0.00688818
0.000522026
-0.00724013
0.000521322
-0.00733851
0.000499142
-0.00728866
0.000470224
-0.00715919
0.000447223
-0.00699385
-0.00682222
7.50303e-05
-0.00235088
0.000136707
-0.00476942
0.000140927
-0.00612778
7.80466e-05
-0.0068253
-4.38666e-05
-0.00711822
-0.000209354
-0.00717302
-0.000401563
-0.00709645
-0.000605307
-0.00695544
-0.000808423
-0.00679073
-0.00662964
2.20584e-05
-0.00237294
-2.08747e-05
-0.00472648
-0.000151149
-0.0059975
-0.000364855
-0.00661159
-0.000646345
-0.00683673
-0.000976504
-0.00684287
-0.00133739
-0.00673556
-0.00171448
-0.00657835
-0.00209698
-0.00640823
-0.00624902
-3.79125e-05
-0.00233503
-0.000192289
-0.00457211
-0.000460523
-0.00572927
-0.000824713
-0.0062474
-0.0012621
-0.00639934
-0.00175096
-0.00635401
-0.00227342
-0.00621309
-0.00281643
-0.00603534
-0.00337143
-0.00585323
-0.00568597
-0.000101861
-0.00223316