/*--------------------------------*- C++ -*----------------------------------*\
  =========                 |
  \\      /  F ield         | OpenFOAM: The Open Source CFD Toolbox
   \\    /   O peration     | Website:  https://openfoam.org
    \\  /    A nd           | Version:  7
     \\/     M anipulation  |
\*---------------------------------------------------------------------------*/
FoamFile
{
    version     2.0;
    format      ascii;
    class       volScalarField;
    location    "5.3";
    object      p;
}
// * * * * * * * * * * * * * * * * * * * * * * * * * * * * * * * * * * * * * //

dimensions      [0 2 -2 0 0 0 0];

internalField   nonuniform List<scalar> 
18000
(
0.788731
0.788411
0.788421
0.788518
0.788759
0.78916
0.789772
0.790645
0.791808
0.793272
0.795035
0.797091
0.799438
0.802066
0.804951
0.808062
0.811365
0.814826
0.818412
0.822089
0.82582
0.829567
0.833298
0.836988
0.840616
0.844165
0.84762
0.85098
0.854229
0.857244
0.787701
0.787319
0.787316
0.787409
0.787652
0.788053
0.788661
0.789518
0.790649
0.792067
0.793769
0.795744
0.797988
0.800489
0.803227
0.806173
0.809297
0.812565
0.815945
0.819404
0.822908
0.826425
0.829923
0.833378
0.836772
0.840088
0.843316
0.846456
0.849489
0.852321
0.786624
0.786192
0.786178
0.78627
0.786519
0.786928
0.787541
0.78839
0.789496
0.790871
0.792513
0.794409
0.79655
0.798924
0.801512
0.80429
0.807229
0.810297
0.813462
0.816693
0.819962
0.823237
0.826491
0.8297
0.832849
0.835923
0.838913
0.84182
0.844625
0.847258
0.78548
0.785008
0.784995
0.785093
0.785358
0.785784
0.786409
0.787257
0.788344
0.789681
0.791264
0.793082
0.795119
0.797365
0.799802
0.802407
0.805156
0.808017
0.810959
0.813954
0.816977
0.82
0.822999
0.825953
0.828847
0.831669
0.83441
0.837072
0.839635
0.842053
0.784297
0.7838
0.783789
0.783898
0.78418
0.784628
0.785267
0.786118
0.78719
0.788491
0.790018
0.791756
0.79369
0.795806
0.798089
0.800521
0.803076
0.805722
0.808432
0.811183
0.813951
0.816713
0.819447
0.822136
0.824766
0.827325
0.829807
0.832213
0.834525
0.836714
0.783068
0.782549
0.782545
0.782669
0.782974
0.783448
0.784105
0.784963
0.786025
0.787296
0.788768
0.790426
0.792254
0.794241
0.796372
0.798628
0.800983
0.803408
0.805879
0.808378
0.810883
0.813375
0.815837
0.818252
0.820607
0.822893
0.825106
0.827248
0.829301
0.831249
0.781794
0.781265
0.781271
0.781415
0.781745
0.782246
0.782926
0.783794
0.78485
0.786092
0.78751
0.789087
0.79081
0.792668
0.794647
0.796725
0.798875
0.801073
0.8033
0.80554
0.807775
0.80999
0.81217
0.814302
0.816375
0.81838
0.820315
0.822185
0.823973
0.825669
0.780475
0.779946
0.779965
0.780131
0.780488
0.781019
0.781725
0.782608
0.78366
0.784874
0.786238
0.787736
0.789356
0.791086
0.792912
0.794808
0.796749
0.798716
0.800694
0.802669
0.804629
0.80656
0.808451
0.810293
0.812076
0.813793
0.815444
0.817036
0.818556
0.819993
0.779108
0.77859
0.778625
0.778815
0.7792
0.779763
0.780498
0.781399
0.78245
0.783637
0.784948
0.786369
0.787887
0.789491
0.791162
0.792875
0.794605
0.796338
0.798062
0.799769
0.801448
0.80309
0.804688
0.806234
0.80772
0.809144
0.810506
0.811818
0.813069
0.814241
0.777692
0.777195
0.777247
0.777463
0.77788
0.778477
0.779244
0.780163
0.781214
0.782377
0.783638
0.784984
0.786403
0.787882
0.789397
0.790924
0.792443
0.793941
0.795409
0.796844
0.798239
0.799589
0.800889
0.802133
0.80332
0.804447
0.80552
0.806551
0.807536
0.80844
0.776228
0.775761
0.775832
0.776075
0.776525
0.777158
0.777957
0.778897
0.779949
0.78109
0.782304
0.783578
0.784901
0.786254
0.787615
0.788958
0.790266
0.791528
0.79274
0.793901
0.795011
0.796067
0.797066
0.798007
0.798891
0.799722
0.800505
0.801258
0.801983
0.80262
0.774714
0.774286
0.774377
0.77465
0.775134
0.775804
0.776638
0.777599
0.778653
0.779774
0.780944
0.78215
0.783379
0.784609
0.785816
0.786977
0.788076
0.789104
0.790061
0.790951
0.791775
0.792536
0.793234
0.793872
0.794454
0.79499
0.795486
0.795965
0.796439
0.796815
0.773152
0.772768
0.772882
0.773186
0.773706
0.774415
0.775283
0.776266
0.777324
0.778427
0.779556
0.780697
0.781834
0.782944
0.784001
0.784983
0.785876
0.786675
0.787381
0.788002
0.788545
0.789013
0.789412
0.789748
0.790032
0.790276
0.79049
0.7907
0.790935
0.791062
0.771542
0.771207
0.771347
0.771682
0.772239
0.772988
0.77389
0.774896
0.775959
0.777047
0.778138
0.779218
0.780267
0.78126
0.782172
0.782979
0.783671
0.784244
0.784705
0.785065
0.785332
0.785514
0.785619
0.785659
0.785649
0.785607
0.785546
0.785497
0.785505
0.785399
0.769885
0.769603
0.769769
0.770138
0.770733
0.771522
0.772458
0.773488
0.774558
0.775632
0.776688
0.77771
0.778675
0.779557
0.780327
0.780966
0.781463
0.781819
0.782044
0.782151
0.782151
0.782055
0.781874
0.781626
0.781332
0.781013
0.780686
0.780389
0.780185
0.779864
0.768184
0.767954
0.768147
0.768551
0.769186
0.770014
0.770986
0.772039
0.773117
0.774181
0.775205
0.776173
0.777059
0.777834
0.778469
0.778946
0.779257
0.779405
0.779405
0.77927
0.779015
0.778652
0.778197
0.777672
0.777105
0.776521
0.775942
0.775409
0.775007
0.774493
0.766439
0.766262
0.766483
0.766922
0.767597
0.768465
0.769472
0.770549
0.771637
0.772692
0.773689
0.774607
0.775419
0.776092
0.776598
0.776921
0.777055
0.777008
0.776794
0.776431
0.775934
0.775317
0.774602
0.773815
0.77299
0.772158
0.771342
0.770588
0.77
0.769317
0.764652
0.764525
0.764775
0.765251
0.765966
0.766874
0.767915
0.769017
0.770115
0.771165
0.772139
0.773012
0.773753
0.774329
0.774714
0.774891
0.77486
0.77463
0.774217
0.77364
0.772914
0.77206
0.7711
0.77007
0.769005
0.767942
0.766907
0.765947
0.765187
0.764356
0.762826
0.762745
0.763024
0.763537
0.764293
0.76524
0.766314
0.767441
0.768552
0.7696
0.770554
0.771386
0.772061
0.772546
0.772816
0.772857
0.772671
0.772271
0.771673
0.770896
0.769959
0.768883
0.767699
0.766443
0.765159
0.763885
0.76265
0.761501
0.760582
0.759624
0.760959
0.76092
0.761228
0.761781
0.762577
0.763562
0.764669
0.76582
0.766945
0.767995
0.768933
0.769727
0.770341
0.77074
0.770901
0.770815
0.770486
0.769928
0.769159
0.768197
0.767064
0.765784
0.764393
0.762934
0.761451
0.759987
0.758573
0.757255
0.756187
0.755122
0.759053
0.759049
0.759387
0.75998
0.760816
0.76184
0.762978
0.764154
0.765295
0.766348
0.767274
0.768033
0.768588
0.768905
0.768964
0.76876
0.768298
0.767593
0.766665
0.765533
0.764219
0.762753
0.761174
0.75953
0.757869
0.756236
0.754665
0.753197
0.751994
0.750842
0.757104
0.75713
0.757499
0.758132
0.75901
0.760071
0.761242
0.762441
0.763598
0.764657
0.765571
0.766297
0.766795
0.767034
0.766998
0.766682
0.766095
0.765255
0.764178
0.762887
0.761406
0.759769
0.75802
0.756211
0.754392
0.75261
0.750902
0.749306
0.747986
0.746767
0.755112
0.755162
0.755561
0.756235
0.757155
0.758254
0.759456
0.76068
0.761853
0.762916
0.763818
0.764511
0.764954
0.765119
0.764991
0.76457
0.763865
0.762895
0.761679
0.760239
0.758603
0.756808
0.754904
0.752944
0.750984
0.749073
0.747249
0.745548
0.744132
0.742872
0.753074
0.753143
0.753572
0.754287
0.755248
0.756385
0.757618
0.758865
0.760054
0.761121
0.762009
0.762668
0.763056
0.763147
0.762931
0.762408
0.76159
0.760495
0.759145
0.757563
0.75578
0.753838
0.751789
0.749692
0.747605
0.74558
0.743659
0.741877
0.740393
0.739124
0.750987
0.75107
0.751529
0.752284
0.753286
0.75446
0.755723
0.756993
0.758196
0.759264
0.760135
0.760757
0.761088
0.761105
0.760801
0.760178
0.759248
0.758032
0.756551
0.754831
0.752906
0.750823
0.748637
0.746411
0.744207
0.74208
0.740078
0.738239
0.736716
0.735482
0.748846
0.74894
0.749429
0.750225
0.751267
0.752477
0.753768
0.755059
0.756272
0.757337
0.758187
0.758766
0.759037
0.758979
0.758586
0.757861
0.756819
0.755481
0.753869
0.752013
0.74995
0.747727
0.745407
0.743055
0.740738
0.738515
0.736442
0.734564
0.733033
0.731887
0.746646
0.74675
0.74727
0.748106
0.749188
0.750432
0.751749
0.753057
0.754277
0.755333
0.756154
0.756685
0.756891
0.756753
0.756266
0.755438
0.754281
0.752818
0.751075
0.749082
0.746878
0.744516
0.74206
0.73958
0.737145
0.734823
0.732679
0.730772
0.729256
0.728252
0.74438
0.744496
0.745049
0.745926
0.747046
0.748321
0.74966
0.750981
0.752202
0.753241
0.754025
0.7545
0.754633
0.754409
0.753825
0.752887
0.751612
0.750022
0.748144
0.746012
0.743666
0.741161
0.738564
0.735946
0.73338
0.73094
0.728706
0.726759
0.725279
0.724475
0.742044
0.742175
0.742762
0.743681
0.744838
0.74614
0.747496
0.748824
0.750038
0.75105
0.751788
0.752199
0.752252
0.751934
0.751244
0.750191
0.748791
0.74707
0.745055
0.742781
0.740292
0.737641
0.734896
0.732127
0.729403
0.726799
0.724407
0.722349
0.720906
0.720413
0.739633
0.739786
0.74041
0.74137
0.742562
0.743886
0.745254
0.746581
0.747777
0.748752
0.749433
0.749769
0.749732
0.749311
0.748508
0.747333
0.745804
0.743948
0.741794
0.739378
0.736745
0.733949
0.731052
0.728117
0.725203
0.722366
0.719669
0.717215
0.715327
0.714662
0.866523
0.879951
0.888402
0.896099
0.901107
0.905084
0.907709
0.90946
0.910463
0.910901
0.910864
0.910421
0.909642
0.908584
0.907287
0.905764
0.904067
0.902234
0.900248
0.898113
0.89583
0.893392
0.890826
0.888146
0.885351
0.882504
0.879622
0.87686
0.874485
0.872906
0.861264
0.874758
0.883469
0.89153
0.896827
0.900993
0.903751
0.905623
0.90672
0.907219
0.907227
0.906851
0.906129
0.905126
0.903856
0.902378
0.900723
0.898913
0.896958
0.894853
0.892584
0.890172
0.887613
0.884941
0.882157
0.879309
0.876432
0.873669
0.871273
0.869682
0.855802
0.86942
0.878426
0.886889
0.892501
0.896876
0.899782
0.901781
0.902972
0.903534
0.903591
0.903279
0.902612
0.901662
0.900425
0.898994
0.897382
0.895599
0.893675
0.891603
0.889351
0.886968
0.884423
0.881763
0.878997
0.876153
0.873285
0.870524
0.868108
0.866502
0.850109
0.863933
0.873282
0.882178
0.888119
0.892737
0.895809
0.897929
0.899209
0.899847
0.899966
0.899707
0.899091
0.898189
0.897001
0.895614
0.894043
0.892295
0.890401
0.888359
0.886134
0.883776
0.881256
0.878616
0.875868
0.87304
0.870181
0.867421
0.864992
0.863364
0.844196
0.858293
0.868025
0.877399
0.883694
0.888578
0.89183
0.894071
0.895441
0.896159
0.896346
0.896136
0.89557
0.894713
0.893581
0.892237
0.890706
0.888999
0.887135
0.885123
0.882933
0.880599
0.87811
0.875497
0.87277
0.869965
0.867118
0.864361
0.861923
0.860268
0.838075
0.8525
0.862647
0.87255
0.879233
0.8844
0.887843
0.89021
0.891674
0.892469
0.892724
0.892565
0.892051
0.891239
0.890161
0.888863
0.887371
0.885707
0.883879
0.881898
0.879745
0.877442
0.874985
0.872404
0.869703
0.866926
0.864095
0.861344
0.858899
0.857216
0.83175
0.846556
0.857148
0.867633
0.874736
0.880204
0.883849
0.886348
0.887909
0.888781
0.889104
0.888996
0.888535
0.887771
0.886743
0.885493
0.884043
0.88242
0.880632
0.878685
0.876571
0.874303
0.871882
0.869336
0.866668
0.863922
0.861111
0.858368
0.855919
0.85421
0.825234
0.840468
0.851533
0.862648
0.870206
0.875993
0.87985
0.882487
0.884147
0.885095
0.885486
0.88543
0.885023
0.884307
0.883328
0.882129
0.880722
0.879142
0.877395
0.875486
0.873411
0.871183
0.868802
0.866295
0.863662
0.860952
0.858166
0.855435
0.852985
0.851249
0.818545
0.834246
0.845811
0.857597
0.865642
0.871767
0.875846
0.878626
0.880389
0.881412
0.88187
0.881869
0.881515
0.88085
0.879921
0.878772
0.877409
0.875872
0.874168
0.872299
0.870266
0.868082
0.865744
0.863281
0.860687
0.858015
0.85526
0.852545
0.850094
0.848335
0.811709
0.827909
0.83999
0.852484
0.861048
0.867528
0.871839
0.874768
0.876635
0.877736
0.87826
0.878314
0.878014
0.877399
0.87652
0.875423
0.874106
0.872613
0.870952
0.869126
0.867138
0.864999
0.862709
0.860292
0.857743
0.855112
0.852393
0.849698
0.847248
0.845467
0.804761
0.821478
0.834086
0.847314
0.856424
0.863277
0.867832
0.870914
0.872887
0.874068
0.874657
0.874767
0.874521
0.873958
0.873129
0.872082
0.870813
0.869364
0.867747
0.865966
0.864025
0.861934
0.859695
0.857329
0.854828
0.852242
0.849564
0.846894
0.844447
0.842646
0.797741
0.814979
0.828116
0.842094
0.851775
0.859016
0.863824
0.867066
0.869148
0.87041
0.871064
0.87123
0.871038
0.870526
0.869747
0.868751
0.867528
0.866126
0.864553
0.862819
0.860929
0.858888
0.856703
0.854391
0.851942
0.849405
0.846772
0.844134
0.841693
0.839873
0.790695
0.808447
0.822102
0.836833
0.847105
0.854745
0.859819
0.863226
0.86542
0.866763
0.867482
0.867704
0.867565
0.867105
0.866377
0.865429
0.864255
0.862898
0.861372
0.859686
0.857849
0.85586
0.853732
0.851477
0.849085
0.846602
0.84402
0.841417
0.838987
0.83715
0.783678
0.801915
0.816068
0.831539
0.842417
0.850467
0.855817
0.859394
0.861704
0.863129
0.863913
0.864191
0.864105
0.863697
0.863019
0.862118
0.860992
0.859681
0.858204
0.856567
0.854786
0.85285
0.850781
0.848587
0.846257
0.843832
0.841305
0.838744
0.83633
0.834478
0.776746
0.795425
0.810044
0.826225
0.837716
0.846184
0.85182
0.855573
0.858001
0.859508
0.860358
0.860691
0.860658
0.860303
0.859674
0.858819
0.857741
0.856477
0.855049
0.853462
0.851738
0.849859
0.847851
0.845722
0.843456
0.841094
0.838629
0.836115
0.833724
0.831859
0.769957
0.789017
0.804057
0.820905
0.833007
0.841898
0.847828
0.851763
0.854313
0.855902
0.856817
0.857205
0.857226
0.856923
0.856343
0.855532
0.854501
0.853284
0.851908
0.850372
0.848706
0.846885
0.84494
0.842878
0.840681
0.838387
0.835989
0.833531
0.831171
0.829295
0.763369
0.782733
0.79814
0.815595
0.828297
0.837613
0.843844
0.847966
0.850641
0.852312
0.853293
0.853737
0.85381
0.853558
0.853025
0.852258
0.851274
0.850105
0.84878
0.847296
0.845687
0.843928
0.842046
0.840054
0.83793
0.835709
0.833386
0.830992
0.828671
0.826789
0.757038
0.776613
0.792321
0.810311
0.823591
0.833333
0.839868
0.844184
0.846987
0.848741
0.849787
0.850287
0.850411
0.850208
0.849721
0.848997
0.84806
0.846938
0.845664
0.844233
0.842682
0.840986
0.839169
0.837248
0.835201
0.833059
0.830816
0.828498
0.826226
0.824344
0.751011
0.770697
0.786631
0.805071
0.818898
0.829062
0.835905
0.84042
0.843353
0.845192
0.846303
0.846858
0.847031
0.846874
0.846432
0.845751
0.844858
0.843784
0.842561
0.841183
0.839689
0.838058
0.836307
0.834458
0.832491
0.830434
0.828281
0.826049
0.82384
0.821964
0.745325
0.765017
0.781098
0.799893
0.814227
0.824803
0.831956
0.836675
0.839741
0.841667
0.842841
0.843451
0.84367
0.843556
0.843157
0.842519
0.84167
0.840642
0.839469
0.838147
0.836708
0.835142
0.833457
0.831683
0.8298
0.827834
0.82578
0.823646
0.821515
0.819655
0.740008
0.759602
0.775747
0.794791
0.809589
0.82056
0.828024
0.832949
0.836152
0.838168
0.839404
0.840067
0.84033
0.840257
0.839899
0.839301
0.838496
0.837513
0.836388
0.835121
0.833738
0.832235
0.830618
0.82892
0.827124
0.825255
0.823309
0.821289
0.819254
0.817423
0.735076
0.754474
0.7706
0.789783
0.804991
0.816339
0.82411
0.829244
0.832587
0.834694
0.835991
0.836707
0.83701
0.836976
0.836658
0.836099
0.835334
0.834397
0.833319
0.832107
0.830777
0.829338
0.827789
0.826168
0.824463
0.822697
0.820868
0.818978
0.817062
0.815275
0.730536
0.749648
0.765673
0.784886
0.800444
0.812146
0.820218
0.825562
0.829048
0.831246
0.832605
0.833371
0.833713
0.833716
0.833435
0.832911
0.832187
0.831295
0.830262
0.829101
0.827825
0.826449
0.824968
0.823425
0.821814
0.820157
0.818454
0.816711
0.81494
0.81322
0.72639
0.745132
0.760977
0.780116
0.795959
0.807989
0.816351
0.821908
0.825537
0.827827
0.829246
0.830062
0.83044
0.830476
0.83023
0.82974
0.829054
0.828205
0.827216
0.826104
0.824881
0.823566
0.822153
0.82069
0.819174
0.81763
0.816064
0.814488
0.812893
0.811269
0.722643
0.740931
0.75652
0.775487
0.791547
0.803874
0.812515
0.818284
0.822056
0.824439
0.825918
0.82678
0.827193
0.827259
0.827045
0.826585
0.825936
0.825127
0.82418
0.823115
0.821943
0.820688
0.819343
0.817959
0.816539
0.815114
0.813694
0.812303
0.810921
0.809436
0.719302
0.737043
0.752308
0.771016
0.787226
0.799814
0.808719
0.814696
0.81861
0.821086
0.822624
0.823529
0.823974
0.824065
0.823879
0.823449
0.822834
0.822062
0.821154
0.820134
0.819011
0.817813
0.816536
0.815231
0.813907
0.812604
0.811338
0.810153
0.809025
0.807738
0.716383
0.73346
0.748341
0.766718
0.783013
0.795819
0.80497
0.81115
0.815202
0.817771
0.819367
0.820311
0.820782
0.820895
0.820735
0.820331
0.819747
0.819009
0.818137
0.817159
0.816084
0.81494
0.813729
0.812503
0.811276
0.810094
0.808989
0.80803
0.807204
0.806197
0.713932
0.730161
0.74458
0.762537
0.778843
0.791829
0.801216
0.807603
0.8118
0.814468
0.816124
0.817105
0.817601
0.817735
0.817597
0.817219
0.816664
0.815957
0.81512
0.814182
0.813152
0.812062
0.810917
0.809768
0.808635
0.807577
0.806637
0.805922
0.805451
0.804841
0.711945
0.727043
0.740903
0.75833
0.774569
0.787709
0.797341
0.803957
0.808319
0.811105
0.812832
0.813858
0.814385
0.814545
0.814431
0.814081
0.813555
0.812881
0.81208
0.811183
0.8102
0.809164
0.808084
0.807012
0.805973
0.805037
0.804266
0.803809
0.803751
0.803708
0.71037
0.724101
0.737506
0.754482
0.770616
0.783832
0.793627
0.800414
0.804905
0.807784
0.809569
0.810632
0.811184
0.811367
0.811273
0.81095
0.810451
0.809806
0.809039
0.808178
0.807239
0.806252
0.805235
0.804233
0.803282
0.802461
0.801852
0.801656
0.802059
0.802813
0.704252
0.715251
0.728285
0.745203
0.761512
0.774892
0.784858
0.791781
0.796322
0.799177
0.800889
0.801868
0.802354
0.802496
0.802377
0.802054
0.801564
0.800944
0.800217
0.799413
0.798555
0.797672
0.796791
0.795958
0.795222
0.794686
0.794489
0.794994
0.796763
0.800476
0.685828
0.69861
0.712796
0.728583
0.743199
0.755331
0.764708
0.771552
0.776319
0.77953
0.78163
0.78297
0.783781
0.784215
0.784363
0.784291
0.784043
0.783658
0.783165
0.782595
0.781976
0.781339
0.780719
0.780169
0.779751
0.779591
0.779874
0.781066
0.783917
0.789081
0.666413
0.681146
0.695719
0.710223
0.7234
0.734631
0.74365
0.750517
0.755548
0.759137
0.761649
0.763386
0.764565
0.765336
0.765797
0.76602
0.76605
0.765933
0.765699
0.765383
0.765014
0.764629
0.764265
0.76398
0.76384
0.763981
0.764593
0.766149
0.769413
0.775034
0.646371
0.661888
0.676299
0.689947
0.702334
0.713103
0.721976
0.72895
0.734258
0.738214
0.741122
0.74325
0.744801
0.745924
0.746719
0.747258
0.747591
0.747762
0.747806
0.747758
0.747649
0.747518
0.747403
0.747363
0.747464
0.747838
0.74867
0.750407
0.75376
0.759461
0.625646
0.641297
0.655469
0.66862
0.68054
0.691002
0.699781
0.706867
0.712442
0.716756
0.720064
0.722595
0.724537
0.726035
0.727185
0.728061
0.728716
0.729194
0.72953
0.729762
0.729919
0.730042
0.730167
0.73035
0.730655
0.731208
0.732176
0.733975
0.737233
0.742791
0.604203
0.619796
0.633738
0.64654
0.658115
0.668339
0.677051
0.684247
0.690072
0.69473
0.698429
0.701366
0.703712
0.705597
0.707116
0.708344
0.709334
0.710129
0.710767
0.711284
0.711711
0.712084
0.712438
0.712828
0.713311
0.714003
0.71505
0.716835
0.719903
0.725204
0.582086
0.59755
0.611254
0.62377
0.635088
0.645146
0.65383
0.661142
0.667204
0.672184
0.676255
0.679588
0.682331
0.684603
0.686496
0.68808
0.689407
0.690523
0.691464
0.692267
0.692959
0.693577
0.694152
0.694734
0.695375
0.69618
0.697274
0.699005
0.701845
0.706831
0.559315
0.574615
0.588085
0.60037
0.611507
0.621463
0.630154
0.637591
0.643878
0.64916
0.653583
0.657293
0.660418
0.663069
0.665329
0.667264
0.668925
0.670358
0.671599
0.672682
0.673634
0.674489
0.675275
0.676039
0.676825
0.677731
0.678858
0.680524
0.683129
0.687775
0.535905
0.551033
0.564292
0.576395
0.587409
0.59731
0.606035
0.613602
0.620106
0.625672
0.630426
0.634492
0.637984
0.640999
0.643615
0.645892
0.647879
0.649622
0.651154
0.652509
0.653712
0.654794
0.655782
0.656718
0.657641
0.658639
0.659796
0.661399
0.663783
0.668082
0.511883
0.526842
0.539918
0.551877
0.562809
0.572688
0.581467
0.589167
0.59588
0.601715
0.60678
0.611183
0.615022
0.618387
0.621345
0.623952
0.626256
0.628299
0.630112
0.631729
0.633172
0.634472
0.635653
0.636754
0.63781
0.638897
0.640085
0.641633
0.643819
0.647788
0.487273
0.502068
0.514985
0.526831
0.537709
0.547591
0.556438
0.564277
0.57119
0.577279
0.582637
0.587357
0.591526
0.595222
0.598506
0.601432
0.604041
0.606373
0.608457
0.610324
0.611997
0.613504
0.614867
0.616124
0.617301
0.618471
0.619689
0.621191
0.623205
0.626847
0.462092
0.47673
0.489509
0.501264
0.512108
0.522013
0.530941
0.538918
0.546025
0.552354
0.557988
0.563005
0.567484
0.571493
0.575088
0.578317
0.581219
0.583827
0.58617
0.588278
0.590172
0.591877
0.593415
0.594821
0.596116
0.597365
0.598613
0.600071
0.601933
0.605291
0.436358
0.450841
0.463498
0.475179
0.486007
0.495948
0.504964
0.513081
0.520375
0.526931
0.532821
0.538117
0.542886
0.547189
0.551076
0.554593
0.557769
0.56064
0.56323
0.565566
0.567668
0.569559
0.571259
0.572799
0.574201
0.575523
0.576801
0.578226
0.579945
0.582983
0.410081
0.424409
0.436956
0.448577
0.459402
0.46939
0.478498
0.486754
0.494227
0.500996
0.507126
0.51268
0.517718
0.522293
0.526453
0.530236
0.533672
0.536791
0.539614
0.542166
0.544467
0.546537
0.548394
0.550065
0.551565
0.552946
0.55424
0.555625
0.557233
0.560031
0.383273
0.397441
0.409888
0.421462
0.432293
0.442332
0.451535
0.459926
0.467569
0.474536
0.480887
0.48668
0.491963
0.496789
0.501198
0.505226
0.508902
0.512249
0.515287
0.518038
0.520518
0.522747
0.524743
0.526532
0.52813
0.529581
0.530903
0.532245
0.533703
0.536168
0.355942
0.36994
0.382297
0.393834
0.404677
0.41477
0.424066
0.432586
0.440388
0.447538
0.454091
0.460098
0.465603
0.470653
0.475286
0.479535
0.483428
0.486983
0.49022
0.493158
0.495811
0.498194
0.500319
0.502205
0.503863
0.505339
0.506661
0.50798
0.509383
0.51163
0.328096
0.341911
0.354188
0.365697
0.376555
0.386701
0.396084
0.404726
0.412674
0.419988
0.426721
0.432917
0.438617
0.443864
0.448692
0.453135
0.457215
0.460951
0.464358
0.467454
0.470251
0.472766
0.475013
0.477011
0.478763
0.480296
0.481614
0.48284
0.484055
0.485967
0.299748
0.313359
0.325569
0.337061
0.347932
0.358123
0.367585
0.376336
0.384415
0.391875
0.398763
0.405121
0.410984
0.416394
0.421384
0.425988
0.430227
0.434121
0.437683
0.440926
0.443853
0.446473
0.448793
0.450832
0.452607
0.454157
0.455496
0.456733
0.457924
0.459597
0.270925
0.284302
0.296459
0.307938
0.318815
0.329037
0.338565
0.347411
0.355605
0.363187
0.370203
0.37669
0.382682
0.388218
0.393332
0.398057
0.402414
0.406423
0.410095
0.413444
0.416482
0.419218
0.421653
0.423782
0.425593
0.427106
0.428338
0.429416
0.430433
0.431799
0.24169
0.254784
0.266895
0.278354
0.289217
0.29945
0.309025
0.31795
0.326237
0.333916
0.341026
0.347602
0.353681
0.3593
0.364495
0.369304
0.373748
0.377847
0.381605
0.385023
0.388104
0.390858
0.3933
0.395451
0.397316
0.398906
0.400199
0.401265
0.402173
0.403227
0.212184
0.224911
0.236947
0.248354
0.25916
0.269371
0.27897
0.287952
0.296308
0.304053
0.311219
0.317845
0.323966
0.329618
0.334839
0.339667
0.344132
0.34826
0.352064
0.355552
0.358719
0.361549
0.364021
0.366129
0.367882
0.369322
0.370466
0.371394
0.372176
0.372888
0.182689
0.194891
0.206748
0.21801
0.228684
0.23882
0.24841
0.257422
0.265817
0.273588
0.280763
0.287384
0.29349
0.29912
0.304317
0.309123
0.313568
0.317667
0.321424
0.324847
0.327952
0.330757
0.333265
0.33546
0.337302
0.33877
0.339844
0.340606
0.341174
0.341553
0.153678
0.165086
0.176519
0.187445
0.197857
0.207838
0.217368
0.226371
0.234769
0.242529
0.249671
0.256237
0.262262
0.267788
0.272868
0.277561
0.281918
0.285971
0.289717
0.293136
0.296194
0.298875
0.301198
0.303202
0.304904
0.306297
0.307313
0.307949
0.308279
0.308141
0.125798
0.136023
0.146616
0.156882
0.166815
0.176507
0.185893
0.194822
0.203157
0.210839
0.217879
0.224318
0.230194
0.235553
0.240452
0.244946
0.249087
0.252916
0.256462
0.259746
0.262762
0.265478
0.267847
0.269834
0.271433
0.272668
0.273514
0.27396
0.274046
0.273498
0.0997484
0.10834
0.117548
0.126696
0.135823
0.145007
0.154103
0.162859
0.171066
0.178618
0.185498
0.191726
0.197338
0.202405
0.20702
0.211272
0.215214
0.218856
0.222173
0.225154
0.227822
0.230219
0.232366
0.23424
0.235781
0.236943
0.237648
0.237813
0.237435
0.236168
0.0761277
0.0826872
0.0899573
0.0974685
0.105358
0.113681
0.122186
0.130523
0.138423
0.145721
0.152344
0.158277
0.163538
0.168193
0.172348
0.176126
0.179638
0.182955
0.18608
0.188963
0.19153
0.193744
0.195626
0.197223
0.198556
0.199613
0.200285
0.20034
0.199575
0.197669
0.0552555
0.0596031
0.0645571
0.0699556
0.0761608
0.0831983
0.090704
0.0982916
0.105655
0.112534
0.118746
0.124222
0.128992
0.133157
0.136826
0.140089
0.143024
0.145712
0.148223
0.150588
0.15278
0.15474
0.156417
0.157789
0.158856
0.159641
0.160114
0.159994
0.158786
0.156063
0.0370323
0.0393064
0.0419526
0.0449622
0.0490955
0.0542674
0.0600533
0.0662194
0.0725533
0.078699
0.0842863
0.0890997
0.0931292
0.0965184
0.0994593
0.102115
0.10459
0.106904
0.109019
0.110895
0.11254
0.114
0.115311
0.116453
0.117356
0.117986
0.118353
0.118187
0.116664
0.113337
0.0208716
0.0214965
0.0221373
0.0230325
0.0254898
0.0286779
0.0322385
0.0363098
0.0408603
0.0455669
0.0500161
0.0538738
0.0569672
0.0593186
0.0611164
0.062635
0.0641173
0.0656518
0.0671632
0.0685147
0.0696268
0.0705259
0.0712917
0.0719707
0.0725257
0.0728932
0.0730966
0.0730275
0.0716631
0.0680649
0.00631394
0.00528125
0.00131814
0.000460556
0.00296315
0.00478434
0.00616248
0.00784592
0.0100011
0.0124511
0.0149362
0.0172054
0.0190736
0.0204728
0.0214551
0.0221612
0.0227523
0.0233404
0.0239519
0.0245433
0.0250548
0.025465
0.0257929
0.0260655
0.026274
0.026365
0.026335
0.0263371
0.0259608
0.0234275
0.687708
0.671899
0.653094
0.63299
0.61221
0.590671
0.568492
0.545713
0.522337
0.498384
0.473881
0.448831
0.423258
0.397172
0.37059
0.343536
0.316028
0.288121
0.259876
0.231413
0.202906
0.174642
0.147059
0.120676
0.0960574
0.0736756
0.0538096
0.0364001
0.0208666
0.00666172
0.685143
0.667926
0.648652
0.628335
0.607538
0.586035
0.56391
0.541195
0.517889
0.494011
0.469588
0.444623
0.419138
0.393146
0.366662
0.339714
0.31232
0.28454
0.256437
0.22814
0.199837
0.171827
0.14457
0.118582
0.0944123
0.0725017
0.053085
0.0360535
0.0207839
0.00672932
0.681929
0.663804
0.644238
0.623784
0.602974
0.581506
0.559428
0.536768
0.513529
0.489724
0.465379
0.440497
0.415101
0.389206
0.362821
0.335981
0.308702
0.28105
0.253091
0.224962
0.196862
0.1691
0.142145
0.116508
0.0927305
0.0712413
0.0522565
0.0356206
0.0206409
0.00676116
0.678374
0.659651
0.639848
0.61929
0.598468
0.577035
0.555005
0.532401
0.509225
0.485488
0.461219
0.436417
0.411107
0.385306
0.359018
0.332283
0.305117
0.277591
0.249774
0.221811
0.193916
0.166407
0.139764
0.114494
0.0911281
0.0700673
0.0514993
0.0352285
0.0205088
0.00677779
0.674554
0.655468
0.6355
0.614874
0.594042
0.572639
0.550655
0.528104
0.504987
0.481314
0.457116
0.432391
0.407164
0.381453
0.355259
0.328626
0.301572
0.27417
0.246494
0.218698
0.191011
0.163759
0.137434
0.11254
0.0895946
0.0689693
0.0508127
0.0348835
0.0203949
0.00678418
0.670541
0.651267
0.631201
0.610533
0.589692
0.568321
0.546379
0.523877
0.500816
0.477203
0.453072
0.428422
0.403273
0.377647
0.351546
0.325013
0.298067
0.270786
0.243252
0.215624
0.188147
0.16116
0.13516
0.11065
0.0881296
0.0679394
0.0501855
0.0345764
0.0202955
0.00678113
0.666392
0.647055
0.626951
0.606269
0.585423
0.564081
0.542179
0.519721
0.496711
0.473157
0.449089
0.424509
0.399435
0.373891
0.34788
0.321443
0.294604
0.267442
0.240051
0.212592
0.18533
0.158612
0.132947
0.108828
0.0867368
0.0669786
0.0496155
0.0343039
0.0202093
0.00677065
0.662159
0.642845
0.622751
0.602082
0.581234
0.559918
0.538053
0.515637
0.492677
0.469177
0.445169
0.420654
0.395653
0.370187
0.344262
0.317918
0.291184
0.26414
0.23689
0.209603
0.18256
0.15612
0.130798
0.107079
0.0854183
0.0660876
0.0491018
0.0340653
0.0201354
0.00675671
0.657884
0.63865
0.618604
0.597971
0.577127
0.555834
0.534003
0.511626
0.488713
0.465265
0.441313
0.41686
0.391928
0.366538
0.340694
0.31444
0.287808
0.260882
0.233773
0.20666
0.17984
0.153685
0.128713
0.105401
0.0841736
0.0652644
0.0486412
0.0338584
0.0200724
0.00673814
0.653599
0.634483
0.614514
0.593933
0.573102
0.551828
0.53003
0.507691
0.484821
0.461421
0.437522
0.41313
0.388264
0.362944
0.337178
0.31101
0.28448
0.257669
0.230699
0.203762
0.17717
0.151307
0.126693
0.103793
0.0830007
0.064505
0.0482295
0.0336797
0.0200181
0.00671657
0.649332
0.630357
0.610486
0.589969
0.569158
0.547904
0.526134
0.50383
0.481001
0.457646
0.433798
0.409463
0.38466
0.359408
0.333716
0.307632
0.2812
0.254503
0.227672
0.200912
0.174552
0.148987
0.124738
0.102254
0.0818983
0.0638046
0.0478625
0.0335258
0.019971
0.00669409
0.645102
0.626281
0.606522
0.58608
0.565295
0.54406
0.522318
0.500045
0.477253
0.453942
0.430142
0.405862
0.381118
0.35593
0.33031
0.304307
0.277971
0.251386
0.224694
0.198114
0.171989
0.146728
0.122848
0.100783
0.0808563
0.0631692
0.0475369
0.0333937
0.0199301
0.00667201
0.640928
0.622266
0.602629
0.582266
0.561515
0.540299
0.518581
0.496336
0.473579
0.450309
0.426554
0.402327
0.377639
0.352511
0.326962
0.301039
0.274794
0.248319
0.221769
0.195372
0.169487
0.144534
0.121028
0.099383
0.0798827
0.0625884
0.0472498
0.0332811
0.0198948
0.00665131
0.636823
0.61832
0.59881
0.578531
0.557818
0.536621
0.514926
0.492705
0.46998
0.446749
0.423037
0.398857
0.374223
0.349155
0.323674
0.297827
0.271672
0.245307
0.218899
0.19269
0.167049
0.142411
0.119282
0.0980564
0.0789773
0.062061
0.0469987
0.033186
0.0198645
0.00663271
0.632801
0.614455
0.595074
0.574878
0.554206
0.533027
0.511353
0.489156
0.466459
0.443264
0.41959
0.395455
0.370872
0.345861
0.320446
0.294673
0.268606
0.24235
0.216088
0.190069
0.164678
0.140359
0.117611
0.0968044
0.0781388
0.0615854
0.0467807
0.0331061
0.0198386
0.00661662
0.628872
0.610678
0.591424
0.57131
0.550682
0.529521
0.507866
0.48569
0.463018
0.439855
0.416216
0.392123
0.367588
0.342632
0.317278
0.291576
0.265596
0.23945
0.213335
0.18751
0.162375
0.138381
0.116016
0.0956263
0.0773652
0.0611585
0.0465927
0.0330392
0.0198205
0.00660337
0.625045
0.606998
0.587866
0.56783
0.547247
0.526104
0.504466
0.482308
0.459658
0.436523
0.412917
0.388861
0.364373
0.339467
0.314173
0.288539
0.262645
0.236608
0.21064
0.185014
0.160139
0.136476
0.114495
0.0945201
0.0766536
0.0607769
0.0464313
0.032983
0.0198111
0.00659278
0.621329
0.603419
0.584404
0.564441
0.543903
0.522778
0.501155
0.479013
0.456382
0.433272
0.409694
0.385673
0.361227
0.336368
0.311129
0.285562
0.259751
0.233824
0.208005
0.18258
0.15797
0.134642
0.113049
0.0934836
0.0760009
0.0604373
0.0462935
0.0329353
0.0197931
0.0065844
0.617734
0.59995
0.581044
0.561147
0.540651
0.519543
0.497934
0.475806
0.45319
0.430101
0.40655
0.38256
0.358152
0.333337
0.308151
0.282647
0.256919
0.2311
0.205431
0.180209
0.155869
0.132881
0.111675
0.0925147
0.0754046
0.0601367
0.0461768
0.0328951
0.0197763