/*--------------------------------*- C++ -*----------------------------------*\
  =========                 |
  \\      /  F ield         | OpenFOAM: The Open Source CFD Toolbox
   \\    /   O peration     | Website:  https://openfoam.org
    \\  /    A nd           | Version:  7
     \\/     M anipulation  |
\*---------------------------------------------------------------------------*/
FoamFile
{
    version     2.0;
    format      ascii;
    class       surfaceScalarField;
    location    "5.3";
    object      phi;
}
// * * * * * * * * * * * * * * * * * * * * * * * * * * * * * * * * * * * * * //

dimensions      [0 3 -1 0 0 0 0];

internalField   nonuniform List<scalar> 
35640
(
-1.19866e-05
4.94026e-05
-3.7416e-05
-4.12775e-05
0.000392212
-0.000362921
-8.33469e-05
0.000925441
-0.000883371
-0.000133625
0.00156054
-0.00151026
-0.000187966
0.00224695
-0.0021926
-0.000242696
0.00295519
-0.00290046
-0.000294666
0.00366754
-0.00361557
-0.000341251
0.00437256
-0.00432598
-0.000380307
0.00506249
-0.00502343
-0.000410102
0.00573119
-0.0057014
-0.00042928
0.00637331
-0.00635413
-0.000436831
0.00698379
-0.00697624
-0.00043198
0.00755784
-0.00756269
-0.000414172
0.00809107
-0.00810888
-0.000383051
0.00857968
-0.0086108
-0.000338409
0.00902049
-0.00906513
-0.000280172
0.00941119
-0.00946943
-0.000208385
0.00975029
-0.00982208
-0.000123191
0.0100371
-0.0101223
-2.48171e-05
0.010272
-0.0103703
8.6443e-05
0.0104557
-0.0105669
0.000210263
0.0105898
-0.0107136
0.000346252
0.0106764
-0.0108124
0.000493944
0.0107179
-0.0108656
0.000652804
0.010717
-0.0108759
0.000822169
0.0106764
-0.0108457
0.00100116
0.0105989
-0.0107779
0.00118862
0.0104874
-0.0106749
0.00138289
0.0103472
-0.0105415
0.0101851
0.0015818
-0.010384
-1.37187e-05
6.3121e-05
-4.64857e-05
0.000424979
-9.30886e-05
0.000972044
-0.000148636
0.00161609
-0.000208812
0.00230712
-0.000269879
0.00301626
-0.000328597
0.00372626
-0.000382243
0.00442621
-0.000428574
0.00510882
-0.000465808
0.00576843
-0.000492537
0.00640004
-0.000507687
0.00699894
-0.000510447
0.0075606
-0.000500226
0.00808085
-0.000476615
0.00855607
-0.000439379
0.00898325
-0.000388408
0.00936022
-0.000323692
0.00968557
-0.000245308
0.00995876
-0.000153402
0.01018
-4.81896e-05
0.0103504
7.00634e-05
0.0104715
0.000201032
0.0105455
0.000344312
0.0105747
0.000499396
0.0105619
0.00066558
0.0105102
0.000841893
0.0104226
0.00102701
0.0103023
0.00121912
0.0101551
0.00998841
0.00141577
-1.51798e-05
7.83006e-05
-5.0758e-05
0.000460557
-0.000100993
0.00102228
-0.00016077
0.00167587
-0.000225623
0.00237198
-0.000291739
0.00308238
-0.000355801
0.00379032
-0.000415065
0.00448548
-0.000467234
0.00516099
-0.000510458
0.00581165
-0.000543275
0.00643286
-0.000564567
0.00702023
-0.000573491
0.00756952
-0.00056943
0.00807679
-0.000551971
0.00853861
-0.000520844
0.00895213
-0.000475879
0.00931526
-0.000417017
0.00962671
-0.000344287
0.00988603
-0.000257776
0.0100935
-0.000157601
0.0102503
-4.39243e-05
0.0103579
8.30242e-05
0.0104185
0.000222913
0.0104348
0.000375261
0.0104096
0.000539351
0.0103461
0.000714156
0.0102478
0.000898221
0.0101183
0.00108952
0.00996383
0.0097926
0.00128533
-1.63078e-05
9.46082e-05
-5.4151e-05
0.0004984
-0.000107209
0.00107534
-0.000170124
0.00173878
-0.000238365
0.00244022
-0.000308118
0.00315213
-0.00037604
0.00385824
-0.000439347
0.00454878
-0.000495717
0.00521736
-0.000543265
0.0058592
-0.000580487
0.00647008
-0.00060623
0.00704598
-0.000619652
0.00758294
-0.00062012
0.00807726
-0.000607187
0.00852567
-0.000580563
0.0089255
-0.00054006
0.00927475
-0.000485578
0.00957223
-0.00041708
0.00981753
-0.000334562
0.010011
-0.000238044
0.0101537
-0.000127588
0.0102474
-3.31125e-06
0.0102942
0.000134558
0.0102969
0.0002856
0.0102585
0.000449144
0.0101826
0.000624111
0.0100728
0.000808931
0.00993344
0.00100137
0.0097714
0.00959556
0.00119841
-1.71898e-05
0.000111798
-5.65982e-05
0.000537809
-0.000111495
0.00113023
-0.00017637
0.00180366
-0.000246664
0.00251051
-0.000318547
0.00322401
-0.000388718
0.00392842
-0.000454383
0.00461445
-0.000513203
0.00527618
-0.000563267
0.00590926
-0.000603064
0.00650988
-0.000631428
0.00707434
-0.000647482
0.007599
-0.000650599
0.00808037
-0.000640339
0.00851541
-0.000616387
0.00890155
-0.000578531
0.0092369
-0.000526631
0.00952033
-0.000460592
0.00975149
-0.000380324
0.00993075
-0.000285742
0.0100592
-0.000176786
0.0101385
-5.34419e-05
0.0101709
8.41914e-05
0.0101593
0.00023581
0.0101069
0.000400806
0.0100176
0.000578102
0.00989553
0.000766051
0.0097455
0.000962229
0.00957522
0.00939454
0.00116326
-1.77358e-05
0.000129534
-5.80479e-05
0.000578121
-0.000113831
0.00118602
-0.000179452
0.00186928
-0.000250382
0.00258144
-0.000322843
0.00329648
-0.000393578
0.00399915
-0.000459802
0.00468067
-0.000519195
0.00533557
-0.000569842
0.00595991
-0.000610218
0.00655025
-0.000639147
0.00710327
-0.000655761
0.00761561
-0.000659435
0.00808405
-0.000649721
0.0085057
-0.000626299
0.00887813
-0.000588946
0.00919954
-0.000537492
0.00946887
-0.000471775
0.00968577
-0.00039162
0.00985059
-0.00029684
0.00996439
-0.000187243
0.0100289
-6.26685e-05
0.0100463
7.69407e-05
0.0100197
0.00023144
0.00995241
0.000400324
0.00984867
0.000582591
0.00971327
0.000776542
0.00955155
0.000979592
0.00937217
0.00918617
0.00118795
-1.79874e-05
0.000147521
-5.85038e-05
0.000618638
-0.000114153
0.00124167
-0.000179274
0.0019344
-0.000249395
0.00265156
-0.0003208
0.00336788
-0.000390316
0.00406867
-0.000455214
0.00474557
-0.000513185
0.00539355
-0.000562326
0.00600905
-0.000601117
0.00658904
-0.00062839
0.00713054
-0.000643278
0.0076305
-0.000645162
0.00808593
-0.000633598
0.00849414
-0.000608271
0.0088528
-0.00056895
0.00916022
-0.000515434
0.00941536
-0.000447508
0.00961784
-0.00036492
0.009768
-0.000267384
0.00986685
-0.000154573
0.00991605
-2.61712e-05
0.00991791
0.000118058
0.00987544
0.000278152
0.00979231
0.000453773
0.00967305
0.000644044
0.00952299
0.000847296
0.00934829
0.00106081
0.00915865
0.00896663
0.00128035
-1.79387e-05
0.00016546
-5.79593e-05
0.000658658
-0.000112475
0.00129618
-0.000175829
0.00199775
-0.000243646
0.00271938
-0.000312321
0.00343655
-0.000378783
0.00413513
-0.000440366
0.00480715
-0.000494804
0.00544798
-0.000540223
0.00605447
-0.000575114
0.00662393
-0.000598316
0.00715374
-0.000608978
0.00764116
-0.000606486
0.00808344
-0.000590403
0.00847805
-0.000560424
0.00882282
-0.000516316
0.00911611
-0.000457854
0.0093569
-0.000384782
0.00954477
-0.000296787
0.00968001
-0.000193488
0.00976355
-7.44372e-05
0.00979699
6.0831e-05
0.00978264
0.000212741
0.00972353
0.000381532
0.00962352
0.000567098
0.00948749
0.000768743
0.00932135
0.000984908
0.00913213
0.0012128
0.00893076
0.00873168
0.00144775
-1.76042e-05
0.000183065
-5.64491e-05
0.000697504
-0.000108839
0.00134857
-0.000169171
0.00205809
-0.000233196
0.0027834
-0.000297442
0.0035008
-0.000358957
0.00419665
-0.000415168
0.00486337
-0.000463872
0.00549669
-0.00050323
0.00609383
-0.000531755
0.00665246
-0.000548305
0.00717029
-0.000552035
0.00764489
-0.000542343
0.00807375
-0.000518803
0.00845451
-0.000481121
0.00878514
-0.000429064
0.00906406
-0.000362394
0.00929022
-0.00028083
0.00946321
-0.000184016
0.00958319
-7.14988e-05
0.00965103
5.72636e-05
0.00966823
0.000202878
0.00963703
0.000365941
0.00956046
0.000546906
0.00944256
0.000745924
0.00928847
0.000962559
0.00910471
0.00119545
0.00889924
0.00144182
0.00868439
0.00847693
0.00169657
-1.70002e-05
0.000200065
-5.40249e-05
0.000734529
-0.000103343
0.00139789
-0.000159438
0.00211418
-0.000218202
0.00284217
-0.000276319
0.00355892
-0.000330977
0.0042513
-0.000379715
0.0049121
-0.000420411
0.00553739
-0.000451271
0.00612469
-0.000470843
0.00667203
-0.000478002
0.00717745
-0.000471914
0.0076388
-0.000451983
0.00805382
-0.000417796
0.00842032
-0.000369074
0.00873642
-0.000305586
0.00900057
-0.000227091
0.00921173
-0.000133303
0.00936942
-2.38435e-05
0.00947373
0.000101779
0.00952541
0.000244173
0.00952584
0.000404041
0.00947716
0.000582118
0.00938239
0.000779069
0.00924561
0.000995305
0.00907223
0.00123071
0.00886931
0.0014842
0.00864575
0.00175315
0.00841543
0.00819797
0.00203211
-1.61488e-05
0.000216214
-5.07661e-05
0.000769147
-9.61348e-05
0.00144326
-0.000146838
0.00216488
-0.000198927
0.00289426
-0.000249252
0.00360924
-0.000295153
0.0042972
-0.000334304
0.00495126
-0.000364674
0.00556776
-0.000384535
0.00614455
-0.000392471
0.00667997
-0.000387379
0.00717236
-0.000368432
0.00761985
-0.000335042
0.00802043
-0.000286812
0.00837209
-0.000223467
0.00867307
-0.000144784
0.00892188
-5.05383e-05
0.00911748
5.95488e-05
0.00925933
0.000185848
0.00934743
0.000328852
0.0093824
0.000489188
0.0093655
0.000667604
0.00929874
0.000864921
0.00918507
0.00108196
0.00902857
0.00131939
0.00883481
0.00157741
0.00861128
0.00185533
0.00836783
0.0021508
0.00811997
0.00789062
0.00245815
-1.5082e-05
0.000231296
-4.67752e-05
0.00080084
-8.74032e-05
0.00148389
-0.000131656
0.00220914
-0.000175741
0.00293834
-0.000216677
0.00365018
-0.000251971
0.0043325
-0.000279443
0.00497873
-0.000297172
0.00558549
-0.000303502
0.00615088
-0.000297066
0.00667353
-0.000276782
0.00715208
-0.000241833
0.0075849
-0.000191638
0.00797023
-0.000125807
0.00830626
-4.4074e-05
0.00859134
5.37716e-05
0.00882404
0.000167931
0.00900332
0.000298651
0.00912861
0.000446268
0.00919982
0.000611236
0.00921743
0.000794145
0.00918259
0.000995716
0.00909717
0.00121679
0.008964
0.00145826
0.00878709
0.001721
0.00857207
0.00200552
0.00832676
0.00231155
0.0080618
0.00263715
0.00779437
0.00755113
0.00297664
-1.3839e-05
0.000245135
-4.21779e-05
0.000829179
-7.73846e-05
0.00151909
-0.000114249
0.002246
-0.000149117
0.00297321
-0.000179175
0.00368024
-0.0002021
0.00435543
-0.00021587
0.0049925
-0.000218684
0.0055883
-0.000208973
0.00614117
-0.000185426
0.00664998
-0.000146986
0.00711364
-9.28481e-05
0.00753077
-2.24377e-05
0.00789982
6.46268e-05
0.0082192
0.000168609
0.00848736
0.000289697
0.00870295
0.00042806
0.00886496
0.000583897
0.00897277
0.000757476
0.00902624
0.000949167
0.00902574
0.00115947
0.00897229
0.001389
0.00886764
0.00163852
0.00871447
0.00190893
0.00851668
0.00220116
0.00827984
0.00251601
0.00801192
0.00285359
0.00772422
0.00321251
0.00743544
0.00717631
0.00358733
-1.24659e-05
0.000257602
-3.71193e-05
0.000853833
-6.63539e-05
0.00154833
-9.50357e-05
0.00227468
-0.000119624
0.0029978
-0.000137458
0.00369807
-0.000146387
0.00436435
-0.000144547
0.00499066
-0.000130271
0.00557402
-0.000102087
0.00611299
-5.87504e-05
0.00660665
7.6309e-07
0.00705412
7.72419e-05
0.00745429
0.00017125
0.00780581
0.000283171
0.00810728
0.000413252
0.00835728
0.000561658
0.00855454
0.000728511
0.00869811
0.000913943
0.00878734
0.00111813
0.00882205
0.00134131
0.00880256
0.00158383
0.00872977
0.00184614
0.00860533
0.00212884
0.00843178
0.00243268
0.00821284
0.00275856
0.00795395
0.00310741
0.00766306
0.00347972
0.00735192
0.00387466
0.0070405
0.00676369
0.00428728
-1.10143e-05
0.000268617
-3.17596e-05
0.000874579
-5.46177e-05
0.00157119
-7.44917e-05
0.00229456
-8.79156e-05
0.00301123
-9.23643e-05
0.00370252
-8.58466e-05
0.00435784
-6.66579e-05
0.00497147
-3.32706e-05
0.00554064
1.56719e-05
0.00606404
8.13441e-05
0.00654097
0.000164723
0.00697074
0.000266574
0.00735244
0.000387447
0.00768494
0.000527715
0.00796701
0.000687609
0.00819738
0.000867256
0.0083749
0.00106672
0.00849864
0.00128605
0.00856801
0.00152529
0.00858281
0.00178453
0.00854332
0.00206389
0.00845041
0.0023636
0.00830563
0.00268398
0.00811139
0.00302556
0.00787127
0.00338905
0.00759046
0.00377536
0.00727676
0.00418519
0.00694208
0.00461833
0.00660737
0.00631153
0.00507048
-9.53854e-06
0.000278155
-2.62692e-05
0.000891309
-4.2504e-05
0.00158742
-5.31301e-05
0.00230518
-5.47124e-05
0.00301281
-4.48316e-05
0.00369264
-2.16395e-05
0.00433465
1.64131e-05
0.00493342
7.07103e-05
0.00548634
0.000142485
0.00599227
0.000232825
0.00645063
0.00034265
0.00686092
0.000472684
0.0072224
0.000623455
0.00753417
0.000795313
0.00779515
0.000988459
0.00800424
0.00120297
0.00816038
0.00143884
0.00826277
0.001696
0.00831085
0.00197434
0.00830447
0.00227376
0.00824391
0.00259413
0.00813004
0.00293537
0.00796438
0.0032975
0.00774926
0.00368068
0.00748809
0.00408531
0.00718582
0.00451212
0.00684995
0.00496188
0.00649232
0.00543484
0.00613441
0.00581884
0.00592753
-8.09446e-06
0.00028625
-2.08218e-05
0.000904037
-3.035e-05
0.00159695
-3.1486e-05
0.00230632
-2.0776e-05
0.0030021
4.12784e-06
0.00366774
4.4955e-05
0.00429382
0.000103114
0.00487526
0.000179838
0.00540962
0.000276229
0.00589588
0.000393275
0.00633359
0.000531818
0.00672238
0.000692524
0.0070617
0.000875881
0.00735081
0.0010822
0.00758884
0.00131162
0.00777481
0.00156417
0.00790784
0.00183972
0.00798722
0.00213807
0.0080125
0.00245895
0.00798359
0.00280201
0.00790085
0.00316685
0.0077652
0.00355305
0.00757817
0.00396025
0.00734207
0.00438817
0.00706016
0.00483683
0.00673716
0.00530659
0.0063802
0.00579813
0.00600077
0.00631201
0.00562053
0.00528527
0.00684558
-6.73653e-06
0.000292987
-1.5587e-05
0.000912887
-1.84876e-05
0.00159985
-1.0091e-05
0.00229792
1.3118e-05
0.00297889
5.3468e-05
0.00362739
0.000112596
0.00423469
0.000191779
0.00479608
0.000292106
0.00530929
0.00041454
0.00577344
0.000559953
0.00618818
0.000729088
0.00655324
0.000922534
0.00686825
0.00114071
0.00713264
0.00138385
0.00734569
0.00165203
0.00750663
0.00194516
0.00761471
0.00226301
0.00766937
0.00260521
0.0076703
0.00297126
0.00761753
0.00336057
0.00751155
0.00377242
0.00735335
0.00420605
0.00714454
0.00466067
0.00688745
0.00513555
0.00658528
0.00563021
0.0062425
0.00614459
0.00586582
0.0066791
0.00546625
0.00723441
0.00506522
0.00471106
0.00780863
-5.51541e-06
0.000298502
-1.07223e-05
0.000918095
-7.22826e-06
0.00159636
1.05361e-05
0.00228016
4.62191e-05
0.00294321
0.000102156
0.00357145
0.000179927
0.00415692
0.000280697
0.00469531
0.000405414
0.00518457
0.000554902
0.00562395
0.000729895
0.00601318
0.000931018
0.00635212
0.00115875
0.00664052
0.00141341
0.00687798
0.00169514
0.00706396
0.0020039
0.00719787
0.00233947
0.00727914
0.00270145
0.00730739
0.00308927
0.00728247
0.00350222
0.00720459
0.00393939
0.00707437
0.00439977
0.00689297
0.0048822
0.00666211
0.00538548
0.00638418
0.00590842
0.00606234
0.00645003
0.00570089
0.00700974
0.00530611
0.00758761
0.00488838
0.00818426
0.00446857
0.00409698
0.00879835
-4.47499e-06
0.000302977
-6.36391e-06
0.000919983
3.15474e-06
0.00158684
2.995e-05
0.00225336
7.78421e-05
0.00289531
0.000149226
0.00350007
0.000245654
0.00406049
0.000368199
0.00457276
0.000517677
0.0050351
0.000694767
0.00544686
0.000900055
0.00580789
0.00113402
0.00611815
0.00139701
0.00637753
0.0016892
0.00658579
0.0020106
0.00674257
0.00236102
0.00684745
0.00274006
0.00690009
0.00314715
0.0069003
0.00358149
0.00684814
0.00404207
0.006744
0.00452771
0.00658873
0.00503704
0.00638364
0.00556855
0.00613061
0.0061206
0.00583212
0.00669158
0.00549136
0.00727999
0.00511248
0.00788476
0.00470134
0.00850553
0.00426761
0.00914275
0.00383135
0.00344428
0.00979545
-3.64957e-06
0.000306627
-2.61663e-06
0.00091895
1.24456e-05
0.00157178
4.7775e-05
0.00221803
0.000107409
0.00283568
0.00019384
0.00341364
0.000308626
0.00394571
0.000452764
0.00442862
0.00062695
0.00486091
0.00083172
0.00524209
0.0010675
0.00557212
0.00133459
0.00585106
0.00163318
0.00607894
0.00196328
0.00625569
0.00232471
0.00638113
0.00271712
0.00645505
0.00313989
0.00647732
0.00359221
0.00644798
0.00407304
0.00636732
0.00458107
0.00623597
0.00511482
0.00605498
0.00567257
0.00582589
0.00625242
0.00555076
0.00685238
0.00523217
0.00747037
0.00487336
0.00810447
0.00447838
0.0087531
0.00405271
0.00941546
0.00360524
0.0100918
0.00315504
0.00275475
0.0107813
-3.06163e-06
0.000309688
4.45926e-07
0.000915443
2.04987e-05
0.00155172
6.37495e-05
0.00217478
0.000134492
0.00276494
0.000235353
0.00331278
0.000367916
0.00381315
0.000533129
0.00426341
0.000731577
0.00466246
0.000963652
0.00501002
0.0012296
0.00530616
0.00152956
0.0055511
0.0018635
0.005745
0.00223124
0.00588795
0.00263241
0.00597996
0.0030664
0.00602105
0.00353239
0.00601133
0.00402931
0.00595106
0.00455582
0.0058408
0.00511035
0.00568144
0.00569107
0.00547427
0.00629592
0.00522105
0.00692265
0.00492402
0.00756888
0.00458594
0.00823215
0.00421009
0.00891008
0.00380046
0.00960063
0.00336216
0.0103025
0.00290333
0.0110158
0.00244182
0.00203075
0.0117398
-2.71874e-06
0.000312407
2.8064e-06
0.000909917
2.72557e-05
0.00152727
7.77473e-05
0.00212429
0.000158857
0.00268383
0.000273369
0.00319827
0.000422917
0.0036636
0.000608412
0.00407792
0.000830345
0.00444053
0.00108896
0.0047514
0.00138434
0.00501078
0.00171641
0.00521903
0.00208493
0.00537648
0.00248949
0.00548339
0.00292949
0.00553997
0.00340408
0.00554646
0.00391219
0.00550322
0.00445246
0.00541079
0.00502329
0.00526997
0.00562279
0.00508194
0.00624882
0.00484824
0.00689898
0.00457088
0.00757069
0.00425231
0.00826117
0.00389546
0.00896757
0.0035037
0.00968705
0.00308097
0.0104171
0.00263212
0.0111559
0.00216449
0.0119032
0.00169458
0.00127543
0.0126585
-2.61248e-06
0.00031502
4.48909e-06
0.000902816
3.27545e-05
0.00149901
8.97976e-05
0.00206725
0.000180492
0.00259313
0.000307797
0.00307096
0.000473407
0.00349799
0.000678216
0.00387311
0.000922629
0.00419611
0.00120676
0.00446727
0.0015305
0.00468704
0.00189357
0.00485597
0.0022955
0.00497454
0.00273567
0.00504322
0.00321319
0.00506244
0.00372699
0.00503266
0.00427572
0.0049545
0.00485775
0.00482875
0.0054712
0.00465652
0.00611389
0.00443924
0.00678338
0.00417875
0.00747693
0.00387732
0.00819161
0.00353763
0.00892425
0.00316282
0.00967155
0.0027564
0.0104302
0.00232236
0.011197
0.00186529
0.0119696
0.00139184
0.0127472
0.000916981
0.000492931
0.0135297
-2.7172e-06
0.000317737
5.57286e-06
0.000894525
3.71365e-05
0.00146744
0.000100099
0.00200428
0.000199637
0.0024936
0.000338889
0.00293171
0.000519621
0.00331726
0.00074272
0.00365001
0.00100852
0.00393032
0.00131699
0.00415879
0.00166787
0.00433616
0.00206066
0.00446318
0.00249467
0.00454053
0.00296903
0.00456887
0.00348261
0.00454886
0.00403407
0.0044812
0.0046218
0.00436676
0.00524393
0.00420663
0.00589828
0.00400217
0.00658241
0.00375511
0.00729357
0.0034676
0.00802871
0.00314217
0.00878452
0.00278183
0.00955738
0.00238995
0.0103435
0.00197029
0.0111389
0.00152697
0.0119397
0.0010645
0.0127426
0.000588885
0.0135461
0.000113478
-0.000311273
0.0143503
-2.99052e-06
0.000320727
6.18908e-06
0.000885346
4.0647e-05
0.00143299
0.000109021
0.00193591
0.000216786
0.00238583
0.000367257
0.00278124
0.000562275
0.00312224
0.000802726
0.00340956
0.00108888
0.00364416
0.0014206
0.00382707
0.00179744
0.00395932
0.00221872
0.00404191
0.00268351
0.00407573
0.00319071
0.00406168
0.00373895
0.00400062
0.00432664
0.00389351
0.00495192
0.00374149
0.00561265
0.0035459
0.0063064
0.00330841
0.00703046
0.00303106
0.00778177
0.00271629
0.00855695
0.00236699
0.00935228
0.00198649
0.0101637
0.00157855
0.0109867
0.00114728
0.0118166
0.000697089
0.0126484
0.000232626
0.0134778
-0.000240508
0.0143019
-0.000710583
-0.00112987
0.0151205
-3.37339e-06
0.0003241
6.51822e-06
0.000875454
4.36297e-05
0.00139587
0.000117099
0.00186244
0.000232685
0.00227024
0.000393869
0.00262006
0.000602564
0.00291354
0.000859669
0.00315245
0.0011654
0.00333843
0.00151951
0.00347296
0.00192139
0.00355744
0.00237018
0.00359312
0.00286475
0.00358116
0.00340375
0.00352267
0.0039856
0.00341877
0.00460843
0.00327068
0.00527014
0.00307977
0.00596834
0.0028477
0.00670033
0.00257643
0.00746309
0.0022683
0.00825327
0.00192611
0.00906712
0.00155314
0.00990049
0.00115312
0.0107488
0.000730286
0.0116068
0.000289266
0.0124688
-0.000164989
0.0133288
-0.000627368
0.0141806
-0.00109227
0.0150192
-0.00154922
-0.00195321
0.0158426
-3.79338e-06
0.000327894
6.78269e-06
0.000864878
4.65132e-05
0.00135614
0.000125012
0.00178394
0.000248299
0.00214696
0.000420006
0.00244835
0.000642121
0.00269143
0.000915553
0.00287902
0.00124048
0.0030135
0.00161654
0.0030969
0.00204299
0.00313098
0.0025188
0.00311732
0.00304262
0.00305734
0.00361288
0.00295241
0.00422774
0.00280391
0.00488511
0.00261332
0.00558258
0.0023823
0.00631747
0.00211281
0.00708679
0.00180711
0.00788718
0.00146791
0.00871493
0.00109836
0.00956591
0.000702155
0.0104355
0.000283498
0.0113187
-0.000152843
0.0122095
-0.000601556
0.0131013
-0.00105684
0.0139866
-0.0015126
0.0148568
-0.00196248
0.015704
-0.00239646
-0.00277009
0.0165209
-4.16779e-06
0.000332061
7.23692e-06
0.000853473
4.97916e-05
0.00131359
0.000133549
0.00170019
0.000264764
0.00201574
0.000447203
0.00226591
0.000682921
0.00245571
0.00097284
0.0025891
0.00131709
0.00266925
0.00171523
0.00269876
0.00216636
0.00267985
0.00266927
0.00261441
0.0032224
0.0025042
0.00382395
0.00235087
0.00447178
0.00215607
0.0051635
0.0019216
0.00589638
0.00164942
0.00666738
0.00134181
0.0074731
0.00100139
0.0083098
0.000631205
0.00917334
0.00023482
0.0100592
-0.000183691
0.0109624
-0.000619679
0.0118774
-0.00106788
0.0127982
-0.00152232
0.0137175
-0.0019762
0.0146266
-0.00242169
0.0155138
-0.00284965
0.0163639
-0.00324661
-0.00356976
0.0171636
-4.40807e-06
0.000336469
8.15567e-06
0.000840909
5.4001e-05
0.00126774
0.000143572
0.00161062
0.00028333
0.00187598
0.000477153
0.00207209
0.000727159
0.00220571
0.00103427
0.00228199
0.00139858
0.00230495
0.00181952
0.00227783
0.00229606
0.00220331
0.00282676
0.00208371
0.00340985
0.00192112
0.00404319
0.00171753
0.00472433
0.00147493
0.00545047
0.00119546
0.00621846
0.000881434
0.00702478
0.000535492
0.00786553
0.000160628
0.00873646
-0.000239719
0.00963291
-0.000661635
0.0105499
-0.0011007
0.0114822
-0.00155198
0.0124243
-0.00200995
0.0133704
-0.00246845
0.0143146
-0.00292041
0.0152502
-0.0033573
0.0161677
-0.00376715
0.0170447
-0.00412357
0.0177989
-0.00432396
0.0024591
0.0527864
-0.0536637
0.00354143
0.0465371
-0.0476194
0.00458204
0.041232
-0.0422726
0.00552214
0.0377619
-0.038702
0.00628209
0.0361179
-0.0368778
0.00683549
0.0358129
-0.0363663
0.00718639
0.0362823
-0.0366332
0.00736019
0.0370981
-0.0372718
0.00739321
0.0380185
-0.0380515
0.00732127
0.0389613
-0.0388894
0.00717398
0.0399234
-0.0397761
0.00697268
0.0409117
-0.0407104
0.00673115
0.0419228
-0.0416812
0.0064588
0.042939
-0.0426667
0.00616217
0.0439353
-0.0436386
0.00584614
0.044897
-0.0445809
0.00551473
0.0458096
-0.0454782
0.00517167
0.0466652
-0.0463221
0.00481962
0.047462
-0.0471099
0.00446077
0.0481972
-0.0478383
0.0040973
0.0488662
-0.0485028
0.00373024
0.0494744
-0.0491073
0.00336104
0.0500151
-0.0496459
0.00299046
0.050492
-0.0501215
0.0026186
0.0509016
-0.0505298
0.00224603
0.0512452
-0.0508726
0.00187225
0.0515235
-0.0511498
0.00149878
0.051758
-0.0513846
0.00112818
0.0519626
-0.051592
0.0521174
-0.0517547
0.00233651
0.0518657
0.00349088
0.0453827
0.00460076
0.0401221
0.00560082
0.0367619
0.00640642
0.0353123
0.00699141
0.0352279
0.00736226
0.0359115
0.00754708
0.0369132
0.00758448
0.0379811
0.00751248
0.0390333
0.00736215
0.0400737
0.00715624
0.0411176
0.00690876
0.0421702
0.00662998
0.0432178
0.00632584
0.0442394
0.00600173
0.0452211
0.00566174
0.0461496
0.00530921
0.0470177
0.00494717
0.047824
0.004578
0.0485663
0.00420336
0.0492409
0.00382507
0.0498526
0.00344413
0.0503961
0.00306145
0.0508747
0.00267758
0.0512855
0.00229268
0.0516301
0.00190676
0.0519095
0.00152139
0.0521434
0.00113885
0.0523451
0.0524923
0.00224098
0.05091
0.00345896
0.0441647
0.00463226
0.0389488
0.00568743
0.0357067
0.00653553
0.0344642
0.00715016
0.0346133
0.00753979
0.0355219
0.00773505
0.036718
0.00777649
0.0379397
0.00770434
0.0391055
0.00755095
0.0402271
0.0073404
0.0413282
0.00708703
0.0424236
0.00680181
0.043503
0.00649031
0.0445509
0.00615821
0.0455532
0.00580978
0.046498
0.00544792
0.0473796
0.00507597
0.048196
0.00469657
0.0489457
0.0043108
0.0496266
0.0039213
0.0502421
0.00352865
0.0507887
0.00313389
0.0512695
0.00273796
0.0516814
0.00234068
0.0520274
0.0019425
0.0523076
0.00154507
0.0525409
0.00115027
0.0527399
0.0528796
0.00217982
0.0499286
0.00345053
0.042894
0.00467944
0.0377199
0.00578364
0.0346025
0.00667024
0.0335776
0.00731207
0.0339715
0.00771903
0.0351149
0.00792396
0.036513
0.00796912
0.0378945
0.00789663
0.039178
0.00774018
0.0403836
0.0075249
0.0415434
0.00726582
0.0426827
0.00697408
0.0437948
0.00665546
0.0448695
0.0063155
0.0458931
0.00595861
0.0468549
0.00558765
0.0477505
0.00520588
0.0485777
0.0048162
0.0493354
0.00441958
0.0500233
0.0040188
0.0506429
0.00361448
0.051193
0.00320771
0.0516763
0.00279957
0.0520896
0.00238995
0.052437
0.00197941
0.0527182
0.00156966
0.0529506
0.00116245
0.0531471
0.0532799
0.00216069
0.0489312
0.00347055
0.0415842
0.00474542
0.036445
0.00589118
0.0334568
0.00681133
0.0326574
0.00747736
0.0333054
0.0079
0.0346922
0.00811366
0.0362994
0.00816212
0.0378461
0.0080891
0.039251
0.00792962
0.0405431
0.00770958
0.0417635
0.00744493
0.0429473
0.00714662
0.0440931
0.00682103
0.0451951
0.0064734
0.0462408
0.00610805
0.0472203
0.00572818
0.0481304
0.00533675
0.0489692
0.00493678
0.0497354
0.00452951
0.0504305
0.00411741
0.051055
0.00370145
0.051609
0.00328276
0.0520949
0.00286233
0.05251
0.00244039
0.0528589
0.00201739
0.0531412
0.00159511
0.0533729
0.0011753
0.0535669
0.0536935
0.00219125
0.0479279
0.00352428
0.0402511
0.0048333
0.035136
0.00601174
0.0322783
0.00695966
0.0317095
0.00764632
0.0326188
0.00808267
0.0342559
0.00830402
0.036078
0.00835535
0.0377947
0.00828158
0.0393247
0.00811903
0.0407056
0.00789427
0.0419882
0.00762409
0.0432175
0.00731934
0.0443978
0.00698685
0.0455276
0.00663168
0.0465959
0.00625802
0.0475939
0.00586934
0.0485191
0.00546842
0.0493701
0.00505822
0.0501456
0.00464036
0.0508484
0.00421705
0.0514783
0.00378947
0.0520366
0.00335888
0.0525255
0.00292615
0.0529427
0.00249187
0.0532932
0.00205634
0.0535767
0.00162136
0.0538079
0.00118873
0.0539996
0.0541207
0.00227886
0.0469294
0.00361694
0.0389131
0.00494633
0.0338066
0.00614713
0.0310775
0.00711607
0.0307406
0.00781925
0.0319156
0.00826702
0.0338081
0.00849489
0.0358501
0.00854858
0.0377411
0.00847384
0.0393995
0.00830819
0.0408713
0.00807875
0.0422177
0.00780309
0.0434932
0.00749207
0.0447089
0.00715276
0.0458669
0.00679019
0.0469585
0.00640838
0.0479758
0.00601096
0.0489165
0.00560068
0.0497804
0.00518041
0.0505659
0.00475199
0.0512768
0.00431757
0.0519128
0.00387843
0.0524757
0.00343595
0.052968
0.00299094
0.0533877
0.00254428
0.0537399
0.00209616
0.0540248
0.00164833
0.0542557
0.00120269
0.0544452
0.0545618
0.00243034
0.0459468
0.0037537
0.0375897
0.00508781
0.0324725
0.00629922
0.0298661
0.00728146
0.0297583
0.00799647
0.0312006
0.00845304
0.0333516
0.0086861
0.0356171
0.00874157
0.0376856
0.00866567
0.0394754
0.00849688
0.0410401
0.00826283
0.0424517
0.00798175
0.0437743
0.00766461
0.045026
0.00731858
0.0462129
0.00694875
0.0473283
0.00655896
0.0483655
0.00615291
0.0493226
0.00573339
0.0501999
0.00530318
0.0509961
0.00486428
0.0517157
0.00441884
0.0523582
0.00396819
0.0529264
0.00351384
0.0534224
0.00305658
0.053845
0.0025975
0.054199
0.00213675
0.0544856
0.00167597
0.0547165
0.00121711
0.0549041
0.0550169
0.00265168
0.0449917
0.00393949
0.0363019
0.00526101
0.0311509
0.00646995
0.0286572
0.00745676
0.0287715
0.0081783
0.0304791
0.00864074
0.0328891
0.00887752
0.0353803
0.00893412
0.037629
0.00885683
0.0395527
0.00868486
0.041212
0.00844627
0.0426903
0.00815988
0.0440606
0.00783676
0.0453491
0.00748415
0.0465655
0.0071072
0.0477053
0.0067096
0.0487631
0.00629504
0.0497371
0.00586641
0.0506285
0.00542639
0.0514361
0.00497709
0.052165
0.00452071
0.0528146
0.00405863
0.0533885
0.00359245
0.0538885
0.00312297
0.0543145
0.00265143
0.0546705
0.00217802
0.054959
0.0017042
0.0551903
0.00123193
0.0553763
0.0554863
0.00294772
0.0440761
0.00417881
0.0350708
0.00546907
0.0298607
0.00666129
0.0274649
0.00764297
0.0277898
0.00836514
0.0297569
0.00883014
0.0324241
0.009069
0.0351415
0.009126
0.037572
0.0090471
0.0396316
0.00887191
0.0413872
0.00862888
0.0429333
0.00833728
0.0443522
0.00800833
0.0456781
0.0076493
0.0469246
0.00726536
0.0480892
0.00686012
0.0491684
0.00643723
0.05016
0.00599959
0.0510661
0.00554991
0.0518858
0.00509033
0.0526246
0.00462307
0.0532819
0.00414963
0.0538619
0.00367165
0.0543665
0.00319
0.0547961
0.00270597
0.0551545
0.00221988
0.0554451
0.00173297
0.0556772
0.00124713
0.0558622
0.0559701
0.00332185
0.0432124
0.00447538
0.0339173
0.00571483
0.0286212
0.00687511
0.0263047
0.00784108
0.0268239
0.00855737
0.0290406
0.00902127
0.0319602
0.0092604
0.0349023
0.00931699
0.0375154
0.00923625
0.0397123
0.0090578
0.0415657
0.00881043
0.0431807
0.00851375
0.0446489
0.00817913
0.0460127
0.00781385
0.0472898
0.00742309
0.04848
0.00701038
0.0495811
0.00657931
0.0505911
0.00613282
0.0515126
0.00567358
0.052345
0.00520385
0.0530943
0.0047258
0.0537599
0.00424107
0.0543466
0.00375135
0.0548562
0.00325756
0.0552899
0.00276105
0.055651
0.00226224
0.0559439
0.00176221
0.0561772
0.00126267
0.0563617
0.0564685
0.0037757
0.0424133
0.00483189
0.0328611
0.00600065
0.0274525
0.00711312
0.0251922
0.00805209
0.0258849
0.0087554
0.0283373
0.0092142
0.0315014
0.0094516
0.0346649
0.0095069
0.0374601
0.00942404
0.0397952
0.00924231
0.0417474
0.00899069
0.0434323
0.00868908
0.0449505
0.00834895
0.0463528
0.00797762
0.0476612
0.00758022
0.0488774
0.00716021
0.0500011
0.00672115
0.0510301
0.00626597
0.0519678
0.0057973
0.0528137
0.00531755
0.0535741
0.00482879
0.0542487
0.00433287
0.0548425
0.00383143
0.0553577
0.00332557
0.0557958
0.00281658
0.05616
0.00230503
0.0564555
0.00179184
0.0566904
0.00127852
0.056875
0.0569816
0.00430888
0.0416917
0.00524964
0.0319203
0.00632818
0.0263739
0.00737672
0.0241436
0.00827689
0.0249847
0.00895964
0.0276545
0.00940901
0.031052
0.00964247
0.0344315
0.00969552
0.037407
0.00961022
0.0398805
0.00942519
0.0419324
0.00916943
0.0436881
0.00886306
0.0452569
0.00851762
0.0466983
0.00814045
0.0480383
0.00773659
0.0492812
0.00730949
0.0504282
0.00686259
0.051477
0.0063989
0.0524315
0.00592094
0.0532916
0.00543131
0.0540637
0.00493194
0.054748
0.00442492
0.0553496
0.00391182
0.0558708
0.00339393
0.0563137
0.00287248
0.0566815
0.00234819
0.0569798
0.00182183
0.0572168
0.00129466
0.0574022
0.0575095
0.00491876
0.0410603
0.00572828
0.0311108
0.00669812
0.0254041
0.00766684
0.0231749
0.0085162
0.0241354
0.00917042
0.0270003
0.00960575
0.0306167
0.00983287
0.0342044
0.00988266
0.0373572
0.00979455
0.0399686