/*--------------------------------*- C++ -*----------------------------------*\
  =========                 |
  \\      /  F ield         | OpenFOAM: The Open Source CFD Toolbox
   \\    /   O peration     | Website:  https://openfoam.org
    \\  /    A nd           | Version:  7
     \\/     M anipulation  |
\*---------------------------------------------------------------------------*/
FoamFile
{
    version     2.0;
    format      ascii;
    class       volVectorField;
    location    "5.3";
    object      U;
}
// * * * * * * * * * * * * * * * * * * * * * * * * * * * * * * * * * * * * * //

dimensions      [0 1 -1 0 0 0 0];

internalField   nonuniform List<vector> 
18000
(
(-0.000259184 0.00127001 9.03328e-21)
(-0.00175262 0.011252 0)
(-0.00437205 0.0270232 0)
(-0.00735289 0.0459163 0)
(-0.0104365 0.0664107 -2.97139e-21)
(-0.0133659 0.0876185 1.50328e-20)
(-0.0159721 0.109001 -3.04066e-21)
(-0.0181509 0.130209 3.06161e-21)
(-0.0198393 0.151003 0)
(-0.0210038 0.171192 -9.27594e-21)
(-0.0216356 0.190612 -3.1027e-21)
(-0.0217402 0.209104 0)
(-0.021333 0.226522 6.20953e-21)
(-0.0204408 0.24273 6.22143e-21)
(-0.0190935 0.25761 -1.24417e-20)
(-0.017322 0.271065 -1.24235e-20)
(-0.0151594 0.283023 0)
(-0.0126385 0.293437 -1.85679e-20)
(-0.00979195 0.302285 6.15757e-21)
(-0.00665425 0.309573 -1.84401e-20)
(-0.00325811 0.315327 6.10961e-21)
(0.000366909 0.319592 0)
(0.00419237 0.322429 -6.02697e-21)
(0.00819127 0.323908 -6.01852e-21)
(0.0123363 0.324106 0)
(0.0165987 0.323105 0)
(0.0209479 0.320985 -1.18097e-20)
(0.0253651 0.317828 -1.17265e-20)
(0.0298262 0.313783 -1.16932e-20)
(0.0341109 0.309042 1.30219e-20)
(-0.000355637 0.00167677 1.28725e-20)
(-0.00230182 0.012177 2.23865e-20)
(-0.00560876 0.0282533 -2.29041e-20)
(-0.00937023 0.0473003 -2.33425e-20)
(-0.0132799 0.0678193 -5.93318e-21)
(-0.0170504 0.0889449 1.79946e-20)
(-0.0204968 0.110161 -2.42563e-20)
(-0.0235029 0.131133 -2.44503e-20)
(-0.0259934 0.151637 2.45998e-20)
(-0.0279281 0.171501 2.47068e-20)
(-0.0292965 0.190569 -1.23972e-20)
(-0.0300979 0.208693 -2.48339e-20)
(-0.0303433 0.225734 -1.24496e-20)
(-0.0300571 0.241562 2.48514e-20)
(-0.0292657 0.256063 -2.48378e-20)
(-0.0279967 0.269145 2.4808e-20)
(-0.0262827 0.280739 -4.95412e-20)
(-0.024156 0.2908 3.70054e-20)
(-0.0216478 0.299308 -2.45717e-20)
(-0.0187905 0.30627 1.2277e-20)
(-0.0156164 0.311715 -2.43632e-20)
(-0.0121563 0.315686 0)
(-0.00843991 0.318247 1.2205e-20)
(-0.00449542 0.319469 -2.3973e-20)
(-0.000352692 0.319431 2.38203e-20)
(0.00395689 0.318218 0)
(0.00839728 0.315919 -1.1688e-20)
(0.0129412 0.312621 1.16207e-20)
(0.0175427 0.308488 4.63233e-20)
(0.0219866 0.303726 2.58887e-20)
(-0.000467598 0.00207725 -2.06149e-20)
(-0.00286437 0.0130899 -2.23861e-20)
(-0.00682714 0.0294965 3.43478e-20)
(-0.011325 0.0487079 5.82956e-20)
(-0.0160087 0.0692538 0)
(-0.0205612 0.0902954 -2.40114e-20)
(-0.0247815 0.111334 2.42559e-20)
(-0.0285459 0.13206 7.32796e-20)
(-0.0317713 0.152266 -2.45995e-20)
(-0.0344124 0.17179 -2.47103e-20)
(-0.0364519 0.19049 7.42827e-20)
(-0.0378878 0.20823 2.48336e-20)
(-0.0387271 0.224876 0)
(-0.0389895 0.240306 -4.97181e-20)
(-0.0387006 0.254412 7.42957e-20)
(-0.0378864 0.267104 -2.47432e-20)
(-0.0365766 0.278316 2.47297e-20)
(-0.0348022 0.288007 2.46709e-20)
(-0.0325936 0.296158 8.54151e-23)
(-0.0299822 0.302778 0)
(-0.027 0.307894 7.30985e-20)
(-0.023677 0.311553 -4.82937e-20)
(-0.0200424 0.313818 2.41108e-20)
(-0.0161262 0.314763 0)
(-0.01196 0.314471 -2.38203e-20)
(-0.00757869 0.313032 9.43791e-20)
(-0.00302376 0.31054 -7.00372e-20)
(0.00167077 0.307096 -2.33263e-20)
(0.00643682 0.302876 2.28798e-20)
(0.0110614 0.298098 2.58334e-20)
(-0.000596616 0.00254475 0)
(-0.00344938 0.0141218 1.11679e-20)
(-0.00804735 0.0308479 6.137e-25)
(-0.0132382 0.0502073 -5.82588e-20)
(-0.0186346 0.070761 0)
(-0.0239015 0.0917004 -4.78826e-20)
(-0.0288253 0.112547 0)
(-0.0332734 0.13301 -7.32427e-20)
(-0.0371585 0.152898 2.45283e-20)
(-0.0404307 0.172065 -4.92712e-20)
(-0.0430689 0.190382 -4.94951e-20)
(-0.0450677 0.20772 -2.48026e-20)
(-0.0464328 0.223957 2.47547e-20)
(-0.047181 0.238975 2.46921e-20)
(-0.0473342 0.252672 -2.48394e-20)
(-0.0469168 0.264962 -4.93682e-20)
(-0.0459577 0.275781 4.91845e-20)
(-0.0444871 0.28509 0)
(-0.0425331 0.292872 0)
(-0.0401255 0.299135 0)
(-0.0372954 0.303908 0)
(-0.0340717 0.30724 0)
(-0.0304832 0.309192 0)
(-0.0265608 0.309843 -4.75075e-20)
(-0.0223369 0.309279 -4.73802e-20)
(-0.0178499 0.307597 -2.00133e-22)
(-0.0131453 0.304901 -4.66428e-20)
(-0.00826486 0.301303 -2.88794e-22)
(-0.003299 0.296995 -4.63011e-20)
(0.00153819 0.292212 1.02592e-19)
(-0.000747609 0.00302336 0)
(-0.00405875 0.0151593 1.00284e-19)
(-0.00925581 0.0322052 7.04751e-25)
(-0.0150886 0.0517081 -3.48843e-20)
(-0.0211379 0.0722639 1.18028e-19)
(-0.0270489 0.0930941 7.18149e-20)
(-0.0325994 0.113742 7.24423e-20)
(-0.0376538 0.133935 0)
(-0.0421197 0.1535 0)
(-0.0459436 0.172304 7.3911e-20)
(-0.0491029 0.190229 5.10065e-23)
(-0.0515902 0.207159 -1.73055e-19)
(-0.053408 0.222979 1.48301e-19)
(-0.0545705 0.237578 -4.95075e-20)
(-0.0550983 0.25086 4.92096e-20)
(-0.0550145 0.262742 4.91881e-20)
(-0.0543466 0.273162 -4.90918e-20)
(-0.0531224 0.282081 4.90492e-20)
(-0.0513687 0.289486 9.75392e-20)
(-0.0491139 0.295385 -4.84522e-20)
(-0.0463874 0.299805 -9.63813e-20)
(-0.0432165 0.302796 9.58165e-20)
(-0.039629 0.304422 -9.52117e-20)
(-0.0356558 0.304762 4.75072e-20)
(-0.0313299 0.30391 0)
(-0.026692 0.301968 0)
(-0.021792 0.299054 3.9655e-22)
(-0.0166792 0.295294 -1.83565e-19)
(-0.0114642 0.290896 9.09402e-20)
(-0.00636862 0.286115 -1.02244e-19)
(-0.000919377 0.00352165 0)
(-0.00469046 0.0162293 -8.91318e-20)
(-0.0104551 0.0335871 9.10462e-20)
(-0.0168792 0.0532188 0)
(-0.0235142 0.0737647 -1.88673e-19)
(-0.0299956 0.094477 -2.38969e-20)
(-0.0360951 0.114918 -4.83324e-20)
(-0.0416723 0.134836 -2.43118e-20)
(-0.0466341 0.154072 0)
(-0.0509263 0.172507 -4.92039e-20)
(-0.0545236 0.190035 4.92526e-20)
(-0.0574165 0.206552 9.88331e-20)
(-0.0596065 0.221951 -9.88766e-20)
(-0.0611058 0.236129 0)
(-0.0619332 0.248993 -9.86741e-20)
(-0.0621109 0.260465 9.82157e-20)
(-0.0616647 0.270483 9.81536e-20)
(-0.0606206 0.279012 1.46411e-19)
(-0.0590036 0.286038 -1.45908e-19)
(-0.0568403 0.291568 1.93446e-19)
(-0.0541583 0.29563 9.63454e-20)
(-0.0509834 0.298272 -9.58157e-20)
(-0.0473414 0.29956 1.89998e-19)
(-0.0432619 0.299577 0)
(-0.0387795 0.29842 9.34167e-20)
(-0.0339356 0.296204 1.85753e-19)
(-0.0287839 0.293057 -9.15454e-20)
(-0.0233812 0.289122 9.17112e-20)
(-0.0178564 0.28463 -1.79494e-22)
(-0.0124456 0.279859 -1.01763e-19)
(-0.00111307 0.00402513 -1.02365e-20)
(-0.00534502 0.0172959 0)
(-0.0116393 0.0349505 -1.1379e-19)
(-0.0185993 0.054699 2.31775e-20)
(-0.0257531 0.0752245 7.07073e-20)
(-0.0327277 0.0958105 2.38423e-20)
(-0.0392923 0.116042 9.63072e-20)
(-0.0453058 0.135683 0)
(-0.0506758 0.154589 4.89097e-20)
(-0.0553468 0.172655 4.90454e-20)
(-0.0592927 0.189788 -4.92686e-20)
(-0.0625032 0.205894 1.47738e-19)
(-0.0649788 0.220874 0)
(-0.0667299 0.234633 0)
(-0.0677741 0.247083 1.47486e-19)
(-0.0681331 0.258148 -2.45178e-19)
(-0.0678306 0.26777 9.76364e-20)
(-0.0668905 0.275913 -9.75093e-20)
(-0.0653362 0.282563 -9.67501e-20)
(-0.0631931 0.287726 -2.89309e-19)
(-0.0604864 0.291429 -3.17603e-22)
(-0.0572394 0.29372 9.50189e-20)
(-0.0534765 0.294664 -1.89142e-19)
(-0.0492258 0.294348 9.36582e-20)
(-0.0445214 0.292874 -4.86827e-22)
(-0.0394066 0.290367 -9.26858e-20)
(-0.0339379 0.286971 9.19311e-20)
(-0.0281785 0.28285 0)
(-0.022273 0.278256 8.97742e-20)
(-0.0164808 0.273502 2.3349e-22)
(-0.00132717 0.00452377 -2.04383e-20)
(-0.00601872 0.0183421 2.21908e-20)
(-0.0128043 0.0362747 -1.3615e-19)
(-0.0202433 0.0561219 -6.93483e-20)
(-0.0278449 0.0766159 9.39574e-20)
(-0.0352325 0.0970707 -1.42819e-19)
(-0.0421762 0.117091 -4.82118e-20)
(-0.0485359 0.136456 -9.69315e-20)
(-0.0542208 0.155035 9.75178e-20)
(-0.0591765 0.172737 -1.96022e-19)
(-0.0633766 0.18948 -9.81985e-20)
(-0.0668106 0.20518 -1.69805e-22)
(-0.0694781 0.219749 4.92652e-20)
(-0.0713886 0.233098 -1.47339e-19)
(-0.0725595 0.245142 -1.96273e-19)
(-0.0730107 0.25581 -8.6936e-25)
(-0.0727641 0.265045 -2.49515e-22)
(-0.0718419 0.272813 9.69352e-20)
(-0.0702665 0.279096 9.67488e-20)
(-0.0680612 0.2839 5.50563e-23)
(-0.0652491 0.28725 -2.308e-22)
(-0.0618513 0.289192 9.42964e-20)
(-0.0578901 0.289793 9.43549e-20)
(-0.0533928 0.289139 -1.28762e-22)
(-0.0483923 0.287339 -2.78287e-19)
(-0.0429324 0.284529 1.83463e-19)
(-0.0370729 0.280869 1.82413e-19)
(-0.0308825 0.276545 -1.80435e-19)
(-0.0245182 0.271841 -8.97728e-20)
(-0.0182709 0.267108 -9.97146e-20)
(-0.00156032 0.00501006 -1.83472e-19)
(-0.00670812 0.0193478 -2.21522e-20)
(-0.0139449 0.0375329 1.13403e-19)
(-0.0218043 0.0574598 9.24861e-20)
(-0.0297814 0.0779104 -9.39564e-20)
(-0.0375002 0.0982279 9.51716e-20)
(-0.0447342 0.118037 -4.80675e-20)
(-0.0513464 0.137129 1.4533e-19)
(-0.0572493 0.155388 -9.75165e-20)
(-0.062391 0.172735 9.7933e-20)
(-0.0667456 0.189098 4.90948e-20)
(-0.0703027 0.204404 -4.92497e-20)
(-0.073062 0.218574 -2.94631e-19)
(-0.0750329 0.231525 1.96255e-19)
(-0.0762318 0.243177 9.80274e-20)
(-0.0766773 0.253463 0)
(-0.0763894 0.262328 0)
(-0.0753893 0.269735 -5.40134e-22)
(-0.0736981 0.275668 -9.60572e-20)
(-0.0713372 0.280128 0)
(-0.0683278 0.283138 0)
(-0.0646894 0.284742 -9.46105e-20)
(-0.0604428 0.285006 0)
(-0.0556134 0.284016 -1.85439e-19)
(-0.0502333 0.281888 0)
(-0.0443467 0.278766 -9.16473e-20)
(-0.0380163 0.274828 1.81275e-19)
(-0.0313155 0.270286 -1.79309e-19)
(-0.0244089 0.265459 0)
(-0.0176287 0.260749 0)
(-0.00181014 0.00547465 1.63069e-19)
(-0.00740837 0.020294 0)
(-0.0150556 0.038701 -2.26279e-20)
(-0.0232761 0.0586848 2.30585e-20)
(-0.031556 0.0790775 -1.40397e-19)
(-0.0395227 0.0992519 4.15454e-23)
(-0.0469563 0.11885 -4.79384e-20)
(-0.0537249 0.137677 0)
(-0.0597459 0.155626 0)
(-0.0649706 0.172629 -4.88877e-20)
(-0.069375 0.188627 4.8936e-20)
(-0.0729496 0.203555 -9.81529e-20)
(-0.0756948 0.217342 9.83355e-20)
(-0.0776199 0.229913 0)
(-0.0787404 0.241193 0)
(-0.0790736 0.251117 0)
(-0.0786384 0.259633 9.66172e-20)
(-0.077455 0.266702 -2.94046e-22)
(-0.0755432 0.272305 9.63599e-20)
(-0.0729228 0.276443 -1.90343e-19)
(-0.0696137 0.279134 9.47724e-20)
(-0.0656343 0.280419 -4.69624e-19)
(-0.0610047 0.280361 2.93083e-22)
(-0.055749 0.279047 1.85436e-19)
(-0.0498981 0.276597 -6.33561e-22)
(-0.0434967 0.273162 1.81577e-19)
(-0.0366108 0.268936 -1.7945e-19)
(-0.0293176 0.26416 -1.78395e-19)
(-0.0217836 0.259197 4.98896e-22)
(-0.0143912 0.254508 -1.95463e-19)
(-0.00207362 0.00590951 -2.03266e-20)
(-0.00811395 0.0211635 0)
(-0.0161307 0.0397559 4.51739e-20)
(-0.0246536 0.0597693 -4.60334e-20)
(-0.0331634 0.080088 4.21011e-19)
(-0.0412948 0.100112 4.36487e-23)
(-0.0488364 0.119501 -4.78578e-20)
(-0.0556636 0.138069 4.83039e-20)
(-0.0616998 0.155721 -2.42624e-19)
(-0.0669015 0.172397 0)
(-0.0712471 0.188047 0)
(-0.0747289 0.202617 -9.76273e-20)
(-0.0773484 0.216043 9.81336e-20)
(-0.0791152 0.228256 -9.78068e-20)
(-0.0800439 0.239188 9.7392e-20)
(-0.0801507 0.248776 0)
(-0.0794541 0.256968 -3.86824e-19)
(-0.0779732 0.263726 1.92107e-19)
(-0.0757267 0.269029 9.56966e-20)
(-0.0727337 0.272873 2.85049e-19)
(-0.0690131 0.275273 0)
(-0.0645836 0.276267 1.87568e-19)
(-0.0594647 0.275913 1.85504e-19)
(-0.0536802 0.274298 1.83898e-19)
(-0.0472609 0.271541 -1.01172e-21)
(-0.0402525 0.267801 -1.80098e-19)
(-0.032724 0.263286 1.79445e-19)
(-0.0247562 0.258266 0)
(-0.0165116 0.253152 5.37628e-22)
(-0.00842929 0.248479 3.89089e-19)
(-0.00234759 0.00630778 -1.62131e-19)
(-0.00881896 0.0219408 0)
(-0.0171648 0.040676 -1.80154e-19)
(-0.0259322 0.0606877 -2.2962e-19)
(-0.0346002 0.0809124 -1.40262e-19)
(-0.0428136 0.100778 4.733e-20)
(-0.0503718 0.119957 5.52109e-23)
(-0.057159 0.138276 -4.81606e-20)
(-0.0631065 0.155644 3.26923e-22)
(-0.0681767 0.172011 9.7442e-20)
(-0.0723518 0.187335 9.7512e-20)
(-0.0756266 0.201569 -9.74242e-20)
(-0.0780045 0.214659 9.75948e-20)
(-0.0794953 0.226542 -2.92417e-19)
(-0.0801131 0.237153 2.91457e-19)
(-0.0798736 0.246434 1.93532e-19)
(-0.0787947 0.254334 4.82243e-19)
(-0.076895 0.260814 -9.64311e-20)
(-0.0741925 0.26585 -1.9028e-19)
(-0.0707062 0.269436 -7.05902e-22)
(-0.0664553 0.271583 -1.87933e-19)
(-0.0614591 0.272323 5.58534e-19)
(-0.0557382 0.27171 -3.70317e-19)
(-0.0493172 0.269827 3.65547e-19)
(-0.0422278 0.266793 -1.81832e-19)
(-0.0345175 0.26277 3.59119e-19)
(-0.0262591 0.257976 6.11519e-22)
(-0.0175374 0.252707 -3.5187e-19)
(-0.00850394 0.247431 3.47547e-19)
(0.000341358 0.242766 1.91507e-19)
(-0.00262864 0.0066637 1.62131e-19)
(-0.00951759 0.0226129 0)
(-0.018153 0.0414423 4.04957e-19)
(-0.0271087 0.0614157 1.37789e-19)
(-0.0358651 0.0815229 0)
(-0.0440795 0.101217 0)
(-0.0515638 0.120186 0)
(-0.058213 0.138262 0)
(-0.0639674 0.155362 9.68954e-20)
(-0.0687966 0.171439 9.71306e-20)
(-0.0726879 0.18646 -1.95047e-19)
(-0.0756392 0.200386 1.95231e-19)
(-0.0776563 0.213168 2.92306e-19)
(-0.07875 0.224749 9.75839e-20)
(-0.0789339 0.235072 9.6635e-20)
(-0.0782238 0.24408 -2.90109e-19)
(-0.0766375 0.251722 -3.84659e-19)
(-0.074193 0.257961 -1.91508e-19)
(-0.0709087 0.262771 1.90274e-19)
(-0.0668041 0.266141 -3.77547e-19)
(-0.0618996 0.268079 1.87006e-19)
(-0.0562166 0.26861 -3.71431e-19)
(-0.0497777 0.267785 1.83368e-19)
(-0.0426099 0.265681 -8.75379e-22)
(-0.0347476 0.262414 -1.80277e-19)
(-0.0262411 0.258143 -3.57532e-19)
(-0.0171682 0.253095 3.53805e-19)
(-0.00761873 0.247587 0)
(0.0022732 0.242144 -5.87723e-22)
(0.0119478 0.23748 -3.80865e-19)
(-0.00291341 0.00697285 2.02038e-20)
(-0.0102043 0.023169 0)
(-0.0190911 0.0420384 -1.798e-19)
(-0.0281812 0.0619321 4.57959e-20)
(-0.0369585 0.0818929 -4.65015e-20)
(-0.0450956 0.1014 0)
(-0.0524177 0.120154 -4.76617e-20)
(-0.0588325 0.137993 4.79907e-20)
(-0.0642905 0.154838 9.66944e-20)
(-0.0687699 0.170646 -2.90834e-19)
(-0.0722637 0.185389 -9.73253e-20)
(-0.0747743 0.199034 -1.32976e-22)
(-0.0763105 0.211538 -1.99676e-22)
(-0.0768843 0.222852 -1.94187e-19)
(-0.0765099 0.23292 -9.70801e-20)
(-0.0752034 0.241691 0)
(-0.0729827 0.249115 2.00119e-22)
(-0.0698661 0.255154 1.90897e-19)
(-0.065873 0.259781 -1.89244e-19)
(-0.0610246 0.262982 0)
(-0.0553434 0.26476 0)
(-0.0488535 0.265137 0)
(-0.0415819 0.264156 0)
(-0.0335592 0.26189 -9.36341e-22)
(-0.0248244 0.258446 0)
(-0.0154317 0.253982 0)
(-0.00546559 0.248721 1.74981e-19)
(0.00497726 0.243 1.73044e-19)
(0.0157855 0.237396 1.71685e-19)
(0.0263469 0.232732 -6.74945e-22)
(-0.00319878 0.0072323 2.01604e-20)
(-0.0108742 0.0236016 -4.37956e-20)
(-0.0199758 0.0424514 2.68698e-19)
(-0.029149 0.0622181 -4.56767e-20)
(-0.0378833 0.0819984 4.64511e-20)
(-0.0458678 0.101298 5.25664e-23)
(-0.0529429 0.119828 1.42476e-19)
(-0.0590296 0.137433 -1.91558e-19)
(-0.0640907 0.154034 2.89242e-19)
(-0.0681134 0.169592 1.78722e-22)
(-0.0710979 0.184082 -9.69567e-20)
(-0.073052 0.197475 1.94104e-19)
(-0.0739882 0.209733 -1.93959e-19)
(-0.0739205 0.220813 1.93551e-19)
(-0.0728645 0.230663 0)
(-0.0708371 0.239235 1.92035e-19)
(-0.067857 0.246482 0)
(-0.0639435 0.252365 5.88029e-22)
(-0.059118 0.256855 -1.88334e-19)
(-0.053404 0.259938 -1.86808e-19)
(-0.0468274 0.261611 1.8517e-19)
(-0.0394169 0.261892 -1.83436e-19)
(-0.0312042 0.26082 -1.81624e-19)
(-0.0222259 0.258458 -3.60419e-19)
(-0.012527 0.254909 -1.77828e-19)
(-0.00216744 0.250319 1.76345e-19)
(0.00876059 0.244908 -3.4944e-19)
(0.0201508 0.239017 -1.73037e-19)
(0.0319183 0.233276 0)
(0.0434134 0.228619 -1.86389e-19)
(-0.00348204 0.00744077 0)
(-0.0115232 0.0239061 1.74597e-19)
(-0.0208049 0.0426719 -1.34335e-19)
(-0.030013 0.0622589 -2.27763e-19)
(-0.0386437 0.0818183 0)
(-0.0464046 0.100882 0)
(-0.0531518 0.119175 -2.84956e-19)
(-0.0588214 0.136543 3.82617e-19)
(-0.0633889 0.152909 -2.88876e-19)
(-0.0668521 0.168234 0)
(-0.0692191 0.182494 9.7014e-20)
(-0.0705045 0.195663 -9.72074e-20)
(-0.0707254 0.207708 4.05984e-22)
(-0.0698986 0.218588 -9.71362e-20)
(-0.0680419 0.228258 -9.61421e-20)
(-0.065174 0.236671 -4.97992e-22)
(-0.0613152 0.243782 1.90425e-19)
(-0.0564868 0.249554 1.89722e-19)
(-0.050713 0.253957 3.34473e-22)
(-0.0440208 0.256973 3.73274e-19)
(-0.0364408 0.258598 -3.6991e-19)
(-0.028007 0.258846 3.66501e-19)
(-0.0187574 0.257749 1.81616e-19)
(-0.00873624 0.255367 1.79741e-19)
(0.0020042 0.25179 9.5178e-22)
(0.0133968 0.247156 0)
(0.0253408 0.241672 1.73303e-19)
(0.0377172 0.235676 -5.14061e-19)
(0.0504694 0.22984 1.69039e-19)
(0.0629326 0.225213 1.84253e-19)
(-0.00376103 0.00759857 -1.20235e-19)
(-0.0121481 0.0240812 -3.92412e-19)
(-0.0215774 0.0426942 -1.91606e-23)
(-0.030775 0.0620433 3.58551e-22)
(-0.0392456 0.0813352 -1.3854e-19)
(-0.0467162 0.10013 0)
(-0.0530598 0.118165 -9.44592e-20)
(-0.0582286 0.135289 -5.73015e-19)
(-0.0622116 0.151423 2.88374e-19)
(-0.0650181 0.166527 -1.92768e-19)
(-0.0666656 0.180578 2.89957e-19)
(-0.0671764 0.193549 -9.66997e-20)
(-0.0665731 0.205411 1.93545e-19)
(-0.0648765 0.216126 -4.82267e-19)
(-0.0621077 0.225652 2.88501e-19)
(-0.0582883 0.233945 -2.32893e-22)
(-0.0534411 0.240963 -5.70433e-19)
(-0.0475909 0.246668 1.88814e-19)
(-0.0407653 0.251031 -1.87399e-19)
(-0.0329965 0.254033 0)
(-0.0243204 0.255668 1.83694e-19)
(-0.0147776 0.255945 0)
(-0.00441393 0.254895 -1.80252e-19)
(0.0067183 0.252568 1.7848e-19)
(0.0185578 0.249047 1.7686e-19)
(0.0310297 0.244457 1.73889e-19)
(0.0440244 0.238989 0)
(0.0574076 0.232969 0)
(0.0711497 0.2271 -3.37491e-19)
(0.0846006 0.222544 5.44733e-19)
(-0.00403432 0.00770756 1.20332e-19)
(-0.0127469 0.0241283 2.17715e-19)
(-0.022293 0.0425168 -1.77889e-19)
(-0.0314377 0.0615646 3.63181e-19)
(-0.0396956 0.0805364 4.65657e-20)
(-0.0468139 0.0990223 4.68502e-20)
(-0.052684 0.116772 5.20582e-22)
(-0.0572745 0.133637 -1.9024e-19)
(-0.0605891 0.149536 -9.57701e-20)
(-0.0626494 0.164427 3.8608e-22)
(-0.0634836 0.178284 -3.9183e-22)
(-0.0631224 0.19108 -2.89513e-19)
(-0.0615953 0.202786 -9.62963e-20)
(-0.0589282 0.213368 4.40597e-22)
(-0.0551469 0.222785 1.91494e-19)
(-0.0502772 0.230996 1.90522e-19)
(-0.0443457 0.23796 5.36338e-22)
(-0.0373815 0.243642 -1.87969e-19)
(-0.0294177 0.248013 1.86675e-19)
(-0.0204922 0.251051 -1.85165e-19)
(-0.0106475 0.252751 -3.66665e-19)
(6.80737e-05 0.25312 -1.81352e-19)
(0.0116004 0.252183 3.58757e-19)
(0.0238879 0.249987 0)
(0.0368599 0.246605 -1.75034e-19)
(0.0504333 0.24215 -3.46827e-19)
(0.0644902 0.236795 -3.42439e-19)
(0.07888 0.230843 1.69959e-19)
(0.093596 0.225016 -5.02014e-19)
(0.108036 0.220595 1.79914e-19)
(-0.00430127 0.00777094 -1.99563e-19)
(-0.0133186 0.0240522 4.34042e-20)
(-0.0229522 0.0421419 1.77891e-19)
(-0.032004 0.060821 -1.36072e-19)
(-0.0399999 0.0794143 4.62079e-20)
(-0.046709 0.0975439 -1.23206e-22)
(-0.0520414 0.114973 4.71567e-19)
(-0.0559833 0.131557 1.9043e-19)
(-0.0585536 0.147212 1.91596e-19)
(-0.0597874 0.161891 2.88528e-19)
(-0.0597243 0.175564 -2.89049e-19)
(-0.0584046 0.188202 1.92907e-19)
(-0.0558658 0.199776 3.85263e-19)
(-0.0521405 0.210252 1.92063e-19)
(-0.0472603 0.219591 -2.29772e-22)
(-0.0412566 0.227755 -3.80779e-19)
(-0.0341615 0.234704 3.7835e-19)
(-0.0260099 0.240404 2.37682e-22)
(-0.0168414 0.244825 -1.86031e-19)
(-0.00670064 0.247948 1.84525e-19)
(0.00436185 0.249765 1.82971e-19)
(0.0162896 0.250282 -1.80346e-19)
(0.0290194 0.249522 -3.57691e-19)
(0.0424801 0.247528 2.92708e-22)
(0.0565914 0.244364 1.75595e-19)
(0.0712623 0.240132 1.72938e-19)
(0.0863683 0.234985 3.40478e-19)
(0.101743 0.2292 -3.35822e-19)
(0.117395 0.2235 0)
(0.132806 0.21929 1.77622e-19)
(-0.00456209 0.00779313 3.95203e-22)
(-0.0138634 0.0238599 0)
(-0.0235562 0.0415758 -1.32723e-19)
(-0.0324764 0.0598157 -4.51765e-20)
(-0.0401639 0.0779674 -1.83535e-19)
(-0.0464109 0.0956877 0)
(-0.0511474 0.112755 -2.82649e-19)
(-0.0543776 0.129028 9.48446e-20)
(-0.0561364 0.144421 0)
(-0.0564733 0.158881 -1.91575e-19)
(-0.0554403 0.172372 0)
(-0.0530881 0.184864 -2.88257e-19)
(-0.0494634 0.196323 2.87839e-19)
(-0.0446069 0.206715 -1.91777e-19)
(-0.0385578 0.216005 -1.90537e-19)
(-0.0313541 0.224152 0)
(-0.0230351 0.231119 0)
(-0.013643 0.236873 1.87008e-19)
(-0.0032248 0.241386 -2.08588e-22)
(0.00816643 0.244637 1.8321e-19)
(0.0204719 0.246619 -1.82062e-19)
(0.0336261 0.247337 3.60149e-19)
(0.0475565 0.246813 -1.78105e-19)
(0.0621823 0.245085 0)
(0.0774141 0.242211 5.21286e-19)
(0.0931536 0.238282 -8.57546e-19)
(0.109272 0.233433 1.70201e-19)
(0.125587 0.227909 1.67786e-19)
(0.142118 0.222425 1.6478e-19)
(0.158459 0.218512 3.49372e-19)
(-0.00481779 0.00777953 -1.58413e-19)
(-0.0143822 0.023561 3.45104e-19)
(-0.0241059 0.0408286 1.77058e-19)
(-0.0328564 0.0585572 4.05367e-19)
(-0.0401908 0.0762009 5.03946e-19)
(-0.0459261 0.0934541 9.29748e-20)
(-0.0500133 0.110112 -4.69091e-19)
(-0.0524756 0.126038 0)
(-0.0533644 0.141142 -3.80756e-19)
(-0.0527443 0.155369 -1.9074e-19)
(-0.0506805 0.168674 0)
(-0.047235 0.181022 -1.91216e-19)
(-0.0424649 0.192377 -1.7926e-22)
(-0.0364204 0.202703 -5.72776e-19)
(-0.0291494 0.211964 1.90533e-19)
(-0.0206984 0.22012 1.89192e-19)
(-0.0111149 0.227135 -3.75573e-19)
(-0.000449612 0.232975 -3.7303e-19)
(0.0112415 0.237615 2.48338e-22)
(0.0238965 0.241033 -1.82596e-22)
(0.0374475 0.243223 0)
(0.0518197 0.244191 -1.79069e-19)
(0.0669312 0.243955 -1.76267e-19)
(0.0826917 0.24255 0)
(0.0990035 0.240031 0)
(0.115762 0.236478 5.12278e-19)
(0.132834 0.232009 -5.04773e-19)
(0.150029 0.226834 0)
(0.167364 0.221649 4.91357e-19)
(0.184571 0.21812 -3.4658e-19)
(-0.00507015 0.00773623 8.26174e-22)
(-0.0148765 0.0231671 -3.45098e-19)
(-0.0246015 0.0399139 -4.40909e-20)
(-0.0331433 0.0570592 -4.50267e-19)
(-0.04008 0.0741275 -2.74826e-19)
(-0.0452558 0.0908526 9.27619e-20)
(-0.0486442 0.107049 1.87836e-19)
(-0.0502881 0.122585 4.7198e-19)
(-0.0502561 0.13737 3.80756e-19)
(-0.0486284 0.15134 3.82313e-19)
(-0.0454841 0.164447 0)
(-0.0408976 0.176647 8.79793e-22)
(-0.0349369 0.187901 0)
(-0.0276631 0.198172 3.81716e-19)
(-0.019134 0.207419 0)
(-0.00940583 0.215604 -1.88661e-19)
(0.00146443 0.22269 1.88597e-19)
(0.0134165 0.228645 0)
(0.026385 0.233442 0)
(0.0402983 0.237063 -5.46679e-19)
(0.0550791 0.239501 1.80747e-19)
(0.0706431 0.240761 0)
(0.0868991 0.240861 3.53317e-19)
(0.103748 0.239833 3.49335e-19)
(0.121084 0.237726 -6.88434e-19)
(0.138795 0.234613 6.79658e-19)
(0.15675 0.230596 4.57457e-22)
(0.174748 0.225852 3.30258e-19)
(0.192797 0.221042 -3.27736e-19)
(0.210783 0.217974 0)
(-0.00532152 0.00766961 3.9592e-19)
(-0.0153479 0.0226906 -4.29714e-20)
(-0.0250421 0.0388482 -3.51454e-19)
(-0.0333335 0.0553409 0)
(-0.0398264 0.0717671 -3.64435e-19)
(-0.0443947 0.0879027 0)
(-0.0470365 0.103583 -4.6705e-19)
(-0.0478151 0.118682 -2.83354e-19)
(-0.0468172 0.133111 -3.79017e-19)
(-0.044139 0.146798 0)
(-0.039874 0.159687 9.55022e-20)
(-0.0341095 0.17173 9.64944e-20)
(-0.0269255 0.182881 -1.90658e-19)
(-0.0183945 0.1931 -3.79804e-19)
(-0.00858553 0.202344 -1.88845e-19)
(0.00243478 0.210572 -7.52269e-19)
(0.0145991 0.217749 3.74532e-19)
(0.0278371 0.223842 2.65467e-22)
(0.0420732 0.228825 3.20162e-22)
(0.0572262 0.23268 5.46377e-19)
(0.0732088 0.235401 0)
(0.0899276 0.236993 0)
(0.107282 0.237474 -1.1795e-21)
(0.125164 0.236873 2.99283e-22)
(0.143459 0.235233 -3.41871e-19)
(0.16205 0.23262 -3.37797e-19)
(0.180803 0.229122 1.21079e-21)
(0.199514 0.224883 -3.30243e-19)
(0.218174 0.220517 -3.24887e-19)
(0.236829 0.217973 1.14505e-21)
(-0.00557451 0.00758589 0)
(-0.0157975 0.0221449 3.42399e-19)
(-0.0254246 0.0376504 3.07565e-19)
(-0.0334193 0.0534261 4.47296e-20)
(-0.0394185 0.0691473 7.27949e-19)
(-0.0433289 0.0846342 -9.23184e-20)
(-0.0451753 0.0997442 7.45917e-19)
(-0.0450429 0.114361 3.7561e-19)
(-0.0430368 0.128394 5.68296e-19)
(-0.0392697 0.141767 2.84697e-19)
(-0.03385 0.154416 9.52739e-20)
(-0.0268781 0.166287 4.76844e-19)
(-0.0184467 0.177329 5.99725e-23)
(-0.00864023 0.187495 1.90156e-19)
(0.00246059 0.196741 3.78091e-19)
(0.0147781 0.205025 3.75879e-19)
(0.0282343 0.212309 0)
(0.0427484 0.218561 0)
(0.0582348 0.223755 0)
(0.0746022 0.227875 0)
(0.0917539 0.230914 3.57769e-19)
(0.109587 0.232878 0)
(0.127991 0.233784 -2.4782e-22)
(0.146848 0.233658 6.90828e-19)
(0.166035 0.23254 3.41543e-19)
(0.185427 0.230487 3.37076e-19)
(0.204887 0.227572 6.64345e-19)
(0.224207 0.223908 0)
(0.243356 0.220049 -6.45948e-19)
(0.262541 0.218082 6.73547e-19)
(-0.00583173 0.00749074 3.14236e-19)
(-0.0162254 0.0215431 -3.42406e-19)
(-0.025743 0.0363414 0)
(-0.0333882 0.0513429 -3.56576e-19)
(-0.0388376 0.0663032 -9.17899e-20)
(-0.0420344 0.0810879 -2.7562e-19)
(-0.043033 0.0955786 -8.37318e-19)
(-0.041941 0.109669 -1.09684e-21)
(-0.0388834 0.123269 -2.82833e-19)
(-0.0339896 0.136297 -6.63528e-19)
(-0.0273828 0.148684 -9.49442e-20)
(-0.019177 0.160367 -3.79582e-19)
(-0.00947754 0.171291 -3.78984e-19)
(0.00161864 0.181404 0)
(0.0140192 0.190657 -3.75975e-19)
(0.0276352 0.199007 -5.60681e-19)
(0.042378 0.206414 1.85868e-19)
(0.0581563 0.212846 -3.67753e-19)
(0.0748746 0.218277 -3.64242e-19)
(0.0924317 0.222692 0)
(0.110721 0.226085 -7.14135e-19)
(0.129629 0.228462 0)
(0.149036 0.229837 -6.97185e-19)
(0.168813 0.230238 -3.43493e-19)
(0.188825 0.229698 -6.79034e-19)
(0.208936 0.228265 3.34575e-19)
(0.228999 0.226001 -9.92115e-19)
(0.248806 0.222984 3.25346e-19)
(0.268294 0.219698 1.60785e-21)
(0.287832 0.218348 -3.32231e-19)
(-0.00609537 0.00738895 -3.14243e-19)
(-0.0166298 0.0208976 4.26354e-20)
(-0.025988 0.0349428 3.04959e-19)
(-0.0332222 0.049123 3.56584e-19)
(-0.038057 0.063276 -3.62563e-19)
(-0.0404766 0.0773143 9.82637e-22)
(-0.0405672 0.0911451 3.71638e-19)
(-0.038461 0.104673 -7.48677e-19)
(-0.0343033 0.117808 -9.32636e-20)
(-0.0282405 0.130466 8.50954e-19)
(-0.0204106 0.14257 -5.68099e-19)
(-0.0109413 0.154054 9.47618e-19)
(4.91092e-05 0.164855 9.46147e-19)
(0.0124517 0.174917 -1.88624e-19)
(0.0261622 0.184185 3.75972e-19)
(0.0410809 0.192614 5.6009e-19)
(0.0571082 0.200163 1.84408e-19)
(0.0741428 0.206799 1.2667e-21)
(0.0920789 0.212496 1.82663e-19)
(0.110805 0.217239 1.80099e-19)
(0.130206 0.221022 -1.76141e-19)
(0.150155 0.223853 1.75956e-19)
(0.170521 0.225746 -3.46191e-19)
(0.191162 0.226724 3.43242e-19)
(0.211928 0.22682 1.61081e-21)
(0.232666 0.226073 3.32571e-19)
(0.253217 0.224531 1.65225e-21)
(0.273361 0.222239 -3.24834e-19)
(0.292999 0.219596 4.68656e-22)
(0.312662 0.218903 0)
(-0.00636689 0.00728417 0)
(-0.0170069 0.0202199 0)
(-0.026146 0.0334769 -3.92123e-19)
(-0.032897 0.0468005 4.43622e-20)
(-0.0370413 0.0601128 0)
(-0.038609 0.0733735 3.6659e-19)
(-0.037721 0.0865157 9.26221e-20)
(-0.0345356 0.0994554 2.80598e-19)
(-0.0292193 0.112105 3.76202e-19)
(-0.0219357 0.124376 -3.77743e-19)
(-0.0128377 0.13619 3.78518e-19)
(-0.00206697 0.147471 -3.78566e-19)
(0.0102459 0.158151 -3.77936e-19)
(0.0239797 0.168169 0)
(0.0390187 0.177467 0)
(0.0552519 0.185995 0)
(0.0725694 0.19371 -3.69689e-19)
(0.0908592 0.200579 5.49177e-19)
(0.110005 0.206574 -1.81328e-19)
(0.129885 0.211681 0)
(0.150372 0.215894 5.31752e-19)
(0.171327 0.21922 -1.75214e-19)
(0.192606 0.221675 3.46182e-19)
(0.214049 0.223282 -6.80318e-19)
(0.235488 0.22407 6.73942e-19)
(0.256748 0.224075 -1.31518e-21)
(0.277647 0.223331 3.59585e-22)
(0.297948 0.221853 3.23122e-19)
(0.317505 0.21994 5.50943e-22)
(0.336986 0.219953 3.28029e-19)
(-0.00664648 0.00717853 3.89953e-20)
(-0.0173499 0.0195196 -4.23676e-20)
(-0.0261988 0.0319651 8.68156e-20)
(-0.0323818 0.0444111 -5.30588e-19)
(-0.0357467 0.0568646 8.99465e-20)
(-0.0363742 0.0693323 0)
(-0.0344231 0.0817737 3.68615e-19)
(-0.0300797 0.094116 -3.71802e-19)
(-0.0235322 0.106274 0)
(-0.0149623 0.118158 4.69754e-19)
(-0.00453796 0.129684 -9.41877e-20)
(0.00758577 0.140771 0)
(0.0212653 0.151346 -1.8811e-19)
(0.0363672 0.16134 3.74915e-19)
(0.0527643 0.170692 -1.86604e-19)
(0.070334 0.179348 1.85165e-19)
(0.0889552 0.187263 -3.67721e-19)
(0.108504 0.194399 4.21085e-22)
(0.128854 0.200729 4.83351e-22)
(0.14987 0.206236 -1.77404e-19)
(0.171412 0.210916 -3.5208e-19)
(0.193329 0.214775 1.19871e-21)
(0.215458 0.217829 1.46074e-21)
(0.237624 0.220105 3.40011e-19)
(0.259636 0.221633 -3.34002e-19)
(0.281291 0.222448 3.30951e-19)
(0.302374 0.222584 -6.50967e-19)
(0.322614 0.222031 -4.54632e-22)
(0.341803 0.220984 -6.32605e-19)
(0.360678 0.22182 3.25377e-19)
(-0.00693245 0.00707221 0)
(-0.017648 0.0188034 -3.37377e-19)
(-0.0261229 0.0304271 0)
(-0.0316393 0.0419901 1.08118e-21)
(-0.034121 0.0535843 8.98285e-20)
(-0.0337045 0.0652626 1.621e-22)
(-0.0305899 0.07701 -7.35994e-19)
(-0.0249932 0.0887649 2.79073e-19)
(-0.0171255 0.100445 0)
(-0.00718707 0.111959 -4.69483e-19)
(0.00463857 0.123219 9.39119e-20)
(0.0181823 0.134139 0)
(0.0332871 0.144638 -1.87505e-19)
(0.049807 0.154642 1.86904e-19)
(0.067602 0.164086 1.85345e-19)
(0.0865372 0.172909 3.69272e-19)
(0.106479 0.181062 -1.83359e-19)
(0.12729 0.188505 0)
(0.148829 0.195208 0)
(0.17095 0.20115 3.56087e-19)
(0.193496 0.206327 -3.50438e-19)
(0.216302 0.210743 3.47249e-19)
(0.23919 0.214417 3.42906e-19)
(0.261969 0.217377 3.3678e-19)
(0.28443 0.219665 -3.33357e-19)
(0.306344 0.22133 3.29022e-19)
(0.327452 0.222423 3.23063e-19)
(0.347408 0.222946 -3.19555e-19)
(0.365872 0.223079 1.06255e-21)
(0.383333 0.225147 6.44529e-19)
(-0.0072232 0.0069657 3.87607e-20)
(-0.017889 0.0180781 2.95363e-19)
(-0.0258917 0.0288823 0)
(-0.0306276 0.0395731 3.52546e-19)
(-0.0321061 0.0503265 0)
(-0.0305253 0.0612394 0)
(-0.0261293 0.0723211 2.75751e-19)
(-0.0191663 0.08352 -1.56461e-22)
(-0.00987157 0.094757 9.30551e-20)
(0.00153508 0.10594 9.35426e-20)
(0.0148532 0.116975 -2.81015e-19)
(0.0298986 0.127771 1.87269e-19)
(0.0464997 0.138242 0)
(0.064496 0.148306 0)
(0.0837332 0.157889 -3.71122e-19)
(0.104062 0.166927 0)
(0.125332 0.175365 -1.82235e-19)
(0.147393 0.183156 1.80983e-19)
(0.170086 0.190265 1.78586e-19)
(0.193249 0.196669 -6.03671e-22)
(0.216709 0.202357 -1.75005e-19)
(0.240287 0.207333 0)
(0.263795 0.211615 -3.3958e-19)
(0.287031 0.215237 3.36232e-19)
(0.309784 0.218252 0)
(0.331828 0.220736 0)
(0.352901 0.222794 0)
(0.372631 0.224531 0)
(0.390499 0.226343 -3.12359e-19)
(0.405783 0.230502 6.3833e-19)
(0.047342 0.290302 -0.00973737)
(0.0715008 0.25682 -0.0100318)
(0.101893 0.227767 -0.0101541)
(0.127024 0.208549 -0.0102301)
(0.150255 0.199069 -0.0102395)
(0.167349 0.19682 -0.0102307)