/*--------------------------------*- C++ -*----------------------------------*\
  =========                 |
  \\      /  F ield         | OpenFOAM: The Open Source CFD Toolbox
   \\    /   O peration     | Website:  https://openfoam.org
    \\  /    A nd           | Version:  7
     \\/     M anipulation  |
\*---------------------------------------------------------------------------*/
FoamFile
{
    version     2.0;
    format      ascii;
    class       volVectorField;
    location    "62";
    object      U;
}
// * * * * * * * * * * * * * * * * * * * * * * * * * * * * * * * * * * * * * //

dimensions      [0 1 -1 0 0 0 0];

internalField   nonuniform List<vector> 
2000
(
(-0.000170295 -0.00859889 -4.18346e-22)
(-0.000187 -0.0168838 0)
(0.000432223 -0.0193616 0)
(0.00194143 -0.0173206 -2.11115e-21)
(0.0043442 -0.0114633 6.65182e-22)
(0.0075932 -0.00222839 1.38822e-23)
(0.0115981 0.0100306 -1.14502e-21)
(0.0162056 0.0249199 0)
(0.0211563 0.0419321 0)
(0.0261728 0.0604066 0)
(0.000404312 -0.00824084 0)
(0.000986056 -0.0167838 -1.63151e-21)
(0.00177391 -0.0198418 1.50458e-21)
(0.00308295 -0.0185923 2.81309e-21)
(0.00498366 -0.0136991 0)
(0.00749579 -0.00555715 2.51085e-21)
(0.0106041 0.00555023 -2.33489e-21)
(0.0142298 0.0193301 0)
(0.0181714 0.0353957 4.19924e-21)
(0.022164 0.0532253 -8.08986e-21)
(0.000976277 -0.0078216 0)
(0.00234877 -0.0165566 1.31942e-20)
(0.00358416 -0.0201166 0)
(0.0049655 -0.0195928 1.159e-20)
(0.00660867 -0.0156332 0)
(0.00858628 -0.00861153 -1.02514e-20)
(0.0109464 0.00124105 0)
(0.0136822 0.0137284 9.06108e-21)
(0.0166635 0.0286018 -8.48613e-21)
(0.0196185 0.045512 -8.27637e-21)
(0.00156793 -0.00739292 -3.47225e-21)
(0.00395881 -0.0162615 -6.55356e-21)
(0.00595179 -0.0202046 -3.08135e-21)
(0.00770978 -0.0202797 -5.70405e-21)
(0.00937703 -0.0171391 -5.43672e-21)
(0.0110656 -0.0111662 5.04835e-21)
(0.0128738 -0.00256967 4.83811e-21)
(0.0148598 0.00853185 4.09576e-23)
(0.0169761 0.0220319 8.64209e-21)
(0.0189281 0.0377746 8.27642e-21)
(0.00221844 -0.00701377 -3.47335e-21)
(0.00588918 -0.0159608 -6.7457e-21)
(0.00896616 -0.0201329 -1.27236e-20)
(0.0114188 -0.0206224 5.84237e-21)
(0.0134123 -0.0181071 0)
(0.0150886 -0.0130104 0)
(0.0165852 -0.00555383 -9.95412e-21)
(0.0180156 0.00418744 -9.3882e-21)
(0.019425 0.0162352 8.88894e-21)
(0.0204962 0.0306272 2.54792e-20)
(0.0029828 -0.00673752 3.51332e-21)
(0.00822114 -0.0157097 3.46187e-21)
(0.0127021 -0.0199317 -1.90839e-20)
(0.0161549 -0.0206105 2.99733e-20)
(0.018769 -0.0184685 -5.56378e-21)
(0.020715 -0.0139915 0)
(0.0221647 -0.00744714 0)
(0.0232772 0.00108939 4.74931e-20)
(0.0241993 0.0117359 -4.46462e-20)
(0.0246194 0.0246979 8.46707e-21)
(0.00392537 -0.00660102 2.78783e-20)
(0.0110351 -0.0155478 0)
(0.0172054 -0.0196288 2.54205e-20)
(0.0219187 -0.0202577 -2.39505e-20)
(0.025402 -0.0182136 0)
(0.0278648 -0.0140549 1.08066e-20)
(0.0295168 -0.00811902 -3.03808e-20)
(0.0305592 -0.000524215 -3.82901e-20)
(0.0312446 0.00889648 1.802e-20)
(0.0313253 0.020474 1.72819e-20)
(0.00511244 -0.00661973 -5.57454e-20)
(0.0143964 -0.0154876 -6.88844e-21)
(0.0224791 -0.0192423 -1.29227e-20)
(0.0286332 -0.0195994 -3.02956e-20)
(0.0331488 -0.0173987 -1.15435e-20)
(0.0362936 -0.013268 -1.09518e-20)
(0.0383276 -0.00762133 -1.04578e-22)
(0.039497 -0.000652506 0)
(0.0401623 0.00780135 0)
(0.0402228 0.0181498 2.25866e-22)
(0.00660531 -0.00678348 2.78677e-20)
(0.0183423 -0.0155065 -2.74887e-20)
(0.0284713 -0.0187746 1.92353e-20)
(0.0361366 -0.0186862 4.26538e-20)
(0.0417294 -0.0161403 -1.13796e-20)
(0.0456018 -0.0118183 1.08576e-20)
(0.0480795 -0.00619519 1.02759e-20)
(0.0494551 0.000455774 0)
(0.0501804 0.00825575 0)
(0.0503956 0.0176143 -2.23705e-22)
(0.00845035 -0.00705403 -3.48385e-21)
(0.0228688 -0.0155469 3.44642e-20)
(0.0350657 -0.0182092 -6.42829e-21)
(0.0441838 -0.0175766 0)
(0.0507643 -0.0146009 0)
(0.0552802 -0.00999238 2.17203e-20)
(0.0581485 -0.00425 0)
(0.0597156 0.00231806 -1.93686e-20)
(0.0604441 0.0097848 -1.39352e-22)
(0.0606526 0.0184032 1.74733e-20)
(0.0383917 0.103423 3.20988e-22)
(0.053954 0.177132 -3.2482e-22)
(0.0570162 0.236623 -3.8446e-22)
(0.0543029 0.291574 -4.38914e-22)
(0.0469895 0.350273 -5.31462e-22)
(0.0415018 0.416239 -1.68854e-23)
(0.0283515 0.490936 2.8106e-22)
(0.0248165 0.579695 9.79942e-22)
(0.0028061 0.700149 0)
(0.00798839 0.842868 -7.15957e-22)
(0.0321523 0.0958575 1.19871e-21)
(0.0486588 0.172183 -1.43025e-21)
(0.0530908 0.235016 2.57765e-21)
(0.0512723 0.291712 4.39662e-22)
(0.0445919 0.35125 9.5061e-22)
(0.0395831 0.417787 1.6155e-21)
(0.0270539 0.493001 -6.00864e-22)
(0.0237402 0.582256 -6.56497e-22)
(0.00266695 0.702484 1.30122e-21)
(0.00750429 0.844017 7.14258e-22)
(0.0268376 0.0872123 0)
(0.0436867 0.165468 -1.34145e-21)
(0.0494764 0.23197 -7.53598e-22)
(0.0485377 0.290685 0)
(0.042446 0.351182 -2.92045e-21)
(0.0378935 0.418385 9.19029e-22)
(0.0259209 0.49421 1.033e-21)
(0.0227864 0.584045 3.58363e-21)
(0.00257992 0.7044 -1.29701e-21)
(0.00706481 0.844959 2.6058e-21)
(0.0228378 0.0778927 0)
(0.0390469 0.156982 1.3528e-21)
(0.0461634 0.227433 0)
(0.0460756 0.288456 3.42004e-21)
(0.040535 0.350052 -3.4377e-21)
(0.0364149 0.41799 -2.07351e-21)
(0.0249389 0.494445 -1.18902e-22)
(0.0219647 0.584863 -3.50522e-21)
(0.00255059 0.705516 -5.77392e-22)
(0.00665053 0.845517 -3.20934e-21)
(0.020721 0.0684418 1.21205e-22)
(0.0348124 0.146846 -3.86523e-21)
(0.0431411 0.221368 2.17776e-22)
(0.0438608 0.285001 -3.02431e-21)
(0.0388389 0.347907 0)
(0.0351238 0.416735 -1.99332e-21)
(0.0240851 0.493975 -1.52982e-22)
(0.0212438 0.58517 4.44618e-21)
(0.00254123 0.706391 5.88884e-22)
(0.00626718 0.845971 -5.91004e-22)
(0.0211337 0.0594873 -1.06436e-20)
(0.0311668 0.135377 6.74284e-21)
(0.0404015 0.213768 2.96706e-21)
(0.0418741 0.280275 -2.96548e-21)
(0.0373451 0.344651 -1.65691e-21)
(0.0340099 0.414383 0)
(0.0233608 0.49236 -4.00566e-21)
(0.0206473 0.584252 1.9898e-21)
(0.00258726 0.706146 2.17068e-21)
(0.00589477 0.84596 2.2498e-21)
(0.0245425 0.0516443 -1.32379e-21)
(0.0284358 0.123147 0)
(0.0379436 0.204659 0)
(0.0400883 0.274359 0)
(0.0360337 0.340595 -1.76495e-21)
(0.033049 0.411547 3.41651e-21)
(0.0227303 0.490562 3.91906e-21)
(0.0200983 0.583459 -6.06765e-21)
(0.00260239 0.706259 1.07098e-21)
(0.00555388 0.846066 -3.28886e-21)
(0.0308867 0.0452898 8.3132e-21)
(0.0270479 0.110898 5.66664e-21)
(0.0358032 0.194153 -5.61556e-21)
(0.0385067 0.266947 6.1857e-21)
(0.0348852 0.334972 -7.69612e-21)
(0.0322413 0.406964 0)
(0.0222311 0.486804 -1.79241e-21)
(0.0197084 0.580525 7.48724e-23)
(0.00271738 0.704468 -1.96198e-21)
(0.00521003 0.845499 -2.03505e-21)
(0.0392527 0.0402061 -7.16712e-21)
(0.0273891 0.0988204 0)
(0.0339948 0.182575 -6.49493e-21)
(0.0371111 0.259278 1.18036e-20)
(0.0339268 0.329968 -4.42506e-21)
(0.0315456 0.403636 -8.17904e-22)
(0.0217543 0.484729 1.7886e-21)
(0.0192395 0.579585 6.63717e-24)
(0.00268747 0.70448 2.84213e-21)
(0.00490372 0.845454 2.96515e-21)
(0.0476073 0.0366142 -5.89569e-21)
(0.0295588 0.0868134 5.7533e-21)
(0.0328043 0.167436 7.1058e-22)
(0.0357853 0.246558 0)
(0.0329808 0.319573 0)
(0.0310378 0.394878 7.94178e-22)
(0.0215265 0.477274 3.35575e-21)
(0.0191338 0.573505 -3.25876e-21)
(0.00292702 0.700504 -8.67073e-22)
(0.0045763 0.844292 8.40031e-22)
(0.0580868 0.0420074 0)
(0.0348761 0.080917 0)
(0.033135 0.157038 0)
(0.0350374 0.241454 0)
(0.031735 0.318516 0)
(0.0293389 0.395982 0)
(0.0201536 0.479265 0)
(0.0175527 0.57661 0)
(0.00236894 0.703212 0)
(0.00392536 0.844566 0)
(0.0683908 0.0708786 0)
(0.0447858 0.10478 0)
(0.0336 0.164034 0)
(0.0333375 0.244208 0)
(0.0296575 0.322922 0)
(0.02667 0.402475 0)
(0.018376 0.487729 0)
(0.0158204 0.586874 0)
(0.00220324 0.712912 0)
(0.0033515 0.849608 0)
(0.0719999 0.0838523 0)
(0.0545145 0.123044 0)
(0.0377689 0.173782 0)
(0.0336745 0.248121 0)
(0.029849 0.326661 0)
(0.0261186 0.406214 0)
(0.0176803 0.491538 0)
(0.0144685 0.591123 0)
(0.00189916 0.716613 0)
(0.00282648 0.849637 0)
(0.0704767 0.0910769 0)
(0.0602653 0.138352 0)
(0.0429179 0.185957 0)
(0.0340571 0.254537 0)
(0.0288394 0.332993 0)
(0.0249631 0.414027 0)
(0.0173506 0.500903 0)
(0.0140321 0.601603 0)
(0.00241024 0.726293 0)
(0.00262897 0.854734 0)
(0.066328 0.0939135 0)
(0.0619868 0.149986 0)
(0.0476735 0.198198 0)
(0.0370954 0.261383 0)
(0.0304861 0.337435 0)
(0.0252152 0.417473 0)
(0.0170577 0.503845 0)
(0.013211 0.60458 0)
(0.00234076 0.728655 0)
(0.00232731 0.854129 0)
(0.0597197 0.0933994 0)
(0.0599067 0.157829 0)
(0.0491065 0.209965 0)
(0.0375777 0.270192 0)
(0.0303898 0.344999 0)
(0.0254818 0.426399 0)
(0.017903 0.51411 0)
(0.0136161 0.615604 0)
(0.00318119 0.738557 0)
(0.0023087 0.859541 0)
(0.0511972 0.0897932 0)
(0.0554257 0.161262 0)
(0.0503813 0.219932 0)
(0.0405566 0.279526 0)
(0.031917 0.350675 0)
(0.0254436 0.429546 0)
(0.0174801 0.51621 0)
(0.0130284 0.617429 0)
(0.00317564 0.73987 0)
(0.00214174 0.858776 0)
(0.0411698 0.0832615 0)
(0.0480168 0.159441 0)
(0.0467926 0.224067 0)
(0.0400391 0.286971 0)
(0.033089 0.35998 0)
(0.0271621 0.440687 0)
(0.0191914 0.528358 0)
(0.013908 0.629895 0)
(0.00419212 0.750751 0)
(0.00222914 0.865004 0)
(0.0328043 0.0764513 0)
(0.0432564 0.158145 0)
(0.0465866 0.22997 0)
(0.0415132 0.294378 0)
(0.0335571 0.364403 0)
(0.0266986 0.442522 0)
(0.0187519 0.529338 0)
(0.0135559 0.630629 0)
(0.00418407 0.751324 0)
(0.00214634 0.864485 0)
(0.0212296 0.0573697 0)
(0.0335876 0.141103 0)
(0.0420452 0.222683 0)
(0.0427087 0.298758 0)
(0.0373479 0.375825 0)
(0.0301977 0.456723 0)
(0.0213234 0.544011 0)
(0.0148481 0.645099 0)
(0.00537904 0.76364 0)
(0.00229332 0.87177 0)
(0.0748747 0.0327692 5.38886e-21)
(0.0789039 0.0482533 -5.29681e-21)
(0.0771847 0.0532495 4.87732e-22)
(0.0726843 0.0546286 0)
(0.0664038 0.0529459 0)
(0.0578116 0.0491538 1.64925e-22)
(0.0473752 0.043341 -2.31882e-22)
(0.0358035 0.0353221 2.28028e-22)
(0.025762 0.0278564 -1.83344e-23)
(0.0147597 0.0105862 1.8086e-23)
(0.0794375 0.0289793 -6.87427e-21)
(0.0800528 0.0387277 0)
(0.0764477 0.0402163 2.80521e-21)
(0.0709841 0.0391963 -5.65565e-21)
(0.0641065 0.0356979 2.87574e-21)
(0.0551223 0.0306045 -1.61772e-22)
(0.0444516 0.0238885 1.46521e-22)
(0.0329011 0.0153618 5.48356e-23)
(0.0224487 0.00763845 -4.50663e-23)
(0.0118119 -0.00851036 -4.62811e-23)
(0.0820886 0.0242181 7.77101e-21)
(0.0801093 0.0288263 -3.85505e-21)
(0.0753405 0.0272716 3.81794e-21)
(0.0691877 0.0240082 -2.25686e-21)
(0.061798 0.0186986 1.75669e-21)
(0.052437 0.0122621 0)
(0.0415379 0.00459246 -1.46855e-22)
(0.0300358 -0.00434287 -5.73381e-24)
(0.0192793 -0.012265 8.75948e-24)
(0.0096164 -0.0267387 6.64106e-23)
(0.0833994 0.0176067 -1.2031e-21)
(0.0792382 0.0177116 0)
(0.073689 0.0136621 0)
(0.0670142 0.00849287 0)
(0.0592471 0.00160673 1.13301e-21)
(0.0496199 -0.00597335 -7.01781e-22)
(0.0386297 -0.0144355 4.68381e-23)
(0.0272242 -0.023577 1.63942e-23)
(0.0164466 -0.031513 1.59139e-23)
(0.00760746 -0.0440087 3.1716e-23)
(0.0833176 0.00910996 -6.47075e-22)
(0.0774063 0.00542906 -3.20622e-21)
(0.0713975 -0.000659544 -1.37177e-21)
(0.0643473 -0.00739516 1.37076e-21)
(0.0563347 -0.0155776 -4.25793e-22)
(0.0465721 -0.0240346 0)
(0.0356324 -0.0330381 -1.27178e-22)
(0.0244309 -0.0421412 4.29473e-23)
(0.0139179 -0.0498396 -1.16937e-23)
(0.00585495 -0.0602685 -4.81324e-23)
(0.081993 -0.000987937 -8.58887e-21)
(0.074798 -0.00770203 1.39657e-21)
(0.0685823 -0.0154852 3.49136e-22)
(0.0613061 -0.0234763 1.32325e-21)
(0.0531501 -0.0326827 0)
(0.0433754 -0.0417344 0)
(0.0325925 -0.0510124 0)
(0.021727 -0.0598453 3.96095e-23)
(0.0116845 -0.0670599 0)
(0.00442108 -0.0754838 0)
(0.0796006 -0.0123032 0)
(0.0715845 -0.0213049 2.50778e-21)
(0.0653609 -0.0305349 -1.62667e-21)
(0.0579623 -0.039484 -9.53446e-22)
(0.0497742 -0.049457 9.58329e-22)
(0.0401033 -0.0588435 1.87992e-22)
(0.0296028 -0.0681491 -2.35619e-22)
(0.0191864 -0.0765108 -1.86043e-22)
(0.00975529 -0.0830508 1.4239e-23)
(0.00329256 -0.0896387 1.65583e-23)
(0.0762939 -0.0244538 0)
(0.0679018 -0.0350254 -8.81817e-22)
(0.0618202 -0.0455083 -3.59041e-22)
(0.0543748 -0.0551326 0)
(0.046288 -0.065645 1.23748e-22)
(0.0368377 -0.0751316 -4.52975e-22)
(0.0267295 -0.0842526 1.80039e-22)
(0.0168593 -0.0919924 7.4182e-25)
(0.00812698 -0.0977437 -7.96638e-24)
(0.00242874 -0.102732 -1.92399e-23)
(0.0722079 -0.0370817 1.10682e-21)
(0.0638543 -0.0485485 7.90265e-22)
(0.0580251 -0.0601242 -2.59792e-22)
(0.0506426 -0.0701595 1.38838e-22)
(0.0427673 -0.0810063 1.98591e-22)
(0.0336481 -0.0903939 1.94369e-22)
(0.0240222 -0.0991626 -3.84951e-23)
(0.0147746 -0.106191 -1.79678e-23)
(0.00677978 -0.111116 7.99242e-24)
(0.00178335 -0.114772 -7.32291e-25)
(0.0675074 -0.049829 -2.36495e-22)
(0.0595402 -0.0616189 2.38671e-22)
(0.0540554 -0.0741401 -1.79041e-22)
(0.0468506 -0.084342 -1.38626e-22)
(0.03928 -0.0953406 8.46601e-23)
(0.0305919 -0.104474 -1.51848e-22)
(0.0215168 -0.11277 5.3409e-23)
(0.0129424 -0.119057 2.94993e-24)
(0.00568211 -0.123185 0)
(0.0013105 -0.125776 7.33776e-25)
(0.0624177 -0.062421 2.39798e-22)
(0.0550897 -0.0740415 -2.41858e-22)
(0.0500166 -0.0873615 -1.84012e-22)
(0.0430985 -0.0975142 -1.43816e-22)
(0.0359005 -0.108504 -8.80071e-23)
(0.0277236 -0.117274 1.52769e-23)
(0.0192393 -0.125022 2.92603e-23)
(0.0113584 -0.130593 4.19479e-23)
(0.00479715 -0.133995 0)
(0.0009682 -0.13577 -2.56841e-24)
(0.0571746 -0.0746593 0)
(0.0506551 -0.0856853 -8.18605e-22)
(0.0460267 -0.099647 1.3863e-21)
(0.0394932 -0.109576 1.44026e-22)
(0.0327007 -0.120412 2.2272e-22)
(0.0250886 -0.128762 2.29249e-22)
(0.0172038 -0.135924 -4.59677e-23)
(0.0100076 -0.140843 -2.50442e-23)
(0.00408784 -0.143615 2.8264e-23)
(0.000721333 -0.144791 2.56209e-24)
(0.0519675 -0.0864112 0)
(0.0463584 -0.0964886 -9.30736e-22)
(0.0421696 -0.110909 -3.78176e-22)
(0.0361088 -0.120496 0)
(0.0297251 -0.131043 -6.09654e-22)
(0.0227081 -0.138963 2.3352e-22)
(0.0154084 -0.145528 1.35442e-22)
(0.00886609 -0.14989 2.13367e-22)
(0.00351989 -0.152132 -2.81718e-23)
(0.000542365 -0.152888 2.07917e-23)
(0.0469382 -0.0975979 0)
(0.042287 -0.106465 9.38438e-22)
(0.0384963 -0.121113 0)
(0.0329856 -0.130312 1.09682e-21)
(0.0269929 -0.140434 -1.10252e-21)
(0.0205811 -0.147958 -2.82771e-22)
(0.0138385 -0.15393 6.64074e-23)
(0.00790495 -0.157842 -2.22489e-22)
(0.00306376 -0.159647 -4.05581e-23)
(0.000410517 -0.16013 -3.2467e-23)
(0.042199 -0.108183 9.39922e-21)
(0.0385152 -0.115701 -3.52851e-21)
(0.0350475 -0.130274 -3.36473e-22)
(0.0301472 -0.139121 -1.47025e-21)
(0.0245143 -0.148673 0)
(0.0186956 -0.155869 -3.02195e-22)
(0.0124749 -0.161259 1.05135e-22)
(0.00709551 -0.164829 3.42764e-22)
(0.00269579 -0.166274 1.35206e-23)
(0.000310763 -0.166599 -1.34997e-23)
(0.037825 -0.118148 7.48908e-22)
(0.0351081 -0.124356 5.51575e-21)
(0.031863 -0.138446 1.53005e-21)
(0.0276063 -0.147064 -1.52914e-21)
(0.0222972 -0.155889 -5.33348e-22)
(0.0170357 -0.162842 0)
(0.0112987 -0.167661 -4.85475e-22)
(0.00641244 -0.170991 2.59248e-22)
(0.00239836 -0.172137 1.28009e-22)
(0.000232631 -0.172393 3.25432e-23)
(0.0338756 -0.127455 -1.31142e-21)
(0.0321453 -0.132648 0)
(0.0290046 -0.145718 0)
(0.0253777 -0.154305 0)
(0.0203579 -0.162237 -4.1667e-22)
(0.0155895 -0.169039 9.48985e-22)
(0.0102961 -0.173295 5.00907e-22)
(0.00583641 -0.17647 -5.88109e-22)
(0.0021594 -0.177364 3.32517e-23)
(0.000168818 -0.177618 -6.5115e-23)
(0.0303659 -0.136011 -3.01001e-21)
(0.0296679 -0.140829 4.11472e-21)
(0.026514 -0.152206 -4.07598e-21)
(0.0234459 -0.161007 2.64765e-21)
(0.0186968 -0.167889 -3.2118e-21)
(0.0143351 -0.174619 0)
(0.0094493 -0.178318 -3.06754e-22)
(0.00534924 -0.181407 -1.43054e-23)
(0.00196923 -0.182082 -1.11548e-22)
(0.000113052 -0.182389 -3.8345e-23)
(0.0268937 -0.143578 -1.42163e-21)
(0.0273179 -0.149146 0)
(0.0241914 -0.158055 -4.04464e-21)
(0.0216021 -0.167326 6.29163e-21)
(0.0171831 -0.173029 -2.16389e-21)
(0.0131681 -0.179743 -2.3061e-22)
(0.00869365 -0.182885 3.06056e-22)
(0.00491144 -0.185937 3.74483e-23)
(0.00181055 -0.186417 2.30556e-22)
(6.06357e-05 -0.186821 7.58388e-23)
(0.0234559 -0.149593 -5.77236e-21)
(0.0249202 -0.157823 5.63719e-21)
(0.0220691 -0.163494 5.2187e-22)
(0.0198161 -0.173425 0)
(0.0157974 -0.177866 0)
(0.0120779 -0.184588 2.37569e-22)
(0.00801668 -0.187165 5.68911e-22)
(0.00451702 -0.190197 -5.58224e-22)
(0.00167895 -0.190492 -4.21264e-23)
(2.94686e-05 -0.191031 4.11888e-23)
(0.0242177 -0.157788 0)
(0.0251153 -0.178211 0)
(0.0217595 -0.175625 0)
(0.0189823 -0.187497 0)
(0.0150243 -0.189095 0)
(0.0112076 -0.195947 0)
(0.00746709 -0.197182 0)
(0.00416465 -0.200149 0)
(0.00163011 -0.199938 0)
(7.08752e-05 -0.20075 0)
(0.0192171 -0.189229 0)
(0.0161516 -0.20963 0)
(0.014451 -0.202361 0)
(0.0118054 -0.213635 0)
(0.00962133 -0.21174 0)
(0.00703332 -0.217926 0)
(0.00485098 -0.217108 0)
(0.00273836 -0.219792 0)
(0.00118574 -0.218697 0)
(0.000100954 -0.219716 0)
(0.0188411 -0.223438 0)
(0.0149278 -0.243633 0)
(0.0127302 -0.233128 0)
(0.00982728 -0.244364 0)
(0.00790702 -0.239882 0)
(0.00556416 -0.246093 0)
(0.00394013 -0.243684 0)
(0.00223069 -0.246514 0)
(0.00109169 -0.244594 0)
(0.000110722 -0.245934 0)
(0.017742 -0.264125 0)
(0.0133279 -0.284993 0)
(0.0111639 -0.272074 0)
(0.00823095 -0.283977 0)
(0.00665985 -0.277404 0)
(0.00455254 -0.284201 0)
(0.00337623 -0.280396 0)
(0.00192004 -0.283733 0)
(0.00106446 -0.280959 0)
(0.000107594 -0.282797 0)
(0.0168065 -0.314428 0)
(0.0122601 -0.335842 0)
(0.0100427 -0.321768 0)
(0.00713308 -0.334517 0)
(0.00576423 -0.326586 0)
(0.00382759 -0.334238 0)
(0.00294617 -0.329358 0)
(0.00164186 -0.333417 0)
(0.000994559 -0.329877 0)
(7.16783e-05 -0.332393 0)
(0.0154612 -0.374432 0)
(0.0109759 -0.394529 0)
(0.00891886 -0.381572 0)
(0.00607845 -0.394221 0)
(0.00492911 -0.386306 0)
(0.0031066 -0.394316 0)
(0.00243843 -0.389093 0)
(0.00121728 -0.39365 0)
(0.000771233 -0.389743 0)
(-2.12116e-05 -0.392843 0)
(0.0131018 -0.438176 0)
(0.00909463 -0.454469 0)
(0.00737615 -0.445147 0)
(0.00483787 -0.455945 0)
(0.00391613 -0.449761 0)
(0.00226304 -0.456886 0)
(0.00173683 -0.452407 0)
(0.000625485 -0.456647 0)
(0.000393018 -0.453103 0)
(-0.000135588 -0.456247 0)
(0.00989063 -0.494787 0)
(0.00678745 -0.506064 0)
(0.00542415 -0.501556 0)
(0.00344483 -0.509145 0)
(0.00272134 -0.505691 0)
(0.00138995 -0.510733 0)
(0.000959727 -0.5078 0)
(7.2365e-05 -0.510803 0)
(2.52252e-05 -0.508262 0)
(-0.000196171 -0.510656 0)
(0.00608633 -0.535054 0)
(0.00409212 -0.541864 0)
(0.00325111 -0.541456 0)
(0.00200304 -0.545921 0)
(0.00155348 -0.545008 0)
(0.0006806 -0.547757 0)
(0.0003908 -0.546417 0)
(-0.00018484 -0.54789 0)
(-0.000137247 -0.54649 0)
(-0.000168126 -0.54775 0)
(0.00201697 -0.555298 0)
(0.00129568 -0.559928 0)
(0.0010679 -0.561756 0)
(0.000636176 -0.564399 0)
(0.000509896 -0.564876 0)
(0.000193923 -0.566227 0)
(0.000101162 -0.565814 0)
(-0.000108052 -0.566328 0)
(-7.15696e-05 -0.565642 0)
(-6.68831e-05 -0.566145 0)
(0.0228445 -0.169478 6.70852e-21)
(0.0204511 -0.201917 -6.57867e-21)
(0.0210232 -0.237807 8.44923e-22)
(0.0201443 -0.279864 0)
(0.0193416 -0.330224 0)
(0.0177507 -0.388124 9.61392e-22)
(0.0150762 -0.447514 -4.11184e-21)
(0.0114669 -0.498916 4.06192e-21)
(0.00719817 -0.53491 1.10267e-21)
(0.0024519 -0.552862 -1.08576e-21)
(0.0227431 -0.175161 -7.89864e-21)
(0.0212842 -0.207221 0)
(0.0220603 -0.243082 5.68966e-21)
(0.0212393 -0.285201 -1.30939e-20)
(0.020463 -0.335313 8.37392e-21)
(0.0187571 -0.392314 -8.81564e-22)
(0.0159523 -0.450124 1.95358e-21)
(0.0121764 -0.499792 4.10918e-21)
(0.00769639 -0.534433 1.15379e-21)
(0.00263804 -0.551789 1.12069e-21)
(0.0230616 -0.181033 9.2366e-21)
(0.0225624 -0.212899 -6.31476e-21)
(0.023406 -0.248419 6.255e-21)
(0.0225913 -0.290247 -6.91832e-21)
(0.021778 -0.339868 5.12397e-21)
(0.0199038 -0.395821 0)
(0.0169109 -0.452046 -1.95838e-21)
(0.0129073 -0.500107 1.00958e-22)
(0.00815981 -0.533583 -2.15389e-21)
(0.0027878 -0.550488 -2.2001e-21)
(0.0238177 -0.186179 -1.49404e-21)
(0.024193 -0.218124 0)
(0.0250415 -0.253457 0)
(0.0242059 -0.295027 0)
(0.0233019 -0.344154 5.67377e-21)
(0.02122 -0.399058 -3.79099e-21)
(0.0179912 -0.453745 -2.29982e-23)
(0.0137002 -0.500229 -2.30204e-21)
(0.00862809 -0.532542 -1.17931e-21)
(0.00292247 -0.548903 -1.25957e-21)
(0.025097 -0.190737 1.13502e-22)
(0.026138 -0.222603 -4.5046e-21)
(0.026924 -0.257792 -3.39757e-21)
(0.0260475 -0.299188 3.39548e-21)
(0.0250127 -0.34789 -1.85739e-21)
(0.0227011 -0.401847 0)
(0.0192101 -0.45514 -2.15635e-21)
(0.0145935 -0.500163 4.7015e-21)
(0.00915362 -0.531352 -2.40432e-21)
(0.00307295 -0.547108 2.46767e-21)
(0.0269523 -0.194837 -1.20159e-20)
(0.028425 -0.226401 1.32249e-21)
(0.0290647 -0.26133 -2.28073e-22)
(0.0281077 -0.302534 3.48608e-21)
(0.0268997 -0.350834 0)
(0.0243384 -0.403943 0)
(0.0205666 -0.456022 0)
(0.0155997 -0.499775 2.51644e-21)
(0.00976054 -0.529971 0)
(0.00325594 -0.545165 0)
(0.0293968 -0.198376 0)
(0.031079 -0.229525 4.91387e-21)
(0.0314991 -0.264085 -3.31754e-21)
(0.0304059 -0.305039 -3.88596e-21)
(0.0289768 -0.352919 3.9062e-21)
(0.0261387 -0.405252 2.30283e-21)
(0.0220607 -0.456281 -2.28711e-21)
(0.016717 -0.49897 -8.98646e-21)
(0.0104486 -0.528351 6.40052e-22)
(0.00347389 -0.543087 -2.18176e-21)
(0.0324372 -0.201198 0)
(0.034107 -0.23189 -1.60013e-21)
(0.0342532 -0.266027 -8.97306e-22)
(0.0329639 -0.306702 0)
(0.0312669 -0.354153 1.12474e-21)
(0.02812 -0.40578 -3.39883e-21)
(0.0237013 -0.455907 3.76003e-21)
(0.0179456 -0.497724 1.3374e-21)
(0.0112119 -0.526463 -1.461e-21)
(0.00372428 -0.540857 2.89532e-21)
(0.0360839 -0.203182 1.46319e-21)
(0.0375117 -0.23341 1.72975e-21)
(0.0373411 -0.267089 -3.8782e-22)
(0.0357942 -0.307498 5.08879e-22)
(0.0337886 -0.354539 1.07654e-21)
(0.0302996 -0.405553 1.79533e-21)
(0.0255009 -0.454934 -6.71827e-22)
(0.01929 -0.496055 -7.23941e-22)
(0.0120478 -0.524306 1.46582e-21)
(0.00400531 -0.538457 7.93257e-22)
(0.0403477 -0.204227 -4.02771e-22)
(0.041298 -0.234042 4.06369e-22)
(0.0407738 -0.267214 -4.61507e-22)
(0.038903 -0.307398 -5.08234e-22)
(0.0365547 -0.354061 5.97504e-22)
(0.0326905 -0.404576 -1.21847e-21)
(0.0274725 -0.453372 1.0274e-21)
(0.0207604 -0.493974 3.6627e-22)
(0.0129606 -0.521881 0)
(0.00431841 -0.535874 -7.95023e-22)
(0.0452356 -0.204255 4.1266e-22)
(0.0454688 -0.23378 -4.16509e-22)
(0.044563 -0.26637 -4.94742e-22)
(0.0422949 -0.306394 -5.48043e-22)
(0.0395754 -0.35271 -6.22888e-22)
(0.0353001 -0.40286 -4.13361e-23)
(0.0296236 -0.45124 3.61936e-22)
(0.0223617 -0.4915 1.16522e-21)
(0.0139526 -0.519194 0)
(0.00466434 -0.533106 -8.66509e-22)
(0.0507506 -0.203241 0)
(0.0500233 -0.232631 -1.89935e-21)
(0.0487178 -0.264568 3.43731e-21)
(0.0459706 -0.30449 5.48983e-22)
(0.0428614 -0.350484 1.26624e-21)
(0.0381367 -0.400394 2.0668e-21)
(0.0319669 -0.448518 -7.32795e-22)
(0.0241076 -0.488612 -7.90081e-22)
(0.0150336 -0.516235 1.74404e-21)
(0.0050465 -0.530144 8.64483e-22)
(0.0568915 -0.20124 0)
(0.0549576 -0.230582 -1.87806e-21)
(0.0532457 -0.261851 -1.0311e-21)
(0.0499366 -0.301707 0)
(0.0464189 -0.347433 -3.97861e-21)
(0.0412027 -0.397217 1.33138e-21)
(0.0345008 -0.445256 1.57191e-21)
(0.0259919 -0.485346 5.06236e-21)
(0.0161977 -0.513007 -1.73839e-21)
(0.0054615 -0.526983 3.74807e-21)
(0.0636556 -0.198368 0)
(0.0602722 -0.227623 1.89412e-21)
(0.0581321 -0.258404 0)
(0.0541904 -0.298019 5.10242e-21)
(0.0502575 -0.343564 -5.12858e-21)
(0.0445127 -0.393293 -3.10261e-21)
(0.0372448 -0.441393 -6.53546e-23)
(0.0280429 -0.48164 -5.20672e-21)
(0.0174658 -0.509469 -8.67944e-22)
(0.00591514 -0.523589 -4.66192e-21)
(0.0710241 -0.194833 1.39097e-20)
(0.0659505 -0.22369 -5.3118e-21)
(0.063393 -0.254199 5.22491e-22)
(0.0587762 -0.293431 -4.79403e-21)
(0.0543613 -0.338926 0)
(0.0480637 -0.388708 -3.23329e-21)
(0.0401835 -0.437035 -2.60568e-22)
(0.0302379 -0.47759 7.07058e-21)
(0.0188173 -0.505693 9.67314e-22)
(0.00639631 -0.520003 -9.70986e-22)
(0.0789323 -0.190631 -1.24707e-21)
(0.0720492 -0.218805 9.85723e-21)
(0.068973 -0.249181 4.98404e-21)
(0.063682 -0.288089 -4.98063e-21)
(0.0587425 -0.333498 -2.97178e-21)
(0.0518806 -0.383368 0)
(0.0433591 -0.432026 -7.22188e-21)
(0.0326295 -0.473054 3.62128e-21)
(0.0202985 -0.501589 3.86006e-21)
(0.00692602 -0.516164 4.13868e-21)
(0.0872967 -0.185767 -1.91017e-21)
(0.0785603 -0.213232 0)
(0.0748324 -0.243556 0)
(0.0688814 -0.282216 0)
(0.0633793 -0.327597 -3.40868e-21)
(0.055913 -0.377684 6.36945e-21)
(0.0466898 -0.4268 7.35464e-21)
(0.0351178 -0.468364 -1.15646e-20)
(0.0218268 -0.497337 2.06643e-21)
(0.00746164 -0.512175 -6.14679e-21)
(0.0959731 -0.180336 -3.00094e-21)
(0.0854809 -0.206861 9.6187e-21)
(0.0809754 -0.237144 -9.5269e-21)
(0.0744115 -0.275406 1.20451e-20)
(0.0683494 -0.320628 -1.51377e-20)
(0.0602964 -0.370865 0)
(0.0503708 -0.420539 -3.8425e-21)
(0.0379203 -0.462903 -1.55337e-22)
(0.0235757 -0.492595 -4.29199e-21)
(0.00808428 -0.507816 -4.37168e-21)
(0.104726 -0.175168 -2.03145e-21)
(0.0926607 -0.200571 0)
(0.0872013 -0.231102 -1.26154e-20)
(0.0800411 -0.26916 2.36614e-20)
(0.0733718 -0.314481 -9.13673e-21)
(0.0646676 -0.36502 -1.82321e-21)
(0.0539624 -0.415166 3.83423e-21)
(0.0405925 -0.457996 -1.90101e-22)
(0.02521 -0.48804 6.26645e-21)
(0.00862924 -0.503474 6.46937e-21)
(0.11397 -0.167665 -9.04456e-21)
(0.101224 -0.191266 8.85679e-21)
(0.0944322 -0.221859 1.3436e-21)
(0.0866142 -0.259436 0)
(0.0792938 -0.304632 0)
(0.0699732 -0.355594 1.77995e-21)
(0.0584876 -0.406875 8.1042e-21)
(0.0440927 -0.451179 -7.92161e-21)
(0.0274265 -0.482445 -2.16371e-21)
(0.00942609 -0.498394 2.12712e-21)
(0.125327 -0.168468 0)
(0.119664 -0.188083 0)
(0.109225 -0.219908 0)
(0.0998363 -0.25683 0)
(0.0909325 -0.301058 0)
(0.0798236 -0.350315 0)
(0.0663733 -0.399522 0)
(0.0498391 -0.441864 0)
(0.0308713 -0.471929 0)
(0.0103519 -0.487679 0)
(0.147131 -0.153195 0)
(0.151514 -0.177909 0)
(0.135174 -0.212866 0)
(0.125258 -0.24932 0)
(0.113552 -0.292691 0)
(0.0992777 -0.33948 0)
(0.0822308 -0.385183 0)
(0.0616387 -0.423696 0)
(0.0383132 -0.450203 0)
(0.0133721 -0.46298 0)
(0.177265 -0.138383 0)
(0.185829 -0.164899 0)
(0.163198 -0.199516 0)
(0.153842 -0.234513 0)
(0.138172 -0.276446 0)
(0.120176 -0.320041 0)
(0.0987825 -0.362232 0)
(0.0735074 -0.39796 0)
(0.0452237 -0.423444 0)
(0.0148663 -0.437427 0)
(0.215006 -0.128072 0)
(0.225114 -0.153943 0)
(0.196341 -0.187167 0)
(0.188345 -0.221024 0)
(0.16714 -0.261264 0)
(0.145219 -0.300899 0)
(0.118679 -0.339068 0)
(0.0879865 -0.370523 0)
(0.0543345 -0.391743 0)
(0.0191444 -0.401101 0)
(0.259633 -0.114755 0)
(0.267893 -0.138341 0)
(0.233775 -0.169049 0)
(0.225949 -0.200255 0)
(0.196426 -0.236094 0)
(0.170075 -0.270046 0)
(0.136906 -0.303873 0)
(0.100355 -0.332078 0)
(0.0608665 -0.353125 0)
(0.0191395 -0.366474 0)
(0.31232 -0.105312 0)
(0.316492 -0.125903 0)
(0.278309 -0.154408 0)
(0.268344 -0.18163 0)
(0.229394 -0.212715 0)
(0.199982 -0.241962 0)
(0.159339 -0.272069 0)
(0.116578 -0.295615 0)
(0.0713081 -0.311853 0)
(0.0263516 -0.316557 0)
(0.36695 -0.0861362 0)
(0.362785 -0.102269 0)
(0.321687 -0.126046 0)
(0.305595 -0.14673 0)
(0.257616 -0.171847 0)
(0.224691 -0.195075 0)
(0.172795 -0.2191 0)
(0.124082 -0.238305 0)
(0.0721612 -0.257213 0)
(0.0186185 -0.276211 0)
(0.42337 -0.0728171 0)
(0.410851 -0.0843199 0)
(0.370485 -0.103737 0)
(0.34621 -0.118803 0)
(0.294986 -0.139947 0)
(0.256816 -0.157992 0)
(0.196768 -0.178539 0)
(0.144445 -0.196472 0)
(0.086374 -0.21435 0)
(0.0401341 -0.212642 0)
(0.465186 -0.0394994 0)
(0.446214 -0.0449352 0)
(0.396746 -0.056617 0)
(0.363736 -0.063887 0)
(0.3029 -0.0766467 0)
(0.254962 -0.0850347 0)
(0.181569 -0.0969769 0)
(0.119435 -0.1073 0)
(0.0485489 -0.128313 0)
(-0.0264295 -0.177655 0)
(0.68825 -0.0200019 0)
(0.664367 -0.0232528 0)
(0.620752 -0.0282277 0)
(0.583405 -0.0326387 0)
(0.526787 -0.0394064 0)
(0.473934 -0.0460418 0)
(0.400077 -0.0565372 0)
(0.323665 -0.0709628 0)
(0.221775 -0.0997273 0)
(0.156336 -0.156695 0)
(0.150397 -0.149252 9.34631e-21)
(0.175034 -0.133249 -9.20807e-21)
(0.206058 -0.119193 1.4694e-21)
(0.243479 -0.109406 0)
(0.287837 -0.0975454 0)
(0.338262 -0.0891105 2.19199e-21)
(0.391155 -0.0723073 -1.04273e-20)
(0.443911 -0.0616528 1.03038e-20)
(0.492162 -0.0327357 2.94149e-21)
(0.709701 -0.0173003 -2.96801e-21)
(0.158326 -0.141096 -8.92439e-21)
(0.182563 -0.124828 0)
(0.213097 -0.111419 1.03891e-20)
(0.250564 -0.101986 -2.50163e-20)
(0.295035 -0.0907269 1.67951e-20)
(0.345297 -0.082708 -2.02766e-21)
(0.398115 -0.0667949 4.42855e-21)
(0.450484 -0.0572137 9.93543e-21)
(0.501935 -0.0300543 2.7299e-21)
(0.717925 -0.0161477 2.68463e-21)
(0.165217 -0.132059 1.03494e-20)
(0.188831 -0.115967 -9.93515e-21)
(0.218437 -0.103456 9.84115e-21)
(0.255712 -0.0945228 -1.32877e-20)
(0.300067 -0.0839457 9.65182e-21)
(0.350282 -0.0764593 0)
(0.403166 -0.0615337 -4.43933e-21)
(0.455751 -0.0531132 -7.56034e-23)
(0.510329 -0.0276619 -5.1448e-21)
(0.725444 -0.0150506 -5.37481e-21)
(0.172169 -0.122446 -1.77392e-21)
(0.195674 -0.106841 0)
(0.224618 -0.0953297 0)
(0.261565 -0.0869948 0)
(0.305695 -0.0771629 1.0892e-20)
(0.355703 -0.0703236 -7.40914e-21)
(0.408493 -0.0564815 -2.71893e-22)
(0.461128 -0.0492571 -5.05664e-21)
(0.518189 -0.0255151 -2.58303e-21)
(0.732583 -0.0140352 -2.63139e-21)
(0.178582 -0.112467 1.57537e-21)
(0.202153 -0.0976335 -5.58743e-21)
(0.230745 -0.087144 -5.54051e-21)
(0.267453 -0.0794707 5.53707e-21)
(0.311451 -0.0704341 -3.43401e-21)
(0.361357 -0.0643152 0)
(0.414031 -0.0515946 -4.34783e-21)
(0.466639 -0.0455429 9.68259e-21)
(0.525731 -0.0235289 -4.87447e-21)
(0.739375 -0.0130922 5.26486e-21)
(0.18422 -0.102157 -1.33919e-20)
(0.207744 -0.0883898 8.24159e-22)
(0.236026 -0.0789529 -8.12334e-22)
(0.272625 -0.072 5.4318e-21)
(0.3165 -0.0638161 0)
(0.366472 -0.0584772 0)
(0.419116 -0.04688 0)
(0.47183 -0.0419511 4.64772e-21)
(0.532757 -0.0216562 0)
(0.745706 -0.0122081 0)
(0.189036 -0.0915369 0)
(0.212424 -0.0790897 6.537e-21)
(0.240349 -0.0707577 -4.51732e-21)
(0.276864 -0.0645835 -6.16519e-21)
(0.320592 -0.057305 6.19726e-21)
(0.370724 -0.0528161 3.96325e-21)
(0.423322 -0.0423406 -3.75096e-21)
(0.476431 -0.0384883 -1.60321e-20)
(0.539054 -0.0198844 1.13644e-21)
(0.751504 -0.0113775 -3.79718e-21)
(0.192936 -0.0806397 0)
(0.216197 -0.0697183 -2.02607e-21)
(0.24378 -0.0625373 -1.2011e-21)
(0.280157 -0.0572068 0)
(0.323791 -0.0508867 1.85351e-21)
(0.374068 -0.0472834 -5.35315e-21)
(0.426612 -0.0379732 6.32796e-21)
(0.480323 -0.0351644 2.41751e-21)
(0.54444 -0.0181976 -2.39408e-21)