/*--------------------------------*- C++ -*----------------------------------*\
  =========                 |
  \\      /  F ield         | OpenFOAM: The Open Source CFD Toolbox
   \\    /   O peration     | Website:  https://openfoam.org
    \\  /    A nd           | Version:  7
     \\/     M anipulation  |
\*---------------------------------------------------------------------------*/
FoamFile
{
    version     2.0;
    format      ascii;
    class       surfaceScalarField;
    location    "11";
    object      phi;
}
// * * * * * * * * * * * * * * * * * * * * * * * * * * * * * * * * * * * * * //

dimensions      [0 3 -1 0 0 0 0];

internalField   nonuniform List<scalar> 
3880
(
0.000627405
8.21581e-05
-0.000709563
0.0023392
0.00506246
-0.00677425
0.00495189
0.0119867
-0.0145994
0.00811216
0.0193673
-0.0225276
0.0113973
0.0261395
-0.0294246
0.0144574
0.0316809
-0.034741
0.017083
0.0357835
-0.0384091
0.0191984
0.0385257
-0.0406411
0.0208196
0.0401388
-0.04176
0.040872
0.0220089
-0.0420613
0.000541828
-0.000459672
0.00204673
0.00355756
0.00441776
0.0096157
0.00741135
0.0163737
0.0106807
0.0228701
0.0138897
0.028472
0.016795
0.0328781
0.019268
0.0360527
0.0212749
0.0381319
0.0393118
0.0228351
0.000456703
-0.000916375
0.00175151
0.00226275
0.00385679
0.00751042
0.00662296
0.0136075
0.00978586
0.0197072
0.0130464
0.0252114
0.0161514
0.0297731
0.0189332
0.033271
0.0213116
0.0357535
0.0373611
0.0232623
0.000366479
-0.00128285
0.00144576
0.00118347
0.00326878
0.0056874
0.00576233
0.011114
0.00874058
0.0167289
0.0119559
0.0219961
0.015167
0.026562
0.0181861
0.0302519
0.0208965
0.0330431
0.0350228
0.0232347
0.000265491
-0.00154835
0.00111996
0.000329003
0.00264812
0.00415923
0.00483742
0.00892469
0.00756951
0.0139968
0.0106523
0.0189133
0.0138724
0.023342
0.0170405
0.0270838
0.0200167
0.0300669
0.0323314
0.0227081
0.000149328
-0.00169767
0.00076634
-0.000288009
0.0019885
0.00293707
0.00385199
0.00706121
0.00629303
0.0115558
0.00917142
0.0160349
0.0123094
0.020204
0.0155313
0.023862
0.0186874
0.0269109
0.0293527
0.021666
1.66214e-05
-0.0017143
0.000383192
-0.00065458
0.00129018
0.00203008
0.00281377
0.00553762
0.00493313
0.00943643
0.0075523
0.0134157
0.0105302
0.0172261
0.0137133
0.0206789
0.0169552
0.0236689
0.0261731
0.0201348
-0.000130136
-0.00158416
-2.10492e-05
-0.000763667
0.000567867
0.00144116
0.00174578
0.00435971
0.00352536
0.00765685
0.00584679
0.0110943
0.00860174
0.0144712
0.0116622
0.0176184
0.0148977
0.0204334
0.0228922
0.0181786
-0.000281828
-0.00130233
-0.000424231
-0.000621265
-0.000142078
0.00115901
0.000698971
0.00351866
0.00213661
0.00621921
0.00413987
0.00909101
0.00662639
0.0119846
0.00949067
0.0147541
0.0126391
0.017285
0.0195214
0.0160099
-0.00042459
-0.000877742
-0.000790233
-0.000255622
-0.000777422
0.0011462
-0.000235928
0.00297717
0.000885849
0.00509743
0.00258077
0.00739609
0.00478024
0.00978518
0.00738522
0.0121491
0.0103217
0.0143485
0.0137639
0.0160791
0.0185028
0.148369
-0.144863
0.0148816
0.139744
-0.136123
0.0120544
0.132407
-0.129579
0.0099474
0.126628
-0.124521
0.00821432
0.123388
-0.121655
0.00657061
0.122511
-0.120867
0.00491686
0.122901
-0.121247
0.00326931
0.124224
-0.122576
0.0015693
0.12543
-0.12373
0.127679
-0.12611
0.0201791
0.151025
0.0167654
0.143158
0.0138296
0.135342
0.0115335
0.128924
0.00960922
0.125312
0.00775915
0.124361
0.00588996
0.12477
0.00397925
0.126135
0.00195996
0.127449
0.129639
0.0217682
0.152519
0.0186845
0.146242
0.0156693
0.138358
0.0131675
0.131426
0.0110131
0.127467
0.00893706
0.126437
0.00684004
0.126867
0.00466842
0.128306
0.00233741
0.12978
0.131976
0.0232085
0.152545
0.0205961
0.148854
0.0175486
0.141405
0.0148355
0.134139
0.0124225
0.12988
0.0100984
0.128761
0.00776313
0.129202
0.00533338
0.130736
0.00270115
0.132412
0.134677
0.0244439
0.15081
0.0224445
0.150853
0.0194451
0.144404
0.0165298
0.137054
0.0138369
0.132572
0.0112424
0.131356
0.0086562
0.131788
0.00596757
0.133425
0.00304573
0.135334
0.137723
0.0253907
0.147085
0.0241241
0.15212
0.0212995
0.147229
0.0182247
0.140129
0.0152516
0.135546
0.0123726
0.134235
0.0095268
0.134634
0.00658542
0.136366
0.00338471
0.138535
0.141108
0.0260414
0.141178
0.0256276
0.152534
0.0231014
0.149755
0.0199053
0.143325
0.0166627
0.138788
0.0134886
0.137409
0.0103635
0.137759
0.00715065
0.139579
0.00368028
0.142005
0.144788
0.0261349
0.133222
0.0267204
0.151948
0.0247082
0.151767
0.0215062
0.146527
0.0180498
0.142245
0.0145965
0.140862
0.0112172
0.141139
0.00778095
0.143015
0.00404334
0.145743
0.148831
0.0260372
0.123195
0.0277319
0.150254
0.0262063
0.153293
0.0230235
0.14971
0.0194058
0.145862
0.0156739
0.144594
0.0119606
0.144852
0.00817489
0.146801
0.00419136
0.149726
0.153023
0.0245514
0.112407
0.0280601
0.146745
0.0273966
0.153956
0.0244593
0.152647
0.0207554
0.149566
0.0168241
0.148525
0.0130173
0.148659
0.0091845
0.150633
0.00487678
0.154034
0.1579
-0.00840251
0.105744
0.0150664
0.00865671
0.129686
0.0206459
0.141967
0.0258953
0.147398
0.025308
0.150154
0.0197399
0.154093
0.0111562
0.157242
0.00263796
0.159152
-0.000757272
0.157429
0.157142
0.0114769
0.129103
-0.0348369
0.00998754
0.131175
0.0150647
0.13689
0.0184982
0.143965
0.0198197
0.148832
0.0208512
0.153062
0.0220836
0.15601
0.0197497
0.161486
0.0109103
0.166268
0.168053
0.0540828
0.155202
-0.0801815
0.0373667
0.147891
0.0323118
0.141945
0.0337669
0.142509
0.0326652
0.149934
0.0254284
0.160299
0.0158804
0.165558
0.00883193
0.168534
0.00504088
0.170059
0.173094
0.0912031
0.172432
-0.108433
0.0726429
0.166452
0.0550314
0.159556
0.0421198
0.155421
0.0372918
0.154762
0.0371646
0.160426
0.0348046
0.167918
0.0279222
0.175417
0.0162116
0.18177
0.189305
0.112794
0.181944
-0.122305
0.100018
0.179227
0.0876798
0.171895
0.073042
0.170059
0.0546871
0.173117
0.0375471
0.177566
0.0242745
0.181191
0.0150414
0.18465
0.00768587
0.189126
0.196991
0.124312
0.186026
-0.128395
0.111467
0.192072
0.0947358
0.188626
0.0817681
0.183026
0.0723919
0.182493
0.0621148
0.187843
0.0491319
0.194174
0.0328618
0.20092
0.015726
0.206261
0.212717
0.131517
0.183249
-0.12874
0.128697
0.194892
0.116479
0.200844
0.0962596
0.203246
0.0755259
0.203227
0.0575677
0.205801
0.0418699
0.209871
0.0272318
0.215558
0.0128549
0.220638
0.225572
0.127784
0.177555
-0.122089
0.122772
0.199904
0.116964
0.206652
0.108595
0.211615
0.0958273
0.215994
0.079771
0.221857
0.0612787
0.228364
0.0420861
0.234751
0.021534
0.24119
0.247106
0.135377
0.154736
-0.112558
0.136924
0.198357
0.125421
0.218156
0.109779
0.227257
0.0923519
0.233421
0.0745502
0.239659
0.0562129
0.246701
0.0378761
0.253087
0.0195358
0.259531
0.266642
0.114667
-0.0824814
0.132866
0.135706
0.1279
0.113576
0.0949813
0.0733696
0.0497427
0.0252282
0.0245301
0.00137819
-0.0108418
0.0412496
-0.0515564
0.0517576
-0.0906895
0.0561739
-0.11285
0.0566411
-0.122772
0.0546504
-0.126404
0.0497516
-0.123841
0.042512
-0.114849
0.0312243
-0.101271
-0.0722003
0.029565
-0.0167496
-0.0114371
0.0460136
-0.068005
0.0545439
-0.0992198
0.0571643
-0.11547
0.0563155
-0.121923
0.0529172
-0.123006
0.0466815
-0.117606
0.0381125
-0.10628
0.0265228
-0.0896809
-0.061894
0.0355768
-0.0377434
-0.014583
0.0497277
-0.082156
0.0559117
-0.105404
0.0569653
-0.116524
0.0549644
-0.119922
0.0503556
-0.118397
0.0429912
-0.110241
0.0333615
-0.0966508
0.0215513
-0.0778706
-0.0518318
0.0413217
-0.0590352
-0.0200299
0.0523883
-0.0932225
0.0563259
-0.109341
0.0559642
-0.116162
0.0528037
-0.116762
0.046986
-0.112579
0.0385652
-0.101821
0.0281734
-0.086259
0.0164935
-0.0661908
-0.0422492
0.0458826
-0.0779084
-0.0270095
0.0537566
-0.101097
0.0556538
-0.111239
0.0540217
-0.11453
0.0497552
-0.112496
0.0428402
-0.105664
0.0335733
-0.0925536
0.0227374
-0.0754231
0.0114702
-0.0549235
-0.0334034
0.0487383
-0.0925091
-0.0341375
0.0537565
-0.106115
0.0539581
-0.11144
0.0511841
-0.111756
0.0458768
-0.107188
0.0380149
-0.0978025
0.0281409
-0.0826797
0.0171934
-0.0644756
0.00654506
-0.0442752
-0.0256414
0.0497455
-0.102414
-0.0398409
0.0524308
-0.1088
0.0512734
-0.110283
0.0474707
-0.107953
0.0412286
-0.100946
0.0326277
-0.0892016
0.022435
-0.072487
0.0117261
-0.0537667
0.00186193
-0.0344111
-0.0192317
0.0490083
-0.108327
-0.0430952
0.049915
-0.109707
0.0476715
-0.108039
0.0429654
-0.103247
0.0359408
-0.0939215
0.0268453
-0.0801061
0.0166351
-0.0622768
0.00650884
-0.0436404
-0.00211489
-0.0257873
-0.0139674
0.0468092
-0.111377
-0.0437587
0.0463858
-0.109283
0.0432491
-0.104903
0.0377861
-0.097784
0.0301762
-0.0863116
0.0208526
-0.0707825
0.0109172
-0.0523414
0.00167387
-0.034397
-0.00554203
-0.0185714
-0.00974405
0.0434753
-0.112534
-0.042319
0.0420166
-0.107825
0.03814
-0.101026
0.0320971
-0.0917412
0.0241309
-0.0783453
0.0148474
-0.061499
0.00544468
-0.0429387
-0.00279358
-0.0261587
-0.00859097
-0.012774
-0.00657305
0.0392839
-0.112391
-0.0394269
0.0369806
-0.105521
0.0325203
-0.0965656
0.0260964
-0.0853173
0.0180128
-0.0702618
0.00902255
-0.0525087
0.000366877
-0.034283
-0.00672638
-0.0190655
-0.0111859
-0.00831456
-0.0043464
0.0344376
-0.11127
-0.0355583
0.0314587
-0.102542
0.0265943
-0.0917013
0.019992
-0.0787149
0.0120216
-0.0622915
0.00354574
-0.0440329
-0.00419532
-0.0265419
-0.0100649
-0.0131959
-0.0133243
-0.0050551
-0.00289985
0.0291453
-0.109382
-0.0310337
0.0256746
-0.0990716
0.0205851
-0.0866118
0.0139976
-0.0721274
0.00634178
-0.0546357
-0.00143293
-0.0362582
-0.00818432
-0.0197906
-0.0128351
-0.00854519
-0.0150503
-0.00283988
-0.00204806
0.0235999
-0.106908
-0.0260731
0.0198305
-0.0953022
0.0146954
-0.0814767
0.00829418
-0.0657262
0.00113346
-0.047475
-0.00591096
-0.0292138
-0.0115779
-0.0141237
-0.0150809
-0.00504216
-0.0164359
-0.00148485
-0.00160932
0.0179887
-0.104037
-0.0208596
0.0141079
-0.0914214
0.00909843
-0.0764672
0.00302804
-0.0596558
-0.00357262
-0.0408743
-0.00976193
-0.0230245
-0.0143842
-0.00950141
-0.0168691
-0.00255728
-0.0175657
-0.000788237
-0.00142144
0.0124826
-0.100962
-0.0155579
0.0086713
-0.0876102
0.00394541
-0.0717413
-0.0016926
-0.0540178
-0.00768509
-0.0348818
-0.0129978
-0.0177118
-0.0166458
-0.00585336
-0.0182816
-0.000921557
-0.0185239
-0.000545928
-0.00134951
0.00728264
-0.0979473
-0.0102975
0.00370645
-0.084034
-0.000578028
-0.0674568
-0.00588407
-0.0487118
-0.0111693
-0.0295966
-0.0156413
-0.0132398
-0.018421
-0.00307363
-0.0194059
6.33087e-05
-0.0193867
-0.00056507
-0.00128604
0.00266951
-0.0954611
-0.00515566
-0.000616128
-0.0807483
-0.00471151
-0.0633615
-0.00941707
-0.0440062
-0.0140445
-0.0249691
-0.0177372
-0.00954715
-0.0197988
-0.00101197
-0.0203049
0.000569422
-0.0202219
-0.000648093
-0.00114985
-0.00143333
-0.0936437
-0.00038408
-0.00442447
-0.0777572
-0.00811798
-0.0596679
-0.0123419
-0.0397823
-0.0163539
-0.0209571
-0.0193374
-0.00656361
-0.0208085
0.000459096
-0.0210858
0.000846692
-0.0210836
-0.00065021
-0.000881043
-0.00571129
-0.0924827
0.00455024
-0.00827413
-0.0751944
-0.0112888
-0.0566533
-0.0147583
-0.0363127
-0.018055
-0.0176605
-0.0204715
-0.00414713
-0.0215237
0.00151131
-0.0217895
0.00111248
-0.0219969
-0.000442774
-0.000422797
0.0185531
-0.0722264
-0.0388093
-0.0148724
-0.0417689
-0.0487496
-0.0227762
-0.0758798
-0.00918253
-0.0907462
-0.00279408
-0.0947827
-0.00011064
-0.0941991
0.000927778
-0.0935258
0.000439148
-0.0937502
-0.000218367
-7.42858e-05
-0.0876443
-0.0417437
0.0571616
-0.113225
-0.0161886
-0.124904
-0.011097
-0.128842
-0.00524462
-0.12501
-0.00662564
-0.120349
-0.00477198
-0.117617
-0.00180418
-0.117621
0.000443805
-0.118055
0.000215641
-9.87022e-05
-0.136821
-0.026112
0.121189
-0.14122
-0.0117898
-0.137631
-0.0146858
-0.136006
-0.00686939
-0.134963
-0.00766858
-0.136878
-0.00285742
-0.137767
-0.000915023
-0.137867
0.000543881
-0.137408
-0.000242941
-0.000144924
-0.158363
-0.0199019
0.152153
-0.1566
-0.0135524
-0.156446
-0.0148399
-0.158252
-0.00506348
-0.158893
-0.00702813
-0.161049
-0.000701187
-0.16023
-0.00173392
-0.159528
-0.000157941
-0.158867
-0.000904611
1.40981e-05
-0.175725
-0.0176499
0.173473
-0.177077
-0.0122002
-0.182271
-0.00964548
-0.183423
-0.0039121
-0.185025
-0.0054263
-0.185403
-0.000322361
-0.184338
-0.00279903
-0.184654
0.00015759
-0.184374
-0.0011849
0.000220799
-0.205285
-0.0135474
0.201183
-0.209224
-0.00826152
-0.211929
-0.00693995
-0.211596
-0.00424547
-0.212891
-0.00413147
-0.212597
-0.000615919
-0.212983
-0.00241337
-0.213407
0.000582149
-0.213047
-0.00154561
0.000537934
-0.243024
-0.00952023
0.238997
-0.244561
-0.0067245
-0.245601
-0.00589953
-0.246604
-0.00324312
-0.247894
-0.00284141
-0.247691
-0.000818881
-0.248524
-0.0015799
-0.248302
0.000359833
-0.248582
-0.00126591
0.000789017
-0.29114
-0.00709367
0.288714
-0.292676
-0.00518911
-0.294594
-0.00398085
-0.295655
-0.00218204
-0.296407
-0.00209012
-0.296464
-0.000761694
-0.297147
-0.00089717
-0.297009
0.000222207
-0.297533
-0.000742092
0.000592551
-0.352418
-0.0038222
0.349147
-0.355083
-0.00252432
-0.357167
-0.00189705
-0.35824
-0.00110897
-0.359387
-0.000943328
-0.359865
-0.000283362
-0.360456
-0.000305865
-0.360126
-0.00010767
-0.360451
-0.000417621
0.000363437
-0.402538
0.398716
-0.405062
-0.406959
-0.408068
-0.409011
-0.409295
-0.409601
-0.409708
-0.410126
-0.0197968
-0.0294598
0.0104473
-0.0260083
0.063373
-0.0272154
0.122396
-0.0266636
0.151601
-0.0254571
0.172266
-0.0230839
0.198809
-0.0203399
0.236253
-0.0161083
0.284482
-0.00966843
0.342707
0.389047
-0.0212368
-0.0216832
0.0134602
-0.0248569
0.0669932
-0.0250282
0.122568
-0.0246628
0.151236
-0.0234864
0.17109
-0.0210354
0.196358
-0.0182043
0.233422
-0.0142212
0.280499
-0.00831265
0.336798
0.380734
-0.0224589
-0.0155333
0.016309
-0.0243189
0.0688532
-0.0237024
0.121951
-0.0233268
0.15086
-0.0221256
0.169889
-0.0197109
0.193944
-0.0169042
0.230615
-0.0132086
0.276803
-0.00759314
0.331183
0.373141
-0.0232437
-0.0110192
0.0187296
-0.023605
0.0692145
-0.0224826
0.120829
-0.0219863
0.150364
-0.0206406
0.168543
-0.018252
0.191555
-0.0155158
0.227879
-0.0120859
0.273374
-0.0068562
0.325953
0.366285
-0.0237315
-0.00817057
0.0208829
-0.0226603
0.0681434
-0.0211616
0.11933
-0.0206017
0.149804
-0.0190997
0.167041
-0.0167348
0.18919
-0.0140856
0.22523
-0.0109058
0.270194
-0.0061413
0.321188
0.360144
-0.024131
-0.00689022
0.0228507
-0.021687
0.0656994
-0.0197589
0.117402
-0.0190966
0.149142
-0.0174938
0.165438
-0.0151816
0.186878
-0.0126211
0.222669
-0.00968851
0.267261
-0.00543728
0.316937
0.354707
-0.024594
-0.00702962
0.0247335
-0.0208184
0.0619237
-0.0183644
0.114948
-0.0174861
0.148264
-0.0158162
0.163768
-0.0135927
0.184655
-0.0111227
0.220199
-0.00844234
0.264581
-0.00472233
0.313217
0.349984
-0.0252219
-0.00840725
0.0265996
-0.0201421
0.0568439
-0.017028
0.111834
-0.0158292
0.147065
-0.0140942
0.162033
-0.0119785
0.182539
-0.00960077
0.217821
-0.00718155
0.262162
-0.00399613
0.310032
0.345988
-0.0260686
-0.0108189
0.0284802
-0.0197416
0.0505169
-0.0157863
0.107878
-0.0141744
0.145453
-0.0123679
0.160226
-0.0103641
0.180535
-0.00807551
0.215533
-0.00592169
0.260008
-0.00326556
0.307376
0.342723
-0.0271241
-0.0140486
0.0303538
-0.0196941
0.0430869
-0.0146962
0.102881
-0.0125538
0.143311
-0.0106682
0.158341
-0.00877718
0.178644
-0.00657039
0.213326
-0.00468772
0.258125
-0.00255096
0.305239
0.340172
-0.0283735
-0.0178116
0.0321364
-0.0201207
0.0348341
-0.0138319
0.0965918
-0.0109931
0.140472
-0.00903341
0.156381
-0.00724735
0.176858
-0.00511247
0.211191
-0.00349721
0.25651
-0.00186064
0.303602
0.338311
-0.0299057
-0.0216904
0.0337845
-0.0210903
0.0260187
-0.0132677
0.0887691
-0.00952079
0.136725
-0.00753596
0.154396
-0.00583679
0.175159
-0.00376605
0.20912
-0.00236428
0.255108
-0.00120887
0.302447
0.337102
-0.0315773
-0.0253548
0.0352418
-0.022576
0.0170173
-0.0131965
0.0793897
-0.00826145
0.13179
-0.00621278
0.152348
-0.00457312
0.173519
-0.00255626
0.207104
-0.00131023
0.253862
-0.000596107
0.301733
0.336506
-0.033226
-0.0285395
0.0364106
-0.0244665
0.0082579
-0.0136818
0.0686049
-0.00727996
0.125388
-0.0050829
0.150151
-0.00348036
0.171917
-0.00152051
0.205144
-0.000408383
0.25275
-4.39602e-05
0.301368
0.336462
-0.0346891
-0.031046
0.0371957
-0.0265532
0.000121942
-0.014754
0.0568057
-0.00668499
0.117319
-0.0041574
0.147623
-0.00256822
0.170327
-0.000659083
0.203235
0.000378243
0.251713
0.000459537
0.301287
0.336922
-0.0358313
-0.032758
0.0375433
-0.0285966
-0.00711274
-0.0164146
0.0446237
-0.00662061
0.107525
-0.00346885
0.144471
-0.00187579
0.168734
-6.35489e-05
0.201422
0.00106409
0.250585
0.000883226
0.301468
0.337805
-0.0364836
-0.0336984
0.037424
-0.0304658
-0.0131306
-0.0185812
0.0327391
-0.00719865
0.0961424
-0.0030176
0.14029
-0.00134941
0.167066
0.000543103
0.19953
0.00167418
0.249454
0.0012556
0.301886
0.33906
-0.036647
-0.0339067
0.0368553
-0.0319294
-0.0178482
-0.0210338
0.0218434
-0.00848882
0.0835975
-0.00294023
0.134742
-0.00112589
0.165252
0.000840481
0.197563
0.00204097
0.248254
0.00151609
0.302411
0.340576
-0.0362733
-0.0335129
0.0358795
-0.0328358
-0.0212857
-0.0234595
0.0124671
-0.0103223
0.0704603
-0.00309447
0.127514
-0.000910976
0.163068
0.00115927
0.195493
0.00240096
0.247012
0.00173804
0.303074
0.342314
-0.0350801
-0.032872
0.0344391
-0.0328168
-0.0235489
-0.025406
0.00505627
-0.0129568
0.0580112
-0.00423826
0.118795
-0.00131658
0.160147
0.000771968
0.193405
0.00231408
0.24547
0.00176082
0.303628
0.344075
-0.146431
-0.0243061
0.137865
-0.15341
-0.0165696
-0.14774
-0.000614225
-0.125524
0.0357949
-0.0949844
0.0882562
-0.0740216
0.139184
-0.059526
0.178909
-0.0426272
0.228571
-0.0230411
0.284041
0.321034
-0.147458
-0.0149864
0.138138
-0.156512
-0.00751621
-0.160706
0.00357987
-0.150929
0.0260178
-0.126979
0.0643065
-0.0992586
0.111464
-0.0773897
0.15704
-0.0549526
0.206134
-0.0288003
0.257889
0.292234
-0.142526
-0.00666813
0.134207
-0.151356
0.00131445
-0.15909
0.0113138
-0.160063
0.0269901
-0.148706
0.0529497
-0.125604
0.088362
-0.0987653
0.130201
-0.0690109
0.176379
-0.0342284
0.223107
0.258005
-0.135139
-0.00016988
0.128641
-0.141977
0.00815179
-0.148653
0.0179902
-0.152762
0.0310987
-0.149997
0.0501849
-0.136672
0.0750372
-0.113299
0.106829
-0.08164
0.14472
-0.0415617
0.183028
0.216444
-0.127203
0.00488669
0.122147
-0.131617
0.0125656
-0.135448
0.0218217
-0.137653
0.0333031
-0.136153
0.0486854
-0.128194
0.0670782
-0.110958
0.0895923
-0.0836714
0.117434
-0.0458154
0.145172
0.170628
-0.119539
0.00852858
0.115897
-0.121995
0.0150218
-0.12321
0.0230368
-0.122465
0.032558
-0.118743
0.044963
-0.110804
0.0591397
-0.0963346
0.0751229
-0.0734677
0.0945666
-0.0417252
0.11343
0.128903
-0.113029
0.0108187
0.110739
-0.113786
0.0157789
-0.112968
0.0222194
-0.109716
0.0293052
-0.103429
0.0386766
-0.0934333
0.0491438
-0.078773
0.0604626
-0.0582979
0.0740916
-0.0319103
0.0870423
0.0969927
-0.108316
0.0119179
0.107216
-0.107553
0.0150162
-0.105064
0.0197308
-0.100362
0.0246027
-0.0929341
0.0312489
-0.0823709
0.0385806
-0.0681937
0.0462854
-0.0495406
0.0554384
-0.0286761
0.0661778
0.0683166
-0.121629
0.00672157
0.126825
-0.115384
0.00877093
-0.107013
0.0113604
-0.0967359
0.0143252
-0.0831369
0.0176499
-0.0662647
0.0217085
-0.0468121
0.0268327
-0.0231594
0.0317857
0.0012988
0.0417196
0.0696154
-0.243768
0.25049
-0.234997
-0.223637
-0.209312
-0.191662
-0.169954
-0.143121
-0.111335
-0.0696154
-0.0304394
0.134743
0.0335615
-0.0253462
0.133045
-0.0203363
0.129198
-0.0156146
0.123919
-0.0113157
0.117848
-0.00754173
0.112123
-0.00425396
0.107451
-0.00220259
0.105165
-0.00237846
0.127001
0.248112
-0.0284492
0.132066
0.031126
-0.0240273
0.128623
-0.0194103
0.124581
-0.0148941
0.119403
-0.0107713
0.113725
-0.0071486
0.1085
-0.00400642
0.104309
-0.0020978
0.103256
-0.00216396
0.127067
0.245948
-0.025527
0.129177
0.0284167
-0.0216153
0.124712
-0.0175629
0.120528
-0.0135347
0.115375
-0.00979814
0.109988
-0.00648248
0.105184
-0.00359866
0.101425
-0.00189119
0.101549
-0.0019592
0.127135
0.243988
-0.0227399
0.126341
0.0255756
-0.0192259
0.121198
-0.0156341
0.116936
-0.0120863
0.111827
-0.00876628
0.106668
-0.00577263
0.102191
-0.00315193
0.0988041
-0.00164385
0.100041
-0.00169925
0.127191
0.242289
-0.0202944
0.12388
0.0227551
-0.0171922
0.118095
-0.0139801
0.113724
-0.0107951
0.108642
-0.00780155
0.103675
-0.00507985
0.0994691
-0.0027001
0.0964244
-0.00136132
0.098702
-0.00139616
0.127226
0.240893
-0.0179747
0.121846
0.020009
-0.015321
0.115442
-0.0124592
0.110863
-0.00959312
0.105776
-0.00688092
0.100963
-0.00440127
0.0969895
-0.00224497
0.094268
-0.0010463
0.0975033
-0.0010585
0.127238
0.239834
-0.0157315
0.120201
0.017376
-0.013499
0.113209
-0.0109792
0.108343
-0.00842093
0.103218
-0.00597642
0.0985181
-0.0037275
0.0947406
-0.00178309
0.0923236
-0.000702616
0.0964229
-0.000692023
0.127227
0.239142
-0.0136047
0.118927
0.0148795
-0.0117469
0.111351
-0.00954281
0.106139
-0.00727454
0.100949
-0.00508612
0.0963297
-0.00305935
0.0927138
-0.00131576
0.09058
-0.000337067
0.0954442
-0.000301709
0.127192
0.238841
-0.0116044
0.117999
0.0125315
-0.0100854
0.109832
-0.00816841
0.104222
-0.00616583
0.0989468
-0.00421793
0.0943818
-0.00240264
0.0908985
-0.000847489
0.0890249
4.32022e-05
0.0945535
0.000107582
0.127128
0.238948
-0.0097189
0.117377
0.010341
-0.00851166
0.108625
-0.00686036
0.10257
-0.00510149
0.0971879
-0.00337846
0.0926588
-0.00176315
0.0892832
-0.000383014
0.0876448
0.00046646
0.093704
0.000535322
0.127059
0.239484
-0.00794507
0.116994
0.0083289
-0.00702532
0.107705
-0.00562176
0.101167
-0.00408869
0.0956548
-0.00257621
0.0911463
-0.00114965
0.0878566
7.15665e-05
0.0864235
0.000862134
0.0929134
0.000968428
0.126952
0.240452
-0.00627231
0.116782
0.00648352
-0.00561347
0.107046
-0.00444083
0.0999943
-0.00311939
0.0943334
-0.00180636
0.0898333
-0.00055712
0.0866074
0.000514252
0.0853522
0.00125731
0.0921704
0.00140613
0.126804
0.241858
-0.00471605
0.116693
0.00480578
-0.00428059
0.106611
-0.00332398
0.0990377
-0.00220266
0.0932121
-0.00107459
0.0887052
1.87441e-05
0.0855141
0.000936225
0.0844347
0.00164508
0.0914615
0.00184117
0.126608
0.243699
-0.00328224
0.116692
0.00328233
-0.00302346
0.106352
-0.00227601
0.0982902
-0.00134567
0.0922817
-0.000387426
0.087747
0.000532485
0.0845942
0.00133403
0.0836331
0.00201828
0.0907773
0.00226835
0.126357
0.245968
-0.00197809
0.116774
0.00189679
-0.00183974
0.106214
-0.00130215
0.0977526
-0.000553138
0.0915327
0.000235184
0.0869586
0.00101096
0.0838184
0.00170381
0.0829403
0.00237185
0.0901092
0.0026789
0.12605
0.248647
-0.000840006
0.117011
0.00060233
-0.000735811
0.10611
-0.000407065
0.0974239
0.000162375
0.0909633
0.000786398
0.0863346
0.00144238
0.0831624
0.00204171
0.0823409
0.00270266
0.0894483
0.00306832
0.125685
0.251715
0.000211917
0.117394
-0.000594253
0.00028652
0.106035
0.000402075
0.0973083
0.00079243
0.0905729
0.00127654
0.0858505
0.00182302
0.0826159
0.00234513
0.0818188
0.00300908
0.0887844
0.00342497
0.125269
0.25514
0.00120435
0.117822
-0.00163211
0.00119884
0.106041
0.00112663
0.0973805
0.00135034
0.0903492
0.00169924
0.0855016
0.00214943
0.0821657
0.00261277
0.0813555
0.00329087
0.0881062
0.00374228
0.124817
0.258882
0.0023504
0.118294
-0.00282267
0.00213251
0.106258
0.00182808
0.0976849
0.00185662
0.0903207
0.00206279
0.0852955
0.0024228
0.0818057
0.00284576
0.0809325
0.00355449
0.0873975
0.0040158
0.124356
0.262898
0.00270109
0.119116
-0.00352316
0.00271635
0.106243
0.00231689
0.0980844
0.00221079
0.0904268
0.0023153
0.0851909
0.00261552
0.0815055
0.00302742
0.0805206
0.00378117
0.0866438
0.00424791
0.123889
0.267146
-0.0846731
0.100601
0.103189
-0.0645159
0.0860859
-0.0510247
0.0845932
-0.0384115
0.0778136
-0.0273893
0.0741688
-0.0172118
0.0713279
-0.0083815
0.0716903
-0.0017258
0.0799881
0.000621679
0.121542
0.267768
-0.0893433
0.0854441
0.1045
-0.0717533
0.0684959
-0.0574616
0.0703015
-0.0432986
0.0636506
-0.030977
0.0618471
-0.0191243
0.0594753
-0.00881144
0.0613775
-0.00156122
0.0727379
0.000377717
0.119603
0.268145
-0.0902529
0.0674103
0.108287
-0.075834
0.054077
-0.0613956
0.0558631
-0.0469379
0.0491929
-0.0337106
0.0486198
-0.0209942
0.0467589
-0.00998233
0.0503656
-0.00239344
0.065149
3.34693e-05
0.117176
0.268179
-0.0927962
0.0508434
0.109363
-0.0789822
0.040263
-0.0643198
0.0412007
-0.0500444
0.0349176
-0.035768
0.0343434
-0.0225674
0.0335583
-0.0110545
0.0388527
-0.00295206
0.0570466
0.000144704
0.114079
0.268323
-0.09513
0.0347248
0.111249
-0.0817654
0.0268983
-0.0673696
0.026805
-0.0531274
0.0206753
-0.0378749
0.0190909
-0.0243927
0.0200761
-0.0128401
0.0273
-0.00487781
0.0490843
-0.000936937
0.110138
0.267387
-0.0986164
0.0216911
0.11165
-0.0856879
0.0139699
-0.0713268
0.0124438
-0.0563009
0.00564948
-0.0400343
0.00282426
-0.0258439
0.00588577
-0.0143562
0.0158123
-0.00713005
0.0418581
-0.00337448
0.106383
0.264012
-0.102389
0.00958011
0.1145
-0.0907301
0.00231115
-0.0766597
-0.00162648
-0.060983
-0.0100273
-0.0446854
-0.0134733
-0.030762
-0.0080376
-0.0210118
0.00606207
-0.0163073
0.0371536
-0.0117594
0.101835
0.252253
-0.109418
0.000789841
0.118208
-0.0999617
-0.007145
-0.0876195
-0.0139686
-0.0745601
-0.0230867
-0.0626199
-0.0254136
-0.0527691
-0.0178884
-0.0444056
-0.00230139
-0.0394099
0.0321579
-0.0304608
0.0928858
0.221792
-0.118804
-0.00405581
0.123649
-0.115007
-0.0109419
-0.11078
-0.0181958
-0.109247
-0.0246191
-0.111855
-0.0228057
-0.116775
-0.0129683
-0.121518
0.0024414
-0.112732
0.0233719
-0.0802854
0.0604394
0.141506
-0.138228
0.134172
-0.14917
-0.167366
-0.191985
-0.214791
-0.227759
-0.225318
-0.201946
-0.141506
0.00198528
0.106282
-0.00507862
-0.000324759
0.10681
-0.00151893
0.109481
-0.00251407
0.110358
-0.00320857
0.111943
-0.00377503
0.112216
-0.0040239
0.114749
-0.00383741
0.118022
-0.00282952
0.122642
0.131343
0.00328341
0.10999
-0.00699203
0.000758897
0.109334
-0.000836004
0.111076
-0.00193017
0.111452
-0.00266145
0.112674
-0.00322155
0.112777
-0.0034709
0.114998
-0.0033025
0.117853
-0.00239447
0.121734
0.128948
0.00490273
0.113926
-0.00883828
0.00216777
0.112069
0.00017141
0.113072
-0.00103511
0.112659
-0.00182341
0.113463
-0.00243398
0.113387
-0.00273107
0.115295
-0.00264707
0.117769
-0.00192528
0.121012
0.127023
0.00649794
0.118084
-0.0106563
0.0035467
0.11502
0.00148659
0.115132
-9.32775e-05
0.114239
-0.000855483
0.114225
-0.00154307
0.114075
-0.00190964
0.115662
-0.00196212
0.117822
-0.0014627
0.120512
0.12556
0.00807401
0.122485
-0.0124749
0.00492034
0.118174
0.00276758
0.117285
0.00122864
0.115778
0.000210553
0.115243
-0.000588644
0.114874
-0.00103396
0.116107
-0.00125681
0.118045
-0.00100797
0.120263
0.124552
0.00971461
0.127062
-0.0142914
0.0063664
0.121522
0.00411913
0.119532
0.00254149
0.117355
0.00148682
0.116298
0.000518237
0.115843
-0.000137148
0.116762
-0.000541054
0.118448
-0.000562636
0.120285
0.12399
0.011429
0.131716
-0.0160828
0.00791177
0.12504
0.0055655
0.121878
0.00392258
0.118998
0.00277825
0.117442
0.0017236
0.116897
0.00090658
0.117579
0.000219965
0.119135
-0.000131189
0.120636
0.123859
0.013194
0.136333
-0.0178115
0.00954845
0.128685
0.00709831
0.124329
0.00537041
0.120726
0.00411141
0.118701
0.00293254
0.118076
0.00192207
0.11859
0.0010181
0.120039
0.000325677
0.121329
0.124184
0.0149827
0.140775
-0.0194247
0.0112637
0.132404
0.00870137
0.126891
0.00686745
0.12256
0.00547197
0.120096
0.00415153
0.119396
0.00293281
0.119809
0.00178726
0.121185
0.000756222
0.12236
0.124941
0.0167663
-0.020854
0.0130475
0.010359
0.00839819
0.00683968
0.00536899
0.00393072
0.00253898
0.00116906
-0.000540956
-0.000336786
-0.00107195
0.000275369
-0.00125218
0.00132644
-0.000925002
0.00264998
-2.65822e-05
0.00419901
0.0014307
0.0059388
0.00340292
0.00781297
0.00577593
0.00977613
0.00834319
0.0117813
0.0135805
-0.00060997
0.000273184
-0.00121425
0.000879654
-0.0014634
0.00157558
-0.00120367
0.00239025
-0.000372686
0.00336803
0.00104102
0.00452509
0.00300751
0.00584648
0.00546626
0.00731738
0.00834012
0.0089074
0.0104835
-0.000615818
0.000889002
-0.0011723
0.00143613
-0.00132002
0.00172331
-0.000911281
0.00198151
0.000113385
0.00234337
0.0017718
0.00286668
0.00406258
0.00355569
0.00697793
0.00440203
0.0105359
0.00534947
0.00643628
-0.000550504
0.00143951
-0.000920209
0.00180584
-0.0007662
0.0015693
5.04358e-05
0.00116487
0.00157513
0.000818671
0.00381944
0.000622376
0.00678061
0.000594516
0.0104646
0.000718059
0.0149055
0.000908587
0.00131188
-0.000416227
0.00185573
-0.000459835
0.00184945
0.000196081
0.000913386
0.0016694
-0.000308444
0.00397992
-0.00149185
0.00709913
-0.00249683
0.0109871
-0.00329341
0.0156161
-0.00391094
0.0209549
-0.00443027
-0.00474266
-0.000224144
0.00207988
0.000181169
0.00144413
0.00150711
-0.000412554
0.00382676
-0.00262809
0.00709457
-0.00475966
0.011211
-0.00661326
0.0160644
-0.00814682
0.0215569
-0.00940343
0.0275774
-0.0104508
-0.0113028
2.14119e-05
0.00205847
0.000961524
0.000504019
0.00306988
-0.00252091
0.00631837
-0.00587658
0.0105478
-0.00898909
0.0155537
-0.0116191
0.0211391
-0.0137322
0.0271326
-0.015397
0.03338
-0.0166982
-0.0177637
0.000284721
0.00177374
0.00183412
-0.00104538
0.00476875
-0.00545554
0.00890126
-0.0100091
0.0139154
-0.0140032
0.0194923
-0.017196
0.0253692
-0.0196092
0.0313457
-0.0213735
0.0372791
-0.0226316
-0.0235798
0.00057509
0.00119865
0.00275875
-0.00322904
0.00648017
-0.00917697
0.01132
-0.0148489
0.016792
-0.0194752
0.0224996
-0.0229036
0.0281736
-0.0252831
0.0336548
-0.0268547
0.0388632
-0.02784
-0.0284753
0.000883275
0.000315379
0.00369242
-0.00603818
0.00807057
-0.0135551
0.0133286
-0.0201069
0.0188559
-0.0250024
0.024259
-0.0283068
0.0293411
-0.0303652
0.0340384
-0.031552
0.0383566
-0.0321581
-0.0324378
0.00121728
-0.000901901
0.00461444
-0.00943534
0.00944591
-0.0183866
0.0147792
-0.0254402
0.0199813
-0.0302045
0.0247575
-0.0330831
0.0290388
-0.0346465
0.0328667
-0.0353799
0.0363115
-0.0356029
-0.0355532
0.00155546
-0.00245737
0.00542231
-0.0133022
0.0104234
-0.0233877
0.0154908
-0.0305076
0.020088
-0.0348017
0.02408
-0.0370751
0.0275271
-0.0380936
0.0305397
-0.0383925
0.033204
-0.0382672
-0.0379074
0.00188482
-0.00434219
0.00605758
-0.0174749
0.0109378
-0.0282679
0.0154749
-0.0350448
0.0193177
-0.0386444
0.0224972
-0.0402546
0.0251637
-0.0407601
0.0274446
-0.0406734
0.0294007
-0.0402233
-0.0395405
0.00217952
-0.00652171
0.00645531
-0.0217507
0.0109604
-0.032773
0.0148043
-0.0388887
0.0178513
-0.0416914
0.0202629
-0.0426662
0.0222259
-0.0427231
0.0238455
-0.0422929
0.0251393
-0.041517
-0.0404743
0.00241008
-0.00893179
0.00657584