/*--------------------------------*- C++ -*----------------------------------*\
  =========                 |
  \\      /  F ield         | OpenFOAM: The Open Source CFD Toolbox
   \\    /   O peration     | Website:  https://openfoam.org
    \\  /    A nd           | Version:  7
     \\/     M anipulation  |
\*---------------------------------------------------------------------------*/
FoamFile
{
    version     2.0;
    format      ascii;
    class       volVectorField;
    location    "11";
    object      U;
}
// * * * * * * * * * * * * * * * * * * * * * * * * * * * * * * * * * * * * * //

dimensions      [0 1 -1 0 0 0 0];

internalField   nonuniform List<vector> 
2000
(
(0.00415663 0.00391252 -1.53151e-21)
(0.0220977 0.0596926 0)
(0.0546511 0.134875 0)
(0.0895592 0.213205 -8.39857e-21)
(0.121168 0.283295 3.15171e-21)
(0.145699 0.338964 5.13131e-22)
(0.162028 0.378708 -5.51799e-21)
(0.17089 0.404012 0)
(0.173625 0.417744 0)
(0.173555 0.422798 0)
(0.00394868 -0.00164416 0)
(0.0160088 0.0448622 -6.35002e-21)
(0.039715 0.113051 5.8547e-21)
(0.0664958 0.187672 1.13201e-20)
(0.0924599 0.257963 0)
(0.114248 0.317056 1.16185e-20)
(0.13022 0.362086 -1.08039e-20)
(0.140305 0.393225 0)
(0.145039 0.412407 2.39557e-20)
(0.14682 0.422184 -4.64776e-20)
(0.0044371 -0.00634891 0)
(0.0119789 0.0315996 5.22157e-20)
(0.0279322 0.0923741 0)
(0.0469213 0.161867 4.64132e-20)
(0.0666774 0.230361 0)
(0.084599 0.290951 -4.40754e-20)
(0.0989662 0.339879 0)
(0.109197 0.376169 4.62445e-20)
(0.115211 0.40074 -4.33114e-20)
(0.118207 0.415563 -4.45008e-20)
(0.00535131 -0.0101528 -1.37442e-20)
(0.00939411 0.0200683 -2.58377e-20)
(0.0186665 0.073279 -1.22833e-20)
(0.0305443 0.136613 -2.25571e-20)
(0.0440606 0.201567 -2.20358e-20)
(0.0574534 0.26168 2.13297e-20)
(0.0692284 0.312798 2.11525e-20)
(0.0785824 0.353082 -1.75898e-21)
(0.085067 0.382513 4.24037e-20)
(0.0884734 0.402228 4.45119e-20)
(0.00639895 -0.0129976 -1.40213e-20)
(0.00761727 0.0103491 -2.72963e-20)
(0.0111823 0.0560061 -5.16754e-20)
(0.0168342 0.112487 2.35839e-20)
(0.0245279 0.172508 0)
(0.0332318 0.230327 0)
(0.0418164 0.281804 -4.49617e-20)
(0.049485 0.324585 -4.48072e-20)
(0.0556623 0.357909 4.29726e-20)
(0.0585909 0.381815 1.31469e-19)
(0.00726988 -0.0148302 1.45532e-20)
(0.00603557 0.00244593 1.4146e-20)
(0.00475371 0.0406287 -7.95348e-20)
(0.00515955 0.0898178 1.23289e-19)
(0.00777027 0.143876 -2.2828e-20)
(0.0120786 0.19788 0)
(0.0173149 0.24798 0)
(0.0228243 0.291615 2.18845e-19)
(0.0280734 0.327556 -2.14074e-19)
(0.0297146 0.354491 4.3008e-20)
(0.00765092 -0.015619 1.20963e-19)
(0.00411694 -0.00369395 0)
(-0.00122275 0.0271218 1.05016e-19)
(-0.0050454 0.0687656 -9.85867e-20)
(-0.00657946 0.116159 0)
(-0.0060308 0.165184 4.66555e-20)
(-0.00389896 0.212417 -1.33046e-19)
(-0.00064379 0.255325 -1.75945e-19)
(0.00331099 0.292465 8.35501e-20)
(0.00307598 0.320954 8.4737e-20)
(0.00725331 -0.0153698 -2.45247e-19)
(0.00147109 -0.00815913 -2.9376e-20)
(-0.00713128 0.0154479 -5.57065e-20)
(-0.0141318 0.0494591 -1.29076e-19)
(-0.0187607 0.0897668 -4.95069e-20)
(-0.0211155 0.133 -4.88794e-20)
(-0.0215457 0.176201 -2.08257e-21)
(-0.0203175 0.217014 0)
(-0.017754 0.253954 0)
(-0.0199956 0.282565 -2.3176e-21)
(0.00585302 -0.0141507 1.24287e-19)
(-0.00209262 -0.0110568 -1.208e-19)
(-0.0130601 0.00564038 8.21014e-20)
(-0.0221167 0.0321485 1.83091e-19)
(-0.0287121 0.065242 -4.92688e-20)
(-0.032978 0.102214 4.62158e-20)
(-0.0352387 0.140566 4.62177e-20)
(-0.0356008 0.178188 0)
(-0.0342337 0.213582 0)
(-0.0380215 0.240808 3.12651e-21)
(0.00334034 -0.0121075 -1.60885e-20)
(-0.00651804 -0.0124959 1.51562e-19)
(-0.0187562 -0.0021366 -2.83453e-20)
(-0.0286048 0.01734 0)
(-0.0359316 0.0434818 0)
(-0.0409965 0.0741427 9.75746e-20)
(-0.0442443 0.107274 0)
(-0.0457631 0.140965 -9.46494e-20)
(-0.045481 0.17356 -2.81993e-21)
(-0.0488599 0.198312 8.68806e-20)
(0.158129 0.417867 2.14857e-21)
(0.129568 0.393219 -2.18662e-21)
(0.102099 0.373568 -2.44079e-21)
(0.0890428 0.358248 -2.56417e-21)
(0.0693434 0.349627 -2.71214e-21)
(0.0644388 0.347341 -2.54794e-24)
(0.0424171 0.348482 1.38009e-21)
(0.039471 0.352292 4.29467e-21)
(0.0146381 0.35567 0)
(0.0118887 0.362252 -2.94208e-21)
(0.141281 0.422998 7.1752e-21)
(0.120249 0.400499 -9.31336e-21)
(0.0968913 0.379707 1.66176e-20)
(0.0859056 0.362808 2.56868e-21)
(0.0676653 0.353392 5.21232e-21)
(0.0635897 0.350995 8.11618e-21)
(0.0426335 0.352343 -2.80114e-21)
(0.0399704 0.356246 -2.85721e-21)
(0.0156712 0.359973 5.69425e-21)
(0.0122069 0.3663 2.93525e-21)
(0.122872 0.424647 0)
(0.110766 0.406246 -8.76027e-21)
(0.0921461 0.385289 -4.80416e-21)
(0.0832073 0.367048 0)
(0.0661947 0.35687 -1.56834e-20)
(0.0626612 0.35436 5.15438e-21)
(0.0426102 0.355911 5.31094e-21)
(0.0401772 0.360004 1.65238e-20)
(0.0164459 0.3642 -5.67574e-21)
(0.0124405 0.370434 1.12923e-20)
(0.103001 0.42196 0)
(0.101016 0.410051 8.83702e-21)
(0.0877916 0.390123 0)
(0.0809885 0.370983 1.99299e-20)
(0.0650244 0.360135 -2.00288e-20)
(0.0617391 0.357496 -1.05436e-20)
(0.0423918 0.359197 -1.81886e-22)
(0.040121 0.363549 -1.62971e-20)
(0.016981 0.368327 -2.72741e-21)
(0.0126021 0.374665 -1.399e-20)
(0.0818549 0.414284 4.84199e-21)
(0.0909772 0.411802 -2.33232e-20)
(0.0837653 0.39418 9.9883e-22)
(0.0792913 0.374692 -1.89075e-20)
(0.0642546 0.363318 0)
(0.0609268 0.36051 -1.0359e-20)
(0.0420437 0.362285 -1.56457e-22)
(0.0398203 0.366904 2.13068e-20)
(0.017242 0.37227 2.69103e-21)
(0.0126704 0.378781 -2.70149e-21)
(0.0597888 0.400729 -5.97103e-20)
(0.0804159 0.410738 4.11305e-20)
(0.0796912 0.396863 1.86687e-20)
(0.0779785 0.377971 -1.86489e-20)
(0.0639179 0.366377 -9.74082e-21)
(0.0603472 0.363371 0)
(0.0416954 0.365119 -2.0506e-20)
(0.0394354 0.370032 1.02037e-20)
(0.0174303 0.376132 1.04347e-20)
(0.0127342 0.383112 1.04322e-20)
(0.0372774 0.381895 -7.69406e-21)
(0.0696908 0.40783 0)
(0.0756171 0.398577 0)
(0.0770254 0.381071 0)
(0.0640138 0.369535 -9.86913e-21)
(0.0600499 0.366369 1.95759e-20)
(0.0413782 0.368003 2.02844e-20)
(0.0388059 0.373036 -3.04199e-20)
(0.0171284 0.37956 5.10684e-21)
(0.012581 0.386725 -1.5393e-20)
(0.0147763 0.355922 4.45155e-20)
(0.0577379 0.400421 3.52442e-20)
(0.0705403 0.397505 -3.48895e-20)
(0.0760395 0.383187 3.80509e-20)
(0.0644684 0.372228 -4.71676e-20)
(0.060202 0.368929 0)
(0.0414361 0.370378 -9.77171e-21)
(0.0387934 0.375825 1.74013e-22)
(0.0177477 0.383432 -9.82011e-21)
(0.0128327 0.391666 -9.79344e-21)
(-0.00610031 0.329501 -3.80463e-20)
(0.0470406 0.393749 0)
(0.0654141 0.396461 -4.13831e-20)
(0.0748822 0.38556 7.41605e-20)
(0.0649688 0.375543 -2.76942e-20)
(0.0605128 0.372538 -4.75531e-21)
(0.0412891 0.373689 9.75066e-21)
(0.0373864 0.378519 5.58972e-23)
(0.0158004 0.385527 1.44798e-20)
(0.0119751 0.393231 1.44034e-20)
(-0.0275903 0.289493 -3.34616e-20)
(0.0319445 0.375761 3.2563e-20)
(0.0580081 0.389723 4.38735e-21)
(0.073376 0.385122 0)
(0.0656721 0.376415 0)
(0.0615509 0.373454 4.62954e-21)
(0.0428571 0.374785 1.85581e-20)
(0.0406026 0.381562 -1.82294e-20)
(0.0206807 0.391516 -4.54851e-21)
(0.0137828 0.401906 4.47367e-21)
(-0.0604278 0.250246 0)
(0.0110431 0.352533 0)
(0.0377351 0.380525 0)
(0.0651098 0.388434 0)
(0.0665295 0.388433 0)
(0.0631252 0.390301 0)
(0.0377616 0.388552 0)
(0.0199053 0.384411 0)
(-0.00758302 0.382941 0)
(0.00366129 0.386254 0)
(0.0206752 0.280727 0)
(0.0272184 0.313442 0)
(0.0288469 0.344147 0)
(0.0483971 0.363428 0)
(0.0457125 0.371757 0)
(0.0540728 0.383865 0)
(0.05053 0.399164 0)
(0.0607422 0.417819 0)
(0.0396569 0.427463 0)
(0.018808 0.431318 0)
(0.1501 0.363681 0)
(0.109347 0.347312 0)
(0.0798435 0.348154 0)
(0.0855007 0.36757 0)
(0.0857333 0.390264 0)
(0.0821132 0.405066 0)
(0.0478719 0.405283 0)
(0.0305219 0.408517 0)
(0.0146124 0.406098 0)
(0.0122854 0.403523 0)
(0.244626 0.420974 0)
(0.205428 0.399121 0)
(0.160128 0.373202 0)
(0.122021 0.357912 0)
(0.0908624 0.366904 0)
(0.0972283 0.399664 0)
(0.0915972 0.427966 0)
(0.0838214 0.449505 0)
(0.0563123 0.468487 0)
(0.0280524 0.489132 0)
(0.296589 0.45675 0)
(0.267015 0.447263 0)
(0.235354 0.434901 0)
(0.210564 0.431046 0)
(0.162809 0.426998 0)
(0.117747 0.426412 0)
(0.0703236 0.431968 0)
(0.0505569 0.437604 0)
(0.0249592 0.44455 0)
(0.0157723 0.462002 0)
(0.322315 0.466209 0)
(0.30292 0.46377 0)
(0.257716 0.439771 0)
(0.222741 0.428894 0)
(0.19263 0.44317 0)
(0.177052 0.466931 0)
(0.138928 0.487714 0)
(0.107551 0.509939 0)
(0.0582857 0.527818 0)
(0.0229043 0.549198 0)
(0.332175 0.479771 0)
(0.333448 0.510539 0)
(0.315204 0.519395 0)
(0.277937 0.50737 0)
(0.213958 0.491743 0)
(0.169252 0.491682 0)
(0.121003 0.495631 0)
(0.0903293 0.503746 0)
(0.0476515 0.512574 0)
(0.0184485 0.525339 0)
(0.328015 0.448284 0)
(0.319626 0.477625 0)
(0.299582 0.495759 0)
(0.293386 0.519027 0)
(0.261016 0.537162 0)
(0.22706 0.557458 0)
(0.175905 0.578872 0)
(0.133225 0.599359 0)
(0.0796113 0.616614 0)
(0.0315082 0.629931 0)
(0.331713 0.456332 0)
(0.361238 0.539326 0)
(0.333072 0.55939 0)
(0.301373 0.560347 0)
(0.254626 0.561297 0)
(0.215632 0.567203 0)
(0.16303 0.578529 0)
(0.121169 0.590883 0)
(0.0701676 0.604981 0)
(0.0300677 0.621128 0)
(0.255549 0.311887 0)
(0.328863 0.457633 0)
(0.345531 0.546583 0)
(0.342236 0.596593 0)
(0.306804 0.628695 0)
(0.270186 0.655262 0)
(0.212219 0.680708 0)
(0.160168 0.701995 0)
(0.092036 0.720603 0)
(0.0361973 0.740457 0)
(-0.0278285 0.189417 3.41106e-20)
(0.112003 0.283565 -3.28922e-20)
(0.226124 0.371212 3.35095e-21)
(0.291395 0.421769 0)
(0.320911 0.447935 0)
(0.332532 0.448284 1.67073e-21)
(0.329391 0.443881 -4.2576e-21)
(0.308442 0.390557 4.19368e-21)
(0.275791 0.351727 2.06623e-22)
(0.198648 0.198473 -2.03428e-22)
(0.0175565 0.183937 -3.97695e-20)
(0.163655 0.303207 0)
(0.256046 0.387246 2.04325e-20)
(0.303963 0.429019 -4.26557e-20)
(0.323365 0.445675 2.31339e-20)
(0.32845 0.438169 -1.70437e-21)
(0.317 0.420508 2.38804e-21)
(0.289848 0.357218 2.74872e-21)
(0.249696 0.307571 -1.84558e-22)
(0.175041 0.154064 -3.41938e-22)
(0.0703952 0.20262 4.65577e-20)
(0.206382 0.327092 -2.66265e-20)
(0.277741 0.398986 2.63809e-20)
(0.312403 0.429877 -1.8035e-20)
(0.324317 0.43779 1.37459e-20)
(0.32296 0.422305 0)
(0.304358 0.392845 -2.39329e-21)
(0.270781 0.32111 -1.04563e-22)
(0.222692 0.260676 -8.55117e-22)
(0.151024 0.109636 1.64909e-22)
(0.130944 0.236145 -7.75139e-21)
(0.243475 0.349118 0)
(0.295061 0.4069 0)
(0.3173 0.427384 0)
(0.32147 0.4261 1.03435e-20)
(0.313049 0.401556 -6.65864e-21)
(0.286923 0.35985 3.22096e-22)
(0.2472 0.280307 -1.00096e-21)
(0.194214 0.211841 -1.35838e-22)
(0.127588 0.0666168 4.00584e-22)
(0.190124 0.273765 -1.19328e-21)
(0.272029 0.366692 -2.10929e-20)
(0.306118 0.409848 -9.65348e-21)
(0.318212 0.420002 9.64543e-21)
(0.315375 0.409176 -3.63318e-21)
(0.299757 0.375031 0)
(0.266644 0.321957 -2.10854e-21)
(0.221595 0.236353 2.37653e-21)
(0.165696 0.162166 -1.02792e-21)
(0.105117 0.0263237 -2.69448e-22)
(0.239922 0.308364 -5.19093e-20)
(0.292214 0.378184 8.56335e-21)
(0.312048 0.407434 1.89582e-21)
(0.315654 0.407724 9.03141e-21)
(0.305795 0.38708 0)
(0.282843 0.343153 0)
(0.243325 0.279885 0)
(0.194069 0.190052 1.19589e-21)
(0.137406 0.112577 0)
(0.0806771 -0.00994141 0)
(0.276778 0.335218 0)
(0.305014 0.382988 1.55518e-20)
(0.313325 0.399605 -1.02077e-20)
(0.309483 0.39017 -6.88045e-21)
(0.292743 0.359567 6.91473e-21)
(0.262741 0.30619 2.08645e-21)
(0.217799 0.234467 -2.35377e-21)
(0.165786 0.142609 -4.27767e-21)
(0.110071 0.0647253 4.05553e-22)
(0.0625457 -0.0415636 2.22294e-22)
(0.300821 0.352137 0)
(0.311692 0.381278 -5.34847e-21)
(0.310642 0.386439 -2.10346e-21)
(0.299891 0.367272 0)
(0.276404 0.326894 1.15746e-21)
(0.239915 0.264922 -3.65597e-21)
(0.190767 0.186829 2.4228e-21)
(0.137694 0.095322 4.38881e-22)
(0.0848774 0.0202006 -3.27355e-22)
(0.0468272 -0.0685362 -1.61499e-22)
(0.314568 0.359656 5.5751e-21)
(0.313433 0.373677 4.43745e-21)
(0.304369 0.36807 -1.39253e-21)
(0.287001 0.339132 8.12543e-22)
(0.257116 0.28955 1.39327e-21)
(0.215045 0.220304 1.59183e-21)
(0.163127 0.138167 -3.80322e-22)
(0.110813 0.0493936 -2.55229e-22)
(0.0627182 -0.0202728 3.28423e-22)
(0.0335303 -0.0913039 2.67765e-25)
(0.32096 0.359678 -1.18651e-21)
(0.311051 0.360722 1.21535e-21)
(0.29484 0.344663 -9.84634e-22)
(0.271197 0.306157 -8.11154e-22)
(0.235468 0.248356 5.58849e-22)
(0.188933 0.173511 -1.07146e-21)
(0.135776 0.0897375 5.3429e-22)
(0.0858845 0.00591353 1.00228e-22)
(0.0440357 -0.056111 0)
(0.0228445 -0.110353 -2.68263e-25)
(0.322106 0.353847 1.12018e-21)
(0.305157 0.342736 -1.14639e-21)
(0.282515 0.316572 -8.77715e-22)
(0.25307 0.269054 -7.21009e-22)
(0.212234 0.204354 -5.24729e-22)
(0.1625 0.125791 8.12756e-23)
(0.109601 0.0427704 1.93055e-22)
(0.0635547 -0.0341115 3.81893e-22)
(0.0289862 -0.0868676 0)
(0.0147967 -0.126081 -2.51777e-23)
(0.319183 0.343003 0)
(0.296284 0.320042 -3.72694e-21)
(0.267977 0.284419 6.30463e-21)
(0.233358 0.228795 7.21956e-22)
(0.188294 0.158721 1.08446e-21)
(0.136692 0.0783904 1.29553e-21)
(0.0853927 -0.00164388 -3.39006e-22)
(0.0443737 -0.0699647 -2.34223e-22)
(0.0174531 -0.112507 2.79385e-22)
(0.00912248 -0.139002 2.51137e-23)
(0.312866 0.327557 0)
(0.284929 0.293186 -3.80845e-21)
(0.251805 0.249085 -1.67421e-21)
(0.212774 0.186495 0)
(0.164504 0.112646 -2.96023e-21)
(0.112307 0.0324517 1.03986e-21)
(0.0637643 -0.0426401 7.02647e-22)
(0.0286457 -0.101274 1.42133e-21)
(0.00915403 -0.133385 -2.78472e-22)
(0.00540343 -0.149739 1.42423e-22)
(0.303668 0.307971 0)
(0.271653 0.262987 3.83903e-21)
(0.234599 0.211585 0)
(0.192035 0.143273 4.5526e-21)
(0.141628 0.0672223 -4.577e-21)
(0.0898532 -0.0110844 -1.39243e-21)
(0.0451448 -0.0796821 1.62196e-22)
(0.016429 -0.127981 -1.39002e-21)
(0.00369049 -0.150147 -2.67005e-22)
(0.00317146 -0.158951 -2.26994e-22)
(0.292194 0.284922 3.34433e-20)
(0.257222 0.23044 -1.2789e-20)
(0.217121 0.172961 -1.22652e-21)
(0.171869 0.100164 -5.52247e-21)
(0.1202 0.0234041 0)
(0.0698132 -0.0514624 -1.34777e-21)
(0.0297994 -0.112441 3.36436e-22)
(0.00754218 -0.150295 1.87705e-21)
(0.000557529 -0.163614 8.50011e-23)
(0.00197361 -0.167261 -8.48673e-23)
(0.279382 0.259288 2.13636e-21)
(0.242639 0.196596 1.93868e-20)
(0.200286 0.134215 5.38838e-21)
(0.152814 0.0581198 -5.3869e-21)
(0.100613 -0.018067 -1.85041e-21)
(0.0525479 -0.0882678 0)
(0.0176887 -0.140857 -2.15237e-21)
(0.00162772 -0.168666 1.15952e-21)
(-0.000826419 -0.174686 6.81589e-22)
(0.00142034 -0.175215 1.56695e-22)
(0.266348 0.232045 -4.21394e-21)
(0.228562 0.162502 0)
(0.1846 0.09632 0)
(0.135036 0.0179479 0)
(0.0832483 -0.0567449 -1.43387e-21)
(0.0381653 -0.121267 3.2814e-21)
(0.00864424 -0.165074 2.14169e-21)
(-0.00157308 -0.1837 -2.6651e-21)
(-0.00104854 -0.184252 1.68443e-22)
(0.00121242 -0.183278 -3.21766e-22)
(0.252934 0.204392 -9.6299e-21)
(0.213964 0.129166 1.3356e-20)
(0.169057 0.0599906 -1.3238e-20)
(0.118747 -0.0199118 8.40489e-21)
(0.0683411 -0.0923794 -1.01519e-20)
(0.0266012 -0.15042 0)
(0.00233618 -0.185445 -1.14498e-21)
(-0.00322588 -0.196067 -7.60088e-24)
(-0.000632493 -0.193072 -5.15287e-22)
(0.0011452 -0.191843 -1.58862e-22)
(0.237551 0.178172 -4.48096e-21)
(0.19747 0.0972862 0)
(0.15296 0.0254291 -1.25343e-20)
(0.103918 -0.05545 1.93504e-20)
(0.055929 -0.12496 -6.55651e-21)
(0.0179112 -0.17583 -7.20542e-22)
(-0.00141653 -0.202152 1.1424e-21)
(-0.00385061 -0.206459 1.58343e-22)
(3.48411e-05 -0.202027 1.01172e-21)
(0.00109336 -0.201221 3.21722e-22)
(0.22657 0.155169 -1.83382e-20)
(0.185797 0.067257 1.78129e-20)
(0.140203 -0.0074375 1.64686e-21)
(0.0909122 -0.0889816 0)
(0.0455935 -0.15479 0)
(0.011816 -0.197703 7.42147e-22)
(-0.0038112 -0.215566 2.07327e-21)
(-0.00374079 -0.215455 -2.03568e-21)
(0.000569596 -0.211591 -1.72481e-22)
(0.00100706 -0.211618 1.68608e-22)
(0.235402 0.102314 0)
(0.186406 0.00288545 0)
(0.128983 -0.0783196 0)
(0.0645919 -0.162734 0)
(0.0171009 -0.220277 0)
(-0.00483845 -0.242122 0)
(-0.00692959 -0.24066 0)
(-0.0011907 -0.23575 0)
(0.00217336 -0.237028 0)
(0.000564085 -0.238892 0)
(0.120727 -0.153667 0)
(0.0301867 -0.277013 0)
(-0.000341423 -0.302755 0)
(-0.00842186 -0.328377 0)
(0.00168022 -0.321797 0)
(0.00620148 -0.31034 0)
(0.00336674 -0.298165 0)
(-0.000514344 -0.296187 0)
(-0.000777566 -0.30015 0)
(-5.51132e-05 -0.299639 0)
(0.0920383 -0.302184 0)
(0.0416829 -0.3769 0)
(0.0466963 -0.34157 0)
(0.028421 -0.351428 0)
(0.0260189 -0.338455 0)
(0.0142275 -0.346468 0)
(0.0042099 -0.347588 0)
(-0.00215599 -0.349635 0)
(-0.000551435 -0.349433 0)
(0.000527968 -0.348712 0)
(0.0424551 -0.375099 0)
(0.0236973 -0.416296 0)
(0.0355988 -0.380288 0)
(0.0118432 -0.409377 0)
(0.0174911 -0.394438 0)
(0.00246872 -0.41036 0)
(0.00124716 -0.405063 0)
(-0.000251359 -0.406382 0)
(0.00191251 -0.403416 0)
(0.000223412 -0.403735 0)
(0.0533863 -0.427073 0)
(0.0411478 -0.456879 0)
(0.0346818 -0.445122 0)
(0.0108636 -0.474548 0)
(0.0155243 -0.459489 0)
(0.000352532 -0.47651 0)
(0.00684253 -0.463283 0)
(0.000912637 -0.470782 0)
(0.00243168 -0.466702 0)
(-0.000297205 -0.468644 0)
(0.0395933 -0.49846 0)
(0.0235019 -0.53793 0)
(0.0168934 -0.526931 0)
(0.0105082 -0.544962 0)
(0.0130542 -0.531149 0)
(0.001277 -0.544951 0)
(0.00740058 -0.534275 0)
(-0.00165149 -0.545582 0)
(0.00352647 -0.537696 0)
(-0.000865869 -0.541768 0)
(0.0268853 -0.595593 0)
(0.018393 -0.633807 0)
(0.0178426 -0.609957 0)
(0.0104105 -0.633953 0)
(0.00740875 -0.619446 0)
(0.00187393 -0.633962 0)
(0.00515684 -0.625308 0)
(-0.00140305 -0.634073 0)
(0.00418755 -0.62659 0)
(-0.00200893 -0.631859 0)
(0.0225987 -0.721781 0)
(0.0157648 -0.754799 0)
(0.0115853 -0.734162 0)
(0.00583996 -0.759732 0)
(0.00674356 -0.741641 0)
(0.00244064 -0.759346 0)
(0.00292944 -0.747974 0)
(-0.000549362 -0.757378 0)
(0.0023599 -0.751035 0)
(-0.00194116 -0.755015 0)
(0.0129576 -0.887535 0)
(0.00951298 -0.909508 0)
(0.00766771 -0.898101 0)
(0.00430041 -0.91397 0)
(0.00337871 -0.904525 0)
(0.00146268 -0.918578 0)
(0.00137418 -0.909117 0)
(-0.000580773 -0.917925 0)
(0.00141114 -0.910671 0)
(-0.00106402 -0.914679 0)
(0.00459056 -1.01752 0)
(0.00283884 -1.02881 0)
(0.00147007 -1.02873 0)
(0.00148631 -1.03682 0)
(0.00153587 -1.03511 0)
(-0.000314133 -1.04109 0)
(2.9363e-05 -1.03646 0)
(0.00106774 -1.04111 0)
(0.000496785 -1.03796 0)
(-0.000697111 -1.04041 0)
(0.227269 0.0948397 2.13982e-20)
(0.135479 -0.151833 -2.17619e-20)
(0.080426 -0.311088 2.71217e-21)
(0.0473202 -0.39093 0)
(0.0590947 -0.444917 0)
(0.0437188 -0.514218 2.78843e-21)
(0.0305945 -0.612103 -1.15039e-20)
(0.0238624 -0.737224 1.14867e-20)
(0.0138453 -0.895111 2.99663e-21)
(0.00555645 -1.015 -2.99498e-21)
(0.221636 0.0730128 -2.81956e-20)
(0.140615 -0.163797 0)
(0.0766963 -0.314752 1.78345e-20)
(0.0499007 -0.395308 -4.03604e-20)
(0.0611661 -0.449818 2.52956e-20)
(0.0456564 -0.518199 -2.50591e-21)
(0.0324141 -0.616353 5.4339e-21)
(0.024441 -0.741169 1.10764e-20)
(0.0142981 -0.894677 3.04721e-21)
(0.00592507 -1.01175 3.05385e-21)
(0.216567 0.0557245 3.43827e-20)
(0.143735 -0.177135 -2.09686e-20)
(0.0751482 -0.321843 2.07515e-20)
(0.0538942 -0.400971 -2.10625e-20)
(0.0633609 -0.453944 1.57021e-20)
(0.0479537 -0.520556 0)
(0.0346095 -0.619212 -5.44754e-21)
(0.0255113 -0.743643 3.16512e-22)
(0.0151283 -0.892053 -5.75992e-21)
(0.00621025 -1.00647 -5.89407e-21)
(0.213924 0.0418593 -5.53283e-21)
(0.145723 -0.183134 0)
(0.0756652 -0.326991 0)
(0.0592339 -0.407444 0)
(0.0659974 -0.45793 1.6773e-20)
(0.0507316 -0.5222 -1.11189e-20)
(0.0371985 -0.621454 3.95855e-24)
(0.0270708 -0.74564 -6.2723e-21)
(0.0164088 -0.889932 -3.28158e-21)
(0.00651168 -1.00144 -3.55531e-21)
(0.214047 0.031764 -2.06721e-21)
(0.148505 -0.184291 -1.69552e-20)
(0.0782358 -0.328549 -1.07132e-20)
(0.0653952 -0.412949 1.07052e-20)
(0.0691277 -0.461237 -5.5804e-21)
(0.0540448 -0.52331 0)
(0.0401628 -0.623046 -6.04916e-21)
(0.0289462 -0.747283 1.30016e-20)
(0.0180315 -0.888681 -6.67404e-21)
(0.00686683 -0.997378 6.91869e-21)
(0.21704 0.025816 -4.8756e-20)
(0.153385 -0.182062 6.62665e-21)
(0.0830916 -0.327716 -2.21967e-23)
(0.0720752 -0.416659 1.10607e-20)
(0.0726837 -0.463152 0)
(0.0578708 -0.523594 0)
(0.0434876 -0.623671 0)
(0.0310064 -0.748212 6.95779e-21)
(0.0198679 -0.887571 0)
(0.00727937 -0.993863 0)
(0.223058 0.0238996 0)
(0.160901 -0.175991 1.71371e-20)
(0.0903137 -0.325191 -1.13404e-20)
(0.0792922 -0.418614 -1.19693e-20)
(0.0766814 -0.463416 1.20324e-20)
(0.0621639 -0.522748 6.59985e-21)
(0.047178 -0.62306 -6.63734e-21)
(0.0332296 -0.748095 -2.49385e-20)
(0.0218142 -0.885907 1.76381e-21)
(0.00770152 -0.990239 -6.105e-21)
(0.232092 0.0255914 0)
(0.171297 -0.165773 -5.80262e-21)
(0.0998545 -0.320495 -2.9404e-21)
(0.0871392 -0.418855 0)
(0.0812325 -0.462124 3.27311e-21)
(0.0669072 -0.520674 -1.00487e-20)
(0.0512645 -0.621048 1.05937e-20)
(0.0356886 -0.746711 3.66073e-21)
(0.0239 -0.883236 -4.05655e-21)
(0.00815904 -0.985979 8.09554e-21)
(0.243834 0.0301253 7.17709e-21)
(0.184701 -0.151517 6.02599e-21)
(0.111767 -0.312837 -1.61965e-21)
(0.0956605 -0.417113 1.61124e-21)
(0.0864607 -0.459392 3.27507e-21)
(0.0721174 -0.517431 5.25127e-21)
(0.0557912 -0.6176 -1.90422e-21)
(0.0384706 -0.744073 -2.00679e-21)
(0.026124 -0.87959 4.06999e-21)
(0.00865205 -0.980968 2.21857e-21)
(0.257689 0.0363805 -1.66767e-21)
(0.201096 -0.13356 1.66899e-21)
(0.126358 -0.301594 -1.52307e-21)
(0.104859 -0.412956 -1.60933e-21)
(0.0924483 -0.455232 1.78853e-21)
(0.0778254 -0.513086 -3.60834e-21)
(0.0608104 -0.612674 2.90121e-21)
(0.0416812 -0.740106 1.00408e-21)
(0.0286048 -0.874897 0)
(0.00925714 -0.975195 -2.2234e-21)
(0.272805 0.0438287 1.7496e-21)
(0.22027 -0.112591 -1.75027e-21)
(0.144157 -0.286258 -1.66211e-21)
(0.114724 -0.405927 -1.7483e-21)
(0.0992399 -0.449596 -1.86959e-21)
(0.0840668 -0.507689 -8.39357e-23)
(0.0663623 -0.606335 1.04107e-21)
(0.0453502 -0.734989 3.2455e-21)
(0.0312907 -0.869452 0)
(0.00997695 -0.968825 -2.43586e-21)
(0.288247 0.0522548 0)
(0.241505 -0.0893978 -6.86373e-21)
(0.165763 -0.26621 1.20765e-20)
(0.125289 -0.395517 1.75141e-21)
(0.106858 -0.442528 3.90563e-21)
(0.0908846 -0.50119 6.08615e-21)
(0.0724808 -0.598524 -2.08184e-21)
(0.0495902 -0.728476 -2.19294e-21)
(0.0343294 -0.862953 4.86797e-21)
(0.0108799 -0.961816 2.43005e-21)
(0.30321 0.0607605 0)
(0.263717 -0.0647195 -7.51545e-21)
(0.19134 -0.241147 -3.50446e-21)
(0.136676 -0.381239 0)
(0.115313 -0.4342 -1.20847e-20)
(0.0983573 -0.493642 4.11086e-21)
(0.0791689 -0.589474 4.53565e-21)
(0.0543251 -0.720919 1.41077e-20)
(0.0375812 -0.85583 -4.85226e-21)
(0.01195 -0.954253 1.05944e-20)
(0.316955 0.0682954 0)
(0.285722 -0.0396154 7.57777e-21)
(0.220258 -0.211411 0)
(0.149472 -0.362485 1.61351e-20)
(0.124594 -0.424585 -1.62182e-20)
(0.106642 -0.484873 -8.99275e-21)
(0.0864716 -0.578946 -2.57484e-23)
(0.0597844 -0.711602 -1.44391e-20)
(0.041271 -0.847361 -2.39358e-21)
(0.0132395 -0.945942 -1.31652e-20)
(0.328914 0.0742621 7.52628e-20)
(0.30639 -0.0155847 -2.73762e-20)
(0.251003 -0.178061 -4.63199e-23)
(0.16505 -0.33875 -1.62555e-20)
(0.134701 -0.413527 0)
(0.115841 -0.475206 -9.38271e-21)
(0.0943627 -0.5676 -4.46099e-22)
(0.0656821 -0.701559 1.97649e-20)
(0.0451163 -0.838447 2.72986e-21)
(0.0147274 -0.937007 -2.7395e-21)
(0.338813 0.078436 4.38344e-21)
(0.324827 0.00473101 4.62387e-20)
(0.281722 -0.14289 1.71263e-20)
(0.185291 -0.309893 -1.71259e-20)
(0.145737 -0.400286 -9.22828e-21)
(0.126176 -0.464109 0)
(0.103049 -0.554596 -2.04654e-20)
(0.0725783 -0.688968 1.01719e-20)
(0.0495187 -0.827598 1.0806e-20)
(0.0164162 -0.927169 1.18014e-20)
(0.34627 0.080836 -1.09571e-20)
(0.340483 0.0213368 0)
(0.310963 -0.107867 0)
(0.211609 -0.276365 0)
(0.158069 -0.384562 -1.01413e-20)
(0.137473 -0.452823 1.93376e-20)
(0.112231 -0.54177 2.08622e-20)
(0.0797463 -0.676622 -3.24555e-20)
(0.0538803 -0.816958 5.869e-21)
(0.0183058 -0.916758 -1.75017e-20)
(0.351751 0.0820139 -2.4825e-20)
(0.353234 0.0355189 3.95303e-20)
(0.336783 -0.0751149 -3.91902e-20)
(0.243635 -0.23918 3.90233e-20)
(0.172878 -0.364138 -4.87039e-20)
(0.150093 -0.43893 0)
(0.123007 -0.525628 -1.0972e-20)
(0.0883752 -0.660289 -4.82012e-22)
(0.0590435 -0.80351 -1.2176e-20)
(0.020309 -0.905243 -1.25406e-20)
(0.355595 0.0814388 -1.20424e-20)
(0.363425 0.0464523 0)
(0.357674 -0.0457425 -4.58182e-20)
(0.279037 -0.200033 8.10927e-20)
(0.190699 -0.342013 -3.03336e-20)
(0.162978 -0.427368 -5.4552e-21)
(0.13317 -0.51289 1.09487e-20)
(0.0966329 -0.647409 -6.02686e-22)
(0.0637374 -0.791949 1.77076e-20)
(0.0225665 -0.893385 1.85314e-20)
(0.357608 0.0779635 -5.23822e-20)
(0.372269 0.0526961 5.05916e-20)
(0.372704 -0.0200879 5.3909e-21)
(0.313988 -0.158038 0)
(0.217506 -0.308727 0)
(0.178207 -0.407433 5.28853e-21)
(0.147602 -0.49182 2.28148e-20)
(0.107346 -0.626562 -2.20579e-20)
(0.0700019 -0.77556 -5.9788e-21)
(0.0247681 -0.879948 5.82194e-21)
(0.354524 0.081631 0)
(0.392837 0.0604865 0)
(0.392761 0.00634932 0)
(0.363315 -0.11294 0)
(0.276057 -0.264836 0)
(0.203841 -0.389755 0)
(0.170338 -0.476323 0)
(0.128989 -0.602314 0)
(0.0814928 -0.74855 0)
(0.0309987 -0.848636 0)
(0.360513 0.0464918 0)
(0.39244 0.0289747 0)
(0.40825 -0.00225603 0)
(0.40921 -0.0721223 0)
(0.360548 -0.191069 0)
(0.282984 -0.326449 0)
(0.221021 -0.440647 0)
(0.166349 -0.564721 0)
(0.102271 -0.699833 0)
(0.0373298 -0.786772 0)
(0.350604 0.02626 0)
(0.376803 0.00721391 0)
(0.39593 -0.0184394 0)
(0.412914 -0.0633165 0)
(0.401428 -0.141682 0)
(0.351583 -0.249541 0)
(0.286128 -0.369339 0)
(0.210825 -0.495501 0)
(0.128268 -0.623568 0)
(0.0383714 -0.711029 0)
(0.335616 0.0076083 0)
(0.354054 -0.0132698 0)
(0.369344 -0.0380359 0)
(0.385402 -0.0731042 0)
(0.391105 -0.126846 0)
(0.367964 -0.200135 0)
(0.324295 -0.294659 0)
(0.248575 -0.404079 0)
(0.154343 -0.514274 0)
(0.0497716 -0.603487 0)
(0.318051 -0.00712427 0)
(0.330126 -0.0275183 0)
(0.339499 -0.0515983 0)
(0.347109 -0.0821815 0)
(0.351878 -0.124258 0)
(0.337044 -0.176073 0)
(0.310436 -0.242058 0)
(0.252689 -0.323732 0)
(0.161137 -0.407384 0)
(0.0662917 -0.487776 0)
(0.300564 -0.0175685 0)
(0.307915 -0.0360339 0)
(0.312261 -0.0581978 0)
(0.311619 -0.0849981 0)
(0.309384 -0.120086 0)
(0.291587 -0.160447 0)
(0.266291 -0.207535 0)
(0.223531 -0.265722 0)
(0.139949 -0.320945 0)
(0.0708588 -0.365974 0)
(0.285282 -0.0244708 0)
(0.289001 -0.0390384 0)
(0.289097 -0.0570465 0)
(0.282375 -0.077699 0)
(0.273226 -0.104428 0)
(0.250512 -0.134563 0)
(0.218364 -0.167229 0)
(0.182623 -0.205939 0)
(0.106604 -0.245075 0)
(0.0545893 -0.285416 0)
(0.272235 -0.0326766 0)
(0.275993 -0.0425981 0)
(0.270376 -0.0573899 0)
(0.260571 -0.0728264 0)
(0.24701 -0.0944705 0)
(0.223493 -0.118211 0)
(0.189112 -0.142513 0)
(0.156944 -0.174171 0)
(0.0882236 -0.202393 0)
(0.061949 -0.19617 0)
(0.305775 -0.0231159 0)
(0.307763 -0.029129 0)
(0.280041 -0.037661 0)
(0.259623 -0.0466746 0)
(0.229592 -0.0576705 0)
(0.192928 -0.0698951 0)
(0.136622 -0.084397 0)
(0.0983112 -0.096561 0)
(0.0224611 -0.118771 0)
(-0.0306326 -0.166315 0)
(0.624233 -0.0145924 0)
(0.612793 -0.0189543 0)
(0.579643 -0.0241457 0)
(0.553142 -0.0305125 0)
(0.508958 -0.0374611 0)
(0.460959 -0.0472803 0)
(0.396616 -0.0598828 0)
(0.324937 -0.0758605 0)
(0.218332 -0.108395 0)
(0.161314 -0.168071 0)
(0.362181 0.0634767 6.32231e-20)
(0.361577 0.0407172 -6.12042e-20)
(0.351038 0.0283191 8.26656e-21)
(0.334846 0.0133538 0)
(0.316169 0.00100876 0)
(0.298087 -0.00919782 8.95315e-21)
(0.283237 -0.0170911 -3.6518e-20)
(0.274067 -0.0265444 3.57698e-20)
(0.326063 -0.0188702 9.03175e-21)
(0.640708 -0.0120527 -9.23723e-21)
(0.358016 0.0571725 -6.81687e-20)
(0.353475 0.0393727 0)
(0.343174 0.0295925 5.41638e-20)
(0.327903 0.0159836 -1.24858e-19)
(0.310442 0.00447869 7.94485e-20)
(0.2938 -0.0057726 -8.32828e-21)
(0.280317 -0.0140419 1.67953e-20)
(0.274207 -0.0240112 3.39068e-20)
(0.333281 -0.0171713 8.44171e-21)
(0.647029 -0.0109952 8.37812e-21)
(0.353592 0.0534199 8.02212e-20)
(0.343696 0.0395025 -5.83446e-20)
(0.332748 0.0312595 5.78223e-20)
(0.318261 0.0185893 -6.36123e-20)
(0.302485 0.00767784 4.69702e-20)
(0.287862 -0.00270455 0)
(0.276206 -0.0113091 -1.68358e-20)
(0.273971 -0.0216209 -1.2439e-22)
(0.339429 -0.0156054 -1.69682e-20)
(0.65301 -0.0100026 -1.69964e-20)
(0.351757 0.0517657 -1.32595e-20)
(0.338168 0.0411542 0)
(0.326084 0.033636 0)
(0.311406 0.0214761 0)
(0.296363 0.0108337 4.85386e-20)
(0.282944 0.000184684 -3.24116e-20)
(0.272577 -0.00878108 -1.79643e-22)
(0.273884 -0.0192928 -1.70783e-20)
(0.34501 -0.0142048 -8.51679e-21)
(0.658784 -0.00912382 -8.46826e-21)
(0.349993 0.0517028 2.86363e-21)
(0.334289 0.0439247 -3.97378e-20)
(0.321433 0.0367158 -2.98963e-20)
(0.306404 0.0247838 2.98865e-20)
(0.291613 0.0141467 -1.59149e-20)
(0.278862 0.00308962 0)
(0.26941 -0.00629941 -1.673e-20)
(0.273856 -0.0169543 3.39351e-20)
(0.350095 -0.0129623 -1.69564e-20)
(0.664208 -0.00836956 1.7148e-20)
(0.347542 0.0532196 -1.03147e-19)
(0.330003 0.0475247 1.12912e-20)
(0.316642 0.0403196 -1.44443e-21)
(0.301503 0.028426 2.96568e-20)
(0.287014 0.0176088 0)
(0.274864 0.00604557 0)
(0.266285 -0.00381662 0)
(0.273649 -0.0145976 1.68282e-20)
(0.354517 -0.0118553 0)
(0.669133 -0.00772941 0)
(0.344929 0.0563851 0)
(0.325426 0.0519007 4.1332e-20)
(0.311404 0.0443683 -2.79413e-20)
(0.296259 0.0323026 -3.06555e-20)
(0.282169 0.0211491 3.08191e-20)
(0.270664 0.00901984 1.63172e-20)
(0.263008 -0.00134573 -1.62632e-20)
(0.273112 -0.0122403 -5.88592e-20)
(0.358109 -0.0108578 4.22297e-21)
(0.673498 -0.00718678 -1.27963e-20)
(0.342395 0.0611489 0)
(0.321003 0.0570379 -1.34298e-20)
(0.3061 0.048866 -7.13028e-21)
(0.290908 0.0363795 0)
(0.277196 0.0247336 8.0021e-21)
(0.26631 0.0119934 -2.3936e-20)
(0.259578 0.00109987 2.48117e-20)
(0.272178 -0.0098949 8.49128e-21)
(0.360777 -0.00994582 -8.46668e-21)
(0.677289 -0.00672955 1.71813e-20)
(0.339818 0.0674099 1.20439e-20)
(0.31676 0.0628765 1.37337e-20)
(0.300885 0.0538042 -3.19575e-21)
(0.285607 0.0406471 3.72597e-21)
(0.272217 0.0283575 7.77506e-21)
(0.261878 0.0149673 1.20284e-20)
(0.256022 0.00351796 -4.09436e-21)
(0.270819 -0.00756702 -4.16997e-21)
(0.362473 -0.0090996 8.49455e-21)
(0.680525 -0.00634478 4.25821e-21)
(0.336981 0.0750794 -3.20978e-21)
(0.31253 0.0693364 3.23372e-21)
(0.295683 0.0591423 -3.54293e-21)
(0.280329 0.0450892 -3.7212e-21)
(0.267239 0.0320199 3.91174e-21)
(0.257382 0.0179472 -7.94552e-21)
(0.252335 0.00590542 6.14934e-21)
(0.26895 -0.00526133 2.10252e-21)
(0.363167 -0.0082978 0)