/*--------------------------------*- C++ -*----------------------------------*\
  =========                 |
  \\      /  F ield         | OpenFOAM: The Open Source CFD Toolbox
   \\    /   O peration     | Website:  https://openfoam.org
    \\  /    A nd           | Version:  7
     \\/     M anipulation  |
\*---------------------------------------------------------------------------*/
FoamFile
{
    version     2.0;
    format      ascii;
    class       surfaceScalarField;
    location    "5.1";
    object      phi;
}
// * * * * * * * * * * * * * * * * * * * * * * * * * * * * * * * * * * * * * //

dimensions      [0 3 -1 0 0 0 0];

internalField   nonuniform List<scalar> 
63520
(
-7.1031e-06
8.40412e-05
-7.69381e-05
-2.45522e-05
0.00033602
-0.00031857
-4.99489e-05
0.000655812
-0.000630416
-8.11051e-05
0.00101226
-0.000981107
-0.000116097
0.00138675
-0.00135176
-0.000153227
0.00176818
-0.00173105
-0.000190991
0.00214956
-0.0021118
-0.000228071
0.00252654
-0.00248946
-0.000263315
0.00289634
-0.0028611
-0.000295743
0.00325727
-0.00322484
-0.00032452
0.00360804
-0.00357926
-0.000348938
0.00394763
-0.00392321
-0.000368415
0.00427506
-0.00425558
-0.000382479
0.00458932
-0.00457526
-0.000390743
0.00488937
-0.0048811
-0.000392899
0.00517412
-0.00517196
-0.000388708
0.00544252
-0.00544671
-0.000377988
0.00569358
-0.0057043
-0.000360606
0.00592638
-0.00594376
-0.000336473
0.00614016
-0.00616429
-0.000305537
0.0063343
-0.00636523
-0.000267787
0.00650837
-0.00654612
-0.000223233
0.00666212
-0.00670667
-0.000171913
0.00679549
-0.00684681
-0.000113885
0.00690861
-0.00696664
-4.92321e-05
0.00700179
-0.00706644
2.19514e-05
0.00707548
-0.00714666
9.95562e-05
0.00713029
-0.00720789
0.000183456
0.00716693
-0.00725083
0.000273506
0.00718621
-0.00727626
0.000369544
0.00718904
-0.00728508
0.000471381
0.00717635
-0.00727819
0.0005788
0.00714913
-0.00725655
0.000691536
0.00710838
-0.00722112
0.000809271
0.00705512
-0.00717285
0.000931613
0.00699034
-0.00711268
0.00105809
0.00691503
-0.00704151
0.00118811
0.00683007
-0.0069601
0.00132095
0.0067378
-0.00687064
0.0066413
0.00145573
-0.00677607
-7.59368e-06
9.16349e-05
-2.60343e-05
0.000354459
-5.2746e-05
0.000682524
-8.54856e-05
0.001045
-0.000122297
0.00142356
-0.000161453
0.00180733
-0.000201426
0.00218953
-0.000240891
0.002566
-0.000278704
0.00293415
-0.000313859
0.00329242
-0.0003455
0.00363968
-0.000372906
0.00397504
-0.000395473
0.00429763
-0.000412706
0.00460656
-0.000424209
0.00490087
-0.000429665
0.00517957
-0.000428819
0.00544168
-0.00042147
0.00568623
-0.000407471
0.00591238
-0.00038672
0.00611941
-0.000359154
0.00630673
-0.00032474
0.00647396
-0.000283474
0.00662085
-0.000235375
0.00674739
-0.00018048
0.00685372
-0.00011884
0.00694015
-5.05231e-05
0.00700716
2.43847e-05
0.00705538
0.000105784
0.00708553
0.00019356
0.00709844
0.000287572
0.00709503
0.000387652
0.00707627
0.000493592
0.00704319
0.000605129
0.00699685
0.000721933
0.00693832
0.000843589
0.00686869
0.000969574
0.00678905
0.00109926
0.00670039
0.00123185
0.00660521
0.00650677
0.00136637
-7.97986e-06
9.96146e-05
-2.72016e-05
0.000373681
-5.49693e-05
0.000710291
-8.89698e-05
0.001079
-0.000127207
0.0014618
-0.000167955
0.00184808
-0.000209694
0.00223127
-0.000251088
0.0026074
-0.000290985
0.00297405
-0.000328368
0.0033298
-0.000362374
0.00367369
-0.000392266
0.00400493
-0.000417426
0.00432279
-0.000437347
0.00462648
-0.000451616
0.00491514
-0.000459894
0.00518785
-0.000461917
0.0054437
-0.000457477
0.00568179
-0.000446417
0.00590132
-0.00042862
0.00610161
-0.000404009
0.00628212
-0.000372537
0.00644248
-0.000334181
0.0065825
-0.000288938
0.00670215
-0.000236821
0.0068016
-0.000177863
0.00688119
-0.000112104
0.0069414
-3.95952e-05
0.00698287
3.95972e-05
0.00700633
0.000125386
0.00701265
0.000217658
0.00700275
0.000316267
0.00697766
0.000421021
0.00693844
0.000531663
0.00688621
0.000647853
0.00682213
0.000769154
0.00674739
0.00089501
0.00666319
0.00102472
0.00657068
0.00115744
0.00647249
0.0063721
0.00129211
-8.26337e-06
0.000107878
-2.81103e-05
0.000393528
-5.66906e-05
0.000738871
-9.16334e-05
0.00111395
-0.000130934
0.0015011
-0.00017286
0.00189001
-0.000215901
0.00227431
-0.000258727
0.00265022
-0.000300196
0.00301552
-0.000339282
0.00336889
-0.00037511
0.00370952
-0.000406938
0.00403676
-0.000434139
0.00434999
-0.000456188
0.00464853
-0.000472659
0.00493161
-0.000483211
0.0051984
-0.000487566
0.00544805
-0.000485505
0.00567973
-0.000476859
0.00589268
-0.000461506
0.00608626
-0.000439354
0.00625997
-0.000410341
0.00641347
-0.000374427
0.00654658
-0.000331592
0.00665931
-0.000281827
0.00675184
-0.000225134
0.0068245
-0.000161525
0.00687779
-9.10178e-05
0.00691236
-1.3649e-05
0.00692896
7.05288e-05
0.00692847
0.000161436
0.00691185
0.000258953
0.00688014
0.000362909
0.00683448
0.000473055
0.00677606
0.000589053
0.00670613
0.000710448
0.00662599
0.000836645
0.006537
0.000966891
0.00644043
0.00110026
0.00633912
0.00623675
0.0012356
-8.4691e-06
0.000116347
-2.87366e-05
0.000413795
-5.78545e-05
0.000767989
-9.34025e-05
0.00114949
-0.000133362
0.00154105
-0.000176017
0.00193266
-0.00021988
0.00231818
-0.000263633
0.00269398
-0.00030613
0.00305802
-0.000346359
0.00340912
-0.000383443
0.0037466
-0.000416627
0.00406994
-0.000445277
0.00437864
-0.000468864
0.00467211
-0.000486952
0.0049497
-0.000499185
0.00521064
-0.000505279
0.00545415
-0.000505008
0.00567946
-0.000498199
0.00588587
-0.000484716
0.00607278
-0.000464459
0.00623971
-0.000437351
0.00638636
-0.000403338
0.00651257
-0.000362378
0.00661835
-0.000314441
0.0067039
-0.000259504
0.00676956
-0.000197547
0.00681584
-0.000128555
0.00684337
-5.25297e-05
0.00685294
3.05141e-05
0.00684543
0.000120532
0.00682183
0.000217436
0.00678324
0.000321081
0.00673084
0.000431239
0.0066659
0.000547576
0.00658979
0.000669623
0.00650394
0.000796755
0.00640986
0.000928168
0.00630902
0.00106285
0.00620444
0.00610005
0.00119956
-8.57956e-06
0.000124926
-2.9082e-05
0.000434297
-5.84623e-05
0.000797369
-9.42682e-05
0.0011853
-0.000134491
0.00158128
-0.000177429
0.0019756
-0.00022162
0.00236237
-0.000265773
0.00273813
-0.000308749
0.00310099
-0.000349544
0.00344991
-0.000387283
0.00378434
-0.000421211
0.00410387
-0.000450689
0.00440811
-0.000475181
0.0046966
-0.00049424
0.00496876
-0.000507508
0.00522391
-0.000514692
0.00546133
-0.000515563
0.00568033
-0.000509938
0.00588024
-0.000497677
0.00606052
-0.000478669
0.00622071
-0.000452826
0.00636052
-0.000420077
0.00647982
-0.000380366
0.00657864
-0.000333638
0.00665717
-0.000279844
0.00671577
-0.000218935
0.00675493
-0.000150863
0.0067753
-7.55904e-05
0.00677767
6.90307e-06
0.00676293
9.66127e-05
0.00673212
0.00019349
0.00668636
0.000297419
0.00662691
0.000408199
0.00655512
0.000525508
0.00647248
0.000648877
0.00638057
0.000777654
0.00628109
0.000910984
0.00617569
0.00104778
0.00606765
0.00596116
0.00118666
-8.60976e-06
0.000133536
-2.91476e-05
0.000454835
-5.85069e-05
0.000826728
-9.42187e-05
0.00122101
-0.000134289
0.00162135
-0.000177046
0.00201836
-0.000221062
0.00240638
-0.00026507
0.00278214
-0.000307946
0.00314387
-0.000348703
0.00349067
-0.000386472
0.00382211
-0.0004205
0.00413789
-0.000450143
0.00443776
-0.00047486
0.00472132
-0.000494205
0.0049881
-0.000507809
0.00523751
-0.000515377
0.0054689
-0.000516676
0.00568163
-0.000511519
0.00587509
-0.000499758
0.00604875
-0.000481274
0.00620222
-0.000455969
0.00633521
-0.000423761
0.00644761
-0.000384574
0.00653946
-0.000338336
0.00661093
-0.000284969
0.0066624
-0.000224397
0.00669435
-0.00015654
0.00670744
-8.13241e-05
0.00670245
1.31242e-06
0.0066803
9.14042e-05
0.00664203
0.000188942
0.00658882
0.000293852
0.006522
0.000405963
0.00644301
0.00052498
0.00635347
0.000650437
0.00625512
0.00078167
0.00614985
0.000917777
0.00603958
0.00105758
0.00592784
0.00581917
0.00119958
-8.56152e-06
0.000142098
-2.89386e-05
0.000475212
-5.79882e-05
0.000855778
-9.32434e-05
0.00125627
-0.000132742
0.00166084
-0.000174848
0.00206046
-0.000218167
0.0024497
-0.000261466
0.00282544
-0.000303648
0.00318605
-0.00034374
0.00353076
-0.000380884
0.00385925
-0.000414331
0.00417134
-0.00044344
0.00446686
-0.000467667
0.00474555
-0.000486561
0.005007
-0.000499752
0.0052507
-0.000506941
0.00547609
-0.000507892
0.00568258
-0.000502416
0.00586961
-0.000490358
0.0060367
-0.000471592
0.00618346
-0.000446013
0.00630964
-0.000413527
0.00641513
-0.000374043
0.00649997
-0.000327469
0.00656436
-0.000273706
0.00660864
-0.000212651
0.0066333
-0.000144193
0.00663898
-6.82229e-05
0.00662648
1.53584e-05
0.00659672
0.000106629
0.00655076
0.000205623
0.00648983
0.000312309
0.00641531
0.000426558
0.00632876
0.000548106
0.00623192
0.00067651
0.00612671
0.000811101
0.00601526
0.000950935
0.00589975
0.00109476
0.00578402
0.00567302
0.00124091
-8.43744e-06
0.000150535
-2.84579e-05
0.000495232
-5.69115e-05
0.000884231
-9.13509e-05
0.0012907
-0.000129854
0.00169935
-0.00017083
0.00210144
-0.000212923
0.00249179
-0.00025494
0.00286745
-0.000295814
0.00322692
-0.000334591
0.00356954
-0.000370429
0.00389509
-0.000402587
0.0042035
-0.000430426
0.0044947
-0.000453404
0.00476853
-0.000471068
0.00502466
-0.000483045
0.00526268
-0.000489036
0.00548208
-0.000488803
0.00568234
-0.000482151
0.00586296
-0.000468923
0.00602347
-0.000448987
0.00616352
-0.000422233
0.00628288
-0.000388556
0.00638145
-0.000347853
0.00645927
-0.000300015
0.00651652
-0.000244924
0.00655355
-0.000182453
0.00657083
-0.000112465
0.006569
-3.48171e-05
0.00654883
5.06258e-05
0.00651127
0.000143981
0.0064574
0.000245327
0.00638848
0.000354682
0.00630596
0.000471964
0.00621148
0.000596953
0.00610693
0.000729237
0.00599443
0.000868159
0.00587634
0.00101275
0.00575515
0.00116168
0.00563509
0.00552158
0.00131312
-8.23946e-06
0.000158774
-2.77132e-05
0.000514706
-5.52901e-05
0.000911808
-8.85595e-05
0.00132397
-0.000125647
0.00173643
-0.000165012
0.0021408
-0.000205346
0.00253213
-0.000245499
0.00290761
-0.000284437
0.00326586
-0.000321233
0.00360634
-0.000355062
0.00392892
-0.000385194
0.00423363
-0.000410997
0.00452051
-0.000431929
0.00478946
-0.00044754
0.00504027
-0.000457455
0.00527259
-0.000461375
0.005486
-0.000459058
0.00568003
-0.000450308
0.00585421
-0.000434964
0.00600812
-0.000412892
0.00614145
-0.000383975
0.00625396
-0.000348102
0.00634558
-0.000305159
0.00641633
-0.000255024
0.00646639
-0.000197565
0.00649609
-0.000132633
0.0065059
-6.00709e-05
0.00649643
2.0291e-05
0.00646847
0.00010862
0.00642294
0.000205073
0.00636095
0.000309772
0.00628378
0.000422782
0.00619295
0.000544075
0.00609019
0.000673485
0.00597752
0.000810648
0.00585727
0.000954932
0.00573206
0.00110536
0.00560472
0.00126054
0.00547992
0.00536365
0.00141846
-7.96928e-06
0.000166744
-2.67154e-05
0.000533452
-5.31452e-05
0.000938238
-8.4899e-05
0.00135573
-0.000120157
0.00177169
-0.000157437
0.00217808
-0.000195479
0.00257017
-0.000233182
0.00294531
-0.000269549
0.00330223
-0.000303686
0.00364047
-0.000334785
0.00396002
-0.000362132
0.00426098
-0.000385102
0.00454348
-0.00040316
0.00480752
-0.000415855
0.00505297
-0.000422816
0.00527955
-0.00042374
0.00548693
-0.000418385
0.00567467
-0.000406551
0.00584237
-0.000388077
0.00598965
-0.000362827
0.0061162
-0.000330678
0.00622182
-0.000291516
0.00630642
-0.000245218
0.00637003
-0.000191654
0.00641282
-0.00013068
0.00643511
-6.21376e-05
0.00643735
1.41516e-05
0.00642014
9.83755e-05
0.00638425
0.000190728
0.00633059
0.000291396
0.00626028
0.000400542
0.00617464
0.000518281
0.00607521
0.000644642
0.00596383
0.000779518
0.00584264
0.000922606
0.00571418
0.00107332
0.00558134
0.0012307
0.00544734
0.00139329
0.00531733
0.00519801
0.00155894
-7.63133e-06
0.000174375
-2.54784e-05
0.000551299
-5.05044e-05
0.000963263
-8.04121e-05
0.00138564
-0.000113441
0.00180472
-0.000148169
0.00221281
-0.000183394
0.00260539
-0.000218064
0.00297998
-0.000251224
0.00333539
-0.000282014
0.00367126
-0.00030965
0.00398765
-0.000333434
0.00428476
-0.000352754
0.0045628
-0.000367082
0.00482185
-0.000375967
0.00506185
-0.00037904
0.00528263
-0.000376001
0.00548389
-0.000366602
0.00566527
-0.000350643
0.00582642
-0.000327962
0.00596697
-0.000298423
0.00608666
-0.0002619
0.00618529
-0.000218273
0.00626279
-0.000167419
0.00631917
-0.000109203
0.00635461
-4.34748e-05
0.00636939
2.99323e-05
0.00636395
0.000111203
0.00633887
0.000200539
0.00629491
0.000298151
0.00623298
0.000404251
0.00615418
0.000519035
0.00605985
0.000642661
0.00595159
0.000775212
0.00583128
0.000916652
0.0057012
0.00106675
0.00556408
0.00122499
0.0054231
0.00139043
0.0052819
0.0015616
0.00514615
0.00502342
0.0017362
-7.22969e-06
0.000181604
-2.402e-05
0.000568089
-4.74035e-05
0.000986647
-7.51529e-05
0.00141338
-0.00010557
0.00183514
-0.000137298
0.00224454
-0.000169192
0.00263729
-0.000200254
0.00301104
-0.000229576
0.00336471
-0.000256331
0.00369802
-0.000279764
0.00401108
-0.000299199
0.0043042
-0.000314036
0.00457763
-0.000323753
0.00483156
-0.000327908
0.00506601
-0.000326132
0.00528085
-0.000318123
0.00547588
-0.000303632
0.00565078
-0.00028246
0.00580524
-0.000254443
0.00593895
-0.000219445
0.00605166
-0.00017734
0.00614319
-0.000128007
0.00621345
-7.13209e-05
0.00626249
-7.14873e-06
0.00629044
6.46587e-05
0.00629758
0.000144269
0.00628434
0.000231866
0.00625127
0.000327657
0.00619912
0.000431858
0.00612878
0.000544696
0.00604134
0.000666389
0.00593816
0.000797131
0.00582084
0.000937059
0.00569135
0.0010862
0.00555206
0.00124441
0.00540587
0.00141126
0.00525626
0.00158586
0.00510729
0.00176675
0.00496526
0.00483868
0.00195148
-6.77044e-06
0.000188375
-2.23619e-05
0.000583681
-4.38852e-05
0.00100817
-6.91865e-05
0.00143869
-9.66328e-05
0.00186259
-0.000124933
0.00227284
-0.000153004
0.00266536
-0.000179899
0.00303793
-0.000204761
0.00338957
-0.0002268
0.00372006
-0.000245295
0.00402958
-0.00025959
0.00431849
-0.000269102
0.00458715
-0.000273319
0.00483578
-0.000271805
0.00506449
-0.000264194
0.00527324
-0.000250182
0.00546187
-0.00022952
0.00563012
-0.00020201
0.00577773
-0.000167488
0.00590443
-0.000125817
0.00600999
-7.6872e-05
0.00609424
-2.05345e-05
0.00615712
4.33166e-05
0.00619864
0.00011481
0.00621894
0.000194088
0.0062183
0.00028131
0.00619711
0.000376654
0.00615593
0.000480316
0.00609546
0.000592512
0.00601658
0.000713467
0.00592039
0.000843412
0.00580822
0.000982565
0.00568169
0.0011311
0.00554281
0.00128912
0.00539404
0.00145656
0.00523843
0.00163308
0.00507974
0.0018179
0.00492248
0.00200957
0.00477359
0.00464269
0.00220556
-6.26089e-06
0.000194636
-2.05293e-05
0.000597949
-3.99986e-05
0.00102764
-6.25895e-05
0.00146128
-8.67347e-05
0.00188673
-0.000111208
0.00229731
-0.000134987
0.00268914
-0.000157181
0.00306013
-0.00017698
0.00340937
-0.000193639
0.00373672
-0.000206468
0.00404241
-0.000214838
0.00432686
-0.000218185
0.00459049
-0.000216009
0.0048336
-0.000207881
0.00505636
-0.000193437
0.0052588
-0.000172374
0.0054408
-0.000144445
0.00560219
-0.00010945
0.00574274
-6.72267e-05
0.00586221
-1.7639e-05
0.0059604
3.94348e-05
0.00603717
0.00010411
0.00609244
0.000176498
0.00612625
0.00025672
0.00613872
0.000344905
0.00613012
0.000441196
0.00610082
0.000545754
0.00605137
0.000658759
0.00598245
0.000780407
0.00589493
0.000910914
0.00578988
0.0010505
0.00566863
0.0011994
0.00553279
0.00135782
0.00538439
0.0015259
0.00522596
0.00170368
0.00506066
0.00189091
0.00489251
0.00208693
0.00472646
0.00229037
0.00457015
0.00443444
0.00249862
-5.70948e-06
0.000200345
-1.85503e-05
0.00061079
-3.57989e-05
0.00104489
-5.54484e-05
0.00148093
-7.5996e-05
0.00190728
-9.62767e-05
0.00231759
-0.000115328
0.00270819
-0.000132315
0.00307711
-0.000146477
0.00342353
-0.000157113
0.00374735
-0.00016357
0.00404887
-0.000165248
0.00432854
-0.000161602
0.00458685
-0.000152148
0.00482415
-0.000136464
0.00504068
-0.000114192
0.00523652
-8.50291e-05
0.00541164
-4.87306e-05
0.00556589
-5.09787e-06
0.0056991
4.60302e-05
0.00581108
0.000104788
0.00590164
0.000171293
0.00597066
0.000245651
0.00601808
0.000327964
0.00604393
0.000418337
0.00604835
0.000516882
0.00603157
0.000623719
0.00599399
0.000738981
0.00593611
0.000862822
0.00585861
0.000995407
0.00576235
0.00113692
0.00564837
0.00128758
0.00551797
0.00144759
0.00537278
0.00161717
0.00521481
0.00179651
0.00504662
0.0019857
0.00487147
0.00218463
0.00469358
0.00239276
0.00451833
0.00260883
0.00435407
0.00421303
0.00283024
-5.12588e-06
0.000205471
-1.64562e-05
0.00062212
-3.13467e-05
0.00105978
-4.78591e-05
0.00149744
-6.45504e-05
0.00192397
-8.03128e-05
0.00233335
-9.42403e-05
0.00272212
-0.000105551
0.00308842
-0.000113538
0.00343152
-0.000117542
0.00375135
-0.000116951
0.00404827
-0.000111195
0.00432278
-9.97516e-05
0.0045754
-8.21541e-05
0.00480655
-5.79918e-05
0.00501652
-2.6911e-05
0.00520544
1.13856e-05
0.00537334
5.71413e-05
0.00552014
0.000110553
0.00564569
0.000171779
0.00574985
0.000240949
0.00583247
0.000318174
0.00589344
0.000403549
0.00593271
0.000497162
0.00595032
0.000599098
0.00594641
0.000709443
0.00592123
0.000828288
0.00587514
0.000955732
0.00580866
0.00109189
0.00572246
0.00123689
0.00561735
0.00139087
0.00549439
0.001554
0.00535484
0.00172646
0.00520031
0.00190848
0.0050328
0.00210025
0.00485485
0.00230192
0.0046698
0.00251348
0.00448202
0.00273454
0.00429727
0.00296398
0.00412463
0.00397777
0.00319925
-4.52053e-06
0.000209991
-1.42801e-05
0.00063188
-2.67073e-05
0.00107221
-3.9925e-05
0.00151066
-5.25436e-05
0.00193659
-6.35059e-05
0.00234432
-7.19584e-05
0.00273057
-7.71715e-05
0.00309364
-7.84872e-05
0.00343283
-7.52934e-05
0.00374816
-6.70182e-05
0.00404
-5.3124e-05
0.00430889
-3.31159e-05
0.0045554
-6.54488e-06
0.00477998
2.69866e-05
0.00498299
6.78236e-05
0.00516461
0.000116258
0.00532491
0.000172528
0.00546387
0.000236827
0.00558139
0.00030931
0.00567737
0.000390101
0.00575168
0.000479298
0.00580424
0.000576984
0.00583502
0.000683229
0.00584408
0.000798092
0.00583155
0.00092163
0.00579769
0.0010539
0.00574287
0.00119495
0.00566761
0.00134486
0.00557255
0.00150369
0.00545852
0.00167153
0.00532654
0.0018485
0.00517787
0.00203474
0.00501407
0.00223042
0.00483712
0.00243575
0.00464953
0.0026509
0.00445465
0.00287595
0.00425696
0.00311065
0.00406257
0.00335407
0.00388121
0.0037281
0.00360374
-3.90441e-06
0.000213896
-1.20567e-05
0.000640032
-2.1949e-05
0.0010821
-3.17552e-05
0.00152046
-4.01302e-05
0.00194496
-4.60595e-05
0.00235024
-4.87372e-05
0.00273325
-4.74818e-05
0.00309238
-4.1684e-05
0.00342704
-3.07783e-05
0.00373726
-1.42318e-05
0.00402345
8.45017e-06
0.00428621
3.77416e-05
0.0045261
7.40683e-05
0.00474366
0.000117811
0.00493924
0.000169304
0.00511311
0.00022883
0.00526538
0.000296621
0.00539608
0.000372864
0.00550515
0.000457707
0.00559253
0.000551265
0.00565812
0.000653623
0.00570188
0.000764847
0.0057238
0.000884981
0.00572394
0.00101406
0.00570247
0.0011521
0.00565965
0.00129911
0.00559586
0.00145511
0.00551161
0.00162011
0.00540756
0.0017941
0.00528453
0.00197712
0.00514352
0.00216921
0.00498578
0.00237045
0.00481284
0.00258094
0.00462662
0.00280087
0.0044296
0.00303042
0.0042251
0.00326974
0.00401765
0.0035187
0.00381361
0.00377655
0.00362336
0.00346364
0.004041
-3.28881e-06
0.000217184
-9.82184e-06
0.000646565
-1.71421e-05
0.00108942
-2.34626e-05
0.00152678
-2.74712e-05
0.00194897
-2.81876e-05
0.00235096
-2.48468e-05
0.00272991
-1.68114e-05
0.00308435
-3.51849e-06
0.00341374
1.55508e-05
0.00371819
4.08855e-05
0.00399812
7.29511e-05
0.00425414
0.000112183
0.00448687
0.000158984
0.00469685
0.000213716
0.00488451
0.000276699
0.00505013
0.000348202
0.00519388
0.000428449
0.00531583
0.000517618
0.00541598
0.000615846
0.0054943
0.000723233
0.00555074
0.000839849
0.00558527
0.000965737
0.00559791
0.00110091
0.00558876
0.00124538
0.005558
0.00139911
0.00550591
0.00156208
0.00543289
0.00173423
0.00533946
0.00191551
0.00522628
0.00210587
0.00509417
0.00230524
0.00494415
0.00251359
0.00477743
0.00273092
0.00459551
0.00295726
0.00440028
0.00319273
0.00419413
0.0034375
0.00398032
0.00369175
0.0037634
0.00395546
0.0035499
0.00422808
0.00335074
0.00318421
0.00450751
-2.68498e-06
0.000219869
-7.61098e-06
0.00065149
-1.23574e-05
0.00109416
-1.51611e-05
0.00152959
-1.47304e-05
0.00194854
-1.01098e-05
0.00234634
-5.67578e-07
0.00272037
1.44947e-05
0.00306928
3.55965e-05
0.00339264
6.32117e-05
0.00369057
9.77877e-05
0.00396354
0.000139751
0.00421218
0.000189503
0.00443712
0.000247419
0.00463894
0.000313839
0.00481809
0.000389062
0.00497491
0.000473343
0.0051096
0.000566891
0.00522228
0.00066987
0.005313
0.000782402
0.00538177
0.000904571
0.00542857
0.00103642
0.00545341
0.00117798
0.00545636
0.00132922
0.00543752
0.00149011
0.00539712
0.00166057
0.00533545
0.00184053
0.00525293
0.00202987
0.00515012
0.00222847
0.00502767
0.0024362
0.00488644
0.00265292
0.00472743
0.0028785
0.00455185
0.00311284
0.00436117
0.0033559
0.00415722
0.00360771
0.00394233
0.00386838
0.00371965
0.0041381
0.00349368
0.00441694
0.00327106
0.00470452
0.00306316
0.00288974
0.00499899
-2.10377e-06
0.000221973
-5.4591e-06
0.000654846
-7.6645e-06
0.00109637
-6.96347e-06
0.00152889
-2.07136e-06
0.00194365
7.95273e-06
0.00233632
2.38159e-05
0.0027045
4.6083e-05
0.00304702
7.52338e-05
0.00336349
0.000111699
0.00365411
0.000155885
0.00391936
0.000208177
0.00415989
0.000268943
0.00437636
0.000338524
0.00456936
0.000417234
0.00473938
0.000505349
0.00488679
0.000603103
0.00501185
0.000710685
0.0051147
0.000828243
0.00519544
0.000955877
0.00525413
0.00109365
0.0052908
0.00124158
0.00530548
0.00139965
0.00529828
0.00156781
0.00526936
0.00174598
0.00521895
0.00193404
0.00514739
0.00213184
0.00505513
0.00233921
0.00494274
0.00255596
0.00481093
0.00278187
0.00466054
0.00301671
0.00449259
0.00326027
0.00430829
0.00351235
0.00410909
0.00377279
0.00389677
0.00404154
0.00367358
0.00431864
0.00344255
0.00460424
0.00320808
0.00489846
0.00297684
0.00520108
0.00276054
0.00258035
0.00551047
-1.55532e-06
0.000223528
-3.39962e-06
0.00065669
-3.13004e-06
0.0010961
1.02194e-06
0.00152473
1.03474e-05
0.00193432
2.57837e-05
0.00232088
4.80221e-05
0.00268226
7.76e-05
0.00301744
0.000114962
0.00332613
0.000160498
0.00360857
0.000214573
0.00386528
0.000277533
0.00409693
0.000349705
0.00430418
0.000431398
0.00448766
0.000522892
0.00464789
0.000624436
0.00478525
0.000736238
0.00490004
0.000858463
0.00499247
0.000991232
0.00506267
0.00113462
0.00511074
0.00128866
0.00513675
0.00145335
0.0051408
0.00162862
0.00512301
0.00181438
0.0050836
0.0020105
0.00502283
0.00221681
0.00494108
0.00243309
0.00483885
0.00265912
0.00471672
0.00289461
0.00457544
0.00313927
0.00441588
0.00339278
0.00423907
0.00365484
0.00404623
0.00392514
0.0038388
0.00420342
0.00361849
0.00448951
0.00338748
0.00478336
0.0031487
0.00508507
0.00290637
0.00539478
0.00266713
0.00571238
0.00244294
0.00225624
0.00603649
-1.0488e-06
0.000224576
-1.46298e-06
0.000657104
1.18451e-06
0.00109345
8.69403e-06
0.00151722
2.23766e-05
0.00192064
4.3177e-05
0.00230008
7.17799e-05
0.00265366
0.000108702
0.00298052
0.000154356
0.00328048
0.000209096
0.00355383
0.000273246
0.00380113
0.00034711
0.00402306
0.000430975
0.00422032
0.000525112
0.00439353
0.000629765
0.00454323
0.000745149
0.00466987
0.000871441
0.00477375
0.00100878
0.00485514
0.00115724
0.00491421
0.00131688
0.0049511
0.0014877
0.00496594
0.00166964
0.00495886
0.0018626
0.00493005
0.00206645
0.00487975
0.00228099
0.00480829
0.00250599
0.00471608
0.00274118
0.00460366
0.00298624
0.00447166
0.00324083
0.00432085
0.00350457
0.00415214
0.00377706
0.00396659
0.00405788
0.00376541
0.00434664
0.00355004
0.00464296
0.00332216
0.00494657
0.00308387
0.00525731
0.00283796
0.00557519
0.0025885
0.00590034
0.00234198
0.00623274
0.00211054
0.00191776
0.00657122
-5.92127e-07
0.000225168
3.22619e-07
0.000656189
5.22455e-06
0.00108855
1.5962e-05
0.00150649
3.38805e-05
0.00190272
5.99433e-05
0.00227402
9.48373e-05
0.00261877
0.000139064
0.00293629
0.000193012
0.00322653
0.000257
0.00348984
0.000331313
0.00372682
0.000416213
0.00393816
0.000511946
0.00412459
0.000618739
0.00428674
0.000736799
0.00442517
0.0008663
0.00454036
0.00100738
0.00463267
0.00116014
0.00470238
0.00132463
0.00474972
0.00150086
0.00477487
0.00168878
0.00477802
0.00188829
0.00475935
0.00209925
0.00471909
0.00232146
0.00465754
0.00255468
0.00457507
0.0027986
0.00447216
0.00305288
0.00434937
0.00331715
0.00420739
0.00359097
0.00404703
0.00387388
0.00386923
0.0041654
0.00367507
0.00446501
0.0034658
0.00477222
0.00324283
0.00508656
0.00300782
0.00540763
0.0027628
0.00573517
0.00251043
0.00606909
0.00225458
0.00640948
0.00200159
0.00675637
0.00176364
0.00156536
0.00710877
-1.92073e-07
0.00022536
1.9358e-06
0.000654061
8.94435e-06
0.00108154
2.27485e-05
0.00149268
4.47418e-05
0.00188073
7.59163e-05
0.00224284
0.000116969
0.00257771
0.000168395
0.00288486
0.000230559
0.00316436
0.000303751
0.00341665
0.000388219
0.00364235
0.000484183
0.0038422
0.000591843
0.00401692
0.000711385
0.00416719
0.000842968
0.00429359
0.000986726
0.00439661
0.00114275
0.00447664
0.0013111
0.00453403
0.00149179
0.00456903
0.00168476
0.0045819
0.00188993
0.00457285
0.00210715
0.00454212
0.00233622
0.00449002
0.00257689
0.00441688
0.00282883
0.00432313
0.0030917
0.0042093
0.00336507
0.004076
0.00364848
0.00392397
0.00394144
0.00375407
0.0042434
0.00356727
0.00455377
0.00336469
0.00487198
0.00314759
0.00519742
0.00291738
0.00552953
0.00267571
0.0058678
0.00242454
0.00621184
0.00216639
0.00656148
0.00190494
0.00691673
0.00164634
0.00727767
0.0014027
0.00119961
0.00764342
1.45908e-07
0.000225214
3.35906e-06
0.000650848
1.23084e-05
0.00107259
2.89923e-05
0.001476
5.48657e-05
0.00185486
9.09592e-05
0.00220675
0.000137987
0.00253069
0.000196442
0.00282641
0.000266674
0.00309413
0.000348946
0.00333438
0.000443469
0.00354783
0.000550421
0.00373525
0.00066996
0.00389739
0.000802222
0.00403493
0.00094732
0.00414849
0.00110534
0.00423859
0.00127632
0.00430566
0.00146028
0.00435007
0.00165716
0.00437215
0.00186688
0.00437218
0.00208929
0.00435044
0.00232418
0.00430723
0.0025713
0.0042429
0.00283032
0.00415785
0.00310087
0.00405258
0.00338252
0.00392765
0.00367477
0.00378375
0.0039771
0.00362165
0.00428892
0.00344225
0.0046096
0.00324659
0.00493849
0.0030358
0.00527491
0.00281117
0.00561817
0.00257412
0.0059676
0.00232628
0.0063226
0.00206954
0.00668267
0.00180632
0.00704751
0.00154009
0.00741709
0.00127676
0.00779145
0.00102834
0.00082119
0.00816987
4.18312e-07
0.000224796
4.58137e-06
0.000646685
1.52928e-05
0.00106188
3.4651e-05
0.00145664
6.41846e-05
0.00182532
0.00010497
0.00216596
0.000157746
0.00247791
0.000223009
0.00276115
0.000301097
0.00301604
0.00039225
0.00324322
0.000496645
0.00344343
0.000614419
0.00361747
0.000745684
0.00376612
0.000890528
0.00389009
0.00104901
0.00399001
0.00122117
0.00406643
0.00140699
0.00411984
0.00160642
0.00415064
0.00181937
0.0041592
0.00204569
0.00414586
0.00228517
0.00411096
0.00253755
0.00405485
0.0028025
0.00397795
0.00307963
0.00388072
0.0033685
0.00376371
0.00366861
0.00362754
0.0039794
0.00347296
0.00430025
0.00330079
0.0046305
0.003112
0.00496945
0.00290764
0.00531636
0.0026889
0.00567046
0.00245707
0.00603097
0.00221361
0.00639713
0.00196012
0.00676823
0.00169844
0.00714367
0.00143088
0.00752305
0.00116072
0.00790621
0.000893598
0.00829323
0.000641328
0.000430961
0.00868346
6.23656e-07
0.000224172
5.59831e-06
0.00064171
1.78871e-05
0.00104959
3.97037e-05
0.00143482
7.26612e-05
0.00179237
0.000117889
0.00212074
0.000176153
0.00241965
0.000247961
0.00268934
0.000333643
0.00293036
0.000433418
0.00314345
0.000547432
0.00332942
0.000675782
0.00348912
0.000818534
0.00362337
0.000975726
0.0037329
0.00114737
0.00381837
0.00133343
0.00388037
0.00153385
0.00391942
0.00174851
0.00393597
0.00197728
0.00393044
0.00221992
0.00390322
0.00247618
0.0038547
0.00274572
0.00378531
0.00302816
0.00369551
0.00332303
0.00358585
0.00362983
0.00345691
0.00394797
0.0033094
0.00427683
0.0031441
0.00461571
0.00296191
0.00496388
0.00276384
0.00532053
0.00255098
0.00568486
0.00232457
0.00605601
0.00208593
0.0064331
0.00183652
0.00681528
0.00157794
0.00720173
0.00131199
0.00759173
0.00104087
0.00798478
0.000767677
0.00838063
0.000497748
0.00877931
0.000242646
2.99549e-05
0.00918031
7.62789e-07
0.000223409
6.4126e-06
0.000636061
2.00947e-05
0.00103591
4.41527e-05
0.00141077
8.02918e-05
0.00175623
0.000129699
0.00207133
0.000193173
0.00235617
0.000271236
0.00261128
0.000364215
0.00283738
0.00047231
0.00303535
0.000595637
0.00320609
0.000734256
0.00335051
0.000888186
0.00346944
0.00105742
0.00356367
0.0012419
0.00363389
0.00144155
0.00368072
0.00165624
0.00370473
0.00188581
0.0037064
0.00213003
0.00368621
0.00238864
0.00364461
0.00266129
0.00358205
0.00294759
0.003499
0.00324709
0.00339602
0.00355925
0.00327368
0.0038835
0.00313266
0.00421918
0.00297372
0.00456558
0.0027977
0.00492194
0.00260556
0.00528743
0.00239835
0.00566118
0.00217723
0.00604227
0.00194347
0.00642977
0.00169843
0.00682269
0.00144359
0.00722008
0.00118055
0.00762101
0.000911063
0.00802464
0.000637241
0.00843034
0.00036198
0.00883776
9.03213e-05
0.00924692
-0.000166512
-0.00038057
0.00965745
8.38986e-07
0.000222571
7.03441e-06
0.000629865
2.19345e-05
0.00102101
4.80247e-05
0.00138468
8.71076e-05
0.00171714
0.000140431
0.00201801
0.000208833
0.00228777
0.00029285
0.00252726
0.000392811
0.00273742
0.000508898
0.00291926
0.000641202
0.00307379
0.000789744
0.00320196
0.000954502
0.00330468
0.00113541
0.00338276
0.00133237
0.00343693
0.00154523
0.00346786
0.00177382
0.00347614
0.00201789
0.00346233
0.00227717
0.00342693
0.00255131
0.00337047
0.00283992
0.00329344
0.00314253
0.00319639
0.00345861
0.00307994
0.00378758
0.00294472
0.00412876
0.00279148
0.00448145
0.00262103
0.00484484
0.0024343
0.0052181
0.0022323
0.00560031
0.00201614
0.00599052
0.00178703
0.0063877
0.00154629
0.00679081
0.00129532
0.00719877
0.00103563
0.0076105
0.00076882
0.00802494
0.000496623
0.00844112
0.000221053
0.00885829
-5.51819e-05
0.00927598
-0.00032737
0.00969417
-0.000584708
-0.000799093
0.0101127
8.57877e-07
0.000221713
7.48153e-06
0.000623241
2.344e-05
0.00100505
5.13706e-05
0.00135674
9.31759e-05
0.00167534
0.000150169
0.00196101
0.000223226
0.00221471
0.000312905
0.00243758
0.000419534
0.00263079
0.000543284
0.00279552
0.000684219
0.00293285
0.000842328
0.00304385
0.00101754
0.00312946
0.00120975
0.00319055
0.0014188
0.00322789
0.00164448
0.00324218
0.00188655
0.00323407