/*--------------------------------*- C++ -*----------------------------------*\
  =========                 |
  \\      /  F ield         | OpenFOAM: The Open Source CFD Toolbox
   \\    /   O peration     | Website:  https://openfoam.org
    \\  /    A nd           | Version:  7
     \\/     M anipulation  |
\*---------------------------------------------------------------------------*/
FoamFile
{
    version     2.0;
    format      ascii;
    class       volScalarField;
    location    "1.2";
    object      p;
}
// * * * * * * * * * * * * * * * * * * * * * * * * * * * * * * * * * * * * * //

dimensions      [0 2 -2 0 0 0 0];

internalField   nonuniform List<scalar> 
18000
(
2.53819
2.53908
2.54164
2.54425
2.54697
2.55018
2.55436
2.55985
2.56674
2.5749
2.58401
2.59364
2.6034
2.61301
2.62228
2.63114
2.63954
2.64747
2.65494
2.66197
2.66864
2.67499
2.6811
2.68703
2.69282
2.6985
2.70409
2.7096
2.71506
2.7204
2.52715
2.52837
2.53097
2.53355
2.5361
2.53904
2.54293
2.54814
2.5548
2.56278
2.57174
2.58127
2.59097
2.60053
2.60976
2.61856
2.62689
2.63475
2.64212
2.64906
2.65562
2.66185
2.66784
2.67363
2.67927
2.68479
2.6902
2.69553
2.7008
2.70594
2.51587
2.51749
2.52017
2.52274
2.52513
2.52782
2.53141
2.53636
2.5428
2.55059
2.55942
2.56884
2.57846
2.58794
2.59711
2.60584
2.61409
2.62185
2.62912
2.63595
2.64238
2.64849
2.65434
2.65999
2.66547
2.67081
2.67605
2.68119
2.68627
2.69122
2.50447
2.5065
2.50928
2.51185
2.51409
2.51653
2.51985
2.52453
2.53075
2.53837
2.54705
2.55636
2.56588
2.57528
2.58436
2.593
2.60115
2.60879
2.61594
2.62264
2.62895
2.63492
2.64062
2.64611
2.65143
2.65659
2.66164
2.6666
2.67148
2.67623
2.49301
2.49546
2.49834
2.5009
2.50299
2.5052
2.50825
2.51269
2.51869
2.52613
2.53466
2.54385
2.55326
2.56255
2.57152
2.58005
2.58808
2.5956
2.60261
2.60917
2.61533
2.62115
2.6267
2.63203
2.63717
2.64215
2.647
2.65176
2.65644
2.66099
2.48154
2.48437
2.48736
2.48992
2.49188
2.49386
2.49666
2.50085
2.50664
2.5139
2.52228
2.53133
2.54061
2.54978
2.55863
2.56702
2.57491
2.58228
2.58914
2.59555
2.60156
2.60722
2.6126
2.61775
2.62271
2.6275
2.63215
2.63671
2.64118
2.64552
2.47006
2.47327
2.47635
2.47893
2.48076
2.48253
2.48508
2.48903
2.49461
2.50169
2.50992
2.51882
2.52796
2.53699
2.54568
2.55392
2.56165
2.56886
2.57556
2.5818
2.58764
2.59313
2.59834
2.6033
2.60807
2.61266
2.61711
2.62146
2.62571
2.62983
2.45859
2.46216
2.46534
2.46792
2.46964
2.4712
2.47352
2.47724
2.48262
2.48953
2.49759
2.50634
2.51531
2.52418
2.53271
2.54077
2.54832
2.55535
2.56187
2.56793
2.5736
2.57891
2.58393
2.5887
2.59326
2.59765
2.60189
2.60602
2.61006
2.61395
2.44714
2.45104
2.45432
2.4569
2.45851
2.45989
2.46198
2.46549
2.47067
2.47741
2.48531
2.49389
2.50269
2.51137
2.51971
2.52758
2.53494
2.54177
2.5481
2.55397
2.55944
2.56457
2.5694
2.57396
2.57832
2.58249
2.58652
2.59043
2.59424
2.5979
2.4357
2.43992
2.44328
2.44587
2.44738
2.44858
2.45047
2.45378
2.45878
2.46535
2.47308
2.48148
2.49008
2.49856
2.5067
2.51436
2.5215
2.52813
2.53425
2.53992
2.5452
2.55013
2.55475
2.55911
2.56324
2.5672
2.57101
2.5747
2.57828
2.5817
2.42427
2.4288
2.43224
2.43483
2.43623
2.43727
2.43898
2.4421
2.44694
2.45334
2.4609
2.46911
2.47751
2.48577
2.49368
2.50111
2.50803
2.51444
2.52035
2.52581
2.53088
2.5356
2.54001
2.54415
2.54807
2.5518
2.55539
2.55886
2.56219
2.56536
2.41286
2.41766
2.42118
2.42376
2.42507
2.42596
2.4275
2.43046
2.43514
2.44139
2.44877
2.45678
2.46497
2.473
2.48066
2.48785
2.49454
2.50071
2.5064
2.51164
2.51649
2.52099
2.52519
2.52911
2.53281
2.53632
2.53968
2.54291
2.54601
2.54892
2.40144
2.40651
2.41009
2.41267
2.41389
2.41464
2.41603
2.41885
2.42339
2.42948
2.43669
2.4445
2.45246
2.46025
2.46765
2.47459
2.48102
2.48696
2.49241
2.49743
2.50206
2.50634
2.51031
2.51401
2.51748
2.52076
2.52389
2.52689
2.52974
2.53239
2.39001
2.39534
2.39897
2.40154
2.40267
2.4033
2.40456
2.40726
2.41167
2.41762
2.42466
2.43227
2.43999
2.44751
2.45465
2.46133
2.4675
2.47319
2.4784
2.48318
2.48758
2.49164
2.49538
2.49885
2.5021
2.50516
2.50806
2.51082
2.51341
2.51581
2.37857
2.38413
2.38781
2.39036
2.39141
2.39193
2.39309
2.39568
2.39999
2.40581
2.41268
2.42008
2.42755
2.43481
2.44167
2.44807
2.45399
2.45941
2.46438
2.46892
2.47308
2.47691
2.48042
2.48367
2.48669
2.48952
2.49219
2.49471
2.49706
2.49919
2.36709
2.37288
2.37659
2.37912
2.38009
2.38052
2.38159
2.38412
2.38834
2.39404
2.40074
2.40792
2.41514
2.42212
2.4287
2.43483
2.44047
2.44564
2.45035
2.45464
2.45857
2.46216
2.46545
2.46847
2.47127
2.47388
2.47631
2.4786
2.48069
2.48256
2.35556
2.36157
2.36531
2.3678
2.3687
2.36906
2.37008
2.37256
2.37672
2.38231
2.38884
2.39579
2.40276
2.40946
2.41575
2.4216
2.42697
2.43186
2.43632
2.44037
2.44405
2.44741
2.45047
2.45328
2.45586
2.45824
2.46045
2.46249
2.46434
2.46595
2.34398
2.35019
2.35394
2.3564
2.35723
2.35754
2.35855
2.36101
2.36512
2.3706
2.37696
2.38369
2.39039
2.39681
2.40282
2.40838
2.41347
2.4181
2.42229
2.42609
2.42953
2.43266
2.4355
2.43809
2.44046
2.44262
2.44461
2.44643
2.44804
2.4494
2.33233
2.33874
2.34249
2.3449
2.34568
2.34597
2.34698
2.34945
2.35353
2.35891
2.36511
2.37162
2.37805
2.38419
2.38991
2.39518
2.39999
2.40434
2.40828
2.41182
2.41503
2.41792
2.42055
2.42293
2.42509
2.42704
2.42882
2.43042
2.43181
2.43294
2.3206
2.3272
2.33094
2.3333
2.33404
2.33433
2.33538
2.33788
2.34195
2.34725
2.35328
2.35956
2.36574
2.37159
2.37702
2.382
2.38652
2.3906
2.39427
2.39757
2.40054
2.40321
2.40562
2.40779
2.40975
2.41151
2.41309
2.4145
2.41568
2.41659
2.30878
2.31557
2.31928
2.3216
2.32231
2.32263
2.32375
2.32631
2.33038
2.3356
2.34147
2.34753
2.35344
2.35901
2.36416
2.36884
2.37308
2.37688
2.38028
2.38333
2.38606
2.38851
2.39071
2.39269
2.39446
2.39604
2.39744
2.39867
2.39967
2.40039
2.29687
2.30383
2.30752
2.30979
2.31049
2.31088
2.31209
2.31474
2.31882
2.32397
2.32968
2.33552
2.34117
2.34646
2.35131
2.35571
2.35965
2.36317
2.36631
2.36911
2.37161
2.37384
2.37583
2.37762
2.37921
2.38062
2.38187
2.38295
2.3838
2.38438
2.28487
2.29201
2.29565
2.29788
2.2986
2.29907
2.30042
2.30317
2.30728
2.31236
2.31792
2.32354
2.32893
2.33394
2.3385
2.3426
2.34626
2.3495
2.35237
2.35491
2.35717
2.35918
2.36097
2.36257
2.364
2.36526
2.36638
2.36734
2.36809
2.36859
2.27278
2.28009
2.28369
2.28587
2.28663
2.28723
2.28874
2.29162
2.29577
2.30078
2.30619
2.31159
2.31672
2.32146
2.32573
2.32953
2.33289
2.33585
2.33845
2.34074
2.34276
2.34454
2.34613
2.34754
2.34881
2.34994
2.35095
2.35185
2.35255
2.35303
2.26061
2.26808
2.27163
2.27379
2.2746
2.27536
2.27706
2.28008
2.28428
2.28924
2.29449
2.29967
2.30456
2.30902
2.313
2.31651
2.31957
2.32224
2.32456
2.32659
2.32836
2.32991
2.33128
2.33251
2.33362
2.33463
2.33556
2.33643
2.33715
2.33772
2.24836
2.25599
2.25948
2.26163
2.26253
2.26347
2.26539
2.26857
2.27283
2.27773
2.28284
2.28781
2.29245
2.29663
2.30032
2.30353
2.3063
2.30867
2.31071
2.31246
2.31397
2.31528
2.31643
2.31745
2.31839
2.31928
2.32016
2.32103
2.32184
2.32263
2.23605
2.24383
2.24727
2.24941
2.25043
2.25159
2.25374
2.2571
2.26143
2.26628
2.27124
2.27601
2.2804
2.28431
2.28771
2.29062
2.29308
2.29516
2.29691
2.29837
2.2996
2.30064
2.30154
2.30234
2.30309
2.30384
2.30466
2.30556
2.30652
2.3077
2.22368
2.23162
2.235
2.23716
2.23832
2.23973
2.24214
2.24569
2.25009
2.25489
2.25972
2.26428
2.26842
2.27206
2.27517
2.27778
2.27994
2.28171
2.28316
2.28432
2.28525
2.286
2.28661
2.28714
2.28764
2.28821
2.28892
2.28986
2.29108
2.29288
2.21127
2.21935
2.22269
2.22489
2.22622
2.2279
2.2306
2.23435
2.23882
2.24358
2.24827
2.25263
2.25653
2.2599
2.26272
2.26503
2.26689
2.26835
2.26948
2.27032
2.27093
2.27135
2.27163
2.27182
2.27199
2.27224
2.27269
2.27352
2.27504
2.27797
2.19884
2.20706
2.21035
2.21261
2.21416
2.21614
2.21914
2.22309
2.22765
2.23237
2.23692
2.24109
2.24475
2.24784
2.25038
2.25239
2.25394
2.25509
2.25589
2.2564
2.25667
2.25674
2.25664
2.25642
2.25613
2.25586
2.25568
2.25575
2.25658
2.26029
2.73791
2.76913
2.79673
2.82508
2.85293
2.88048
2.90775
2.93488
2.96098
2.98751
3.01467
3.0425
3.07092
3.0999
3.12951
3.15983
3.1909
3.22287
3.25547
3.28947
3.32339
3.36001
3.39452
3.43478
3.46874
3.51351
3.54601
3.59604
3.62513
3.68472
2.7231
2.75539
2.78338
2.81211
2.8402
2.86797
2.89543
2.92271
2.94876
2.97535
3.00266
3.03048
3.05884
3.08784
3.11751
3.14781
3.17883
3.21079
3.24335
3.27735
3.31126
3.34786
3.38233
3.42256
3.4565
3.50129
3.5338
3.58391
3.61303
3.67272
2.70804
2.74142
2.76976
2.79892
2.82728
2.85526
2.88289
2.91034
2.93636
2.96305
2.99048
3.01828
3.04662
3.07565
3.10534
3.13563
3.16661
3.19859
3.23113
3.26513
3.29904
3.33563
3.37009
3.41032
3.44426
3.48909
3.52163
3.57181
3.60099
3.66079
2.69273
2.72721
2.7559
2.78554
2.8142
2.84237
2.87014
2.89768
2.92383
2.95063
2.97811
3.00593
3.03428
3.06332
3.093
3.12329
3.15429
3.18626
3.2188
3.2528
3.28672
3.32332
3.35781
3.39806
3.43203
3.47691
3.50949
3.55975
3.58899
3.64892
2.67716
2.71276
2.74183
2.77197
2.80095
2.8293
2.8572
2.88469
2.91115
2.93808
2.96558
2.99343
3.02182
3.05087
3.08052
3.11082
3.14185
3.17381
3.20638
3.24038
3.27432
3.31093
3.34548
3.38578
3.41981
3.46475
3.49738
3.54774
3.57706
3.63713
2.66135
2.6981
2.72758
2.75823
2.78753
2.81608
2.8441
2.87158
2.89832
2.92539
2.95292
2.9808
3.00922
3.03828
3.06792
3.09822
3.12928
3.16125
3.19386
3.22787
3.26185
3.2985
3.33311
3.37347
3.40757
3.45259
3.4853
3.53577
3.56518
3.6254
2.64531
2.68324
2.71317
2.74433
2.77396
2.80271
2.83088
2.85836
2.88537
2.91257
2.94014
2.96805
2.99649
3.02558
3.0552
3.08552
3.11661
3.14859
3.18125
3.21527
3.24931
3.286
3.32069
3.36114
3.39531
3.44045
3.47324
3.52386
3.55337
3.61374
2.62905
2.66819
2.69862
2.73028
2.76025
2.78921
2.81753
2.84504
2.87229
2.89962
2.92724
2.95519
2.98365
3.01275
3.04237
3.07271
3.10383
3.13584
3.16854
3.2026
3.2367
3.27346
3.30822
3.34877
3.38304
3.42832
3.46121
3.512
3.54162
3.60216
2.61261
2.65297
2.68393
2.7161
2.74642
2.7756
2.80407
2.83166
2.85912
2.88654
2.91423
2.94223
2.9707
2.99981
3.02944
3.05981
3.09095
3.12299
3.15576
3.18985
3.22403
3.26087
3.29571
3.33638
3.37076
3.4162
3.4492
3.50019
3.52993
3.59064
2.59601
2.6376
2.66913
2.70181
2.73247
2.76188
2.79052
2.81822
2.84585
2.87336
2.90112
2.92916
2.95765
2.98677
3.01641
3.04681
3.07798
3.11006
3.14288
3.17704
3.21128
3.24822
3.28316
3.32397
3.35847
3.40408
3.43722
3.48843
3.51831
3.5792
2.57926
2.62209
2.65424
2.68742
2.71842
2.74807
2.77688
2.80475
2.83251
2.86009
2.88791
2.916
2.94451
2.97363
3.00329
3.03372
3.06491
3.09705
3.12993
3.16415
3.19847
3.23552
3.27056
3.31152
3.34616
3.39197
3.42527
3.47671
3.50675
3.56783
2.56239
2.60646
2.63926
2.67295
2.7043
2.73419
2.76317
2.79126
2.8191
2.84674
2.87462
2.90276
2.93129
2.96041
2.99009
3.02056
3.05177
3.08396
3.11691
3.1512
3.1856
3.22277
3.25792
3.29904
3.33384
3.37986
3.41335
3.46505
3.49525
3.55653
2.54542
2.59074
2.62423
2.65842
2.6901
2.72024
2.7494
2.77774
2.80563
2.83332
2.86126
2.88944
2.918
2.94712
2.97681
3.00731
3.03855
3.0708
3.10381
3.13818
3.17266
3.20997
3.24523
3.28653
3.3215
3.36776
3.40145
3.45343
3.48382
3.54531
2.52837
2.57495
2.60915
2.64385
2.67585
2.70623
2.73557
2.76417
2.7921
2.81984
2.84784
2.87605
2.90464
2.93375
2.96347
2.994
3.02527
3.05758
3.09064
3.1251
3.15967
3.19711
3.23251
3.27398
3.30914
3.35567
3.38957
3.44186
3.47245
3.53417
2.51127
2.55911
2.59405
2.62924
2.66156
2.69219
2.7217
2.75056
2.77853
2.80632
2.83436
2.86261
2.89122
2.92033
2.95006
2.98063
3.01192
3.04428
3.07741
3.11196
3.14662
3.18419
3.21974
3.26141
3.29677
3.34358
3.37772
3.43034
3.46115
3.52311
2.49415
2.54324
2.57895
2.61461
2.64724
2.67811
2.7078
2.73692
2.76493
2.79275
2.82084
2.84911
2.87774
2.90685
2.93659
2.96719
2.99852
3.03094
3.06413
3.09876
3.13352
3.17123
3.20694
3.2488
3.28438
3.33149
3.3659
3.41887
3.44993
3.51215
2.47704
2.52737
2.56386
2.59999
2.63291
2.66401
2.69387
2.72325
2.75128
2.77915
2.80729
2.83558
2.86423
2.89333
2.92308
2.95371
2.98506
3.01753
3.05078
3.08551
3.12037
3.15821
3.19409
3.23617
3.27197
3.3194
3.35409
3.40745
3.43878
3.50128
2.45997
2.51152
2.5488
2.58538
2.61859
2.64992
2.67993
2.70953
2.73762
2.76553
2.7937
2.82202
2.85067
2.87978
2.90953
2.94019
2.97157
3.00408
3.03739
3.07221
3.10717
3.14515
3.1812
3.2235
3.25953
3.30731
3.3423
3.39607
3.42772
3.49051
2.44299
2.49571
2.5338
2.57079
2.60429
2.63583
2.666
2.69578
2.72393
2.7519
2.78011
2.80844
2.83709
2.86619
2.89594
2.92662
2.95803
2.99059
3.02396
3.05885
3.09393
3.13205
3.16826
3.21079
3.24706
3.29521
3.33053
3.38475
3.41675
3.47985
2.42615
2.47997
2.51887
2.55626
2.59003
2.62178
2.65207
2.68198
2.71024
2.73827
2.76651
2.79484
2.8235
2.85259
2.88234
2.91303
2.94447
2.97706
3.01048
3.04546
3.08064
3.1189
3.15528
3.19805
3.23456
3.28309
3.31878
3.37347
3.40587
3.46932
2.40949
2.46432
2.50403
2.54178
2.57584
2.60777
2.63818
2.66816
2.69656
2.72465
2.75293
2.78125
2.80989
2.83898
2.86871
2.89942
2.93087
2.96349
2.99697
3.03202
3.0673
3.1057
3.14225
3.18527
3.22203
3.27096
3.30703
3.36224
3.3951
3.45893
2.39309
2.44879
2.48931
2.5274
2.56172
2.59383
2.62435
2.65434
2.6829
2.71105
2.73935
2.76767
2.79629
2.82535
2.85508
2.88578
2.91725
2.9499
2.98342
3.01855
3.05393
3.09246
3.12918
3.17245
3.20947
3.2588
3.29529
3.35105
3.38444
3.44869
2.37702
2.43341
2.47471
2.51313
2.5477
2.57998
2.61058
2.64053
2.66928
2.6975
2.72581
2.7541
2.78269
2.81174
2.84145
2.87214
2.90362
2.93628
2.96985
3.00504
3.04051
3.07918
3.11606
3.15958
3.19686
3.2466
3.28355
3.3399
3.3739
3.43863
2.36135
2.41821
2.46024
2.49898
2.5338
2.56624
2.59691
2.62674
2.65571
2.684
2.71231
2.74057
2.76912
2.79813
2.82782
2.85849
2.88997
2.92265
2.95624
2.9915
3.02705
3.06586
3.10289
3.14666
3.18421
3.23436
3.2718
3.32878
3.3635
3.42878
2.34619
2.40321
2.44594
2.48499
2.52005
2.55263
2.58337
2.61297
2.64219
2.67058
2.69886
2.72707
2.75558
2.78455
2.8142
2.84485
2.87632
2.909
2.94262
2.97793
3.01357
3.05249
3.08968
3.13368
3.17151
3.22207
3.26003
3.31768
3.35324
3.41916
2.33165
2.38852
2.43187
2.47122
2.5065
2.53921
2.56999
2.59932
2.62875
2.65725
2.68548
2.71363
2.74209
2.771
2.80061
2.83122
2.86268
2.89535
2.92899
2.96435
3.00005
3.03907
3.07642
3.12065
3.15875
3.20971
3.24822
3.3066
3.34313
3.40982
2.31792
2.37426
2.41814
2.45777
2.49325
2.52604
2.55686
2.58607
2.61543
2.64405
2.6722
2.70028
2.72867
2.75751
2.78708
2.81763
2.84906
2.88171
2.91535
2.95074
2.98651
3.02563
3.06312
3.10755
3.14593
3.19728
3.23638
3.29551
3.33319
3.40081
2.30504
2.36007
2.40433
2.44427
2.47996
2.51286
2.54376
2.57308
2.60216
2.63082
2.65886
2.68686
2.71517
2.74392
2.77344
2.80394
2.83533
2.86796
2.9016
2.93702
2.97284
3.01205
3.04968
3.09432
3.13298
3.18471
3.22442
3.28435
3.32339
3.39219
2.29243
2.34499
2.38953
2.4299
2.46593
2.49901
2.53006
2.55952
2.58857
2.61724
2.64516
2.67308
2.70132
2.73001
2.75948
2.78993
2.8213
2.85393
2.88758
2.92304
2.95892
2.99823
3.03603
3.08086
3.11983
3.17192
3.21229
3.27304
3.31372
3.38403
2.28016
2.33041
2.37512
2.4159
2.4522
2.48538
2.51641
2.5454
2.5751
2.60391
2.63178
2.65962
2.6878
2.71644
2.74587
2.77628
2.80762
2.84024
2.87388
2.90936
2.9453
2.98465
3.0226
3.06756
3.10682
3.15917
3.20021
3.26166
3.3042
3.37645
2.24638
2.29789
2.34295
2.3843
2.4207
2.45363
2.48436
2.51336
2.54257
2.57073
2.59821
2.62549
2.65321
2.68148
2.7105
2.74057
2.7716
2.80396
2.83734
2.87265
2.9086
2.9478
2.98593
3.03092
3.07082
3.12353
3.16615
3.22913
3.27704
3.35552
2.18408
2.23585
2.28034
2.32161
2.35774
2.39029
2.42089
2.45072
2.47837
2.5059
2.5331
2.5604
2.58795
2.61615
2.64522
2.6752
2.70627
2.73866
2.77222
2.8076
2.84382
2.88331
2.9219
2.96728
3.00796
3.06153
3.10577
3.17062
3.22229
3.3034
2.12326
2.1735
2.21688
2.25755
2.29337
2.32546
2.3553
2.3833
2.41193
2.43944
2.4666
2.49379
2.52132
2.54952
2.57859
2.60858
2.63977
2.67223
2.70596
2.74151
2.77803
2.81782
2.85688
2.90266
2.94406
2.9983
3.04365
3.10945
3.16249
3.24407
2.06172
2.10995
2.15204
2.19228
2.22794
2.25971
2.28928
2.31735
2.34488
2.37199
2.39891
2.42597
2.45346
2.48164
2.51066
2.54072
2.57197
2.60454
2.63842
2.67419
2.71099
2.75104
2.79054
2.8367
2.87871
2.93336
2.97941
3.0455
3.09888
3.18026
1.99935
2.04562
2.08641
2.12598
2.16124
2.19258
2.22171
2.24951
2.27656
2.3033
2.32998
2.35691
2.38434
2.41248
2.44152
2.47165
2.50297
2.53567
2.56973
2.6057
2.64276
2.68307
2.72294
2.76939
2.81182
2.86669
2.91308
2.97909
3.03226
3.11312
1.9357
1.98007
2.01939
2.05819
2.09309
2.12407
2.15288
2.18028
2.20692
2.2333
2.25972
2.28647
2.31379
2.34189
2.37095
2.40113
2.43254
2.46538
2.49961
2.53578
2.57308
2.61361
2.65378
2.70046
2.74317
2.79816
2.84463
2.9104
2.9631
3.04334
1.87048
1.9131
1.95099
1.989
2.02352
2.05413
2.08254
2.10958
2.13585
2.16188
2.18802
2.21457
2.24177
2.26981
2.29886
2.32908
2.36058
2.39354
2.42792
2.46426
2.50177
2.5425
2.58291
2.62976
2.67265
2.7277
2.77412
2.8396
2.89169
2.97134
1.80359
1.84459
1.88108
1.91825
1.95238
1.98264
2.01068
2.03736
2.06327
2.08895
2.1148
2.14112
2.16816
2.19611
2.22514
2.25538
2.28694
2.32001
2.35452
2.39101
2.4287
2.46959
2.5102
2.55718
2.60018
2.65528
2.70155
2.76677
2.8182
2.89734
1.73493
1.77443
1.80956
1.84588
1.87962
1.90954
1.93723
1.96356
1.9891
2.01444
2.03997
2.06604
2.09288
2.12071
2.14967
2.17991
2.21151
2.24465
2.27928
2.31589
2.35373
2.39476
2.43552
2.48261
2.52569
2.58082
2.62691
2.69194
2.74272
2.82144
1.6645
1.70257
1.73638
1.77183
1.80516
1.83476
1.86211
1.8881
1.91329
1.93825
1.96345
1.98922
2.01583
2.04349
2.07235
2.10254
2.13415
2.16734
2.20205
2.23875
2.27672
2.31786
2.35876
2.40595
2.44909
2.50427
2.55018
2.61507
2.66525
2.74367
1.59225
1.62896
1.66149
1.69604
1.72894
1.75822
1.78525
1.81091
1.83574
1.86033
1.88516
1.9106
1.93692
1.96436
1.99307
2.02317
2.05475
2.08795
2.1227
2.15948
2.19755
2.23877
2.2798
2.32706
2.37027
2.42552
2.47127
2.53611
2.58576
2.66398
1.51823
1.5536
1.58486
1.61846
1.6509
1.67987
1.70658
1.73191
1.75638
1.78058
1.80501
1.83007
1.85606
1.88322
1.91172
1.94168
1.97317
2.00634
2.04111
2.07792
2.11606
2.15735
2.19849
2.24583
2.28913
2.34445
2.3901
2.45494
2.50416
2.58226
1.44246
1.47649
1.50648
1.53909
1.57101
1.59964
1.62604
1.65105
1.67515
1.69894
1.72294
1.74757
1.77316
1.79998
1.82819
1.85795
1.8893
1.92239
1.95713
1.99394
2.03213
2.07347
2.1147
2.16211
2.20551
2.26093
2.30654
2.37143
2.4203
2.49836
1.36495
1.39763
1.42634
1.4579
1.48924
1.5175
1.54356
1.56824
1.59197
1.61534
1.63887
1.66302
1.68814
1.71453
1.74239
1.77186
1.80301
1.83596
1.87062
1.9074
1.94559
1.98695
2.02827
2.07574
2.11926
2.17477
2.2204
2.28538
2.33403
2.41207
1.28577
1.31706
1.34446
1.37489
1.40556
1.4334
1.45909
1.48343
1.50678
1.52969
1.55272
1.57633
1.60092
1.6268
1.65421
1.68331
1.71417
1.74691
1.78143
1.81812
1.85629
1.89763
1.93902
1.98652
2.03017
2.08578
2.1315
2.19657
2.24512
2.32316
1.20495
1.23483
1.26088
1.29009
1.31998
1.34732
1.37259
1.39655
1.4195
1.44194
1.46442
1.48744
1.51141
1.5367
1.56355
1.59217
1.62265
1.65509
1.6894
1.72594
1.76402
1.80531
1.84673
1.89424
1.93803
1.99371
2.03959
2.10474
2.15333
2.23134
1.12256
1.15096
1.17563
1.20352
1.23251
1.25925
1.28404
1.30756
1.33008
1.352
1.3739
1.39626
1.41955
1.44413
1.47032
1.49835
1.52832
1.56036
1.59436
1.63068
1.66861
1.70978
1.75118
1.79865
1.84257
1.89829
1.94439
2.00959
2.05835
2.13629
1.03866
1.06553
1.08877
1.11523
1.14317
1.16919
1.1934
1.21643
1.23844
1.25982
1.28108
1.30273
1.32524
1.34903
1.37444
1.40173
1.43106
1.46256
1.49614
1.53212
1.56981
1.61078
1.65209
1.69947
1.74349
1.7992
1.84555
1.91079
1.95984
2.03764
0.95331
0.978606
1.00037
1.0253
1.05203
1.07718
1.10068
1.1231
1.14455
1.16532
1.18589
1.20677
1.22842
1.2513
1.27579
1.30221
1.33073
1.36154
1.39454
1.43005
1.46738
1.50806
1.54919
1.59637
1.64043
1.69605
1.7427
1.8079
1.85737
1.93494
0.866608
0.890258
0.910497
0.9338
0.959165
0.983265
1.00589
1.02757
1.04835
1.06844
1.08826
1.10829
1.12901
1.15088
1.17432
1.1997
1.22723
1.25714
1.28938
1.32425
1.36106
1.40129
1.44211
1.48897
1.53298
1.58841
1.63533
1.70043
1.75043
1.82768
0.778628
0.800567
0.819255
0.840844
0.864669
0.88753
0.909094
0.92986
0.949831
0.969124
0.988108
1.00722
1.02692
1.04768
1.06994
1.0941
1.12044
1.14924
1.18047
1.21448
1.25057
1.29016
1.33049
1.37685
1.42066
1.47574
1.52289
1.58776
1.63838
1.71515
0.689442
0.709613
0.726746
0.746559
0.768678
0.790088
0.81037
0.830006
0.848982
0.867342
0.885382
0.903491
0.922092
0.941635
0.962572
0.985338
1.01027
1.0377
1.06766
1.10052
1.13561
1.1743
1.21389
1.25952
1.30292
1.3574
1.40467
1.46915
1.52047
1.59661
0.599131
0.617486
0.633096
0.651108
0.671368
0.691094
0.709836
0.728087
0.74584
0.763082
0.780038
0.797037
0.81444
0.832663
0.852148
0.873351
0.896653
0.922439
0.950797
0.982159
1.01589
1.05334
1.09187
1.13641
1.17909
1.23264
1.27977
1.34353
1.3955
1.47066
0.507775
0.52429
0.538484
0.554725
0.572981
0.590768
0.607673
0.624231
0.640481
0.656377
0.672073
0.687823
0.703912
0.720705
0.738614
0.758091
0.779533
0.80337
0.829768
0.859223
0.891159
0.92691
0.963939
1.00695
1.0485
1.10065
1.14736
1.21005
1.26269
1.33652
0.415583
0.430266
0.443242
0.457802
0.47392
0.489469
0.504194
0.518678
0.533085
0.547356
0.561574
0.575896
0.590524
0.605752
0.621949
0.639541
0.658895
0.680484
0.704537
0.731609
0.761213
0.794689
0.829606
0.870454
0.910206
0.960185
1.00561
1.06616
1.11869
1.19046
0.323477
0.33617
0.348055
0.361057
0.375022
0.387929
0.400009
0.411997
0.424164
0.436454
0.448901
0.461535
0.474479
0.487958
0.502279
0.517797
0.534825
0.553871
0.575177
0.599345
0.626
0.656506
0.688617
0.726565
0.763948
0.811096
0.854981
0.912895
0.96478
1.03276
0.234075
0.244109
0.254484
0.265726
0.277856
0.287724
0.296569
0.305635
0.315071
0.324928
0.33519
0.345738
0.356606
0.367984
0.380175
0.393356
0.407754
0.423923
0.442026
0.462707
0.48565
0.512254
0.540373
0.574088
0.607389
0.649796
0.689545
0.741875
0.791344
0.855107
0.152527
0.158647
0.166186
0.174453
0.182286
0.191668
0.196882
0.202691
0.209052
0.216028
0.223503
0.231312
0.239464
0.248141
0.257596
0.267824
0.279087
0.291848
0.306207
0.322793
0.341402
0.36333
0.386854
0.41548
0.444344
0.481289
0.516661
0.561937
0.60268
0.65426
0.0836258
0.0859335
0.089826
0.0944638
0.0985136
0.101164
0.105548
0.108746
0.112171
0.116003
0.120148
0.124574
0.12932
0.134513
0.140187
0.146422
0.153494
0.161512
0.170614
0.181399
0.193626
0.208638
0.224756
0.245562
0.266711
0.295235
0.32436
0.361056
0.396663
0.429973
0.0264535
0.0261163
0.0268681
0.0279349
0.028896
0.0292648
0.0290262
0.0289698
0.0299138
0.0310304
0.0321161
0.0332534
0.034511
0.0359368
0.0375293
0.0393536
0.0415106
0.0439739
0.046811
0.0503259
0.054379
0.0597209
0.0653038
0.0734968
0.0812331
0.0938154
0.106347
0.124848
0.144788
0.159415
2.2028
2.13919
2.08073
2.01995
1.95883
1.89606
1.83167
1.76556
1.69765
1.62801
1.55658
1.48344
1.40862
1.33214
1.2541
1.17453
1.09347
1.01103
0.927246
0.842206
0.756011
0.668747
0.580575
0.491699
0.402497
0.314053
0.228579
0.15043
0.0828747
0.0278778
2.18671
2.12324
2.06567
2.00529
1.94466
1.88229
1.81827
1.75254
1.68499
1.61571
1.54465
1.4719
1.39749
1.32144
1.24385
1.16475
1.08419
1.00226
0.919021
0.834548
0.748946
0.662304
0.574791
0.486619
0.39818
0.310572
0.226058
0.148919
0.0821054
0.028092
2.17076
2.10792
2.05119
1.99126
1.93112
1.86918
1.80557
1.74022
1.67304
1.60416
1.53348
1.46113
1.38713
1.31151
1.23437
1.15574
1.07566
0.994241
0.911523
0.82759
0.742545
0.656486
0.569582
0.482063
0.39433
0.307446
0.223743
0.147387
0.081195
0.0281172
2.1548
2.09284
2.03692
1.97745
1.9178
1.85629
1.79306
1.72811
1.6613
1.59281
1.52251
1.45056
1.37697
1.30178
1.22508
1.14692
1.06732
0.986392
0.904186
0.820782
0.736287
0.650801
0.564484
0.477597
0.390534
0.304319
0.221416
0.145879
0.080363
0.0281115
2.13905
2.07815
2.02298
1.96401
1.90481
1.84371
1.78087
1.71631
1.64986
1.58174
1.51182
1.44027
1.36708
1.29231
1.21604
1.13833
1.0592
0.978756
0.897049
0.81416
0.730198
0.645266
0.55952
0.473232
0.386786
0.301264
0.219114
0.144387
0.0795867
0.0280944
2.12356
2.06382
2.00937
1.95091
1.89213
1.83145
1.76898
1.7048
1.6387
1.57096
1.5014
1.43023
1.35743
1.28308
1.20723
1.12996
1.05128
0.971305
0.890085
0.807698
0.724251
0.639854
0.554669
0.468948
0.383081
0.298246
0.216834
0.142911
0.0788407
0.028051
2.10838
2.04985
1.99609
1.93815
1.87979
1.81951
1.7574
1.69359
1.62783
1.56045
1.49125
1.42046
1.34804
1.27409
1.19865
1.12181
1.04357
0.964049
0.883303
0.801405
0.718457
0.634576
0.549938
0.464768
0.37943
0.295277
0.214587
0.141454
0.0781197
0.027979
2.09353
2.03625
1.98314
1.92575
1.86779
1.8079
1.74613
1.68269
1.61726
1.55024
1.48139
1.41096
1.33891
1.26535
1.19031
1.11388
1.03607
0.956991
0.876707
0.79528
0.712817
0.629433
0.545324
0.460707
0.375828
0.292358
0.212375
0.140017
0.0774203
0.0278817
2.07906
2.02303
1.97053
1.9137
1.85612
1.79662
1.73519
1.6721
1.607
1.54033
1.47182
1.40174
1.33004
1.25686
1.18221
1.10618
1.02879
0.950136
0.870297
0.789323
0.70733
0.624427
0.540814
0.456668
0.372366
0.289488
0.210195
0.138596
0.0767384
0.0277621
2.06498
2.01018
1.95827
1.902
1.8448
1.78567
1.72458
1.66183
1.59706
1.53072
1.46253
1.39281
1.32145
1.24864
1.17435
1.09871
1.02172
0.943485
0.864072
0.783535
0.701996
0.619561
0.536396
0.452709
0.36897
0.286661
0.208044
0.137192
0.0760708
0.0276227
2.05132
1.99773
1.94637
1.89066
1.83384
1.77507
1.71429
1.65189
1.58743
1.52141
1.45355
1.38416
1.31313
1.24069
1.16674
1.09148
1.01488
0.937039
0.858036
0.777919
0.696813
0.614831
0.532059
0.448839
0.365632
0.283877
0.205922
0.135804
0.0754155
0.0274663
2.0381
1.98567
1.93483
1.87967
1.82322
1.76481
1.70434
1.64227
1.57811
1.5124
1.44487
1.37581
1.30509
1.23301
1.15938
1.0845
1.00827
0.930802
0.852195
0.772478
0.691783
0.610239
0.52781
0.445062
0.362355
0.281138
0.203832
0.134435
0.0747724
0.027296
2.02533
1.97401
1.92366
1.86905
1.81297
1.7549
1.69473
1.63298
1.56912
1.50371
1.43649
1.36775
1.29733
1.2256
1.15228
1.07776
1.00188
0.924784
0.846551
0.767215
0.686908
0.605732
0.523728
0.441384
0.359147
0.278451
0.201777
0.133087
0.0741418
0.0271147
2.01304
1.96276
1.91288
1.85879
1.80307
1.74533
1.68546
1.62403
1.56045
1.49533
1.42842
1.35998
1.28987
1.21846
1.14545
1.07129
0.995717
0.918992
0.841104
0.76213
0.682182
0.601378
0.519775
0.437811
0.356015
0.275819
0.19976
0.131761
0.0735243
0.0269249
2.00123
1.95193
1.9025
1.84892
1.79355
1.73613
1.67654
1.61541
1.55211
1.48726
1.42067
1.3525
1.28269
1.2116
1.13888
1.06507
0.989791
0.913422
0.835851
0.757209
0.677631
0.597181
0.515953
0.434347
0.352962
0.273243
0.197781
0.13046
0.0729203
0.0267288
1.98992
1.94154
1.89252
1.83943
1.7844
1.72728
1.66797
1.60713
1.54409
1.4795
1.41324
1.34532
1.2758
1.20503
1.13259
1.05909
0.984085
0.90808
0.830753
0.752497
0.673256
0.593137
0.512258
0.430989
0.349986
0.270723
0.195839
0.129184
0.0723302
0.0265282
1.97911
1.93158
1.88294
1.83032
1.77563
1.71879
1.65975
1.59922
1.53641
1.47207
1.40612
1.33845
1.26922
1.19873
1.12655
1.05338
0.978574
0.902898
0.825914
0.747972
0.669048
0.589241
0.508686
0.427733
0.347085
0.268257
0.193935
0.127933
0.0717546
0.0263249
1.96883
1.92207
1.87379
1.82161
1.76726
1.71068
1.65187
1.59165
1.52907
1.46498
1.39929
1.33188
1.26292
1.19275
1.12072
1.04783
0.973376
0.897949
0.821277
0.743628
0.665002
0.585488
0.505234
0.424577
0.344258
0.265845
0.192069
0.12671
0.0711945
0.0261205
1.95909
1.91302
1.86506
1.8133
1.75927
1.70294
1.64436
1.58442
1.52205
1.45822
1.39276
1.32561
1.25689
1.18693
1.11525
1.04255
0.968411
0.893222
0.816839
0.739462
0.661117
0.581876
0.501901
0.421522
0.341509
0.26349
0.190245
0.125515
0.0706514
0.0259167
1.9499
1.90441
1.85679
1.80538
1.75166
1.69557
1.63721
1.57755
1.51536
1.45178
1.38652
1.31964
1.25118
1.18141
1.11004
1.03754
0.963677
0.888719
0.8126
0.735477
0.657394
0.57841
0.498691
0.418571
0.338843
0.261198
0.188466
0.124353
0.070127
0.0257149
1.94131
1.89624
1.84897
1.79787
1.74446
1.68851
1.63042
1.57096
1.50903
1.4457
1.38062
1.314
1.24577
1.1762
1.1051
1.03279
0.959178
0.884439
0.808565
0.731678
0.653838
0.575093
0.49561
0.415732
0.336269
0.258974
0.186737
0.123226
0.069623
0.0255167
1.93332
1.8885
1.84158
1.79075
1.73752
1.68194
1.62402
1.56474
1.50305
1.43996
1.37506
1.30866
1.24066
1.17128
1.10041
1.02831
0.954915
0.880386
0.804737
0.728071
0.650455
0.571932
0.492665
0.413011
0.333793
0.256825
0.185062
0.122137
0.0691409
0.0253232
1.92576
1.88132
1.83463
1.78407
1.73101
1.67574
1.618
1.5589
1.49743
1.43455
1.36983
1.30364
1.23584
1.16665
1.096
1.02408
0.950893
0.876559
0.801119
0.724658
0.647246
0.568929
0.489861
0.410412
0.331422
0.254756
0.183445
0.121087
0.068682
0.0251354
1.91872
1.87466
1.82813
1.7778
1.72492
1.66992
1.61236
1.55343
1.49215
1.42947
1.36493
1.29894
1.23132
1.1623
1.09185
1.02011
0.947109
0.872958
0.797711
0.721438
0.644212
0.566084
0.487198
0.40794
0.32916
0.252773
0.18189
0.120079
0.0682476
0.0249543
1.91222
1.86849
1.82208
1.77197
1.71926
1.66447
1.60708
1.54832
1.48722
1.42473
1.36036
1.29454
1.2271
1.15825
1.08797
1.01639
0.943563
0.869581
0.794509
0.718408
0.641349
0.563393
0.484676
0.405594
0.32701
0.25088
0.180401
0.119117
0.067839
0.0247809
1.90627
1.8628
1.8165
1.76656
1.71402
1.65942
1.60219
1.54358
1.48264
1.42032
1.35611
1.29045
1.22317
1.15447
1.08435
1.01292
0.940251
0.866423
0.791508
0.715561
0.638651
0.560853
0.482293
0.403376
0.324977
0.249084
0.178985
0.118203
0.0674577
0.0246162
1.90088
1.8576
1.81139
1.76158
1.70919
1.65476
1.59767
1.53921
1.47842
1.41624
1.35218
1.28667
1.21954
1.15098
1.081
1.0097
0.937171
0.86348
0.788703
0.712894
0.636117
0.558462
0.480049
0.401288
0.323067
0.247394
0.177648
0.117342
0.0671056
0.0244613
1.89605
1.85288
1.80675
1.75704
1.70479
1.65048
1.59354
1.5352
1.47455
1.4125
1.34858
1.2832
1.2162
1.14776
1.07791
1.00673
0.934321
0.860751
0.786093
0.710404
0.633746
0.556218
0.477945
0.399334
0.321286
0.245819
0.1764
0.116539
0.0667848
0.0243176
1.89176
1.84865
1.80257
1.75293
1.7008
1.6466
1.58979
1.53155
1.47103
1.4091
1.3453
1.28003
1.21315
1.14482
1.07507
1.00401
0.931703
0.858237
0.783679
0.708094
0.63154
0.554126
0.475983
0.397518
0.31964
0.24437
0.175251
0.115802
0.0664974
0.0241864
1.88801
1.84491
1.79885
1.74926
1.69723
1.64312
1.58642
1.52828
1.46786
1.40604
1.34235
1.27718
1.2104
1.14216
1.07251
1.00153
0.929317
0.855938
0.781464
0.705967
0.629502
0.552188
0.474166
0.395842
0.318136
0.243055
0.174208
0.115134
0.0662453
0.0240688
1.8848
1.84165
1.7956
1.74602
1.69407
1.64002
1.58342
1.52536
1.46505
1.40332
1.33972
1.27463
1.20794
1.13978
1.07021
0.999312
0.927168
0.85386
0.779453
0.704027
0.627637