/*--------------------------------*- C++ -*----------------------------------*\
  =========                 |
  \\      /  F ield         | OpenFOAM: The Open Source CFD Toolbox
   \\    /   O peration     | Website:  https://openfoam.org
    \\  /    A nd           | Version:  7
     \\/     M anipulation  |
\*---------------------------------------------------------------------------*/
FoamFile
{
    version     2.0;
    format      ascii;
    class       surfaceScalarField;
    location    "1.2";
    object      phi;
}
// * * * * * * * * * * * * * * * * * * * * * * * * * * * * * * * * * * * * * //

dimensions      [0 3 -1 0 0 0 0];

internalField   nonuniform List<scalar> 
35640
(
-2.55142e-05
0.00320131
-0.0031758
-6.28568e-05
0.00659727
-0.00655993
-7.93206e-05
0.00783637
-0.00781991
-4.24836e-05
0.0075486
-0.00758544
7.32842e-05
0.00629452
-0.00641028
0.000283437
0.00450749
-0.00471765
0.00059274
0.00250303
-0.00281234
0.000996419
0.000502005
-0.000905686
0.00148247
-0.00134839
0.000862339
0.00203441
-0.00295932
0.00240738
0.00263416
-0.00428767
0.00368792
0.00326429
-0.0053252
0.00469506
0.00390967
-0.00608789
0.00544252
0.00455817
-0.00660665
0.00595815
0.00520088
-0.00691957
0.00627686
0.00583183
-0.00706622
0.00643527
0.00644749
-0.00708388
0.00646821
0.00704627
-0.00700535
0.00640657
0.00762785
-0.0068581
0.00627652
0.00819281
-0.00666422
0.00609927
0.00874222
-0.00644084
0.00589143
0.00927744
-0.00620086
0.00566565
0.00979986
-0.00595371
0.00543129
0.0103108
-0.005706
0.00519502
0.0108116
-0.00546226
0.00496148
0.0113033
-0.00522544
0.00473378
0.0117868
-0.00499727
0.00451377
0.0122629
-0.00477854
0.00430239
0.0127322
-0.00456841
0.0040991
-0.00436051
0.0131945
0.00389821
-1.23788e-05
0.00321369
-2.38936e-05
0.00660878
-7.47535e-06
0.00781995
6.53768e-05
0.00747575
0.000217674
0.00614222
0.000463073
0.00426209
0.000804896
0.00216121
0.00123715
6.97471e-05
0.00174683
-0.00185807
0.0023168
-0.00352929
0.00292867
-0.00489954
0.00356516
-0.00596168
0.0042116
-0.00673433
0.00485664
-0.00725169
0.00549229
-0.00755523
0.00611356
-0.00768748
0.00671778
-0.00768811
0.00730411
-0.00759167
0.00787285
-0.00742684
0.00842509
-0.00721646
0.00896228
-0.00697803
0.009486
-0.00672458
0.0099978
-0.00646551
0.0104991
-0.00620734
0.0109913
-0.0059544
0.0114753
-0.0057095
0.0119522
-0.00547415
0.0124226
-0.00524897
0.0128872
-0.00503292
-0.00481896
0.0133456
-3.14929e-09
0.00321369
1.3998e-05
0.00659478
6.35259e-05
0.00777042
0.000173046
0.00736623
0.000362843
0.00595242
0.000644536
0.0039804
0.00101983
0.00178592
0.00148131
-0.000391736
0.00201479
-0.00239155
0.00260231
-0.00411681
0.00322526
-0.00552248
0.00386662
-0.00660305
0.00451244
-0.00738014
0.00515231
-0.00789156
0.00577927
-0.0081822
0.00638935
-0.00829756
0.00698082
-0.00827958
0.00755362
-0.00816448
0.00810872
-0.00798194
0.00864764
-0.00775538
0.00917215
-0.00750254
0.00968406
-0.00723649
0.0101851
-0.00696651
0.0106766
-0.00669892
0.0111601
-0.00643787
0.0116365
-0.00618591
0.0121068
-0.0059444
0.0125716
-0.00571378
0.0130314
-0.00549275
-0.00527369
0.0134861
1.1605e-05
0.00320209
5.06421e-05
0.00655574
0.000133268
0.0076878
0.000279985
0.00721951
0.000508153
0.00572426
0.00082712
0.00366143
0.00123665
0.00137639
0.00172764
-0.000882724
0.00228455
-0.00294846
0.00288871
-0.00472097
0.00352137
-0.00615514
0.00416598
-0.00724765
0.00480941
-0.00802357
0.00544235
-0.00852451
0.00605902
-0.00879887
0.00665654
-0.00889507
0.00723416
-0.0088572
0.00779259
-0.00872291
0.00833341
-0.00852276
0.00885856
-0.00828053
0.00937012
-0.00801411
0.00987007
-0.00773644
0.0103602
-0.00745661
0.010842
-0.00718072
0.0113168
-0.00691265
0.0117856
-0.00665471
0.0122492
-0.00640807
0.0127084
-0.00617297
0.0131635
-0.00594788
-0.00572472
0.0136146
2.23404e-05
0.00317974
8.57528e-05
0.00649233
0.000201265
0.00757228
0.00038546
0.00703532
0.000652609
0.00545711
0.00100953
0.00330451
0.00145371
0.000932204
0.00197413
-0.00140314
0.00255386
-0.0035282
0.00317352
-0.00534063
0.00381436
-0.00679598
0.00446046
-0.00789375
0.00509973
-0.00866284
0.00572409
-0.00914887
0.00632902
-0.0094038
0.00691279
-0.00947884
0.00747564
-0.00942005
0.00801904
-0.00926632
0.00854514
-0.00904885
0.00905628
-0.00879167
0.00955478
-0.00851261
0.0100427
-0.00822441
0.010522
-0.00793587
0.0109941
-0.00765281
0.0114603
-0.00737882
0.0119215
-0.00711596
0.0123786
-0.00686518
0.0128322
-0.00662654
0.0132826
-0.0063983
-0.00617195
0.0137299
3.2239e-05
0.0031475
0.00011914
0.00640543
0.000267143
0.00742428
0.000488934
0.00681352
0.000795475
0.00515057
0.00119072
0.00290927
0.00166962
0.000453302
0.00221904
-0.00195256
0.00282062
-0.00412978
0.00345437
-0.00597437
0.00410171
-0.00744333
0.00474752
-0.00853955
0.0053809
-0.00929622
0.00599514
-0.00976311
0.00658704
-0.00999571
0.00715607
-0.0100479
0.00770343
-0.00996741
0.00823135
-0.00979423
0.00874248
-0.00955998
0.00923952
-0.00928872
0.00972498
-0.00899808
0.0102011
-0.0087005
0.0106696
-0.00840442
0.0111321
-0.00811532
0.0115898
-0.00783651
0.0120436
-0.00756975
0.0124942
-0.00731579
0.0129422
-0.00707453
0.0133879
-0.00684399
-0.00661536
0.0138313
4.12897e-05
0.00310621
0.00015073
0.00629598
0.000330672
0.00724434
0.000589911
0.00655428
0.000935932
0.00480454
0.00136954
0.00247566
0.00188287
-6.00284e-05
0.00246054
-0.00253023
0.00308276
-0.004752
0.00372902
-0.00662064
0.0043811
-0.00809541
0.00502484
-0.00918329
0.00565068
-0.00992207
0.00625339
-0.0103658
0.00683115
-0.0105735
0.00738463
-0.0106013
0.007916
-0.0104988
0.00842817
-0.0103064
0.00892426
-0.0100561
0.00940727
-0.00977173
0.00987986
-0.00947066
0.0103443
-0.00916489
0.0108023
-0.00886246
0.0112554
-0.00856845
0.0117048
-0.00828585
0.0121512
-0.00801619
0.0125954
-0.00775996
0.0130378
-0.00751691
0.0134787
-0.00728491
-0.00705487
0.0139182
4.95282e-05
0.00305669
0.000180497
0.00616501
0.000391649
0.00703319
0.000687968
0.00625796
0.00107328
0.00441924
0.00154495
0.00200398
0.0020921
-0.000607173
0.00269697
-0.0031351
0.00333838
-0.00539341
0.00399544
-0.0072777
0.00465044
-0.0087504
0.00529034
-0.00982319
0.00590709
-0.0105388
0.00649699
-0.0109557
0.0070597
-0.0111362
0.00759704
-0.0111387
0.00811209
-0.0110138
0.00860843
-0.0108027
0.00908959
-0.0105372
0.00955878
-0.0102409
0.0100187
-0.00993063
0.0104717
-0.00961788
0.0109195
-0.00931025
0.0113635
-0.00901241
0.0118047
-0.00872703
0.0122438
-0.00845536
0.0126816
-0.00819772
0.0131183
-0.00795367
0.0135544
-0.00772095
-0.00749033
0.0139898
5.69962e-05
0.00299969
0.000208451
0.00601356
0.000449963
0.00679168
0.000782782
0.00592514
0.00120691
0.0039951
0.00171607
0.00149483
0.00229612
-0.00118722
0.00292689
-0.00376588
0.00358584
-0.00605236
0.00425184
-0.00794369
0.00490785
-0.00940641
0.00554218
-0.0104575
0.00614838
-0.011145
0.0067244
-0.0115317
0.0072713
-0.0116831
0.00779209
-0.0116595
0.00829072
-0.0115125
0.00877133
-0.0112833
0.00923779
-0.0110037
0.00969348
-0.0106966
0.0101412
-0.0103783
0.0105831
-0.0100598
0.011021
-0.0097481
0.011456
-0.00944745
0.0118892
-0.0091602
0.0123212
-0.00888736
0.0127525
-0.00862906
0.0131836
-0.00838471
0.0136146
-0.00815196
-0.00792154
0.0140458
6.37498e-05
0.00293594
0.000234649
0.00584266
0.000505582
0.00652074
0.000874149
0.00555658
0.0013364
0.00353285
0.00188216
0.000949067
0.00249392
-0.00179898
0.00314902
-0.00442098
0.00382365
-0.00672699
0.00449658
-0.00861662
0.00515169
-0.0100615
0.00577876
-0.0110846
0.00637308
-0.0117393
0.00693426
-0.0120929
0.00746481
-0.0122136
0.00796885
-0.0121635
0.00845112
-0.0119947
0.00891624
-0.0117485
0.00936838
-0.0114558
0.009811
-0.0111392
0.0102469
-0.0108142
0.0106782
-0.0104911
0.0111064
-0.0101764
0.0115328
-0.00987384
0.0119581
-0.00958554
0.012383
-0.00931226
0.0128079
-0.00905395
0.0132331
-0.00880992
0.0136589
-0.00857772
-0.00834824
0.0140856
6.98601e-05
0.00286608
0.000259192
0.00565333
0.000558551
0.00622138
0.000961972
0.00515315
0.00146143
0.0030334
0.00204267
0.000367823
0.00268466
-0.00244097
0.00336226
-0.00509858
0.00405049
-0.00741522
0.00472826
-0.00929438
0.00538051
-0.0107138
0.0059987
-0.0117028
0.00657994
-0.0123206
0.00712551
-0.0126385
0.00763935
-0.0127275
0.0081266
-0.0126508
0.00859273
-0.0124608
0.00904277
-0.0121985
0.00948107
-0.0118941
0.00991114
-0.0115693
0.0103357
-0.0112388
0.0107568
-0.0109122
0.0111758
-0.0105954
0.0115938
-0.0102918
0.0120115
-0.0100032
0.0124293
-0.00973012
0.0128477
-0.00947235
0.013267
-0.00922913
0.0136872
-0.008998
-0.0087701
0.0141091
7.54077e-05
0.00279067
0.000282217
0.00544652
0.000608993
0.00589461
0.00104627
0.00471588
0.00158182
0.00249784
0.00219717
-0.000247524
0.00286764
-0.00311143
0.00356565
-0.00579659
0.00426522
-0.0081148
0.00494561
-0.00997477
0.00559306
-0.0113612
0.00620084
-0.0123105
0.00676792
-0.0128877
0.00729729
-0.0131679
0.00779422
-0.0132244
0.00826484
-0.0131214
0.0087152
-0.0129112
0.00915067
-0.012634
0.00957572
-0.0123192
0.00999382
-0.0119874
0.0104076
-0.0116526
0.0108189
-0.0113235
0.0112291
-0.0110056
0.011639
-0.0107017
0.0120492
-0.0104134
0.0124601
-0.010141
0.012872
-0.0098842
0.013285
-0.00964218
0.0136995
-0.0094125
-0.00918682
0.0141162
8.04817e-05
0.00271019
0.0003039
0.0052231
0.00065709
0.00554142
0.00112713
0.00424584
0.00169751
0.00192746
0.00234533
-0.00089535
0.00304226
-0.00380836
0.00375835
-0.00651267
0.00446684
-0.00882329
0.00514756
-0.0106555
0.00578829
-0.012002
0.0063842
-0.0129065
0.00693621
-0.0134397
0.00744897
-0.0136806
0.00792899
-0.0137044
0.00838327
-0.0135757
0.00881836
-0.0133463
0.00923988
-0.0130555
0.00965232
-0.0127316
0.0100591
-0.0123942
0.0104627
-0.0120561
0.0108648
-0.0117256
0.0112665
-0.0114073
0.0116686
-0.0111038
0.0120715
-0.0108163
0.0124755
-0.010545
0.0128807
-0.0102895
0.0132875
-0.0100489
0.0136959
-0.00982099
-0.0095981
0.0141072
8.51753e-05
0.00262501
0.000324433
0.00498385
0.000703072
0.00516278
0.00120474
0.00374417
0.00180849
0.00132371
0.00248693
-0.00157379
0.00320802
-0.00452946
0.00393964
-0.00724429
0.00465447
-0.00953812
0.0053332
-0.0113342
0.00596532
-0.0126341
0.00654805
-0.0134892
0.00708424
-0.0139759
0.00758012
-0.0141765
0.00804337
-0.0141677
0.00848175
-0.0140141
0.00890219
-0.0137667
0.00931046
-0.0134638
0.00971101
-0.0131322
0.0101071
-0.0127903
0.0105011
-0.0124501
0.0108945
-0.012119
0.0112882
-0.011801
0.0116828
-0.0114985
0.0120786
-0.0112121
0.0124758
-0.0109421
0.0128744
-0.0106881
0.0132746
-0.0104491
0.0136769
-0.0102232
-0.0100037
0.0140825
8.95847e-05
0.00253543
0.000344027
0.0047294
0.000747197
0.00475961
0.00127928
0.00321209
0.0019148
0.000688189
0.00262177
-0.00228076
0.0033645
-0.00527219
0.00410888
-0.00798867
0.00482736
-0.0102566
0.00550176
-0.0120086
0.00612348
-0.0132558
0.00669183
-0.0140575
0.0072116
-0.0144956
0.00769051
-0.0146554
0.00813729
-0.0146145
0.00856032
-0.0144371
0.00896681
-0.0141732
0.00936258
-0.0138595
0.00975198
-0.0135216
0.0101381
-0.0131765
0.0105232
-0.0128351
0.0109083
-0.0125041
0.0112944
-0.0121871
0.0116819
-0.0118859
0.0120708
-0.0116011
0.0124613
-0.0113326
0.0128533
-0.0110801
0.013247
-0.0108429
0.013643
-0.0106192
-0.0104035
0.0140428
9.38049e-05
0.00244163
0.000362893
0.00446032
0.00078973
0.00433277
0.00135098
0.00265084
0.00201652
2.26548e-05
0.00274969
-0.00301392
0.00351129
-0.00603379
0.0042655
-0.00874288
0.00498487
-0.010976
0.00565263
-0.0126764
0.00626223
-0.0138654
0.00681517
-0.0146105
0.00731808
-0.0149985
0.00778008
-0.0151174
0.00821082
-0.0150452
0.00861914
-0.0148454
0.00901245
-0.0145666
0.00939651
-0.0142436
0.00977554
-0.0139006
0.0101524
-0.0135534
0.0105291
-0.0132118
0.0109066
-0.0128817
0.0112856
-0.0125661
0.0116662
-0.0122665
0.0120486
-0.0119834
0.0124325
-0.0117166
0.012818
-0.0114656
0.0132053
-0.0112301
0.0135948
-0.0110087
-0.0107975
0.0139888
9.7927e-05
0.0023437
0.000381236
0.00417701
0.000830931
0.00388308
0.00142006
0.00206171
0.00211368
-0.000670974
0.00287052
-0.00377075
0.00364803
-0.0068113
0.00440902
-0.00950387
0.00512647
-0.0116934
0.00578532
-0.0133352
0.00638124
-0.0144613
0.00691788
-0.0151471
0.00740365
-0.0154843
0.00784894
-0.0155627
0.00826415
-0.0154604
0.00865849
-0.0152398
0.00903942
-0.0149475
0.0094126
-0.0146168
0.00978203
-0.01427
0.0101504
-0.0139218
0.0105193
-0.0135807
0.0108898
-0.0132521
0.011262
-0.0129384
0.0116362
-0.0126407
0.0120123
-0.0123594
0.01239
-0.0120942
0.0127692
-0.0118448
0.01315
-0.0116109
0.0135333
-0.011392
-0.0111859
0.0139216
0.000102034
0.00224167
0.000399245
0.0038798
0.000871033
0.00341129
0.00148666
0.00144608
0.00220631
-0.00139062
0.00298407
-0.00454851
0.00377435
-0.00760158
0.00453897
-0.0102685
0.00525173
-0.0124062
0.0058995
-0.013983
0.00648031
-0.0150421
0.00699992
-0.0156667
0.00746843
-0.0159528
0.00789732
-0.0159916
0.00829762
-0.0158607
0.00867874
-0.0156209
0.00904811
-0.0153169
0.00941122
-0.0149799
0.00977183
-0.0146307
0.0101324
-0.0142823
0.0104942
-0.0139426
0.0108581
-0.0136159
0.0112241
-0.0133045
0.0115923
-0.0130089
0.0119624
-0.0127295
0.0123341
-0.012466
0.0127073
-0.012218
0.013082
-0.0119856
0.0134592
-0.0117692
-0.0115688
0.0138421
0.000106199
0.00213547
0.000417082
0.00356892
0.000910227
0.00291815
0.00155093
0.000805377
0.00229437
-0.00213406
0.00309014
-0.00534428
0.00388992
-0.00840137
0.00465496
-0.0110335
0.00536028
-0.0131115
0.00599496
-0.0146177
0.00655938
-0.0156066
0.00706141
-0.0161688
0.00751265
-0.0164041
0.00792557
-0.0164045
0.00831162
-0.0162467
0.00868031
-0.0159896
0.00903897
-0.0156755
0.00939281
-0.0153337
0.00974534
-0.0149832
0.0100987
-0.0146356
0.0104541
-0.014298
0.0108119
-0.0139738
0.0111723
-0.0136648
0.0115349
-0.0133716
0.0118995
-0.0130941
0.0122656
-0.0128321
0.012633
-0.0125854
0.0130019
-0.0123545
0.0133733
-0.0121406
-0.0119464
0.0137509
0.000110483
0.00202499
0.000434882
0.00324452
0.000948658
0.00240437
0.00161292
0.000141116
0.00237776
-0.00289889
0.00318845
-0.00615498
0.00399437
-0.00920728
0.00475664
-0.0117958
0.0054519
-0.0138068
0.00607159
-0.0152374
0.00661853
-0.0161535
0.00710257
-0.0166528
0.0075367
-0.0168382
0.00793413
-0.016802
0.00830664
-0.0166193
0.0086637
-0.0163466
0.00901243
-0.0160243
0.00935778
-0.0156791
0.00970295
-0.0153284
0.0100498
-0.0149825
0.0103993
-0.0146475
0.0107517
-0.0143262
0.0111069
-0.01402
0.0114645
-0.0137292
0.011824
-0.0134536
0.012185
-0.013193
0.012547
-0.0129474
0.0129103
-0.0127177
0.0132761
-0.0125065
-0.0123191
0.0136487
0.000114935
0.00191005
0.00045274
0.00290672
0.000986412
0.0018707
0.00167261
-0.000545088
0.00245632
-0.00368259
0.00327874
-0.0069774
0.00408736
-0.0100159
0.00484374
-0.0125522
0.00552642
-0.0144895
0.00612942
-0.0158404
0.00665796
-0.016682
0.00712377
-0.0171186
0.00754101
-0.0172554
0.00792351
-0.0171845
0.00828319
-0.0169789
0.0086294
-0.0166928
0.00896897
-0.0163638
0.00930655
-0.0160167
0.00964503
-0.0156668
0.00998603
-0.0153235
0.0103302
-0.0149917
0.0106778
-0.0146737
0.0110283
-0.0143706
0.0113814
-0.0140823
0.0117364
-0.0138086
0.0120926
-0.0135493
0.0124497
-0.0133045
0.0128077
-0.0130758
0.0131682
-0.0128669
-0.0126866
0.0135358
0.000119587
0.00179047
0.000470719
0.00255559
0.00102352
0.00131791
0.00172994
-0.00125151
0.00252983
-0.00448248
0.00336067
-0.00780824
0.00416859
-0.0108238
0.00491601
-0.0132996
0.00558378
-0.0151572
0.00616857
-0.0164252
0.00667798
-0.0171914
0.00712544
-0.0175661
0.00752612
-0.0176561
0.00789428
-0.0175526
0.00824182
-0.0173265
0.00857791
-0.0170289
0.00890903
-0.0166949
0.0092395
-0.0163471
0.00957191
-0.0159993
0.00990763
-0.0156592
0.0102471
-0.0153312
0.0105904
-0.015017
0.0109369
-0.0147171
0.011286
-0.0144314
0.011637
-0.0141596
0.0119891
-0.0139014
0.0123417
-0.0136571
0.0126948
-0.0134289
0.01305
-0.0132221
-0.013049
0.0134123
0.00012446
0.00166601
0.000488841
0.00219121
0.00105994
0.000746812
0.00178473
-0.00197631
0.00259802
-0.00529577
0.00343392
-0.00864414
0.00423774
-0.0116276
0.0049733
-0.0140352
0.00562401
-0.0158079
0.00618929
-0.0169904
0.006679
-0.0176812
0.00710811
-0.0179952
0.00749262
-0.0180406
0.00784701
-0.017907
0.0081831
-0.0176626
0.00850972
-0.0173555
0.00883302
-0.0170183
0.00915696
-0.0166711
0.00948386
-0.0163262
0.00981484
-0.0159902
0.0101502
-0.0156666
0.0104897
-0.0153565
0.0108328
-0.0150602
0.0111787
-0.0147773
0.0115264
-0.0145073
0.011875
-0.01425
0.0122237
-0.0140057
0.0125721
-0.0137773
0.0129219
-0.0135719
-0.0134056
0.0132785
0.000129559
0.00153645
0.000507094
0.00181367
0.00109559
0.00015832
0.0018368
-0.00271751
0.00266057
-0.00611954
0.00349813
-0.0094817
0.00429455
-0.0124241
0.00501551
-0.0147561
0.00564723
-0.0164397
0.00619189
-0.0175351
0.0066615
-0.0181508
0.00707237
-0.0184061
0.00744112
-0.0184094
0.00778232
-0.0182482
0.00810755
-0.0179878
0.00842529
-0.0176733
0.0087413
-0.0173343
0.00905922
-0.016989
0.00938107
-0.016648
0.00970779
-0.0163169
0.0100395
-0.0159983
0.010376
-0.0156929
0.0107163
-0.0154005
0.0110597
-0.0151207
0.011405
-0.0148526
0.0117509
-0.0145959
0.0120963
-0.0143511
0.0124404
-0.0141214
0.0127845
-0.013916
-0.0137557
0.0131347
0.000134879
0.00140157
0.000525436
0.00142312
0.00113033
-0.00044657
0.00188586
-0.00347305
0.00271713
-0.00695081
0.00355297
-0.0103175
0.00433882
-0.0132099
0.00504263
-0.0154599
0.00565365
-0.0170507
0.00617678
-0.0180582
0.00662603
-0.0186
0.00701885
-0.0187989
0.00737227
-0.0187628
0.00770081
-0.0185768
0.00801571
-0.0183027
0.00832505
-0.0179826
0.0086342
-0.0176434
0.00894645
-0.0173012
0.00926363
-0.0169652
0.0095865
-0.0166398
0.0099151
-0.0163269
0.010249
-0.0160268
0.0105874
-0.015739
0.0109293
-0.0154625
0.0112732
-0.0151965
0.0116175
-0.0149402
0.0119607
-0.0146942
0.0123011
-0.0144618
0.0126395
-0.0142544
-0.0140982
0.0129819
0.000140405
0.00126117
0.000543794
0.00101973
0.00116397
-0.00106675
0.00193162
-0.00424069
0.00276734
-0.00778652
0.00359812
-0.0111483
0.00437037
-0.0139822
0.00505472
-0.0161443
0.00564355
-0.0176395
0.00614444
-0.0185591
0.0065732
-0.0190288
0.00694821
-0.0191739
0.00728673
-0.0191013
0.00760307
-0.0188931
0.00790808
-0.0186077
0.00820937
-0.0182839
0.00851193
-0.017946
0.00881878
-0.0176081
0.00913152
-0.0172779
0.00945082
-0.0169591
0.00977668
-0.0166528
0.0101086
-0.0163588
0.0104459
-0.0160762
0.0107872
-0.0158038
0.0111312
-0.0155404
0.0114757
-0.0152847
0.0118183
-0.0150369
0.0121564
-0.0148
0.0124893
-0.0145873
-0.0144314
0.0128226
0.000146117
0.00111505
0.000562071
0.000603776
0.00119631
-0.00170099
0.00197375
-0.00501814
0.00281082
-0.00862359
0.0036333
-0.0119708
0.00438911
-0.014738
0.00505191
-0.0168071
0.0056173
-0.0182049
0.00609542
-0.0190372
0.00650367
-0.0194371
0.00686115
-0.0195314
0.00718515
-0.0194253
0.00748968
-0.0191976
0.0077851
-0.0189031
0.00807857
-0.0185774
0.00837468
-0.0182421
0.0086762
-0.0179096
0.00898458
-0.0175863
0.00930045
-0.017275
0.00962384
-0.0169762
0.00995436
-0.0166893
0.0102913
-0.0164131
0.0106334
-0.016146
0.0109791
-0.015886
0.011326
-0.0156316
0.0116708
-0.0153817
0.0120095
-0.0151387
0.0123388
-0.0149166
-0.0147542
0.0126616
0.000151986
0.000963068
0.00058015
0.000175611
0.0012271
-0.00234794
0.00201191
-0.00580295
0.00284724
-0.00945893
0.00365828
-0.0127818
0.00439501
-0.0154747
0.00503442
-0.0174465
0.00557534
-0.0187458
0.00603031
-0.0194922
0.00641813
-0.0198249
0.00675836
-0.0198716
0.0070682
-0.0197351
0.0073612
-0.0194907
0.00764722
-0.0191892
0.00793293
-0.0188631
0.00822256
-0.0185317
0.00851865
-0.0182057
0.00882255
-0.0178902
0.00913492
-0.0175873
0.00945588
-0.0172971
0.00978527
-0.0170187
0.0101226
-0.0167504
0.0104669
-0.0164903
0.0108167
-0.0162358
0.0111694
-0.0159843
0.0115208
-0.0157331
0.011865
-0.0154828
0.0121956
-0.0152472
-0.0150682
0.0125096
0.000157985
0.000805083
0.000597909
-0.000264313
0.00125608
-0.00300611
0.00204575
-0.00659262
0.00287627
-0.0102894
0.00367287
-0.0135784
0.00438812
-0.0161899
0.00500255
-0.0180609
0.00551818
-0.0192614
0.00594978
-0.0199238
0.00631728
-0.0201924
0.00664055
-0.0201949
0.0069365
-0.0200311
0.00721817
-0.0197723
0.00749484
-0.0194658
0.0077727
-0.0191409
0.00805564
-0.0188147
0.00834598
-0.018496
0.00864505
-0.0181893
0.00895352
-0.0178958
0.00927176
-0.0176154
0.00959992
-0.0173468
0.00993797
-0.0170885
0.0102857
-0.016838
0.0106425
-0.0165926
0.0110064
-0.0163482
0.0113731
-0.0160999
0.0117331
-0.0158429
0.0120683
-0.0155823
-0.015382
0.012382
0.000164096
0.000640988
0.000615223
-0.00071544
0.001283
-0.00367389
0.00207496
-0.00738457
0.00289764
-0.0111121
0.00367697
-0.0143578
0.00436858
-0.0168815
0.00495667
-0.018649
0.00544638
-0.0197511
0.00585449
-0.0203319
0.00620187
-0.0205398
0.00650844
-0.0205014
0.00679071
-0.0203134
0.00706112
-0.0200427
0.00732835
-0.0197331
0.00759811
-0.0194107
0.00787397
-0.0190905
0.00815805
-0.0187801
0.00845162
-0.0184829
0.00875548
-0.0181997
0.00907019
-0.0179301
0.00939629
-0.0176729
0.00973441
-0.0174266
0.0100854
-0.017189
0.0104504
-0.0169575
0.0108307
-0.0167286
0.0112275
-0.0164966
0.0116389
-0.0162543
0.0120471
-0.0159906
0.0123286
-0.0156634
0.0137428
-0.0177574
0.0172091
0.0140848
-0.0126295
0.0122875
0.014277
-0.00834896
0.00815679
0.0143781
-0.0054939
0.00539284
0.0144109
-0.00334938
0.00331659
0.0143882
-0.00136733
0.00139
0.0143232
0.000613166
-0.000548198
0.0142363
0.00254991
-0.002463
0.0141144
0.00451911
-0.00439722
0.0139662
0.00632912
-0.00618086
0.0137937
0.00808608
-0.00791366
0.0136016
0.00971757
-0.00952548
0.0133922
0.0112645
-0.0110551
0.0131668
0.0127275
-0.0125021
0.012928
0.0140984
-0.0138596
0.0126758
0.0153823
-0.0151302
0.0124127
0.0165713
-0.0163081
0.0121389
0.0176766
-0.0174028
0.0118561
0.0186797
-0.018397
0.0115651
0.0195962
-0.0193052
0.0112677
0.0204013
-0.0201038
0.0109618
0.0211312
-0.0208253
0.0106529
0.021728
-0.0214192
0.0103349
0.0222637
-0.0219456
0.0100119
0.0227047
-0.0223818
0.00968526
0.0228953
-0.0225687
0.00933612
0.0235978
-0.0232487
0.00899524
0.022785
-0.0224441
0.00861789
0.0242213
-0.023844
0.0238076
-0.0234052
0.0138436
-0.0182554
0.0141629
-0.0129488
0.014345
-0.00853105
0.014444
-0.00559296
0.014478
-0.00338337
0.0144583
-0.00134752
0.014396
0.000675488
0.0143148
0.00263109
0.0141941
0.00463982
0.0140478
0.00647551
0.0138775
0.00825639
0.0136862
0.00990885
0.0134767
0.011474
0.0132507
0.0129535
0.0130106
0.0143384
0.0127568
0.0156362
0.01249
0.0168381
0.0122132
0.0179534
0.0119257
0.0189673
0.01163
0.0198918
0.011327
0.0207044
0.0110152
0.021443
0.0106999
0.0220433
0.010375
0.0225885
0.010045
0.0230348
0.00971164
0.0232286
0.00935531
0.0239542
0.00900872
0.0231316
0.00862481
0.0246052
0.024215
0.0139343
-0.0187036
0.0142313
-0.0132458
0.0144034
-0.00870314
0.0145014
-0.00569093
0.0145373
-0.0034193
0.0145209
-0.00133107
0.0144617
0.000734632
0.0143867
0.00270609
0.0142682
0.0047583
0.0141238
0.00661997
0.0139559
0.00842423
0.0137659
0.0100988
0.0135571
0.0116828
0.0133309
0.0131798
0.0130899
0.0145795
0.0128344
0.0158917
0.0125647
0.0171078
0.0122851
0.0182331
0.0119932
0.0192591
0.0116931
0.020192
0.0113848
0.0210126
0.0110672
0.0217606
0.0107459
0.0223647
0.0104145
0.0229199
0.0100777
0.0233716
0.00973799
0.0235684
0.00937487
0.0243173
0.00902277
0.0234837
0.00863266
0.0249953
0.0246268
0.0140141
-0.0191031
0.0142896
-0.0135213
0.0144524
-0.00886594
0.01455
-0.00578848
0.0145884
-0.00345769
0.0145759
-0.0013186
0.0145212
0.000789328
0.0144514
0.00277589
0.014336
0.00487367
0.0141943
0.00676166
0.0140291
0.00858947
0.0138411
0.0102869
0.0136333
0.0118905
0.0134073
0.0134058
0.0131657
0.014821
0.0129087
0.0161487
0.0126371
0.0173793
0.0123543
0.0185159
0.0120589
0.0195545
0.0117542
0.0204967
0.0114412
0.0213256
0.011118
0.0220838
0.010791
0.0226917
0.0104533
0.0232576
0.0101103
0.0237147
0.00976407
0.0239146
0.00939485
0.0246865
0.00903734
0.0238412
0.00864146
0.0253912
0.0250427
0.0140824
-0.0194557
0.0143375
-0.0137764
0.0144917
-0.00902011
0.0145895
-0.00588633
0.0146312
-0.00349936
0.0146233
-0.00131073
0.0145747
0.000837973
0.014508
0.00284256
0.0143975
0.00498419
0.0142594
0.00689977
0.0140969
0.00875196
0.0139113
0.0104725
0.0137052
0.0120967
0.0134799
0.0136311
0.0132381
0.0150627
0.0129797
0.0164071
0.0127069
0.0176522
0.012421
0.0188019
0.0121226
0.0198529
0.0118136
0.0208058
0.0114962
0.021643
0.0111675
0.0224125
0.010835
0.0230242
0.0104914
0.0236012
0.0101425
0.0240635
0.00979001
0.0242671
0.00941515
0.0250613
0.00905245
0.0242039
0.00865115
0.0257925
0.0254623
0.0141392
-0.0197636
0.0143745
-0.0140117
0.0145211
-0.0091668
0.0146199
-0.00598509
0.0146656
-0.00354504
0.014663
-0.00130814
0.0146207
0.000880275
0.0145578
0.0029054
0.0144525
0.0050895
0.0143184
0.00703392
0.0141594
0.00891098
0.0139767
0.0106551
0.0137725
0.0123009
0.0135485
0.0138551
0.0133069
0.0153043
0.0130477
0.0166664
0.0127738
0.017926
0.0124852
0.0190905
0.0121842
0.0201538
0.0118711
0.0211189
0.0115496
0.0219644
0.0112158
0.0227463
0.0108782
0.0233618
0.0105288
0.0239506
0.0101743
0.0244179
0.00981583
0.0246256
0.00943558
0.0254416
0.00906811
0.0245714
0.00866174
0.0261988
0.0258852
0.0141842
-0.0200296
0.0144002
-0.0142277
0.0145407
-0.00930729
0.0146411
-0.00608545
0.0146915
-0.00359545
0.0146947
-0.00131138
0.0146591
0.000915911
0.0146007
0.00296378
0.014501
0.00518923
0.0143714
0.0071635
0.0142164
0.009066
0.0140372
0.0108343
0.0138352
0.0125028
0.013613
0.0140774
0.0133721
0.0155453
0.0131125
0.016926
0.0128379
0.0182006
0.012547
0.0193813
0.0122437
0.0204571
0.0119268
0.0214358
0.0116015
0.0222897
0.0112629
0.0230849
0.0109203
0.0237044
0.0105655
0.0243055
0.0102056
0.0247778
0.0098415
0.0249897
0.00945612
0.025827
0.00908425
0.0249433
0.00867317
0.0266099
0.0263112
0.014217
-0.0202568
0.0144147
-0.0144254
0.0145504
-0.00944302
0.0146531
-0.0061881
0.0147089
-0.00365124
0.0147185
-0.00132098
0.0146899
0.000944512
0.0146365
0.00301717
0.0145427
0.00528298
0.0144184
0.00728781
0.0142679
0.00921652
0.0140926
0.0110097
0.0138934
0.012702
0.0136734
0.0142973
0.0134334
0.0157852
0.0131741
0.0171853
0.0128989
0.0184757
0.0126063
0.0196739
0.0123009
0.0207625
0.0119807
0.0217561
0.0116519
0.0226185
0.0113089
0.0234278
0.0109615
0.0240518
0.0106015
0.0246655
0.0102364
0.0251429
0.00986696
0.0253592
0.00947675
0.0262172
0.00910079
0.0253192
0.00868538
0.0270254
0.0267397
0.0142375
-0.0204485
0.0144179
-0.0146059
0.0145504
-0.00957553
0.0146561
-0.00629377
0.0147178
-0.00371291
0.0147342
-0.00133742
0.0147129
0.000965789
0.0146651
0.00306502
0.0145778
0.00537024
0.0144593
0.00740635
0.0143138
0.00936203
0.0141427
0.0111807
0.0139468
0.0128979
0.0137295
0.0145147
0.013491
0.0160237
0.0132324
0.0174439
0.012957
0.0187511
0.0126632
0.0199678
0.0123559
0.0210698
0.0120328
0.0220793
0.0117006
0.0229507
0.0113537
0.0237747
0.0110017
0.0244038
0.0106368
0.0250304
0.0102668
0.0255129
0.00989215
0.0257338
0.00949745
0.0266119
0.00911765
0.025699
0.00869833
0.0274447
0.0271703
0.0142454
-0.0206083
0.0144102
-0.0147706
0.0145411
-0.00970649
0.0146505
-0.00640313
0.0147184
-0.00378083
0.014742
-0.00136105
0.0147283
0.00097954
0.0146865
0.00310674
0.0146062
0.00545056
0.0144939
0.00751864
0.0143539
0.00950207
0.0141876
0.011347
0.0139955
0.0130901
0.0137812
0.0147289
0.0135447
0.0162602
0.0132874
0.0177013
0.013012
0.0190265
0.0127174
0.0202624
0.0124086
0.0213786
0.012083
0.0224049
0.0117477
0.0232859
0.0113972
0.0241252
0.0110408
0.0247602
0.0106713
0.0253999
0.0102966
0.0258876
0.009917
0.0261135
0.00951817
0.0270107
0.00913475
0.0260824
0.00871196
0.0278675
0.0276028
0.0142409
-0.02074
0.0143919
-0.0149217
0.014523
-0.00983759
0.0146367
-0.00651674
0.014711
-0.00385513
0.014742
-0.0013921
0.0147359
0.000985657
0.0147008
0.0031418
0.0146278
0.00552354
0.0145222
0.00762424
0.0143882
0.00963613
0.0142272
0.011508
0.0140394
0.0132778
0.0138286
0.0149398
0.0135945
0.0164943
0.0133389
0.0179569
0.0130639
0.0193016
0.0127691
0.0205572
0.012459
0.0216887
0.0121314
0.0227325
0.0117932
0.0236241
0.0114395
0.024479
0.0110789
0.0251208
0.0107049
0.0257738
0.0103259
0.0262666
0.00994145
0.026498
0.00953887
0.0274133
0.00915203
0.0264693
0.0087262
0.0282933
0.0280365
0.0142242
-0.020848
0.0143642
-0.0150617
0.0144971
-0.00997057
0.0146154
-0.00663498
0.014696
-0.0039357
0.0147344
-0.00143058
0.014736
0.000984133
0.014708
0.00316974
0.0146427
0.00558883
0.0145442
0.00772274
0.0144166
0.00976371
0.0142612
0.0116634
0.0140784
0.0134606
0.0138715
0.0151467
0.0136403
0.0167255
0.013387
0.0182102
0.0131127
0.0195759
0.012818
0.0208518
0.012507
0.0219998
0.0121778
0.0230616
0.011837
0.023965
0.0114803
0.0248356
0.0111159
0.0254852
0.0107377
0.026152
0.0103547
0.0266496
0.00996545
0.0268872
0.0095595
0.0278192
0.0091694
0.0268594
0.00874095
0.0287218
0.028471
0.0141958
-0.0209366
0.014328
-0.0151939
0.0144645
-0.010107
0.0145875
-0.00675799
0.0146739
-0.00402215
0.0147196
-0.00147629
0.0147288
0.000975004
0.0147082
0.00319032
0.0146509
0.00564608
0.01456
0.00781372
0.0144393
0.00988437
0.0142898
0.0118129
0.0141125
0.0136379
0.0139099
0.0153493
0.0136821
0.0169533
0.0134314
0.0184609
0.0131583
0.019849
0.0128643
0.0211458
0.0125526
0.0223115
0.0122223
0.0233918
0.0118791
0.0243082
0.0115198
0.0251949
0.0111519
0.0258531
0.0107695
0.0265344
0.0103828
0.0270364
0.00998893
0.027281
0.00957998
0.0282281
0.00918675
0.0272526
0.00875613
0.0291524
0.0289057
0.0141567
-0.0210109
0.0142848
-0.0153219
0.0144262
-0.0102484
0.0145538
-0.00688562
0.0146455
-0.00411385
0.0146981
-0.00152885
0.0147146
0.000958437
0.0147016
0.00320333
0.0146526
0.00569508
0.0145695
0.00789682
0.0144562
0.00999775
0.014313
0.011956
0.0141417
0.0138093
0.0139439
0.0155471
0.0137198
0.0171774
0.0134722
0.0187085
0.0132007
0.0201205
0.0129078
0.0214388
0.0125958
0.0226235
0.0122647
0.0237229
0.0119195
0.0246534
0.0115578
0.0255566
0.0111867
0.0262242
0.0108004
0.0269207
0.0104102
0.0274266
0.0100118
0.0276794
0.00960021
0.0286397
0.00920396
0.0276489
0.00877161
0.0295847
0.0293399
0.0141078
-0.0210759
0.0142357
-0.0154498
0.0143832
-0.010396
0.0145151
-0.00701745
0.0146112
-0.00420999
0.0146702
-0.00158779
0.014694
0.00093462
0.0146887
0.00320864
0.0146481
0.00573567
0.0145731
0.00797178
0.0144674
0.0101035
0.014331
0.0120923
0.0141659
0.0139744
0.0139732
0.0157397
0.0137534
0.0173972
0.0135093
0.0189526
0.01324
0.0203898
0.0129484
0.0217304
0.0126365
0.0229354
0.012305
0.0240544
0.0119582
0.0250001
0.0115942
0.0259207
0.0112204