/*--------------------------------*- C++ -*----------------------------------*\
  =========                 |
  \\      /  F ield         | OpenFOAM: The Open Source CFD Toolbox
   \\    /   O peration     | Website:  https://openfoam.org
    \\  /    A nd           | Version:  7
     \\/     M anipulation  |
\*---------------------------------------------------------------------------*/
FoamFile
{
    version     2.0;
    format      ascii;
    class       volVectorField;
    location    "1.2";
    object      U;
}
// * * * * * * * * * * * * * * * * * * * * * * * * * * * * * * * * * * * * * //

dimensions      [0 1 -1 0 0 0 0];

internalField   nonuniform List<vector> 
18000
(
(-0.00228946 0.0957031 2.90197e-20)
(-0.00594173 0.19747 0)
(-0.00876147 0.234982 0)
(-0.00813765 0.227176 0)
(-0.00310871 0.190794 -9.59829e-21)
(0.00672733 0.138699 4.85143e-20)
(0.0211078 0.0802006 -9.83827e-21)
(0.0393067 0.0217768 9.90539e-21)
(0.060322 -0.0322765 0)
(0.0830568 -0.0793722 -3.00285e-20)
(0.106471 -0.118252 -1.00737e-20)
(0.129685 -0.148666 0)
(0.152034 -0.171067 2.0147e-20)
(0.173066 -0.186341 2.02529e-20)
(0.192521 -0.195586 -4.04532e-20)
(0.210287 -0.199946 -4.03768e-20)
(0.226368 -0.200504 0)
(0.24084 -0.198215 -6.02307e-20)
(0.25383 -0.193884 1.99767e-20)
(0.265482 -0.188159 -5.96151e-20)
(0.27594 -0.181545 1.97487e-20)
(0.28535 -0.174425 0)
(0.293841 -0.16708 -1.93812e-20)
(0.301526 -0.159708 -1.93287e-20)
(0.308507 -0.152446 0)
(0.31487 -0.145383 0)
(0.320686 -0.138574 -3.7647e-20)
(0.326024 -0.132043 -3.73138e-20)
(0.330966 -0.125768 -3.71099e-20)
(0.335333 -0.119572 3.84645e-20)
(-0.00445855 0.0962022 4.11454e-20)
(-0.00945331 0.198048 7.1788e-20)
(-0.0112646 0.234804 -7.35246e-20)
(-0.00840122 0.225442 -7.49983e-20)
(-0.000467804 0.186901 -1.91088e-20)
(0.0124885 0.132338 5.77914e-20)
(0.0298981 0.0713643 -7.80778e-20)
(0.0508218 0.0107139 -7.87697e-20)
(0.0741181 -0.0451328 7.93382e-20)
(0.0986174 -0.0934899 7.98209e-20)
(0.123261 -0.133081 -4.00478e-20)
(0.147195 -0.163706 -8.03933e-20)
(0.169811 -0.185904 -4.04613e-20)
(0.190734 -0.200667 8.05715e-20)
(0.209789 -0.209195 -8.04815e-20)
(0.226948 -0.212722 8.05829e-20)
(0.242284 -0.212401 -1.60561e-19)
(0.255937 -0.20924 1.19988e-19)
(0.268074 -0.204074 -7.94338e-20)
(0.278876 -0.197575 3.96928e-20)
(0.288514 -0.190255 -7.85087e-20)
(0.297146 -0.182498 0)
(0.30491 -0.174583 3.91806e-20)
(0.311925 -0.166702 -7.69281e-20)
(0.318293 -0.158984 7.61954e-20)
(0.324098 -0.151514 0)
(0.329411 -0.144337 -3.72547e-20)
(0.334296 -0.137471 3.70425e-20)
(0.338819 -0.130887 1.47242e-19)
(0.342768 -0.124391 7.63272e-20)
(-0.00665955 0.0962597 -6.60355e-20)
(-0.01302 0.197796 -7.17861e-20)
(-0.0137716 0.233679 1.10224e-19)
(-0.00855092 0.222791 1.86945e-19)
(0.00245471 0.182211 0)
(0.0187209 0.12535 -7.72371e-20)
(0.0393447 0.062098 7.80742e-20)
(0.0631507 -0.000561068 2.35566e-19)
(0.0888405 -0.0579689 -7.93341e-20)
(0.11516 -0.107354 -7.97916e-20)
(0.141032 -0.147438 2.39658e-19)
(0.165639 -0.178082 8.03893e-20)
(0.188446 -0.199922 0)
(0.209171 -0.214059 -1.61082e-19)
(0.227733 -0.221794 2.4046e-19)
(0.244193 -0.224449 -7.98997e-20)
(0.258704 -0.223242 8.01199e-20)
(0.271464 -0.219225 7.97231e-20)
(0.282691 -0.213263 3.06094e-22)
(0.292598 -0.206037 0)
(0.301379 -0.198067 2.35307e-19)
(0.309205 -0.189734 -1.55379e-19)
(0.316223 -0.181309 7.74094e-20)
(0.322553 -0.172979 0)
(0.328296 -0.164866 -7.61937e-20)
(0.333536 -0.157043 3.01174e-19)
(0.338339 -0.149549 -2.23359e-19)
(0.342766 -0.142399 -7.42324e-20)
(0.346873 -0.13555 7.27556e-20)
(0.350398 -0.128799 7.60023e-20)
(-0.00886052 0.0959006 0)
(-0.0165862 0.196734 3.5678e-20)
(-0.0162294 0.231573 3.89415e-23)
(-0.00853568 0.219155 -1.86578e-19)
(0.00570329 0.17664 0)
(0.0254599 0.117659 -1.53092e-19)
(0.0494672 0.0523582 0)
(0.076286 -0.0120512 -2.35102e-19)
(0.104443 -0.0707547 7.86711e-20)
(0.132598 -0.12091 -1.5805e-19)
(0.159666 -0.161253 -1.59507e-19)
(0.184879 -0.191716 -7.99493e-20)
(0.207789 -0.213043 7.97904e-20)
(0.228218 -0.226443 7.94403e-20)
(0.246191 -0.233321 -8.04495e-20)
(0.261866 -0.235078 -1.58979e-19)
(0.275475 -0.232989 1.58801e-19)
(0.287283 -0.228145 0)
(0.297553 -0.22143 0)
(0.306531 -0.213534 0)
(0.31443 -0.204976 0)
(0.321433 -0.196131 0)
(0.327693 -0.187262 0)
(0.333331 -0.178546 -1.52026e-19)
(0.338446 -0.170094 -1.51337e-19)
(0.343118 -0.161974 -5.47536e-22)
(0.34741 -0.154217 -1.4847e-19)
(0.35138 -0.146828 -5.43169e-22)
(0.35507 -0.139761 -1.46836e-19)
(0.358167 -0.132807 3.02115e-19)
(-0.0110422 0.0951582 0)
(-0.0201111 0.194865 3.18894e-19)
(-0.0185887 0.228511 3.96531e-23)
(-0.00831583 0.214568 -1.11286e-19)
(0.00930128 0.170231 3.76227e-19)
(0.0327096 0.109313 2.29502e-19)
(0.0602429 0.0421901 2.30866e-19)
(0.0901726 -0.0237127 0)
(0.120841 -0.0834394 0)
(0.150824 -0.134098 2.37005e-19)
(0.179035 -0.174458 2.76669e-22)
(0.204769 -0.204542 -5.55218e-19)
(0.227683 -0.225205 4.76174e-19)
(0.247715 -0.237769 -1.59549e-19)
(0.265006 -0.243734 1.57969e-19)
(0.279815 -0.244576 1.5861e-19)
(0.292459 -0.24162 -1.57688e-19)
(0.303266 -0.235986 1.57834e-19)
(0.312543 -0.228572 3.13324e-19)
(0.320567 -0.220069 -1.5579e-19)
(0.327569 -0.210989 -3.09202e-19)
(0.333743 -0.201699 3.07074e-19)
(0.339242 -0.192451 -3.04803e-19)
(0.344189 -0.183412 1.52023e-19)
(0.348679 -0.174682 0)
(0.352787 -0.166319 0)
(0.356572 -0.158349 1.09366e-21)
(0.360088 -0.150769 -5.84659e-19)
(0.363363 -0.143526 2.89331e-19)
(0.366029 -0.136413 -3.00789e-19)
(-0.0131772 0.0940525 0)
(-0.0235415 0.192226 -2.83368e-19)
(-0.0207952 0.224492 2.88976e-19)
(-0.00783748 0.209002 0)
(0.0132966 0.162946 -6.00388e-19)
(0.0404955 0.100277 -7.6064e-20)
(0.0716667 0.0315802 -1.54328e-19)
(0.104773 -0.0355301 -7.74071e-20)
(0.137965 -0.0959833 0)
(0.169734 -0.146865 -1.5715e-19)
(0.199009 -0.186998 1.57295e-19)
(0.225166 -0.216506 3.16834e-19)
(0.247977 -0.23636 -3.1737e-19)
(0.267511 -0.247996 0)
(0.28403 -0.253005 -3.17248e-19)
(0.297902 -0.252927 3.15022e-19)
(0.309526 -0.24913 3.15679e-19)
(0.319293 -0.242753 4.69819e-19)
(0.327554 -0.234699 -4.68746e-19)
(0.334611 -0.225655 6.20211e-19)
(0.340714 -0.216123 3.08728e-19)
(0.346059 -0.206458 -3.07068e-19)
(0.350803 -0.196898 6.07944e-19)
(0.355067 -0.187597 0)
(0.35894 -0.178646 2.9826e-19)
(0.362493 -0.170094 5.92473e-19)
(0.365777 -0.161959 -2.91962e-19)
(0.368846 -0.154233 2.92042e-19)
(0.371714 -0.146856 -5.97393e-22)
(0.373949 -0.139629 -2.99554e-19)
(-0.0152443 0.0926167 -3.23419e-20)
(-0.0268276 0.188845 0)
(-0.0227861 0.219538 -3.61089e-19)
(-0.00704213 0.202478 7.34883e-20)
(0.0177284 0.154801 2.24777e-19)
(0.0488328 0.0905734 7.56463e-20)
(0.0837243 0.0205616 3.05122e-19)
(0.12004 -0.0474611 0)
(0.155732 -0.108338 1.55485e-19)
(0.189221 -0.159158 1.55585e-19)
(0.219463 -0.19882 -1.57056e-19)
(0.24593 -0.227559 4.70659e-19)
(0.268526 -0.246471 0)
(0.287461 -0.2571 0)
(0.303126 -0.261121 4.71709e-19)
(0.315997 -0.260131 -7.85259e-19)
(0.326558 -0.255527 3.12428e-19)
(0.335258 -0.248461 -3.12795e-19)
(0.34249 -0.239833 -3.09625e-19)
(0.34858 -0.230318 -9.26402e-19)
(0.353788 -0.220405 -1.17253e-21)
(0.358316 -0.210433 3.03754e-19)
(0.362318 -0.200625 -6.04616e-19)
(0.365911 -0.191123 2.99074e-19)
(0.369181 -0.182007 -1.67898e-21)
(0.372191 -0.173317 -2.95683e-19)
(0.374986 -0.165064 2.93048e-19)
(0.377617 -0.157233 0)
(0.380085 -0.149763 2.85946e-19)
(0.381891 -0.142465 5.46998e-22)
(-0.0172223 0.0908778 -6.43826e-20)
(-0.0299185 0.184758 7.00946e-20)
(-0.0244998 0.213679 -4.2991e-19)
(-0.00587005 0.19501 -2.18981e-19)
(0.0226432 0.14581 2.96826e-19)
(0.057743 0.0802216 -4.51335e-19)
(0.0964057 0.00916119 -1.52983e-19)
(0.135929 -0.0594695 -3.06211e-19)
(0.17407 -0.12046 3.08283e-19)
(0.209185 -0.170932 -6.21426e-19)
(0.240276 -0.209881 -3.1124e-19)
(0.266928 -0.237669 -1.55656e-21)
(0.289194 -0.255515 1.56978e-19)
(0.30743 -0.26507 -4.69189e-19)
(0.322166 -0.268085 -6.26447e-19)
(0.333983 -0.2662 3.46911e-22)
(0.343448 -0.260834 -1.27901e-21)
(0.351068 -0.253139 3.09508e-19)
(0.35727 -0.244005 3.09619e-19)
(0.362401 -0.234091 4.91989e-22)
(0.366729 -0.223869 -6.50783e-22)
(0.370456 -0.213656 3.00923e-19)
(0.373735 -0.203663 3.0147e-19)
(0.376676 -0.194017 -5.7963e-22)
(0.37936 -0.184788 -8.88018e-19)
(0.381843 -0.176008 5.85193e-19)
(0.384163 -0.16768 5.81471e-19)
(0.386367 -0.159786 -5.75172e-19)
(0.388445 -0.152259 -2.85944e-19)
(0.389826 -0.144933 -2.94563e-19)
(-0.019093 0.0888653 -5.7554e-19)
(-0.032766 0.180007 -6.97787e-20)
(-0.0258727 0.206948 3.57784e-19)
(-0.00425808 0.186629 2.92134e-19)
(0.0280907 0.136 -2.96818e-19)
(0.0672522 0.0692502 3.00604e-19)
(0.109707 -0.00258549 -1.51591e-19)
(0.152404 -0.0715125 4.58826e-19)
(0.192909 -0.132304 -3.08271e-19)
(0.22953 -0.182143 3.09944e-19)
(0.261333 -0.220145 1.55732e-19)
(0.288036 -0.246809 -1.56718e-19)
(0.309852 -0.263481 -9.34437e-19)
(0.327296 -0.27191 6.24067e-19)
(0.341032 -0.273911 3.12412e-19)
(0.351752 -0.27116 0)
(0.360102 -0.265083 0)
(0.366638 -0.256823 -2.86366e-21)
(0.371821 -0.247255 -3.05843e-19)
(0.376011 -0.237015 0)
(0.379481 -0.226551 0)
(0.382433 -0.216164 -3.02068e-19)
(0.385014 -0.206045 0)
(0.387326 -0.196309 -5.91345e-19)
(0.389444 -0.187015 0)
(0.391416 -0.178188 -2.9229e-19)
(0.393276 -0.169826 5.78009e-19)
(0.395065 -0.161905 -5.71748e-19)
(0.396763 -0.154357 0)
(0.397724 -0.147043 0)
(-0.0208403 0.0866064 5.11454e-19)
(-0.0353237 0.174635 0)
(-0.0268416 0.199389 -7.11533e-20)
(-0.00214015 0.177371 7.25029e-20)
(0.0341252 0.125406 -4.40821e-19)
(0.0773915 0.057698 9.41592e-23)
(0.123628 -0.0146346 -1.50712e-19)
(0.169432 -0.0835429 0)
(0.212184 -0.143821 0)
(0.250165 -0.192751 -1.54075e-19)
(0.282526 -0.229583 1.54218e-19)
(0.309136 -0.254965 -3.10317e-19)
(0.330382 -0.270368 3.12841e-19)
(0.346943 -0.277633 0)
(0.359621 -0.278628 0)
(0.369213 -0.275047 0)
(0.376438 -0.268316 3.06263e-19)
(0.3819 -0.259561 -1.69083e-21)
(0.386082 -0.24963 3.07494e-19)
(0.389358 -0.239134 -6.05643e-19)
(0.392 -0.228496 3.0197e-19)
(0.394207 -0.217995 -1.49617e-18)
(0.396118 -0.207805 1.17482e-21)
(0.397827 -0.198029 5.91339e-19)
(0.399402 -0.188715 -2.17967e-21)
(0.400884 -0.179881 5.78967e-19)
(0.4023 -0.171521 -5.72363e-19)
(0.403687 -0.163606 -5.69098e-19)
(0.405014 -0.156069 1.36485e-21)
(0.405563 -0.148807 -5.8073e-19)
(-0.0224497 0.0841278 -6.34824e-20)
(-0.0375474 0.168688 0)
(-0.0273428 0.191052 1.41662e-19)
(0.000551304 0.167286 -1.44348e-19)
(0.0408039 0.114075 1.32056e-18)
(0.0881959 0.0456146 8.35181e-23)
(0.138173 -0.0269339 -1.50006e-19)
(0.186981 -0.0955084 1.51426e-19)
(0.231833 -0.154966 -7.59762e-19)
(0.271003 -0.202716 0)
(0.303751 -0.238171 0)
(0.330118 -0.262129 -3.0617e-19)
(0.350674 -0.276188 3.10762e-19)
(0.366268 -0.282265 -3.09201e-19)
(0.377839 -0.282271 3.07884e-19)
(0.386283 -0.277908 0)
(0.392387 -0.270586 -1.22664e-18)
(0.396792 -0.261405 6.09029e-19)
(0.400004 -0.251182 3.04102e-19)
(0.402399 -0.240498 9.06245e-19)
(0.404249 -0.229748 0)
(0.405746 -0.21919 5.9734e-19)
(0.407018 -0.208981 5.90535e-19)
(0.408154 -0.199209 5.85698e-19)
(0.409211 -0.189914 -3.47093e-21)
(0.410223 -0.181108 -5.7419e-19)
(0.411212 -0.172782 5.7236e-19)
(0.412211 -0.164903 0)
(0.413178 -0.157406 1.41217e-21)
(0.413323 -0.150232 1.15945e-18)
(-0.0239084 0.0814545 -5.0427e-19)
(-0.0393951 0.162212 0)
(-0.0273136 0.181989 -5.62477e-19)
(0.00388511 0.156428 -7.17559e-19)
(0.0481863 0.102066 -4.39535e-19)
(0.0997016 0.0330592 1.47923e-19)
(0.153347 -0.0394233 1.38135e-22)
(0.205023 -0.107352 -1.50459e-19)
(0.251794 -0.165689 2.93109e-21)
(0.291958 -0.212005 3.0512e-19)
(0.324909 -0.245891 3.04824e-19)
(0.350877 -0.268304 -3.0412e-19)
(0.370628 -0.280958 3.06587e-19)
(0.38518 -0.285842 -9.2025e-19)
(0.395605 -0.284888 9.18195e-19)
(0.402894 -0.279795 6.10459e-19)
(0.407889 -0.271947 1.52541e-18)
(0.411268 -0.262411 -3.06638e-19)
(0.413546 -0.251966 -6.02495e-19)
(0.415101 -0.241159 -3.39322e-21)
(0.4162 -0.230357 -5.97075e-19)
(0.417025 -0.219794 1.77484e-18)
(0.417694 -0.20961 -1.17857e-18)
(0.418287 -0.199881 1.16323e-18)
(0.418851 -0.19064 -5.79393e-19)
(0.419416 -0.181892 1.14487e-18)
(0.419994 -0.173628 2.12205e-21)
(0.420619 -0.16581 -1.12334e-18)
(0.421236 -0.158378 1.11023e-18)
(0.420988 -0.151326 5.73566e-19)
(-0.0252049 0.0786094 5.04268e-19)
(-0.0408263 0.155256 0)
(-0.0266925 0.17226 1.26273e-18)
(0.00792943 0.144861 4.30715e-19)
(0.0563313 0.0894444 0)
(0.111944 0.0201007 0)
(0.169152 -0.0520344 0)
(0.223525 -0.11901 0)
(0.272007 -0.175939 3.02691e-19)
(0.312949 -0.220584 3.02786e-19)
(0.345909 -0.252731 -6.10214e-19)
(0.371322 -0.273499 6.11822e-19)
(0.390155 -0.284709 9.15536e-19)
(0.403599 -0.288405 3.07601e-19)
(0.412852 -0.286531 3.02357e-19)
(0.418988 -0.280768 -9.14432e-19)
(0.422901 -0.272464 -1.21341e-18)
(0.425289 -0.262642 -6.05679e-19)
(0.426677 -0.252042 6.0249e-19)
(0.427439 -0.241172 -1.19656e-18)
(0.427832 -0.23037 5.92568e-19)
(0.428025 -0.219848 -1.17969e-18)
(0.428129 -0.209728 5.82342e-19)
(0.42821 -0.200077 -2.65943e-21)
(0.42831 -0.190918 -5.73758e-19)
(0.428448 -0.182255 -1.13997e-18)
(0.428634 -0.174074 1.12857e-18)
(0.428898 -0.166339 0)
(0.429177 -0.158994 -1.48799e-21)
(0.428549 -0.152097 -1.14542e-18)
(-0.0263286 0.0756137 6.25848e-20)
(-0.0418033 0.147867 0)
(-0.0254201 0.161926 -5.59884e-19)
(0.0127505 0.132656 1.42479e-19)
(0.0652952 0.0762861 -1.44662e-19)
(0.124956 0.0068171 0)
(0.185589 -0.0646912 -1.48013e-19)
(0.242453 -0.130417 1.49023e-19)
(0.292409 -0.185666 3.00508e-19)
(0.333896 -0.228425 -9.032e-19)
(0.366661 -0.258687 -3.03316e-19)
(0.391364 -0.277731 -9.56808e-22)
(0.409178 -0.287476 -1.57208e-21)
(0.421459 -0.290006 -6.07863e-19)
(0.429524 -0.287262 -3.05587e-19)
(0.434522 -0.280892 0)
(0.437386 -0.272201 9.61693e-22)
(0.43883 -0.262161 6.02271e-19)
(0.439378 -0.251467 -5.96794e-19)
(0.439396 -0.24059 0)
(0.43913 -0.229836 0)
(0.438735 -0.219395 0)
(0.438311 -0.209374 0)
(0.437914 -0.199828 -3.49467e-21)
(0.437576 -0.190776 0)
(0.437311 -0.182217 0)
(0.437122 -0.174138 5.58274e-19)
(0.43704 -0.166502 5.52812e-19)
(0.436993 -0.159263 5.49317e-19)
(0.436003 -0.15255 -1.60659e-21)
(-0.0272696 0.0724861 6.22852e-20)
(-0.0422901 0.140091 -1.35757e-19)
(-0.0234398 0.151053 8.32642e-19)
(0.0184109 0.119888 -1.41705e-19)
(0.0751292 0.062675 1.44032e-19)
(0.138762 -0.00670484 5.10313e-23)
(0.202648 -0.0773112 4.40289e-19)
(0.261768 -0.141502 -5.92116e-19)
(0.312936 -0.19482 8.94951e-19)
(0.35472 -0.235502 1.41387e-21)
(0.387086 -0.263759 -3.00283e-19)
(0.410929 -0.281024 6.02653e-19)
(0.42763 -0.289302 -6.03302e-19)
(0.438705 -0.2907 6.03155e-19)
(0.445579 -0.287143 0)
(0.449464 -0.280235 6.00658e-19)
(0.45132 -0.271225 0)
(0.451871 -0.261033 3.34564e-21)
(0.451633 -0.250303 -5.92353e-19)
(0.450962 -0.239467 -5.88629e-19)
(0.450085 -0.228803 5.84529e-19)
(0.449148 -0.218477 -5.80108e-19)
(0.448234 -0.208583 -5.75413e-19)
(0.447392 -0.199166 -1.14448e-18)
(0.446644 -0.190238 -5.65378e-19)
(0.445999 -0.1818 5.6218e-19)
(0.445454 -0.173836 -1.11448e-18)
(0.44504 -0.166311 -5.52814e-19)
(0.44468 -0.159194 0)
(0.443351 -0.152692 -5.66951e-19)
(-0.0280186 0.0692428 0)
(-0.0422528 0.131973 5.38766e-19)
(-0.0206989 0.139706 -4.16265e-19)
(0.0249673 0.106641 -7.04151e-19)
(0.0858773 0.0487021 0)
(0.15338 -0.0203714 0)
(0.220315 -0.0898068 -8.80647e-19)
(0.281424 -0.152193 1.18093e-18)
(0.333522 -0.203353 -8.91946e-19)
(0.375347 -0.241795 0)
(0.407109 -0.267952 3.00893e-19)
(0.429948 -0.283408 -3.02533e-19)
(0.445454 -0.290235 3.08919e-21)
(0.455293 -0.29055 -3.04343e-19)
(0.460985 -0.286244 -2.99132e-19)
(0.46379 -0.278866 -3.25662e-21)
(0.464689 -0.269605 5.95128e-19)
(0.464404 -0.259321 5.95642e-19)
(0.463439 -0.248607 1.17563e-21)
(0.462132 -0.237857 1.17504e-18)
(0.460696 -0.227318 -1.16776e-18)
(0.45926 -0.217137 1.15806e-18)
(0.457896 -0.207392 5.75415e-19)
(0.456642 -0.19812 5.70491e-19)
(0.455513 -0.189332 3.51653e-21)
(0.454509 -0.181024 0)
(0.453628 -0.173185 5.53216e-19)
(0.4529 -0.16578 -1.64264e-18)
(0.452243 -0.158796 5.39262e-19)
(0.450602 -0.152528 5.63178e-19)
(-0.0285662 0.0658983 -3.68886e-19)
(-0.0416598 0.123556 -1.20943e-18)
(-0.0171489 0.127955 -1.81716e-22)
(0.0324696 0.0929992 2.59426e-21)
(0.0975738 0.0344646 -4.26585e-19)
(0.168816 -0.0340832 0)
(0.238565 -0.102087 -2.90035e-19)
(0.301369 -0.162419 -1.76351e-18)
(0.354099 -0.211218 8.88513e-19)
(0.395703 -0.247285 -5.93064e-19)
(0.42666 -0.271279 8.94022e-19)
(0.448364 -0.284917 -2.98612e-19)
(0.462607 -0.290327 6.00205e-19)
(0.471192 -0.289617 -1.49646e-18)
(0.475721 -0.284632 8.97377e-19)
(0.47749 -0.276855 -9.70695e-22)
(0.477488 -0.267408 -1.77978e-18)
(0.476426 -0.257087 5.91164e-19)
(0.474794 -0.246437 -5.86743e-19)
(0.472907 -0.23581 0)
(0.470963 -0.225426 5.77651e-19)
(0.469074 -0.215412 0)
(0.467299 -0.205834 -5.70516e-19)
(0.465666 -0.196721 5.64918e-19)
(0.464182 -0.188081 5.61867e-19)
(0.462845 -0.179912 5.53064e-19)
(0.461646 -0.172202 0)
(0.460621 -0.164922 0)
(0.459685 -0.15808 -1.08061e-18)
(0.457767 -0.152068 1.6768e-18)
(-0.0289033 0.0624648 3.69334e-19)
(-0.0404816 0.114884 6.69734e-19)
(-0.0127471 0.115868 -5.4677e-19)
(0.0409588 0.0790524 1.11811e-18)
(0.110242 0.0200641 1.44737e-19)
(0.185064 -0.0477371 1.43764e-19)
(0.257361 -0.11406 3.05528e-21)
(0.321544 -0.17211 -5.82169e-19)
(0.374597 -0.218375 -2.93144e-19)
(0.415719 -0.251964 2.91874e-21)
(0.445678 -0.273758 -2.96308e-21)
(0.466128 -0.285593 -8.91522e-19)
(0.479053 -0.289635 -2.96673e-19)
(0.486381 -0.287968 3.13766e-21)
(0.489776 -0.282376 5.92652e-19)
(0.49056 -0.274271 5.909e-19)
(0.489717 -0.264699 3.29839e-21)
(0.487943 -0.254394 -5.85616e-19)
(0.485704 -0.243848 5.84361e-19)
(0.483295 -0.233377 -5.79646e-19)
(0.480892 -0.223172 -1.15187e-18)
(0.478594 -0.213342 -5.71788e-19)
(0.476446 -0.203942 1.13135e-18)
(0.474468 -0.194997 0)
(0.472658 -0.186512 -5.54849e-19)
(0.47101 -0.178483 -1.10262e-18)
(0.469515 -0.170904 -1.09219e-18)
(0.468211 -0.163751 5.41746e-19)
(0.467017 -0.157059 -1.60644e-18)
(0.464859 -0.151319 5.5675e-19)
(-0.0290204 0.0589531 -6.09695e-19)
(-0.0386911 0.105997 1.32889e-19)
(-0.00745646 0.103513 5.46772e-19)
(0.0504664 0.0648923 -4.18592e-19)
(0.123891 0.00560532 1.42657e-19)
(0.202105 -0.0612279 -7.86998e-23)
(0.276656 -0.125634 1.44373e-18)
(0.341883 -0.181197 5.83498e-19)
(0.394943 -0.224786 5.87212e-19)
(0.435326 -0.255827 8.84863e-19)
(0.464109 -0.27541 -8.87269e-19)
(0.483202 -0.285479 5.93569e-19)
(0.49477 -0.288218 1.18731e-18)
(0.500847 -0.285669 5.92926e-19)
(0.503148 -0.279547 -9.48416e-22)
(0.503004 -0.271181 -1.17953e-18)
(0.501385 -0.261542 1.17596e-18)
(0.498963 -0.251298 2.20186e-21)
(0.496179 -0.240893 -5.80958e-19)
(0.493303 -0.230603 5.7627e-19)
(0.490492 -0.220596 5.74221e-19)
(0.487828 -0.210963 -5.66271e-19)
(0.485346 -0.201751 -1.12849e-18)
(0.483054 -0.192978 -5.22916e-22)
(0.480947 -0.184648 5.56356e-19)
(0.479012 -0.176759 5.49554e-19)
(0.477241 -0.169309 1.0851e-18)
(0.475677 -0.162283 -1.06982e-18)
(0.474246 -0.155744 0)
(0.471891 -0.150291 5.53888e-19)
(-0.0289082 0.0553722 2.46645e-21)
(-0.0362636 0.096934 0)
(-0.00124666 0.0909624 -4.05639e-19)
(0.0610127 0.0506125 -1.38326e-19)
(0.138518 -0.00880519 -5.6082e-19)
(0.219906 -0.0744503 0)
(0.296391 -0.136719 -8.63572e-19)
(0.362314 -0.189618 2.89443e-19)
(0.415065 -0.230422 0)
(0.454464 -0.258874 -5.84316e-19)
(0.481906 -0.276264 0)
(0.499555 -0.284624 -8.82464e-19)
(0.509742 -0.286135 8.82247e-19)
(0.51459 -0.282786 -5.90597e-19)
(0.515844 -0.276209 -5.86285e-19)
(0.514832 -0.267649 0)
(0.512504 -0.257996 0)
(0.5095 -0.247856 5.81063e-19)
(0.506231 -0.237621 8.39953e-22)
(0.502944 -0.227534 5.72342e-19)
(0.499774 -0.217739 -5.6872e-19)
(0.496787 -0.208312 1.13111e-18)
(0.494007 -0.199292 -5.5949e-19)
(0.491434 -0.190692 0)
(0.489057 -0.182516 1.65098e-18)
(0.48686 -0.174763 -2.7197e-18)
(0.484834 -0.167437 5.4026e-19)
(0.483028 -0.160533 5.351e-19)
(0.48138 -0.15415 5.25983e-19)
(0.478871 -0.148993 1.09854e-18)
(-0.0285568 0.0517306 -4.79952e-19)
(-0.0331772 0.087734 1.05139e-18)
(0.00590548 0.0782841 5.414e-19)
(0.0726069 0.0363072 1.23654e-18)
(0.154107 -0.0230607 1.53696e-18)
(0.23842 -0.0873009 2.83198e-19)
(0.316498 -0.147229 -1.42656e-18)
(0.382762 -0.197317 0)
(0.434892 -0.235259 -1.15714e-18)
(0.473074 -0.261113 -5.78509e-19)
(0.49903 -0.276353 0)
(0.515167 -0.283076 -5.81555e-19)
(0.523963 -0.283446 -8.41947e-22)
(0.527612 -0.279383 -1.75393e-18)
(0.527875 -0.272428 5.86293e-19)
(0.526062 -0.263737 5.83332e-19)
(0.523091 -0.254119 -1.15638e-18)
(0.51957 -0.244118 -1.15454e-18)
(0.515876 -0.234079 -7.78041e-22)
(0.512231 -0.224212 -2.06857e-21)
(0.508749 -0.214639 0)
(0.505481 -0.205423 -5.61362e-19)
(0.502441 -0.196595 -5.53105e-19)
(0.49962 -0.188165 0)
(0.497001 -0.180138 0)
(0.494565 -0.172515 1.6245e-18)
(0.492303 -0.165305 -1.60059e-18)
(0.490273 -0.158517 0)
(0.488426 -0.152287 1.56767e-18)
(0.485805 -0.14743 -1.09158e-18)
(-0.0279567 0.048036 5.18925e-21)
(-0.0294129 0.0784354 -1.0511e-18)
(0.0140156 0.0655486 -1.34219e-19)
(0.085246 0.0220708 -1.37288e-18)
(0.170624 -0.0370558 -8.37736e-19)
(0.257587 -0.09968 2.81772e-19)
(0.336901 -0.157088 5.71716e-19)
(0.403146 -0.204246 1.43064e-18)
(0.454355 -0.239282 1.15715e-18)
(0.491104 -0.262557 1.16284e-18)
(0.515449 -0.275712 0)
(0.530024 -0.280888 5.99028e-21)
(0.537435 -0.280212 0)
(0.539927 -0.275522 1.16873e-18)
(0.539258 -0.268265 0)
(0.536711 -0.259501 -5.80074e-19)
(0.533166 -0.249963 5.83122e-19)
(0.529191 -0.240133 0)
(0.525131 -0.230311 0)
(0.521179 -0.220678 -1.69642e-18)
(0.517431 -0.211334 5.61935e-19)
(0.513924 -0.20233 0)
(0.51066 -0.193692 1.10531e-18)
(0.507623 -0.185428 1.09911e-18)
(0.50479 -0.177541 -2.1706e-18)
(0.502139 -0.170037 2.14932e-18)
(0.499661 -0.162931 3.75616e-21)
(0.49742 -0.156247 1.04933e-18)
(0.495387 -0.150166 -1.04503e-18)
(0.492691 -0.145604 0)
(-0.0270978 0.0442962 1.19942e-18)
(-0.0249548 0.0690764 -1.30216e-19)
(0.0230915 0.0528255 -1.06632e-18)
(0.0989151 0.00799702 0)
(0.188026 -0.0506877 -1.10452e-18)
(0.277337 -0.111493 0)
(0.357516 -0.166221 -1.41246e-18)
(0.423385 -0.210364 -8.58949e-19)
(0.473387 -0.242481 -1.14567e-18)
(0.50851 -0.263227 0)
(0.531139 -0.274382 2.89857e-19)
(0.54412 -0.278112 2.97038e-19)
(0.550166 -0.276489 -5.7962e-19)
(0.55155 -0.271262 -1.15631e-18)
(0.550014 -0.263775 -5.74713e-19)
(0.546802 -0.254995 -2.30224e-18)
(0.542749 -0.245578 1.15e-18)
(0.538382 -0.235946 -7.42608e-22)
(0.534011 -0.22636 -6.53219e-22)
(0.529803 -0.21697 1.69246e-18)
(0.525835 -0.207858 0)
(0.52213 -0.199067 0)
(0.518679 -0.190614 -3.08713e-21)
(0.515459 -0.182507 3.8368e-21)
(0.512441 -0.17475 -1.07494e-18)
(0.509599 -0.16735 -1.06802e-18)
(0.506923 -0.160331 3.19499e-21)
(0.50448 -0.153734 -1.04935e-18)
(0.502267 -0.147788 -1.03483e-18)
(0.499525 -0.143508 3.4335e-21)
(-0.0259706 0.040519 0)
(-0.0197899 0.0596955 1.03523e-18)
(0.0331331 0.0401846 9.33331e-19)
(0.113588 -0.00582214 1.35522e-19)
(0.206255 -0.0638577 2.20329e-18)
(0.297588 -0.122653 -2.78911e-19)
(0.378253 -0.174568 2.25252e-18)
(0.443398 -0.215639 1.13221e-18)
(0.491925 -0.244857 1.71715e-18)
(0.525252 -0.263146 8.58729e-19)
(0.546084 -0.272405 2.88383e-19)
(0.557457 -0.274799 1.44673e-18)
(0.562169 -0.272335 1.2302e-21)
(0.562502 -0.266659 5.8031e-19)
(0.560166 -0.259013 1.15362e-18)
(0.556358 -0.250268 1.14957e-18)
(0.551862 -0.241008 0)
(0.547162 -0.231599 0)
(0.542533 -0.222263 0)
(0.538117 -0.213124 0)
(0.533973 -0.204249 1.10742e-18)
(0.53011 -0.195668 0)
(0.526511 -0.187395 -3.78175e-21)
(0.523143 -0.179435 2.15995e-18)
(0.519973 -0.171791 1.07124e-18)
(0.516965 -0.164475 1.06061e-18)
(0.514108 -0.157518 2.1001e-18)
(0.511468 -0.150981 0)
(0.509069 -0.145147 -2.05263e-18)
(0.506303 -0.14112 2.15235e-18)
(-0.0245657 0.036713 9.44681e-19)
(-0.0139092 0.0503316 -1.03525e-18)
(0.0441325 0.027695 0)
(0.129226 -0.0192967 -1.0761e-18)
(0.22524 -0.0764721 -2.79818e-19)
(0.31825 -0.133079 -8.29277e-19)
(0.39902 -0.182074 -2.52167e-18)
(0.463106 -0.22005 -6.15666e-21)
(0.509912 -0.246417 -8.50257e-19)
(0.541297 -0.262345 -1.99933e-18)
(0.560272 -0.269824 -2.86263e-19)
(0.570041 -0.271002 -1.14534e-18)
(0.573462 -0.267802 -1.14548e-18)
(0.572806 -0.261765 0)
(0.56974 -0.254025 -1.14105e-18)
(0.565403 -0.245365 -1.70713e-18)
(0.560526 -0.236295 5.66907e-19)
(0.555548 -0.227131 -1.12484e-18)
(0.550712 -0.218058 -1.11749e-18)
(0.546135 -0.209178 0)
(0.541858 -0.200541 -2.20806e-18)
(0.537879 -0.192169 0)
(0.534172 -0.184069 -2.17383e-18)
(0.530695 -0.176244 -1.07524e-18)
(0.527407 -0.168695 -2.12917e-18)
(0.524265 -0.161438 1.05419e-18)
(0.521248 -0.154509 -3.12937e-18)
(0.518414 -0.147989 1.02888e-18)
(0.515812 -0.142226 6.7099e-21)
(0.513036 -0.138402 -1.06969e-18)
(-0.0228739 0.0328873 -9.44701e-19)
(-0.0073069 0.0410242 1.28478e-19)
(0.0560736 0.0154256 9.18038e-19)
(0.145781 -0.0323398 1.07612e-18)
(0.244903 -0.0884433 -1.09298e-18)
(0.339228 -0.1427 5.79514e-21)
(0.419722 -0.188696 1.11781e-18)
(0.482431 -0.223583 -2.24825e-18)
(0.527296 -0.247172 -2.77477e-19)
(0.55662 -0.260855 2.55781e-18)
(0.5737 -0.266684 -1.70859e-18)
(0.581885 -0.266769 2.8554e-18)
(0.584066 -0.26294 2.85677e-18)
(0.582488 -0.256627 -5.69958e-19)
(0.57876 -0.248856 1.14109e-18)
(0.573958 -0.240324 1.70395e-18)
(0.568759 -0.231475 5.61161e-19)
(0.563556 -0.222575 6.57764e-21)
(0.55856 -0.213779 5.60217e-19)
(0.553865 -0.205165 5.52801e-19)
(0.549499 -0.196771 -5.41954e-19)
(0.545447 -0.188607 5.43804e-19)
(0.541674 -0.180676 -1.0747e-18)
(0.538133 -0.172973 1.07152e-18)
(0.53477 -0.1655 6.96344e-21)
(0.531533 -0.15827 1.04359e-18)
(0.528385 -0.151322 6.90232e-21)
(0.525365 -0.144758 -1.0253e-18)
(0.522538 -0.139001 3.52306e-21)
(0.519757 -0.135296 0)
(-0.020887 0.0290522 0)
(1.86303e-05 0.0318143 0)
(0.0689325 0.00344497 -1.18039e-18)
(0.163193 -0.0448677 1.33368e-19)
(0.265155 -0.0996906 0)
(0.360421 -0.151455 1.10085e-18)
(0.440267 -0.1944 2.77511e-19)
(0.5013 -0.226233 8.41898e-19)
(0.544032 -0.247144 1.12864e-18)
(0.571201 -0.258712 -1.13411e-18)
(0.58637 -0.263029 1.13771e-18)
(0.593004 -0.262148 -1.13949e-18)
(0.594005 -0.257796 -1.13952e-18)
(0.591573 -0.251286 0)
(0.587251 -0.243545 0)
(0.582046 -0.235182 0)
(0.576578 -0.226581 -1.12491e-18)
(0.571198 -0.217965 1.67606e-18)
(0.566085 -0.209458 -5.53564e-19)
(0.561315 -0.20112 0)
(0.556901 -0.192975 1.63921e-18)
(0.55282 -0.185023 -5.40411e-19)
(0.54903 -0.177259 1.07472e-18)
(0.545475 -0.169672 -2.11889e-18)
(0.542091 -0.162254 2.10474e-18)
(0.53881 -0.155011 -3.30289e-21)
(0.535574 -0.147978 3.64395e-21)
(0.532381 -0.14128 1.01842e-18)
(0.529308 -0.13542 -4.67836e-22)
(0.526533 -0.131659 1.05815e-18)
(-0.0185974 0.0252191 1.16685e-19)
(0.00806445 0.0227447 -1.2677e-19)
(0.0826766 -0.00817839 2.60365e-19)
(0.181396 -0.0568001 -1.58952e-18)
(0.285901 -0.11014 2.69542e-19)
(0.381724 -0.159291 0)
(0.460562 -0.199161 1.1007e-18)
(0.519647 -0.228004 -1.11002e-18)
(0.560081 -0.246357 0)
(0.585027 -0.255955 1.40447e-18)
(0.598289 -0.258904 -2.8197e-19)
(0.603417 -0.257184 0)
(0.603303 -0.25241 -5.65745e-19)
(0.600087 -0.245782 1.12875e-18)
(0.595235 -0.238124 -5.62402e-19)
(0.589685 -0.229969 5.60769e-19)
(0.583998 -0.221642 -1.11523e-18)
(0.578484 -0.213329 -3.90903e-22)
(0.573294 -0.205126 -3.14293e-22)
(0.568487 -0.197076 -5.43105e-19)
(0.564065 -0.18919 -1.08386e-18)
(0.56 -0.181462 -3.19562e-22)
(0.556245 -0.173873 3.3427e-21)
(0.55274 -0.1664 1.05764e-18)
(0.549408 -0.159023 -1.04382e-18)
(0.546162 -0.151728 1.03673e-18)
(0.542906 -0.144522 -2.04491e-18)
(0.539562 -0.137548 -3.67631e-21)
(0.536208 -0.131361 -1.99923e-18)
(0.533462 -0.127146 1.05266e-18)
(-0.0159977 0.0214007 0)
(0.0168236 0.0138596 -1.00763e-18)
(0.097266 -0.0193769 0)
(0.200311 -0.0680619 5.82458e-21)
(0.307039 -0.119727 2.68262e-19)
(0.403035 -0.166166 2.6617e-22)
(0.48052 -0.202967 -2.1954e-18)
(0.537411 -0.228907 8.33479e-19)
(0.575411 -0.244839 0)
(0.598092 -0.252623 -1.4031e-18)
(0.609467 -0.254352 2.80558e-19)
(0.613145 -0.251918 0)
(0.611986 -0.246821 -5.62769e-19)
(0.608054 -0.240147 5.60991e-19)
(0.602734 -0.232623 5.56393e-19)
(0.596891 -0.224711 1.11472e-18)
(0.591029 -0.216683 -5.5424e-19)
(0.585418 -0.20869 0)
(0.580186 -0.200807 0)
(0.575375 -0.193062 1.08931e-18)
(0.570982 -0.185454 -1.07702e-18)
(0.566976 -0.177969 1.06727e-18)
(0.563312 -0.170578 1.06089e-18)
(0.559932 -0.163243 1.04715e-18)
(0.556758 -0.15592 -1.03654e-18)
(0.553692 -0.148555 1.02952e-18)
(0.550587 -0.1411 1.01539e-18)
(0.547215 -0.133663 -1.00439e-18)
(0.543505 -0.126679 2.86689e-21)
(0.540441 -0.121039 2.09535e-18)
(-0.0130825 0.0176122 1.1543e-19)
(0.0262862 0.00520341 8.82531e-19)
(0.112657 -0.0300875 0)
(0.219859 -0.0785862 1.05324e-18)
(0.328469 -0.128397 0)
(0.424251 -0.172049 0)
(0.500057 -0.205812 8.21963e-19)
(0.554536 -0.22896 -5.27235e-22)
(0.589996 -0.242624 2.77036e-19)
(0.610394 -0.248754 2.78936e-19)
(0.619918 -0.249411 -8.3869e-19)
(0.62221 -0.246387 5.5916e-19)
(0.620077 -0.241062 0)
(0.615498 -0.234409 0)
(0.609767 -0.227067 -1.11655e-18)
(0.603678 -0.21943 0)
(0.597679 -0.211724 -5.51499e-19)
(0.592003 -0.204071 5.47738e-19)
(0.586757 -0.196525 5.4403e-19)
(0.581969 -0.189104 9.33577e-23)
(0.577633 -0.181799 -5.35085e-19)
(0.573721 -0.17459 0)
(0.570195 -0.167438 -1.05043e-18)
(0.567011 -0.160297 1.04011e-18)
(0.564115 -0.153098 0)
(0.561438 -0.145738 0)
(0.558866 -0.138089 0)
(0.556136 -0.130105 0)
(0.552903 -0.121844 -9.8694e-19)
(0.550473 -0.112499 2.08163e-18)
(0.347924 -0.095715 -0.0301675)
(0.353461 -0.0682836 -0.0315182)
(0.359769 -0.0453114 -0.0320455)
(0.36204 -0.0299698 -0.0325887)
(0.362707 -0.0184543 -0.0331009)
(0.361997 -0.00779123 -0.0336012)
(0.360056 0.00290122 -0.0340925)
(0.357441 0.0134286 -0.0345379)
(0.35419 0.0240724 -0.0349869)
(0.350247 0.0338685 -0.035512)
(0.345729 0.0433942 -0.0360627)
(0.340672 0.0522433 -0.0366257)
(0.335183 0.0606358 -0.0371955)
(0.329332 0.068566 -0.0377824)
(0.323129 0.0760105 -0.0383931)
(0.316694 0.0829871 -0.0390296)
(0.309907 0.0894518 -0.0397007)
(0.303122 0.0954482 -0.0403796)
(0.295648 0.100899 -0.0411278)
(0.28917 0.105883 -0.0418249)
(0.280164 0.110262 -0.0426795)
(0.275808 0.114226 -0.0433345)
(0.262609 0.117482 -0.0443571)
(0.264623 0.120382 -0.0449053)