/*--------------------------------*- C++ -*----------------------------------*\
  =========                 |
  \\      /  F ield         | OpenFOAM: The Open Source CFD Toolbox
   \\    /   O peration     | Website:  https://openfoam.org
    \\  /    A nd           | Version:  7
     \\/     M anipulation  |
\*---------------------------------------------------------------------------*/
FoamFile
{
    version     2.0;
    format      ascii;
    class       volVectorField;
    location    "7.9";
    object      U;
}
// * * * * * * * * * * * * * * * * * * * * * * * * * * * * * * * * * * * * * //

dimensions      [0 1 -1 0 0 0 0];

internalField   nonuniform List<vector> 
32000
(
(0.000207248 -0.00418645 -2.60099e-22)
(0.00123384 -0.00796111 0)
(0.00317119 -0.00766901 -2.32876e-21)
(0.00564348 -0.00420155 0)
(0.0086 0.00181201 2.42832e-21)
(0.011963 0.00989744 0)
(0.0156847 0.019676 2.51052e-21)
(0.0197308 0.0308393 -1.90888e-21)
(0.0240718 0.0431379 5.18517e-25)
(0.0286809 0.0563645 6.28584e-25)
(0.0335321 0.0703467 -6.57407e-22)
(0.0386004 0.0849375 2.65343e-21)
(0.0438611 0.100009 0)
(0.0492883 0.115448 -6.74057e-22)
(0.0548555 0.13115 6.76854e-22)
(0.0605351 0.147018 0)
(0.0662983 0.162962 3.42455e-21)
(0.0721159 0.178896 -6.87136e-22)
(0.0779582 0.194737 0)
(0.0837947 0.210407 1.39182e-21)
(0.0895953 0.225831 1.39525e-21)
(0.0953306 0.240936 0)
(0.100972 0.255656 0)
(0.106491 0.269928 0)
(0.111864 0.283693 0)
(0.117066 0.296901 0)
(0.122075 0.309505 0)
(0.126872 0.321467 0)
(0.131441 0.332754 -2.86982e-21)
(0.135769 0.34334 0)
(0.139845 0.353206 2.88909e-21)
(0.143661 0.362341 0)
(0.147213 0.370736 0)
(0.1505 0.378391 0)
(0.153524 0.385306 -2.92326e-21)
(0.15629 0.391484 -1.47498e-21)
(0.158807 0.396921 4.42271e-21)
(0.161094 0.401603 4.77471e-24)
(0.163156 0.405517 2.96762e-21)
(0.164885 0.408619 4.1659e-24)
(0.000285099 -0.00441171 0)
(0.00133406 -0.008561 4.54487e-21)
(0.00315393 -0.0085981 1.1633e-21)
(0.00540505 -0.00542741 -9.87531e-25)
(0.00805491 0.000308131 -1.21422e-21)
(0.0110448 0.00812594 0)
(0.0143408 0.0176432 2.51006e-21)
(0.01792 0.028549 -2.54466e-21)
(0.0217617 0.040594 0)
(0.025846 0.0535706 -5.20832e-21)
(0.0301539 0.067307 0)
(0.0346661 0.0816585 -7.95701e-21)
(0.0393618 0.096499 0)
(0.0442198 0.111717 0)
(0.0492178 0.127209 2.71107e-21)
(0.054331 0.142884 -2.7198e-21)
(0.0595343 0.158651 -2.73822e-21)
(0.0648024 0.174427 0)
(0.0701082 0.190132 8.28686e-21)
(0.0754246 0.205689 -2.76737e-21)
(0.0807249 0.221024 4.53766e-24)
(0.0859819 0.236066 -8.3721e-21)
(0.0911689 0.25075 -5.60486e-21)
(0.0962611 0.265013 -2.82406e-21)
(0.101235 0.278798 8.4612e-21)
(0.106069 0.292052 -8.50927e-21)
(0.110742 0.304728 8.54702e-21)
(0.115235 0.316788 -1.13917e-20)
(0.119533 0.328196 -2.85094e-21)
(0.123622 0.338926 3.2639e-23)
(0.127492 0.348956 -8.59928e-21)
(0.131134 0.35827 -5.76129e-21)
(0.134544 0.366861 1.16159e-20)
(0.13772 0.374721 -1.15993e-20)
(0.140661 0.38185 -2.89681e-21)
(0.143373 0.388244 -1.17044e-20)
(0.145862 0.393898 -1.01923e-23)
(0.148148 0.398794 2.95156e-21)
(0.150222 0.402916 -1.17221e-20)
(0.151976 0.406216 -1.66795e-20)
(0.000372327 -0.00463727 -1.04223e-21)
(0.00145658 -0.00915634 -2.27238e-21)
(0.00316494 -0.00949759 -1.04839e-20)
(0.00520022 -0.00660318 0)
(0.00754998 -0.00113041 1.2146e-21)
(0.0101736 0.00643131 -1.23526e-21)
(0.0130516 0.0156954 -1.50603e-20)
(0.0161731 0.0263496 5.08964e-21)
(0.0195265 0.038143 -2.57682e-21)
(0.0230982 0.0508697 1.56209e-20)
(0.0268758 0.0643596 5.25816e-21)
(0.0308452 0.0784687 2.6539e-21)
(0.0349904 0.093073 -1.06842e-20)
(0.0392936 0.108063 0)
(0.0437359 0.123339 0)
(0.0482966 0.138809 5.44868e-21)
(0.0529535 0.154387 1.52192e-23)
(0.0576837 0.169993 -5.48525e-21)
(0.062464 0.185547 -5.51982e-21)
(0.0672701 0.200974 -1.10705e-20)
(0.0720772 0.216203 1.66843e-20)
(0.076861 0.231164 1.79254e-23)
(0.0815977 0.245792 -1.05347e-23)
(0.0862641 0.260025 5.60332e-21)
(0.090839 0.273806 -1.13006e-20)
(0.0953015 0.287084 2.26038e-20)
(0.0996325 0.29981 0)
(0.103814 0.311945 5.70206e-21)
(0.107831 0.323451 5.72069e-21)
(0.111671 0.334302 1.14904e-20)
(0.115323 0.344472 3.26339e-23)
(0.118778 0.353945 0)
(0.122031 0.362709 5.81362e-21)
(0.125079 0.370755 -5.73418e-21)
(0.127921 0.378079 -5.76984e-21)
(0.130561 0.384673 1.75204e-20)
(0.133006 0.39053 -1.74064e-20)
(0.135274 0.395627 1.17296e-20)
(0.137343 0.399946 -1.74606e-20)
(0.139103 0.403438 6.56419e-21)
(0.000467676 -0.00483122 8.33778e-21)
(0.00159631 -0.00967789 -9.09819e-21)
(0.00319659 -0.0103043 1.86429e-20)
(0.00501924 -0.00767261 0)
(0.00707227 -0.0024535 7.2873e-21)
(0.00933524 0.00485757 1.2358e-20)
(0.011803 0.0138703 2.5101e-21)
(0.0144753 0.0242728 1.27428e-24)
(0.0173499 0.0358127 7.72741e-21)
(0.0204208 0.0482857 -2.60576e-21)
(0.023681 0.0615229 1.31398e-20)
(0.0271214 0.0753826 -1.59056e-20)
(0.0307303 0.0897427 1.60219e-20)
(0.0344938 0.104496 -5.38156e-21)
(0.038396 0.119544 5.40395e-21)
(0.042419 0.134799 -1.08727e-20)
(0.0465436 0.150177 -1.6397e-20)
(0.05075 0.165598 5.48059e-21)
(0.0550173 0.180986 -5.52107e-21)
(0.0593238 0.196268 1.65922e-20)
(0.0636476 0.211373 -1.11117e-20)
(0.0679665 0.226235 -1.11363e-20)
(0.0722586 0.240788 0)
(0.0765031 0.254971 0)
(0.0806806 0.268728 -1.1243e-20)
(0.0847719 0.282008 -1.1301e-20)
(0.0887588 0.294762 -1.131e-20)
(0.0926248 0.306948 0)
(0.0963552 0.318531 0)
(0.0999376 0.32948 -2.28713e-20)
(0.103361 0.339769 -8.71823e-23)
(0.106618 0.34938 1.15042e-20)
(0.109701 0.358297 -1.14682e-20)
(0.112608 0.366509 -1.1586e-20)
(0.115338 0.374009 1.15673e-20)
(0.117891 0.380787 0)
(0.120277 0.386831 1.16362e-20)
(0.12251 0.392116 -2.32736e-20)
(0.124557 0.396621 2.32693e-20)
(0.126308 0.400299 -2.64425e-20)
(0.00056933 -0.00501296 -4.1659e-21)
(0.00175026 -0.0101642 6.82477e-21)
(0.00324546 -0.0110536 -9.3232e-21)
(0.00485829 -0.00866794 0)
(0.00661873 -0.00368989 -1.21468e-20)
(0.00852572 0.00337901 -7.41563e-21)
(0.0105893 0.0121458 1.00406e-20)
(0.0128208 0.0222983 0)
(0.0152265 0.0335848 -1.54548e-20)
(0.0178074 0.0458023 -5.2084e-21)
(0.0205625 0.0587836 -5.25421e-21)
(0.0234876 0.0723891 1.06066e-20)
(0.0265749 0.0864992 -1.06793e-20)
(0.0298132 0.101008 5.37074e-21)
(0.03319 0.115821 0)
(0.0366905 0.130851 1.63139e-20)
(0.0402977 0.146017 5.47083e-21)
(0.043994 0.161242 -1.09858e-20)
(0.0477616 0.176451 2.20266e-20)
(0.0515811 0.191573 -2.21086e-20)
(0.0554323 0.20654 2.21564e-20)
(0.0592953 0.221284 1.11363e-20)
(0.0631506 0.235744 0)
(0.0669794 0.249858 1.12306e-20)
(0.0707637 0.263572 4.1744e-23)
(0.0744859 0.276833 0)
(0.0781289 0.289594 1.131e-20)
(0.0816775 0.301811 -1.13676e-20)
(0.0851177 0.313449 1.13203e-20)
(0.0884373 0.324475 2.28369e-20)
(0.0916261 0.334862 -2.28374e-20)
(0.0946759 0.344589 2.28683e-20)
(0.0975802 0.353639 0)
(0.100335 0.361999 0)
(0.10294 0.369657 2.30402e-20)
(0.105394 0.376602 0)
(0.107706 0.382817 0)
(0.10989 0.388278 -2.31837e-20)
(0.111901 0.39296 2.30868e-20)
(0.113627 0.396816 1.32037e-20)
(0.000675878 -0.0051724 2.08639e-21)
(0.00191436 -0.0105937 0)
(0.00330634 -0.0117231 1.86621e-20)
(0.00471088 -0.00956731 2.38399e-21)
(0.00618088 -0.00481996 2.43151e-21)
(0.00773622 0.0020131 1.48372e-20)
(0.00940187 0.0105373 2.00855e-20)
(0.0111999 0.0204404 0)
(0.0131458 0.0314719 5.15246e-21)
(0.0152478 0.0434304 1.56201e-20)
(0.0175103 0.0561511 2.10208e-20)
(0.0199334 0.0694966 -5.30191e-21)
(0.0225131 0.0833492 -1.60158e-20)
(0.0252412 0.0976056 0)
(0.0281082 0.112174 2.16141e-20)
(0.0311013 0.126969 0)
(0.0342062 0.141912 3.27567e-20)
(0.0374076 0.156928 -1.0947e-20)
(0.0406897 0.171945 0)
(0.0440352 0.186893 -1.10656e-20)
(0.047426 0.201706 -2.68358e-23)
(0.0508442 0.216318 -1.10814e-20)
(0.0542722 0.230667 -1.11249e-20)
(0.0576932 0.244695 1.12136e-20)
(0.0610906 0.258346 -1.11843e-20)
(0.0644481 0.271569 0)
(0.0677501 0.284316 -1.13106e-20)
(0.0709822 0.296544 1.12674e-20)
(0.0741312 0.308216 0)
(0.0771856 0.319298 0)
(0.0801357 0.329762 0)
(0.082973 0.339586 -2.2905e-20)
(0.0856911 0.34875 2.2784e-20)
(0.0882861 0.357238 0)
(0.0907559 0.365037 -1.14978e-20)
(0.0931009 0.372132 0)
(0.0953278 0.378505 2.31061e-20)
(0.0974506 0.384129 -1.14124e-20)
(0.0994112 0.388978 -2.31495e-20)
(0.1011 0.393006 2.61538e-20)
(0.000785925 -0.00531246 1.462e-20)
(0.00208525 -0.0109707 -2.05012e-20)
(0.0033744 -0.0123171 -3.49995e-20)
(0.00457153 -0.0103755 -1.90783e-20)
(0.00575344 -0.00584801 -4.86228e-21)
(0.00696077 0.000755945 -9.88939e-21)
(0.00823382 0.00904044 -4.51953e-20)
(0.0096062 0.0186945 -1.52708e-20)
(0.0111018 0.0294694 -2.57571e-20)
(0.0127358 0.0411657 -2.60325e-20)
(0.0145179 0.0536211 -3.67882e-20)
(0.0164527 0.0667006 -2.11946e-20)
(0.0185393 0.0802889 1.72745e-24)
(0.0207724 0.0942851 -2.14868e-20)
(0.0231449 0.108599 -2.1614e-20)
(0.0256466 0.12315 -3.25934e-20)
(0.028265 0.13786 2.18173e-20)
(0.0309869 0.152656 -1.09424e-20)
(0.0337985 0.167468 0)
(0.0366842 0.18223 2.20693e-20)
(0.0396279 0.196874 0)
(0.0426135 0.211337 4.44318e-20)
(0.0456255 0.22556 0)
(0.0486483 0.239485 -1.11991e-20)
(0.0516669 0.253056 1.1245e-20)
(0.0546663 0.266222 -2.23922e-20)
(0.0576321 0.278937 0)
(0.0605509 0.291157 -2.26352e-20)
(0.0634103 0.302843 2.25411e-20)
(0.0661995 0.313961 0)
(0.0689092 0.324484 0)
(0.071531 0.334385 0)
(0.0740585 0.343644 -2.27657e-20)
(0.0764876 0.352243 0)
(0.0788158 0.360165 -2.29546e-20)
(0.0810429 0.367395 4.58045e-20)
(0.0831755 0.373911 -4.58576e-20)
(0.0852262 0.379686 2.27416e-20)
(0.0871257 0.384693 4.59299e-20)
(0.0887644 0.388888 -2.60676e-20)
(0.000897794 -0.00543093 -1.87968e-20)
(0.00225901 -0.0112923 -9.67142e-24)
(0.00344484 -0.0128325 1.867e-20)
(0.00443459 -0.0110888 3.81638e-20)
(0.00532992 -0.00677086 -4.86361e-21)
(0.00619289 -0.000390394 -1.97918e-20)
(0.00707908 0.0076572 2.00875e-20)
(0.00803338 0.0170623 3.05436e-20)
(0.00908811 0.0275784 1.03024e-20)
(0.0102654 0.0390087 2.60335e-20)
(0.0115801 0.0511939 2.10209e-20)
(0.0130404 0.0640014 3.17876e-20)
(0.0146486 0.0773181 6.40483e-20)
(0.0164021 0.0910462 3.22365e-20)
(0.0182963 0.105098 0)
(0.0203229 0.119395 1.08492e-20)
(0.0224711 0.133861 1.08926e-20)
(0.0247297 0.148426 1.09358e-20)
(0.0270865 0.163022 2.19907e-20)
(0.0295276 0.177583 -1.10219e-20)
(0.0320385 0.192045 0)
(0.0346052 0.206347 -1.3025e-23)
(0.0372136 0.220428 -2.22537e-20)
(0.0398495 0.234233 2.23094e-20)
(0.0424992 0.247707 4.47477e-20)
(0.0451489 0.2608 4.49013e-20)
(0.0477855 0.273464 4.97566e-23)
(0.0503963 0.285657 2.25073e-20)
(0.05297 0.297339 2.25516e-20)
(0.0554965 0.308476 -2.25936e-20)
(0.0579667 0.319038 2.26334e-20)
(0.0603723 0.328998 2.26704e-20)
(0.0627071 0.338334 4.54702e-20)
(0.0649669 0.347027 -1.11979e-22)
(0.0671488 0.355057 6.83544e-20)
(0.0692521 0.362406 4.30392e-23)
(0.0712829 0.369053 -2.28031e-20)
(0.073253 0.374969 -2.29057e-20)
(0.0750816 0.380125 2.28233e-20)
(0.0766591 0.384481 2.60199e-20)
(0.0010101 -0.0055272 1.67307e-20)
(0.00243209 -0.0115567 2.27929e-20)
(0.00351275 -0.013267 1.40175e-20)
(0.00429453 -0.0117057 -1.43126e-20)
(0.00490452 -0.00758741 -2.43263e-20)
(0.00542662 -0.00142475 1.97905e-20)
(0.0059317 0.00638809 0)
(0.0064759 0.0155436 2.03699e-20)
(0.00709976 0.0257984 0)
(0.00783205 0.036959 -4.16595e-20)
(0.00869236 0.0488688 1.05158e-20)
(0.00969248 0.0613979 -5.29882e-20)
(0.0108375 0.0744361 -2.13493e-20)
(0.0121275 0.0878882 1.07527e-20)
(0.0135599 0.10167 1.77415e-23)
(0.0151281 0.115703 -1.08485e-20)
(0.0168232 0.129915 -2.18158e-20)
(0.0186354 0.144239 -4.38086e-20)
(0.0205539 0.158607 0)
(0.0225664 0.172956 3.64217e-23)
(0.0246602 0.187223 -2.20866e-20)
(0.0268227 0.201348 -2.21943e-20)
(0.0290413 0.215274 2.22537e-20)
(0.031303 0.228944 -2.23702e-20)
(0.0335952 0.242305 2.2345e-20)
(0.0359056 0.255308 -4.47546e-20)
(0.0382217 0.267905 5.05909e-23)
(0.0405321 0.280054 -4.49331e-20)
(0.0428262 0.291714 -2.25517e-20)
(0.0450946 0.302852 -5.11073e-23)
(0.0473284 0.313436 -9.64989e-23)
(0.0495196 0.323438 -2.26705e-20)
(0.0516621 0.332835 -2.27045e-20)
(0.0537515 0.341605 -6.07668e-23)
(0.0557848 0.349727 -2.27617e-20)
(0.0577603 0.357183 -7.18399e-23)
(0.0596841 0.363948 -2.28775e-20)
(0.0615666 0.369994 6.81295e-20)
(0.0633164 0.375291 -2.28234e-20)
(0.0648234 0.379804 -2.60511e-20)
(0.00112145 -0.00560016 -1.67322e-20)
(0.00260111 -0.0117622 4.55998e-21)
(0.00357339 -0.0136193 -1.40136e-20)
(0.00414584 -0.0122248 -4.77364e-21)
(0.0044716 -0.00829664 1.9462e-20)
(0.00465649 -0.00234682 -4.95025e-21)
(0.00478646 0.00523286 5.02487e-21)
(0.00492885 0.014138 -3.05575e-20)
(0.00513237 0.0241291 1.03064e-20)
(0.00543194 0.0350158 2.08315e-20)
(0.0058515 0.0466447 0)
(0.00640616 0.0588891 4.24013e-20)
(0.00710386 0.0716418 0)
(0.0079471 0.0848103 -4.29791e-20)
(0.00893481 0.0983126 -2.16122e-20)
(0.0100621 0.112073 0)
(0.0113216 0.126023 0)
(0.012705 0.140095 4.38091e-20)
(0.0142026 0.154224 2.20184e-20)
(0.0158036 0.168349 -4.4116e-20)
(0.0174967 0.182409 2.20835e-20)
(0.019271 0.196345 0)
(0.0211147 0.210101 -2.22871e-20)
(0.0230163 0.223622 4.45714e-20)
(0.0249642 0.236856 -2.22834e-20)
(0.026947 0.249753 -2.24412e-20)
(0.0289534 0.262267 2.23639e-20)
(0.0309728 0.274356 0)
(0.0329955 0.285978 4.50569e-20)
(0.0350125 0.2971 -2.24679e-20)
(0.0370152 0.307689 -2.26395e-20)
(0.0389961 0.317717 -1.44458e-22)
(0.0409489 0.327159 9.05441e-20)
(0.0428692 0.335991 -6.78179e-20)
(0.0447536 0.344192 0)
(0.0465997 0.351741 -2.27128e-20)
(0.0484132 0.358613 -4.55259e-20)
(0.0502033 0.36478 2.25062e-20)
(0.0518682 0.370213 2.26517e-20)
(0.0532967 0.374878 0)
(0.00123032 -0.00564884 -3.35071e-20)
(0.00276241 -0.0119078 -4.5628e-21)
(0.00362204 -0.0138882 3.74095e-20)
(0.00398345 -0.0126453 -3.82184e-20)
(0.0040259 -0.0088982 0)
(0.00387728 -0.00315679 0)
(0.00363865 0.00419109 -1.00545e-20)
(0.00338826 0.0128449 -2.33958e-24)
(0.00318246 0.0225692 1.03092e-20)
(0.00306203 0.0331776 0)
(0.00305521 0.0445203 0)
(0.00318004 0.0564739 -1.05952e-20)
(0.00344695 0.0689341 1.11186e-23)
(0.00386053 0.0818115 1.07507e-20)
(0.00442138 0.0950265 2.16122e-20)
(0.00512602 0.108507 0)
(0.00596833 0.122184 2.18464e-20)
(0.00694116 0.135994 -2.18481e-20)
(0.00803606 0.149874 -4.39766e-20)
(0.00924349 0.163764 4.41194e-20)
(0.0105536 0.177605 7.90076e-23)
(0.0119564 0.19134 -2.21392e-20)
(0.0134416 0.204913 2.22814e-20)
(0.0149984 0.218272 -4.4519e-20)
(0.0166164 0.231364 0)
(0.0182851 0.244141 2.24258e-20)
(0.0199942 0.256557 -4.48158e-20)
(0.0217339 0.26857 2.23815e-20)
(0.0234951 0.280139 -2.24882e-20)
(0.0252694 0.29123 -2.25726e-20)
(0.0270487 0.301809 -2.27377e-20)
(0.0288253 0.311847 9.02284e-20)
(0.0305933 0.321319 -6.76144e-20)
(0.032348 0.330199 -4.53304e-20)
(0.0340854 0.338466 4.50711e-20)
(0.0358027 0.346096 0)
(0.0375047 0.353066 4.53824e-20)
(0.0391991 0.359347 -4.50984e-20)
(0.0407747 0.364909 -2.26518e-20)
(0.0421185 0.369725 0)
(0.00133522 -0.00567258 7.1231e-20)
(0.00291261 -0.0119923 3.19773e-20)
(0.00365423 -0.0140727 -3.74092e-20)
(0.00380228 -0.0129668 3.34396e-20)
(0.00356239 -0.00939229 -4.87075e-21)
(0.00308449 -0.00385508 9.90642e-21)
(0.00248429 0.00326197 0)
(0.00185055 0.011663 -1.01938e-20)
(0.00124727 0.0211174 1.03126e-20)
(0.000720541 0.0314432 1.04258e-20)
(0.000302335 0.0424943 -1.0517e-20)
(1.35685e-05 0.0541507 -1.06112e-20)
(-0.000132956 0.0663117 1.06779e-20)
(-0.000130904 0.0788907 0)
(2.16152e-05 0.0918108 0)
(0.000322436 0.105002 -2.17526e-20)
(0.000766656 0.118398 2.1804e-20)
(0.00134807 0.131936 -2.19447e-20)
(0.00205931 0.145557 2.19627e-20)
(0.00289209 0.159202 2.21006e-20)
(0.00383765 0.172813 -4.42562e-20)
(0.00488706 0.186335 4.4369e-20)
(0.0060309 0.199714 9.04683e-23)
(0.00725963 0.212897 -2.22326e-20)
(0.00856358 0.225835 0)
(0.00993307 0.238478 2.24159e-20)
(0.0113587 0.250782 1.14785e-22)
(0.0128316 0.262704 -2.23678e-20)
(0.0143433 0.274206 0)
(0.0158857 0.28525 4.5091e-20)
(0.0174509 0.295805 -4.48762e-20)
(0.0190315 0.30584 0)
(0.0206216 0.315328 4.52103e-20)
(0.0222162 0.324244 -4.49612e-20)
(0.0238108 0.332565 0)
(0.0254017 0.340266 0)
(0.0269928 0.347325 0)
(0.0285904 0.353713 -4.52333e-20)
(0.0300744 0.359401 4.49434e-20)
(0.0313287 0.364365 5.17981e-20)
(0.00143462 -0.00567068 -3.35318e-20)
(0.00304815 -0.012015 -3.65427e-20)
(0.00366544 -0.0141725 -4.67977e-21)
(0.00359763 -0.0131893 1.43412e-20)
(0.00307653 -0.00977931 -1.94885e-20)
(0.00227388 -0.00444263 1.98213e-20)
(0.00131981 0.00244406 -2.0122e-20)
(0.00031312 0.0105907 -3.05972e-20)
(-0.0006751 0.019772 0)
(-0.00159375 0.0298106 -1.04298e-20)
(-0.00240736 0.0405648 1.05211e-20)
(-0.00309246 0.0519182 0)
(-0.00363431 0.0637735 2.13871e-20)
(-0.00402497 0.0760471 -2.14979e-20)
(-0.00426135 0.0886647 -6.49261e-20)
(-0.00434458 0.101558 -4.21953e-23)
(-0.00427861 0.114665 4.36781e-20)
(-0.00406865 0.127923 -2.1898e-20)
(-0.00372105 0.141276 0)
(-0.0032431 0.154665 0)
(-0.00264268 0.168036 4.42811e-20)
(-0.00192777 0.181334 2.22322e-20)
(-0.00110676 0.194507 -2.21957e-20)
(-0.000188328 0.207503 -2.23311e-20)
(0.000818603 0.220273 4.46461e-20)
(0.00190516 0.23277 -2.23052e-20)
(0.00306284 0.244949 4.48905e-20)
(0.00428351 0.256768 -8.967e-20)
(0.00555919 0.268188 8.97671e-20)
(0.00688206 0.279173 -8.98507e-20)
(0.00824449 0.28969 8.99205e-20)
(0.00963934 0.299708 -8.99755e-20)
(0.0110605 0.3092 4.48778e-20)
(0.0125026 0.31814 4.51489e-20)
(0.0139604 0.326503 2.61119e-22)
(0.0154294 0.334267 2.60968e-22)
(0.0169124 0.341407 -4.48704e-20)
(0.0184139 0.347897 1.80719e-22)
(0.0198056 0.353708 -4.48117e-20)
(0.0209675 0.358821 0)
(0.00152695 -0.00564271 4.19594e-21)
(0.00316563 -0.0119754 -4.57183e-21)
(0.00365141 -0.0141876 1.40452e-20)
(0.00336499 -0.0133134 -1.91297e-20)
(0.0025641 -0.0100604 9.74812e-21)
(0.00144188 -0.00492092 0)
(0.00014234 0.00173569 0)
(-0.00122617 0.00962603 4.07925e-20)
(-0.00258583 0.0185308 5.1621e-20)
(-0.00388101 0.028278 -1.04289e-20)
(-0.00507314 0.0387301 5.26587e-20)
(-0.00613648 0.0497747 -1.06115e-20)
(-0.00705452 0.0613181 0)
(-0.00781809 0.0732797 0)
(-0.00842313 0.0855878 4.32755e-20)
(-0.00886987 0.0981769 0)
(-0.00916134 0.110986 2.18399e-20)
(-0.00930191 0.123956 -2.19811e-20)
(-0.00929705 0.137031 0)
(-0.00915327 0.150156 -4.41868e-20)
(-0.00887761 0.163277 -2.20959e-20)
(-0.0084772 0.176341 -6.65764e-20)
(-0.00795953 0.189296 -2.22925e-20)
(-0.00733251 0.202094 2.22447e-20)
(-0.00660435 0.214686 4.46632e-20)
(-0.00578313 0.227024 0)
(-0.00487655 0.239065 4.47793e-20)
(-0.00389212 0.250768 8.97617e-20)
(-0.00283738 0.262094 2.31137e-22)
(-0.0017199 0.273007 -4.47806e-20)
(-0.000547118 0.283473 -4.50463e-20)
(0.000673904 0.293463 4.48196e-20)
(0.00193685 0.302947 4.50758e-20)
(0.00323593 0.3119 -8.99038e-20)
(0.00456514 0.320298 8.98859e-20)
(0.00591869 0.328115 -4.4964e-20)
(0.0072982 0.33533 4.47748e-20)
(0.00870612 0.341919 8.9732e-20)
(0.0100069 0.347852 4.47506e-20)
(0.0110753 0.353114 5.12823e-20)
(0.00161062 -0.00558828 -3.3603e-20)
(0.00326163 -0.0118735 3.20269e-20)
(0.00360802 -0.0141185 -2.81129e-20)
(0.00310017 -0.01334 2.87155e-20)
(0.00202127 -0.0102369 4.87699e-20)
(0.00058528 -0.00529185 -3.96828e-20)
(-0.00105048 0.00113458 5.03541e-20)
(-0.00276871 0.00876666 3.06234e-20)
(-0.00448536 0.0173917 -7.22837e-20)
(-0.0061407 0.0268431 2.08818e-20)
(-0.00769343 0.0369881 1.05526e-20)
(-0.00911584 0.0477185 2.12534e-20)
(-0.01039 0.0589443 2.14225e-20)
(-0.0115058 0.0705877 -4.30862e-20)
(-0.0124583 0.0825797 4.33332e-20)
(-0.013247 0.0948572 6.53455e-20)
(-0.0138742 0.107361 -6.55602e-20)
(-0.0143434 0.120035 8.78202e-20)
(-0.0146595 0.132825 4.40839e-20)
(-0.0148283 0.145677 6.63241e-20)
(-0.0148561 0.158538 2.22169e-20)
(-0.0147492 0.171359 4.44154e-20)
(-0.0145143 0.184088 -4.45398e-20)
(-0.0141587 0.196677 0)
(-0.0136899 0.209078 -1.34122e-19)
(-0.0131152 0.221247 8.94701e-20)
(-0.0124416 0.233139 -4.45707e-20)
(-0.011676 0.244714 -4.46082e-20)
(-0.0108257 0.255934 1.12387e-22)
(-0.00989789 0.266763 0)
(-0.00890008 0.277167 0)
(-0.00783919 0.287117 4.4898e-20)
(-0.00672182 0.296583 -4.50266e-20)
(-0.00555438 0.30554 4.47785e-20)
(-0.00434382 0.313963 -4.49953e-20)
(-0.00309727 0.321828 -4.49716e-20)
(-0.00181474 0.329113 0)
(-0.000495916 0.335798 -4.46565e-20)
(0.000717327 0.341853 -4.45292e-20)
(0.00169296 0.347266 -1.53919e-19)
(0.00168407 -0.00550728 3.36037e-20)
(0.00333283 -0.0117097 -3.2024e-20)
(0.00353131 -0.0139661 3.74803e-20)
(0.00279926 -0.0132708 -6.70124e-20)
(0.00144465 -0.010311 -4.8774e-20)
(-0.000298609 -0.00555785 3.96827e-20)
(-0.00226046 0.000638141 -8.05859e-20)
(-0.00431529 0.00800992 -4.0827e-20)
(-0.00637344 0.0163519 5.16496e-20)
(-0.00837152 0.0255034 -9.39701e-20)
(-0.0102659 0.0353367 -6.32364e-20)
(-0.0120271 0.0457481 -2.12782e-20)
(-0.0136363 0.0566508 -6.4235e-20)
(-0.0150825 0.0679703 6.46229e-20)
(-0.0163603 0.0796402 -4.33333e-20)
(-0.0174685 0.0915999 -4.35542e-20)
(-0.0184086 0.103792 0)
(-0.0191837 0.116163 -4.39277e-20)
(-0.0197981 0.12866 -6.61686e-20)
(-0.0202568 0.141231 2.20874e-20)
(-0.0205657 0.153825 -4.4343e-20)
(-0.0207304 0.166393 0)
(-0.0207568 0.178886 4.454e-20)
(-0.0206516 0.191257 4.47267e-20)
(-0.0204216 0.203459 -4.46425e-20)
(-0.0200734 0.215447 0)
(-0.0196134 0.227179 0)
(-0.019048 0.238616 0)
(-0.0183842 0.249719 9.70123e-24)
(-0.0176291 0.260452 0)
(-0.01679 0.270784 -8.98894e-20)
(-0.0158739 0.280683 -1.23552e-22)
(-0.0148878 0.290121 -8.98551e-20)
(-0.0138389 0.299073 8.97087e-20)
(-0.0127352 0.307514 -4.47101e-20)
(-0.0115853 0.315421 4.48145e-20)
(-0.0103913 0.322773 0)
(-0.00915512 0.329552 8.94892e-20)
(-0.00802403 0.33573 -4.44867e-20)
(-0.00713847 0.341298 0)
(0.00174573 -0.00539973 4.20482e-21)
(0.00337604 -0.0114845 0)
(0.00341757 -0.0137318 -4.68915e-20)
(0.00245867 -0.0131077 5.74557e-20)
(0.00083118 -0.0102852 2.9289e-20)
(-0.00121199 -0.00572178 -3.97156e-20)
(-0.00348883 0.000243371 4.03017e-20)
(-0.00586611 0.00735278 -4.08647e-20)
(-0.00824917 0.0154085 0)
(-0.0105715 0.0242563 4.17766e-20)
(-0.0127873 0.0337738 -4.21971e-20)
(-0.0148661 0.0438615 -2.8384e-23)
(-0.0167882 0.0544363 0)
(-0.018542 0.0654268 4.31538e-20)
(-0.0201218 0.0767694 -2.16927e-20)
(-0.0215259 0.0884056 4.36782e-20)
(-0.0227553 0.100281 2.19529e-20)
(-0.0238125 0.112342 -4.40131e-20)
(-0.0247013 0.12454 0)
(-0.0254265 0.136823 6.64889e-20)
(-0.0259933 0.149142 2.22643e-20)
(-0.0264066 0.16145 0)
(-0.0266718 0.173699 0)
(-0.0267948 0.185842 0)
(-0.026782 0.197834 4.47204e-20)
(-0.0266392 0.209633 0)
(-0.0263723 0.221195 -4.49298e-20)
(-0.0259873 0.232483 8.97204e-20)
(-0.0254909 0.243458 -8.9646e-20)
(-0.02489 0.254087 0)
(-0.0241919 0.264336 4.48884e-20)
(-0.0234038 0.274175 -4.48775e-20)
(-0.0225331 0.283577 4.48661e-20)
(-0.0215879 0.292516 0)
(-0.0205774 0.300968 0)
(-0.0195122 0.308911 4.48328e-20)
(-0.0183963 0.316328 -4.45595e-20)
(-0.0172343 0.323201 8.93775e-20)
(-0.0161778 0.329505 -8.88046e-20)
(-0.0153776 0.335232 0)
(0.00179408 -0.0052658 2.94682e-20)
(0.00338816 -0.0111992 9.16502e-21)
(0.00326333 -0.0134175 3.7515e-20)
(0.00207515 -0.0128531 3.83324e-20)
(0.000178242 -0.0101624 -3.90495e-20)
(-0.00215661 -0.00578688 3.97157e-20)
(-0.0047363 -5.31195e-05 4.03369e-20)
(-0.00742078 0.00679187 4.08648e-20)
(-0.010111 0.0145585 0)
(-0.0127378 0.0230991 4.18239e-20)
(-0.0152539 0.0322969 4.21972e-20)
(-0.0176279 0.0420568 4.25529e-20)
(-0.0198396 0.0522996 0)
(-0.0218772 0.0629568 3.81061e-23)
(-0.0237346 0.0739673 4.34072e-20)
(-0.0254099 0.0852752 -2.17811e-20)
(-0.0269038 0.0968278 -2.18562e-20)
(-0.0282183 0.108575 6.60624e-20)
(-0.0293569 0.120467 6.41672e-23)
(-0.030324 0.132456 -2.20817e-20)
(-0.0311244 0.144494 -4.44318e-20)
(-0.0317624 0.156534 0)
(-0.0322428 0.168531 0)
(-0.0325711 0.180439 0)
(-0.0327528 0.192214 0)
(-0.0327933 0.203814 0)
(-0.0326979 0.215198 0)
(-0.0324724 0.226327 4.49904e-20)
(-0.0321231 0.237166 -4.48034e-20)
(-0.0316568 0.247679 0)
(-0.0310807 0.257836 0)
(-0.0304023 0.267606 4.48777e-20)
(-0.0296296 0.276964 0)
(-0.0287716 0.285882 4.49058e-20)
(-0.0278391 0.29434 -4.46488e-20)
(-0.0268444 0.302317 0)
(-0.0257943 0.309795 8.94164e-20)
(-0.024696 0.316763 -8.88567e-20)
(-0.0237046 0.323195 0)
(-0.0229827 0.329089 0)
(0.00182763 -0.00510591 -3.36733e-20)
(0.00336629 -0.0108551 -9.16603e-21)
(0.00306537 -0.0130254 9.3857e-21)
(0.00164581 -0.0125101 -3.83324e-20)
(-0.00051635 -0.00994601 0)
(-0.0031337 -0.00575688 0)
(-0.00600304 -0.000255128 -3.02491e-20)
(-0.00897833 0.00632349 -1.02221e-20)
(-0.0119569 0.0137982 -2.07015e-20)
(-0.0148673 0.0220286 -2.09126e-20)
(-0.0176613 0.0309034 -2.11303e-20)
(-0.0203069 0.0403322 2.12881e-20)
(-0.0227838 0.0502394 2.14633e-20)
(-0.0250802 0.0605595 -2.16031e-20)
(-0.0271898 0.0712343 0)
(-0.0291107 0.08221 0)
(-0.0308431 0.0934361 -4.38822e-20)
(-0.0323891 0.104864 0)
(-0.0337518 0.116446 0)
(-0.0349354 0.128136 4.45208e-20)
(-0.035944 0.139887 1.4918e-22)
(-0.0367817 0.151654 1.08173e-22)
(-0.0374529 0.163393 -4.47905e-20)
(-0.0379623 0.175058 4.46944e-20)
(-0.038315 0.186608 4.4867e-20)
(-0.0385156 0.198001 -4.49098e-20)
(-0.0385692 0.209198 0)
(-0.0384811 0.220161 4.50282e-20)
(-0.0382575 0.230854 1.95651e-22)
(-0.0379049 0.241244 -4.48353e-20)
(-0.0374306 0.251299 0)
(-0.0368424 0.260993 0)
(-0.0361489 0.270297 4.49463e-20)
(-0.0353603 0.279189 -4.46986e-20)
(-0.0344887 0.287648 -4.48261e-20)
(-0.0335487 0.295653 4.45608e-20)
(-0.0325502 0.303192 0)
(-0.0315031 0.310255 0)
(-0.0305646 0.316821 0)
(-0.0299119 0.322887 -5.09136e-20)
(0.00184497 -0.00492066 4.21404e-20)
(0.00330771 -0.0104542 -1.83459e-20)
(0.00282079 -0.0125583 9.38994e-21)
(0.00116814 -0.0120821 0)
(-0.00125434 -0.00964002 4.88655e-20)
(-0.004144 -0.00563591 1.47397e-24)
(-0.0072887 -0.000366818 4.03746e-20)
(-0.0105373 0.00594363 -3.06892e-20)
(-0.013784 0.013124 4.14144e-20)
(-0.0169561 0.0210415 -2.09236e-20)
(-0.0200044 0.0295906 0)
(-0.022897 0.0386855 2.1331e-20)
(-0.0256137 0.0482543 -6.44063e-20)
(-0.0281428 0.0582347 0)
(-0.0304781 0.0685708 6.53227e-20)
(-0.0326176 0.0792114 -4.37278e-20)
(-0.0345617 0.0901078 -4.39625e-20)
(-0.0363123 0.101213 2.20433e-20)
(-0.0378723 0.112482 0)
(-0.0392457 0.123868 -4.44214e-20)
(-0.0404364 0.135328 -4.46521e-20)
(-0.0414479 0.146816 -4.62966e-23)
(-0.0422843 0.158291 4.48029e-20)
(-0.0429498 0.169708 4.49275e-20)
(-0.0434487 0.181027 -8.96774e-20)
(-0.0437855 0.192207 4.49101e-20)
(-0.0439645 0.203209 0)
(-0.0439909 0.213997 -4.50088e-20)
(-0.0438706 0.224536 4.50079e-20)
(-0.0436098 0.234794 4.4994e-20)
(-0.0432159 0.244741 -4.49669e-20)
(-0.0426971 0.25435 4.49265e-20)
(-0.0420628 0.263594 0)
(-0.0413241 0.272453 4.48899e-20)
(-0.0404949 0.280907 8.97186e-20)
(-0.039592 0.288938 -8.90957e-20)
(-0.0386287 0.296537 8.92477e-20)
(-0.0376181 0.303697 3.25479e-22)
(-0.0367183 0.310401 -4.41653e-20)
(-0.0361233 0.316648 1.01803e-19)
(0.00184476 -0.00471089 -2.52906e-20)
(0.00320991 -0.00999862 -5.50639e-20)
(0.002527 -0.0120196 3.75795e-20)
(0.00064005 -0.0115731 -2.87808e-20)
(-0.00203698 -0.00924875 -9.76279e-21)
(-0.00518776 -0.00542848 9.94199e-21)
(-0.00859236 -0.000392657 -2.01777e-20)
(-0.0120955 0.00564803 -2.04629e-20)
(-0.0155893 0.0125321 2.07257e-20)
(-0.0189998 0.0201346 -4.18906e-20)
(-0.0222778 0.0283558 -2.38483e-23)
(-0.0253916 0.0371147 2.13199e-20)
(-0.0283214 0.0463431 0)
(-0.0310559 0.0559818 -2.16704e-20)
(-0.0335893 0.0659774 -2.17804e-20)
(-0.0359196 0.0762809 4.37778e-20)
(-0.0380474 0.0868455 0)
(-0.0399746 0.0976261 0)
(-0.0417042 0.108578 4.44401e-20)
(-0.0432398 0.119658 -4.4446e-20)
(-0.0445852 0.130823 0)
(-0.0457436 0.14203 4.48293e-20)
(-0.0467186 0.153236 -4.46381e-20)
(-0.047514 0.164401 -8.98192e-20)
(-0.0481338 0.175482 -1.74458e-22)
(-0.0485816 0.186443 4.49691e-20)
(-0.0488617 0.197244 -8.9998e-20)
(-0.0489787 0.207851 4.5009e-20)
(-0.0489382 0.218229 -4.50081e-20)
(-0.0487464 0.228348 1.14942e-22)
(-0.0484107 0.238178 7.29007e-23)
(-0.0479394 0.247695 -4.49267e-20)
(-0.047343 0.256873 -4.49002e-20)
(-0.0466334 0.265692 -4.48241e-20)
(-0.0458264 0.274136 8.58229e-24)
(-0.0449413 0.28219 0)
(-0.0439951 0.289847 -4.45169e-20)
(-0.043004 0.297105 8.89425e-20)
(-0.0421264 0.303953 -1.32651e-19)
(-0.0415751 0.310389 2.96972e-22)
(0.00182576 -0.0044776 -8.43722e-21)
(0.00307065 -0.00949109 7.3433e-20)
(0.00218178 -0.0114128 -3.75773e-20)
(5.98749e-05 -0.0109875 2.87791e-20)
(-0.00286505 -0.00877698 -7.82252e-20)
(-0.00626466 -0.00513946 9.94531e-21)
(-0.00991262 -0.000337383 -4.04044e-20)
(-0.0136504 0.00543225 0)
(-0.0173688 0.0120185 0)
(-0.0209934 0.0193042 -4.19279e-20)
(-0.0244754 0.0271961 2.11783e-20)
(-0.0277836 0.0356178 1.51754e-23)
(-0.0308988 0.0445047 2.15023e-20)
(-0.0338104 0.0538005 0)
(-0.036513 0.0634547 -6.54736e-20)
(-0.0390051 0.0734202 2.19035e-20)
(-0.0412875 0.083652 -4.41049e-20)
(-0.0433624 0.0941066 0)
(-0.0452327 0.104741 0)
(-0.0469019 0.115513 3.94103e-23)
(-0.0483736 0.126381 -4.46367e-20)
(-0.0496509 0.137303 4.48583e-20)
(-0.050737 0.148238 -4.49939e-20)
(-0.0516355 0.159146 4.48974e-20)
(-0.0523495 0.169987 4.88082e-23)
(-0.0528825 0.180723 5.25412e-23)
(-0.0532382 0.191319 4.50611e-20)
(-0.0534211 0.201738 -4.51364e-20)
(-0.0534362 0.211949 0)
(-0.0532897 0.221922 -4.516e-20)
(-0.0529888 0.231629 4.49449e-20)
(-0.0525424 0.241046 0)
(-0.0519613 0.250151 4.49004e-20)
(-0.0512589 0.258925 -4.50102e-20)
(-0.0504525 0.267354 4.45858e-20)
(-0.0495641 0.275427 0)
(-0.0486149 0.28314 1.33691e-19)
(-0.0476244 0.290498 -8.86157e-20)
(-0.0467501 0.297494 0)
(-0.0462262 0.304127 5.08375e-20)
(0.00178684 -0.00422201 6.75517e-20)
(0.0028879 -0.0089345 -3.6724e-20)
(0.00178325 -0.0107419 -9.3976e-21)
(-0.00057359 -0.0103299 9.5991e-21)
(-0.0037388 -0.00822979 3.91184e-20)
(-0.00737388 -0.004774 0)
(-0.0112475 -0.000205979 4.04047e-20)
(-0.0151989 0.00529163 6.14682e-20)
(-0.0191183 0.0115789 2.07325e-20)
(-0.0229316 0.0185469 2.09451e-20)
(-0.0265906 0.0261088 2.11668e-20)
(-0.0300652 0.0341926 -6.41073e-20)
(-0.033337 0.0427377 2.15216e-20)
(-0.0363964 0.0516908 8.68248e-20)
(-0.0392385 0.0610036 2.17813e-20)
(-0.0418624 0.0706312 2.19303e-20)
(-0.0442694 0.0805304 4.41052e-20)
(-0.0464617 0.090659 0)
(-0.0484428 0.100976 0)
(-0.0502159 0.111439 8.9352e-20)
(-0.0517846 0.12201 -1.79223e-19)
(-0.0531517 0.132646 -4.22126e-23)
(-0.0543205 0.143308 0)