/*--------------------------------*- C++ -*----------------------------------*\
  =========                 |
  \\      /  F ield         | OpenFOAM: The Open Source CFD Toolbox
   \\    /   O peration     | Website:  https://openfoam.org
    \\  /    A nd           | Version:  7
     \\/     M anipulation  |
\*---------------------------------------------------------------------------*/
FoamFile
{
    version     2.0;
    format      ascii;
    class       volScalarField;
    location    "7.7";
    object      p;
}
// * * * * * * * * * * * * * * * * * * * * * * * * * * * * * * * * * * * * * //

dimensions      [0 2 -2 0 0 0 0];

internalField   nonuniform List<scalar> 
18000
(
0.471845
0.472779
0.473332
0.473856
0.47427
0.474595
0.474882
0.475188
0.475563
0.476047
0.476684
0.477513
0.478578
0.479912
0.481532
0.483447
0.485658
0.488165
0.490965
0.494046
0.497387
0.50096
0.504734
0.508677
0.512756
0.516939
0.521196
0.525497
0.529799
0.534035
0.471373
0.472246
0.472756
0.473231
0.473597
0.473871
0.474108
0.474362
0.47468
0.475107
0.475682
0.476441
0.477425
0.478666
0.480183
0.481985
0.484075
0.486455
0.489118
0.492054
0.495244
0.498662
0.502278
0.506063
0.509984
0.514012
0.518118
0.522273
0.526425
0.530531
0.470918
0.471723
0.472183
0.472607
0.472924
0.473153
0.473347
0.473557
0.473827
0.474203
0.474724
0.475424
0.476338
0.477497
0.47892
0.480619
0.482599
0.484859
0.487393
0.490191
0.493235
0.496502
0.499963
0.50359
0.507354
0.511225
0.515177
0.519178
0.523173
0.527142
0.470465
0.471191
0.471607
0.471981
0.472255
0.472447
0.472604
0.472777
0.473008
0.473343
0.473818
0.474468
0.475322
0.476409
0.477749
0.479355
0.481233
0.483382
0.485795
0.488461
0.491365
0.494484
0.497792
0.501263
0.504869
0.508582
0.512375
0.516219
0.520049
0.52387
0.47003
0.470674
0.471041
0.471366
0.471601
0.471758
0.471885
0.472027
0.472227
0.472529
0.472968
0.473575
0.474378
0.475403
0.47667
0.478194
0.479981
0.482026
0.484325
0.486865
0.489634
0.49261
0.495769
0.499085
0.502533
0.506086
0.509717
0.513397
0.517056
0.52072
0.469609
0.470161
0.47048
0.470759
0.470956
0.471086
0.471187
0.471306
0.471485
0.471762
0.472173
0.472746
0.473506
0.47448
0.475686
0.47714
0.478843
0.480793
0.482983
0.485405
0.488045
0.490882
0.493895
0.49706
0.50035
0.50374
0.507205
0.510716
0.514198
0.517698
0.469205
0.46966
0.469931
0.470165
0.470327
0.470431
0.470515
0.470619
0.470784
0.471045
0.471436
0.471982
0.472709
0.473642
0.4748
0.476192
0.47782
0.479682
0.481772
0.484082
0.486599
0.489303
0.492174
0.495188
0.498321
0.501547
0.504843
0.50818
0.511478
0.514807
0.468816
0.469171
0.469392
0.469582
0.469711
0.469795
0.469867
0.469965
0.470124
0.470377
0.470755
0.471283
0.471988
0.472891
0.474009
0.475349
0.476911
0.478693
0.480691
0.482896
0.485296
0.487872
0.490605
0.493473
0.496448
0.499509
0.502632
0.505791
0.508902
0.512052
0.468439
0.46869
0.468862
0.469008
0.469109
0.469177
0.469244
0.469342
0.469503
0.469755
0.470129
0.470649
0.471341
0.472225
0.473313
0.47461
0.476114
0.477825
0.479738
0.481846
0.484136
0.486591
0.48919
0.491913
0.494733
0.497627
0.500577
0.503554
0.506474
0.509438
0.468073
0.468218
0.46834
0.468444
0.468519
0.468577
0.468645
0.46875
0.468919
0.46918
0.469558
0.47008
0.470769
0.471643
0.472709
0.473971
0.475427
0.477075
0.478912
0.48093
0.483117
0.485456
0.487928
0.490509
0.493175
0.495904
0.498678
0.501472
0.504198
0.506969
0.467713
0.46775
0.467823
0.467887
0.46794
0.467992
0.468067
0.468186
0.468371
0.468647
0.469039
0.469572
0.470268
0.47114
0.472194
0.47343
0.474847
0.476442
0.478211
0.480146
0.482238
0.484468
0.486816
0.489259
0.491774
0.494339
0.496939
0.499548
0.502077
0.50465
0.467356
0.467282
0.467308
0.467334
0.467369
0.467421
0.467509
0.467647
0.467856
0.468155
0.468569
0.469122
0.469834
0.470713
0.471764
0.472983
0.47437
0.47592
0.477628
0.47949
0.481493
0.483621
0.485852
0.488162
0.490529
0.492933
0.495358
0.497782
0.500115
0.502485
0.466996
0.466811
0.466792
0.466784
0.466805
0.466861
0.466966
0.467131
0.467369
0.467699
0.468143
0.468725
0.469461
0.470357
0.471412
0.472624
0.473989
0.475502
0.47716
0.478956
0.48088
0.482912
0.485031
0.487214
0.489438
0.491683
0.493936
0.496175
0.498315
0.500479
0.466628
0.466332
0.466269
0.466231
0.466243
0.466309
0.466436
0.466632
0.466906
0.467274
0.467756
0.468375
0.469143
0.470063
0.471132
0.472345
0.473696
0.475182
0.476798
0.478538
0.480389
0.482334
0.484348
0.486409
0.488495
0.490587
0.492671
0.49473
0.496678
0.498635
0.466244
0.465839
0.465736
0.465671
0.465678
0.465758
0.465912
0.466145
0.466461
0.466873
0.4674
0.468064
0.468872
0.469825
0.470916
0.472137
0.473483
0.47495
0.476533
0.478226
0.480014
0.481878
0.483794
0.48574
0.487695
0.489639
0.49156
0.493443
0.495206
0.496956
0.46584
0.465327
0.465187
0.465099
0.465106
0.465203
0.46539
0.465664
0.466027
0.466489
0.467069
0.467784
0.46864
0.469633
0.470752
0.47199
0.473339
0.474796
0.476355
0.47801
0.479743
0.481534
0.483359
0.485198
0.487029
0.488833
0.490599
0.492313
0.493899
0.495444
0.465408
0.46479
0.464617
0.46451
0.464521
0.464639
0.464862
0.465182
0.465597
0.466115
0.466754
0.467528
0.468438
0.469476
0.470631
0.471893
0.473253
0.474708
0.476253
0.477877
0.479563
0.481289
0.483031
0.48477
0.486486
0.48816
0.489779
0.491334
0.492753
0.494098
0.464943
0.464224
0.464021
0.463899
0.463917
0.464061
0.464322
0.464691
0.465163
0.465744
0.466448
0.467286
0.468256
0.469345
0.470542
0.471833
0.473213
0.474675
0.476213
0.477814
0.47946
0.481128
0.482795
0.484443
0.486053
0.487607
0.48909
0.490497
0.491762
0.492915
0.464438
0.463622
0.463393
0.463261
0.46329
0.463461
0.463763
0.464185
0.464718
0.465366
0.466141
0.467049
0.468083
0.469228
0.470471
0.4718
0.473205
0.474681
0.476219
0.477804
0.479416
0.481033
0.482634
0.484201
0.485715
0.487159
0.488519
0.48979
0.490916
0.491887
0.463886
0.462978
0.462727
0.46259
0.462632
0.462833
0.463179
0.463656
0.464254
0.464975
0.465825
0.466806
0.467908
0.469113
0.470407
0.471777
0.473215
0.474711
0.476254
0.477829
0.479414
0.480987
0.482528
0.484022
0.485451
0.486798
0.488047
0.489198
0.490201
0.491005
0.463279
0.462286
0.462017
0.461879
0.461939
0.462172
0.462564
0.463098
0.463763
0.46456
0.465489
0.466547
0.467718
0.468987
0.470336
0.471752
0.473225
0.474746
0.4763
0.477869
0.479432
0.480966
0.482456
0.483885
0.485239
0.4865
0.487653
0.488698
0.489597
0.490251
0.46261
0.461538
0.461257
0.461121
0.461202
0.46147
0.461909
0.462502
0.463238
0.464113
0.465123
0.466258
0.467502
0.468836
0.470242
0.471708
0.473221
0.474769
0.476337
0.477903
0.479447
0.480948
0.482392
0.483764
0.485052
0.486238
0.487308
0.488264
0.48908
0.489606
0.461872
0.460731
0.46044
0.460311
0.460416
0.460721
0.461209
0.461863
0.46267
0.463624
0.464716
0.46593
0.467246
0.468646
0.470112
0.471629
0.473183
0.47476
0.476342
0.477908
0.479436
0.480907
0.482309
0.48363
0.484858
0.48598
0.486979
0.487864
0.488619
0.489043
0.461059
0.459857
0.459561
0.459443
0.459574
0.459918
0.460456
0.461171
0.462051
0.463085
0.464258
0.465549
0.466938
0.468404
0.46993
0.471498
0.473093
0.474699
0.476296
0.477861
0.479373
0.480816
0.482177
0.48345
0.484624
0.485687
0.486628
0.487457
0.488174
0.488528
0.460164
0.458911
0.458614
0.45851
0.458669
0.459054
0.459643
0.460421
0.461374
0.462487
0.463739
0.465106
0.466566
0.468097
0.469681
0.471299
0.472934
0.474567
0.476176
0.477739
0.479234
0.480646
0.481967
0.48319
0.484311
0.48532
0.486208
0.486996
0.487699
0.488019
0.459182
0.457889
0.457595
0.457508
0.457698
0.458124
0.458766
0.459606
0.460632
0.461821
0.463149
0.46459
0.466118
0.467712
0.469351
0.471017
0.472688
0.474344
0.475962
0.477518
0.478992
0.480369
0.481645
0.482815
0.483878
0.48483
0.485669
0.486423
0.487133
0.487464
0.458107
0.456786
0.456499
0.456433
0.456656
0.457124
0.457818
0.458721
0.459817
0.46108
0.462481
0.46399
0.465582
0.467235
0.468927
0.470635
0.472338
0.474012
0.475632
0.477176
0.478621
0.479957
0.481179
0.482287
0.483283
0.484168
0.484947
0.485666
0.486396
0.486791
0.456936
0.455599
0.455324
0.455283
0.455539
0.456051
0.456796
0.45776
0.458924
0.460257
0.461725
0.463298
0.464949
0.466655
0.468393
0.470138
0.471865
0.47355
0.475166
0.476689
0.478098
0.479382
0.480538
0.481568
0.482478
0.483274
0.483973
0.484636
0.485387
0.485922
0.455664
0.454325
0.454067
0.454054
0.454346
0.4549
0.455696
0.45672
0.457947
0.459344
0.460874
0.462505
0.464209
0.465962
0.467738
0.469511
0.471254
0.472941
0.474543
0.476035
0.477395
0.478615
0.479689
0.480621
0.481417
0.482088
0.482661
0.483228
0.484002
0.48483
0.45429
0.452963
0.452728
0.452746
0.453075
0.453671
0.454516
0.455595
0.456881
0.458337
0.459922
0.461603
0.463351
0.465142
0.466948
0.468739
0.470488
0.472166
0.473743
0.475191
0.476492
0.477631
0.478605
0.479412
0.480052
0.480532
0.480879
0.481198
0.481735
0.482616
0.548262
0.567508
0.582021
0.592831
0.600235
0.605587
0.609273
0.61186
0.613598
0.614714
0.615332
0.615529
0.615375
0.614933
0.614244
0.613325
0.612214
0.610944
0.609515
0.607937
0.606221
0.604373
0.602409
0.600345
0.598185
0.595956
0.593691
0.591428
0.589416
0.587696
0.544747
0.563698
0.578353
0.589256
0.596776
0.602227
0.606006
0.608692
0.61052
0.61172
0.612409
0.612688
0.612615
0.612248
0.611611
0.610751
0.609698
0.608472
0.607086
0.605552
0.60387
0.602056
0.60012
0.598072
0.595935
0.593715
0.591466
0.58921
0.587194
0.585478
0.5413
0.559901
0.574674
0.585657
0.593294
0.598847
0.602725
0.605517
0.60744
0.608727
0.609487
0.609849
0.609857
0.609566
0.60898
0.608182
0.607189
0.606008
0.604666
0.603177
0.60153
0.599752
0.597845
0.595818
0.593705
0.591496
0.589265
0.58702
0.585001
0.583289
0.537913
0.556119
0.570989
0.582036
0.589787
0.595452
0.599434
0.602332
0.604354
0.605734
0.606576
0.607017
0.607102
0.606878
0.60636
0.605623
0.604684
0.603554
0.602256
0.600808
0.599201
0.597456
0.595584
0.593584
0.591496
0.589308
0.587091
0.584856
0.582837
0.581126
0.534592
0.55236
0.567296
0.578396
0.586258
0.59204
0.596133
0.59914
0.601263
0.602741
0.603673
0.604192
0.60435
0.604192
0.603747
0.603071
0.602185
0.601108
0.599857
0.598448
0.596883
0.595173
0.593335
0.59137
0.589306
0.587145
0.584943
0.582719
0.580702
0.57899
0.531342
0.548627
0.563591
0.574736
0.582709
0.588613
0.592824
0.595945
0.598172
0.59975
0.600775
0.601371
0.601605
0.601513
0.601139
0.600525
0.599693
0.598668
0.597466
0.596099
0.594577
0.592903
0.591101
0.589172
0.587136
0.585005
0.58282
0.580608
0.578596
0.576882
0.528162
0.544926
0.559877
0.571057
0.579139
0.585169
0.589505
0.592748
0.595085
0.596763
0.597882
0.598557
0.598867
0.598844
0.598537
0.597986
0.597209
0.596237
0.595083
0.59376
0.592281
0.590648
0.588883
0.586992
0.584987
0.582886
0.580721
0.578525
0.576518
0.574802
0.525054
0.541263
0.556154
0.567358
0.575547
0.581709
0.586178
0.589548
0.592001
0.593781
0.594995
0.59575
0.596138
0.596185
0.595944
0.595455
0.594734
0.593815
0.592711
0.591433
0.589997
0.588406
0.586681
0.584829
0.582857
0.58079
0.578649
0.576468
0.574468
0.572751
0.52202
0.537642
0.552424
0.563641
0.571932
0.578232
0.582841
0.586345
0.58892
0.590805
0.592117
0.592954
0.593418
0.593536
0.59336
0.592935
0.59227
0.591403
0.590348
0.589117
0.587726
0.586179
0.584495
0.582685
0.580748
0.578715
0.576601
0.574438
0.572447
0.570728
0.519062
0.534071
0.548689
0.559905
0.568293
0.574736
0.579494
0.583141
0.585842
0.587837
0.589247
0.590168
0.590709
0.590898
0.590788
0.590425
0.589817
0.589002
0.587996
0.586812
0.585467
0.583966
0.582325
0.580558
0.578659
0.576662
0.574579
0.572437
0.570454
0.568734
0.516183
0.530557
0.544952
0.556151
0.564628
0.571221
0.576137
0.579935
0.582769
0.584878
0.586388
0.587395
0.588013
0.588272
0.588228
0.587926
0.587374
0.586612
0.585655
0.58452
0.583221
0.581766
0.580171
0.578449
0.576591
0.574631
0.572582
0.570462
0.568489
0.566768
0.513388
0.527107
0.541216
0.55238
0.560936
0.567684
0.572768
0.576727
0.579702
0.58193
0.583542
0.584634
0.585329
0.585659
0.58568
0.585438
0.584943
0.584233
0.583325
0.582238
0.580988
0.579581
0.578032
0.576357
0.574543
0.572623
0.570611
0.568516
0.566554
0.564832
0.510683
0.523731
0.537489
0.548592
0.557217
0.564124
0.569387
0.573516
0.576641
0.578992
0.580708
0.581889
0.582659
0.58306
0.583145
0.582963
0.582523
0.581865
0.581007
0.579968
0.578769
0.577409
0.575909
0.574282
0.572515
0.570637
0.568664
0.566598
0.564649
0.562926
0.508074
0.520435
0.533775
0.544789
0.553469
0.560538
0.565992
0.570304
0.573587
0.576067
0.577889
0.579158
0.580005
0.580476
0.580625
0.5805
0.580115
0.579509
0.5787
0.57771
0.576562
0.575251
0.573801
0.572224
0.570506
0.568673
0.566744
0.564708
0.562775
0.561051
0.505568
0.517232
0.530084
0.540973
0.549693
0.556925
0.562582
0.567087
0.57054
0.573154
0.575085
0.576444
0.577367
0.577908
0.57812
0.578051
0.577719
0.577164
0.576405
0.575464
0.574368
0.573107
0.571707
0.570183
0.568517
0.566731
0.564848
0.562848
0.560933
0.559209
0.503173
0.51413
0.526425
0.537148
0.545887
0.553282
0.559155
0.563867
0.567499
0.570253
0.572296
0.573747
0.574747
0.575357
0.57563
0.575614
0.575335
0.57483
0.574123
0.57323
0.572186
0.570976
0.569628
0.568157
0.566546
0.56481
0.562977
0.561016
0.559123
0.557399
0.500897
0.511141
0.522809
0.533319
0.542054
0.549611
0.555709
0.560643
0.564465
0.567366
0.569525
0.571068
0.572145
0.572823
0.573155
0.573192
0.572965
0.572509
0.571853
0.571007
0.570016
0.568857
0.567562
0.566146
0.564592
0.562909
0.561129
0.559214
0.557347
0.555624
0.498747
0.508276
0.51925
0.529492
0.538195
0.545911
0.552244
0.557414
0.561438
0.564493
0.566771
0.568409
0.569562
0.570305
0.570696
0.570784
0.570607
0.5702
0.569594
0.568797
0.567856
0.566751
0.565509
0.564147
0.562653
0.561028
0.559305
0.557441
0.555606
0.553886
0.496732
0.505547
0.515761
0.525676
0.534314
0.542183
0.54876
0.55418
0.558418
0.561635
0.564037
0.56577
0.566998
0.567806
0.568253
0.568391
0.568264
0.567903
0.567347
0.566597
0.565707
0.564656
0.563467
0.562161
0.560728
0.559164
0.557503
0.555698
0.553902
0.552187
0.494857
0.502965
0.512357
0.521881
0.530418
0.538428
0.545256
0.550939
0.555404
0.558794
0.561322
0.563153
0.564456
0.565325
0.565826
0.566014
0.565934
0.565619
0.565111
0.56441
0.563568
0.56257
0.561435
0.560185
0.558815
0.557317
0.555724
0.553984
0.552235
0.550531
0.493131
0.500541
0.509055
0.518117
0.526514
0.534649
0.541733
0.547692
0.552396
0.555968
0.558629
0.560558
0.561935
0.562863
0.563417
0.563653
0.563618
0.563347
0.562886
0.562233
0.561439
0.560494
0.559412
0.558219
0.556915
0.555486
0.553966
0.5523
0.55061
0.548922
0.491557
0.498283
0.50587
0.514398
0.522612
0.530849
0.538192
0.544436
0.549394
0.553157
0.555955
0.557985
0.559435
0.560422
0.561026
0.561307
0.561316
0.561088
0.560672
0.560067
0.559319
0.558425
0.557398
0.556262
0.555024
0.553669
0.552228
0.550647
0.549027
0.547364
0.490142
0.496199
0.502819
0.510738
0.518722
0.527036
0.534633
0.541173
0.546396
0.550361
0.553302
0.555434
0.556957
0.558001
0.558654
0.558977
0.559028
0.558843
0.558469
0.55791
0.557207
0.556364
0.55539
0.554313
0.553142
0.551864
0.550508
0.549022
0.547489
0.545862
0.488889
0.494294
0.499916
0.507156
0.514859
0.523218
0.531062
0.537904
0.543404
0.54758
0.55067
0.552907
0.554503
0.555602
0.556301
0.556664
0.556755
0.55661
0.556278
0.555762
0.555103
0.554309
0.553388
0.55237
0.551267
0.55007
0.548804
0.547425
0.545998
0.544425
0.487803
0.492569
0.497174
0.503671
0.511037
0.519406
0.527483
0.534631
0.540417
0.544814
0.548059
0.550404
0.552072
0.553225
0.553967
0.554369
0.554498
0.554391
0.554097
0.553623
0.553005
0.55226
0.551391
0.550432
0.549397
0.548282
0.547114
0.545854
0.544554
0.54306
0.486893
0.491027
0.494605
0.500301
0.507276
0.515611
0.523904
0.531358
0.537437
0.542064
0.54547
0.547926
0.549667
0.55087
0.551653
0.552091
0.552256
0.552185
0.551926
0.551493
0.550915
0.550215
0.549398
0.548497
0.54753
0.546499
0.545434
0.544305
0.543158
0.541779
0.486168
0.489663
0.492217
0.497066
0.503596
0.511848
0.520336
0.52809
0.534468
0.539333
0.542906
0.545473
0.547286
0.548538
0.54936
0.549831
0.550029
0.549991
0.549765
0.54937
0.54883
0.548174
0.547406
0.546564
0.545664
0.544718
0.543759
0.542774
0.541809
0.540597
0.485626
0.488468
0.490022
0.493988
0.500024
0.508137
0.516785
0.524825
0.531498
0.536607
0.540353
0.543033
0.544919
0.54622
0.547079
0.547582
0.54781
0.547804
0.547609
0.547248
0.546746
0.546132
0.545413
0.544627
0.543793
0.542931
0.542082
0.541252
0.540502
0.539534
0.485233
0.48738
0.487986
0.49105
0.496533
0.504433
0.513185
0.521485
0.528451
0.533818
0.537751
0.540558
0.542525
0.543882
0.544781
0.545319
0.545579
0.545604
0.545441
0.545115
0.54465
0.544079
0.543409
0.542678
0.54191
0.541131
0.540393
0.539727
0.539226
0.538613
0.485437
0.486393
0.486048
0.488163
0.492993
0.500602
0.509432
0.518015
0.525315
0.53098
0.535133
0.538086
0.540146
0.541562
0.542502
0.543073
0.543361
0.543415
0.54328
0.542986
0.542555
0.542022
0.541398
0.540718
0.54001
0.53931
0.538677
0.538176
0.537953
0.53785
0.489686
0.484885
0.480807
0.47943
0.482016
0.488984
0.498514
0.508382
0.516961
0.523614
0.528399
0.531689
0.533895
0.535354
0.536295
0.536864
0.537152
0.537219
0.537106
0.53685
0.536475
0.536012
0.535483
0.534919
0.534355
0.533844
0.533477
0.533412
0.534003
0.535825
0.471534
0.468722
0.464699
0.463078
0.465607
0.472881
0.483098
0.493762
0.503065
0.510287
0.515476
0.519043
0.521442
0.523044
0.524101
0.524775
0.525167
0.525343
0.525347
0.525216
0.524977
0.524659
0.524288
0.523897
0.523532
0.523257
0.523188
0.523533
0.524742
0.527416
0.449278
0.449531
0.447636
0.447912
0.451614
0.459323
0.469672
0.480415
0.489834
0.497213
0.502576
0.506305
0.508843
0.510563
0.511725
0.5125
0.512992
0.513273
0.51339
0.513379
0.513268
0.513085
0.512857
0.512619
0.512417
0.512318
0.512439
0.51298
0.514395
0.517275
0.427936
0.431165
0.432049
0.434478
0.439358
0.447258
0.457292
0.467646
0.476814
0.48412
0.489537
0.493373
0.496029
0.497859
0.499124
0.5
0.500597
0.500987
0.501218
0.501325
0.501338
0.501282
0.501185
0.501079
0.501009
0.501038
0.501274
0.501899
0.503338
0.506216
0.408508
0.414335
0.417838
0.422075
0.427927
0.435912
0.445437
0.455129
0.463791
0.470843
0.476216
0.480129
0.48291
0.484875
0.486272
0.487274
0.487995
0.488507
0.48886
0.489088
0.48922
0.489283
0.489301
0.489304
0.489335
0.48945
0.489747
0.490392
0.491766
0.494527
0.390565
0.398251
0.403786
0.409477
0.416183
0.424272
0.43329
0.44227
0.450356
0.457093
0.462388
0.466381
0.469318
0.471463
0.473037
0.474207
0.475083
0.47574
0.476229
0.476584
0.476836
0.477009
0.477128
0.477222
0.477327
0.477497
0.477819
0.478445
0.479718
0.482316
0.373507
0.382341
0.389302
0.396122
0.403514
0.411681
0.420273
0.428656
0.436252
0.442721
0.447965
0.452062
0.455189
0.457554
0.459348
0.460723
0.461788
0.462616
0.463258
0.463753
0.464128
0.464409
0.464621
0.464791
0.464953
0.465157
0.465482
0.466069
0.467227
0.469645
0.356912
0.366421
0.374334
0.381945
0.389787
0.39797
0.406245
0.414198
0.421444
0.42773
0.432965
0.437189
0.440526
0.443136
0.445178
0.446789
0.448068
0.44909
0.449905
0.450552
0.451059
0.451452
0.451755
0.451995
0.452206
0.452434
0.452752
0.453291
0.454333
0.456567
0.340515
0.350411
0.358913
0.367017
0.375115
0.383281
0.391337
0.399003
0.406015
0.412189
0.417447
0.421809
0.42536
0.428222
0.430525
0.432386
0.433898
0.435131
0.436135
0.436947
0.437596
0.438108
0.438506
0.438819
0.439079
0.439329
0.439637
0.440125
0.441047
0.443081
0.324137
0.334229
0.343066
0.351455
0.359695
0.367835
0.375737
0.383207
0.390062
0.396171
0.401472
0.405971
0.409728
0.412835
0.415397
0.417512
0.419265
0.420719
0.421922
0.42291
0.423711
0.42435
0.424852
0.425243
0.425555
0.42583
0.426131
0.426572
0.427383
0.429216
0.307657
0.317822
0.326829
0.335381
0.343698
0.351802
0.359587
0.366915
0.373663
0.379738
0.38509
0.389718
0.393665
0.397002
0.39981
0.402173
0.404164
0.40584
0.407245
0.408414
0.409374
0.410149
0.410764
0.411242
0.411615
0.411923
0.412221
0.412617
0.413315
0.414935
0.291
0.301158
0.31024
0.318875
0.327225
0.335289
0.342978
0.350201
0.356875
0.362935
0.36834
0.373086
0.377204
0.380748
0.383783
0.386379
0.388598
0.390489
0.392094
0.393445
0.394567
0.395483
0.396214
0.396786
0.397226
0.397574
0.397883
0.39825
0.398857
0.400266
0.274116
0.284217
0.293315
0.301982
0.310338
0.318357
0.32597
0.333114
0.339738
0.345793
0.351248
0.356098
0.360367
0.364095
0.367335
0.370144
0.372573
0.374668
0.376463
0.377989
0.37927
0.380328
0.381183
0.381856
0.382372
0.382767
0.383088
0.383425
0.383944
0.385145
0.256963
0.266977
0.276058
0.284729
0.293073
0.301051
0.308602
0.315686
0.322274
0.32833
0.333831
0.338772
0.34317
0.347058
0.350478
0.353476
0.356096
0.358377
0.36035
0.362041
0.363474
0.364667
0.365638
0.366411
0.367008
0.367462
0.367817
0.368149
0.368607
0.369611
0.239518
0.249424
0.258475
0.267134
0.275459
0.283398
0.290898
0.297936
0.304496
0.310555
0.316095
0.321113
0.32562
0.329643
0.333218
0.33638
0.339168
0.341615
0.343748
0.345591
0.347166
0.348489
0.349578
0.350449
0.351121
0.351625
0.352001
0.352321
0.352724
0.35354
0.221766
0.231553
0.240575
0.249218
0.257517
0.265419
0.272875
0.279873
0.286411
0.292472
0.298043
0.303121
0.307716
0.31185
0.315553
0.318854
0.321786
0.324377
0.32665
0.328625
0.330322
0.331758
0.332951
0.333918
0.334675
0.335246
0.335665
0.335992
0.336359
0.337003
0.203715
0.213371
0.222375
0.230999
0.239267
0.247129
0.254543
0.261507
0.268023
0.274082
0.279673
0.284794
0.289456
0.293677
0.29748
0.300893
0.303942
0.306652
0.309045
0.311139
0.31295
0.314489
0.31577
0.316809
0.317622
0.318235
0.318676
0.319
0.319329
0.319795
0.185404
0.19491
0.203902
0.212503
0.220727
0.228541
0.235914
0.242844
0.249335
0.255382
0.26098
0.266126
0.270831
0.275111
0.278986
0.282482
0.28562
0.288422
0.290905
0.293087
0.294982
0.296607
0.297974
0.299094
0.299977
0.30064
0.301109
0.301432
0.301732
0.302043
0.166915
0.176236
0.185205
0.193764
0.20192
0.209673
0.216998
0.223889
0.230349
0.236374
0.241962
0.247113
0.251836
0.256146
0.260062
0.263609
0.266807
0.269678
0.272235
0.27449
0.276451
0.278129
0.279539
0.280695
0.28161
0.282296
0.282772
0.283074
0.283324
0.283445
0.148396
0.157461
0.166356
0.174826
0.182878
0.190545
0.19781
0.204653
0.211068
0.217055
0.22261
0.227737
0.232447
0.236755
0.240681
0.244244
0.247464
0.25036
0.252948
0.255243
0.257256
0.258992
0.260457
0.261656
0.262602
0.263306
0.263784
0.264069
0.264275
0.264232
0.130062
0.138747
0.147459
0.155753
0.16364
0.171184
0.178366
0.185146
0.191502
0.197429
0.202929
0.208005
0.21267
0.21694
0.220837
0.224383
0.227599
0.230501
0.233095
0.23539
0.237396
0.239126
0.240589
0.241793
0.242738
0.243431
0.243875
0.244098
0.244216
0.243941
0.112185
0.120304
0.128648
0.136632
0.144264
0.151629
0.158694
0.165382
0.17165
0.177485
0.18289
0.187876
0.192457
0.196648
0.200469
0.203944
0.207097
0.209951
0.212521
0.214813
0.216826
0.21856
0.220022
0.221219
0.222159
0.222843
0.223266
0.223436
0.223457
0.222973
0.0950418
0.102363
0.110086
0.117572
0.124829
0.131937
0.13883
0.14539
0.151539
0.157253
0.162534
0.167392
0.17184
0.175904
0.179611
0.182985
0.186045
0.188803
0.191272
0.19347
0.195406
0.197084
0.1985
0.19965
0.200539
0.201167
0.201523
0.201594
0.201461
0.200664
0.0788637
0.0851402
0.0919561
0.0987241
0.105452
0.112189
0.118824
0.125183
0.131148
0.13668
0.141779
0.146453
0.150713
0.154583
0.158099
0.161298
0.164211
0.166857
0.16924
0.171361
0.173224
0.174831
0.176189
0.177294
0.178146
0.17874
0.179047
0.179026
0.178712
0.177624
0.0637928
0.0688131
0.0744551
0.0802722
0.0862865
0.0925117
0.0987819
0.104862
0.110587
0.11589
0.120754
0.125182
0.129193
0.132821
0.1361
0.139058
0.141724
0.14413
0.146302
0.148249
0.149965
0.151444
0.15268
0.153673
0.154425
0.154938
0.155174
0.155037
0.154473
0.152949
0.0498761
0.0535225
0.0577936
0.0624426
0.0675384
0.0730565
0.0787682
0.084393
0.0897395
0.094709
0.0992508
0.103345
0.107008
0.110292
0.113256
0.115943
0.118379
0.120576
0.122545
0.124301
0.125852
0.127196
0.128323
0.129221
0.129884
0.130326
0.130523
0.130316
0.129498
0.127587
0.0370769
0.039373
0.0421796
0.0454752
0.049483
0.0541408
0.0591288
0.0641404
0.0689752
0.073498
0.0776173
0.0812894
0.0845194
0.0873496
0.0898433
0.0920706
0.094088
0.0959222
0.0975767
0.0990501
0.100343
0.101458
0.102389
0.103124
0.103648
0.103975
0.104112
0.103858
0.102778
0.100378
0.0252928
0.0264017
0.0277973
0.0295865
0.0323041
0.0358105
0.0397237
0.0438089
0.0478966
0.0517877
0.055316
0.0584134
0.0610995
0.0634358
0.0654871
0.0673058
0.0689312
0.07039
0.0717003
0.0728724
0.0739061
0.0747954
0.0755344
0.0761117
0.0765053
0.0767247
0.0768273
0.0766388
0.075455
0.0727847
0.0143181
0.0144853
0.0145985
0.0150762
0.0168438
0.0191856
0.021768
0.0246168
0.0276533
0.0306347
0.0333142
0.0355605
0.0373815
0.0388823
0.0401833
0.041355
0.0424151
0.0433621
0.0442026
0.0449509
0.0456133
0.0461837
0.0466532
0.0470133
0.0472404
0.0473156
0.0473149
0.0472273
0.0462546
0.0435819
0.00423097
0.00316253
-6.7016e-05
-0.000816305
0.00117811
0.0026977
0.00390705
0.00533302
0.00703406
0.00880879
0.0104362
0.0117787
0.0128084
0.0135857
0.0142005
0.0147213
0.0151813
0.0155886
0.0159477
0.0162662
0.0165483
0.0167913
0.0169905
0.0171449
0.0172435
0.0172426
0.0171514
0.0171392
0.0169377
0.0151581
0.472031
0.453749
0.434006
0.414855
0.39713
0.380223
0.363737
0.347459
0.331248
0.315005
0.298658
0.282143
0.265424
0.248473
0.231276
0.213842
0.196187
0.178381
0.160505
0.142701
0.125161
0.108107
0.0917802
0.0763642
0.0619881
0.0486951
0.0364408
0.0251083
0.0144874
0.00452869
0.470149
0.450197
0.430567
0.411443
0.393762
0.376903
0.360477
0.344275
0.328144
0.311979
0.295709
0.27927
0.262628
0.245753
0.228635
0.211283
0.193716
0.176011
0.158255
0.140601
0.123249
0.106421
0.0903537
0.0752163
0.0611246
0.0481043
0.0360926
0.0249545
0.014473
0.004594
0.467916
0.44617
0.426776
0.407831
0.390304
0.373568
0.357236
0.34112
0.325069
0.308981
0.292786
0.276421
0.259856
0.243058
0.226019
0.208751
0.191273
0.173669
0.156032
0.138521
0.121341
0.104714
0.0888765
0.0739878
0.0601617
0.0474122
0.0356566
0.0247338
0.0144081
0.00463696
0.465068
0.442028
0.422972
0.404249
0.386875
0.370263
0.354029
0.338
0.32203
0.306018
0.289897
0.273606
0.257115
0.240394
0.223431
0.206246
0.188857
0.171356
0.153841
0.136477
0.119479
0.103064
0.0874647
0.07283
0.0592667
0.0467758
0.035258
0.0245321
0.0143464
0.00466769
0.461761
0.437882
0.419175
0.400694
0.38347
0.366988
0.350857
0.334917
0.319028
0.303091
0.287043
0.270825
0.254407
0.23776
0.220874
0.20377
0.18647
0.169072
0.151681
0.134469
0.117658
0.101462
0.0861078
0.0717331
0.058434
0.0461951
0.0349007
0.0243541
0.0142922
0.00468847
0.458058
0.433753
0.41538
0.397166
0.380095
0.363747
0.347721
0.331872
0.316064
0.300201
0.284226
0.26808
0.251733
0.235159
0.218347
0.201324
0.184113
0.166818
0.149555
0.1325
0.115881
0.0999097
0.0848045
0.0706924
0.0576556
0.045661
0.0345769
0.0241939
0.014243
0.00470056
0.453994
0.429652
0.411593
0.393667
0.376751
0.360542
0.344625
0.328865
0.313139
0.297351
0.281447
0.265371
0.249093
0.232591
0.215853
0.198909
0.181788
0.164598
0.147466
0.130573
0.114151
0.0984092
0.0835578
0.06971
0.0569316
0.0451719
0.0342845
0.0240495
0.014198
0.00470555
0.449628
0.425586
0.407819
0.390199
0.373445
0.357374
0.341567
0.325899
0.310254
0.294542
0.278708
0.2627
0.246491
0.230058
0.213392
0.196526
0.179495
0.162412
0.145414
0.128688
0.11247
0.0969632
0.0823697
0.0687871
0.0562625
0.0447279
0.0340229
0.0239207
0.0141574
0.00470515
0.44503
0.421557
0.404065
0.386762
0.370178
0.354244
0.33855
0.322974
0.30741
0.291773
0.276009
0.260069
0.243927
0.227561
0.210966
0.194177
0.177237
0.160264
0.143404
0.126849
0.110839
0.0955733
0.0812408
0.0679231
0.055647
0.0443271
0.0337903
0.0238067
0.0141209
0.00470863
0.440269
0.417565
0.400341
0.383358
0.366952
0.351154
0.335574
0.320091
0.304609
0.289047
0.273352
0.257479
0.241402
0.225103
0.208576
0.191864
0.175016
0.158154
0.141435
0.125057
0.109261
0.0942401
0.0801708
0.0671163
0.0550823
0.0439666
0.033584
0.0237059
0.0140875
0.00470175
0.43541
0.413608
0.396654
0.379988
0.363769
0.348107
0.33264
0.317252
0.301852
0.286363
0.270737
0.25493
0.238918
0.222683
0.206224
0.189588
0.172833
0.156085
0.139511
0.123315
0.107737
0.0929645
0.079159
0.0663647
0.0545652
0.0436429
0.0334011
0.0236165
0.0140569
0.00469312
0.430515
0.409686
0.39301
0.376654
0.36063
0.345104
0.32975
0.314455
0.299137
0.283723
0.268166
0.252424
0.236475
0.220303
0.203911
0.187351
0.17069
0.154059
0.137634
0.121624
0.106269
0.0917476
0.0782053
0.0656664
0.054093
0.043353
0.0332391
0.0235372
0.0140289
0.00468377
0.425633
0.4058
0.389414
0.373359
0.357536
0.342146
0.326905
0.311703
0.296466
0.281126
0.265638
0.249961
0.234074
0.217964
0.20164
0.185156
0.16859
0.152079
0.135807
0.119988
0.10486
0.0905912
0.0773099
0.0650206
0.0536638
0.0430943
0.0330962
0.0234669
0.0140034
0.00467426
0.420807
0.401954
0.385872
0.370106
0.354488
0.339234
0.324106
0.308997
0.293841
0.278576
0.263154
0.247541
0.231715
0.215666
0.19941
0.183003
0.166534
0.150145
0.134032
0.11841
0.103513
0.0894968
0.0764734
0.0644266
0.0532759
0.0428647
0.0329705
0.0234046
0.0139804
0.00466518
0.416071
0.398154
0.382388
0.3669
0.351489
0.33637
0.321354
0.306338
0.291263
0.276071
0.260716
0.245165
0.229399
0.213412
0.197223
0.180894
0.164523
0.148261
0.132312
0.116892
0.102228
0.0884653
0.0756958
0.0638835
0.0529273
0.0426618
0.0328601
0.0233492
0.0139596
0.00465676
0.411448
0.394408
0.378965
0.363743
0.348538
0.333556
0.318651
0.303729
0.288733
0.273614
0.258323
0.242834
0.227128
0.211201
0.19508
0.178829
0.162559
0.146428
0.130648
0.115435
0.101007
0.0874967
0.0749761
0.0633892
0.0526154
0.0424829
0.0327632
0.0232998
0.0139408
0.00464915
0.406955
0.390721
0.375606
0.360639
0.345639
0.330793
0.315999
0.301169
0.286253
0.271204
0.255978
0.240549
0.224902
0.209035
0.19298
0.17681
0.160643
0.144648
0.129042
0.114039
0.0998496
0.0865903
0.0743122
0.062941
0.052337
0.0423252
0.0326776
0.0232554
0.0139239
0.00464246
0.402603
0.387101
0.372312
0.35759
0.342791
0.328083
0.313397
0.29866
0.283822
0.268844
0.253681
0.238311
0.222722
0.206914
0.190926
0.174837
0.158776
0.142921
0.127494
0.112705
0.0987549
0.0857448
0.0737016
0.0625359
0.052089
0.0421859
0.032602
0.0232154
0.0139088
0.00463671
0.398397
0.383554
0.369088
0.3546
0.339997
0.325425
0.310848
0.296202
0.281443
0.266534
0.251434
0.236122
0.220589
0.204839
0.188918
0.172912
0.156961
0.14125