/*--------------------------------*- C++ -*----------------------------------*\
  =========                 |
  \\      /  F ield         | OpenFOAM: The Open Source CFD Toolbox
   \\    /   O peration     | Website:  https://openfoam.org
    \\  /    A nd           | Version:  7
     \\/     M anipulation  |
\*---------------------------------------------------------------------------*/
FoamFile
{
    version     2.0;
    format      ascii;
    class       surfaceScalarField;
    location    "7.7";
    object      phi;
}
// * * * * * * * * * * * * * * * * * * * * * * * * * * * * * * * * * * * * * //

dimensions      [0 3 -1 0 0 0 0];

internalField   nonuniform List<scalar> 
35640
(
1.73025e-05
-0.000280762
0.00026346
6.06666e-05
-0.000548169
0.000504805
0.000126066
-0.000559069
0.00049367
0.000211244
-0.000378456
0.000293277
0.000315001
-5.2026e-05
-5.17302e-05
0.000436713
0.000386706
-0.000508419
0.000576038
0.000912036
-0.00105136
0.000732704
0.00150377
-0.00166043
0.000906418
0.00214592
-0.00231964
0.00109678
0.00282556
-0.00301592
0.00130319
0.0035319
-0.00373831
0.00152483
0.00425565
-0.00447729
0.00176066
0.00498856
-0.00522439
0.0020094
0.00572316
-0.0059719
0.0022695
0.00645254
-0.00671264
0.00253923
0.00717022
-0.00743995
0.00281668
0.00787019
-0.00814764
0.00309976
0.0085469
-0.00882999
0.00338635
0.00919528
-0.00948187
0.00367427
0.00981086
-0.0100988
0.00396139
0.0103898
-0.0106769
0.00424569
0.0109289
-0.0112132
0.00452528
0.0114258
-0.0117054
0.00479852
0.0118786
-0.0121519
0.00506403
0.0122862
-0.0125517
0.00532074
0.012648
-0.0129047
0.00556799
0.0129635
-0.0132107
0.00580556
0.0132319
-0.0134694
0.00603355
0.0134521
-0.0136801
0.0136207
0.00625242
-0.0138396
1.60597e-05
-0.000296822
5.61005e-05
-0.00058821
0.000116242
-0.000619211
0.000194458
-0.000456672
0.000289771
-0.000147338
0.000401734
0.000274744
0.000530191
0.00078358
0.000675045
0.00135891
0.000836147
0.00198482
0.00101321
0.0026485
0.00120578
0.00333933
0.00141318
0.00404825
0.00163451
0.00476722
0.00186866
0.00548902
0.00211427
0.00620693
0.00236978
0.00691471
0.00263344
0.00760653
0.00290338
0.00827696
0.00317763
0.00892103
0.00345418
0.00953431
0.00373103
0.0101129
0.00400625
0.0106537
0.00427805
0.011154
0.00454482
0.0116118
0.00480521
0.0120258
0.00505816
0.0123951
0.00530295
0.0127187
0.00553925
0.0129956
0.00576705
0.0132243
0.0134014
0.00598641
1.47144e-05
-0.000311537
5.12054e-05
-0.000624701
0.000105803
-0.000673808
0.000176747
-0.000527616
0.000263339
-0.00023393
0.000365371
0.000172712
0.000482883
0.000666068
0.000615921
0.00122587
0.000764472
0.00183627
0.000928389
0.00248458
0.00110734
0.00316038
0.00130078
0.00385481
0.00150794
0.00456006
0.00172785
0.00526911
0.00195929
0.00597549
0.00220087
0.00667313
0.00245101
0.00735638
0.00270802
0.00801995
0.00297007
0.00865898
0.00323529
0.00926909
0.0035018
0.00984644
0.00376779
0.0103877
0.00403155
0.0108902
0.00429153
0.0113519
0.00454639
0.011771
0.00479507
0.0121464
0.00503683
0.0124769
0.00527123
0.0127612
0.00549807
0.0129975
0.0131823
0.0057171
1.32797e-05
-0.000324817
4.58987e-05
-0.00065732
9.45936e-05
-0.000722503
0.000157958
-0.00059098
0.00023559
-0.000311562
0.000327516
8.07856e-05
0.00043398
0.000559605
0.000555204
0.00110465
0.000691306
0.00170017
0.00084226
0.00233363
0.00100785
0.00299479
0.00118766
0.003675
0.00138102
0.0043667
0.00158709
0.00506305
0.00180479
0.00575778
0.00203287
0.00644505
0.00226991
0.00711935
0.00251433
0.00777553
0.00276446
0.00840885
0.00301856
0.00901499
0.00327488
0.00959011
0.00353171
0.0101309
0.0037874
0.0106345
0.00404046
0.0110988
0.00428959
0.0115219
0.00453372
0.0119023
0.00477205
0.0122386
0.00500405
0.0125292
0.00522934
0.0127722
0.0129643
0.00544733
1.16929e-05
-0.000336509
4.01819e-05
-0.000685809
8.26799e-05
-0.000765001
0.000138172
-0.000646471
0.000206593
-0.000379984
0.000288261
-8.81421e-07
0.000383608
0.000464258
0.000493029
0.00099523
0.000616788
0.00157641
0.00075498
0.00219543
0.000907494
0.00284227
0.00107401
0.00350849
0.00125399
0.00418672
0.00144668
0.00487036
0.00165113
0.00555333
0.00186621
0.00622997
0.00209062
0.00689493
0.00232293
0.00754322
0.00256157
0.0081702
0.00280494
0.00877162
0.00305139
0.00934366
0.0032993
0.00988298
0.0035471
0.0103867
0.00379334
0.0108526
0.00403675
0.0112785
0.00427625
0.0116628
0.00451098
0.0120039
0.00474031
0.0122998
0.00496365
0.0125489
0.0127479
0.00518008
9.98981e-06
-0.000346499
3.40728e-05
-0.000709892
7.00586e-05
-0.000800986
0.000117408
-0.00069382
0.000176415
-0.000438991
0.00024768
-7.21464e-05
0.000331859
0.00038008
0.000429524
0.000897566
0.000541075
0.00146486
0.000666721
0.00206979
0.00080646
0.00270253
0.000960072
0.00335488
0.00112711
0.00401968
0.00130693
0.00469054
0.00149868
0.00536158
0.00170133
0.00602731
0.00191371
0.00668256
0.00213448
0.00732245
0.00236221
0.00794247
0.00259539
0.00853844
0.00283246
0.00910659
0.00307189
0.00964356
0.00331217
0.0101465
0.0035519
0.0106128
0.00378982
0.0110405
0.00402483
0.0114278
0.00425601
0.0117727
0.0044826
0.0120733
0.00470379
0.0123277
0.0125333
0.00491834
8.14654e-06
-0.000354646
2.75748e-05
-0.00072932
5.67836e-05
-0.000830195
9.57492e-05
-0.000732786
0.000145161
-0.000488403
0.000205931
-0.000132917
0.000278937
0.000307073
0.000364924
0.000811579
0.000464438
0.00136534
0.000577804
0.00195642
0.000705118
0.00257522
0.000846249
0.00321375
0.00100085
0.00386508
0.00116835
0.00452304
0.001348
0.00518193
0.00153888
0.00583644
0.00173989
0.00648154
0.00194982
0.00711253
0.00216732
0.00772497
0.00239097
0.00831479
0.00261932
0.00887824
0.00285088
0.00941199
0.00308422
0.00991312
0.00331795
0.0103791
0.00355083
0.0108077
0.00378172
0.0111969
0.00400961
0.0115448
0.00423361
0.0118493
0.00445267
0.0121086
0.0123208
0.00466523
6.17196e-06
-0.000360818
2.07179e-05
-0.000743866
4.2905e-05
-0.000852382
7.32881e-05
-0.000763169
0.000112979
-0.000528093
0.000163206
-0.000183144
0.00022508
0.000245199
0.000299526
0.000737133
0.000387229
0.00127764
0.000488625
0.00185503
0.000603908
0.00245994
0.000733035
0.00308462
0.000875736
0.00372238
0.00103153
0.00436724
0.00119977
0.0050137
0.00137959
0.00565661
0.00157
0.00629113
0.00176986
0.00691266
0.00197793
0.00751691
0.00219286
0.00809985
0.00241328
0.00865783
0.00263775
0.00918752
0.00286489
0.00968598
0.00309334
0.0101506
0.00332183
0.0105792
0.00354918
0.0109695
0.00377429
0.0113197
0.00399608
0.0116275
0.00421327
0.0118914
0.0121101
0.00442399
4.0707e-06
-0.000364888
1.353e-05
-0.000753325
2.84939e-05
-0.000867346
5.01428e-05
-0.000784817
8.0036e-05
-0.000557986
0.00011973
-0.000222837
0.000170577
0.000194352
0.000233678
0.000674033
0.000309854
0.00120146
0.000399652
0.00176523
0.000503358
0.00235623
0.000621011
0.00296697
0.000752421
0.00359097
0.00089719
0.00422247
0.00105473
0.00485615
0.00122429
0.00548706
0.00140493
0.00611048
0.00159561
0.00672199
0.00179515
0.00731737
0.00200229
0.00789271
0.0022157
0.00844441
0.00243402
0.0089692
0.00265588
0.00946412
0.00287995
0.00992656
0.00310491
0.0103542
0.00332952
0.0107449
0.00355257
0.0110966
0.00377279
0.0114072
0.00398864
0.0116756
0.0119008
0.00419791
1.85388e-06
-0.000366742
6.05167e-06
-0.000757522
1.36325e-05
-0.000874926
2.64473e-05
-0.000797632
4.65269e-05
-0.000578066
7.57641e-05
-0.000252074
0.000115754
0.000154363
0.000167771
0.000622015
0.000232773
0.00113646
0.00031141
0.00168659
0.000404057
0.00226358
0.00051083
0.00286019
0.000631617
0.00347018
0.000766097
0.00408799
0.000913757
0.00470849
0.00107391
0.00532691
0.0012457
0.00593869
0.00142815
0.00653953
0.00162016
0.00712535
0.00182054
0.00769234
0.002028
0.00823695
0.00224124
0.00875596
0.0024589
0.00924646
0.00267964
0.00970582
0.00290213
0.0101317
0.00312503
0.010522
0.00334698
0.0108747
0.00356652
0.0111877
0.00378183
0.0114603
0.0116922
0.00399037
-4.64193e-07
-0.000366278
-1.67056e-06
-0.000756316
-1.58608e-06
-0.000875011
2.35348e-06
-0.000801571
1.26678e-05
-0.00058838
3.1592e-05
-0.000270998
6.0966e-05
0.000124989
0.000102236
0.000580746
0.000156487
0.00108221
0.000224472
0.00161861
0.000306647
0.00218141
0.000403204
0.00276364
0.000514107
0.00335928
0.000639104
0.00396299
0.000777749
0.00456985
0.000929425
0.00517523
0.00109335
0.00577476
0.00126862
0.00636426
0.0014542
0.00693978
0.00164894
0.0074976
0.00185162
0.00803427
0.00206097
0.00854662
0.00227565
0.00903178
0.00249431
0.00948716
0.00271555
0.00991047
0.00293796
0.0102996
0.00316001
0.0106526
0.00338003
0.0109677
0.0035959
0.0112444
0.0114834
0.00380475
-2.86575e-06
-0.000363412
-9.5844e-06
-0.000749597
-1.70567e-05
-0.000867538
-2.1973e-05
-0.000796655
-2.13082e-05
-0.000589045
-1.24803e-05
-0.000279826
6.59145e-06
0.000105918
3.75269e-05
0.000549811
8.15278e-05
0.00103821
0.000139444
0.00156069
0.000211811
0.00210904
0.000298893
0.00267655
0.000400721
0.00325745
0.000517112
0.0038466
0.000647686
0.00443928
0.000791891
0.00503103
0.00094902
0.00561763
0.00111822
0.00619506
0.00129853
0.00675948
0.00148885
0.00730728
0.00168802
0.0078351
0.00189478
0.00833985
0.00210783
0.00881873
0.00232578
0.00926921
0.00254719
0.00968905
0.00277053
0.0100763
0.00299412
0.0104291
0.00321604
0.0107458
0.00343389
0.0110265
0.0112728
0.00364444
-5.33357e-06
-0.000358078
-1.76319e-05
-0.000737298
-3.26668e-05
-0.000852503
-4.63557e-05
-0.000782966
-5.51544e-05
-0.000580246
-5.61316e-05
-0.000278848
-4.69663e-05
9.67527e-05
-2.58818e-05
0.000528727
8.44695e-06
0.00100388
5.6959e-05
0.00151218
0.00012026
0.00204574
0.000198684
0.00259813
0.000292325
0.00316381
0.000401063
0.00373787
0.00052458
0.00431576
0.000662392
0.00489322
0.000813853
0.00546617
0.000978179
0.00603073
0.00115445
0.0065832
0.00134166
0.00712007
0.00153865
0.0076381
0.00174424
0.00813427
0.0019571
0.00860586
0.00217585
0.00905046
0.00239899
0.00946592
0.00262487
0.00985038
0.00285165
0.0102023
0.00307718
0.0105202
0.00329876
0.010805
0.0110588
0.00351278
-7.84787e-06
-0.00035023
-2.57513e-05
-0.000719395
-4.82974e-05
-0.000829957
-7.06097e-05
-0.000760653
-8.86145e-05
-0.000562241
-9.90321e-05
-0.00026843
-9.9308e-05
9.7029e-05
-8.75062e-05
0.000516925
-6.219e-05
0.000978567
-2.23403e-05
0.00147233
3.27187e-05
0.00199068
0.000103382
0.00252747
0.000189802
0.00307739
0.000291916
0.00363575
0.000409469
0.0041982
0.000542036
0.00476065
0.000689035
0.00531917
0.000849742
0.00587003
0.0010233
0.00640964
0.00120875
0.00693463
0.001405
0.00744184
0.00161088
0.00792839
0.00182511
0.00839164
0.00204627
0.00882929
0.00227283
0.00923936
0.00250303
0.00962018
0.00273488
0.00997043
0.00296598
0.0102891
0.00319335
0.0105776
0.0108392
0.003413
-1.0388e-05
-0.000339842
-3.38771e-05
-0.000695905
-6.38245e-05
-0.00080001
-9.45433e-05
-0.000729935
-0.000121426
-0.000535359
-0.000140845
-0.00024901
-0.00015002
0.000106204
-0.000146858
0.000513764
-0.000129819
0.000961529
-9.78087e-05
0.00144032
-5.00885e-05
0.00194296
1.37922e-05
0.00246359
9.40384e-05
0.00299715
0.000190641
0.00353915
0.000303401
0.00408544
0.00043195
0.0046321
0.000575765
0.00517536
0.00073418
0.00571161
0.000906404
0.00623742
0.00109152
0.00674951
0.00128851
0.00724485
0.00149624
0.00772066
0.00171344
0.00817444
0.00193872
0.00860402
0.00217048
0.00900759
0.00240693
0.00938373
0.0026459
0.00973145
0.0028848
0.0100502
0.00312035
0.010342
0.0106113
0.00334817
-1.29323e-05
-0.000326909
-4.19411e-05
-0.000666896
-7.91193e-05
-0.000762832
-0.00011796
-0.000691094
-0.00015332
-0.000499998
-0.000181232
-0.000221098
-0.000198689
0.000123661
-0.000203451
0.000518526
-0.000193878
0.000951956
-0.000168808
0.00141525
-0.000127444
0.0019016
-6.92856e-05
0.00240543
5.91843e-06
0.00292194
9.82025e-05
0.00344686
0.000207421
0.00397623
0.000333257
0.00450627
0.000475242
0.00503337
0.000632767
0.00555409
0.000805096
0.00606509
0.000991378
0.00656323
0.00119064
0.00704559
0.00140181
0.00750949
0.00162365
0.00795259
0.0018548
0.00837288
0.00209366
0.00876873
0.00233837
0.00913902
0.00258669
0.00948314
0.00283582
0.00980111
0.00308222
0.0100956
0.0103725
0.0033211
-1.54582e-05
-0.000311451
-4.98724e-05
-0.000632482
-9.40499e-05
-0.000718654
-0.000140659
-0.000644485
-0.000184028
-0.00045663
-0.000219852
-0.000185274
-0.000244905
0.000148715
-0.000256805
0.000530426
-0.000253817
0.000948969
-0.000234714
0.00139614
-0.000198648
0.00186553
-0.000145074
0.00235185
-7.37037e-05
0.00285057
1.55422e-05
0.00335762
0.000122556
0.00386921
0.000247068
0.00438175
0.000388656
0.00489178
0.000546764
0.00539598
0.000720712
0.00589114
0.000909706
0.00637424
0.00111284
0.00684246
0.00132908
0.00729325
0.00155727
0.0077244
0.00179608
0.00813407
0.00204396
0.00852085
0.00229904
0.00888394
0.00255902
0.00922317
0.00282097
0.00953915
0.00308111
0.0098355
0.0101193
0.00333425
-1.79424e-05
-0.000293508
-5.75982e-05
-0.000592826
-0.000108481
-0.000667771
-0.000162439
-0.000590527
-0.000213278
-0.00040579
-0.000256365
-0.000142187
-0.000288262
0.000180613
-0.000306447
0.000548612
-0.000309097
0.000951619
-0.00029492
0.00138197
-0.000263021
0.00183363
-0.000212819
0.00230165
-0.000143991
0.00278174
-5.64255e-05
0.00327005
4.98041e-05
0.00376298
0.000174465
0.00425709
0.000317176
0.00474907
0.000477425
0.00523573
0.00065458
0.00571398
0.000847902
0.00618091
0.00105654
0.00663382
0.00127954
0.00707025
0.00151581
0.00748813
0.0017641
0.00788578
0.00202293
0.00826202
0.00229049
0.00861638
0.00256447
0.00894918
0.00284192
0.00926171
0.00311884
0.00955858
0.0098485
0.00338967
-2.03608e-05
-0.000273148
-6.5044e-05
-0.000548143
-0.000122275
-0.00061054
-0.000183092
-0.000529711
-0.000240795
-0.000348087
-0.000290431
-9.25509e-05
-0.000328355
0.000218537
-0.000351911
0.000572168
-0.000359189
0.000958896
-0.000348834
0.00137161
-0.000319908
0.0018047
-0.000271797
0.00225354
-0.000204148
0.00271409
-0.000116826
0.00318273
-9.87406e-06
0.00365603
0.000116496
0.00413072
0.000261938
0.00460363
0.000425972
0.0050717
0.000608008
0.00553195
0.000807349
0.00598157
0.00102321
0.00641796
0.00125469
0.00683877
0.00150079
0.00724203
0.00176036
0.0076262
0.00203204
0.00799034
0.00231414
0.00833428
0.00260446
0.00865886
0.00290004
0.00896613
0.00319681
0.00926182
0.00955646
0.00348885
-2.26885e-05
-0.000250459
-7.21331e-05
-0.000498698
-0.000135291
-0.000547382
-0.00020241
-0.000462592
-0.000266302
-0.000284194
-0.000321707
-3.71463e-05
-0.000364779
0.00026161
-0.000392733
0.000600123
-0.000403573
0.000969736
-0.000395881
0.00136392
-0.000368676
0.0017775
-0.000321313
0.00220618
-0.000253415
0.0026462
-0.000164825
0.00309414
-5.55716e-05
0.00354678
7.41581e-05
0.00400099
0.000224032
0.00445376
0.000393593
0.00490213
0.000582276
0.00534326
0.000789419
0.00577443
0.00101427
0.0061931
0.00125601
0.00659703
0.00151373
0.00698432
0.00178638
0.00735355
0.00207276
0.00770396
0.00237136
0.00803568
0.00268018
0.00835005
0.0029964
0.00864991
0.00331595
0.00894227
0.00923975
0.00363265
-2.48997e-05
-0.000225559
-7.87869e-05
-0.000444811
-0.000147385
-0.000478785
-0.000220178
-0.000389799
-0.000289516
-0.000214856
-0.000349842
2.31802e-05
-0.000397122
0.000308891
-0.000428445
0.000631445
-0.000441727
0.000983017
-0.000435487
0.00135768
-0.0004087
0.00175071
-0.000360689
0.00215816
-0.000291056
0.00257656
-0.000199626
0.00300271
-8.64137e-05
0.00343356
4.84021e-05
0.00386618
0.000204498
0.00429766
0.000381425
0.00472521
0.000578626
0.00514606
0.000795454
0.0055576
0.00103119
0.00595737
0.00128504
0.00634318
0.00155617
0.00671319
0.00184368
0.00706604
0.00214652
0.00740111
0.00246343
0.00771876
0.00279268
0.0080208
0.00313174
0.00831085
0.0034767
0.00859731
0.00889518
0.00382127
-2.6968e-05
-0.000198591
-8.49246e-05
-0.000386854
-0.000158407
-0.000405302
-0.000236176
-0.00031203
-0.000310143
-0.000140888
-0.000374477
8.7514e-05
-0.000424962
0.000359376
-0.000458566
0.000665049
-0.000473117
0.000997568
-0.000467069
0.00135163
-0.000439351
0.00172299
-0.000389252
0.00210807
-0.000316349
0.00250366
-0.000220452
0.00290681
-0.000101565
0.00331468
4.01363e-05
0.00372447
0.000204327
0.00413347
0.000390553
0.00453898
0.000598248
0.00493837
0.000826754
0.00532909
0.00107535
0.00570878
0.00134326
0.00607527
0.00162969
0.00642675
0.00193383
0.0067619
0.00225481
0.00708013
0.00259162
0.00738195
0.0029429
0.00766951
0.00330654
0.00794722
0.00367901
0.00822484
0.00852007
0.00405411
-2.88661e-05
-0.000169725
-9.04633e-05
-0.000325257
-0.000168206
-0.000327559
-0.000250177
-0.00023006
-0.000327883
-6.31811e-05
-0.000395237
0.000154867
-0.000447855
0.000411995
-0.000482589
0.000699783
-0.00049718
0.00101216
-0.000490016
0.00134447
-0.000459972
0.00169295
-0.000406302
0.0020544
-0.000328554
0.00242591
-0.00022652
0.00280478
-0.000100194
0.00318835
5.02486e-05
0.00357403
0.000224477
0.00395924
0.000422019
0.00434144
0.000642284
0.0047181
0.000884581
0.0050868
0.00114815
0.00544521
0.00143218
0.00579124
0.00173588
0.00612306
0.00205846
0.00643933
0.00239917
0.00673942
0.00275725
0.00702387
0.00313175
0.00729501
0.0035211
0.00755786
0.0039224
0.00782355
0.00811259
0.00432988
-3.05661e-05
-0.000139159
-9.53182e-05
-0.000260505
-0.000176626
-0.000246252
-0.000261945
-0.00014474
-0.00034242
1.72934e-05
-0.000411725
0.000224173
-0.00046533
0.0004656
-0.000499973
0.000734426
-0.00051331
0.0010255
-0.00050366
0.00133482
-0.000469846
0.00165913
-0.000411078
0.00199563
-0.000326873
0.00234171
-0.000216996
0.0026949
-8.14311e-05
0.00305279
7.96534e-05
0.00341295
0.000265915
0.00377298
0.000476862
0.00413049
0.000711864
0.0044831
0.000970175
0.00482849
0.00125096
0.00516443
0.00155333
0.00548887
0.00187639
0.0058
0.0022193
0.00609641
0.00258132
0.00637739
0.00296184
0.00664335
0.00336027
0.00689659
0.00377568
0.00714245
0.00420608
0.00739315
0.00767206
0.00464661
-3.20397e-05
-0.00010712
-9.94032e-05
-0.000193142
-0.000183505
-0.000162151
-0.000271239
-5.70057e-05
-0.000353422
9.94762e-05
-0.000423524
0.000294275
-0.000476878
0.000518954
-0.000510123
0.000767671
-0.000520832
0.0010362
-0.000507259
0.00132124
-0.000468167
0.00162004
-0.000402722
0.00193018
-0.0003104
0.00224938
-0.000190938
0.00257544
-4.42949e-05
0.00290614
0.000129363
0.00323929
0.000329694
0.00357265
0.000556186
0.003904
0.000808165
0.00423112
0.00108482
0.00455184
0.0013852
0.00486405
0.00170829
0.00516578
0.00205301
0.00545527
0.00241833
0.00573109
0.00280334
0.00599238
0.00320737
0.00623933
0.00363
0.00647396
0.00407093
0.00670152
0.00452934
0.00693474
0.00719939
0.00500201
-3.32585e-05
-7.38611e-05
-0.000102632
-0.000123768
-0.000188682
-7.61006e-05
-0.000277808
3.21207e-05
-0.000360545
0.000182213
-0.000430187
0.000363917
-0.000481952
0.000570719
-0.00051239
0.000798109
-0.000518999
0.00104281
-0.000499967
0.00130221
-0.000454006
0.00157408
-0.000380227
0.0018564
-0.000278065
0.00214722
-0.00014722
0.0024446
1.23747e-05
0.00274655
0.000200578
0.00305109
0.00041705
0.00335618
0.000661268
0.00365978
0.000932525
0.00395986
0.00122994
0.00425442
0.00155245
0.00454153
0.00189886
0.00481938
0.00226782
0.00508631
0.00265796
0.00534095
0.00306796
0.00558239
0.00349671
0.00581057
0.00394361
0.00602706
0.00440866
0.00623647
0.00489238
0.00645102
0.00669764
0.00539412
-3.41944e-05
-3.96667e-05
-0.000104919
-5.30438e-05
-0.000191994
1.09744e-05
-0.000281398
0.000121525
-0.000363431
0.000264246
-0.000431246
0.000431732
-0.000479964
0.000619437
-0.000506062
0.000824207
-0.00050697
0.00104372
-0.000480824
0.00127606
-0.00042628
0.00151954
-0.000342402
0.00177253
-0.000228579
0.0020334
-8.44702e-05
0.00230049
9.00268e-05
0.00257205
0.000294799
0.00284631
0.000529529
0.00312145
0.0007937
0.00339561
0.00108659
0.00366697
0.00140728
0.00393373
0.00175461
0.00419421
0.00212718
0.0044468
0.00252337
0.00469012
0.00294132
0.004923
0.00337901
0.0051447
0.00383446
0.00535512
0.00430611
0.00555541
0.00479344
0.00574914
0.00529796
0.00594649
0.00617266
0.00582294
-3.48208e-05
-4.846e-06
-0.000106181
1.83164e-05
-0.00019328
9.80733e-05
-0.000281754
0.000209999
-0.000361716
0.000344209
-0.000426212
0.000496228
-0.000470289
0.000663515
-0.000490366
0.000844283
-0.000483821
0.00103718
-0.000448742
0.00124099
-0.000383745
0.00145454
-0.000287847
0.00167663
-0.000160396
0.00190595
-1.00975e-06
0.0021411
0.000190453
0.00238059
0.000413917
0.00262285
0.000669103
0.00286626
0.000955525
0.00310919
0.00127249
0.00335001
0.00161906
0.00358716
0.00199405
0.00381922
0.00239595
0.0040449
0.00282287
0.00426319
0.00327247
0.0044734
0.00374189
0.00467529
0.00422774
0.00486926
0.00472649
0.00505666
0.00523529
0.00524033
0.00575474
0.00542705
0.00563275
0.00629465
-3.51132e-05
3.02671e-05
-0.000106341
8.9544e-05
-0.000192387
0.00018412
-0.000278627
0.000296238
-0.000355038
0.000420619
-0.00041459
0.00055578
-0.000452279
0.000701204
-0.000464484
0.000856488
-0.000448548
0.00102124
-0.000402526
0.00119496
-0.000325
0.00137701
-0.000214956
0.00156658
-7.17072e-05
0.0017627
0.000105162
0.00196423
0.000315833
0.00216992
0.000560271
0.00237841
0.000838245
0.00258829
0.00114933
0.00279811
0.00149289
0.00300645
0.00186806
0.00321199
0.00227371
0.00341356
0.00270838
0.00361023
0.00317014
0.00380144
0.00365641
0.00398713
0.0041637
0.004168
0.00468721
0.00434575
0.00522055
0.00452332
0.00575579
0.00470509
0.00628621
0.00489663
0.00508453
0.00683443
-3.50496e-05
6.53166e-05
-0.000105327
0.000159822
-0.000189173
0.000267965
-0.000271781
0.000378846
-0.000343042
0.000491881
-0.000395887
0.000608624
-0.000425279
0.000730596
-0.000427575
0.000858783
-0.000400101
0.000993766
-0.000340896
0.00113576
-0.000248524
0.00128464
-0.000121955
0.00144001
3.95175e-05
0.00160123
0.000236332
0.00176742
0.000468697
0.00193755
0.000736616
0.00211049
0.00103991
0.00228499
0.00137823
0.00245979
0.00175103
0.00263364
0.0021576
0.00280542
0.00259701
0.00297416
0.00306804
0.0031392
0.00356914
0.00330034
0.00409819
0.00345807
0.00465224
0.00361395
0.00522689
0.0037711
0.00581553
0.00393468
0.0064072
0.00411342
0.00698161
0.00432222
0.00751838
0.00454777
0.00646947
0.0776889
-0.077906
0.00644894
0.0774956
-0.0774751
0.00634174
0.0739956
-0.0738884
0.00622866
0.0695555
-0.0694424
0.00615158
0.0652123
-0.0651353
0.006113
0.0614749
-0.0614363
0.00609473
0.058474
-0.0584557
0.00607343
0.0561301
-0.0561088
0.00603048
0.0543402
-0.0542973
0.00595524
0.053006
-0.0529308
0.00584549
0.0520647
-0.051955
0.00570289
0.051463
-0.0513204
0.00553129
0.0511563
-0.0509847
0.00533474
0.0510867
-0.0508902
0.0051167
0.0512016
-0.0509835
0.00487987
0.0514492
-0.0512124
0.00462698
0.0517833
-0.0515304
0.0043604
0.0521703
-0.0519037
0.00408208
0.052584
-0.0523057
0.00379403
0.0530051
-0.0527171
0.00349752
0.0534202
-0.0531237
0.00319438
0.0538173
-0.0535141
0.00288514
0.0541924
-0.0538831
0.00257106
0.0545339
-0.0542198
0.00225212
0.0548438
-0.0545249
0.00192876
0.0551125
-0.0547892
0.00160024
0.0553493
-0.0550208
0.00126676
0.0555571
-0.0552236
0.000929628
0.0557438
-0.0554067
0.0558584
-0.0555214
0.00630542
0.0773699
0.00636859
0.0774324
0.00632183
0.0740423
0.00625198
0.0696253
0.00620647
0.0652578
0.00619335
0.061488
0.00619668
0.0584707
0.00619357
0.0561332
0.00616479
0.054369
0.00609956
0.0530713
0.00599532
0.052169
0.0058549
0.0516034
0.00568247
0.0513287
0.00548282
0.0512864
0.00525965
0.0514248
0.00501648
0.0516924
0.0047561
0.0520437
0.00448121
0.0524452
0.00419384
0.0528713
0.00389638
0.0533026
0.00359007
0.0537265
0.00327668
0.0541307
0.00295727
0.0545118
0.00263238
0.0548588
0.00230295
0.0551733
0.00196858
0.0554469
0.00162931
0.0556885
0.00128512
0.0559013
0.000937392
0.0560916
0.0562059
0.00613382
0.0769532
0.00627894
0.0772873
0.00629165
0.0740296
0.00626504
0.0696519
0.00625187
0.065271
0.00626563
0.0614743
0.00629227
0.058444
0.00630916
0.0561163
0.00629618
0.054382
0.0062424
0.0531251
0.00614478
0.0522666
0.00600729
0.0517409
0.00583447
0.0515015
0.00563204
0.0514888
0.00540396
0.0516528
0.00515456
0.0519418
0.0048867
0.0523115
0.00460346
0.0527285
0.00430699
0.0531678
0.00399997
0.0536096
0.00368373
0.0540428
0.00335994
0.0544545
0.00303021
0.0548415
0.00269438
0.0551946
0.00235433
0.0555133
0.00200885
0.0557924
0.00165872
0.0560387
0.00130374
0.0562562
0.000945308
0.05645
0.056564
0.00595651
0.076444
0.00618112
0.0770627
0.0062516
0.0739592
0.00626781
0.0696357
0.00628756
0.0652513
0.00632946
0.0614324
0.00638116
0.0583924
0.00641991
0.0560775
0.0064245
0.0543774
0.00638354
0.053166
0.00629372
0.0523564
0.00615979
0.0518748
0.00598721
0.0516741
0.00578229
0.0516937
0.00554964
0.0518855
0.00529403
0.0521974
0.00501875
0.0525868
0.00472711
0.0530201
0.00442154
0.0534734
0.00410481
0.0539263
0.00377854
0.054369
0.00344429
0.0547887
0.00310395
0.0551819
0.00275726
0.0555413
0.00240621
0.0558644
0.00204968
0.0561489
0.00168848
0.0563999
0.00132262
0.0566221
0.000953433
0.0568192
0.0569329
0.00577558
0.0758485
0.00607638
0.0767619
0.00620226
0.0738333
0.00626047
0.0695775
0.00631344
0.0651983
0.00638465
0.0613612
0.00646316
0.0583138
0.00652563
0.056015
0.00654949
0.0543535
0.00652266
0.0531928
0.00644191
0.0524372
0.00631236
0.0520044
0.00614055
0.0518459
0.0059334
0.0519009
0.00569649
0.0521224
0.00543481
0.0524591
0.00515218
0.0528694
0.00485213
0.0533202
0.00453746
0.053788
0.00421091
0.0542529
0.00387449
0.0547054
0.00352972
0.0551335
0.0031785
0.0555331
0.00282097
0.0558988
0.00245866
0.0562267
0.00209108
0.0565165
0.00171867
0.0567723
0.00134181
0.056999
0.000961791
0.0571992
0.0573128
0.00559329
0.0751736
0.00596625
0.0763889
0.00614449
0.073655
0.00624336
0.0694786
0.00632957
0.0651121
0.00643112
0.0612596
0.00653805
0.0582069
0.00662606
0.055927
0.00667091
0.0543087
0.00665964
0.0532041
0.00658911
0.0525077
0.00646476
0.0521288
0.00629428
0.0520164
0.0060853
0.0521099
0.00584436
0.0523633
0.0055768
0.0527266
0.00528691
0.0531593
0.00497848
0.0536286
0.00465471
0.0541118
0.0043183
0.0545893
0.00397161
0.0550521
0.00361621
0.0554889
0.00325399
0.0558953
0.00288547
0.0562674
0.00251179
0.0566003
0.00213304
0.0568952
0.00174932
0.057156
0.00136134
0.0573869
0.000970394
0.0575902
0.0577038
0.00541213
0.0744267
0.00585249
0.0759486
0.00607941
0.0734281
0.00621711
0.0693409
0.00633619
0.064993
0.00646888
0.0611269
0.00660572
0.0580701
0.00672098
0.0558118
0.00678855
0.0542411
0.0067943
0.0531984
0.00673511
0.0525669
0.00661679
0.0522471
0.00644822
0.052185
0.00623785
0.0523203
0.00599311
0.0526081
0.00571987
0.0529999
0.00542284
0.0534564
0.00510611
0.0539453
0.00477321
0.0544447
0.00442693
0.0549356
0.00406988
0.0554092
0.00370377
0.055855
0.00333046
0.0562686
0.00295078
0.056647
0.00256566
0.0569855
0.00217558
0.0572853
0.00178047
0.0575511
0.00138125
0.0577862
0.000979259
0.0579922
0.058106
0.00523477
0.0736159
0.0057371
0.0754463
0.00600844
0.0731568
0.00618259
0.0691668
0.0063338
0.0648418
0.00649812
0.0609626
0.00666615
0.057902
0.00681026
0.0556676
0.0069022
0.0541492
0.0069264
0.0531742
0.00687969
0.0526136
0.00676825
0.0523585
0.00660216
0.052351
0.00639084
0.0525316
0.00614259
0.0528563
0.00586388
0.0532786
0.00555986
0.0537604
0.00523493
0.0542702
0.0048929
0.0547867
0.00453677
0.0552917
0.00416929
0.0557767
0.00379239
0.0562319
0.0034079
0.0566531
0.00301695
0.057038
0.00262028
0.0573821
0.00221874
0.0576869
0.00181217
0.0579577
0.00140158
0.0581967
0.000988407
0.0584053
0.0585197
0.00506412
0.0727497
0.00562234
0.074888
0.00593333
0.0728458
0.00614099
0.0689591
0.00632312
0.0646597
0.00651919
0.0607666
0.00671943
0.0577018
0.00689384
0.0554932
0.00701171
0.0540313
0.00705574
0.0531301
0.00702263
0.0526467
0.00691891
0.0524622
0.00675591
0.052514
0.00654408
0.0527434
0.00629262
0.0531078
0.00600868
0.0535625
0.00569783
0.0540712
0.00536481
0.0546033
0.00501371
0.0551378
0.00464776
0.0556577
0.00426982
0.0561546
0.00388206
0.0566197
0.00348632
0.0570489
0.00308398
0.0574403
0.00267569
0.0577904
0.00226254
0.0581
0.00184443
0.0583758
0.00142237
0.0586188
0.000997863
0.0588298
0.0589449
0.00490331
0.0718367
0.00551077
0.0742806
0.00585614
0.0725004
0.00609382
0.0687214
0.00630514
0.0644483
0.00653265
0.0605391
0.00676577
0.0574687
0.00697171
0.0552873
0.00711692
0.0538861
0.00718211
0.0530649
0.00716369
0.0526651
0.00706857
0.0525574
0.00690926
0.0526733
0.00669736
0.0529553
0.00644301
0.0533621
0.00615408
0.0538515
0.00583658
0.0543887
0.00549564
0.0549442
0.00513553
0.055498
0.00475981
0.0560334
0.00437141
0.056543
0.00397276
0.0570183
0.00356571
0.0574559
0.00315189
0.0578542
0.0027319
0.0582104
0.00230703
0.0585249
0.00187727
0.0588056
0.00144363
0.0590524
0.00100765
0.0592658
0.0593819
0.00475568
0.0708858
0.00540522
0.073631
0.00577932
0.0721263
0.00604295
0.0684578
0.00628117
0.0642101
0.00653926
0.060281
0.00680554
0.0572024
0.00704394
0.0550489
0.00721773
0.0537123
0.00730536
0.0529773
0.00730268
0.0526678
0.00721699
0.052643
0.00706198
0.0528284
0.00685046
0.0531668
0.00659357
0.053619
0.00629991
0.0541451
0.00597597
0.0547127
0.00562728
0.0552929
0.00525826
0.055867
0.00487282
0.0564188
0.00447401
0.0569418
0.00406444
0.0574279
0.00364604
0.0578743
0.00322065
0.0582796
0.00278891
0.0586422
0.0023522
0.0589616
0.00191071
0.059247
0.00146538
0.0594978
0.0010178
0.0597134
0.0598307
0.00462475
0.0699055
0.0053088
0.072947
0.00570568
0.0717294
0.00599061
0.0681729
0.00625279
0.0639479
0.00654001
0.0599938
0.00683923
0.0569032
0.0071107
0.0547774
0.0073141
0.0535089
0.00742529
0.0528661
0.00743937
0.0526537
0.00736395
0.0527185
0.00721385
0.0529785
0.00700316
0.0533775
0.00674408
0.0538781
0.00644597
0.0544432
0.00611581
0.0550428
0.00575955
0.0556492
0.00538179
0.0562447
0.00498671
0.0568139
0.00457753
0.057351
0.00415704
0.0578484
0.00372728
0.0583041
0.00329026
0.0587166
0.00284671
0.0590857
0.00239809
0.0594102
0.00194478
0.0597004
0.00148765
0.0599549
0.00102832
0.0601727
0.0602917
0.00451424
0.068904
0.00522493
0.0722363
0.00563837
0.071316
0.00593938
0.0678719
0.00622196
0.0636654
0.00653615
0.0596796
0.00686753
0.0565718
0.00717224
0.0544727
0.00740603
0.0532751
0.00754179
0.0527304
0.00757356
0.052622
0.00750923
0.0527828
0.00736465
0.053123
0.00715526
0.0535869
0.00689433
0.054139
0.00659206
0.0547455
0.00625594
0.0553789
0.0058923
0.0560128
0.00550596
0.0566311
0.00510135
0.0572185
0.0046819
0.0577704
0.0042505
0.0582798
0.0038094
0.0587452
0.0033607
0.0591653
0.0029053
0.0595411
0.00244467
0.0598708
0.00197947
0.0601656
0.00151045
0.0604239
0.00103924
0.0606439
0.0607649
0.00442797
0.0678891
0.00515723