/*--------------------------------*- C++ -*----------------------------------*\
  =========                 |
  \\      /  F ield         | OpenFOAM: The Open Source CFD Toolbox
   \\    /   O peration     | Website:  https://openfoam.org
    \\  /    A nd           | Version:  7
     \\/     M anipulation  |
\*---------------------------------------------------------------------------*/
FoamFile
{
    version     2.0;
    format      ascii;
    class       volVectorField;
    location    "7.7";
    object      U;
}
// * * * * * * * * * * * * * * * * * * * * * * * * * * * * * * * * * * * * * //

dimensions      [0 1 -1 0 0 0 0];

internalField   nonuniform List<vector> 
18000
(
(0.000490255 -0.00817493 5.40493e-21)
(0.00253538 -0.0158021 0)
(0.00610012 -0.0157613 0)
(0.0103858 -0.00999847 0)
(0.0152813 0.000131159 -1.78668e-21)
(0.020654 0.013629 9.03914e-21)
(0.0264218 0.0297263 -1.82768e-21)
(0.0325213 0.0478178 1.84023e-21)
(0.0389001 0.0674223 0)
(0.0455125 0.0881492 -5.56464e-21)
(0.052312 0.109672 -1.86075e-21)
(0.0592512 0.131707 0)
(0.0662799 0.154004 3.71511e-21)
(0.0733432 0.176334 3.72254e-21)
(0.0803847 0.198485 -7.43836e-21)
(0.0873476 0.220259 -7.42809e-21)
(0.0941758 0.241473 0)
(0.100815 0.261956 -1.11206e-20)
(0.107212 0.281554 3.69035e-21)
(0.113318 0.300133 -1.10797e-20)
(0.119091 0.317577 3.67457e-21)
(0.124493 0.333793 0)
(0.129497 0.348706 -3.64026e-21)
(0.134084 0.362268 -3.65045e-21)
(0.138241 0.374448 0)
(0.141968 0.38523 0)
(0.145273 0.394606 -7.25657e-21)
(0.148181 0.402561 -7.2363e-21)
(0.150709 0.409066 -7.26623e-21)
(0.152769 0.414019 7.86682e-21)
(0.000699145 -0.00864347 7.70655e-21)
(0.00282814 -0.0169591 1.34298e-20)
(0.00613549 -0.0174758 -1.37544e-20)
(0.00993532 -0.0121887 -1.40291e-20)
(0.0141725 -0.00248866 -3.56737e-21)
(0.0187617 0.0106062 1.08183e-20)
(0.0236553 0.0263182 -1.45789e-20)
(0.028817 0.0440366 -1.46864e-20)
(0.0342175 0.0632809 1.47642e-20)
(0.0398273 0.0836648 1.48196e-20)
(0.0456116 0.104866 -7.42113e-21)
(0.0515354 0.126606 -1.48624e-20)
(0.0575601 0.148639 -7.44893e-21)
(0.0636402 0.170744 1.48531e-20)
(0.0697291 0.192713 -1.48388e-20)
(0.0757798 0.214354 1.48302e-20)
(0.0817436 0.235488 -2.96272e-20)
(0.0875726 0.255947 2.21437e-20)
(0.0932215 0.275578 -1.47216e-20)
(0.0986476 0.294248 7.37299e-21)
(0.103812 0.311837 -1.46543e-20)
(0.10868 0.32825 0)
(0.113226 0.343407 7.41535e-21)
(0.117429 0.357254 -1.45286e-20)
(0.121278 0.369749 1.45099e-20)
(0.124769 0.380869 0)
(0.127909 0.390596 -7.1725e-21)
(0.130721 0.398901 7.13644e-21)
(0.133196 0.405745 2.8664e-20)
(0.135243 0.411018 1.56681e-20)
(0.000929515 -0.00910003 -1.23388e-20)
(0.00316584 -0.0180615 -1.34295e-20)
(0.00622499 -0.0190762 2.063e-20)
(0.00954596 -0.0142264 3.50427e-20)
(0.0131317 -0.00493306 0)
(0.0169494 0.00777005 -1.44366e-20)
(0.0209877 0.0230964 1.45787e-20)
(0.0252354 0.0404361 4.40096e-20)
(0.0296838 0.059311 -1.47641e-20)
(0.0343195 0.079336 -1.48166e-20)
(0.0391208 0.100194 4.44861e-20)
(0.0440625 0.121614 1.48623e-20)
(0.0491155 0.143356 0)
(0.0542439 0.165204 -2.971e-20)
(0.0594089 0.186956 4.43826e-20)
(0.0645711 0.208425 -1.47782e-20)
(0.0696899 0.229435 1.47843e-20)
(0.0747244 0.249824 1.47679e-20)
(0.0796352 0.269441 6.44078e-23)
(0.0843843 0.288151 0)
(0.0889368 0.305834 4.40002e-20)
(0.093262 0.322392 -2.90797e-20)
(0.0973351 0.337742 1.45843e-20)
(0.101137 0.351822 0)
(0.104655 0.364586 -1.451e-20)
(0.107885 0.376 5.77614e-20)
(0.110833 0.386035 -4.29341e-20)
(0.113518 0.394654 -1.43854e-20)
(0.11591 0.401808 1.41642e-20)
(0.11791 0.407382 1.57213e-20)
(0.00117712 -0.00948659 0)
(0.00353471 -0.0190111 6.70627e-21)
(0.00634433 -0.020488 5.74723e-24)
(0.00918823 -0.0160544 -3.50176e-20)
(0.0121318 -0.00715917 0)
(0.0151907 0.00515181 -2.87869e-20)
(0.0183904 0.0200856 0)
(0.0217473 0.0370337 -4.39761e-20)
(0.0252717 0.0555201 1.47215e-20)
(0.0289646 0.0751657 -2.95257e-20)
(0.0328164 0.0956582 -2.96378e-20)
(0.0368114 0.116732 -1.48298e-20)
(0.0409281 0.138154 1.48009e-20)
(0.0451387 0.159713 1.47492e-20)
(0.0494122 0.181213 -1.48367e-20)
(0.0537165 0.202473 -2.94869e-20)
(0.0580168 0.223321 2.93822e-20)
(0.0622779 0.243598 0)
(0.0664662 0.263154 0)
(0.070549 0.281857 0)
(0.0744953 0.299587 0)
(0.0782777 0.316241 0)
(0.0818731 0.331736 0)
(0.0852634 0.346002 -2.88278e-20)
(0.0884367 0.358988 -2.89089e-20)
(0.091387 0.370652 -1.79865e-22)
(0.0941203 0.380957 -2.87555e-20)
(0.0966551 0.389855 -4.24026e-22)
(0.0989363 0.39729 -2.89208e-20)
(0.100862 0.403148 6.20614e-20)
(0.00143681 -0.00983142 0)
(0.00392434 -0.0198545 6.02362e-20)
(0.00648531 -0.0217456 5.04469e-24)
(0.00885391 -0.0176977 -2.09745e-20)
(0.0111592 -0.00918593 7.09807e-20)
(0.0134707 0.00273508 4.31713e-20)
(0.0158501 0.0172715 4.3524e-20)
(0.0183388 0.0338165 0)
(0.0209666 0.0518994 0)
(0.0237487 0.0711466 4.42825e-20)
(0.0266854 0.0912513 1.63334e-23)
(0.0297692 0.111954 -1.03484e-19)
(0.0329867 0.133028 8.86297e-20)
(0.0363167 0.154268 -2.9571e-20)
(0.0397347 0.175485 2.93849e-20)
(0.0432141 0.196501 2.93666e-20)
(0.0467257 0.21715 -2.93488e-20)
(0.05024 0.237274 2.93569e-20)
(0.0537283 0.256729 5.84783e-20)
(0.0571625 0.275381 -2.90462e-20)
(0.0605152 0.293112 -5.79781e-20)
(0.0637622 0.309817 5.77942e-20)
(0.0668826 0.325411 -5.76061e-20)
(0.0698594 0.339819 2.8828e-20)
(0.0726809 0.352984 0)
(0.0753413 0.364856 0)
(0.0778462 0.375392 3.45037e-22)
(0.0802123 0.384537 -1.13113e-19)
(0.0823622 0.392228 5.63519e-20)
(0.0841901 0.398355 -6.22696e-20)
(0.00170473 -0.0101175 0)
(0.00432506 -0.0205585 -5.35369e-20)
(0.00663158 -0.0228182 5.475e-20)
(0.00852324 -0.0191329 0)
(0.0101965 -0.0109957 -1.13481e-19)
(0.0117724 0.000534538 -1.43637e-20)
(0.0133488 0.014664 -2.90429e-20)
(0.0149938 0.0307915 -1.46018e-20)
(0.0167545 0.0484529 0)
(0.0186581 0.0672799 -2.9465e-20)
(0.0207153 0.0869725 2.94937e-20)
(0.0229263 0.107279 5.91028e-20)
(0.0252837 0.127978 -5.90853e-20)
(0.0277724 0.14887 0)
(0.0303733 0.169772 -5.89246e-20)
(0.0330647 0.190511 5.86775e-20)
(0.0358222 0.210924 5.86577e-20)
(0.038621 0.230859 8.76368e-20)
(0.0414372 0.250172 -8.73925e-20)
(0.0442466 0.268734 1.1622e-19)
(0.0470251 0.286424 5.80501e-20)
(0.0497514 0.303139 -5.77947e-20)
(0.0524067 0.318788 1.15004e-19)
(0.0549756 0.333295 0)
(0.0574465 0.346598 5.69766e-20)
(0.0598136 0.358642 1.13833e-19)
(0.0620827 0.369375 -5.61966e-20)
(0.0642684 0.378738 5.65852e-20)
(0.066272 0.386662 3.43417e-23)
(0.0679826 0.393044 -6.19695e-20)
(0.00197555 -0.0103446 -6.14358e-21)
(0.00472491 -0.021125 0)
(0.0067706 -0.0237088 -6.8432e-20)
(0.00818385 -0.0203614 1.39428e-20)
(0.00922949 -0.0125903 4.25343e-20)
(0.0100826 -0.00145452 1.43405e-20)
(0.0108763 0.0122584 5.78774e-20)
(0.0117033 0.0279535 0)
(0.0126271 0.0451736 2.93196e-20)
(0.0136872 0.0635585 2.9374e-20)
(0.0149028 0.0828157 -2.94775e-20)
(0.0162809 0.1027 8.83728e-20)
(0.0178194 0.122997 0)
(0.0195086 0.143513 0)
(0.0213337 0.16407 8.81254e-20)
(0.023277 0.1845 -1.46512e-19)
(0.0253184 0.204645 5.84077e-20)
(0.0274377 0.224356 -5.83584e-20)
(0.0296148 0.243492 -5.80412e-20)
(0.0318284 0.261925 -1.73898e-19)
(0.034058 0.279536 -2.35694e-22)
(0.0362847 0.29622 5.7424e-20)
(0.038492 0.311886 -1.14604e-19)
(0.0406653 0.326455 5.69834e-20)
(0.0427938 0.339859 -2.22594e-22)
(0.0448714 0.352039 -5.67578e-20)
(0.0469036 0.362938 5.65318e-20)
(0.0489032 0.372493 0)
(0.0507507 0.380632 5.57587e-20)
(0.0523289 0.387262 4.81697e-22)
(0.00224449 -0.0105096 -1.22768e-20)
(0.00511341 -0.0215471 1.33515e-20)
(0.00688854 -0.0244097 -8.19497e-20)
(0.00782109 -0.0213791 -4.17556e-20)
(0.00824554 -0.013968 5.6553e-20)
(0.00839047 -0.0032306 -8.59002e-20)
(0.00842323 0.0100538 -2.89607e-20)
(0.00846025 0.0252993 -5.82096e-20)
(0.00858054 0.0420583 5.8502e-20)
(0.00883417 0.0599791 -1.17466e-19)
(0.00924837 0.078777 -5.87971e-20)
(0.00983589 0.0982139 -8.32246e-23)
(0.0105995 0.118082 2.9449e-20)
(0.0115335 0.138195 -8.80826e-20)
(0.0126267 0.158378 -1.1732e-19)
(0.0138649 0.17847 -4.37568e-23)
(0.0152322 0.198315 -1.51695e-22)
(0.0167118 0.217769 5.81184e-20)
(0.0182868 0.236694 5.80417e-20)
(0.0199389 0.254963 -7.19228e-23)
(0.0216501 0.272459 -2.95065e-22)
(0.0234044 0.289077 5.7029e-20)
(0.0251867 0.304725 5.7207e-20)
(0.0269834 0.31932 7.18977e-23)
(0.0287841 0.332792 -1.70055e-19)
(0.0305824 0.345077 1.12529e-19)
(0.032383 0.356115 1.12658e-19)
(0.0341963 0.365841 -1.11437e-19)
(0.0358834 0.374181 -5.57592e-20)
(0.0373187 0.381054 -6.15869e-20)
(0.00250608 -0.0106081 -1.10363e-19)
(0.00547915 -0.0218203 -1.3337e-20)
(0.00697218 -0.0249182 6.82682e-20)
(0.00742214 -0.0221838 5.56813e-20)
(0.00723312 -0.0151283 -5.65527e-20)
(0.00668667 -0.00479591 5.72526e-20)
(0.0059832 0.0080467 -2.88832e-20)
(0.00526126 0.0228252 8.7292e-20)
(0.00461415 0.0391027 -5.85021e-20)
(0.00410137 0.056537 5.86929e-20)
(0.00375718 0.0748519 2.9402e-20)
(0.00359937 0.0938169 -2.94508e-20)
(0.00363455 0.113231 -1.76269e-19)
(0.00386021 0.132914 1.17358e-19)
(0.00426823 0.152696 5.86142e-20)
(0.00484779 0.17242 0)
(0.00558613 0.191936 0)
(0.00646955 0.211102 -2.59484e-22)
(0.00748355 0.229785 -5.78785e-20)
(0.00861264 0.247858 0)
(0.00984137 0.265207 0)
(0.0111554 0.281726 -5.72657e-20)
(0.0125413 0.297322 0)
(0.0139862 0.311912 -1.1325e-19)
(0.0154799 0.325421 0)
(0.0170151 0.337785 -5.62987e-20)
(0.0185953 0.34894 1.1218e-19)
(0.0202277 0.358821 -1.10964e-19)
(0.0217555 0.367353 0)
(0.0230415 0.374467 0)
(0.00275489 -0.0106382 9.80958e-20)
(0.00581104 -0.0219418 0)
(0.00700887 -0.0252323 -1.36342e-20)
(0.0069749 -0.0227756 1.38935e-20)
(0.00618216 -0.0160734 -8.45962e-20)
(0.00496404 -0.00615356 3.83092e-24)
(0.00355224 0.00623326 -2.88412e-20)
(0.00210566 0.0205267 0)
(0.000730577 0.036302 0)
(-0.000505283 0.0532277 -2.93029e-20)
(-0.00156167 0.0710365 2.93316e-20)
(-0.00241666 0.0895059 -5.87617e-20)
(-0.0030607 0.108442 5.87814e-20)
(-0.00349371 0.127668 0)
(-0.00372097 0.147023 0)
(-0.00375059 0.166353 0)
(-0.00359284 0.185512 5.80007e-20)
(-0.00325893 0.204363 -8.06902e-23)
(-0.00276097 0.222774 5.7974e-20)
(-0.00211213 0.240621 -1.14982e-19)
(-0.00132582 0.257792 5.74402e-20)
(-0.000414801 0.274182 -2.85323e-19)
(0.000608307 0.289697 -1.59583e-22)
(0.00173164 0.304253 1.13251e-19)
(0.0029447 0.317775 -4.6994e-22)
(0.00423873 0.330194 1.11687e-19)
(0.00561513 0.341447 -1.11231e-19)
(0.00707725 0.351471 -1.11135e-19)
(0.00845207 0.36019 -6.72729e-23)
(0.00958764 0.36755 -1.21381e-19)
(0.00298543 -0.0105978 -1.22477e-20)
(0.00609816 -0.0219098 0)
(0.00698639 -0.0253517 2.7237e-20)
(0.00646837 -0.0231563 -2.7755e-20)
(0.00508423 -0.0168063 2.53691e-19)
(0.0032173 -0.0073079 3.87172e-24)
(0.00112863 0.00460831 -2.88055e-20)
(-0.00100456 0.0183984 2.90196e-20)
(-0.00306454 0.0336513 -1.45737e-19)
(-0.00497659 0.0500468 0)
(-0.00669566 0.0673273 0)
(-0.00819656 0.0852781 -5.85566e-20)
(-0.00946752 0.103712 5.8735e-20)
(-0.0105063 0.122458 -5.8617e-20)
(-0.0113161 0.141361 5.83681e-20)
(-0.0119025 0.160272 0)
(-0.0122739 0.179049 -2.32419e-19)
(-0.0124395 0.197557 1.15735e-19)
(-0.0124092 0.215669 5.77952e-20)
(-0.0121942 0.233264 1.72465e-19)
(-0.0118062 0.25023 0)
(-0.011257 0.266464 1.14e-19)
(-0.0105582 0.281871 1.13087e-19)
(-0.00972133 0.296368 1.12519e-19)
(-0.00875755 0.309879 -3.01877e-22)
(-0.00767767 0.322334 -1.11486e-19)
(-0.00648324 0.333672 1.11232e-19)
(-0.00517539 0.343829 0)
(-0.00394156 0.352736 -4.83669e-23)
(-0.00295271 0.360351 2.42458e-19)
(0.00319204 -0.0104858 -9.78687e-20)
(0.00632986 -0.0217241 0)
(0.0068934 -0.0252782 -1.0876e-19)
(0.00589269 -0.0233292 -1.38556e-19)
(0.0039324 -0.0173321 -8.45297e-20)
(0.00144311 -0.00826474 2.8503e-20)
(-0.00128713 0.00316575 6.94561e-24)
(-0.00406497 0.0164343 -2.89764e-20)
(-0.00676294 0.0311452 1.24794e-22)
(-0.00930062 0.0469901 5.84808e-20)
(-0.0116293 0.0637212 5.85371e-20)
(-0.0137214 0.081132 -5.85386e-20)
(-0.0155638 0.0990416 5.85306e-20)
(-0.0171525 0.117287 -1.75519e-19)
(-0.0184887 0.135715 1.75034e-19)
(-0.0195767 0.154183 1.1641e-19)
(-0.0204229 0.172554 2.90325e-19)
(-0.0210348 0.190696 -5.7856e-20)
(-0.0214206 0.208485 -1.15162e-19)
(-0.0215897 0.225802 -1.42353e-22)
(-0.0215526 0.242537 -1.14473e-19)
(-0.0213199 0.258589 3.40985e-19)
(-0.020903 0.273865 -2.26473e-19)
(-0.0203131 0.288281 2.24724e-19)
(-0.0195626 0.301761 -1.12092e-19)
(-0.0186649 0.314236 2.22674e-19)
(-0.0176256 0.325647 4.28544e-22)
(-0.0164508 0.335935 -2.20031e-19)
(-0.0153403 0.345033 2.18187e-19)
(-0.0144888 0.352916 1.20606e-19)
(0.00336914 -0.0103018 9.78685e-20)
(0.00649576 -0.0213859 0)
(0.00671931 -0.0250151 2.44574e-19)
(0.00523929 -0.0232995 8.31395e-20)
(0.00272136 -0.0176571 0)
(-0.000360016 -0.00903112 0)
(-0.00369253 0.00189852 0)
(-0.00706897 0.0146281 0)
(-0.010354 0.0287783 5.8239e-20)
(-0.0134629 0.0440532 5.83779e-20)
(-0.0163445 0.0602157 -1.17076e-19)
(-0.0189698 0.0770669 1.17152e-19)
(-0.0213246 0.0944329 1.75604e-19)
(-0.023404 0.112156 5.8556e-20)
(-0.0252078 0.130089 5.83346e-20)
(-0.0267391 0.148094 -1.7452e-19)
(-0.0280028 0.166037 -2.32002e-19)
(-0.029005 0.183791 -1.15623e-19)
(-0.0297523 0.201234 1.15164e-19)
(-0.0302528 0.21825 -2.29507e-19)
(-0.0305157 0.234733 1.13848e-19)
(-0.0305512 0.250581 -2.27373e-19)
(-0.03037 0.265704 1.12849e-19)
(-0.0299837 0.280018 3.05894e-22)
(-0.0294063 0.29345 -1.11447e-19)
(-0.0286544 0.305933 -2.22488e-19)
(-0.0277384 0.317408 2.20643e-19)
(-0.0266699 0.327825 0)
(-0.0256593 0.337124 3.88514e-23)
(-0.0249298 0.34529 -2.40912e-19)
(0.00351125 -0.0100463 1.22192e-20)
(0.00658602 -0.0208981 0)
(0.00645451 -0.0245676 -1.08639e-19)
(0.00450091 -0.0230741 2.76591e-20)
(0.00144739 -0.0177892 -2.80853e-20)
(-0.00219181 -0.00961522 0)
(-0.00608309 0.000798856 -2.87139e-20)
(-0.010008 0.0129729 2.8912e-20)
(-0.0138251 0.026545 5.81644e-20)
(-0.0174471 0.0412326 -1.74965e-19)
(-0.0208211 0.0568089 -5.85021e-20)
(-0.0239179 0.0730833 -8.65653e-23)
(-0.0267228 0.0898883 -3.0792e-23)
(-0.0292305 0.107072 -1.16848e-19)
(-0.03144 0.124492 -5.84053e-20)
(-0.0333533 0.142015 0)
(-0.0349744 0.159512 -1.45014e-22)
(-0.0363079 0.176857 1.15538e-19)
(-0.0373594 0.193934 -1.14825e-19)
(-0.0381358 0.21063 0)
(-0.0386452 0.226839 0)
(-0.0388973 0.242463 0)
(-0.0389026 0.257413 0)
(-0.0386731 0.271609 -1.6989e-22)
(-0.0382248 0.284978 0)
(-0.0375779 0.297456 0)
(-0.0367485 0.308991 1.09963e-19)
(-0.0357545 0.319538 1.09206e-19)
(-0.034814 0.329047 1.08783e-19)
(-0.0341847 0.337517 3.43656e-23)
(0.00361304 -0.00972041 1.22092e-20)
(0.00659144 -0.0202651 -2.65037e-20)
(0.00609052 -0.0239424 1.62619e-19)
(0.00367175 -0.0226613 -2.76276e-20)
(0.000108418 -0.0177374 2.80542e-20)
(-0.00405019 -0.0100261 7.11529e-24)
(-0.00845252 -0.000141551 8.59681e-20)
(-0.0128715 0.0114616 -1.15493e-19)
(-0.0171619 0.0244397 1.74232e-19)
(-0.0212349 0.0385245 4.32169e-23)
(-0.0250372 0.0534997 -5.84117e-20)
(-0.0285402 0.0691825 1.16905e-19)
(-0.0317297 0.0854117 -1.16885e-19)
(-0.0345999 0.102041 1.16758e-19)
(-0.0371499 0.118933 0)
(-0.0393811 0.135959 1.16232e-19)
(-0.0412965 0.152993 0)
(-0.0428998 0.169914 4.69252e-23)
(-0.0441956 0.186608 -1.14937e-19)
(-0.0451897 0.202965 -1.14409e-19)
(-0.0458897 0.218883 1.13842e-19)
(-0.0463044 0.234265 -1.13239e-19)
(-0.046444 0.249025 -1.12603e-19)
(-0.0463216 0.263085 -2.24004e-19)
(-0.045955 0.276377 -1.1123e-19)
(-0.0453684 0.288841 1.10803e-19)
(-0.0445842 0.300429 -2.19587e-19)
(-0.0436271 0.311109 -1.09207e-19)
(-0.0427208 0.320841 0)
(-0.0421628 0.329635 -1.19949e-19)
(0.00366946 -0.00932639 0)
(0.00650361 -0.0194928 1.05849e-19)
(0.00562011 -0.0231481 -8.13122e-20)
(0.00274758 -0.022071 -1.37892e-19)
(-0.00129592 -0.0175121 0)
(-0.0059313 -0.0102736 0)
(-0.0107928 -0.000931525 -1.71945e-19)
(-0.0156475 0.0100867 2.3083e-19)
(-0.0203484 0.0224572 -1.74123e-19)
(-0.0248064 0.0359261 0)
(-0.0289694 0.0502876 5.83761e-20)
(-0.03281 0.0653667 -5.85154e-20)
(-0.036315 0.0810084 5.41019e-23)
(-0.039479 0.0970717 -5.84802e-20)
(-0.0423013 0.113424 -5.83131e-20)
(-0.0447831 0.129941 -3.0103e-23)
(-0.046927 0.146499 1.1583e-19)
(-0.0487358 0.162982 1.15424e-19)
(-0.0502135 0.17928 -1.77123e-22)
(-0.051365 0.195283 2.28595e-19)
(-0.0521971 0.210894 -2.27865e-19)
(-0.0527179 0.226018 2.26229e-19)
(-0.0529376 0.240572 1.12604e-19)
(-0.0528698 0.254482 1.11933e-19)
(-0.0525344 0.267684 1.37943e-22)
(-0.0519596 0.280123 0)
(-0.0511749 0.29176 1.09816e-19)
(-0.0502119 0.302574 -3.26605e-19)
(-0.0492973 0.312541 1.07154e-19)
(-0.0487748 0.321681 1.19196e-19)
(0.00367584 -0.00886713 -7.30757e-20)
(0.00631514 -0.0185886 -2.38017e-19)
(0.00503748 -0.0221947 8.17809e-24)
(0.00172587 -0.0213145 1.45203e-22)
(-0.00276415 -0.0171245 -8.38752e-20)
(-0.00782945 -0.0103682 0)
(-0.0130941 -0.00158024 -5.71375e-20)
(-0.0183223 0.00884092 -3.45955e-19)
(-0.023367 0.0205922 1.73969e-19)
(-0.0281408 0.0334346 -1.1636e-19)
(-0.0325933 0.0471728 1.75031e-19)
(-0.0366995 0.0616392 -5.83556e-20)
(-0.0404476 0.0766849 1.16834e-19)
(-0.0438335 0.0921741 -2.91819e-19)
(-0.0468567 0.107979 1.74676e-19)
(-0.049519 0.123977 1.54623e-22)
(-0.0518227 0.140051 -3.47301e-19)
(-0.0537702 0.156087 1.15572e-19)
(-0.0553649 0.171976 -1.14706e-19)
(-0.0566111 0.187615 0)
(-0.0575148 0.202906 1.13757e-19)
(-0.0580834 0.217758 0)
(-0.0583267 0.232093 -1.12679e-19)
(-0.0582589 0.24584 1.11572e-19)
(-0.0579017 0.25894 1.11093e-19)
(-0.057287 0.271344 1.10191e-19)
(-0.0564518 0.283023 0)
(-0.0554351 0.293969 0)
(-0.0544637 0.304181 -2.15953e-19)
(-0.0539339 0.313688 3.57073e-19)
(0.003628 -0.0083464 7.31192e-20)
(0.00601982 -0.0175615 1.32161e-19)
(0.00433847 -0.0210936 -1.07985e-19)
(0.000605971 -0.020404 2.20167e-19)
(-0.00429282 -0.0165868 2.80991e-20)
(-0.00973703 -0.0103209 2.8317e-20)
(-0.0153449 -0.00209694 1.74e-22)
(-0.0208805 0.00771727 -1.15079e-19)
(-0.0261989 0.0188403 -5.79014e-20)
(-0.0312155 0.0310483 9.3519e-23)
(-0.0358833 0.0441564 -7.66162e-23)
(-0.04018 0.0580042 -1.75155e-19)
(-0.0440959 0.072449 -5.84217e-20)
(-0.0476284 0.0873596 3.08245e-23)
(-0.0507784 0.102612 1.16459e-19)
(-0.0535482 0.118088 1.16175e-19)
(-0.0559402 0.133672 5.89145e-24)
(-0.0579569 0.149255 -1.15379e-19)
(-0.0596014 0.16473 1.15077e-19)
(-0.0608774 0.179996 -1.14147e-19)
(-0.0617901 0.194958 -2.27499e-19)
(-0.0623462 0.209529 -1.13302e-19)
(-0.0625549 0.223633 2.24633e-19)
(-0.0624307 0.237205 0)
(-0.0619966 0.250189 -1.10895e-19)
(-0.0612879 0.262546 -2.20271e-19)
(-0.0603486 0.274258 -2.18891e-19)
(-0.059226 0.285333 1.0818e-19)
(-0.0581439 0.295795 -3.22849e-19)
(-0.0575572 0.305686 1.18605e-19)
(0.00352231 -0.00776879 -1.21543e-19)
(0.0056128 -0.0164218 2.64047e-20)
(0.00352074 -0.0198576 1.07986e-19)
(-0.00061071 -0.0193533 -8.2526e-20)
(-0.00587642 -0.0159116 2.79753e-20)
(-0.0116444 -0.0101428 -2.88116e-23)
(-0.0175317 -0.00249057 2.85427e-19)
(-0.023305 0.00670928 1.15135e-19)
(-0.0288235 0.0171978 1.15801e-19)
(-0.0340072 0.0287665 1.74429e-19)
(-0.038813 0.0412406 -1.74786e-19)
(-0.043222 0.0544674 1.16722e-19)
(-0.0472275 0.0683097 2.3361e-19)
(-0.0508288 0.0826408 1.16783e-19)
(-0.0540285 0.0973404 1.54779e-22)
(-0.0568298 0.112293 -2.32184e-19)
(-0.059236 0.127388 2.31804e-19)
(-0.0612497 0.142516 1.79588e-22)
(-0.0628742 0.157575 -1.15078e-19)
(-0.0641128 0.172464 1.14147e-19)
(-0.06497 0.187093 1.13741e-19)
(-0.0654515 0.201377 -1.1308e-19)
(-0.0655661 0.215242 -2.24973e-19)
(-0.0653278 0.228627 -3.55243e-22)
(-0.0647604 0.241484 1.10752e-19)
(-0.0639016 0.253782 1.10079e-19)
(-0.0628025 0.265514 2.18606e-19)
(-0.0615181 0.276706 -2.16091e-19)
(-0.0602672 0.287419 0)
(-0.0595687 0.297704 1.18572e-19)
(0.00335581 -0.00713967 1.21419e-22)
(0.00509075 -0.0151811 0)
(0.0025839 -0.018501 -8.07407e-20)
(-0.00192057 -0.0181764 -2.74484e-20)
(-0.00750713 -0.0151121 -1.11396e-19)
(-0.0135398 -0.00984483 0)
(-0.0196389 -0.00276952 -1.71157e-19)
(-0.0255769 0.00581142 5.74418e-20)
(-0.0312189 0.0156621 0)
(-0.0364909 0.0265893 -1.16075e-19)
(-0.0413547 0.038429 0)
(-0.0457954 0.0510356 -1.74985e-19)
(-0.0498095 0.0642775 1.74929e-19)
(-0.053399 0.0780321 -1.16626e-19)
(-0.0565686 0.0921825 -1.16428e-19)
(-0.059323 0.106616 0)
(-0.0616665 0.121225 0)
(-0.0636026 0.135903 1.15576e-19)
(-0.0651348 0.150548 3.76184e-22)
(-0.0662665 0.165063 1.14728e-19)
(-0.0670016 0.179359 -1.13548e-19)
(-0.067345 0.193352 2.26335e-19)
(-0.0673045 0.206974 -1.12182e-19)
(-0.0668938 0.220165 0)
(-0.0661361 0.232884 3.32726e-19)
(-0.0650706 0.245108 -5.49678e-19)
(-0.0637549 0.256843 1.0882e-19)
(-0.0622512 0.268137 1.08193e-19)
(-0.0607709 0.27909 1.07089e-19)
(-0.0599015 0.289772 2.36591e-19)
(0.00312631 -0.00646505 -9.68533e-20)
(0.00445201 -0.0138523 2.10278e-19)
(0.00152973 -0.0170385 1.07678e-19)
(-0.00331763 -0.0168884 2.46444e-19)
(-0.0091747 -0.0142014 3.06021e-19)
(-0.015409 -0.00943761 5.63894e-20)
(-0.0216486 -0.00294131 -2.84534e-19)
(-0.027675 0.00501941 0)
(-0.0333612 0.0142321 -2.30891e-19)
(-0.03864 0.0245193 -1.15861e-19)
(-0.0434793 0.0357271 0)
(-0.0478686 0.0477177 -1.16465e-19)
(-0.0518082 0.0603647 1.33621e-22)
(-0.0553031 0.0735496 -3.4955e-19)
(-0.0583604 0.0871587 1.1643e-19)
(-0.0609869 0.101082 1.16343e-19)
(-0.0631885 0.115213 -2.31271e-19)
(-0.0649697 0.129449 -2.30799e-19)
(-0.0663349 0.143689 -3.76756e-22)
(-0.067288 0.157837 -1.83847e-22)
(-0.0678324 0.171805 0)
(-0.0679725 0.185513 -1.13245e-19)
(-0.0677152 0.198891 -1.12505e-19)
(-0.0670732 0.211885 0)
(-0.0660687 0.224456 0)
(-0.0647411 0.236592 3.29933e-19)
(-0.0631528 0.24831 -3.26523e-19)
(-0.0613728 0.259682 0)
(-0.0596026 0.270856 3.21032e-19)
(-0.0585017 0.281922 -2.35515e-19)
(0.00283244 -0.00575162 2.67004e-22)
(0.00369679 -0.0124489 -2.1032e-19)
(0.000362359 -0.0154861 -2.68633e-20)
(-0.00479331 -0.0155044 -2.73765e-19)
(-0.0108662 -0.0131926 -1.6689e-19)
(-0.017235 -0.008931 5.63076e-20)
(-0.0235406 -0.0030122 1.13881e-19)
(-0.029576 0.00433075 2.86457e-19)
(-0.0352241 0.0129092 2.30895e-19)
(-0.040426 0.0225611 2.31942e-19)
(-0.045156 0.0331434 0)
(-0.0494089 0.0445256 1.54135e-22)
(-0.0531888 0.0565868 0)
(-0.0565042 0.0692124 2.3313e-19)
(-0.0593652 0.0822916 0)
(-0.0617808 0.095717 -1.16339e-19)
(-0.0637588 0.109384 1.15643e-19)
(-0.0653056 0.123191 0)
(-0.0664269 0.137039 0)
(-0.0671271 0.150834 -3.43277e-19)
(-0.0674102 0.164487 1.13562e-19)
(-0.0672804 0.177918 0)
(-0.066744 0.19106 2.2434e-19)
(-0.0658124 0.203858 2.23095e-19)
(-0.0645062 0.216278 -4.42797e-19)
(-0.0628636 0.228313 4.39254e-19)
(-0.0609503 0.239991 3.17056e-22)
(-0.0588409 0.25141 2.15752e-19)
(-0.056724 0.262772 -2.13931e-19)
(-0.0553328 0.274194 0)
(0.00247379 -0.00500658 2.42038e-19)
(0.00282727 -0.0109856 -2.62512e-20)
(-0.00091156 -0.0138602 -2.14259e-19)
(-0.00633627 -0.01404 0)
(-0.0125659 -0.0120982 -2.21699e-19)
(-0.0189981 -0.00833387 0)
(-0.0252914 -0.00298687 -2.8375e-19)
(-0.0312534 0.00374509 -1.71956e-19)
(-0.0367786 0.0116971 -2.30331e-19)
(-0.0418176 0.0207227 0)
(-0.0463516 0.0306895 5.81662e-20)
(-0.050381 0.0414747 5.86264e-20)
(-0.0539143 0.0529628 -1.16356e-19)
(-0.0569639 0.065043 -2.32941e-19)
(-0.0595427 0.0776073 -1.16136e-19)
(-0.0616626 0.090551 -4.64511e-19)
(-0.0633338 0.103771 2.31248e-19)
(-0.0645647 0.117168 -3.84021e-22)
(-0.0653628 0.130643 -3.79773e-22)
(-0.0657341 0.144103 3.42908e-19)
(-0.0656836 0.15746 0)
(-0.0652159 0.170633 0)
(-0.0643374 0.183553 2.86948e-22)
(-0.0630587 0.196165 3.36948e-22)
(-0.0613987 0.208436 -2.21269e-19)
(-0.0593933 0.220361 -2.19749e-19)
(-0.0571096 0.231979 -1.45721e-22)
(-0.0546254 0.243408 -2.15751e-19)
(-0.0521137 0.25491 -2.13708e-19)
(-0.0503794 0.26664 2.12744e-23)
(0.00205094 -0.00423773 0)
(0.00184783 -0.00947785 2.09138e-19)
(-0.00228266 -0.0121778 1.8751e-19)
(-0.00793221 -0.0125106 2.7263e-20)
(-0.0142548 -0.0109302 4.42986e-19)
(-0.0206753 -0.00765379 -5.61264e-20)
(-0.0268746 -0.00286795 4.53408e-19)
(-0.0326777 0.00326484 2.28385e-19)
(-0.0379927 0.0106032 3.45434e-19)
(-0.0427802 0.0190159 1.73409e-19)
(-0.0470296 0.0283817 5.81147e-20)
(-0.0507468 0.0385853 2.91163e-19)
(-0.0539452 0.0495166 3.55977e-22)
(-0.056641 0.0610688 1.16685e-19)
(-0.0588507 0.0731369 2.32694e-19)
(-0.0605888 0.0856186 2.3224e-19)
(-0.0618683 0.0984132 0)
(-0.0627002 0.111422 0)
(-0.0630943 0.124548 0)
(-0.0630588 0.137698 0)
(-0.0626003 0.150783 2.27425e-19)
(-0.0617254 0.163723 0)
(-0.0604416 0.176445 -3.44067e-22)
(-0.0587597 0.188892 4.45527e-19)
(-0.0566976 0.201026 2.20955e-19)
(-0.0542888 0.212843 2.1915e-19)
(-0.0515999 0.224383 4.34934e-19)
(-0.0487096 0.235783 0)
(-0.0457701 0.247367 -4.26811e-19)
(-0.043652 0.25933 4.67614e-19)
(0.00156563 -0.00345334 1.92616e-19)
(0.000765106 -0.00794159 -2.09143e-19)
(-0.00373876 -0.0104563 0)
(-0.00956376 -0.0109314 -2.174e-19)
(-0.015911 -0.00969986 -5.57423e-20)
(-0.0222404 -0.00689676 -1.67766e-19)
(-0.0282603 -0.00265573 -5.09329e-19)
(-0.0338157 0.00289549 -4.9516e-22)
(-0.0388301 0.00963852 -1.72261e-19)
(-0.0432755 0.0174574 -4.04207e-19)
(-0.0471493 0.0262416 -5.78917e-20)
(-0.0504639 0.0358836 -2.32304e-19)
(-0.0532376 0.0462788 -2.32598e-19)
(-0.0554905 0.0573243 0)
(-0.0572429 0.0689184 -2.32447e-19)
(-0.0585121 0.0809614 -3.483e-19)
(-0.0593142 0.0933547 1.15551e-19)
(-0.0596629 0.106001 -2.30663e-19)
(-0.0595707 0.118805 -2.29712e-19)
(-0.0590486 0.131675 0)
(-0.0581064 0.144521 -4.54759e-19)
(-0.0567535 0.15726 0)
(-0.0550002 0.169818 -4.49261e-19)
(-0.05286 0.182132 -2.23077e-19)
(-0.0503516 0.194157 -4.42115e-19)
(-0.0475077 0.205881 2.19423e-19)
(-0.044394 0.217339 -6.5163e-19)
(-0.0410868 0.228676 2.15149e-19)
(-0.0377115 0.240272 2.27682e-22)
(-0.0351891 0.252366 -2.33084e-19)
(0.00102074 -0.00266207 -1.9262e-19)
(-0.000411865 -0.00639326 2.60501e-20)
(-0.00526472 -0.00871284 1.86245e-19)
(-0.0112103 -0.00931719 2.17405e-19)
(-0.017509 -0.00841728 -2.2084e-19)
(-0.0236636 -0.00606705 4.70703e-22)
(-0.0294147 -0.002348 2.26143e-19)
(-0.0346303 0.00264594 -4.55789e-19)
(-0.0392507 0.00881866 -5.70562e-20)
(-0.0432603 0.016069 5.18984e-19)
(-0.0466654 0.0242972 -3.47398e-19)
(-0.0494848 0.0334033 5.80245e-19)
(-0.0517422 0.0432882 5.81398e-19)
(-0.053462 0.0538529 -1.16073e-19)
(-0.0546677 0.0649992 2.32449e-19)
(-0.0553802 0.0766303 3.48237e-19)
(-0.0556181 0.0886501 1.15812e-19)
(-0.0553984 0.100964 1.35056e-22)
(-0.0547365 0.113477 1.14695e-19)
(-0.0536468 0.126099 1.14086e-19)
(-0.052143 0.138742 -1.13656e-19)
(-0.0502388 0.151321 1.12768e-19)
(-0.0479501 0.163759 -2.24205e-19)
(-0.0452957 0.175985 2.22733e-19)
(-0.0422994 0.187946 2.3468e-22)
(-0.0389972 0.199616 2.18851e-19)
(-0.0354564 0.211012 2.81789e-22)
(-0.0317505 0.222269 -2.14823e-19)
(-0.027969 0.233805 2.79535e-22)
(-0.0250536 0.2459 0)
(0.000420372 -0.00187281 0)
(-0.00167165 -0.00484948 0)
(-0.00684247 -0.00696487 -2.39482e-19)
(-0.0128481 -0.00768234 2.70848e-20)
(-0.0190198 -0.00709159 0)
(-0.0249115 -0.00516724 2.23271e-19)
(-0.0303002 -0.00194003 5.64215e-20)
(-0.0350799 0.00252855 1.70878e-19)
(-0.0392094 0.00816366 2.29284e-19)
(-0.0426864 0.0148785 -2.3052e-19)
(-0.0455265 0.0225837 2.31428e-19)
(-0.0477558 0.0311864 -2.32032e-19)
(-0.0494033 0.040593 -2.32358e-19)
(-0.0504978 0.0507086 0)
(-0.0510663 0.0614385 0)
(-0.0511329 0.0726889 0)
(-0.0507192 0.0843667 -2.313e-19)
(-0.0498449 0.0963795 3.4595e-19)
(-0.0485287 0.108636 -1.14555e-19)
(-0.0467885 0.121048 0)
(-0.0446426 0.133527 3.40897e-19)
(-0.0421106 0.145992 -1.12676e-19)
(-0.0392156 0.158362 2.24204e-19)
(-0.0359862 0.170562 -4.44865e-19)
(-0.0324572 0.182528 4.41104e-19)
(-0.0286762 0.194215 2.56605e-23)
(-0.0247203 0.205609 3.36144e-22)
(-0.0206663 0.21681 2.14461e-19)
(-0.0165591 0.228231 -2.46333e-22)
(-0.0133062 0.240164 2.31431e-19)
(-0.000230129 -0.0010946 2.39007e-20)
(-0.00300039 -0.00332694 -2.59679e-20)
(-0.00845093 -0.00522946 5.30242e-20)
(-0.01445 -0.00604067 -3.23909e-19)
(-0.0204111 -0.00573094 5.48785e-20)
(-0.0259468 -0.00419827 0)
(-0.0308752 -0.00142471 2.24696e-19)
(-0.0351187 0.002559 -2.26739e-19)
(-0.0386562 0.00769808 0)
(-0.0414999 0.0139194 2.87273e-19)
(-0.0436754 0.0211432 -5.76292e-20)
(-0.0452164 0.0292837 0)
(-0.0461575 0.038252 -1.16168e-19)
(-0.0465321 0.0479575 2.32026e-19)
(-0.0463709 0.0583089 -1.15732e-19)
(-0.045701 0.0692158 1.15984e-19)
(-0.0445467 0.080588 -2.30977e-19)
(-0.0429305 0.0923364 -4.01298e-22)
(-0.040874 0.104373 -3.787e-22)
(-0.0383983 0.116613 -1.14101e-19)
(-0.0355262 0.128972 -2.27155e-19)
(-0.0322838 0.141372 -5.73867e-22)
(-0.0287031 0.153733 -7.2873e-23)
(-0.0248257 0.165982 2.22233e-19)
(-0.0207049 0.178047 -2.20409e-19)
(-0.0164118 0.189866 2.18537e-19)
(-0.0120514 0.201387 -4.32548e-19)
(-0.00772519 0.212638 -3.7479e-22)
(-0.00343846 0.223952 -4.24192e-19)
(4.19459e-05 0.235566 2.30433e-19)
(-0.000923983 -0.000336715 0)
(-0.0043815 -0.00184247 -2.06552e-19)
(-0.0100659 -0.00352366 0)
(-0.0159854 -0.0044056 6.02138e-22)
(-0.021647 -0.00434262 5.47848e-20)
(-0.0267288 -0.00315971 8.22332e-23)
(-0.031094 -0.000792838 -4.48729e-19)
(-0.0346965 0.00275594 1.70186e-19)
(-0.0375365 0.00745055 0)
(-0.0396416 0.0132305 -2.87168e-19)
(-0.0410486 0.0200251 5.75199e-20)
(-0.0417991 0.0277544 0)
(-0.0419338 0.0363345 -1.1599e-19)
(-0.0414908 0.0456783 1.15622e-19)
(-0.0405047 0.0556979 1.15373e-19)
(-0.0390053 0.066306 2.31232e-19)
(-0.0370197 0.0774157 -1.15129e-19)
(-0.0345726 0.0889413 0)
(-0.0316877 0.100799 0)
(-0.0283888 0.112908 2.27992e-19)
(-0.024702 0.125191 -2.26805e-19)
(-0.0206586 0.137575 2.24745e-19)
(-0.0162988 0.14999 2.23595e-19)
(-0.0116779 0.162369 2.21811e-19)
(-0.00687212 0.174649 -2.19558e-19)
(-0.00198965 0.186768 2.18021e-19)
(0.00280723 0.198653 2.15815e-19)
(0.00733163 0.210258 -2.13471e-19)
(0.0115244 0.221789 1.22607e-22)
(0.0149023 0.233244 4.5868e-19)
(-0.00165398 0.000392503 2.37705e-20)
(-0.00579691 -0.00041163 1.80787e-19)
(-0.011661 -0.00186312 0)
(-0.0174217 -0.00278905 2.15284e-19)
(-0.0226889 -0.00293232 0)
(-0.0272137 -0.00204925 0)
(-0.030908 -3.29287e-05 1.68138e-19)
(-0.0337594 0.00314095 -1.46547e-22)
(-0.0357913 0.00745346 5.6833e-20)
(-0.0370478 0.0128557 5.73476e-20)
(-0.0375774 0.0192845 -1.72616e-19)
(-0.0374305 0.0266658 1.15146e-19)
(-0.0366543 0.0349191 0)
(-0.0352922 0.0439609 0)
(-0.0333822 0.0537061 -2.3139e-19)
(-0.0309575 0.0640702 0)