/*--------------------------------*- C++ -*----------------------------------*\
  =========                 |
  \\      /  F ield         | OpenFOAM: The Open Source CFD Toolbox
   \\    /   O peration     | Website:  https://openfoam.org
    \\  /    A nd           | Version:  7
     \\/     M anipulation  |
\*---------------------------------------------------------------------------*/
FoamFile
{
    version     2.0;
    format      ascii;
    class       volScalarField;
    location    "0.1875";
    object      p;
}
// * * * * * * * * * * * * * * * * * * * * * * * * * * * * * * * * * * * * * //

dimensions      [0 2 -2 0 0 0 0];

internalField   nonuniform List<scalar> 
400
(
7.1367e-06
-0.00589352
-0.0130412
-0.018484
-0.020505
-0.0183124
-0.0118426
-0.00154202
0.0117932
0.0271215
0.0432344
0.0588301
0.0726007
0.0833419
0.0900923
0.0923063
0.0900635
0.084293
0.0769027
0.0710315
0.00583149
-0.000238185
-0.0057703
-0.00948144
-0.0105284
-0.00836095
-0.00290562
0.00552275
0.0163294
0.0287119
0.041722
0.0543311
0.0655081
0.0743146
0.0800166
0.0822134
0.0809856
0.0769921
0.0712632
0.0652485
0.0133965
0.00496626
-0.00100547
-0.00442054
-0.00527225
-0.00326367
0.0016015
0.00902391
0.0184943
0.0293365
0.0407471
0.051846
0.0617401
0.0696046
0.0747739
0.0768447
0.0758072
0.0720649
0.0658409
0.0574456
0.0202051
0.0085955
0.00120661
-0.0026734
-0.0037316
-0.00189548
0.00272109
0.00977355
0.018768
0.0290809
0.0399758
0.0506356
0.0602124
0.0678938
0.0729806
0.0749782
0.0737385
0.0694442
0.0616727
0.0500097
0.0245904
0.00964749
0.000573366
-0.0039839
-0.005305
-0.00351099
0.00117069
0.00832873
0.0174535
0.0279372
0.0390694
0.0500503
0.0600254
0.0681385
0.0735984
0.0757684
0.074334
0.0692758
0.0596241
0.0444227
0.0252953
0.00699968
-0.0038159
-0.00904743
-0.0105101
-0.00849933
-0.00335677
0.00442729
0.014308
0.0256698
0.0378002
0.0498848
0.0610246
0.0702754
0.0767044
0.0794839
0.0780974
0.072318
0.0606682
0.0417462
0.0212445
-0.000436308
-0.0129437
-0.0186908
-0.0200216
-0.0174079
-0.0113133
-0.00231725
0.00898928
0.0219707
0.0358991
0.0499281
0.0630897
0.0743171
0.0824896
0.0865321
0.0856707
0.0794278
0.0657812
0.042892
0.0113342
-0.0138142
-0.0278757
-0.0338233
-0.0345861
-0.0308436
-0.0232006
-0.0123363
0.00110953
0.0164836
0.0330463
0.0499204
0.0660624
0.080261
0.0911653
0.0973861
0.0978077
0.0916086
0.0760902
0.0488905
-0.00572511
-0.0344832
-0.0498573
-0.0555009
-0.0550606
-0.0494907
-0.0395723
-0.0260964
-0.00974514
0.00882925
0.0289004
0.0495847
0.069779
0.0881254
0.103008
0.112648
0.11547
0.11015
0.0930624
0.0611228
-0.031549
-0.0641122
-0.0803847
-0.0849377
-0.0823756
-0.0740426
-0.0609496
-0.0440107
-0.0239312
-0.00132285
0.0231522
0.0486583
0.0740812
0.097944
0.118353
0.133062
0.139885
0.136753
0.118703
0.0815574
-0.0682691
-0.104857
-0.121285
-0.123494
-0.117454
-0.105078
-0.0876767
-0.0662905
-0.0416082
-0.014133
0.0156207
0.0469584
0.0788477
0.109768
0.137579
0.15951
0.172592
0.173679
0.155811
0.113068
-0.118878
-0.159622
-0.174818
-0.172629
-0.161069
-0.142869
-0.119708
-0.0927343
-0.0625409
-0.0294167
0.0063976
0.0444886
0.0840563
0.123685
0.161092
0.193
0.215498
0.223929
0.208358
0.159944
-0.187928
-0.232507
-0.243795
-0.233788
-0.213602
-0.187087
-0.156317
-0.122454
-0.0858561
-0.046434
-0.00398054
0.0415654
0.0898561
0.139823
0.189283
0.234598
0.270869
0.291454
0.282037
0.228823
-0.283045
-0.329525
-0.331628
-0.308098
-0.274615
-0.236376
-0.195712
-0.153565
-0.109798
-0.0637028
-0.0143954
0.0389034
0.0965863
0.158291
0.222359
0.28521
0.341173
0.381286
0.385116
0.330529
-0.418168
-0.459732
-0.442059
-0.395616
-0.342061
-0.287698
-0.234582
-0.182898
-0.131574
-0.0789431
-0.0231647
0.037531
0.104611
0.178888
0.25989
0.34494
0.428413
0.499315
0.529623
0.483718
-0.619409
-0.636567
-0.578321
-0.494073
-0.411218
-0.335646
-0.267767
-0.205958
-0.147511
-0.0893434
-0.0283723
0.0384174
0.113888
0.200561
0.300058
0.412069
0.532941
0.651429
0.732447
0.720597
-0.935585
-0.878168
-0.741673
-0.598048
-0.474383
-0.372619
-0.288836
-0.21773
-0.153914
-0.0924166
-0.0286636
0.0417647
0.123347
0.220812
0.33901
0.482251
0.652271
0.841654
1.01496
1.09628
-1.48058
-1.20195
-0.920993
-0.692541
-0.517672
-0.387696
-0.290188
-0.213417
-0.148152
-0.0871984
-0.0245159
0.0455714
0.129113
0.233309
0.367371
0.54313
0.772636
1.06029
1.39819
1.73407
-2.57156
-1.60192
-1.04346
-0.714826
-0.497796
-0.353384
-0.255525
-0.184277
-0.126588
-0.0737736
-0.0191981
0.0430773
0.119775
0.219664
0.356015
0.549831
0.82982
1.23508
1.88111
2.95926
-4.4451
-2.01726
-0.969794
-0.564338
-0.357046
-0.239035
-0.169355
-0.123293
-0.0871782
-0.0533601
-0.0166656
0.0275271
0.0843126
0.161208
0.271591
0.441374
0.718814
1.22151
2.38403
4.9294
)
;

boundaryField
{
    movingWall
    {
        type            zeroGradient;
    }
    fixedWalls
    {
        type            zeroGradient;
    }
    frontAndBack
    {
        type            empty;
    }
}


// ************************************************************************* //
