/*--------------------------------*- C++ -*----------------------------------*\
  =========                 |
  \\      /  F ield         | OpenFOAM: The Open Source CFD Toolbox
   \\    /   O peration     | Website:  https://openfoam.org
    \\  /    A nd           | Version:  7
     \\/     M anipulation  |
\*---------------------------------------------------------------------------*/
FoamFile
{
    version     2.0;
    format      ascii;
    class       surfaceScalarField;
    location    "0.1875";
    object      phi;
}
// * * * * * * * * * * * * * * * * * * * * * * * * * * * * * * * * * * * * * //

dimensions      [0 3 -1 0 0 0 0];

internalField   nonuniform List<scalar> 
760
(
1.42583e-08
-1.42957e-08
-2.23532e-08
3.66116e-08
-1.14262e-07
9.19092e-08
-2.45369e-07
1.31107e-07
-3.95901e-07
1.50532e-07
-5.47112e-07
1.51211e-07
-6.82887e-07
1.35775e-07
-7.90318e-07
1.07431e-07
-8.59835e-07
6.95166e-08
-8.85258e-07
2.54227e-08
-8.63943e-07
-2.13145e-08
-7.97037e-07
-6.69065e-08
-6.89774e-07
-1.07263e-07
-5.51714e-07
-1.3806e-07
-3.96746e-07
-1.54968e-07
-2.42631e-07
-1.54115e-07
-1.09743e-07
-1.32889e-07
-1.8578e-08
-9.11646e-08
1.57691e-08
-3.4347e-08
1.57691e-08
-3.4349e-08
2.00533e-08
-1.80383e-07
1.82646e-07
-4.33936e-07
3.45461e-07
-7.64155e-07
4.61326e-07
-1.13164e-06
5.18014e-07
-1.49637e-06
5.15941e-07
-1.82219e-06
4.61597e-07
-2.07917e-06
3.64413e-07
-2.24477e-06
2.35113e-07
-2.30448e-06
8.51301e-08
-2.25237e-06
-7.34187e-08
-2.09165e-06
-2.27631e-07
-1.83507e-06
-3.6384e-07
-1.50513e-06
-4.68001e-07
-1.13349e-06
-5.26609e-07
-7.59243e-07
-5.28359e-07
-4.2536e-07
-4.66771e-07
-1.72713e-07
-3.43812e-07
-3.09961e-08
-1.76064e-07
-1.5227e-08
-9.20429e-08
1.12096e-07
-3.56785e-07
4.47389e-07
-7.64198e-07
7.52874e-07
-1.26785e-06
9.64983e-07
-1.81373e-06
1.06389e-06
-2.34773e-06
1.04994e-06
-2.8208e-06
9.34671e-07
-3.19206e-06
7.35671e-07
-3.43056e-06
4.73613e-07
-3.51639e-06
1.70964e-07
-3.44149e-06
-1.48322e-07
-3.21032e-06
-4.58805e-07
-2.84041e-06
-7.33753e-07
-2.36242e-06
-9.45986e-07
-1.8193e-06
-1.06973e-06
-1.26383e-06
-1.08382e-06
-7.54159e-07
-9.76443e-07
-3.46767e-07
-7.51204e-07
-8.7155e-08
-4.35675e-07
-1.02382e-07
-1.45049e-07
2.57145e-07
-5.2513e-07
8.2747e-07
-1.08104e-06
1.30878e-06
-1.74657e-06
1.63051e-06
-2.45301e-06
1.77032e-06
-3.13467e-06
1.7316e-06
-3.73324e-06
1.53325e-06
-4.20058e-06
1.20302e-06
-4.50041e-06
7.73442e-07
-4.60934e-06
2.79894e-07
-4.5177e-06
-2.39961e-07
-4.23032e-06
-7.46185e-07
-3.76721e-06
-1.19687e-06
-3.16382e-06
-1.54938e-06
-2.47046e-06
-1.76309e-06
-1.75007e-06
-1.80421e-06
-1.07389e-06
-1.65262e-06
-5.14801e-07
-1.31029e-06
-1.39148e-07
-8.11328e-07
-2.41531e-07
-1.93471e-07
4.50616e-07
-6.84606e-07
1.3186e-06
-1.38487e-06
2.00905e-06
-2.20606e-06
2.45171e-06
-3.06384e-06
2.6281e-06
-3.88173e-06
2.54949e-06
-4.59408e-06
2.2456e-06
-5.14786e-06
1.7568e-06
-5.50353e-06
1.1291e-06
-5.63551e-06
4.11873e-07
-5.53276e-06
-3.42712e-07
-5.19951e-06
-1.07943e-06
-4.65627e-06
-1.74011e-06
-3.9407e-06
-2.26494e-06
-3.1079e-06
-2.5959e-06
-2.22919e-06
-2.68292e-06
-1.38881e-06
-2.493e-06
-6.78073e-07
-2.02103e-06
-1.87612e-07
-1.30179e-06
-4.29143e-07
-2.3979e-07
6.90406e-07
-8.39888e-07
1.9187e-06
-1.6824e-06
2.85156e-06
-2.65568e-06
3.42499e-06
-3.65897e-06
3.63139e-06
-4.60545e-06
3.49597e-06
-5.42365e-06
3.0638e-06
-6.05756e-06
2.39071e-06
-6.46613e-06
1.53768e-06
-6.62271e-06
5.68456e-07
-6.51497e-06
-4.50449e-07
-6.14556e-06
-1.44884e-06
-5.53354e-06
-2.35214e-06
-4.71628e-06
-3.0822e-06
-3.75128e-06
-3.56089e-06
-2.71685e-06
-3.71735e-06
-1.71049e-06
-3.49936e-06
-8.44125e-07
-2.88739e-06
-2.35993e-07
-1.90992e-06
-6.65136e-07
-2.86563e-07
9.76969e-07
-9.96547e-07
2.62869e-06
-1.98106e-06
3.83607e-06
-3.10339e-06
4.54732e-06
-4.24589e-06
4.77389e-06
-5.3123e-06
4.56238e-06
-6.22722e-06
3.97872e-06
-6.93398e-06
3.09747e-06
-7.39208e-06
1.99578e-06
-7.57508e-06
7.51459e-07
-7.46958e-06
-5.55951e-07
-7.0756e-06
-1.84283e-06
-6.40855e-06
-3.01919e-06
-5.50257e-06
-3.98818e-06
-4.4145e-06
-4.64896e-06
-3.2274e-06
-4.90446e-06
-2.05164e-06
-4.67511e-06
-1.02185e-06
-3.91719e-06
-2.88034e-07
-2.64374e-06
-9.5317e-07
-3.36102e-07
1.31307e-06
-1.15973e-06
3.45232e-06
-2.28684e-06
4.96317e-06
-3.55327e-06
5.81374e-06
-4.82439e-06
6.04502e-06
-5.99642e-06
5.73441e-06
-6.99305e-06
4.97535e-06
-7.76027e-06
3.86469e-06
-8.26103e-06
2.49653e-06
-8.47101e-06
9.61439e-07
-8.37627e-06
-6.5069e-07
-7.9732e-06
-2.2459e-06
-7.27097e-06
-3.72141e-06
-6.29659e-06
-4.96257e-06
-5.10171e-06
-5.84383e-06
-3.77015e-06
-6.23602e-06
-2.42324e-06
-6.02203e-06
-1.21984e-06
-5.12058e-06
-3.47367e-07
-3.51621e-06
-1.30054e-06
-3.90659e-07
1.70373e-06
-1.33411e-06
4.39577e-06
-2.60362e-06
6.23268e-06
-4.00403e-06
7.21415e-06
-5.38445e-06
7.42544e-06
-6.63704e-06
6.98701e-06
-7.68947e-06
6.02778e-06
-8.4953e-06
4.67052e-06
-9.02508e-06
3.02631e-06
-9.25943e-06
1.19579e-06
-9.18501e-06
-7.25103e-07
-8.79374e-06
-2.63717e-06
-8.08559e-06
-4.42955e-06
-7.07535e-06
-5.97282e-06
-5.80294e-06
-7.11624e-06
-4.34619e-06
-7.69276e-06
-2.83273e-06
-7.53549e-06
-1.44589e-06
-6.50742e-06
-4.17623e-07
-4.54448e-06
-1.71816e-06
-4.53054e-07
2.15679e-06
-1.52471e-06
5.46743e-06
-2.93328e-06
7.64124e-06
-4.44799e-06
8.72887e-06
-5.90385e-06
8.8813e-06
-7.19514e-06
8.27829e-06
-8.26086e-06
7.0935e-06
-9.06917e-06
5.47884e-06
-9.60387e-06
3.56101e-06
-9.85444e-06
1.44636e-06
-9.81008e-06
-7.69468e-07
-9.45781e-06
-2.98944e-06
-8.78534e-06
-5.10202e-06
-7.78913e-06
-6.96903e-06
-6.48843e-06
-8.41694e-06
-4.94458e-06
-9.23661e-06
-3.28248e-06
-9.19759e-06
-1.70706e-06
-8.08284e-06
-5.02926e-07
-5.74861e-06
-2.22109e-06
-5.27807e-07
2.68459e-06
-1.73842e-06
6.67804e-06
-3.27604e-06
9.17886e-06
-4.86925e-06
1.03221e-05
-6.34446e-06
1.03565e-05
-7.60826e-06
9.5421e-06
-8.62186e-06
8.1071e-06
-9.37724e-06
6.23422e-06
-9.87853e-06
4.0623e-06
-1.01289e-05
1.69678e-06
-1.0123e-05
-7.75453e-07
-9.84318e-06
-3.26922e-06
-9.26245e-06
-5.68276e-06
-8.35244e-06
-7.87904e-06
-7.10062e-06
-9.66877e-06
-5.53677e-06
-1.08005e-05
-3.76742e-06
-1.09669e-05
-2.01002e-06
-9.84025e-06
-6.08799e-07
-7.14983e-06
-2.82989e-06
-6.23033e-07
3.30763e-06
-1.98582e-06
8.04083e-06
-3.62959e-06
1.08226e-05
-5.23932e-06
1.19318e-05
-6.64504e-06
1.17622e-05
-7.78221e-06
1.06793e-05
-8.64905e-06
8.97393e-06
-9.27258e-06
6.85775e-06
-9.68492e-06
4.47464e-06
-9.90814e-06
1.92001e-06
-9.94531e-06
-7.38283e-07
-9.77623e-06
-3.43829e-06
-9.35796e-06
-6.10103e-06
-8.63206e-06
-8.60494e-06
-7.54229e-06
-1.07585e-05
-6.06728e-06
-1.22755e-05
-4.27037e-06
-1.27639e-05
-2.36095e-06
-1.17497e-05
-7.43701e-07
-8.76708e-06
-3.57359e-06
-7.53563e-07
4.06119e-06
-2.28256e-06
9.56983e-06
-3.98435e-06
1.25244e-05
-5.50637e-06
1.34538e-05
-6.7073e-06
1.29632e-05
-7.57684e-06
1.15488e-05
-8.1689e-06
9.566e-06
-8.55692e-06
7.24577e-06
-8.80728e-06
4.725e-06
-8.96463e-06
2.07736e-06
-9.04373e-06
-6.59183e-07
-9.02465e-06
-3.45738e-06
-8.8508e-06
-6.27488e-06
-8.43215e-06
-9.02358e-06
-7.65935e-06
-1.15313e-05
-6.43778e-06
-1.3497e-05
-4.75204e-06
-1.44496e-05
-2.76375e-06
-1.3738e-05
-9.215e-07
-1.06093e-05
-4.49509e-06
-9.45644e-07
5.00683e-06
-2.64697e-06
1.12712e-05
-4.30828e-06
1.41857e-05
-5.57081e-06
1.47163e-05
-6.36899e-06
1.37614e-05
-6.78247e-06
1.19623e-05
-6.94047e-06
9.724e-06
-6.97031e-06
7.2756e-06
-6.97374e-06
4.72843e-06
-7.0176e-06
2.12122e-06
-7.12957e-06
-5.4721e-07
-7.29432e-06
-3.29263e-06
-7.4485e-06
-6.1207e-06
-7.47679e-06
-8.99529e-06
-7.21573e-06
-1.17924e-05
-6.47949e-06
-1.42333e-05
-5.12974e-06
-1.57993e-05
-3.21262e-06
-1.56551e-05
-1.16474e-06
-1.26572e-05
-5.65983e-06
-1.24112e-06
6.24796e-06
-3.08352e-06
1.31136e-05
-4.50574e-06
1.5608e-05
-5.23294e-06
1.54435e-05
-5.35479e-06
1.38832e-05
-5.08246e-06
1.169e-05
-4.63241e-06
9.27395e-06
-4.18144e-06
6.82464e-06
-3.857e-06
4.40399e-06
-3.73991e-06
2.00412e-06
-3.86802e-06
-4.19093e-07
-4.23529e-06
-2.92536e-06
-4.78422e-06
-5.57177e-06
-5.39242e-06
-8.38709e-06
-5.85883e-06
-1.1326e-05
-5.90578e-06
-1.41863e-05
-5.23145e-06
-1.64737e-05
-3.66699e-06
-1.72195e-05
-1.50483e-06
-1.48194e-05
-7.16465e-06
-1.68694e-06
7.93489e-06
-3.51929e-06
1.49459e-05
-4.31594e-06
1.64046e-05
-4.08957e-06
1.52172e-05
-3.1948e-06
1.29884e-05
-2.0014e-06
1.04966e-05
-7.98563e-07
8.07112e-06
2.1531e-07
5.81076e-06
9.13807e-07
3.70549e-06
1.2209e-06
1.69703e-06
1.09718e-06
-2.95378e-07
5.36161e-07
-2.36434e-06
-4.27681e-07
-4.60793e-06
-1.69702e-06
-7.11775e-06
-3.07649e-06
-9.94652e-06
-4.23455e-06
-1.30283e-05
-4.69986e-06
-1.60084e-05
-3.97665e-06
-1.79428e-05
-1.96099e-06
-1.6835e-05
-9.12564e-06
-2.27133e-06
1.02062e-05
-3.60903e-06
1.62836e-05
-3.08293e-06
1.58785e-05
-1.34802e-06
1.34823e-05
8.92302e-07
1.07481e-05
3.14985e-06
8.239e-06
5.13268e-06
6.08829e-06
6.68297e-06
4.26047e-06
7.71985e-06
2.66862e-06
8.20032e-06
1.21656e-06
8.09732e-06
-1.92383e-07
7.39219e-06
-1.6592e-06
6.0797e-06
-3.29545e-06
4.19166e-06
-5.22971e-06
1.84605e-06
-7.60091e-06
-6.7082e-07
-1.05114e-05
-2.80448e-06
-1.38747e-05
-3.68959e-06
-1.70576e-05
-2.46029e-06
-1.80643e-05
-1.15859e-05
-2.69696e-06
1.29032e-05
-2.2075e-06
1.57942e-05
7.13718e-07
1.29573e-05
4.46351e-06
9.73249e-06
8.12583e-06
7.08577e-06
1.12939e-05
5.07096e-06
1.38215e-05
3.56065e-06
1.56807e-05
2.40132e-06
1.68843e-05
1.46502e-06
1.74473e-05
6.53488e-07
1.73685e-05
-1.13521e-07
1.66221e-05
-9.1281e-07
1.51581e-05
-1.83146e-06
1.29137e-05
-2.98537e-06
9.8515e-06
-4.53866e-06
6.0515e-06
-6.71139e-06
1.90001e-06
-9.7232e-06
-1.59542e-06
-1.35622e-05
-2.5941e-06
-1.70656e-05
-1.418e-05
-5.79035e-07
1.34822e-05
4.12015e-06
1.1095e-05
1.02997e-05
6.7777e-06
1.57881e-05
4.24409e-06
2.01498e-05
2.72408e-06
2.34493e-05
1.77153e-06
2.58524e-05
1.15748e-06
2.75137e-05
7.40005e-07
2.85466e-05
4.32167e-07
2.90189e-05
1.81216e-07
2.89546e-05
-4.92536e-08
2.83304e-05
-2.88643e-07
2.70726e-05
-5.73671e-07
2.50453e-05
-9.57979e-07
2.20427e-05
-1.53608e-06
1.78099e-05
-2.47865e-06
1.2175e-05
-4.08826e-06
5.52152e-06
-6.90875e-06
9.59053e-08
-1.164e-05
-1.40841e-05
1.34822e-05
2.45772e-05
3.13549e-05
3.5599e-05
3.8323e-05
4.00946e-05
4.12521e-05
4.19921e-05
4.24242e-05
4.26054e-05
4.25562e-05
4.22676e-05
4.16939e-05
4.07359e-05
3.91998e-05
3.67212e-05
3.26329e-05
2.57242e-05
1.40841e-05
)
;

boundaryField
{
    movingWall
    {
        type            calculated;
        value           uniform 0;
    }
    fixedWalls
    {
        type            calculated;
        value           uniform 0;
    }
    frontAndBack
    {
        type            empty;
        value           nonuniform 0();
    }
}


// ************************************************************************* //
