/*--------------------------------*- C++ -*----------------------------------*\
  =========                 |
  \\      /  F ield         | OpenFOAM: The Open Source CFD Toolbox
   \\    /   O peration     | Website:  https://openfoam.org
    \\  /    A nd           | Version:  7
     \\/     M anipulation  |
\*---------------------------------------------------------------------------*/
FoamFile
{
    version     2.0;
    format      ascii;
    class       volVectorField;
    location    "5.1";
    object      U;
}
// * * * * * * * * * * * * * * * * * * * * * * * * * * * * * * * * * * * * * //

dimensions      [0 1 -1 0 0 0 0];

internalField   nonuniform List<vector> 
18000
(
(-0.000396072 0.00320738 9.50445e-21)
(-0.00241688 0.0161397 0)
(-0.00588097 0.0341538 0)
(-0.00978388 0.0546319 0)
(-0.0138155 0.0761494 -3.12618e-21)
(-0.0176696 0.097922 1.58158e-20)
(-0.0211484 0.119501 -3.19951e-21)
(-0.0241289 0.140611 3.22156e-21)
(-0.0265377 0.161066 0)
(-0.0283362 0.180713 -9.76155e-21)
(-0.029513 0.199411 -3.26542e-21)
(-0.0300738 0.217022 0)
(-0.0300361 0.233412 6.53467e-21)
(-0.0294284 0.24846 6.54768e-21)
(-0.0282836 0.262064 -1.30919e-20)
(-0.026636 0.274142 -1.30712e-20)
(-0.0245221 0.284643 0)
(-0.0219784 0.29354 -1.95295e-20)
(-0.0190415 0.300833 6.4764e-21)
(-0.0157487 0.306547 -1.93866e-20)
(-0.0121358 0.310732 6.42307e-21)
(-0.00823532 0.313452 0)
(-0.0040782 0.314786 -6.33171e-21)
(0.000304868 0.314821 -6.32219e-21)
(0.00488298 0.313648 0)
(0.00962248 0.311363 0)
(0.0144852 0.308058 -1.23919e-20)
(0.0194467 0.303827 -1.23011e-20)
(0.0244768 0.298833 -1.22619e-20)
(0.0293369 0.293285 1.36695e-20)
(-0.000542988 0.00374551 1.35409e-20)
(-0.00306991 0.0173497 2.35474e-20)
(-0.00723185 0.0357609 -2.40914e-20)
(-0.0119016 0.0564472 -2.45531e-20)
(-0.016729 0.0780167 -6.24167e-21)
(-0.0213841 0.0997149 1.89288e-20)
(-0.0256568 0.12112 -2.5519e-20)
(-0.0294148 0.141975 -2.5725e-20)
(-0.0325747 0.162113 2.58841e-20)
(-0.0350922 0.1814 2.59985e-20)
(-0.036954 0.199707 -1.30449e-20)
(-0.0381609 0.216906 -2.61325e-20)
(-0.0387262 0.232872 -1.31019e-20)
(-0.0386761 0.247491 2.61485e-20)
(-0.0380399 0.260664 -2.61299e-20)
(-0.0368495 0.272317 2.61012e-20)
(-0.0351405 0.282399 -5.21072e-20)
(-0.0329484 0.290887 3.89221e-20)
(-0.0303077 0.297782 -2.58341e-20)
(-0.0272536 0.303113 1.29073e-20)
(-0.023821 0.306928 -2.56024e-20)
(-0.0200424 0.309294 0)
(-0.0159491 0.310289 1.28206e-20)
(-0.011572 0.310004 -2.51779e-20)
(-0.0069442 0.308535 2.50042e-20)
(-0.00210185 0.30598 0)
(0.00291235 0.302443 -1.22598e-20)
(0.00806486 0.298025 1.21912e-20)
(0.0133025 0.292907 4.85773e-20)
(0.0183897 0.287312 2.71612e-20)
(-0.000710223 0.00426339 -2.16874e-20)
(-0.00374184 0.0185186 -2.35469e-20)
(-0.00856417 0.0373463 3.61277e-20)
(-0.01395 0.0582493 6.13139e-20)
(-0.0195131 0.0798743 0)
(-0.0249013 0.101499 -2.52594e-20)
(-0.0298936 0.122724 2.55186e-20)
(-0.0343527 0.143318 7.70944e-20)
(-0.0381888 0.163134 -2.58838e-20)
(-0.0413539 0.182051 -2.60017e-20)
(-0.0438293 0.199955 7.81602e-20)
(-0.0456136 0.21673 2.61322e-20)
(-0.0467168 0.23226 0)
(-0.0471612 0.246436 -5.23096e-20)
(-0.0469749 0.259167 7.81596e-20)
(-0.0461881 0.270381 -2.60193e-20)
(-0.0448336 0.280031 2.60105e-20)
(-0.0429453 0.288096 2.59384e-20)
(-0.0405566 0.29458 8.97164e-23)
(-0.0377011 0.299511 0)
(-0.034412 0.302939 7.68042e-20)
(-0.0307204 0.30493 -5.07378e-20)
(-0.0266566 0.305565 2.53234e-20)
(-0.022252 0.304937 0)
(-0.0175408 0.303147 -2.50041e-20)
(-0.0125623 0.300302 9.9019e-20)
(-0.00736422 0.296514 -7.34685e-20)
(-0.00198754 0.291897 -2.44651e-20)
(0.00349148 0.286648 2.39821e-20)
(0.00883719 0.281008 2.70853e-20)
(-0.000897648 0.00483794 0)
(-0.00444016 0.0197841 1.17446e-20)
(-0.00989815 0.0390093 7.92965e-25)
(-0.0159491 0.0601095 -6.1272e-20)
(-0.0221787 0.081771 0)
(-0.0282244 0.103306 -5.036e-20)
(-0.0338574 0.124337 0)
(-0.0389348 0.144658 -7.7052e-20)
(-0.0433644 0.164137 2.58036e-20)
(-0.0470946 0.182672 -5.18326e-20)
(-0.0501034 0.200162 -5.20764e-20)
(-0.0523867 0.216502 -2.60932e-20)
(-0.0539531 0.231586 2.60428e-20)
(-0.0548221 0.245311 2.59704e-20)
(-0.0550184 0.257591 -2.61296e-20)
(-0.0545705 0.268359 -5.19017e-20)
(-0.0535104 0.27757 5.172e-20)
(-0.0518703 0.285204 0)
(-0.0496811 0.291267 0)
(-0.0469742 0.295786 0)
(-0.0437809 0.298812 0)
(-0.0401308 0.300412 0)
(-0.0360527 0.300668 0)
(-0.0315777 0.299677 -4.98579e-20)
(-0.0267408 0.297544 -4.9711e-20)
(-0.0215837 0.294385 -2.09057e-22)
(-0.016158 0.290325 -4.89002e-20)
(-0.0105132 0.285495 -2.79165e-22)
(-0.00474817 0.28011 -4.85175e-20)
(0.000896803 0.274429 1.07565e-19)
(-0.00111013 0.0054093 0)
(-0.00516512 0.0210219 1.0544e-19)
(-0.0112169 0.0406377 9.84281e-25)
(-0.0178756 0.0619284 -3.66827e-20)
(-0.0247043 0.0836216 1.2411e-19)
(-0.031329 0.105063 7.55297e-20)
(-0.0375182 0.1259 7.61852e-20)
(-0.0431285 0.145945 0)
(-0.0480649 0.165087 0)
(-0.052273 0.183239 7.77513e-20)
(-0.0557301 0.200313 5.32404e-23)
(-0.0584303 0.216216 -1.82021e-19)
(-0.0603792 0.230851 1.55975e-19)
(-0.0615938 0.244123 -5.20725e-20)
(-0.0620974 0.255952 5.17387e-20)
(-0.0619172 0.266273 5.17313e-20)
(-0.0610833 0.275043 -5.15859e-20)
(-0.0596254 0.282244 5.1543e-20)
(-0.0575725 0.287881 1.02458e-19)
(-0.0549539 0.291983 -5.09032e-20)
(-0.0517989 0.294598 -1.01201e-19)
(-0.0481345 0.295795 1.00581e-19)
(-0.0439878 0.295656 -9.9919e-20)
(-0.0393894 0.294281 4.98575e-20)
(-0.034374 0.291783 0)
(-0.0289855 0.288288 0)
(-0.0232794 0.283936 4.17842e-22)
(-0.0173124 0.278876 -1.92424e-19)
(-0.011205 0.273346 9.52977e-20)
(-0.00520893 0.267628 -1.07119e-19)
(-0.00134493 0.00598494 0)
(-0.0059127 0.0222604 -9.37141e-20)
(-0.012522 0.0422501 9.57136e-20)
(-0.0197311 0.0637136 0)
(-0.0270848 0.0854275 -1.98381e-19)
(-0.0342079 0.10677 -2.51292e-20)
(-0.0408676 0.127408 -5.08337e-20)
(-0.0469195 0.147177 -2.55672e-20)
(-0.0522699 0.165982 0)
(-0.0568646 0.183751 -5.1749e-20)
(-0.0606787 0.20041 5.18003e-20)
(-0.0637046 0.215877 1.0395e-19)
(-0.0659471 0.230066 -1.03988e-19)
(-0.0674211 0.242888 0)
(-0.0681481 0.254269 -1.03749e-19)
(-0.068154 0.264146 1.03222e-19)
(-0.067467 0.272479 1.03164e-19)
(-0.0661147 0.279249 1.53806e-19)
(-0.0641238 0.284463 -1.53284e-19)
(-0.0615217 0.288146 2.03111e-19)
(-0.0583353 0.290347 1.01132e-19)
(-0.0545893 0.291132 -1.0058e-19)
(-0.0503088 0.290587 1.99358e-19)
(-0.045523 0.288815 0)
(-0.0402668 0.285934 9.79514e-20)
(-0.0345852 0.282082 1.94728e-19)
(-0.028537 0.277415 -9.59428e-20)
(-0.0221862 0.272106 9.61252e-20)
(-0.0156718 0.266418 -2.08105e-22)
(-0.00926509 0.260666 -1.06577e-19)
(-0.00160226 0.006549 -1.07607e-20)
(-0.00668144 0.0234593 0)
(-0.0138052 0.043799 -1.19622e-19)
(-0.0215039 0.0654202 2.43645e-20)
(-0.0293093 0.0871451 7.43412e-20)
(-0.0368463 0.108383 2.50664e-20)
(-0.0438854 0.128826 1.01254e-19)
(-0.0502851 0.148323 0)
(-0.0559539 0.166796 5.14306e-20)
(-0.0608375 0.184187 5.15637e-20)
(-0.0649108 0.200438 -5.1805e-20)
(-0.068166 0.215478 1.55329e-19)
(-0.0706064 0.229229 0)
(-0.0722451 0.241611 0)
(-0.0731027 0.252553 1.54992e-19)
(-0.073204 0.261996 -2.57642e-19)
(-0.0725748 0.2699 1.02559e-19)
(-0.0712403 0.27625 -1.02433e-19)
(-0.0692259 0.281047 -1.01575e-19)
(-0.066557 0.284318 -3.03691e-19)
(-0.063258 0.286107 -3.36864e-22)
(-0.0593513 0.286482 9.96734e-20)
(-0.0548607 0.285526 -1.9839e-19)
(-0.0498135 0.283346 9.81938e-20)
(-0.0442445 0.280068 -5.44542e-22)
(-0.0381998 0.275842 -9.71615e-20)
(-0.0317411 0.27084 9.63491e-20)
(-0.0249385 0.265261 0)
(-0.0179463 0.259401 9.40278e-20)
(-0.0110641 0.253614 2.2444e-22)
(-0.00187942 0.00709041 -2.14808e-20)
(-0.00746574 0.0246001 2.33225e-20)
(-0.0150611 0.0452612 -1.43089e-19)
(-0.0231871 0.0670187 -7.28833e-20)
(-0.0313675 0.0887443 9.87551e-20)
(-0.0392322 0.109877 -1.50127e-19)
(-0.0465581 0.130126 -5.06938e-20)
(-0.0532081 0.149358 -1.01898e-19)
(-0.0590944 0.167508 1.02516e-19)
(-0.0641647 0.184534 -2.06085e-19)
(-0.0683944 0.200388 -1.03224e-19)
(-0.0717755 0.215013 -2.02499e-22)
(-0.0743105 0.228339 5.17779e-20)
(-0.0760117 0.240295 -1.54831e-19)
(-0.076899 0.250813 -2.06229e-19)
(-0.0769951 0.259837 2.7078e-23)
(-0.0763238 0.26733 -2.66095e-22)
(-0.0749089 0.273274 1.01761e-19)
(-0.0727741 0.27767 1.01573e-19)
(-0.0699434 0.28054 9.05227e-23)
(-0.0664387 0.281929 -2.13773e-22)
(-0.0622811 0.2819 9.88718e-20)
(-0.0574927 0.280538 9.89496e-20)
(-0.0521005 0.27795 -1.6492e-22)
(-0.0461384 0.274268 -2.91658e-19)
(-0.0396531 0.269653 1.92216e-19)
(-0.0327097 0.264298 1.91071e-19)
(-0.0253831 0.25843 -1.88999e-19)
(-0.0178385 0.25238 -9.40259e-20)
(-0.0104131 0.246556 -1.04256e-19)
(-0.0021738 0.00760094 -1.92775e-19)
(-0.00826015 0.0256611 -2.32781e-20)
(-0.0162829 0.0466081 1.19177e-19)
(-0.0247732 0.068479 9.72021e-20)
(-0.0332514 0.0901935 -9.87539e-20)
(-0.0413566 0.111217 1.00038e-19)
(-0.0488744 0.131278 -5.05251e-20)
(-0.0556743 0.150254 1.52771e-19)
(-0.0616739 0.168094 -1.02515e-19)
(-0.0668243 0.18477 1.0295e-19)
(-0.0711021 0.200244 5.16155e-20)
(-0.0744998 0.214472 -5.17688e-20)
(-0.0770199 0.227392 -3.09563e-19)
(-0.078674 0.238941 2.06214e-19)
(-0.0794811 0.249054 1.02984e-19)
(-0.0794624 0.257681 0)
(-0.0786394 0.264784 0)
(-0.0770352 0.270343 -6.07914e-22)
(-0.0746726 0.274359 -1.00737e-19)
(-0.0715736 0.276851 0)
(-0.067759 0.277858 0)
(-0.0632492 0.277443 -9.92056e-20)
(-0.058066 0.275687 0)
(-0.0522356 0.272699 -1.94265e-19)
(-0.0457921 0.268616 0)
(-0.038783 0.263609 -9.60055e-20)
(-0.0312764 0.257889 1.89815e-19)
(-0.0233517 0.251712 -1.87756e-19)
(-0.0151793 0.245455 0)
(-0.0071425 0.239586 0)
(-0.00248181 0.00807096 1.71335e-19)
(-0.00905792 0.0266226 0)
(-0.0174635 0.047814 -2.37752e-20)
(-0.0262556 0.0697709 2.42276e-20)
(-0.0349549 0.0914598 -1.47512e-19)
(-0.0432128 0.112371 4.64944e-23)
(-0.0508266 0.132249 -5.03785e-20)
(-0.0576744 0.150981 0)
(-0.0636805 0.168528 0)
(-0.0688006 0.184871 -5.13741e-20)
(-0.0730138 0.199987 5.14249e-20)
(-0.0763136 0.213839 -1.0312e-19)
(-0.0787031 0.226377 1.03368e-19)
(-0.0801938 0.237542 0)
(-0.0808033 0.247276 0)
(-0.0805513 0.255532 0)
(-0.0794587 0.262272 1.01379e-19)
(-0.0775475 0.267476 -3.46601e-22)
(-0.0748395 0.27114 1.01093e-19)
(-0.0713559 0.273281 -1.99542e-19)
(-0.0671174 0.273935 9.93283e-20)
(-0.0621447 0.27316 -4.92073e-19)
(-0.0564603 0.271035 3.75305e-22)
(-0.050091 0.267668 1.9426e-19)
(-0.0430714 0.263199 -6.85369e-22)
(-0.0354505 0.257807 1.90119e-19)
(-0.0273003 0.251718 -1.87813e-19)
(-0.0187037 0.245219 -1.86717e-19)
(-0.00982992 0.238737 5.55475e-22)
(-0.00111571 0.232816 -2.04105e-19)
(-0.00279928 0.00849251 -2.13506e-20)
(-0.00985175 0.0274673 0)
(-0.0185962 0.0488552 4.74564e-20)
(-0.0276287 0.0708655 -4.83593e-20)
(-0.0364735 0.0925115 4.42329e-19)
(-0.0447974 0.113306 4.84556e-23)
(-0.0524115 0.133005 -5.0285e-20)
(-0.0592042 0.151506 5.07552e-20)
(-0.0651082 0.168778 -2.54914e-19)
(-0.0700852 0.184811 0)
(-0.0741177 0.199592 0)
(-0.077201 0.213095 -1.02532e-19)
(-0.0793394 0.225277 1.03082e-19)
(-0.0805444 0.236087 -1.02684e-19)
(-0.0808327 0.245473 1.02249e-19)
(-0.0802229 0.253388 0)
(-0.0787354 0.259798 -4.05827e-19)
(-0.0763917 0.264679 2.01442e-19)
(-0.0732131 0.268027 1.00317e-19)
(-0.0692209 0.269853 2.98746e-19)
(-0.064437 0.270192 0)
(-0.0588836 0.269094 1.96513e-19)
(-0.0525848 0.266637 1.94279e-19)
(-0.0455697 0.262926 1.9255e-19)
(-0.0378749 0.2581 -1.13754e-21)
(-0.029552 0.252343 -1.88442e-19)
(-0.0206771 0.245895 1.87807e-19)
(-0.0113373 0.23907 0)
(-0.0016936 0.232349 5.90731e-22)
(0.00775948 0.226365 4.06071e-19)
(-0.00312194 0.00885914 -1.70249e-19)
(-0.0106342 0.0281803 0)
(-0.0196746 0.04971 -1.89202e-19)
(-0.028888 0.0717364 -2.41175e-19)
(-0.037805 0.0933176 -1.47357e-19)
(-0.0461102 0.113987 4.97217e-20)
(-0.0536299 0.133511 5.90546e-23)
(-0.060265 0.151793 -5.05953e-20)
(-0.065958 0.168809 3.85164e-22)
(-0.0706778 0.184556 1.02351e-19)
(-0.0744113 0.19903 1.02387e-19)
(-0.0771568 0.212212 -1.02245e-19)
(-0.0789202 0.224069 1.02478e-19)
(-0.0797134 0.234557 -3.06897e-19)
(-0.0795526 0.243628 3.05832e-19)
(-0.0784558 0.251239 2.02994e-19)
(-0.0764434 0.257355 5.05729e-19)
(-0.0735368 0.261952 -1.01191e-19)
(-0.0697576 0.265025 -1.99378e-19)
(-0.0651286 0.266581 -8.21224e-22)
(-0.0596733 0.266649 -1.96798e-19)
(-0.053417 0.265276 5.84754e-19)
(-0.0463875 0.262536 -3.87705e-19)
(-0.0386173 0.258529 3.82519e-19)
(-0.0301467 0.253391 -1.90284e-19)
(-0.0210314 0.247308 3.75681e-19)
(-0.0113531 0.240527 6.68793e-22)
(-0.0012037 0.233385 -3.6805e-19)
(0.0092708 0.226421 3.63501e-19)
(0.0195179 0.220363 1.99685e-19)
(-0.00344549 0.00916591 1.70248e-19)
(-0.0113982 0.0287497 0)
(-0.0206932 0.0503603 4.25261e-19)
(-0.0300307 0.0723592 1.44725e-19)
(-0.0389497 0.0938489 0)
(-0.0471541 0.114382 0)
(-0.0544874 0.133731 0)
(-0.0608642 0.151806 0)
(-0.0662382 0.168585 1.01795e-19)
(-0.0705869 0.18407 1.02011e-19)
(-0.073903 0.198265 -2.04834e-19)
(-0.0761883 0.211159 2.04992e-19)
(-0.0774513 0.222725 3.06769e-19)
(-0.0777049 0.232925 1.02417e-19)
(-0.0769653 0.241718 1.01292e-19)
(-0.0752507 0.249063 -3.0429e-19)
(-0.0725817 0.254926 -4.03257e-19)
(-0.0689804 0.259284 -2.00734e-19)
(-0.0644697 0.262127 1.99372e-19)
(-0.0590745 0.263462 -3.95389e-19)
(-0.052822 0.263313 1.95807e-19)
(-0.0457415 0.261722 -3.88742e-19)
(-0.0378658 0.258758 1.91818e-19)
(-0.0292328 0.254516 -1.03201e-21)
(-0.0198886 0.249128 -1.88559e-19)
(-0.00989435 0.242775 -3.73903e-19)
(0.000661106 0.235706 3.6999e-19)
(0.0116791 0.228276 0)
(0.0230346 0.221076 -6.31888e-22)
(0.0341234 0.214941 -3.96915e-19)
(-0.0037658 0.0094095 2.12091e-20)
(-0.0121371 0.0291669 0)
(-0.0216474 0.0507912 -1.88798e-19)
(-0.0310555 0.0727131 4.80887e-20)
(-0.0399099 0.0940784 -4.88296e-20)
(-0.0479357 0.114457 0)
(-0.054994 0.133629 -5.00526e-20)
(-0.0610149 0.151504 5.0398e-20)
(-0.0659647 0.168063 1.01531e-19)
(-0.0698306 0.183311 -3.05349e-19)
(-0.0726122 0.197257 -1.02161e-19)
(-0.0743162 0.209895 -1.16772e-22)
(-0.0749545 0.221205 -2.40097e-22)
(-0.0745417 0.231156 -2.03706e-19)
(-0.0730948 0.23971 -1.01825e-19)
(-0.0706329 0.246831 0)
(-0.0671776 0.252485 2.82836e-22)
(-0.0627522 0.25665 2.00016e-19)
(-0.0573824 0.259314 -1.98211e-19)
(-0.0510964 0.260482 0)
(-0.0439257 0.260173 0)
(-0.0359053 0.258428 0)
(-0.0270745 0.255308 0)
(-0.0174785 0.250904 -1.05111e-21)
(-0.00717077 0.24534 0)
(0.00378057 0.238791 0)
(0.0152779 0.231499 1.82876e-19)
(0.027213 0.223829 1.80859e-19)
(0.0394866 0.216421 1.79493e-19)
(0.0514558 0.210216 -7.06402e-22)
(-0.00407919 0.00958847 2.11596e-20)
(-0.0128453 0.0294267 -4.59743e-20)
(-0.0225338 0.050992 2.82059e-19)
(-0.0319627 0.072781 -4.79524e-20)
(-0.0406904 0.0939822 4.87714e-20)
(-0.0484642 0.114182 5.66364e-23)
(-0.0551638 0.133167 1.4958e-19)
(-0.0607359 0.150847 -2.01109e-19)
(-0.0651606 0.167201 3.03639e-19)
(-0.0684361 0.182234 2.12292e-22)
(-0.07057 0.195959 -1.01727e-19)
(-0.0715754 0.208374 2.0365e-19)
(-0.0714684 0.219464 -2.03441e-19)
(-0.0702662 0.229204 2.0295e-19)
(-0.0679879 0.237561 0)
(-0.0646543 0.2445 2.01218e-19)
(-0.0602888 0.249991 0)
(-0.0549174 0.254012 6.8622e-22)
(-0.048569 0.25655 -1.97112e-19)
(-0.0412767 0.257608 -1.95443e-19)
(-0.0330776 0.257203 1.93662e-19)
(-0.0240134 0.25537 -1.91791e-19)
(-0.0141314 0.252169 -1.89847e-19)
(-0.00348541 0.247683 -3.76724e-19)
(0.00786214 0.242028 -1.85813e-19)
(0.0198348 0.235369 1.84274e-19)
(0.032325 0.22794 -3.65179e-19)
(0.0452122 0.2201 -1.8085e-19)
(0.0584251 0.21253 0)
(0.071303 0.206281 -1.94024e-19)
(-0.00438263 0.00970326 0)
(-0.0135183 0.0295277 1.83231e-19)
(-0.0233504 0.0509565 -1.41013e-19)
(-0.0327539 0.07255 -2.39064e-19)
(-0.0412978 0.0935401 0)
(-0.0487517 0.113531 0)
(-0.0550147 0.132313 -2.99162e-19)
(-0.0600511 0.149796 4.01663e-19)
(-0.0638558 0.165953 -3.03217e-19)
(-0.0664392 0.180791 0)
(-0.0678185 0.194321 1.01832e-19)
(-0.0680142 0.206544 -1.01988e-19)
(-0.0670479 0.21745 4.79007e-22)
(-0.0649407 0.227017 -1.01878e-19)
(-0.0617149 0.235217 -1.00714e-19)
(-0.0573941 0.242019 -5.84193e-22)
(-0.0520048 0.247393 1.99389e-19)
(-0.0455768 0.25132 1.9864e-19)
(-0.0381438 0.253786 4.2101e-22)
(-0.0297444 0.254791 3.90527e-19)
(-0.0204226 0.254353 -3.86811e-19)
(-0.0102282 0.252504 3.83186e-19)
(0.000782638 0.249298 1.89838e-19)
(0.0125464 0.244813 1.87839e-19)
(0.0249906 0.239159 1.04887e-21)
(0.0380296 0.232488 0)
(0.0515458 0.225018 1.81053e-19)
(0.0654032 0.217097 -5.37092e-19)
(0.0795581 0.209433 1.76547e-19)
(0.0933609 0.203186 1.9166e-19)
(-0.00467386 0.00975616 -1.26135e-19)
(-0.014153 0.0294722 -4.11787e-19)
(-0.0240964 0.0506827 -2.37732e-23)
(-0.0334323 0.0720122 4.01957e-22)
(-0.0417399 0.0927368 -1.45397e-19)
(-0.0488118 0.112479 0)
(-0.054567 0.131036 -9.91331e-20)
(-0.058988 0.148311 -6.01416e-19)
(-0.0620857 0.164276 3.02661e-19)
(-0.0638835 0.178932 -2.02248e-19)
(-0.0644097 0.192289 3.04148e-19)
(-0.0636937 0.204349 -1.01431e-19)
(-0.0617637 0.215104 2.02953e-19)
(-0.0586463 0.224535 -5.05457e-19)
(-0.0543681 0.232618 3.0232e-19)
(-0.0489575 0.239325 -3.1416e-22)
(-0.0424451 0.244629 -5.97232e-19)
(-0.0348658 0.24851 1.97553e-19)
(-0.0262593 0.250956 -1.96071e-19)
(-0.0166712 0.251968 0)
(-0.00615346 0.251559 1.91992e-19)
(0.00523538 0.249762 0)
(0.0174295 0.246627 -1.88303e-19)
(0.030355 0.242229 1.86451e-19)
(0.0439288 0.236667 1.84746e-19)
(0.0580557 0.230084 1.81591e-19)
(0.0726088 0.222678 0)
(0.0874352 0.214779 0)
(0.102515 0.207107 -3.52672e-19)
(0.117244 0.20093 5.66498e-19)
(-0.00495156 0.00975111 1.2624e-19)
(-0.0147476 0.0292655 2.28438e-19)
(-0.0247725 0.0501736 -1.86643e-19)
(-0.0340016 0.0711649 3.81112e-19)
(-0.0420252 0.0915625 4.88969e-20)
(-0.048659 0.11101 4.91679e-20)
(-0.0538423 0.129308 5.74339e-22)
(-0.0575764 0.146358 -1.99598e-19)
(-0.0598888 0.162126 -1.00464e-19)
(-0.0608176 0.176608 4.43902e-22)
(-0.060403 0.189809 -4.52747e-22)
(-0.0586846 0.201729 -3.0353e-19)
(-0.055699 0.212362 -1.009e-19)
(-0.0514795 0.221692 5.11956e-22)
(-0.0460592 0.229696 2.00555e-19)
(-0.0394719 0.236349 1.99456e-19)
(-0.0317546 0.241626 6.16933e-22)
(-0.0229486 0.245509 -1.96621e-19)
(-0.0131008 0.247987 1.9518e-19)
(-0.002265 0.249059 -1.93601e-19)
(0.00949819 0.248741 -3.83174e-19)
(0.0221206 0.247062 -1.89439e-19)
(0.0355264 0.244072 3.74711e-19)
(0.049631 0.23984 0)
(0.064341 0.23446 -1.82752e-19)
(0.0795523 0.228062 -3.62153e-19)
(0.0951295 0.220827 -3.57614e-19)
(0.110903 0.213056 1.77489e-19)
(0.126872 0.205473 -5.24479e-19)
(0.14251 0.199454 1.8702e-19)
(-0.00521551 0.00969358 -2.09303e-19)
(-0.0153016 0.0289168 4.55287e-20)
(-0.0253797 0.0494362 1.86645e-19)
(-0.0344658 0.0700107 -1.42782e-19)
(-0.0421619 0.0900134 4.84992e-20)
(-0.0483069 0.10911 -1.29865e-22)
(-0.0528613 0.12711 4.94811e-19)
(-0.0558456 0.143909 1.99818e-19)
(-0.0573047 0.159468 2.01016e-19)
(-0.0572921 0.173774 3.02637e-19)
(-0.0558614 0.186828 -3.03136e-19)
(-0.0530636 0.198627 2.0225e-19)
(-0.048945 0.209163 4.03732e-19)
(-0.0435476 0.21842 2.01169e-19)
(-0.0369122 0.226378 -3.06602e-22)
(-0.0290803 0.233014 -3.98647e-19)
(-0.0200963 0.238306 3.95858e-19)
(-0.0100095 0.242235 2.3469e-22)
(0.00112452 0.244792 -1.94454e-19)
(0.0132432 0.245978 1.92879e-19)
(0.0262762 0.245807 1.91182e-19)
(0.0401456 0.244308 -1.88341e-19)
(0.0547652 0.241531 -3.73518e-19)
(0.0700405 0.23754 3.25854e-22)
(0.0858678 0.232424 1.83359e-19)
(0.102135 0.226303 1.80562e-19)
(0.118701 0.219339 3.55519e-19)
(0.13538 0.211805 -3.50639e-19)
(0.152181 0.204411 0)
(0.168692 0.198648 1.84679e-19)
(-0.00546639 0.00959024 4.37941e-22)
(-0.0158161 0.0284377 0)
(-0.0259198 0.0484819 -1.39211e-19)
(-0.0348283 0.0685582 -4.73917e-20)
(-0.0421562 0.0880931 -1.92541e-19)
(-0.0477669 0.106778 0)
(-0.051642 0.12443 -2.96547e-19)
(-0.0538221 0.140944 9.95004e-20)
(-0.05437 0.156271 0)
(-0.0533556 0.170393 -2.00886e-19)
(-0.0508468 0.183301 0)
(-0.0469073 0.194989 -3.02088e-19)
(-0.0415945 0.205445 3.0158e-19)
(-0.0349606 0.214654 -2.00881e-19)
(-0.0270559 0.222595 -1.99458e-19)
(-0.017931 0.229247 0)
(-0.00763953 0.234589 0)
(0.00376014 0.238605 1.95501e-19)
(0.0162028 0.241285 -2.91152e-22)
(0.0296161 0.242633 1.91338e-19)
(0.0439198 0.242661 -1.90193e-19)
(0.0590259 0.241401 3.76077e-19)
(0.0748384 0.238899 -1.85963e-19)
(0.0912529 0.235218 0)
(0.108157 0.230441 5.44152e-19)
(0.125431 0.224679 -8.9516e-19)
(0.14293 0.21808 1.77673e-19)
(0.160456 0.210881 1.75205e-19)
(0.178018 0.203773 1.72098e-19)
(0.195344 0.19837 3.63316e-19)
(-0.00570589 0.00944873 -1.66073e-19)
(-0.016293 0.0278422 3.61911e-19)
(-0.0263946 0.0473266 1.85721e-19)
(-0.0350908 0.0668222 4.25185e-19)
(-0.0420118 0.0858129 5.2863e-19)
(-0.0470459 0.104019 9.75309e-20)
(-0.0501971 0.121268 -4.92045e-19)
(-0.0515262 0.137453 0)
(-0.0511147 0.152519 -3.99282e-19)
(-0.0490494 0.166439 -1.99946e-19)
(-0.0454138 0.179194 0)
(-0.040285 0.190772 -2.00323e-19)
(-0.033733 0.201159 -2.45794e-22)
(-0.0258215 0.210336 -5.99775e-19)
(-0.0166118 0.218284 1.99454e-19)
(-0.00616498 0.224979 1.97903e-19)
(0.00545499 0.230404 -3.92824e-19)
(0.0181793 0.234542 -3.89963e-19)
(0.0319327 0.237386 3.31349e-22)
(0.0466323 0.238939 -1.76938e-22)
(0.062188 0.239216 0)
(0.0785018 0.238247 -1.86936e-19)
(0.0954682 0.236078 -1.8395e-19)
(0.112974 0.232769 0)
(0.130898 0.228399 0)
(0.149114 0.223071 5.3472e-19)
(0.167476 0.216918 -5.26881e-19)
(0.185776 0.210147 0)
(0.204013 0.203415 5.13222e-19)
(0.222075 0.198468 -3.60298e-19)
(-0.00593661 0.00927726 9.1024e-22)
(-0.0167348 0.0271461 -3.61899e-19)
(-0.0268051 0.0459897 -4.62372e-20)
(-0.0352531 0.064823 -4.72273e-19)
(-0.041728 0.083192 -2.88284e-19)
(-0.0461447 0.10085 9.7295e-20)
(-0.048531 0.117635 1.9704e-19)
(-0.0489683 0.133442 4.94965e-19)
(-0.0475572 0.14821 3.99282e-19)
(-0.0444023 0.1619 4.00829e-19)
(-0.0396029 0.174488 0)
(-0.0332507 0.185952 9.89444e-22)
(-0.0254291 0.196273 0)
(-0.0162146 0.205429 3.9967e-19)
(-0.0056805 0.213399 0)
(0.00610035 0.220161 -1.97308e-19)
(0.0190529 0.225696 1.97317e-19)
(0.0330973 0.229988 0)
(0.0481476 0.233031 0)
(0.0641106 0.234831 -5.70896e-19)
(0.0808861 0.235401 1.88746e-19)
(0.0983665 0.234772 0)
(0.116437 0.23299 3.6877e-19)
(0.134976 0.230111 3.64596e-19)
(0.153854 0.226211 -7.18448e-19)
(0.172939 0.221386 7.09341e-19)
(0.192082 0.215755 5.16528e-22)
(0.211071 0.209493 3.44801e-19)
(0.229886 0.203218 -3.42276e-19)
(0.24858 0.198813 0)
(-0.00616178 0.00908414 4.15068e-19)
(-0.0171442 0.0263661 -4.50516e-20)
(-0.0271507 0.0444934 -3.68518e-19)
(-0.035311 0.0625864 0)
(-0.0412982 0.0802582 -3.82181e-19)
(-0.0450562 0.0972968 0)
(-0.0466375 0.113556 -4.89775e-19)
(-0.0461455 0.128932 -2.97148e-19)
(-0.0437001 0.143359 -3.97348e-19)
(-0.0394239 0.156789 0)
(-0.0334329 0.169188 1.0006e-19)
(-0.0258335 0.180526 1.01094e-19)
(-0.0167234 0.190778 -1.99688e-19)
(-0.00619257 0.199919 -3.97526e-19)
(0.00567275 0.207924 -1.97599e-19)
(0.0187876 0.21477 -7.86734e-19)
(0.033065 0.220437 3.91658e-19)
(0.0484143 0.224912 3.53724e-22)
(0.0647384 0.228189 4.03203e-22)
(0.0819341 0.230273 5.7061e-19)
(0.0998909 0.231179 0)
(0.118492 0.230939 0)
(0.137613 0.229595 -1.26745e-21)
(0.157124 0.227203 3.19202e-22)
(0.176886 0.223834 -3.56723e-19)
(0.196761 0.219576 -3.52548e-19)
(0.216596 0.214537 1.24058e-21)
(0.236175 0.208862 -3.44786e-19)
(0.255454 0.203117 -3.39358e-19)
(0.274653 0.199324 1.11845e-21)
(-0.00638491 0.00887727 0)
(-0.0175231 0.0255193 3.58956e-19)
(-0.0274285 0.0428624 3.22499e-19)
(-0.0352561 0.0601435 4.69008e-20)
(-0.0407091 0.0770471 7.63357e-19)
(-0.043763 0.0933995 -9.6807e-20)
(-0.0444974 0.109071 7.82171e-19)
(-0.0430382 0.123964 3.93809e-19)
(-0.0395253 0.138006 5.95765e-19)
(-0.0340997 0.151142 2.98339e-19)
(-0.0268936 0.163326 9.98062e-20)
(-0.0180292 0.174523 4.99419e-19)
(-0.00761819 0.1847 -1.44256e-23)
(0.00423543 0.193827 1.99005e-19)
(0.0174323 0.201876 3.95566e-19)
(0.0318748 0.208821 3.93082e-19)
(0.0474646 0.214643 0)
(0.0640996 0.219328 0)
(0.0816722 0.222871 0)
(0.100069 0.225277 0)
(0.119169 0.226562 3.7341e-19)
(0.138845 0.226758 0)
(0.158965 0.225904 -2.67123e-22)
(0.179386 0.224057 7.20785e-19)
(0.19996 0.22128 3.56349e-19)
(0.22054 0.217654 3.51725e-19)
(0.240967 0.213275 6.9339e-19)
(0.26102 0.20826 0)
(0.280626 0.203112 -6.74642e-19)
(0.30017 0.199987 7.00696e-19)
(-0.00660942 0.00866374 3.29334e-19)
(-0.0178725 0.0246223 -3.58963e-19)
(-0.0276324 0.0411226 0)
(-0.0350743 0.0575293 -3.73847e-19)
(-0.0399388 0.0736022 -9.62823e-20)
(-0.0422366 0.0892082 -2.88978e-19)
(-0.0420765 0.104238 -8.77904e-19)
(-0.0396078 0.118598 -1.18083e-21)
(-0.0349914 0.132213 -2.96423e-19)
(-0.0283861 0.14502 -6.95333e-19)
(-0.0199411 0.156967 -9.94781e-20)
(-0.00979343 0.168007 -3.97485e-19)
(0.0019305 0.178102 -3.96705e-19)
(0.0151131 0.187217 0)
(0.0296418 0.195319 -3.93224e-19)
(0.0454068 0.20238 -5.86125e-19)
(0.062298 0.208379 1.94286e-19)
(0.0802022 0.213302 -3.84141e-19)
(0.0990013 0.217145 -3.80336e-19)
(0.118571 0.219912 0)
(0.13878 0.22162 -7.45309e-19)
(0.159491 0.222299 0)
(0.180558 0.22199 -7.27402e-19)
(0.201827 0.220743 -3.58357e-19)
(0.223137 0.21862 -7.08462e-19)
(0.244326 0.215691 3.49154e-19)
(0.265227 0.212041 -1.03542e-18)
(0.285613 0.207759 3.39654e-19)
(0.305376 0.203274 1.67939e-21)
(0.325062 0.20086 -3.45869e-19)
(-0.00683826 0.00844942 -3.29341e-19)
(-0.0181913 0.0236905 4.46928e-20)
(-0.0277525 0.0393009 3.19676e-19)
(-0.0347456 0.0547823 3.73855e-19)
(-0.0389568 0.0699734 -3.80141e-19)
(-0.0404362 0.0847839 1.06775e-21)
(-0.0393243 0.0991253 3.89633e-19)
(-0.0357953 0.112912 -7.8479e-19)
(-0.030031 0.126066 -9.76852e-20)
(-0.0222089 0.138518 8.91623e-19)
(-0.012494 0.150207 -5.94999e-19)
(-0.00103868 0.161081 9.92276e-19)
(0.0120166 0.171092 9.90277e-19)
(0.0265407 0.180201 -1.97388e-19)
(0.0424082 0.188368 3.93221e-19)
(0.0594972 0.195565 5.85477e-19)
(0.0776859 0.201767 1.92618e-19)
(0.0968498 0.20696 1.3796e-21)
(0.11686 0.211139 1.90777e-19)
(0.13758 0.214308 1.88013e-19)
(0.158867 0.216484 -1.83748e-19)
(0.18057 0.217696 1.83598e-19)
(0.20253 0.217983 -3.61143e-19)
(0.224577 0.217394 3.58086e-19)
(0.246533 0.215984 1.69622e-21)
(0.268218 0.213818 3.47013e-19)
(0.289449 0.210965 1.72692e-21)
(0.309994 0.207489 -3.39069e-19)
(0.3297 0.203733 5.42477e-22)
(0.349268 0.202066 0)
(-0.00707338 0.00823861 0)
(-0.0184758 0.0227376 0)
(-0.0277742 0.0374235 -4.11046e-19)
(-0.034243 0.0519429 4.65028e-20)
(-0.0377231 0.066216 0)
(-0.0383087 0.0801963 3.84325e-19)
(-0.0361744 0.0938183 9.70858e-20)
(-0.0315211 0.107004 2.94116e-19)
(-0.024552 0.119675 3.94251e-19)
(-0.0154629 0.131756 -3.95766e-19)
(-0.00443494 0.14318 3.96455e-19)
(0.00836469 0.153885 -3.96366e-19)
(0.0227817 0.16382 -3.95551e-19)
(0.0386715 0.172935 0)
(0.0558959 0.181189 0)
(0.0743206 0.188548 0)
(0.0938116 0.194985 -3.8626e-19)
(0.114233 0.200485 5.73519e-19)
(0.135441 0.205039 -1.89334e-19)
(0.157289 0.208653 0)
(0.179619 0.211341 5.5484e-19)
(0.202265 0.213131 -1.82804e-19)
(0.22505 0.214062 3.61134e-19)
(0.247785 0.21418 -7.09684e-19)
(0.270274 0.213538 7.03077e-19)
(0.292314 0.212194 -1.33332e-21)
(0.3137 0.210206 4.16703e-22)
(0.334188 0.20761 3.37288e-19)
(0.353581 0.204655 4.53405e-22)
(0.372702 0.203773 3.41516e-19)
(-0.00731513 0.00803369 4.08648e-20)
(-0.0187193 0.0217753 -4.43989e-20)
(-0.0276782 0.0355158 9.09979e-20)
(-0.033533 0.0490524 -5.56153e-19)
(-0.0361888 0.0623885 9.42846e-20)
(-0.0357892 0.0755222 0)
(-0.0325457 0.0884114 3.86348e-19)
(-0.0266873 0.100986 -3.89633e-19)
(-0.0184395 0.113169 0)
(-0.00801652 0.12488 4.92038e-19)
(0.00438427 0.136044 -9.86476e-20)
(0.018581 0.146595 0)
(0.0344053 0.156471 -1.96794e-19)
(0.0516989 0.165619 3.92138e-19)
(0.0703103 0.173991 -1.95134e-19)
(0.0900917 0.181547 1.93464e-19)
(0.110896 0.188259 -3.84123e-19)
(0.132572 0.194105 5.08889e-22)
(0.154963 0.199076 5.63626e-22)
(0.177906 0.203175 -1.85081e-19)
(0.201226 0.206413 -3.673e-19)
(0.22474 0.208819 1.2881e-21)
(0.248253 0.210429 1.54203e-21)
(0.271558 0.211289 3.54677e-19)
(0.294434 0.211453 -3.48473e-19)
(0.316655 0.210978 3.45329e-19)
(0.337989 0.209919 -6.79426e-19)
(0.358165 0.20829 -5.21939e-22)
(0.37694 0.206244 -6.60763e-19)
(0.395183 0.206228 3.38885e-19)
(-0.00756195 0.00783518 0)
(-0.0189107 0.0208114 -3.53551e-19)
(-0.0274396 0.0336 0)
(-0.0325751 0.0461508 1.15992e-21)
(-0.0342967 0.0585507 9.41544e-20)
(-0.0328026 0.0708422 1.65284e-22)
(-0.0283448 0.0830061 -7.71376e-19)
(-0.0211816 0.0949816 2.92455e-19)
(-0.011562 0.106691 0)
(0.000280687 0.118051 -4.91742e-19)
(0.0141325 0.128981 9.83466e-20)
(0.0297961 0.139407 0)
(0.0470881 0.149261 -1.96133e-19)
(0.0658356 0.158481 1.95504e-19)
(0.0858719 0.167012 1.9376e-19)
(0.107034 0.17481 3.85848e-19)
(0.129158 0.181839 -1.91549e-19)
(0.152077 0.188074 0)
(0.175617 0.193501 0)
(0.199594 0.198117 3.7157e-19)
(0.223818 0.201932 -3.65561e-19)
(0.248087 0.204972 3.62234e-19)
(0.27219 0.207273 3.57675e-19)
(0.295902 0.208882 3.51318e-19)
(0.318988 0.209859 -3.47748e-19)
(0.341202 0.210273 3.43318e-19)
(0.362278 0.210194 3.37261e-19)
(0.381885 0.209648 -3.33599e-19)
(0.399679 0.208774 1.03938e-21)
(0.416266 0.209957 6.71788e-19)
(-0.0078126 0.00764361 4.06138e-20)
(-0.0190369 0.019853 3.09529e-19)
(-0.0270298 0.0316979 0)
(-0.0313241 0.0432777 3.69502e-19)
(-0.0319838 0.0547629 0)
(-0.0292677 0.0662387 0)
(-0.0234708 0.0777078 2.89002e-19)
(-0.0148838 0.0891178 -1.46007e-22)
(-0.00377989 0.100392 9.7492e-20)
(0.00958688 0.111443 9.79481e-20)
(0.0249845 0.122184 -2.94179e-19)
(0.0421986 0.132535 1.96018e-19)
(0.0610289 0.142417 0)
(0.0812852 0.15176 0)
(0.102783 0.160502 -3.87918e-19)
(0.12534 0.16859 0)
(0.148775 0.175981 -1.90276e-19)
(0.172898 0.182643 1.88969e-19)
(0.197515 0.188554 1.86349e-19)
(0.222425 0.193707 -6.69523e-22)
(0.247416 0.198106 -1.82573e-19)
(0.272272 0.201772 0)
(0.296768 0.20474 -3.54208e-19)
(0.320675 0.207061 3.50716e-19)
(0.343762 0.208804 0)
(0.365789 0.210061 0)
(0.386502 0.210948 0)
(0.405558 0.211584 0)
(0.422469 0.212301 -3.26382e-19)
(0.436771 0.21545 6.65784e-19)
(0.0443654 0.272274 -0.0101988)
(0.0723122 0.237206 -0.0104907)
(0.106014 0.209674 -0.0106113)
(0.13309 0.193324 -0.0106872)
(0.157048 0.186919 -0.0106934)
(0.174075 0.187323 -0.0106811)
(0.185594 0.191305 -0.0106353)
(0.191827 0.196653 -0.0105786)
(0.193983 0.202245 -0.0105097)