# Probe 0 (3 0 0)
#       Probe             0
#        Time
         0.05       45.2401
          0.1       1.55689
         0.15       1.26601
          0.2      0.931971
         0.25      0.899548
          0.3      0.843047
         0.35      0.825328
          0.4      0.797477
         0.45      0.779639
          0.5      0.761914
         0.55      0.747653
          0.6      0.734511
         0.65      0.722993
          0.7      0.711528
         0.75      0.701932
          0.8      0.692613
         0.85      0.683971
          0.9      0.675712
         0.95      0.668037
            1      0.660715
         1.05      0.653769
          1.1       0.64684
         1.15      0.640027
          1.2      0.633537
         1.25       0.62718
          1.3      0.620972
         1.35      0.615354
          1.4       0.60947
         1.45      0.603654
          1.5      0.597867
         1.55       0.59225
          1.6        0.5868
         1.65      0.581382
          1.7      0.575998
         1.75      0.570762
          1.8       0.56561
         1.85      0.560579
          1.9      0.555599
         1.95      0.550702
            2      0.545868
         2.05      0.541117
          2.1       0.53645
         2.15       0.53185
          2.2      0.527262
         2.25       0.52278
          2.3      0.518373
         2.35      0.514052
          2.4      0.509777
         2.45      0.505529
          2.5      0.501369
         2.55      0.497264
          2.6      0.493241
         2.65      0.489213
          2.7      0.485234
         2.75      0.481318
          2.8      0.477481
         2.85       0.47373
          2.9      0.469972
         2.95      0.466242
            3      0.462566
         3.05      0.458951
          3.1      0.455512
         3.15      0.451945
          3.2      0.448186
         3.25      0.444683
          3.3      0.441274
         3.35      0.437917
          3.4      0.434529
         3.45      0.431159
          3.5       0.42786
         3.55      0.424602
          3.6      0.421361
         3.65      0.418167
          3.7      0.414963
         3.75      0.411848
          3.8       0.40872
         3.85      0.405663
          3.9      0.402617
         3.95      0.399603
            4      0.396625
         4.05      0.393669
          4.1      0.390805
         4.15       0.38795
          4.2      0.385074
         4.25      0.382188
          4.3      0.379344
         4.35      0.376532
          4.4      0.373789
         4.45      0.371013
          4.5       0.36828
         4.55      0.365592
          4.6      0.362904
         4.65      0.360247
          4.7       0.35757
         4.75      0.354933
          4.8      0.352306
         4.85        0.3498
          4.9      0.347321
         4.95      0.344838
            5      0.342276
         5.05       0.33978
          5.1      0.337281
         5.15      0.334807
          5.2      0.332415
         5.25      0.329966
          5.3      0.327548
         5.35      0.325133
          5.4      0.322758
         5.45      0.320481
          5.5      0.318148
         5.55      0.315811
          5.6      0.313506
         5.65      0.311264
          5.7      0.309043
         5.75      0.306816
          5.8      0.304595
         5.85      0.302373
          5.9      0.300155
         5.95      0.297999
            6      0.295853
         6.05      0.293712
          6.1      0.291617
         6.15      0.289518
          6.2      0.287419
         6.25      0.285339
          6.3      0.283236
         6.35      0.281269
          6.4      0.279269
         6.45      0.277294
          6.5      0.275385
         6.55      0.273411
          6.6      0.271465
         6.65      0.269465
          6.7      0.267533
         6.75      0.265619
          6.8      0.263715
         6.85      0.261814
          6.9      0.259936
         6.95      0.258074
            7      0.256246
         7.05      0.254395
          7.1       0.25255
         7.15       0.25074
          7.2       0.24899
         7.25      0.247197
          7.3      0.245461
         7.35      0.243668
          7.4      0.241927
         7.45      0.240185
          7.5      0.238468
         7.55      0.236746
          7.6      0.235117
         7.65      0.233446
          7.7      0.231787
         7.75      0.230143
          7.8      0.228516
         7.85      0.226888
          7.9      0.225273
         7.95       0.22369
            8      0.222083
         8.05      0.220517
          8.1      0.218978
         8.15      0.217409
          8.2      0.215886
         8.25      0.214356
          8.3      0.212836
         8.35       0.21131
          8.4      0.209848
         8.45      0.208365
          8.5      0.206906
         8.55      0.205508
          8.6      0.203871
         8.65       0.20238
          8.7      0.201011
         8.75      0.199579
          8.8      0.198157
         8.85      0.196748
          8.9      0.195334
         8.95      0.193933
            9      0.192553
         9.05      0.191184
          9.1      0.189805
         9.15      0.188431
          9.2      0.187066
         9.25       0.18574
          9.3      0.184429
         9.35      0.183097
          9.4      0.181781
         9.45       0.18049
          9.5      0.179184
         9.55      0.177873
          9.6      0.176588
         9.65      0.175326
          9.7      0.174027
         9.75      0.172767
          9.8      0.171472
         9.85      0.170265
          9.9       0.16901
         9.95       0.16775
           10      0.166487
