# Probe 0 (3 0 0)
#       Probe             0
#        Time
         0.05             (0.192057 0.204711 -5.7859e-19)
          0.1             (0.176993 0.210293 -1.74474e-20)
         0.15             (0.166389 0.210762 -1.55782e-20)
          0.2             (0.160935 0.210314 -1.13722e-20)
         0.25             (0.157271 0.210229 -1.09272e-20)
          0.3             (0.154084 0.210396 -1.02428e-20)
         0.35             (0.151418 0.21082 -1.00133e-20)
          0.4             (0.149027 0.211331 -9.67225e-21)
         0.45             (0.146897 0.21188 -9.45343e-21)
          0.5             (0.144953 0.21244 -9.23817e-21)
         0.55             (0.143179 0.213009 -9.06381e-21)
          0.6             (0.14154 0.213581 -8.9029e-21)
         0.65             (0.140019 0.214157 -8.7611e-21)
          0.7             (0.138604 0.214735 -8.61989e-21)
         0.75             (0.137283 0.21532 -8.50065e-21)
          0.8             (0.136043 0.21591 -8.38487e-21)
         0.85             (0.134878 0.216507 -8.27708e-21)
          0.9             (0.133776 0.217108 -8.17417e-21)
         0.95             (0.132733 0.217714 -8.07815e-21)
            1             (0.13174 0.218325 -7.98671e-21)
         1.05             (0.130794 0.218941 -7.89988e-21)
          1.1             (0.129884 0.219562 -7.81342e-21)
         1.15             (0.12901 0.220186 -7.72849e-21)
          1.2             (0.128163 0.220813 -7.64775e-21)
         1.25             (0.12734 0.221444 -7.56876e-21)
          1.3             (0.126537 0.222077 -7.49171e-21)
         1.35             (0.12575 0.222714 -7.42155e-21)
          1.4             (0.124976 0.223352 -7.34873e-21)
         1.45             (0.124216 0.223993 -7.27685e-21)
          1.5             (0.123468 0.224634 -7.20541e-21)
         1.55             (0.122728 0.225277 -7.13627e-21)
          1.6             (0.121994 0.225921 -7.06924e-21)
         1.65             (0.121265 0.226567 -7.00269e-21)
          1.7             (0.12054 0.227214 -6.93666e-21)
         1.75             (0.11982 0.227862 -6.87254e-21)
          1.8             (0.119101 0.228511 -6.80949e-21)
         1.85             (0.118383 0.229161 -6.74808e-21)
          1.9             (0.117665 0.229814 -6.68731e-21)
         1.95             (0.116947 0.230467 -6.62766e-21)
            2             (0.116228 0.231121 -6.56877e-21)
         2.05             (0.115511 0.231777 -6.51091e-21)
          2.1             (0.114793 0.232435 -6.45414e-21)
         2.15             (0.114075 0.233095 -6.39823e-21)
          2.2             (0.113356 0.233757 -6.34252e-21)
         2.25             (0.112634 0.23442 -6.28826e-21)
          2.3             (0.111911 0.235085 -6.23487e-21)
         2.35             (0.111185 0.235752 -6.18259e-21)
          2.4             (0.110457 0.236423 -6.13086e-21)
         2.45             (0.109727 0.237095 -6.07946e-21)
          2.5             (0.108995 0.237768 -6.0292e-21)
         2.55             (0.108261 0.238446 -5.97959e-21)
          2.6             (0.107525 0.239128 -5.93096e-21)
         2.65             (0.106789 0.239812 -5.88229e-21)
          2.7             (0.10605 0.240498 -5.83436e-21)
         2.75             (0.105311 0.241186 -5.78706e-21)
          2.8             (0.104572 0.241877 -5.74079e-21)
         2.85             (0.10383 0.242573 -5.69561e-21)
          2.9             (0.103087 0.243272 -5.6503e-21)
         2.95             (0.102343 0.243973 -5.60539e-21)
            3             (0.101598 0.244677 -5.56112e-21)
         3.05             (0.100853 0.245385 -5.5176e-21)
          3.1             (0.100106 0.2461 -5.47614e-21)
         3.15             (0.099361 0.246818 -5.43317e-21)
          3.2             (0.0986122 0.247535 -5.38812e-21)
         3.25             (0.0978628 0.248256 -5.34599e-21)
          3.3             (0.0971139 0.248979 -5.30497e-21)
         3.35             (0.0963646 0.249707 -5.26465e-21)
          3.4             (0.0956151 0.250439 -5.22394e-21)
         3.45             (0.0948633 0.251174 -5.18349e-21)
          3.5             (0.094112 0.251914 -5.14383e-21)
         3.55             (0.0933604 0.252657 -5.1047e-21)
          3.6             (0.0926089 0.253402 -5.06578e-21)
         3.65             (0.091858 0.25415 -5.0274e-21)
          3.7             (0.0911064 0.254905 -4.98891e-21)
         3.75             (0.0903562 0.255663 -4.95145e-21)
          3.8             (0.0896071 0.256425 -4.91386e-21)
         3.85             (0.088856 0.257188 -4.87733e-21)
          3.9             (0.0881061 0.257955 -4.84074e-21)
         3.95             (0.0873572 0.258726 -4.80455e-21)
            4             (0.0866097 0.259501 -4.76882e-21)
         4.05             (0.0858628 0.260278 -4.73338e-21)
          4.1             (0.085113 0.26106 -4.69911e-21)
         4.15             (0.0843644 0.261847 -4.66484e-21)
          4.2             (0.0836167 0.262639 -4.63032e-21)
         4.25             (0.0828696 0.263431 -4.59572e-21)
          4.3             (0.0821238 0.264227 -4.5616e-21)
         4.35             (0.0813791 0.265025 -4.52786e-21)
          4.4             (0.0806352 0.265829 -4.49491e-21)
         4.45             (0.079894 0.266637 -4.46152e-21)
          4.5             (0.0791542 0.267448 -4.42874e-21)
         4.55             (0.0784129 0.26826 -4.39671e-21)
          4.6             (0.0776737 0.269074 -4.36444e-21)
         4.65             (0.0769359 0.269891 -4.33257e-21)
          4.7             (0.0761993 0.270711 -4.3005e-21)
         4.75             (0.0754655 0.271531 -4.26887e-21)
          4.8             (0.074733 0.272355 -4.2374e-21)
         4.85             (0.0739989 0.273184 -4.20741e-21)
          4.9             (0.0732667 0.274017 -4.17766e-21)
         4.95             (0.0725362 0.274853 -4.14787e-21)
            5             (0.0718067 0.275689 -4.11719e-21)
         5.05             (0.071079 0.276528 -4.08724e-21)
          5.1             (0.0703532 0.277368 -4.05723e-21)
         5.15             (0.0696287 0.27821 -4.02758e-21)
          5.2             (0.0689049 0.279057 -3.99886e-21)
         5.25             (0.0681845 0.279907 -3.96937e-21)
          5.3             (0.0674623 0.280755 -3.94066e-21)
         5.35             (0.0667411 0.281603 -3.91173e-21)
          5.4             (0.0660215 0.282452 -3.88326e-21)
         5.45             (0.0653036 0.283303 -3.85596e-21)
          5.5             (0.0645877 0.284153 -3.82801e-21)
         5.55             (0.0638738 0.285004 -3.80001e-21)
          5.6             (0.0631637 0.285853 -3.77239e-21)
         5.65             (0.062451 0.286707 -3.74557e-21)
          5.7             (0.0617393 0.287564 -3.71892e-21)
         5.75             (0.0610287 0.288421 -3.69224e-21)
          5.8             (0.0603197 0.289277 -3.66562e-21)
         5.85             (0.0596122 0.290133 -3.63896e-21)
          5.9             (0.0589063 0.290989 -3.61235e-21)
         5.95             (0.0582007 0.291845 -3.58654e-21)
            6             (0.0574962 0.292701 -3.5608e-21)
         6.05             (0.0567936 0.293556 -3.53507e-21)
          6.1             (0.0560936 0.294414 -3.50979e-21)
         6.15             (0.05539 0.295268 -3.48497e-21)
          6.2             (0.054688 0.29612 -3.45981e-21)
         6.25             (0.0539868 0.296972 -3.43488e-21)
          6.3             (0.0532878 0.297821 -3.40963e-21)
         6.35             (0.0525892 0.298669 -3.38609e-21)
          6.4             (0.0518915 0.299515 -3.36213e-21)
         6.45             (0.0511953 0.30036 -3.33845e-21)
          6.5             (0.0505004 0.301202 -3.31561e-21)
         6.55             (0.049806 0.302041 -3.29205e-21)
          6.6             (0.0491071 0.302883 -3.26872e-21)
         6.65             (0.0484091 0.303723 -3.24474e-21)
          6.7             (0.0477118 0.30456 -3.22158e-21)
         6.75             (0.0470149 0.305396 -3.19863e-21)
          6.8             (0.0463188 0.306228 -3.17579e-21)
         6.85             (0.0456228 0.307058 -3.153e-21)
          6.9             (0.0449269 0.307885 -3.13048e-21)
         6.95             (0.0442314 0.308709 -3.10811e-21)
            7             (0.0435382 0.309533 -3.08595e-21)
         7.05             (0.0428393 0.310348 -3.06426e-21)
          7.1             (0.0421406 0.311158 -3.04209e-21)
         7.15             (0.0414411 0.311964 -3.02041e-21)
          7.2             (0.0407412 0.312769 -2.9994e-21)
         7.25             (0.040041 0.313569 -2.97793e-21)
          7.3             (0.0393404 0.314365 -2.95713e-21)
         7.35             (0.0386396 0.315155 -2.93563e-21)
          7.4             (0.0379365 0.315941 -2.91486e-21)
         7.45             (0.0372317 0.316721 -2.89405e-21)
          7.5             (0.0365272 0.317495 -2.87345e-21)
         7.55             (0.0358246 0.318258 -2.85288e-21)
          7.6             (0.0351147 0.319025 -2.83333e-21)
         7.65             (0.0344035 0.319787 -2.8133e-21)
          7.7             (0.033691 0.320542 -2.79343e-21)
         7.75             (0.0329769 0.321292 -2.77373e-21)
          7.8             (0.0322613 0.322036 -2.75425e-21)
         7.85             (0.0315438 0.322774 -2.73474e-21)
          7.9             (0.0308248 0.323506 -2.71538e-21)
         7.95             (0.0301065 0.324237 -2.69612e-21)
            8             (0.0293823 0.324953 -2.67734e-21)
         8.05             (0.0286566 0.325663 -2.65854e-21)
          8.1             (0.0279285 0.326367 -2.64013e-21)
         8.15             (0.0271985 0.327063 -2.62132e-21)
          8.2             (0.0264652 0.327752 -2.60312e-21)
         8.25             (0.0257292 0.328434 -2.58481e-21)
          8.3             (0.0249903 0.329108 -2.56663e-21)
         8.35             (0.0242483 0.329773 -2.54837e-21)
          8.4             (0.0235044 0.330432 -2.53082e-21)
         8.45             (0.022758 0.331083 -2.51308e-21)
          8.5             (0.0220091 0.331726 -2.49562e-21)
         8.55             (0.0212579 0.33236 -2.47889e-21)
          8.6             (0.0205042 0.332983 -2.45932e-21)
         8.65             (0.0197508 0.33359 -2.44158e-21)
          8.7             (0.0189878 0.3342 -2.42511e-21)
         8.75             (0.018222 0.3348 -2.40798e-21)
          8.8             (0.0174534 0.335391 -2.39096e-21)
         8.85             (0.016682 0.335972 -2.3741e-21)
          8.9             (0.0159077 0.336543 -2.35717e-21)
         8.95             (0.0151305 0.337104 -2.3404e-21)
            9             (0.01435 0.337655 -2.32392e-21)
         9.05             (0.0135665 0.338196 -2.30755e-21)
          9.1             (0.0127803 0.338726 -2.29104e-21)
         9.15             (0.0119918 0.339246 -2.27457e-21)
          9.2             (0.0112013 0.339756 -2.25817e-21)
         9.25             (0.0104057 0.340254 -2.24246e-21)
          9.3             (0.00960732 0.340742 -2.22676e-21)
         9.35             (0.00880609 0.341218 -2.21083e-21)
          9.4             (0.00800211 0.341684 -2.19509e-21)
         9.45             (0.00719558 0.342138 -2.17964e-21)
          9.5             (0.00638647 0.342582 -2.16402e-21)
         9.55             (0.00557448 0.343013 -2.14836e-21)
          9.6             (0.00476144 0.343433 -2.13295e-21)
         9.65             (0.0039459 0.343842 -2.11788e-21)
          9.7             (0.00312704 0.344238 -2.10237e-21)
         9.75             (0.00230715 0.344622 -2.08728e-21)
          9.8             (0.00148906 0.344989 -2.0719e-21)
         9.85             (0.00066411 0.345353 -2.05733e-21)
          9.9             (-0.000162532 0.345704 -2.04235e-21)
         9.95             (-0.00099068 0.346042 -2.02729e-21)
           10             (-0.00181969 0.346368 -2.01213e-21)
