/*--------------------------------*- C++ -*----------------------------------*\
  =========                 |
  \\      /  F ield         | OpenFOAM: The Open Source CFD Toolbox
   \\    /   O peration     | Website:  https://openfoam.org
    \\  /    A nd           | Version:  7
     \\/     M anipulation  |
\*---------------------------------------------------------------------------*/
FoamFile
{
    version     2.0;
    format      ascii;
    class       volScalarField;
    location    "87.7";
    object      p;
}
// * * * * * * * * * * * * * * * * * * * * * * * * * * * * * * * * * * * * * //

dimensions      [0 2 -2 0 0 0 0];

internalField   nonuniform List<scalar> 
2000
(
0.0086766
0.00876279
0.00892809
0.0091344
0.00935352
0.00956782
0.00976524
0.00993994
0.010091
0.0102054
0.00870084
0.00883021
0.00901293
0.00923688
0.00947342
0.0097042
0.00991605
0.010102
0.0102607
0.0103705
0.00869941
0.00888199
0.00908252
0.00932262
0.00957352
0.00981685
0.0100391
0.010233
0.0103978
0.0105022
0.00867728
0.00892037
0.00913897
0.00939275
0.00965361
0.00990393
0.0101307
0.0103268
0.0104932
0.01059
0.00864121
0.00895024
0.00918565
0.00944937
0.00971445
0.00996463
0.0101881
0.0103787
0.01054
0.0106248
0.00860016
0.00897704
0.0092267
0.00949543
0.00975788
0.00999961
0.0102107
0.0103865
0.0105336
0.0106001
0.00856448
0.00900682
0.00926684
0.00953466
0.00978688
0.0100113
0.0102004
0.0103515
0.010474
0.0105142
0.00854552
0.00904617
0.00931136
0.00957158
0.00980569
0.010004
0.010162
0.0102793
0.010368
0.0103743
0.00855503
0.00910201
0.00936603
0.00961144
0.00981981
0.00998437
0.010104
0.0101815
0.0102328
0.0102016
0.00860463
0.00918138
0.00943706
0.0096603
0.00983579
0.00996012
0.0100364
0.010072
0.01009
0.0100353
0.0103563
0.0111744
0.012085
0.013584
0.0151889
0.017095
0.0184067
0.0203019
0.0203111
0.0216349
0.0104376
0.0111776
0.0118562
0.0131523
0.0145871
0.0163503
0.0175606
0.0193167
0.0194333
0.020575
0.0104699
0.0111688
0.0116339
0.0127337
0.0140076
0.0156377
0.0167538
0.0184083
0.0185726
0.0195959
0.010446
0.0111331
0.0114161
0.0123294
0.0134511
0.0149566
0.01599
0.0175588
0.0177377
0.0187015
0.010363
0.0110552
0.0111988
0.0119394
0.0129186
0.0143078
0.0152689
0.0167615
0.0169515
0.0178906
0.0102231
0.0109225
0.010975
0.0115624
0.0124105
0.01369
0.0145843
0.0160031
0.0162056
0.0171447
0.0100356
0.0107291
0.010736
0.0111954
0.0119276
0.0131067
0.0139437
0.0152985
0.0155219
0.0164701
0.0098098
0.0104661
0.0104696
0.0108355
0.0114656
0.0125444
0.0133236
0.0146064
0.0148522
0.0158424
0.00953766
0.01012
0.0101499
0.0104746
0.0110448
0.0120441
0.0127826
0.0140013
0.0142703
0.0152884
0.00932283
0.0098302
0.00985616
0.0101027
0.0105842
0.0114855
0.0121776
0.0133107
0.0136355
0.0147471
0.00984791
0.0103487
0.0105938
0.0107277
0.010883
0.0113278
0.0117883
0.012577
0.0128346
0.0136676
0.00783757
0.00829917
0.00869547
0.0090628
0.00943296
0.00991969
0.0103758
0.0110006
0.0112098
0.0116858
0.00629197
0.00671931
0.00708854
0.0074205
0.00776819
0.00824504
0.00869832
0.00926751
0.00945312
0.00976613
0.00473881
0.00517355
0.0056
0.00596346
0.00629616
0.0067173
0.00711736
0.0076171
0.00777727
0.00802206
0.00328537
0.00369418
0.00416794
0.00459868
0.00497272
0.00536816
0.00571552
0.00613592
0.00626894
0.00647871
0.0020274
0.00239309
0.00287106
0.00333937
0.00375871
0.00416134
0.00448771
0.0048469
0.0049544
0.00512281
0.00101881
0.00133455
0.00178527
0.00224265
0.0026606
0.00305068
0.00335651
0.00367022
0.00376119
0.00389776
0.000285672
0.000541517
0.000940182
0.00135239
0.00172725
0.00207141
0.00233746
0.00260243
0.00266549
0.0027608
-0.000104769
5.34401e-05
0.000364926
0.000676624
0.000945035
0.00118854
0.00136946
0.00156601
0.00159713
0.0016581
-0.00062384
-0.000291805
-1.82028e-05
0.000180636
0.000316227
0.00043121
0.000496945
0.000592018
0.000572782
0.000571916
0.00925305
0.00755029
0.00606671
0.00456344
0.00317088
0.00195974
0.000990085
0.000260154
-8.03299e-05
-0.000625751
0.00890974
0.00728031
0.00581921
0.00435978
0.00302344
0.00186555
0.000942923
0.000247803
-6.8648e-05
-0.000544561
0.00857318
0.00703824
0.0056
0.00418513
0.00289967
0.00179158
0.000913002
0.000254945
-4.62386e-05
-0.000441011
0.00831185
0.00687012
0.00545172
0.00407563
0.00283403
0.00176503
0.000919394
0.000288717
-8.4382e-06
-0.000342698
0.00812904
0.00675859
0.00535661
0.00401606
0.00281064
0.00177441
0.000954569
0.000343776
4.19696e-05
-0.00025216
0.00802822
0.00670091
0.0053122
0.0039991
0.00282376
0.00181386
0.00101323
0.000415468
0.000101779
-0.00016959
0.00801632
0.00669329
0.00531622
0.00402251
0.00287056
0.00188015
0.00109197
0.000500207
0.000168263
-9.57804e-05
0.00807961
0.00673269
0.00536455
0.00408226
0.00294702
0.00196945
0.00118717
0.000594613
0.000239009
-3.0884e-05
0.00820674
0.00681461
0.00545204
0.00417361
0.00304862
0.00207764
0.00129512
0.000695587
0.000311973
2.57182e-05
0.00838463
0.00693327
0.00557265
0.00429152
0.00317071
0.00220068
0.00141237
0.000800488
0.00038555
7.50326e-05
0.00859748
0.00708002
0.00571858
0.00442999
0.00330816
0.00233448
0.00153565
0.000907104
0.000458522
0.00011809
0.00883377
0.00724816
0.00588392
0.00458478
0.00345717
0.00247605
0.00166263
0.00101393
0.000530151
0.000155848
0.00908645
0.00743455
0.0060651
0.00475365
0.0036155
0.00262359
0.00179188
0.00112015
0.000600136
0.000189255
0.0093487
0.00763638
0.00625839
0.00493438
0.00378108
0.00277556
0.00192235
0.00122529
0.000668405
0.000219111
0.0096149
0.00785204
0.00646073
0.00512518
0.00395238
0.00293082
0.00205338
0.00132913
0.000735045
0.000246067
0.0098801
0.00808071
0.00666942
0.00532433
0.00412818
0.00308844
0.00218453
0.00143161
0.000800228
0.000270653
0.0101368
0.00831979
0.00688122
0.0055295
0.00430723
0.00324749
0.00231546
0.00153273
0.000864175
0.000293341
0.0103802
0.00857297
0.00709895
0.0057426
0.0044914
0.00340922
0.00244718
0.00163325
0.000927438
0.000314621
0.0106323
0.00887239
0.00734379
0.00597777
0.00469091
0.00358019
0.00258379
0.00173553
0.000991166
0.000334651
0.0108184
0.00916521
0.00758222
0.00620553
0.00488761
0.0037464
0.00271695
0.00183437
0.00105295
0.000351905
0.0103734
0.00926284
0.00783004
0.00650868
0.00521037
0.00404037
0.0029735
0.00203184
0.00118236
0.000393959
0.0103182
0.00921631
0.00783447
0.00659307
0.00533834
0.00420188
0.00313707
0.00217851
0.00128624
0.000436099
0.0105581
0.0094328
0.00803768
0.00681294
0.00555174
0.00440767
0.00331608
0.00232581
0.00138946
0.000482805
0.0110412
0.00978614
0.00833046
0.00707801
0.00578608
0.00461785
0.00349069
0.00246833
0.00149392
0.000537133
0.0117607
0.0102987
0.00873982
0.00741135
0.00606207
0.00484696
0.0036739
0.00261644
0.00160689
0.000600577
0.012661
0.0109546
0.00926272
0.00781458
0.00638516
0.00510079
0.00387314
0.00277353
0.00172621
0.000665288
0.0136357
0.0116863
0.00985074
0.00825983
0.00673884
0.00537174
0.0040853
0.00293297
0.00183514
0.000710061
0.0145524
0.0123863
0.0104147
0.00868612
0.00707892
0.00563247
0.00428989
0.0030751
0.00191186
0.000719836
0.0152725
0.0129351
0.0108551
0.00902067
0.00734832
0.00584165
0.00445382
0.00317961
0.00195103
0.000703285
0.0156716
0.0132344
0.0110939
0.00920285
0.00749696
0.00595918
0.00454672
0.00323485
0.00196314
0.000683881
0.0113663
0.0113241
0.0116297
0.0121933
0.0130013
0.0139876
0.0150648
0.0161039
0.0169465
0.0174255
0.0115327
0.0116405
0.0120433
0.0126969
0.0135858
0.0146378
0.0157674
0.0168443
0.0177103
0.0182026
0.0115571
0.0118391
0.0123813
0.0131687
0.0141787
0.0153361
0.0165474
0.0176708
0.0185491
0.0190405
0.0116327
0.0120492
0.0127063
0.0136119
0.0147324
0.0159959
0.0173027
0.0184974
0.019416
0.0199273
0.0117559
0.0123116
0.0130748
0.0140853
0.0153017
0.0166588
0.0180555
0.0193285
0.020304
0.0208501
0.0118934
0.0126028
0.0134863
0.0146069
0.0159204
0.0173678
0.0188478
0.0201938
0.0212251
0.0218066
0.012043
0.0129083
0.013927
0.0151671
0.0165872
0.0181313
0.0196952
0.0211097
0.02219
0.0228005
0.0122126
0.01323
0.0143927
0.0157575
0.0172922
0.0189405
0.0205935
0.0220772
0.0232024
0.0238358
0.012407
0.0135707
0.0148848
0.0163754
0.0180298
0.0197877
0.021535
0.0230911
0.0242615
0.0249146
0.0126276
0.0139291
0.0154029
0.0170192
0.0187977
0.020669
0.0225152
0.0241481
0.0253657
0.0260375
0.0128763
0.0143004
0.0159442
0.017685
0.0195934
0.0215821
0.0235321
0.0252464
0.0265145
0.0272049
0.0131512
0.0146791
0.0165034
0.0183663
0.020412
0.0225228
0.0245833
0.0263848
0.0277077
0.0284175
0.0134428
0.0150615
0.0170709
0.0190573
0.0212475
0.0234875
0.0256665
0.027562
0.0289471
0.0296774
0.0137339
0.0154483
0.0176335
0.0197522
0.0220915
0.024471
0.0267779
0.0287764
0.0302368
0.0309895
0.013987
0.0158388
0.0181825
0.0204502
0.0229403
0.0254698
0.0279154
0.0300265
0.031568
0.0323495
0.0142062
0.0162222
0.0187047
0.021131
0.0237804
0.0264724
0.0290701
0.0313065
0.0329369
0.0337559
0.0143799
0.0165818
0.0191909
0.0217836
0.0246031
0.0274727
0.0302382
0.0326146
0.0343447
0.0352108
0.0144821
0.0169083
0.0196311
0.0223966
0.0253938
0.0284546
0.031405
0.0339401
0.0357869
0.0367133
0.0144893
0.0171967
0.0200261
0.0229775
0.0261669
0.029436
0.0325862
0.0352934
0.037269
0.0382691
0.0143324
0.0173807
0.0203054
0.0234297
0.0268081
0.0303012
0.0336866
0.0366134
0.0387614
0.039866
0.0149761
0.0188681
0.0221354
0.0256273
0.0293402
0.0331714
0.0368927
0.0401465
0.0425702
0.0438634
0.0187833
0.0225477
0.0260365
0.0300928
0.0344035
0.0388509
0.0431342
0.0468428
0.049578
0.0510165
0.0229879
0.0269361
0.0308265
0.0355014
0.040427
0.0455103
0.0503262
0.0544249
0.0574052
0.0589755
0.0274372
0.0318082
0.0363335
0.0417185
0.047309
0.0530484
0.0583513
0.062765
0.0658942
0.0674754
0.0321648
0.037077
0.0423378
0.0484762
0.0547656
0.0611579
0.0668914
0.0715491
0.0747527
0.0763938
0.0372643
0.0427373
0.0487933
0.0556998
0.0627072
0.0697434
0.0758668
0.08069
0.0837668
0.0850455
0.0422639
0.0484076
0.0552023
0.062794
0.0704785
0.078087
0.0845656
0.0895013
0.0923134
0.0935076
0.0472945
0.0538453
0.0613523
0.0696479
0.0780468
0.0862447
0.0932033
0.0984125
0.100743
0.0998206
0.0500562
0.0574443
0.0656004
0.0744747
0.0834301
0.0920521
0.0992954
0.104524
0.105723
0.107298
0.0536076
0.0611226
0.06974
0.0791185
0.0887861
0.0981561
0.106759
0.11403
0.116634
0.100031
0.0137835
0.0174591
0.0212499
0.0253656
0.0296063
0.034499
0.0388106
0.0439483
0.0460308
0.0495278
0.0133763
0.0172224
0.0209519
0.0249941
0.0290698
0.0338111
0.0378351
0.042843
0.0445973
0.0480469
0.013192
0.0172339
0.0209404
0.0249635
0.0289343
0.0334926
0.0372843
0.0419822
0.0435322
0.0467458
0.0129627
0.0170846
0.0207563
0.0247236
0.028631
0.0330213
0.0366516
0.0410583
0.0425849
0.04545
0.0127094
0.01683
0.0204582
0.02434
0.0281761
0.0324048
0.0359209
0.0400579
0.0416554
0.0441745
0.0124554
0.0165457
0.0201427
0.0239479
0.0277027
0.0317606
0.0352161
0.0390559
0.0407733
0.0429798
0.0121983
0.0162452
0.0198285
0.0235787
0.0272635
0.0311755
0.0345635
0.0381554
0.0399457
0.041899
0.0119392
0.0159309
0.0195122
0.0232246
0.0268566
0.030659
0.0339698
0.0373778
0.0391992
0.0409365
0.0116848
0.0156115
0.0191988
0.022886
0.0264787
0.0302021
0.0334412
0.0367097
0.0385357
0.040118
0.011443
0.0152967
0.0188981
0.0225727
0.0261373
0.0298043
0.0329861
0.0361418
0.0379627
0.0394446
0.0112206
0.0149948
0.0186189
0.0222941
0.0258431
0.0294716
0.0326127
0.035675
0.0374897
0.0389062
0.0110149
0.0147061
0.0183641
0.0220533
0.025602
0.0292091
0.0323268
0.0353136
0.0371231
0.0384927
0.010816
0.0144284
0.018133
0.0218499
0.0254155
0.0290199
0.0321317
0.0350609
0.036866
0.0382012
0.0106149
0.0141643
0.0179255
0.0216843
0.0252847
0.0289058
0.032029
0.0349181
0.0367165
0.0380311
0.0104007
0.0139166
0.0177403
0.0215562
0.0252092
0.0288672
0.0320193
0.0348861
0.0366738
0.0379881
0.0101583
0.0136842
0.0175728
0.0214626
0.0251867
0.028902
0.0321008
0.0349632
0.0367273
0.0380752
0.00987078
0.0134619
0.0174154
0.0213983
0.0252141
0.0290079
0.0322745
0.035153
0.0368803
0.0383075
0.00952287
0.0132406
0.0172579
0.0213533
0.0252804
0.0291724
0.0325284
0.0354439
0.037099
0.0386886
0.00906852
0.0129966
0.017097
0.0213311
0.0253961
0.029412
0.0328832
0.0358617
0.0374282
0.0392452
0.00851022
0.0126542
0.0168529
0.0212412
0.0254599
0.0296194
0.0332402
0.0363239
0.0377453
0.0399561
0.00953349
0.0137653
0.0178551
0.0223409
0.0268023
0.0311571
0.0349711
0.0382252
0.0395051
0.0421083
0.0120024
0.0164741
0.0208157
0.0257167
0.0306278
0.0354541
0.0397347
0.0433257
0.0450059
0.0472848
0.0154599
0.0202573
0.0250183
0.030488
0.0359822
0.041458
0.0463597
0.0503919
0.0527616
0.0547059
0.0195483
0.0247733
0.0300957
0.0363098
0.0426221
0.0490356
0.0548627
0.0597476
0.0631758
0.0655172
0.0238468
0.0295898
0.0356323
0.0427653
0.0501298
0.0578007
0.0649894
0.071403
0.0766086
0.0807459
0.0283206
0.0345728
0.0415036
0.0496902
0.0583392
0.0676155
0.0767762
0.0859227
0.0949375
0.103647
0.0319433
0.0389507
0.0468388
0.0561191
0.0662839
0.0775792
0.0895499
0.10321
0.119262
0.138238
0.0358861
0.0434717
0.0523093
0.0627501
0.0746097
0.0883857
0.104327
0.125333
0.155003
0.195501
0.0369549
0.0447466
0.0540016
0.0651644
0.0786933
0.0956979
0.118155
0.151081
0.203565
0.283416
0.0394605
0.0486119
0.0594046
0.0727769
0.0899504
0.112782
0.144976
0.194884
0.280322
0.411626
0.00936702
0.0116344
0.0144716
0.017879
0.0212971
0.0253475
0.0282028
0.0319989
0.0329107
0.034682
0.00921269
0.0114896
0.0142268
0.017474
0.020639
0.0244687
0.0270251
0.0306831
0.0314269
0.0333682
0.00922448
0.0114492
0.0141037
0.0172393
0.0202604
0.0238553
0.0261932
0.0295964
0.0301106
0.0324555
0.00931317
0.0113898
0.0138841
0.0168612
0.0197194
0.0230965
0.0252626
0.0284353
0.0287451
0.0312168
0.00943905
0.011324
0.0136093
0.0164047
0.0190561
0.0222081
0.0241986
0.0271876
0.0273196
0.0296546
0.00958979
0.0112681
0.0133357
0.0159318
0.0183833
0.0213008
0.0231058
0.025937
0.0259099
0.0280152
0.00975532
0.0112243
0.0130728
0.015435
0.0177486
0.0204203
0.0220557
0.0247389
0.0245794
0.0264868
0.00992518
0.0111934
0.0128164
0.0149511
0.0171047
0.0195599
0.0210717
0.0235946
0.0233516
0.0251245
0.010089
0.0111759
0.0125656
0.0144833
0.0164539
0.0187001
0.0201604
0.0224757
0.0222318
0.0238968
0.0102363
0.0111709
0.0123213
0.0140278
0.015812
0.0178761
0.0192779
0.0213666
0.0212234
0.0227467
0.00870648
0.00929197
0.00953152
0.00972517
0.00986111
0.00993938
0.00996708
0.00995553
0.00993286
0.00986865
0.00887769
0.00944373
0.00965734
0.00981366
0.00990403
0.00993135
0.00990559
0.00983964
0.00976056
0.00964059
0.00912344
0.00964145
0.0098205
0.00993303
0.00997331
0.00994679
0.00986567
0.00974443
0.00961063
0.00943812
0.00944886
0.00989033
0.010027
0.0100902
0.0100772
0.00999555
0.0098593
0.00968423
0.00949803
0.00927673
0.00985696
0.0101943
0.0102814
0.0102906
0.010222
0.0100852
0.00989533
0.00966893
0.00943265
0.00916651
0.0103466
0.0105547
0.0105857
0.010537
0.0104115
0.0102202
0.00997895
0.00970429
0.00942093
0.0091191
0.0109121
0.0109694
0.0109389
0.0108291
0.0106459
0.0104013
0.0101112
0.00979241
0.00946622
0.00911436
0.0115431
0.0114324
0.0113361
0.0111628
0.0109216
0.0106255
0.0102896
0.00993026
0.00956452
0.00917368
0.0122237
0.0119343
0.0117686
0.0115302
0.0112316
0.010886
0.0105076
0.0101114
0.00971037
0.00928978
0.0129273
0.0124587
0.012223
0.0119198
0.0115653
0.0111729
0.0107557
0.0103267
0.0098952
0.00945201
0.0136164
0.0129821
0.0126814
0.0123166
0.0119096
0.0114744
0.0110225
0.0105649
0.0101084
0.00964901
0.0143
0.0134987
0.0131321
0.0127073
0.0122511
0.0117772
0.0112952
0.0108139
0.0103382
0.00986906
0.0149444
0.0139838
0.0135552
0.0130753
0.0125752
0.0120682
0.0115617
0.0110621
0.0105733
0.0101012
0.0155192
0.0144151
0.0139318
0.0134043
0.0128679
0.0123349
0.0118105
0.0112986
0.0108032
0.0103351
0.0159992
0.0147722
0.0142445
0.0136795
0.0131161
0.0125658
0.0120311
0.0115136
0.0110182
0.0105616
0.0163625
0.015037
0.0144777
0.0138879
0.0133089
0.012751
0.0122146
0.0116989
0.0112102
0.0107727
0.0165904
0.0151941
0.0146187
0.014019
0.0134376
0.0128834
0.0123548
0.0118486
0.0113727
0.0109607
0.0166692
0.0152322
0.0146581
0.0140655
0.0134963
0.0129582
0.012448
0.0119594
0.0115003
0.0111156
0.0165904
0.0151439
0.0145903
0.0140233
0.0134824
0.0129737
0.0124926
0.0120282
0.0115823
0.0112187
0.0163513
0.0149269
0.0144135
0.0138918
0.0133966
0.0129324
0.0124925
0.0120592
0.0116245
0.0112767
0.0159533
0.0145827
0.0141288
0.0136725
0.0132421
0.0128421
0.012469
0.0121146
0.0117924
0.0115984
0.0153961
0.0141142
0.0137396
0.0133672
0.0130176
0.0126942
0.0123957
0.0121198
0.0118824
0.0117422
0.0146964
0.0135336
0.0132541
0.0129808
0.0127243
0.012486
0.0122655
0.0120639
0.0118932
0.01178
0.0138738
0.0128556
0.0126834
0.0125213
0.0123683
0.0122232
0.012087
0.0119634
0.0118619
0.011793
0.0129506
0.012098
0.0120414
0.0119996
0.0119587
0.0119147
0.0118696
0.0118296
0.0118027
0.0117926
0.0119523
0.0112809
0.0113444
0.0114289
0.0115066
0.0115701
0.0116223
0.0116711
0.0117236
0.011781
0.0109064
0.0104261
0.0106102
0.0108237
0.0110242
0.0112
0.0113544
0.0114965
0.0116336
0.011766
0.00984047
0.00955529
0.00985709
0.0101987
0.0105236
0.0108146
0.0110749
0.0113142
0.0115402
0.0117546
0.00878162
0.00868925
0.00910252
0.00956832
0.0100165
0.0104237
0.0107918
0.0111309
0.0114492
0.0117513
0.00776549
0.00785134
0.00836465
0.00894661
0.00951378
0.0100357
0.0105119
0.0109519
0.0113646
0.0117586
0.00684301
0.00707548
0.0076665
0.00835018
0.00902718
0.00965891
0.0102412
0.0107816
0.0112887
0.0117769
0.00596481
0.00634527
0.00700573
0.00778257
0.00856104
0.00929706
0.00998205
0.0106209
0.0112208
0.011803
0.00515949
0.00567803
0.0063978
0.0072518
0.00812164
0.00895417
0.00973637
0.0104702
0.0111593
0.0118299
0.00444636
0.00508669
0.00585109
0.00676682
0.00771402
0.00863262
0.00950458
0.0103281
0.0111023
0.0118472
0.00383264
0.00457698
0.00537086
0.00633179
0.00734124
0.00833397
0.00928648
0.0101914
0.0110412
0.0118668
0.00332107
0.00415101
0.00496013
0.00594941
0.00700514
0.00805878
0.00908154
0.01006
0.0109773
0.0118677
0.00291158
0.00380857
0.00461995
0.0056211
0.00670665
0.00780709
0.00888894
0.00993242
0.0109084
0.0118466
0.00260139
0.00354732
0.00434945
0.00534692
0.00644586
0.00757853
0.00870805
0.00980905
0.0108368
0.0118054
0.00238544
0.00336321
0.00414623
0.00512572
0.006222
0.0073722
0.00853817
0.009692
0.0107743
0.0117609
0.00225735
0.00325103
0.00400663
0.00495531
0.00603341
0.00718601
0.00837549
0.00957558
0.0107292
0.0117535
0.0022081
0.00320369
0.00392516
0.00483182
0.00587703
0.00701741
0.00822049
0.00947495
0.0108058
0.0121421
0.00221921
0.0032097
0.00389461
0.00475114
0.00574889
0.00685598
0.00804212
0.00928785
0.0106156
0.0119389
0.00229083
0.00326656
0.00391183
0.00471107
0.00564793
0.00670096
0.00784234
0.00904461
0.0103162
0.0115799
0.00241669
0.00336825
0.00397202
0.0047096
0.00557652
0.00656188
0.00764375
0.00879522
0.0100178
0.0112332
0.00258785
0.00350763
0.0040698
0.00474445
0.00553689
0.0064468
0.00746016
0.00855415
0.00972655
0.0108987
0.0027958
0.003678
0.00419982
0.00481271
0.00552951
0.00635971
0.00729779
0.00832609
0.00944054
0.0105683
0.00303285
0.00387323
0.00435682
0.00491085
0.00555342
0.00630246
0.00716095
0.00811706
0.00916625
0.0102457
0.0032919
0.00408751
0.00453547
0.0050348
0.00560655
0.00627551
0.00705258
0.0079322
0.00891029
0.00993641
0.00356673
0.00431552
0.00473055
0.00517999
0.00568581
0.00627776
0.00697377
0.00777452
0.00867701
0.00964516
0.00385362
0.00455444
0.00493881
0.005343
0.00578825
0.00630741
0.00692426
0.00764534
0.00846908
0.0093752
0.00415125
0.00480501
0.0051609
0.00552406
0.0059139
0.0063648
0.00690505
0.00754654
0.00828897
0.00912874
0.00444554
0.0050535
0.00538373
0.00571105
0.00605214
0.00644128
0.00690983
0.00747415
0.00813457
0.00890338
0.00473692
0.00530072
0.00560731
0.00590296
0.0062011
0.00653459
0.00693642
0.00742648
0.00800468
0.00869689
0.00502485
0.00554595
0.00583035
0.00609772
0.00635799
0.00664161
0.00698185
0.007401
0.00789739
0.00850707
0.00530829
0.00578774
0.00605099
0.00629282
0.00651972
0.00675897
0.00704293
0.00739501
0.00781057
0.00833145
0.00558683
0.00602523
0.00626799
0.00648648
0.00668391
0.00688396
0.00711698
0.00740632
0.00774262
0.00816771
0.00586068
0.00625816
0.0064809
0.00667783
0.00684916
0.00701479
0.00720236
0.00743409
0.00769396
0.00801549
0.00613035
0.00648666
0.00668988
0.00686692
0.00701525
0.00715096
0.00729861
0.00747895
0.00766744
0.00787641
0.00639629
0.00671107
0.00689565
0.0070549
0.00718378
0.00729468
0.00740845
0.00754353
0.00766537
0.00774505
0.00665849
0.00693164
0.00709915
0.00724376
0.00735866
0.00745388
0.00754736
0.00765672
0.00774824
0.00772843
0.00691677
0.00714842
0.00730095
0.00743481
0.00754281
0.00763558
0.00773562
0.00788238
0.00814709
0.0085747
0.00717204
0.00736135
0.00750082
0.00762755
0.00773316
0.00782722
0.00793073
0.00807963
0.00833937
0.00871954
0.00742006
0.00756877
0.00769775
0.0078208
0.00792747
0.0080243
0.00812804
0.00826649
0.00848482
0.00877866
0.00765699
0.00776868
0.00789019
0.0080131
0.00812453
0.00822739
0.00833416
0.00846659
0.00865639
0.00889442
0.00787969
0.00795813
0.00807614
0.00820246
0.00832223
0.0084346
0.00854756
0.00867723
0.00884567
0.00904477
0.00808268
0.00813576
0.00825316
0.00838637
0.0085177
0.00864259
0.00876452
0.00889425
0.00904669
0.00921741
0.00826212
0.00829871
0.00841889
0.00856205
0.00870781
0.00884784
0.00898148
0.00911475
0.00925727
0.00940778
0.00841448
0.00844463
0.00857101
0.00872687
0.00888937
0.00904668
0.0091945
0.00933482
0.00947326
0.00960965
0.0085368
0.00857184
0.0087076
0.00887841
0.00905919
0.00923526
0.00939913
0.00954943
0.00968878
0.00981539
0.00862566
0.00867865
0.00882709
0.00901474
0.00921457
0.00940996
0.00959075
0.00975299
0.00989705
0.0100168
)
;

boundaryField
{
    inlet
    {
        type            zeroGradient;
    }
    outlet
    {
        type            fixedValue;
        value           uniform 0;
    }
    cylinder
    {
        type            zeroGradient;
    }
    top
    {
        type            symmetryPlane;
    }
    bottom
    {
        type            symmetryPlane;
    }
    defaultFaces
    {
        type            empty;
    }
}


// ************************************************************************* //
