/*--------------------------------*- C++ -*----------------------------------*\
  =========                 |
  \\      /  F ield         | OpenFOAM: The Open Source CFD Toolbox
   \\    /   O peration     | Website:  https://openfoam.org
    \\  /    A nd           | Version:  7
     \\/     M anipulation  |
\*---------------------------------------------------------------------------*/
FoamFile
{
    version     2.0;
    format      ascii;
    class       volScalarField;
    location    "44";
    object      p;
}
// * * * * * * * * * * * * * * * * * * * * * * * * * * * * * * * * * * * * * //

dimensions      [0 2 -2 0 0 0 0];

internalField   nonuniform List<scalar> 
2000
(
0.0266173
0.0269505
0.027627
0.0284833
0.0294241
0.0303806
0.0313001
0.0321502
0.0329165
0.0336022
0.0263362
0.0267807
0.0274936
0.0283691
0.0293117
0.0302515
0.0311333
0.0319184
0.0325836
0.033116
0.0259201
0.0265105
0.0272547
0.0281381
0.0290662
0.0299722
0.030802
0.0315146
0.0320824
0.0324727
0.0253813
0.0261477
0.0269188
0.0277965
0.0286906
0.0295406
0.0302967
0.0309195
0.0313834
0.0316387
0.0247383
0.0257026
0.0264976
0.027356
0.0281951
0.0289629
0.0296175
0.0301243
0.0304662
0.0305869
0.0240088
0.0251929
0.0260071
0.026832
0.0275945
0.0282523
0.0287736
0.0291317
0.0293221
0.0292983
0.0232177
0.024636
0.0254633
0.0262411
0.0269058
0.0274253
0.0277804
0.0279549
0.0279581
0.027768
0.0223942
0.0240501
0.0248829
0.0255997
0.0261459
0.0265
0.0266582
0.0266178
0.0264019
0.0260208
0.0215709
0.0234546
0.0242833
0.0249249
0.0253329
0.0254969
0.0254301
0.0251476
0.0246927
0.0241208
0.0207842
0.022871
0.0236846
0.0242377
0.0244913
0.0244452
0.0241285
0.0235695
0.0228319
0.0220565
0.0351471
0.0387254
0.0433781
0.049136
0.054857
0.0603865
0.0646219
0.0689383
0.0708963
0.0730049
0.0341774
0.0371357
0.0409689
0.0462298
0.0516441
0.0569718
0.0610095
0.0651853
0.0670998
0.0691184
0.0330091
0.0355391
0.0385263
0.0432943
0.0484358
0.0535981
0.057492
0.0615608
0.0634064
0.0653774
0.0316103
0.0339138
0.036064
0.0403484
0.0452445
0.0502661
0.0540617
0.0580407
0.0598398
0.0617836
0.0299646
0.0322133
0.0335963
0.0374183
0.0420942
0.0470011
0.0507353
0.0546456
0.0564347
0.0583562
0.0280866
0.0303742
0.0311356
0.0345167
0.0389775
0.0437854
0.0474819
0.051341
0.0531505
0.0550693
0.026025
0.0283385
0.0286875
0.0316792
0.0359474
0.0406742
0.0443546
0.0481817
0.050024
0.0519378
0.023859
0.0260852
0.0262431
0.0288638
0.0329246
0.0375765
0.0412609
0.0450697
0.0469673
0.0489073
0.0216678
0.0236102
0.0238388
0.0262285
0.0301018
0.0346574
0.0383454
0.0421307
0.0440779
0.0460116
0.0195764
0.0210868
0.021311
0.023423
0.0270926
0.0315754
0.0353103
0.0390908
0.0411676
0.0431437
0.0164809
0.0177949
0.0182781
0.0194786
0.0220047
0.025682
0.0292685
0.0327441
0.0350062
0.0366402
0.00610153
0.00642332
0.00685642
0.0086087
0.0116506
0.0155989
0.0193927
0.022818
0.0251726
0.0266617
-0.00264066
-0.00294193
-0.00301524
-0.0015057
0.00167504
0.00595708
0.0100706
0.0136594
0.016109
0.0176214
-0.00943019
-0.0100641
-0.0104787
-0.0094016
-0.0065581
-0.00240323
0.00176064
0.0054955
0.0081127
0.00973512
-0.0137358
-0.0144933
-0.015078
-0.0144124
-0.0121436
-0.00852466
-0.00470571
-0.00108512
0.00154382
0.00327264
-0.0153716
-0.0161522
-0.0168405
-0.0165406
-0.0149099
-0.0120301
-0.00874608
-0.00542342
-0.00303026
-0.00133982
-0.0143739
-0.0150857
-0.015952
-0.0160336
-0.0151107
-0.0129958
-0.0103783
-0.00749429
-0.00537147
-0.00381739
-0.0114377
-0.0119415
-0.0126871
-0.0130929
-0.0128245
-0.0116274
-0.00983922
-0.00750118
-0.00567556
-0.00427873
-0.00719185
-0.00762174
-0.00819352
-0.00864675
-0.00873299
-0.00820534
-0.00724141
-0.00576932
-0.00438938
-0.00330758
-0.00203906
-0.00221315
-0.00259581
-0.00302694
-0.0033304
-0.00330108
-0.00307642
-0.00247516
-0.00188839
-0.00138236
0.0142901
0.00510611
-0.00273069
-0.00892601
-0.0128686
-0.0144236
-0.0135138
-0.0108271
-0.00685501
-0.00195741
0.0125572
0.0038391
-0.00350586
-0.00924433
-0.012792
-0.0141073
-0.0131368
-0.0104899
-0.00660924
-0.00190407
0.0110724
0.00295266
-0.00399217
-0.00938179
-0.012623
-0.0137458
-0.0127167
-0.0101224
-0.00636324
-0.00185897
0.00991658
0.00235675
-0.00421537
-0.00929838
-0.0122904
-0.0132949
-0.0122534
-0.00973561
-0.00613865
-0.00182504
0.00915117
0.00204929
-0.0041992
-0.00903462
-0.0118176
-0.0127582
-0.0117423
-0.00932728
-0.00581411
-0.00179124
0.00878789
0.00204087
-0.00393894
-0.00859806
-0.0112078
-0.012138
-0.011185
-0.00890418
-0.00560034
-0.00175454
0.00881699
0.00232943
-0.00342815
-0.00795097
-0.0105014
-0.0114371
-0.0105832
-0.00845816
-0.00536146
-0.00173178
0.00924193
0.00289579
-0.00270164
-0.0071423
-0.00967181
-0.0106576
-0.00993359
-0.00798658
-0.00509912
-0.00170209
0.0100633
0.00370825
-0.00177166
-0.00618451
-0.00873346
-0.00980742
-0.00924013
-0.00748953
-0.00482119
-0.00164097
0.0111812
0.00474122
-0.000668033
-0.00509943
-0.00770505
-0.00889716
-0.00850883
-0.00696792
-0.00452754
-0.0015668
0.0125181
0.00593984
0.000569568
-0.00391738
-0.00660697
-0.00793905
-0.00774643
-0.00642339
-0.0042157
-0.00146914
0.0140216
0.00725846
0.0019068
-0.00266287
-0.00545908
-0.00694623
-0.00696093
-0.00585998
-0.00388758
-0.00135278
0.0156585
0.00867144
0.00331762
-0.00135418
-0.00427982
-0.00593099
-0.00616103
-0.0052835
-0.00354745
-0.00122511
0.0173941
0.0101559
0.00477691
-8.36168e-06
-0.00308495
-0.00490484
-0.0053547
-0.00469918
-0.00319856
-0.00109098
0.0191994
0.0116956
0.00626262
0.00135982
-0.00188748
-0.00387819
-0.00454928
-0.00411235
-0.00284438
-0.000954318
0.021045
0.013275
0.00775236
0.00273575
-0.000698309
-0.00286017
-0.00375122
-0.00352807
-0.00248822
-0.000818238
0.0228836
0.0148703
0.00922375
0.00410556
0.000474602
-0.00185806
-0.00296617
-0.00295099
-0.00213302
-0.000684821
0.0247164
0.0165113
0.0106983
0.00548072
0.00163732
-0.000872763
-0.00219792
-0.00238592
-0.00178175
-0.000555005
0.02672
0.0183695
0.0122761
0.00691773
0.00281976
0.000106367
-0.0014436
-0.00183412
-0.00143528
-0.000428411
0.0284493
0.0201987
0.013782
0.0083046
0.0039765
0.00106306
-0.00069642
-0.00128287
-0.0010827
-0.000305045
0.0289157
0.0225227
0.0161987
0.0108915
0.00646019
0.0032487
0.00110633
5.87244e-05
-0.00021735
-3.62262e-05
0.0293002
0.0235461
0.0178563
0.0130211
0.00883179
0.00562077
0.00324872
0.0017871
0.000948857
0.000429916
0.0309702
0.0253586
0.019814
0.0151049
0.0109165
0.00759384
0.004988
0.00320773
0.00194644
0.000867018
0.0328422
0.0272359
0.0217353
0.0170289
0.0127562
0.00927984
0.00645228
0.00441837
0.00284112
0.00130399
0.0350612
0.0292592
0.0236652
0.0188454
0.0144195
0.0107596
0.00772762
0.00549863
0.00368821
0.00175667
0.0376052
0.0314714
0.0256501
0.0205987
0.0159722
0.0121113
0.00889766
0.00650497
0.00449906
0.00220515
0.0403697
0.0338066
0.0276285
0.0222761
0.0174533
0.0133953
0.0100165
0.00744114
0.00520103
0.00251921
0.0429639
0.0356609
0.0293723
0.0238431
0.0188598
0.0146164
0.011068
0.0082264
0.00561672
0.00253428
0.0451514
0.0381312
0.031324
0.0252805
0.0200251
0.0156096
0.0118859
0.00870964
0.00565799
0.00227545
0.0469454
0.0386236
0.0316851
0.025741
0.0205845
0.0161739
0.0123599
0.00895683
0.00562466
0.0020859
0.0331975
0.033636
0.035081
0.0368177
0.0391485
0.041856
0.0447358
0.0485006
0.04965
0.0530557
0.0346657
0.0355022
0.0370141
0.0388321
0.0413062
0.0441469
0.0471851
0.0508319
0.0523038
0.0551836
0.0357071
0.0370133
0.03881
0.0409625
0.0437524
0.0468742
0.0501929
0.0535148
0.0555553
0.0572545
0.0368112
0.0383584
0.0403833
0.0428837
0.0459838
0.0493935
0.0529927
0.0562769
0.0586984
0.0598129
0.0380347
0.0397913
0.0419808
0.0447516
0.0480855
0.0517164
0.0555398
0.0589979
0.0616539
0.0627912
0.0392839
0.0413258
0.0437214
0.046734
0.0502587
0.0540631
0.0580573
0.0617317
0.0645661
0.0659707
0.0405307
0.0429002
0.0455777
0.0488551
0.0525814
0.0565635
0.0607152
0.0645768
0.0675674
0.0692206
0.0417948
0.0444936
0.0475047
0.0510707
0.0550303
0.0592227
0.0635535
0.0675833
0.070715
0.072519
0.0430949
0.0461127
0.0494884
0.0533464
0.0575655
0.0619973
0.0665402
0.0707463
0.0740118
0.0758936
0.0444398
0.0477589
0.0515303
0.0556684
0.0601669
0.0648521
0.069635
0.074038
0.0774402
0.0793717
0.0458373
0.0494185
0.0536292
0.0580262
0.0628283
0.06777
0.0728166
0.0774373
0.0809859
0.0829658
0.0472895
0.0510634
0.0557737
0.0604001
0.0655424
0.0707406
0.0760753
0.0809315
0.0846411
0.0866762
0.0487688
0.0526716
0.0579335
0.0627704
0.068292
0.0737639
0.079414
0.0845217
0.0884102
0.0905076
0.050226
0.0542358
0.0600626
0.0651239
0.0710505
0.0768429
0.082828
0.0882071
0.0922974
0.0944746
0.0516031
0.0557581
0.0621103
0.0674586
0.0737782
0.0800095
0.0863267
0.0919965
0.0963037
0.098567
0.0528345
0.0572416
0.0640139
0.0697966
0.0765074
0.0831653
0.0898543
0.0958554
0.100409
0.102773
0.0538562
0.0586711
0.0658449
0.0720829
0.0791938
0.0862881
0.0934075
0.099785
0.104615
0.107103
0.0545732
0.0600831
0.0674951
0.0741991
0.0817287
0.0892968
0.0969057
0.103725
0.108892
0.111549
0.0550132
0.0614642
0.0689957
0.0762049
0.0841826
0.0922723
0.100408
0.10771
0.113259
0.11614
0.0549312
0.0623274
0.0699866
0.0776889
0.0861157
0.0947812
0.10355
0.111504
0.117608
0.120837
0.0569109
0.0663735
0.0743843
0.0830441
0.0923685
0.102171
0.112158
0.121389
0.128612
0.132605
0.067793
0.076732
0.08514
0.0952367
0.10614
0.1178
0.129733
0.140772
0.149404
0.154094
0.0791021
0.0885851
0.098136
0.109909
0.122566
0.13635
0.150313
0.163098
0.173002
0.1784
0.0904745
0.101053
0.112396
0.126149
0.140953
0.157256
0.173354
0.187916
0.19901
0.204891
0.102005
0.114076
0.127539
0.143508
0.160825
0.179865
0.198133
0.214508
0.226677
0.233212
0.114144
0.127829
0.1436
0.161969
0.182044
0.203834
0.224249
0.242367
0.255277
0.261749
0.126385
0.141886
0.159933
0.180737
0.203575
0.227838
0.250336
0.269887
0.283077
0.290046
0.138517
0.155668
0.175888
0.199045
0.224473
0.250863
0.275563
0.296414
0.309318
0.314315
0.147716
0.166234
0.188113
0.213069
0.240423
0.26844
0.295153
0.317129
0.329896
0.335655
0.15424
0.173503
0.196516
0.222702
0.251354
0.280722
0.309461
0.334574
0.350814
0.340374
0.0537405
0.0639442
0.0740058
0.0846404
0.0952574
0.106802
0.117977
0.129589
0.138048
0.144422
0.0533254
0.0638451
0.0735483
0.0838739
0.0941281
0.105336
0.116027
0.127241
0.135037
0.141159
0.0536216
0.0646627
0.0742962
0.0845048
0.094555
0.105434
0.115684
0.126277
0.133196
0.138807
0.053568
0.0648109
0.0743654
0.0845449
0.0944513
0.105084
0.114973
0.125064
0.131388
0.13653
0.0533696
0.0645825
0.0739932
0.0840559
0.0937657
0.104127
0.113666
0.123361
0.129347
0.134155
0.0531755
0.0643056
0.0736443
0.0835313
0.0930083
0.103051
0.112222
0.121541
0.127281
0.131851
0.0529595
0.0640137
0.0734248
0.0831445
0.09243
0.102175
0.111
0.119962
0.12546
0.12983
0.0527093
0.0637403
0.0732437
0.0828613
0.0920334
0.101546
0.110102
0.118748
0.124031
0.128207
0.0524486
0.0635138
0.0730914
0.0826417
0.0917775
0.101112
0.109509
0.117857
0.123022
0.126986
0.0522112
0.0633546
0.0730019
0.0825241
0.0916345
0.10085
0.109167
0.117242
0.122402
0.126115
0.05203
0.063275
0.0730021
0.0825332
0.0916218
0.100769
0.109036
0.116918
0.122087
0.125602
0.0518914
0.063252
0.0730841
0.0826615
0.0917523
0.10088
0.109118
0.116888
0.122052
0.125441
0.0517498
0.0632429
0.0732232
0.082888
0.0920237
0.101183
0.109426
0.11715
0.122309
0.125623
0.0515841
0.0632351
0.0734091
0.0832007
0.092429
0.101671
0.10996
0.117697
0.122862
0.126136
0.0513811
0.0632329
0.0736386
0.0835952
0.0929668
0.10234
0.110724
0.118526
0.123716
0.126969
0.0511054
0.0632245
0.0738917
0.0840531
0.0936181
0.103167
0.111696
0.119612
0.124852
0.128113
0.0507238
0.0632089
0.074158
0.0845689
0.0943834
0.104158
0.112895
0.120962
0.126279
0.129565
0.050125
0.0631059
0.0743594
0.085069
0.0951845
0.105231
0.114241
0.122509
0.127949
0.131317
0.0494109
0.0630233
0.0745753
0.0856215
0.0960906
0.106456
0.115797
0.124298
0.129902
0.133374
0.0479226
0.0623894
0.0743371
0.0857801
0.0966541
0.107401
0.117195
0.126076
0.131996
0.13573
0.048287
0.0634719
0.0759783
0.0881712
0.0999356
0.111419
0.122114
0.13162
0.138234
0.14226
0.0590215
0.0731564
0.0852096
0.0980692
0.110827
0.123575
0.135735
0.146512
0.154082
0.158304
0.0707062
0.0849943
0.0975717
0.111641
0.125666
0.140152
0.154143
0.166594
0.175339
0.179898
0.0818572
0.0969498
0.111042
0.127013
0.143057
0.160185
0.176758
0.19169
0.202338
0.207661
0.0924951
0.108784
0.125032
0.143326
0.162111
0.182724
0.20275
0.221376
0.235171
0.242133
0.102771
0.120584
0.139476
0.160356
0.182601
0.207357
0.23181
0.25571
0.274693
0.28556
0.112155
0.131959
0.153374
0.17709
0.203347
0.232487
0.262485
0.293606
0.320771
0.340312
0.121009
0.142621
0.166488
0.193291
0.223615
0.257358
0.29436
0.334773
0.374692
0.412614
0.126187
0.149284
0.175094
0.204317
0.238029
0.276676
0.321708
0.37362
0.434243
0.504945
0.12965
0.155121
0.182782
0.214303
0.2514
0.295363
0.348718
0.415051
0.505262
0.622324
0.0431261
0.0527915
0.0626722
0.0724356
0.0820949
0.0920444
0.0999226
0.108547
0.113125
0.114589
0.0417547
0.0513117
0.0607658
0.0701478
0.0792888
0.0888868
0.0961002
0.104584
0.1086
0.110666
0.0411006
0.0507208
0.0599575
0.0693569
0.0780108
0.0870404
0.0936511
0.101686
0.10502
0.108677
0.0402968
0.0496002
0.058548
0.0677745
0.0761232
0.0846379
0.0907726
0.0982914
0.101108
0.105655
0.0394788
0.0481377
0.0566348
0.065366
0.0734852
0.0814847
0.0871978
0.0942051
0.0965993
0.101174
0.0387354
0.0466146
0.0545839
0.0627579
0.0704486
0.0780057
0.0833249
0.0897903
0.091803
0.0959221
0.0380424
0.0450736
0.052487
0.0601628
0.0673542
0.0744228
0.0795005
0.085379
0.0870968
0.0906559
0.0373705
0.0435028
0.0503165
0.0575302
0.064285
0.0708488
0.0757557
0.0810848
0.0826965
0.0857564
0.0366915
0.0419117
0.048064
0.0548075
0.0611947
0.0673236
0.0720264
0.0768851
0.0786369
0.0812556
0.0359664
0.0403164
0.0457459
0.0519999
0.0580494
0.063837
0.0683039
0.0728304
0.0747399
0.0770339
0.0200757
0.022326
0.0231137
0.0235684
0.0236582
0.0233943
0.0228197
0.0219664
0.0208779
0.0195545
0.0195018
0.0218576
0.0226076
0.0229574
0.0228837
0.0224116
0.0216037
0.0205089
0.0191919
0.0176992
0.019111
0.0215032
0.0222082
0.022454
0.0222262
0.0215675
0.0205617
0.0192788
0.0178058
0.0161979
0.0189557
0.0213083
0.0219656
0.022113
0.0217462
0.0209274
0.0197601
0.0183319
0.0167425
0.0150352
0.0190884
0.0213232
0.0219324
0.0219884
0.0214989
0.0205461
0.0192501
0.0177111
0.0160329
0.0142433
0.0195553
0.0215963
0.0221563
0.022126
0.0215273
0.0204626
0.0190647
0.0174414
0.0156944
0.013839
0.0203921
0.0221693
0.0226748
0.0225581
0.0218581
0.0206974
0.0192174
0.01753
0.0157321
0.0138332
0.0216208
0.0230721
0.0235095
0.023299
0.0224994
0.0212512
0.0197021
0.017965
0.0161343
0.0142386
0.0232423
0.0243159
0.024663
0.0243439
0.0234404
0.0221074
0.0204964
0.018719
0.0168586
0.0149096
0.0252141
0.0258805
0.0261153
0.0256681
0.0246521
0.0232354
0.0215673
0.0197569
0.0178781
0.0159152
0.0274411
0.0277146
0.0278253
0.0272321
0.0260949
0.0245923
0.0228696
0.0210322
0.0191461
0.017185
0.0299765
0.029815
0.0297495
0.0289863
0.0277169
0.0261259
0.0243511
0.0224925
0.0206094
0.0186576
0.0327219
0.0320993
0.0318236
0.0308705
0.0294617
0.027782
0.0259586
0.0240847
0.0222138
0.0202782
0.0355766
0.0344858
0.0339748
0.0328186
0.0312685
0.0295033
0.0276367
0.0257547
0.0239059
0.0219965
0.0384423
0.0368892
0.036127
0.0347634
0.0330759
0.0312327
0.0293316
0.0274505
0.0256357
0.023767
0.0412171
0.0392214
0.0382047
0.03664
0.0348261
0.032917
0.0309931
0.0291239
0.0273568
0.0255475
0.0438004
0.0413968
0.0401373
0.0383893
0.0364673
0.0345092
0.0325773
0.0307322
0.0290254
0.027292
0.0460984
0.0433372
0.0418629
0.039961
0.0379567
0.0359713
0.0340493
0.0322393
0.0305958
0.0289481
0.0480287
0.0449752
0.04333
0.0413163
0.0392635
0.0372768
0.0353828
0.0336084
0.0320106
0.0304715
0.0495231
0.0462563
0.0444992
0.0424286
0.0403719
0.0384189
0.036576
0.0348315
0.0332536
0.0318843
0.0505309
0.0471403
0.0453415
0.0432799
0.041278
0.0394186
0.0377048
0.0361033
0.0346929
0.0338585
0.0510177
0.047598
0.045834
0.0438493
0.0419563
0.0402294
0.0386678
0.0372257
0.0359547
0.0352138
0.0509633
0.0476175
0.045966
0.0441241
0.0423891
0.0408275
0.0394355
0.0381656
0.037038
0.0363224
0.050375
0.0472047
0.0457409
0.0441049
0.0425761
0.0412157
0.0400207
0.0389488
0.0380016
0.0373794
0.0492837
0.0463827
0.0451765
0.0438063
0.0425305
0.0414088
0.0404416
0.0395935
0.0388563
0.0383836
0.04774
0.0451902
0.0443034
0.0432542
0.0422758
0.041429
0.0407193
0.0401192
0.0396142
0.0393222
0.0458106
0.0436781
0.0431625
0.0424827
0.0418422
0.0413032
0.0408783
0.0405483
0.0402963
0.040209
0.0435727
0.0419056
0.0418008
0.0415306
0.0412626
0.0410601
0.0409433
0.0409029
0.0409227
0.0410636
0.0411096
0.0399354
0.0402677
0.0404377
0.0405699
0.0407271
0.0409375
0.0412021
0.0415093
0.0419003
0.0385225
0.0378358
0.0386141
0.0392428
0.0397949
0.040329
0.0408807
0.0414617
0.0420678
0.0427278
0.035943
0.0356907
0.0368967
0.0379864
0.0389678
0.0398885
0.0407902
0.0416943
0.0426058
0.0435495
0.0333243
0.0335126
0.035142
0.0366929
0.0381076
0.0394198
0.0406756
0.0419052
0.0431232
0.0443603
0.0307506
0.0313583
0.0333894
0.0353892
0.0372331
0.038935
0.0405432
0.0420953
0.0436133
0.0451436
0.0282912
0.0292777
0.0316736
0.0340976
0.0363577
0.0384408
0.0403944
0.0422607
0.0440646
0.0458749
0.0259864
0.027309
0.0300207
0.0328351
0.0354905
0.0379401
0.0402268
0.0423945
0.0444641
0.0465273
0.0238724
0.0254841
0.0284442
0.0316141
0.034637
0.0374326
0.040036
0.04249
0.0448016
0.0470742
0.0219707
0.0238213
0.0269677
0.0304428
0.0338004
0.0369168
0.0398171
0.0425434
0.0450797
0.0474979
0.0202939
0.0223292
0.0256098
0.0293316
0.0329801
0.0363896
0.0395634
0.0425484
0.0453149
0.0477983
0.0188489
0.0210182
0.0243757
0.0282841
0.0321782
0.0358488
0.0392731
0.0425017
0.0455509
0.0480757
0.0176372
0.0198941
0.0232705
0.027303
0.0313922
0.0352864
0.0389349
0.0423796
0.0456476
0.0485605
0.0166513
0.018956
0.0222968
0.0263901
0.0306198
0.0346975
0.0385459
0.0422062
0.0458406
0.0495109
0.0158553
0.0181899
0.0214531
0.0255469
0.029857
0.0340609
0.0380447
0.0418052
0.0454627
0.0490616
0.0152632
0.0176003
0.0207438
0.0247785
0.0291079
0.0333786
0.0374398
0.0412502
0.0448826
0.0483628
0.0148695
0.0171822
0.0201704
0.0240933
0.0283873
0.0326791
0.0367883
0.0406537
0.0443242
0.0477861
0.0146587
0.016925
0.0197322
0.0234998
0.027712
0.0319883
0.0361243
0.0400407
0.0437672
0.0472567
0.0146136
0.0168162
0.0194262
0.0230042
0.0270944
0.031321
0.0354601
0.039411
0.0431825
0.0467152
0.0147169
0.0168424
0.0192472
0.02261
0.0265434
0.030688
0.034806
0.0387743
0.0425789
0.0461571
0.0149506
0.0169885
0.0191872
0.0223179
0.0260661
0.0300993
0.0341731
0.0381437
0.0419719
0.0455933
0.0152967
0.017238
0.0192359
0.0221257
0.0256672
0.0295636
0.0335713
0.0375292
0.0413727
0.0450359
0.0157472
0.0175807
0.0193844
0.0220302
0.0253488
0.0290861
0.0330072
0.0369377
0.040789
0.0444948
0.0163101
0.0180227
0.0196377
0.0220378
0.0251198
0.0286765
0.0324893
0.0363761
0.040226
0.0439752
0.0169104
0.0185081
0.0199549
0.0221231
0.0249678
0.0283314
0.0320182
0.0358453
0.0396823
0.0434689
0.0175503
0.0190352
0.0203305
0.0222806
0.0248904
0.0280505
0.0315938
0.0353433
0.0391514
0.0429597
0.0182261
0.0195981
0.0207561
0.0225028
0.0248826
0.0278315
0.0312143
0.0348665
0.0386265
0.0424358
0.0189283
0.0201864
0.0212211
0.0227806
0.0249388
0.0276722
0.0308793
0.0344133
0.0381028
0.0418871
0.0196478
0.020791
0.0217157
0.0231054
0.0250538
0.027571
0.0305893
0.0339839
0.0375759
0.0412999
0.0203768
0.0214046
0.022232
0.0234701
0.0252227
0.0275266
0.0303459
0.0335809
0.0370459
0.0406629
0.0211086
0.0220208
0.0227633
0.0238681
0.0254414
0.0275384
0.0301518
0.0332104
0.0365199
0.0399684
0.0218363
0.0226341
0.0233038
0.0242941
0.0257061
0.0276061
0.0300111
0.0328836
0.0360261
0.0392518
0.0225528
0.023239
0.0238482
0.0247427
0.026013
0.027729
0.0299242
0.0325988
0.0355921
0.0385783
0.0232506
0.0238295
0.02439
0.0252071
0.026356
0.0279044
0.0298945
0.0323646
0.0353277
0.0384364
0.0239183
0.0243964
0.0249215
0.0256808
0.0267297
0.0281264
0.0299106
0.0321144
0.0347844
0.0376752
0.0245475
0.0249343
0.0254369
0.0261569
0.0271275
0.0283914
0.0299816
0.0319225
0.0342633
0.0368637
0.0251269
0.0254339
0.025927
0.0266262
0.0275414
0.0286976
0.0301202
0.0318344
0.0338913
0.0361927
0.0256417
0.0258852
0.026381
0.0270763
0.0279586
0.0290344
0.0303188
0.0318362
0.0336372
0.0356497
0.0260779
0.0262764
0.026786
0.0274924
0.028362
0.0293827
0.030557
0.0319038
0.0334692
0.035209
0.0264207
0.0265955
0.0271284
0.0278578
0.0287307
0.029718
0.0308086
0.0320122
0.0333661
0.0348514
0.0266561
0.0268309
0.0273946
0.028155
0.0290425
0.0300132
0.0310427
0.0321297
0.0332993
0.0345513
0.0267716
0.0269725
0.027572
0.0283671
0.0292746
0.0302394
0.0312248
0.0322181
0.0332308
0.0342728
0.0267592
0.0270132
0.0276514
0.0284796
0.0294069
0.0303692
0.0313206
0.0322373
0.0331174
0.0339718
)
;

boundaryField
{
    inlet
    {
        type            zeroGradient;
    }
    outlet
    {
        type            fixedValue;
        value           uniform 0;
    }
    cylinder
    {
        type            zeroGradient;
    }
    top
    {
        type            symmetryPlane;
    }
    bottom
    {
        type            symmetryPlane;
    }
    defaultFaces
    {
        type            empty;
    }
}


// ************************************************************************* //
