/*--------------------------------*- C++ -*----------------------------------*\
  =========                 |
  \\      /  F ield         | OpenFOAM: The Open Source CFD Toolbox
   \\    /   O peration     | Website:  https://openfoam.org
    \\  /    A nd           | Version:  7
     \\/     M anipulation  |
\*---------------------------------------------------------------------------*/
FoamFile
{
    version     2.0;
    format      ascii;
    class       surfaceScalarField;
    location    "9.9";
    object      phi;
}
// * * * * * * * * * * * * * * * * * * * * * * * * * * * * * * * * * * * * * //

dimensions      [0 3 -1 0 0 0 0];

internalField   nonuniform List<scalar> 
35640
(
1.66968e-05
-0.000315662
0.000298966
6.42191e-05
-0.00070153
0.000654008
0.000142062
-0.000862831
0.000784989
0.000250169
-0.000846242
0.000738135
0.00038878
-0.000685201
0.00054659
0.000558288
-0.000404792
0.000235283
0.000759163
-2.47444e-05
-0.00017613
0.000991874
0.000439344
-0.000672054
0.00125677
0.00097495
-0.00123985
0.00155401
0.00157173
-0.00186897
0.00188347
0.00222089
-0.00255035
0.00224464
0.00291463
-0.0032758
0.00263655
0.00364567
-0.00403757
0.00305766
0.00440698
-0.00482809
0.00350586
0.00519152
-0.00563972
0.00397841
0.00599211
-0.00646467
0.00447197
0.0068014
-0.00729496
0.00498262
0.00761186
-0.00812251
0.00550595
0.0084159
-0.00893924
0.00603724
0.00920599
-0.00973727
0.0065715
0.00997483
-0.0105091
0.00710371
0.0107156
-0.0112478
0.00762896
0.0114219
-0.0119472
0.00814259
0.0120884
-0.012602
0.00864034
0.0127105
-0.0132082
0.0091185
0.0132844
-0.0137626
0.00957402
0.0138075
-0.0142631
0.0100046
0.0142777
-0.0147083
0.010409
0.0146924
-0.0150968
0.0150444
0.0107872
-0.0154226
1.62968e-05
-0.000331959
6.20374e-05
-0.000747271
0.000136319
-0.000937113
0.000238899
-0.000948822
0.000369972
-0.000816274
0.000529962
-0.000564781
0.000719372
-0.000214154
0.000938713
0.000220003
0.00118842
0.00072524
0.00146877
0.00129138
0.00177979
0.00190987
0.00212118
0.00257323
0.00249227
0.00327458
0.00289189
0.00400736
0.00331836
0.00476505
0.00376944
0.00554104
0.00424229
0.00632855
0.00473356
0.00712059
0.0052394
0.00791007
0.00575554
0.00868985
0.00627744
0.00945293
0.00680041
0.0101926
0.00731977
0.0109026
0.00783098
0.0115772
0.00832979
0.0122117
0.00881237
0.0128018
0.00927547
0.0133445
0.00971652
0.0138367
0.0101339
0.0142751
0.0146513
0.010527
1.58585e-05
-0.000347818
5.96662e-05
-0.000791079
0.000130172
-0.00100762
0.000227033
-0.00104568
0.000350458
-0.000939698
0.000500914
-0.000715238
0.000678957
-0.000392197
0.000885165
1.37953e-05
0.00112004
0.00049036
0.00138395
0.00102747
0.00167705
0.00161678
0.00199923
0.00225106
0.00235001
0.0029238
0.00272854
0.00362882
0.00313351
0.00436008
0.00356308
0.00511147
0.00401491
0.00587671
0.00448614
0.00664937
0.0049734
0.0074228
0.00547293
0.00819031
0.00598064
0.00894522
0.0064922
0.00968102
0.00700322
0.0103915
0.00750934
0.0110711
0.00800639
0.0117146
0.00849053
0.0123177
0.00895839
0.0128766
0.0094072
0.0133878
0.00983499
0.0138473
0.0142456
0.0102407
1.53416e-05
-0.00036316
5.69442e-05
-0.000832681
0.000123367
-0.00107404
0.000214228
-0.00113654
0.000329773
-0.00105524
0.000470557
-0.000856022
0.000637221
-0.000558861
0.000830406
-0.000179389
0.0010507
0.000270069
0.00129854
0.000779626
0.00157419
0.00134113
0.00187766
0.00194759
0.00220867
0.00259279
0.0025666
0.00327089
0.00295043
0.00397625
0.00335869
0.00470321
0.00378943
0.00544597
0.00424024
0.00619856
0.00470822
0.00695482
0.00519008
0.00770845
0.00568215
0.00845315
0.0061805
0.00918266
0.00668107
0.00989098
0.00717972
0.0105724
0.00767245
0.0112219
0.00815547
0.0118347
0.00862536
0.0124067
0.00907925
0.012934
0.0095149
0.0134117
0.0138297
0.00993076
1.46875e-05
-0.000377847
5.37961e-05
-0.00087179
0.000115756
-0.001136
0.000200228
-0.00122102
0.000307565
-0.00116258
0.000438425
-0.000986882
0.000593564
-0.000714
0.000773722
-0.000359547
0.000979559
6.42319e-05
0.00121159
0.000547593
0.00147016
0.00108256
0.00175539
0.00166236
0.00206714
0.00228103
0.00240498
0.00293305
0.00276812
0.00361311
0.00315538
0.00431595
0.00356517
0.00503618
0.00399545
0.00576828
0.00444376
0.00650651
0.00490721
0.007245
0.00538256
0.00797779
0.00586629
0.00869894
0.00635465
0.00940262
0.00684381
0.0100833
0.00732994
0.0107357
0.00780939
0.0113552
0.00827878
0.0119373
0.00873515
0.0124776
0.00917609
0.0129707
0.0134062
0.0095996
1.38804e-05
-0.000391728
5.0126e-05
-0.000908035
0.000107173
-0.00119305
0.000184789
-0.00129863
0.000283481
-0.00126127
0.000404062
-0.00110746
0.000547432
-0.00085737
0.000714439
-0.000526553
0.000905831
-0.00012716
0.00112221
0.000331219
0.00136398
0.000840789
0.00163136
0.00139499
0.00192432
0.00198807
0.00224256
0.0026148
0.0025855
0.00327018
0.00295218
0.00394927
0.0033413
0.00464707
0.00375115
0.00535843
0.00417963
0.00607803
0.00462425
0.00680038
0.00508216
0.00751988
0.00555021
0.00823089
0.00602499
0.00892783
0.00650298
0.00960529
0.0069806
0.0102581
0.00745434
0.0108815
0.00792091
0.0114707
0.00837738
0.0120211
0.00882117
0.0125269
0.0129775
0.0092499
1.28803e-05
-0.000404608
4.58584e-05
-0.000941013
9.7477e-05
-0.00124467
0.000167693
-0.00136885
0.000257231
-0.00135081
0.000367094
-0.00121733
0.000498347
-0.000988623
0.000651979
-0.000680185
0.000828839
-0.00030402
0.0010296
0.000130456
0.00125476
0.000615633
0.00150459
0.00114515
0.00177916
0.0017135
0.00207828
0.00231568
0.0024015
0.00294696
0.00274807
0.0036027
0.00311691
0.00427823
0.00350659
0.00496875
0.00391532
0.00566929
0.00434096
0.00637475
0.004781
0.00707984
0.00523264
0.00777925
0.00569284
0.00846764
0.00615835
0.00913977
0.00662587
0.0097906
0.00709208
0.0104153
0.00755385
0.011009
0.00800825
0.0115667
0.00845265
0.0120825
0.0125458
0.00888431
1.16624e-05
-0.00041627
4.09222e-05
-0.000970273
8.65494e-05
-0.00129029
0.00014877
-0.00143107
0.000228576
-0.00143061
0.000327206
-0.00131596
0.000445924
-0.00110734
0.000585872
-0.000820133
0.000748015
-0.000466162
0.000933119
-5.46488e-05
0.00114175
0.000407005
0.00137425
0.000912653
0.00163075
0.001457
0.00191116
0.00203527
0.00221514
0.00264298
0.00254209
0.00327575
0.0028911
0.00392921
0.00326098
0.00459886
0.00365021
0.00528007
0.00405691
0.00596804
0.00447892
0.00665783
0.00491376
0.00734441
0.00535868
0.00802271
0.00581077
0.00868769
0.00626696
0.00933441
0.00672418
0.00995804
0.00717944
0.0105537
0.00762991
0.0111162
0.00807289
0.0116396
0.0121133
0.00850538
1.02045e-05
-0.000426475
3.52653e-05
-0.000995334
7.42997e-05
-0.00132933
0.000127886
-0.00148466
0.000197339
-0.00150007
0.000284175
-0.00140279
0.000389878
-0.00121304
0.000515766
-0.00094602
0.000662933
-0.000613329
0.000832247
-0.000223963
0.00102435
0.000214905
0.00123965
0.000697355
0.00147833
0.00121831
0.00174039
0.00177321
0.00202556
0.00235781
0.00233335
0.00296796
0.00266303
0.00359954
0.00301356
0.00424833
0.00338363
0.00490999
0.00377164
0.00558003
0.00417568
0.00625379
0.00459356
0.00692653
0.00502284
0.00759344
0.00546086
0.00824966
0.00590485
0.00889042
0.00635195
0.00951094
0.00679934
0.0101063
0.00724431
0.0106713
0.00768413
0.0111997
0.0116819
0.00811556
8.49302e-06
-0.000434967
2.8851e-05
-0.00101569
6.06684e-05
-0.00136115
0.00010496
-0.00152895
0.000163417
-0.00155852
0.000237866
-0.00147724
0.000330039
-0.00130522
0.000441443
-0.00105742
0.000573321
-0.000745206
0.000726648
-0.000377291
0.000902146
3.94063e-05
0.00110029
0.000499208
0.00132134
0.000997263
0.00156532
0.00152923
0.00183206
0.00209107
0.00212115
0.00267887
0.00243196
0.00328873
0.00276362
0.00391667
0.00311499
0.00455862
0.00348467
0.00521035
0.00387097
0.00586748
0.00427197
0.00652553
0.00468549
0.00717992
0.00510912
0.00782603
0.00554034
0.0084592
0.00597653
0.00907475
0.00641504
0.00966781
0.00685326
0.0102331
0.00728845
0.0107645
0.0112531
0.0077172
6.51867e-06
-0.000441486
2.16607e-05
-0.00103083
4.56325e-05
-0.00138512
7.99666e-05
-0.00156328
0.000126781
-0.00160534
0.000188246
-0.00153871
0.000266359
-0.00138333
0.000362833
-0.0011539
0.00047907
-0.000861443
0.000616166
-0.000514387
0.000774932
-0.000119359
0.000955914
0.000318226
0.00115942
0.000793754
0.00138555
0.00130311
0.00163417
0.00184245
0.00190495
0.00240808
0.00219737
0.00299631
0.00251065
0.00360339
0.0028438
0.00422547
0.00319559
0.00485856
0.00356454
0.00549854
0.00394891
0.00614116
0.00434677
0.00678207
0.00475594
0.00741685
0.00517414
0.00804101
0.00559893
0.00864996
0.00602784
0.00923889
0.00645838
0.00980252
0.0068878
0.0103351
0.0108284
0.00731253
4.27924e-06
-0.000445765
1.36965e-05
-0.00104025
2.92054e-05
-0.00140063
5.29381e-05
-0.00158701
8.74838e-05
-0.00163988
0.000135384
-0.00158661
0.000198916
-0.00144686
0.000280013
-0.001235
0.000380247
-0.000961677
0.000500842
-0.000634981
0.000642705
-0.000261222
0.000806459
0.000154472
0.000992474
0.000607739
0.0012009
0.00109469
0.00143166
0.00161169
0.00168449
0.00215525
0.00195894
0.00272187
0.00225432
0.00330801
0.00256977
0.00391003
0.00290418
0.00452415
0.00325623
0.00514649
0.00362437
0.00577301
0.00400685
0.00639959
0.00440172
0.00702198
0.00480687
0.00763586
0.00522007
0.00823677
0.005639
0.00881997
0.00606124
0.00938028
0.00648404
0.00991232
0.0104087
0.00690371
1.77909e-06
-0.000447544
4.98039e-06
-0.00104345
1.14398e-05
-0.00140709
2.39661e-05
-0.00159954
4.56598e-05
-0.00166158
7.94519e-05
-0.0016204
0.000127916
-0.00149532
0.000193214
-0.00130029
0.000277092
-0.00104556
0.000380912
-0.000738801
0.000505685
-0.000385994
0.000652116
8.04023e-06
0.000820643
0.000439211
0.00101147
0.000903861
0.00122458
0.00139858
0.00145977
0.00192006
0.00171663
0.002465
0.00199458
0.00303006
0.00229282
0.00361178
0.00261038
0.00420659
0.00294606
0.00481081
0.00329847
0.0054206
0.00366601
0.00603205
0.00404691
0.00664108
0.00443922
0.00724355
0.00484088
0.00783511
0.00524969
0.00841115
0.0056633
0.00896667
0.00607894
0.00949669
0.00999486
0.0064928
-9.72376e-07
-0.000446572
-4.44398e-06
-0.00103998
-7.57202e-06
-0.00140396
-6.79724e-06
-0.00160031
1.52484e-06
-0.0016699
2.073e-05
-0.0016396
5.36955e-05
-0.00152829
0.000102817
-0.00134941
0.000170023
-0.00111276
0.000256813
-0.000825591
0.000364311
-0.000493493
0.000493315
-0.000120963
0.000644335
0.000288191
0.000817636
0.000730561
0.00101326
0.00120295
0.00123106
0.00170226
0.00147069
0.00222537
0.00173163
0.00276912
0.00201317
0.00333024
0.00231442
0.00390534
0.0026343
0.00449093
0.00297154
0.00508337
0.00332467
0.00567891
0.00369207
0.00627368
0.00407194
0.00686368
0.00446233
0.00744472
0.00486114
0.00801235
0.00526605
0.00856176
0.00567425
0.00908848
0.00958728
0.00608184
-3.95353e-06
-0.000442618
-1.45126e-05
-0.00102942
-2.76982e-05
-0.00139077
-3.914e-05
-0.00158887
-4.46238e-05
-0.00166441
-4.04001e-05
-0.00164383
-2.32839e-05
-0.00154541
9.35475e-06
-0.00138205
5.96253e-05
-0.00116303
0.000129174
-0.00089514
0.000219243
-0.000583562
0.000330725
-0.000232445
0.000464214
0.000154701
0.000620045
0.000574729
0.000798327
0.00102467
0.000998963
0.00150162
0.00122167
0.00200266
0.001466
0.0025248
0.0017313
0.00306493
0.00201678
0.00361986
0.00232144
0.00418627
0.00264412
0.00476069
0.00298346
0.00533957
0.00333795
0.00591919
0.00370591
0.00649573
0.00408547
0.00706515
0.0044746
0.00762322
0.00487098
0.00816538
0.00527174
0.00868773
0.00918616
0.00567285
-7.14138e-06
-0.000435477
-2.51391e-05
-0.00101142
-4.87677e-05
-0.00136714
-7.27923e-05
-0.00156485
-9.24106e-05
-0.0016448
-0.000103457
-0.00163278
-0.00010244
-0.00154642
-8.64991e-05
-0.00139799
-5.3345e-05
-0.00119619
-1.18427e-06
-0.000947301
7.13474e-05
-0.000656094
0.000165248
-0.000326346
0.0002812
3.87486e-05
0.000419618
0.000436311
0.000580681
0.00086361
0.000764358
0.00131795
0.000970433
0.00179659
0.00119851
0.00229672
0.00144803
0.00281541
0.00171826
0.00334964
0.00200828
0.00389624
0.00231703
0.00445195
0.00264324
0.00501335
0.0029855
0.00557694
0.00334218
0.00613904
0.00371151
0.00669582
0.00409146
0.00724327
0.00447968
0.00777716
0.0048732
0.00829421
0.00879148
0.00526789
-1.05032e-05
-0.000424973
-3.62174e-05
-0.000985708
-7.05727e-05
-0.00133279
-0.000107429
-0.00152799
-0.000141386
-0.00161084
-0.000167864
-0.0016063
-0.000183075
-0.00153121
-0.000183934
-0.00139713
-0.000167976
-0.00121214
-0.000133261
-0.000982015
-7.83009e-05
-0.000711054
-1.98725e-06
-0.000402659
9.64608e-05
-5.96996e-05
0.000217544
0.000315227
0.000361522
0.000719632
0.000528437
0.00115103
0.000718145
0.00160688
0.000930324
0.00208454
0.00116448
0.00258126
0.00141995
0.00309417
0.00169591
0.00362028
0.00199136
0.0041565
0.00230513
0.00469959
0.00263586
0.00524621
0.002982
0.00579289
0.0033418
0.00633603
0.00371321
0.00687186
0.00409381
0.00739655
0.00448052
0.00790751
0.00840294
0.00486906
-1.39999e-05
-0.000410973
-4.76217e-05
-0.000952086
-9.28707e-05
-0.00128754
-0.000142674
-0.00147819
-0.000191032
-0.00156248
-0.000232961
-0.00156437
-0.000264387
-0.00149979
-0.000282014
-0.00137951
-0.000283207
-0.00121095
-0.000265886
-0.000999337
-0.000228435
-0.000748506
-0.000169633
-0.000461461
-8.85958e-05
-0.000140737
1.52753e-05
0.000211356
0.000142327
0.00059258
0.000292689
0.00100067
0.000466295
0.00143328
0.000662901
0.00188793
0.00088209
0.00236207
0.00112328
0.00285298
0.00138572
0.00335784
0.00166849
0.00387373
0.00197049
0.00439759
0.00229043
0.00492627
0.0026268
0.00545652
0.00297784
0.00598499
0.00334146
0.00650824
0.00371514
0.00702287
0.00409563
0.00752703
0.00802005
0.00447852
-1.75862e-05
-0.000393387
-5.92087e-05
-0.000910464
-0.000115388
-0.00123136
-0.000178105
-0.00141547
-0.000240768
-0.00149982
-0.000298006
-0.00150714
-0.000345475
-0.00145231
-0.000379685
-0.0013453
-0.000397841
-0.00119279
-0.000397727
-0.000999451
-0.000377605
-0.000768629
-0.000336137
-0.000502929
-0.000272329
-0.000204545
-0.000185481
0.000124508
-7.5146e-05
0.000482245
5.88982e-05
0.000866626
0.000216677
0.0012755
0.000398033
0.00170658
0.000602635
0.00215747
0.000829983
0.00262563
0.00107941
0.00310841
0.00135009
0.00360305
0.00164098
0.00410669
0.00195085
0.0046164
0.00227822
0.00512915
0.00262132
0.00564189
0.00297798
0.00615157
0.00334555
0.00665529
0.00372059
0.00715199
0.00764211
0.00409853
-2.12112e-05
-0.000372176
-7.08193e-05
-0.000860856
-0.000137823
-0.00116436
-0.000213261
-0.00134003
-0.000289962
-0.00142312
-0.000362191
-0.00143491
-0.000425358
-0.00138915
-0.000475792
-0.00129486
-0.000510556
-0.00115803
-0.000527307
-0.000982701
-0.000524187
-0.000771749
-0.000499745
-0.000527371
-0.000452874
-0.000251415
-0.000382766
5.43988e-05
-0.000288867
0.000388346
-0.000170851
0.00074861
-2.85945e-05
0.00113324
0.000137842
0.00154014
0.000328221
0.00196709
0.000542139
0.00241171
0.000779025
0.00287152
0.00103813
0.00334395
0.00131851
0.00382632
0.00161898
0.00431592
0.0019381
0.00481003
0.00227407
0.00530592
0.00262465
0.005801
0.00298702
0.00629292
0.00335753
0.00678148
0.00726823
0.00373141
-2.48192e-05
-0.000347357
-8.22816e-05
-0.000803393
-0.000159855
-0.00108678
-0.000247649
-0.00125224
-0.000337939
-0.00133283
-0.000424652
-0.00134819
-0.000502978
-0.00131082
-0.000569089
-0.00122875
-0.00061992
-0.0011072
-0.000653012
-0.000949609
-0.000666398
-0.000758363
-0.000658516
-0.000535253
-0.000628148
-0.000281783
-0.000574372
6.22737e-07
-0.000496525
0.0003105
-0.000394172
0.000646257
-0.000267081
0.00100615
-0.000115209
0.00138827
6.13118e-05
0.00179057
0.000262181
0.00221084
0.000486932
0.00264677
0.000734919
0.00309596
0.00100529
0.00355595
0.00129694
0.00402427
0.00160848
0.00449849
0.0019381
0.00497631
0.00228347
0.00545562
0.00264162
0.00593476
0.00300866
0.00641444
0.00689731
0.00337959
-2.83507e-05
-0.000319006
-9.34145e-05
-0.00073833
-0.000181144
-0.000999053
-0.00028075
-0.00115263
-0.000383991
-0.00122959
-0.000484483
-0.0012477
-0.000577227
-0.00121808
-0.000658259
-0.00114772
-0.000724406
-0.00104105
-0.000773112
-0.000900903
-0.000802309
-0.000729166
-0.000810333
-0.00052723
-0.000795856
-0.00029626
-0.000757848
-3.73852e-05
-0.000695534
0.000248185
-0.000608364
0.000559088
-0.000495998
0.000893782
-0.000358282
0.00125055
-0.00019524
0.00162752
-7.05826e-06
0.00202266
0.00020591
0.00243381
0.000443136
0.00285874
0.000703884
0.0032952
0.000987165
0.00374098
0.00129165
0.004194
0.00161558
0.00465238
0.00195657
0.00511463
0.00231152
0.00557981
0.00267629
0.00604968
0.00652803
0.00304557
-3.17436e-05
-0.000287262
-0.000104031
-0.000666043
-0.000201342
-0.000901742
-0.000312037
-0.00104194
-0.00042739
-0.00111423
-0.00054075
-0.00113434
-0.000646952
-0.00111188
-0.000741926
-0.00105274
-0.000822414
-0.000960565
-0.000885776
-0.000837541
-0.000929862
-0.00068508
-0.000952913
-0.000504179
-0.000953504
-0.000295668
-0.000930501
-6.03884e-05
-0.000883019
0.000200703
-0.000810399
0.000486468
-0.000712191
0.000795574
-0.000588135
0.0011265
-0.000438142
0.00147753
-0.000262285
0.0018468
-6.07955e-05
0.00223232
0.000165926
0.00263201
0.000417286
0.00304384
0.000692441
0.00346583
0.000990207
0.00389623
0.00130892
0.00433367
0.00164624
0.0047773
0.00199899
0.00522707
0.00236278
0.00568588
0.00615885
0.00273196
-3.49348e-05
-0.000252328
-0.000113942
-0.000587036
-0.000220101
-0.000795583
-0.000340974
-0.000921066
-0.000467404
-0.000987803
-0.000592505
-0.00100924
-0.000710982
-0.000993399
-0.000818683
-0.000945042
-0.000912288
-0.00086696
-0.000989096
-0.000760733
-0.00104689
-0.000627289
-0.00108383
-0.000467238
-0.00109841
-0.000281087
-0.0010894
-6.93965e-05
-0.00105582
0.000167121
-0.000996908
0.000427554
-0.000912111
0.000710777
-0.000801069
0.00101546
-0.000663593
0.00134005
-0.000499648
0.00168286
-0.000309351
0.00204202
-9.29673e-05
0.00241563
0.000149069
0.0028018
0.000416107
0.00319879
0.000707181
0.00360516
0.00102085
0.00402001
0.00135496
0.00444319
0.0017064
0.00487563
0.00207064
0.00532164
0.00578797
0.00244153
-3.78621e-05
-0.000214466
-0.000122962
-0.000501936
-0.000237074
-0.000681471
-0.000367036
-0.000791104
-0.000503308
-0.000851531
-0.000638809
-0.000873739
-0.000768145
-0.000864062
-0.00088711
-0.000826077
-0.000992345
-0.000761726
-0.00108111
-0.000671969
-0.00115114
-0.000557262
-0.00120053
-0.000417839
-0.00122773
-0.000253895
-0.0012314
-6.57186e-05
-0.0012105
0.000146218
-0.00116417
0.000381225
-0.00109178
0.000638387
-0.000992884
0.00091656
-0.000867209
0.00121438
-0.000714637
0.00153028
-0.000535189
0.00186257
-0.000329012
0.00220945
-9.63792e-05
0.00256917
0.000162284
0.00294013
0.00044632
0.00332112
0.000754671
0.00371165
0.00108562
0.00411224
0.0014364
0.00452485
0.00180252
0.00495552
0.00541325
0.00217724
-4.04655e-05
-0.000174
-0.000130914
-0.000411487
-0.000251934
-0.000560451
-0.000389718
-0.00065332
-0.000534402
-0.000706847
-0.000678748
-0.000729393
-0.000817294
-0.000725517
-0.000945802
-0.000697569
-0.0010609
-0.000646628
-0.00115983
-0.000573038
-0.0012403
-0.000476791
-0.00130039
-0.000357754
-0.00133846
-0.000215821
-0.00135316
-5.10213e-05
-0.00134335
0.000136409
-0.00130813
0.000346002
-0.00124679
0.000577052
-0.00115884
0.000828609
-0.00104395
0.00109949
-0.000901958
0.00138829
-0.00073283
0.00169344
-0.00053664
0.00201326
-0.000313538
0.00234607
-6.37273e-05
0.00269032
0.000212502
0.0030449
0.000514663
0.00340949
0.000841802
0.0037851
0.00119202
0.00417463
0.00156139
0.00458615
0.00503215
0.00194248
-4.26897e-05
-0.00013131
-0.000137631
-0.000316546
-0.000264371
-0.000433711
-0.000408548
-0.000509142
-0.000560028
-0.000555367
-0.000711455
-0.000577966
-0.000857325
-0.000579646
-0.000993399
-0.000561495
-0.00111631
-0.000523719
-0.0012233
-0.000466045
-0.00131208
-0.000388009
-0.00138071
-0.000289124
-0.00142755
-0.00016899
-0.00145118
-2.73872e-05
-0.00145045
0.000135678
-0.00142441
0.00031996
-0.00137232
0.000524965
-0.00129366
0.000749948
-0.00118809
0.000993917
-0.00105544
0.00125565
-0.000895708
0.00153371
-0.000708967
0.00182652
-0.000495338
0.00213244
-0.000254889
0.00244987
1.24367e-05
0.00277757
0.000306836
0.00311509
0.000628507
0.00346343
0.000977209
0.00382593
0.00135072
0.00421264
0.00464159
0.00174129
-4.44857e-05
-8.68248e-05
-0.000142966
-0.000218066
-0.00027411
-0.000302567
-0.000423098
-0.000360155
-0.000579583
-0.000398882
-0.000736127
-0.000421421
-0.000887213
-0.000428561
-0.00102861
-0.000420094
-0.00115699
-0.000395343
-0.00126962
-0.000353421
-0.00136421
-0.000293415
-0.00143885
-0.000214488
-0.00149188
-0.00011596
-0.00152189
2.63045e-06
-0.00152772
0.000141505
-0.0015084
0.000300637
-0.00146318
0.000479751
-0.00139156
0.00067832
-0.0012932
0.000895564
-0.00116802
0.00113046
-0.00101607
0.00138176
-0.000837568
0.00164802
-0.000632743
0.00192761
-0.000401729
0.00221885
-0.000144336
0.00252018
0.000140207
0.00283055
0.000453442
0.0031502
0.000797673
0.0034817
0.0011746
0.00383571
0.00423749
0.0015787
-4.58118e-05
-4.10131e-05
-0.000146793
-0.000117084
-0.000280914
-0.000168447
-0.000432996
-0.000208072
-0.00059254
-0.000239338
-0.000752055
-0.000261906
-0.000906032
-0.000274583
-0.00105028
-0.000275848
-0.00118149
-0.000264129
-0.00129699
-0.000237925
-0.00139453
-0.000195875
-0.00147221
-0.000136803
-0.00152842
-5.97552e-05
-0.00156175
3.59665e-05
-0.00157106
0.000150807
-0.00155538
0.000284958
-0.00151399
0.000438367
-0.00144641
0.000610734
-0.00135236
0.000801518
-0.00123184
0.00100994
-0.00108505
0.00123498
-0.000912423
0.00147539
-0.000714473
0.00172966
-0.000491682
0.00199606
-0.000244165
0.00227266
2.88435e-05
0.00255754
0.000329699
0.00284934
0.000663173
0.00314823
0.00103733
0.00346155
0.00381229
0.00146253
-4.66349e-05
5.62172e-06
-0.000149013
-1.47059e-05
-0.000284591
-3.28686e-05
-0.000437939
-5.47249e-05
-0.000598456
-7.88215e-05
-0.000758632
-0.00010173
-0.000912982
-0.000120233
-0.00105736
-0.000131473
-0.00118851
-0.000132978
-0.0013038
-0.00012263
-0.00140106
-9.86229e-05
-0.00147842
-5.94435e-05
-0.0015343
-3.87112e-06
-0.00156736
6.90249e-05
-0.00157646
0.000159908
-0.00156069
0.000269185
-0.00151935
0.000397026
-0.00145198
0.000543366
-0.00135838
0.000707917
-0.00123861
0.00089017
-0.00109303
0.0010894
-0.000922273
0.00130463
-0.000727213
0.0015346
-0.000508836
0.00177769
-0.000267965
0.00203179
-4.62992e-06
0.00229421
0.000283021
0.00256169
0.000599716
0.00283153
0.000959237
0.00310203
0.00141672
0.0033548
0.0109882
0.0891935
-0.0893946
0.0105663
0.0917442
-0.0913223
0.00988613
0.0899211
-0.089241
0.00914169
0.086418
-0.0856735
0.008452
0.0826117
-0.081922
0.00785283
0.0790867
-0.0784875
0.00734137
0.0759406
-0.0754291
0.00690278
0.0731317
-0.0726931
0.00652068
0.0706174
-0.0702353
0.00618113
0.0683704
-0.0680308
0.00587184
0.0663874
-0.0660781
0.00558322
0.0646838
-0.0643952
0.00530767
0.0632746
-0.0629991
0.00504011
0.0621605
-0.0618929
0.0047765
0.0613201
-0.0610565
0.00451396
0.0607156
-0.0604531
0.00425058
0.060302
-0.0600387
0.00398434
0.0600367
-0.0597704
0.00371459
0.0598814
-0.0596117
0.00344063
0.0598078
-0.0595338
0.00316233
0.0597932
-0.0595149
0.0028801
0.0598188
-0.0595366
0.00259375
0.0598732
-0.0595869
0.00230427
0.0599413
-0.0596518
0.0020112
0.0600169
-0.0597238
0.00171518
0.0600886
-0.0597926
0.00141568
0.0601556
-0.0598561
0.0011131
0.0602153
-0.0599127
0.000808042
0.0602715
-0.0599664
0.0602965
-0.059992
0.0109086
0.0888119
0.0106054
0.0920474
0.00999701
0.0905296
0.0092878
0.0871272
0.00861287
0.0832866
0.00801872
0.0796808
0.00750845
0.0764508
0.00706925
0.0735709
0.00668537
0.0710013
0.00634293
0.0687128
0.00602974
0.0667006
0.0057363
0.0649772
0.00545552
0.0635554
0.00518229
0.0624337
0.00491284
0.0615896
0.0046442
0.0609843
0.00437426
0.060572
0.00410116
0.0603098
0.00382404
0.0601585
0.00354217
0.0600896
0.00325558
0.0600798
0.00296431
0.0601101
0.00266871
0.0601688
0.00236922
0.0602408
0.00206598
0.0603201
0.00175918
0.0603954
0.0014487
0.060466
0.00113471
0.0605293
0.000818128
0.0605881
0.0606128
0.0108045
0.0882481
0.0106256
0.0922262
0.010095
0.0910602
0.00942559
0.0877966
0.00876831
0.0839439
0.00818073
0.0802684
0.00767253
0.076959
0.00723325
0.0740102
0.00684801
0.0713865
0.00650301
0.0690578
0.00618625
0.0670173
0.00588831
0.0652752
0.00560258
0.0638412
0.00532392
0.0627123
0.0050488
0.0618647
0.0047742
0.0612589
0.00449781
0.0608484
0.00421797
0.0605896
0.00393354
0.060443
0.00364383
0.0603793
0.00334898
0.0603746
0.0030487
0.0604103
0.0027439
0.0604736
0.00243439
0.0605503
0.00212099
0.0606335
0.00180338
0.060713
0.00148192
0.0607875
0.00115649
0.0608547
0.000828325
0.0609162
0.060941
0.0106762
0.0875026
0.0106265
0.092276
0.0101795
0.0915072
0.00955445
0.0884217
0.00891786
0.0845805
0.00833854
0.0808477
0.0078333
0.0774643
0.00739452
0.074449
0.00700832
0.0717727
0.00666113
0.069405
0.00634117
0.0673373
0.00603915
0.0655772
0.00574869
0.0641316
0.0054649
0.0629961
0.00518429
0.0621453
0.00490387
0.0615393
0.00462121
0.061131
0.00433468
0.0608762
0.00404302
0.0607346
0.00374557
0.0606768
0.00344241
0.0606778
0.0031333
0.0607195
0.00281916
0.0607878
0.0024998
0.0608697
0.00217613
0.0609572
0.0018478
0.0610413
0.00151526
0.06112
0.00117844
0.0611915
0.000838611
0.0612561
0.0612812
0.0105248
0.0865775
0.010608
0.0921927
0.01025
0.0918652
0.00967379
0.0889979
0.00906107
0.0851932
0.00849179
0.081417
0.00799035
0.0779657
0.00755271
0.0748866
0.00716608
0.0721594
0.00681712
0.069754
0.00649429
0.0676601
0.00618859
0.0658829
0.00589375
0.0644265
0.00560513
0.0632848
0.00531923
0.0624312
0.00503312
0.0618254
0.00474437
0.0614198
0.00445124
0.0611693
0.00415241
0.0610335
0.0038473
0.0609819
0.00353584
0.0609892
0.003218
0.0610373
0.00289448
0.0611113
0.00256537
0.0611988
0.00223137
0.0612912
0.00189237
0.0613803
0.00154871
0.0614637
0.00120051
0.0615397
0.000848982
0.0616076
0.0616333
0.0103509
0.0854765
0.0105702
0.0919735
0.0103061
0.0921292
0.00978313
0.0895209
0.00919744
0.0857789
0.00864005
0.0819744
0.00814343
0.0784623
0.00770755
0.0753225
0.00732096
0.072546
0.0069707
0.0701042
0.00664547
0.0679854
0.0063365
0.0661919
0.00603763
0.0647253
0.00574448
0.0635779
0.00545355
0.0627221
0.00516194
0.062117
0.00486722
0.0617145
0.00456759
0.0614689
0.00426168
0.0613394
0.00394896
0.0612946
0.00362926
0.0613089
0.00330271
0.0613638
0.00296985
0.0614442
0.002631
0.0615376
0.00228671
0.0616355
0.00193703
0.06173
0.00158227
0.0618185
0.00122268
0.0618993
0.000859425
0.0619709
0.0619976
0.0101557
0.0842051
0.0105132
0.091616
0.0103475
0.0922948
0.00988203
0.0899864
0.0093265
0.0863344
0.00878293
0.082518
0.00829222
0.078953
0.00785871
0.075756
0.00747267
0.072932
0.00712162
0.0704553
0.00679448
0.0683125
0.00648269
0.0665037
0.00618022
0.0650278
0.00588286
0.0638753
0.00558716
0.0630178
0.00529025
0.0624139
0.00498968
0.0620151
0.00468367
0.0617749
0.00437077
0.0616523
0.00405049
0.0616149
0.00372262
0.0616368
0.00338738
0.0616991
0.00304524
0.0617863
0.00269663
0.0618862
0.00234211
0.06199
0.00198176
0.0620904
0.00161592
0.0621843
0.00124492
0.0622703
0.000869932
0.0623458
0.0623739
0.00994053
0.0827699
0.0104375
0.0911191
0.010374
0.0923583
0.00997011
0.0903903
0.00944787
0.0868567
0.00892008
0.0830458
0.00843636
0.0794367
0.00800591
0.0761864
0.00762093
0.073317
0.00726962
0.0708066
0.0069411
0.068641
0.00662699
0.0668178
0.00632138
0.0653334
0.00602016
0.0641765
0.00571998
0.063318
0.00541799
0.0627159
0.00511173
0.0623213
0.00479944
0.0620872
0.00447964
0.0619721
0.00415185
0.0619427
0.00381587
0.0619728
0.00347196
0.062043
0.00312059
0.0621377
0.00276224
0.0622446
0.00239751
0.0623547
0.00202651
0.0624614
0.00164961
0.0625612
0.00126721
0.0626527
0.000880487
0.0627326
0.0627625
0.00970678
0.0811787
0.0103436
0.0904822
0.0103856
0.0923164
0.0100471
0.0907288
0.00956117
0.0873426
0.00905113
0.0835558
0.00857553
0.0799123
0.00814882
0.0766131
0.00776544
0.0737004
0.00741443
0.0711576
0.00708511
0.0689703
0.00676923
0.0671337
0.00646096
0.0656417
0.00615628
0.0644812
0.00585192
0.0636223
0.00554509
0.0630227
0.00523331
0.0626331
0.00491486
0.0624057
0.00458825
0.0622987
0.00425301
0.0622779
0.00390896
0.0623169
0.00355641
0.0623955
0.00319585
0.0624982
0.00282778
0.0626126
0.00245286
0.0627296
0.00207126
0.062843
0.00168333
0.0629491
0.00128954
0.0630465
0.000891073
0.063131
0.0631632
0.00945597
0.07944
0.0102324
0.0897057
0.0103822
0.0921666
0.0101127
0.0909983
0.0096661
0.0877891
0.00917576
0.0840461
0.00870939
0.0803787
0.00828712
0.0770354
0.00790589
0.0740816
0.00755578
0.0715077
0.00722626
0.0692998
0.0069092
0.0674507
0.00659881
0.0659521
0.0062911
0.0647889
0.00598291
0.0639305
0.00567149
0.0633341
0.00535438
0.0629502
0.00502988
0.0627302
0.00469656
0.062632
0.00435393
0.0626206
0.00400187
0.0626689
0.00364071
0.0627567
0.00327099
0.062868
0.00289323
0.0629904
0.00250815
0.0631147
0.00211596
0.0632352
0.00171705
0.063348
0.00131188
0.0634517
0.000901676
0.0635412
0.0635761
0.00918974
0.0775627
0.0101047
0.0887907
0.0103642
0.0919071
0.0101669
0.0911956
0.0097624
0.0881937
0.00929368
0.0845149
0.00883765
0.0808347
0.0084205
0.0774526
0.008042
0.0744601
0.00769338
0.0718563
0.00736431
0.0696289
0.00704671
0.0677683
0.00673476
0.066264
0.00642451
0.0650991
0.00611285
0.0642422
0.00579712
0.0636499
0.00547488
0.0632725
0.00514446
0.0630606
0.00480453
0.0629719
0.00445458
0.0629705
0.00409456
0.0630289
0.00372482
0.0631264
0.00334598
0.0632468
0.00295856
0.0633778
0.00256334
0.0635099
0.0021606
0.0636379
0.00175072
0.0637579
0.00133422
0.0638682
0.00091229
0.0639632
0.0640011
0.00890979
0.0755567
0.00996165
0.0877389
0.0103319
0.0915369
0.0102097
0.0913178
0.00984989
0.0885535
0.00940462
0.0849601
0.00896001
0.0812793
0.00854866
0.0778639
0.00817344
0.0748353
0.00782693
0.0722028
0.007499
0.0699568
0.00718153
0.0680858
0.00686864
0.0665769
0.00655637
0.0654114
0.00624165
0.0645569
0.0059219
0.0639696
0.00559475
0.0635996
0.00525857
0.0633968
0.00491213
0.0633184
0.00455493
0.0633277
0.004187
0.0633969
0.00380872
0.0635047
0.00342078
0.0636347
0.00302373
0.0637749
0.00261841
0.0639153
0.00220515
0.0640512
0.00178434
0.0641787
0.00135654
0.064296
0.000922911
0.0643968
0.0644384
0.0086179
0.0734316
0.00980433
0.0865524
0.0102858
0.0910554
0.0102412
0.0913624
0.00992846
0.0888662
0.00950839
0.0853802
0.00907621
0.0817115
0.00867131
0.0782688
0.00829992
0.0752067
0.00795616
0.0725466
0.00763008
0.0702829
0.00731345
0.0684024
0.00700029
0.0668901
0.00668654
0.0657252
0.0063692
0.0648743
0.00604576
0.0642931
0.00571395
0.0639314
0.00537217