# Probe 0 (1 0 0.5)
# Probe 1 (2 0 0.5)
# Probe 2 (3 0 0.5)
# Probe 3 (1 0.5 0.5)
# Probe 4 (2 0.5 0.5)
# Probe 5 (3 0.5 0.5)
# Probe 6 (1 -0.5 0.5)
# Probe 7 (2 -0.5 0.5)
# Probe 8 (3 -0.5 0.5)
# Probe 9 (1 -1.5 0.5)
# Probe 10 (2 -1.5 0.5)
# Probe 11 (3 -1.5 0.5)
# Probe 12 (1 1.5 0.5)
# Probe 13 (2 1.5 0.5)
# Probe 14 (3 1.5 0.5)
#       Probe             0             1             2             3             4             5             6             7             8             9            10            11            12            13            14
#        Time
         0.01       8.22961       74.7192       135.297       11.1593       68.1269       126.812       6.81425       71.2873       135.673      -3.76235       69.3367        150.03        8.8253         62.81       121.047
         0.02      -17.6971      -8.35656      -5.03832      -18.3424      -11.0569      -7.61454      -12.8663       -6.5276      -3.84979     -0.778244      -1.25323      -2.87673      -14.5645       -14.596      -12.7099
         0.03       1.58462       1.75917       2.64918       3.32498       3.42659        3.4516     -0.518652       1.21383       1.81134   -0.00467023        1.2646       1.06118       5.90801        5.7833       4.42536
         0.04      -2.01394      -1.17226     0.0364837      -2.50332      -1.55873     -0.188165      -1.24609     -0.865336      0.254603        0.7531      0.746017      0.927404      -1.49496     -0.821751     -0.158169
         0.05      0.588134      0.696553       1.15963      0.720207      0.753404       1.19288      0.361818      0.580755       1.20602       1.19931       1.34047       1.41926       1.55716       1.48321        1.3152
         0.06     -0.197296      0.337483      0.804811     -0.118605      0.222112      0.743438    -0.0788419      0.375873      0.944909       1.17821       1.20245       1.26603      0.508931      0.619926      0.732999
         0.07      0.493595      0.563559      0.852672      0.635662      0.592178      0.885572      0.315419       0.50142      0.897028       0.90739      0.982723       1.02273      0.907304      0.948935      0.945024
         0.08      0.496159       0.61461      0.851606      0.532866      0.565772      0.819608      0.481644      0.617767      0.929633       1.02787       1.04487       1.07612      0.639162      0.719516      0.779454
         0.09      0.536956      0.621463      0.779495      0.619148      0.620902      0.790424      0.472484      0.580995      0.820073       0.78915      0.857687      0.907452      0.709755      0.780053      0.813464
          0.1      0.634513      0.716959      0.854285      0.654477      0.680075      0.824515      0.640104      0.723422      0.914645      0.940691      0.979288       1.01708      0.648526      0.728365          0.78
         0.11      0.660162       0.70625      0.796025      0.721298       0.70529      0.792667      0.590436      0.672295       0.81568       0.74674      0.812894      0.863189      0.685083      0.740303      0.776108
         0.12      0.690369      0.766911      0.846604      0.682488      0.729522      0.810931       0.72035      0.778675      0.889893      0.894726      0.926372      0.964975      0.639018      0.702731      0.754231
         0.13      0.646237      0.721019       0.78808      0.678668      0.714801      0.775993      0.635255      0.712542      0.808097      0.753129      0.802662      0.852215      0.669375      0.714812      0.753861
         0.14      0.699624      0.773726      0.835517       0.69634      0.746179       0.80441      0.722523      0.789417      0.867699      0.852403      0.885867      0.927623      0.660762      0.707387      0.752095
         0.15      0.669148      0.740305      0.793119      0.682728      0.727576      0.776042      0.675191       0.74197      0.810922      0.766331      0.805425      0.851403      0.667214      0.703514      0.742632
         0.16      0.700148      0.771422      0.822301       0.69497      0.746434      0.793977      0.725738       0.78761       0.84775       0.82717      0.856074      0.897017      0.666003      0.701988      0.742875
         0.17      0.678886      0.748956      0.795422      0.682071      0.732108      0.775105      0.696022      0.757783      0.812951      0.776833      0.808142      0.850979       0.66647      0.697237      0.734924
         0.18       0.69771       0.76678      0.811504      0.689941      0.742922      0.785535      0.724291      0.783015      0.833524      0.811446      0.836964      0.876532      0.666547      0.697301      0.735301
         0.19      0.690792      0.755285       0.79754      0.687006      0.735841      0.775812      0.710631       0.76761      0.815125      0.785255      0.812131      0.851817      0.666475      0.695167       0.73102
          0.2      0.697756      0.762072      0.803088      0.688556      0.739049      0.778521      0.723246      0.778187      0.822879      0.800537      0.824162       0.86184      0.664567      0.693072      0.728826
         0.21      0.694114      0.755066      0.794871      0.687168      0.734442      0.772532       0.71487      0.769083      0.812225      0.786322      0.810408      0.847767      0.663775      0.691085      0.725366
         0.22      0.696987      0.757254      0.795901      0.686771      0.734758      0.772137      0.721473      0.773314       0.81455      0.793474      0.815476      0.851291      0.661004      0.688353      0.722418
         0.23       0.69422      0.752376      0.790106      0.684944      0.731223      0.767544      0.716217      0.767337      0.807472      0.784943      0.807018      0.842341      0.659494       0.68623      0.719294
         0.24      0.695655      0.753038      0.789827      0.684602      0.730934      0.766523      0.719572      0.769094      0.807895      0.788441      0.809214      0.843366      0.657567      0.684231      0.716902
         0.25      0.693753      0.749457      0.785492      0.683049      0.728159      0.762914      0.716143      0.764896      0.802827      0.782978      0.803608      0.837178       0.65601      0.682268       0.71418
         0.26      0.694037      0.749275      0.784699      0.682757      0.727614      0.761597      0.717451      0.765278      0.802269      0.784151      0.803908      0.836488      0.654503      0.680582      0.712016
         0.27      0.693281      0.746454      0.781055      0.681645      0.725216      0.758522      0.715389      0.762101      0.798299       0.78057       0.80004      0.832074      0.652857      0.678621      0.709494
         0.28      0.692699      0.745459      0.779446      0.680479      0.723999      0.756651      0.715596      0.761462      0.796802      0.780519      0.799311       0.83054      0.651175       0.67685      0.707301
         0.29      0.691683      0.743042      0.776312      0.679377      0.721872      0.753918      0.713779      0.758801      0.793479      0.777714      0.796204      0.826905      0.649562      0.674965      0.704913
          0.3      0.691076      0.741768      0.774279      0.678227      0.720434      0.751852      0.713534      0.757723      0.791573        0.7771      0.795047      0.825074      0.647893      0.673177      0.702736
         0.31      0.690019      0.739903      0.772039      0.677273      0.718858      0.749688      0.712085      0.755742      0.789063       0.77499      0.792579      0.822025      0.646699       0.67168      0.700691
         0.32      0.689022      0.738171      0.769798      0.675883      0.717124      0.747429      0.711162      0.754118      0.786819      0.773598      0.790733      0.819595      0.644809       0.66966      0.698343
         0.33      0.688144      0.736156      0.766996      0.674764      0.715156      0.744927      0.709938      0.752005      0.784045      0.771644      0.788456      0.816879      0.643083      0.667776      0.696104
         0.34      0.687174      0.734676      0.764938      0.673619      0.713667      0.742902       0.70903      0.750561      0.782001      0.770469      0.786898      0.814806      0.641623      0.666175      0.694146
         0.35      0.686167      0.733107      0.762777       0.67265      0.712183      0.740796      0.707966      0.748952      0.779773      0.768884      0.784999      0.812441      0.640227      0.664637      0.692234
         0.36      0.685332      0.731686      0.760882      0.671631      0.710802      0.738947      0.707063      0.747545      0.777846      0.767672      0.783427      0.810399      0.638892      0.663166      0.690417
         0.37      0.684555      0.730175      0.759151      0.670548      0.709416      0.737292      0.706007       0.74602      0.775987      0.766337      0.781705      0.808194      0.637745      0.661827       0.68867
         0.38      0.683417      0.728421      0.756723      0.669441      0.707698      0.734968      0.704871      0.744254      0.773618      0.764689      0.779777      0.805891      0.636039      0.660006      0.686586
         0.39       0.68247      0.726973      0.754822      0.668341      0.706266      0.733116      0.703837      0.742764       0.77166      0.763297      0.778101      0.803809      0.634655       0.65851      0.684769
          0.4      0.681617      0.725584       0.75328      0.667213      0.704989       0.73158      0.702829      0.741382      0.769994      0.762129      0.776544      0.801801      0.633545      0.657216      0.683109
         0.41      0.680561      0.723711      0.750931      0.665997      0.703172      0.729423      0.701562       0.73947      0.767678      0.760398      0.774561      0.799498      0.631862      0.655445      0.681103
         0.42       0.68144      0.723774      0.750344      0.666823      0.703259      0.728845      0.702242       0.73959      0.767145      0.760303       0.77449      0.798931      0.631331      0.655124      0.680377
         0.43      0.680002      0.721711      0.748033       0.66494      0.701265      0.726599      0.700677      0.737456      0.764729      0.758298      0.772113       0.79623      0.629499      0.653216      0.678319
         0.44       0.67904      0.720451      0.746299      0.664147      0.700043      0.724926      0.699671      0.736189      0.763043      0.757136      0.770752      0.794572      0.628264      0.651898      0.676739
         0.45      0.678105      0.719098      0.744625      0.662923        0.6987      0.723316      0.698641      0.734797      0.761324      0.755928      0.769258      0.792724      0.626969      0.650506      0.675091
         0.46      0.676881      0.717472      0.742655      0.661735      0.697158      0.721412      0.697325      0.733142      0.759325      0.754369      0.767472      0.790661      0.625552      0.648993      0.673345
         0.47      0.675991      0.716185      0.741023      0.660662      0.695871      0.719812      0.696392      0.731835      0.757683      0.753199      0.766054      0.788937      0.624266      0.647624      0.671748
         0.48      0.674905      0.714744      0.739275      0.659512      0.694498      0.718141      0.695205      0.730354      0.755898      0.751845      0.764459      0.787058      0.622988      0.646252       0.67015
         0.49      0.673932      0.713477       0.73778      0.658458      0.693279      0.716678      0.694207      0.729104      0.754394      0.750841      0.763173      0.785451      0.621877      0.645014      0.668664
          0.5      0.672697       0.71183      0.735806      0.657161      0.691702      0.714782      0.692856      0.727407       0.75238      0.749168       0.76131      0.783351      0.620395      0.643465      0.666916
         0.51      0.671675      0.710624      0.734374      0.656044      0.690498      0.713364      0.691879        0.7262       0.75092      0.748172      0.760053      0.781801      0.619199      0.642204       0.66546
         0.52      0.670821      0.709223      0.732758      0.655082      0.689217      0.711805      0.690877      0.724775      0.749245      0.746793      0.758446      0.779948      0.618072      0.640971      0.664018
         0.53      0.669639      0.707844      0.731004      0.653878      0.687837      0.710095      0.689716       0.72339       0.74752      0.745461      0.756949       0.77823      0.616632      0.639495      0.662383
         0.54      0.670955      0.708233      0.730866      0.654038       0.68782      0.709737      0.691547       0.72416      0.747647      0.747075       0.75794      0.778608       0.61549      0.638766      0.661641
         0.55      0.666201      0.704235      0.726937      0.650901      0.684549      0.706321      0.685882      0.719443      0.743177      0.741285      0.752524      0.773473       0.61384      0.636554      0.659062
         0.56      0.669646      0.706182      0.728256      0.652294      0.685732      0.707081       0.69011      0.722144      0.745064      0.745376      0.755808      0.775969      0.613161      0.636283      0.658791
         0.57      0.666823      0.703378      0.725427      0.650147      0.683433      0.704687      0.686787      0.718934      0.741874      0.741773      0.752139      0.772231      0.611803      0.634772      0.657035
         0.58      0.666556       0.70277      0.724417      0.649525      0.682597      0.703498      0.686865      0.718535      0.741067      0.741745      0.751837      0.771653       0.61051      0.633498      0.655642
         0.59      0.664976      0.701053      0.722513       0.64811       0.68107      0.701754      0.685053      0.716658      0.739007      0.739703      0.749699      0.769358      0.609227      0.632175      0.654165
          0.6      0.664394      0.700188      0.721395      0.647342      0.680142      0.700586      0.684589      0.715865      0.737947       0.73914      0.748908      0.768333        0.6082      0.631074      0.652896
         0.61      0.663514      0.699016      0.720212      0.646196      0.679108      0.699405      0.683565      0.714629      0.736585      0.737835      0.747364      0.766535      0.607281      0.630027      0.651615
         0.62      0.662873      0.698067      0.718882      0.645439      0.678108      0.698086      0.683051      0.713652      0.735238      0.736715      0.746033      0.764988      0.606024      0.628731      0.650175
         0.63      0.661877      0.696616      0.717196      0.644287      0.676744      0.696478      0.681832      0.712165      0.733501      0.735148      0.744364      0.763206      0.604712       0.62739       0.64873
         0.64      0.660395      0.695262      0.715474      0.643087      0.675376      0.694846      0.680391      0.710802      0.731847      0.733892      0.743056      0.761772      0.603369      0.626062       0.64731
         0.65      0.659307      0.694125      0.714171      0.642071      0.674287      0.693578      0.679344       0.70967      0.730541      0.732952      0.741971      0.760488      0.602404      0.625033      0.646111
         0.66      0.658275      0.692843      0.712721      0.640916      0.673058      0.692168      0.678111      0.708337      0.729056        0.7317      0.740583      0.758919      0.601187       0.62377      0.644704
         0.67       0.65752      0.692006      0.711916      0.639907      0.672257      0.691279      0.677557      0.707556      0.728199      0.731123      0.739712      0.757789      0.600413      0.622909      0.643653
         0.68      0.656807      0.690989      0.710464      0.639217      0.671213      0.689903      0.676857      0.706417      0.726668      0.729679      0.738087      0.755975       0.59918      0.621645      0.642236
         0.69      0.655933      0.689996      0.709077      0.638327       0.67017      0.688551      0.676047       0.70538      0.725255      0.728509      0.736776      0.754532      0.597993      0.620422      0.640905
          0.7      0.654386      0.688232      0.707243      0.636855      0.668553      0.686822      0.674279      0.703654      0.723466      0.727024      0.735266      0.752965      0.596636      0.619067      0.639516
         0.71      0.653332      0.687147      0.706046      0.635811      0.667499      0.685643       0.67326      0.702603      0.722303      0.726226      0.734365      0.751881      0.595664      0.618076      0.638377
         0.72      0.652258      0.685862       0.70469      0.634648      0.666278      0.684349      0.672158      0.701315      0.720946      0.725162      0.733135      0.750481      0.594552      0.616964      0.637147
         0.73      0.651413      0.684764      0.703455      0.633693      0.665201      0.683148       0.67126      0.700197      0.719711        0.7242      0.732017      0.749202      0.593522       0.61591      0.635966
         0.74       0.65031      0.683623      0.702117      0.632674      0.664097      0.681841      0.670135      0.699015      0.718356      0.723055      0.730773      0.747812      0.592481      0.614801      0.634714
         0.75       0.64947      0.682508      0.701051      0.631414      0.663018      0.680738      0.669222      0.697918      0.717218      0.722081      0.729598       0.74645      0.591361      0.613689      0.633492
         0.76      0.648913      0.681847      0.699981       0.63093      0.662306      0.679687      0.668776      0.697157      0.716089       0.72104      0.728397      0.745069      0.590401      0.612675      0.632335
         0.77      0.647515       0.68032      0.698291      0.629657      0.660868      0.678104      0.667269      0.695636      0.714442      0.719666      0.726981      0.743619      0.589122      0.611404       0.63104
         0.78      0.646348      0.679211      0.697071      0.628496      0.659799      0.676891      0.665991      0.694513      0.713211      0.718633      0.725904      0.742404      0.588052       0.61033      0.629851
         0.79      0.645404       0.67815       0.69591      0.627546      0.658779      0.675746      0.664979      0.693433      0.712041      0.717687      0.724853      0.741206      0.587054      0.609293      0.628708
          0.8      0.644333      0.677109      0.694726      0.626566      0.657768      0.674602      0.664059      0.692408       0.71089      0.716878      0.723885      0.740087      0.586117      0.608339      0.627638
         0.81      0.643337      0.675896      0.693395      0.625435      0.656609      0.673302      0.662853      0.691134      0.709518      0.715624       0.72254      0.738619      0.584953      0.607161      0.626358
         0.82      0.642295      0.674878      0.692275      0.624447      0.655599      0.672201      0.662018      0.690162       0.70844      0.714879       0.72163      0.737567      0.583973      0.606197       0.62531
         0.83      0.641392      0.673778      0.691045      0.623482      0.654539      0.671018      0.661076       0.68903      0.707187      0.713802      0.720438      0.736253      0.582966      0.605184      0.624197
         0.84      0.640427      0.672745      0.689862      0.622465      0.653522      0.669854       0.66004      0.687956      0.705979      0.712742      0.719301      0.735001      0.581928      0.604132      0.623045
         0.85      0.639487      0.671661      0.688682      0.621456       0.65248      0.668692      0.658952      0.686833      0.704764      0.711643      0.718126      0.733707      0.580866      0.603034       0.62186
         0.86      0.638575      0.670663      0.687566      0.620526      0.651505      0.667587      0.658023      0.685825      0.703644      0.710725      0.717099      0.732556       0.57987      0.602018      0.620758
         0.87      0.637417      0.669589      0.686355      0.619429      0.650456      0.666413      0.657001      0.684758       0.70245      0.709784      0.716028      0.731368      0.578805      0.601006      0.619681
         0.88      0.636596      0.668606      0.685238      0.618522      0.649502      0.665324      0.656117      0.683745      0.701311      0.708812      0.714959      0.730188      0.577857      0.600044      0.618617
         0.89      0.635624      0.667595      0.684117      0.617581      0.648515      0.664233      0.655229      0.682744      0.700192      0.707925      0.713951      0.729057      0.576917      0.599082      0.617558
          0.9      0.634687      0.666496      0.682906      0.616524       0.64746      0.663041      0.654117      0.681595      0.698943      0.706757      0.712716      0.727719      0.575827      0.597979       0.61637
         0.91      0.633717       0.66552      0.681806      0.615549       0.64649      0.661952      0.653205       0.68062      0.697849      0.705885      0.711735      0.726625      0.574815      0.596979      0.615301
         0.92       0.63284      0.664502      0.680697      0.614635      0.645516      0.660871      0.652238      0.679568       0.69671      0.704851      0.710626      0.725413      0.573841      0.595988      0.614231
         0.93      0.631959      0.663551      0.679641      0.613726      0.644585      0.659828      0.651351      0.678608      0.695649      0.703968      0.709645      0.724323      0.572894      0.595033      0.613199
         0.94      0.631013      0.662549      0.678532      0.612764      0.643615      0.658745      0.650392      0.677588      0.694528      0.703009      0.708592      0.723167      0.571916      0.594057      0.612149
         0.95      0.629899      0.661533      0.677395      0.611699       0.64261      0.657638      0.649437      0.676588      0.693411      0.702134      0.707597      0.722068      0.570889      0.593089      0.611126
         0.96      0.629075      0.660573      0.676318      0.610794      0.641678      0.656591      0.648559      0.675599       0.69231      0.701169      0.706551      0.720926      0.569967      0.592162      0.610109
         0.97      0.628128      0.659603      0.675254      0.609869      0.640726      0.655552      0.647704      0.674645       0.69125      0.700318      0.705591      0.719858      0.569047       0.59123      0.609094
         0.98      0.627146      0.658516      0.674062      0.608783      0.639671      0.654383      0.646599      0.673512      0.690025      0.699171      0.704387      0.718567      0.567955      0.590153      0.607954
         0.99      0.626358      0.657628      0.673092      0.607954      0.638804      0.653415       0.64576      0.672613      0.689042      0.698316      0.703459       0.71754      0.567045      0.589225      0.606957
            1       0.62526      0.656625      0.671981      0.606918      0.637817      0.652336      0.644801      0.671621      0.687943      0.697433      0.702465       0.71645      0.566043      0.588276      0.605961
         1.01      0.624475      0.655723       0.67097      0.606055      0.636939      0.651349      0.643969      0.670694      0.686913      0.696534      0.701489      0.715385      0.565159      0.587391      0.604993
         1.02      0.623537      0.654774      0.669934      0.605146       0.63601      0.650339      0.643118      0.669757       0.68588      0.695697      0.700547      0.714343      0.564259      0.586484      0.604011
         1.03      0.622564       0.65371      0.668776      0.604072      0.634976      0.649201      0.642027      0.668651       0.68469       0.69458      0.699379      0.713094       0.56318      0.585427      0.602898
         1.04      0.621782      0.652842      0.667833      0.603253      0.634129      0.648259      0.641196      0.667772      0.683735      0.693745      0.698477        0.7121      0.562285      0.584519      0.601929
         1.05      0.620703      0.651861      0.666752      0.602236      0.633163       0.64721      0.640253      0.666801      0.682668      0.692884      0.697509      0.711044        0.5613      0.583591       0.60096
         1.06      0.619929      0.650984      0.665776       0.60139      0.632311      0.646256      0.639437      0.665901      0.681672      0.692012      0.696566      0.710018      0.560438      0.582733      0.600025
         1.07      0.619007      0.650058      0.664772      0.600494      0.631403      0.645275        0.6386      0.664986      0.680672      0.691195       0.69565      0.709009      0.559554      0.581847       0.59907
         1.08       0.61804      0.649014       0.66364      0.599433      0.630388      0.644164       0.63752      0.663901       0.67951      0.690099      0.694509      0.707792      0.558491       0.58081      0.597984
         1.09      0.617267      0.648168      0.662725      0.598624      0.629561      0.643248        0.6367      0.663043      0.678584      0.689284      0.693632      0.706831      0.557613      0.579924      0.597042
          1.1      0.616204      0.647204      0.661672      0.597624      0.628612      0.642225      0.635772      0.662091      0.677543      0.688441      0.692687      0.705803      0.556642      0.579013      0.596097
         1.11       0.61544       0.64635      0.660725      0.596789      0.627781      0.641301      0.634969      0.661214      0.676579      0.687591      0.691772      0.704812      0.555797      0.578176       0.59519
         1.12      0.614531      0.645443      0.659749      0.595908      0.626891      0.640345      0.634146      0.660318      0.675607      0.686793      0.690879      0.703831      0.554931      0.577312       0.59426
         1.13      0.613572      0.644416      0.658642      0.594858      0.625893      0.639258      0.633075      0.659253      0.674469      0.685713      0.689761      0.702644      0.553883      0.576294      0.593199
         1.14      0.612644      0.643531      0.657694      0.593964      0.625009       0.63832      0.632281      0.658395      0.673541      0.684973      0.688926      0.701728      0.552969      0.575422      0.592296
         1.15      0.611868      0.642679      0.656751      0.593126      0.624188      0.637405      0.631422      0.657503      0.672568      0.684073      0.687979      0.700713      0.552137      0.574595        0.5914
         1.16      0.611001      0.641824       0.65583      0.592284      0.623343      0.636496       0.63065      0.656666      0.671656      0.683343      0.687154      0.699801      0.551299      0.573758      0.590503
         1.17      0.610026      0.640794      0.654725      0.591228      0.622345      0.635415      0.629557      0.655594      0.670518      0.682252      0.686029      0.698612       0.55026      0.572748      0.589454
         1.18      0.609282      0.640001      0.653863      0.590451      0.621571      0.634549      0.628775      0.654793      0.669653      0.681498      0.685217      0.697724      0.549391      0.571897      0.588559
         1.19      0.608238      0.639055      0.652853      0.589486       0.62064      0.633569      0.627889      0.653864      0.668657      0.680688      0.684309      0.696741      0.548441      0.571017      0.587657
          1.2      0.607507      0.638241      0.651952      0.588676      0.619847      0.632689      0.627095       0.65302      0.667735      0.679854      0.683426      0.695793      0.547618      0.570211      0.586787
         1.21       0.60663      0.637378      0.651032      0.587827      0.618999      0.631784      0.626299      0.652169       0.66682      0.679099      0.682584      0.694872      0.546776      0.569379      0.585902
         1.22      0.605697      0.636395      0.649972      0.586818      0.618045      0.630744      0.625255      0.651146      0.665731       0.67806      0.681514      0.693741      0.545735      0.568392      0.584884
         1.23      0.604782      0.635529       0.64906      0.585932       0.61718      0.629841      0.624474      0.650308      0.664839      0.677339      0.680706      0.692862      0.544846      0.567545      0.584014
         1.24      0.604022       0.63471      0.648162      0.585119      0.616392      0.628968      0.623633      0.649452      0.663911      0.676474      0.679801      0.691898      0.544038      0.566751      0.583161
         1.25       0.60318      0.633888      0.647286      0.584301      0.615578        0.6281      0.622886      0.648647      0.663043      0.675773      0.679012      0.691031       0.54322      0.565943      0.582302
         1.26       0.60222      0.632889      0.646218      0.583271      0.614609      0.627058      0.621811      0.647606      0.661945      0.674712      0.677926       0.68989      0.542201      0.564964      0.581293
         1.27      0.601338      0.632053      0.645338      0.582416      0.613774      0.626183      0.621064      0.646802      0.661088      0.674028      0.677157       0.68905      0.541315      0.564132      0.580442
         1.28      0.600576      0.631243      0.644452      0.581608      0.612995      0.625323      0.620223      0.645951      0.660172      0.673168      0.676261      0.688099      0.540517       0.56335      0.579605
         1.29      0.599754      0.630439      0.643598      0.580805      0.612198      0.624475      0.619492      0.645165      0.659327      0.672486      0.675493      0.687256      0.539709      0.562556      0.578763
          1.3      0.598793      0.629448      0.642542      0.579782      0.611238      0.623445      0.618419      0.644133      0.658241      0.671434      0.674419       0.68613      0.538697      0.561587      0.577769
         1.31      0.597924      0.628625       0.64168      0.578937      0.610414      0.622587      0.617685      0.643342      0.657402      0.670764      0.673665       0.68531      0.537819      0.560766      0.576931