# Probe 0 (1 0 0.5)
# Probe 1 (2 0 0.5)
# Probe 2 (3 0 0.5)
# Probe 3 (1 0.5 0.5)
# Probe 4 (2 0.5 0.5)
# Probe 5 (3 0.5 0.5)
# Probe 6 (1 -0.5 0.5)
# Probe 7 (2 -0.5 0.5)
# Probe 8 (3 -0.5 0.5)
# Probe 9 (1 -1.5 0.5)
# Probe 10 (2 -1.5 0.5)
# Probe 11 (3 -1.5 0.5)
# Probe 12 (1 1.5 0.5)
# Probe 13 (2 1.5 0.5)
# Probe 14 (3 1.5 0.5)
#       Probe             0             1             2             3             4             5             6             7             8             9            10            11            12            13            14
#        Time
         0.01             (0.544423 -0.281257 -2.34465e-19)             (0.725164 -0.3821 0.374231)             (0.775262 -0.328265 0.28074)             (0.718829 -0.415508 0)             (0.770508 -0.424205 0.324335)             (0.802654 -0.366776 0.241818)             (0.569372 -0.101787 0)             (0.708315 -0.298559 0.370488)             (0.770497 -0.270624 0.272622)             (0.506557 -0.120886 -7.95529e-18)             (0.568194 -0.240095 0.747186)             (0.669108 -0.234936 0.549653)             (0.674182 -0.289031 2.94424e-18)             (0.744392 -0.399985 0.50123)             (0.779943 -0.350687 0.363909)
         0.02             (0.399201 -0.41129 5.09746e-20)             (0.604499 -0.222255 -0.114063)             (0.692071 -0.189889 -0.113791)             (0.54497 -0.491737 0)             (0.643712 -0.283006 -0.102018)             (0.718622 -0.220563 -0.105529)             (0.413328 -0.211296 0)             (0.608452 -0.167463 -0.114502)             (0.680479 -0.153567 -0.112353)             (0.491155 -0.157106 2.08224e-18)             (0.631841 -0.135431 -0.229508)             (0.65779 -0.12802 -0.243402)             (0.600688 -0.39597 -6.69636e-19)             (0.720971 -0.304074 -0.177304)             (0.77348 -0.234587 -0.175827)
         0.03             (0.426411 -0.420963 -5.48581e-20)             (0.61481 -0.371073 0.110425)             (0.668112 -0.318846 0.0957301)             (0.608508 -0.510922 0)             (0.657077 -0.408362 0.0973108)             (0.694852 -0.339913 0.0849996)             (0.423079 -0.225225 0)             (0.599777 -0.307208 0.110791)             (0.652489 -0.286836 0.094906)             (0.54747 -0.176495 -1.96536e-18)             (0.612186 -0.243616 0.242741)             (0.612464 -0.243956 0.208536)             (0.703529 -0.426116 6.57691e-19)             (0.74459 -0.413685 0.169257)             (0.744707 -0.348415 0.142617)
         0.04             (0.413404 -0.387211 6.54609e-20)             (0.592178 -0.200112 -0.136135)             (0.649005 -0.158873 -0.137394)             (0.57251 -0.462024 0)             (0.626251 -0.240944 -0.12308)             (0.676109 -0.174997 -0.12418)             (0.425836 -0.189344 0)             (0.581541 -0.156545 -0.13981)             (0.633426 -0.136246 -0.137228)             (0.480041 -0.145769 2.28634e-18)             (0.581747 -0.118131 -0.308329)             (0.613171 -0.107945 -0.30078)             (0.644974 -0.375116 -8.01254e-19)             (0.70284 -0.264229 -0.210619)             (0.737568 -0.191691 -0.208495)
         0.05             (0.392588 -0.381705 -3.74357e-20)             (0.563524 -0.309339 0.0709326)             (0.59665 -0.250655 0.0487056)             (0.574404 -0.466288 0)             (0.606439 -0.33731 0.0619486)             (0.625394 -0.265397 0.0410992)             (0.393292 -0.19064 0)             (0.541411 -0.254119 0.070968)             (0.577868 -0.222267 0.0460371)             (0.513677 -0.150839 -1.38324e-18)             (0.52848 -0.199874 0.153326)             (0.526501 -0.189926 0.0920297)             (0.692867 -0.379484 4.57781e-19)             (0.691465 -0.344231 0.106972)             (0.669844 -0.267753 0.0556373)
         0.06             (0.380265 -0.362815 4.65516e-20)             (0.54052 -0.197288 -0.0982393)             (0.572576 -0.150994 -0.100041)             (0.546999 -0.433367 0)             (0.57788 -0.225017 -0.0890796)             (0.597611 -0.157823 -0.092096)             (0.393991 -0.175349 0)             (0.524598 -0.161847 -0.0996691)             (0.554571 -0.135145 -0.0985456)             (0.468446 -0.138083 1.63333e-18)             (0.525322 -0.127051 -0.21347)             (0.530306 -0.111388 -0.207994)             (0.641745 -0.343951 -5.86679e-19)             (0.662908 -0.238362 -0.153626)             (0.655894 -0.159785 -0.158727)
         0.07             (0.363091 -0.347889 -1.87142e-20)             (0.516508 -0.252754 0.0333068)             (0.534614 -0.194744 0.0181559)             (0.541415 -0.42523 0)             (0.55957 -0.272197 0.0291714)             (0.561142 -0.20028 0.0151664)             (0.368795 -0.165713 0)             (0.49335 -0.209851 0.0324315)             (0.514474 -0.175758 0.0153036)             (0.479392 -0.135723 -6.97613e-19)             (0.476983 -0.167823 0.0663601)             (0.468344 -0.153634 0.024458)             (0.667783 -0.336171 2.33529e-19)             (0.649347 -0.275447 0.0515856)             (0.609988 -0.193723 0.0172589)
         0.08             (0.349899 -0.329143 3.36194e-20)             (0.494356 -0.180271 -0.0723379)             (0.510964 -0.127962 -0.076645)             (0.519781 -0.396892 0)             (0.5344 -0.198207 -0.0661339)             (0.536089 -0.128663 -0.0709274)             (0.3633 -0.151399 0)             (0.474134 -0.1499 -0.073309)             (0.490192 -0.116655 -0.0760973)             (0.446569 -0.125283 1.15725e-18)             (0.46499 -0.122325 -0.156483)             (0.456428 -0.103039 -0.162678)             (0.630439 -0.305152 -4.33587e-19)             (0.623423 -0.202034 -0.115358)             (0.590449 -0.119383 -0.125933)
         0.09             (0.334646 -0.31317 -6.9249e-21)             (0.473842 -0.206978 0.0105851)             (0.482858 -0.149487 0.000506976)             (0.509744 -0.384802 0)             (0.51647 -0.22013 0.00874933)             (0.507799 -0.14994 -0.00074974)             (0.343634 -0.140286 0)             (0.449577 -0.172505 0.00981746)             (0.461666 -0.13641 -0.000856148)             (0.448249 -0.119803 -2.75081e-19)             (0.430937 -0.139591 0.018039)             (0.421062 -0.121383 -0.0050537)             (0.643084 -0.291961 8.63097e-20)             (0.606615 -0.217582 0.0146681)             (0.556258 -0.135637 -0.00985401)
          0.1             (0.321909 -0.289487 2.82309e-20)             (0.453696 -0.148599 -0.0607749)             (0.46196 -0.0946114 -0.0654043)             (0.490475 -0.354764 0)             (0.494184 -0.160505 -0.0554617)             (0.486371 -0.0922373 -0.0602341)             (0.336074 -0.121513 0)             (0.43087 -0.122545 -0.0618023)             (0.440282 -0.0859288 -0.0656102)             (0.419746 -0.105813 9.53794e-19)             (0.411901 -0.100797 -0.133599)             (0.403992 -0.0776719 -0.142808)             (0.614699 -0.260693 -3.60193e-19)             (0.581915 -0.157553 -0.0968334)             (0.5379 -0.0760289 -0.107087)
         0.11             (0.30834 -0.277063 -5.86782e-21)             (0.437883 -0.170601 0.00906069)             (0.442455 -0.112677 0.00264592)             (0.481239 -0.345918 0)             (0.480703 -0.179155 0.00776804)             (0.466928 -0.109921 0.00185723)             (0.319872 -0.113327 0)             (0.412338 -0.141185 0.00851365)             (0.420355 -0.102989 0.00168973)             (0.422041 -0.101423 -2.1349e-19)             (0.390694 -0.11422 0.0159763)             (0.382708 -0.0930834 0.00216605)             (0.625021 -0.249987 7.07161e-20)             (0.570699 -0.171969 0.0130511)             (0.517937 -0.0913394 -0.00129001)
         0.12             (0.298911 -0.254428 2.56646e-20)             (0.422901 -0.11833 -0.0545597)             (0.428403 -0.0635829 -0.0575407)             (0.4651 -0.318396 0)             (0.463685 -0.126432 -0.0496542)             (0.452951 -0.0586344 -0.0527039)             (0.31438 -0.0945326 0)             (0.398805 -0.0956419 -0.055435)             (0.406043 -0.0574305 -0.0576623)             (0.395916 -0.0871211 8.62964e-19)             (0.375956 -0.0779584 -0.119835)             (0.371254 -0.0531865 -0.12535)             (0.59887 -0.222087 -3.26375e-19)             (0.550089 -0.119467 -0.0870611)             (0.507245 -0.0388202 -0.0919898)
         0.13             (0.286608 -0.24284 -4.51479e-21)             (0.409788 -0.138063 0.00730402)             (0.412169 -0.0800761 0.00195625)             (0.456602 -0.310598 0)             (0.452421 -0.143772 0.00616681)             (0.436796 -0.0750318 0.00108221)             (0.300287 -0.0864469 0)             (0.383718 -0.111959 0.00706901)             (0.389643 -0.0731073 0.00124325)             (0.398006 -0.0821549 -1.78611e-19)             (0.360144 -0.0897511 0.01411)             (0.353379 -0.0676392 0.00230508)             (0.606353 -0.212373 5.42083e-20)             (0.540538 -0.132896 0.00969888)             (0.490525 -0.0524027 -0.00207216)
         0.14             (0.278084 -0.224548 2.16674e-20)             (0.397694 -0.0945642 -0.0459584)             (0.400963 -0.0395196 -0.04808)             (0.442922 -0.288515 0)             (0.438603 -0.100202 -0.0417598)             (0.425522 -0.0324057 -0.0440263)             (0.295793 -0.0709467 0)             (0.373266 -0.0740749 -0.0465905)             (0.378284 -0.0358354 -0.0481811)             (0.376199 -0.0703516 7.29616e-19)             (0.349936 -0.0598387 -0.100323)             (0.345097 -0.0354429 -0.10426)             (0.584016 -0.189499 -2.76459e-19)             (0.524434 -0.0894982 -0.0731123)             (0.482646 -0.00852501 -0.0764901)
         0.15             (0.268126 -0.21479 -3.82181e-21)             (0.387646 -0.111019 0.00629555)             (0.388377 -0.0529266 0.00216621)             (0.436151 -0.282284 0)             (0.430288 -0.114763 0.00547651)             (0.413285 -0.0454416 0.00163551)             (0.284327 -0.0638482 0)             (0.361612 -0.0875714 0.00609851)             (0.365298 -0.0486393 0.00142409)             (0.377845 -0.0659005 -1.4705e-19)             (0.338173 -0.0695392 0.0122418)             (0.329924 -0.0472714 0.00197517)             (0.590512 -0.181904 4.58328e-20)             (0.51868 -0.101205 0.00925071)             (0.470806 -0.0196161 0.000789684)
         0.16             (0.261216 -0.197104 1.98504e-20)             (0.377631 -0.0711512 -0.0418028)             (0.379115 -0.0151509 -0.0434684)             (0.424223 -0.261745 0)             (0.418873 -0.0749599 -0.0378601)             (0.40427 -0.00598471 -0.0396355)             (0.280616 -0.04882 0)             (0.352841 -0.0523933 -0.0423818)             (0.355633 -0.0135165 -0.0436768)             (0.357923 -0.0542071 6.66532e-19)             (0.328964 -0.0414942 -0.0914619)             (0.321972 -0.0166162 -0.0953946)             (0.570046 -0.161187 -2.51812e-19)             (0.50521 -0.0618645 -0.0660355)             (0.464854 0.0207742 -0.0683126)
         0.17             (0.252167 -0.18806 -3.39926e-21)             (0.368672 -0.0865407 0.00583487)             (0.367596 -0.0278062 0.00212377)             (0.418121 -0.256206 0)             (0.411458 -0.0887508 0.00504829)             (0.393049 -0.0183254 0.0014975)             (0.270332 -0.0422178 0)             (0.342508 -0.0650677 0.00579276)             (0.3438 -0.025597 0.00155157)             (0.359829 -0.0500177 -1.37506e-19)             (0.318866 -0.0506999 0.012028)             (0.308158 -0.0275599 0.00254667)             (0.57513 -0.154569 4.06637e-20)             (0.500368 -0.072909 0.0083664)             (0.453216 0.01056 1.40385e-05)
         0.18             (0.245879 -0.173995 1.68404e-20)             (0.360326 -0.0530008 -0.0354477)             (0.359994 0.00359173 -0.0366297)             (0.407873 -0.239834 0)             (0.401881 -0.055413 -0.0320872)             (0.385411 0.0145963 -0.0334691)             (0.267429 -0.0300022 0)             (0.335484 -0.0356129 -0.0358802)             (0.336056 0.00333116 -0.0367379)             (0.343138 -0.0406814 5.66678e-19)             (0.312306 -0.0275216 -0.0771809)             (0.302759 -0.00256081 -0.0797095)             (0.557475 -0.137733 -2.14483e-19)             (0.489682 -0.0399213 -0.0558648)             (0.448409 0.0445363 -0.0577202)
         0.19             (0.238356 -0.166279 -2.91326e-21)             (0.353117 -0.065844 0.00496302)             (0.350764 -0.00667494 0.00192281)             (0.402863 -0.235381 0)             (0.396073 -0.0669606 0.00437273)             (0.376497 0.00443478 0.00152018)             (0.258974 -0.0242196 0)             (0.327034 -0.0460968 0.00489304)             (0.326216 -0.00664938 0.00127911)             (0.344731 -0.0371103 -1.14878e-19)             (0.303885 -0.035219 0.0101144)             (0.290735 -0.011794 0.00181838)             (0.561928 -0.132507 3.46406e-20)             (0.486531 -0.0493421 0.00759636)             (0.439422 0.0361157 0.00101003)
          0.2             (0.233078 -0.152383 1.55938e-20)             (0.345847 -0.0346129 -0.0326668)             (0.344053 0.0228869 -0.0336827)             (0.393688 -0.219764 0)             (0.387736 -0.0359693 -0.0294974)             (0.37007 0.0353195 -0.0306337)             (0.256469 -0.0123025 0)             (0.320764 -0.0184263 -0.0330961)             (0.319219 0.0210098 -0.0338474)             (0.329274 -0.0278784 5.23562e-19)             (0.297342 -0.0131416 -0.0714383)             (0.28523 0.0124292 -0.0741106)             (0.545779 -0.11693 -1.97306e-19)             (0.477106 -0.018823 -0.0511723)             (0.435391 0.0676969 -0.0526444)
         0.21             (0.226144 -0.145355 -2.8697e-21)             (0.339295 -0.0471843 0.005091)             (0.335584 0.012633 0.0023703)             (0.38922 -0.215973 0)             (0.382477 -0.047379 0.00446533)             (0.361732 0.0250215 0.00182392)             (0.248741 -0.00715334 0)             (0.313041 -0.0287485 0.00510952)             (0.310531 0.0114357 0.00192345)             (0.331268 -0.0246869 -1.15518e-19)             (0.28989 -0.0207864 0.0107926)             (0.274412 0.00350729 0.00328311)             (0.549716 -0.112521 3.42131e-20)             (0.474379 -0.0281354 0.00765525)             (0.426652 0.059219 0.00122443)
         0.22             (0.221401 -0.134396 1.32211e-20)             (0.333304 -0.020849 -0.0277247)             (0.330388 0.0372786 -0.0283526)             (0.381396 -0.203644 0)             (0.375505 -0.0213547 -0.0250485)             (0.356535 0.0507956 -0.0258526)             (0.246893 0.00238945 0)             (0.308129 -0.00558266 -0.0280459)             (0.305215 0.0342689 -0.0284268)             (0.318319 -0.0174497 4.45936e-19)             (0.285477 -0.00253837 -0.060332)             (0.271148 0.0232815 -0.0616951)             (0.535772 -0.0999854 -1.68571e-19)             (0.466825 -0.00251259 -0.0434751)             (0.423673 0.0856358 -0.0444608)
         0.23             (0.215614 -0.1282 -2.32088e-21)             (0.327951 -0.0311259 0.00403716)             (0.323329 0.0289727 0.00168148)             (0.37769 -0.200409 0)             (0.37124 -0.0307029 0.00356052)             (0.349752 0.0425699 0.00133945)             (0.240484 0.00703634 0)             (0.301729 -0.013994 0.0040167)             (0.297815 0.0265464 0.00122292)             (0.319813 -0.0146653 -9.30465e-20)             (0.278933 -0.00885198 0.0084343)             (0.261623 0.0159498 0.00184403)             (0.539118 -0.0963419 2.72997e-20)             (0.464772 -0.0101626 0.00622334)             (0.416665 0.0788041 0.00101347)
         0.24             (0.211431 -0.117236 1.22792e-20)             (0.322516 -0.00658532 -0.0256498)             (0.31848 0.0522554 -0.0262626)             (0.370544 -0.188492 0)             (0.364972 -0.00642955 -0.0231248)             (0.345055 0.0667552 -0.0238703)             (0.238731 0.0164192 0)             (0.297113 0.00783192 -0.0259803)             (0.292745 0.0483369 -0.0264101)             (0.307793 -0.0074482 4.13021e-19)             (0.274241 0.00859568 -0.0561056)             (0.257837 0.0351154 -0.0578842)             (0.526469 -0.0845359 -1.55395e-19)             (0.457872 0.0136625 -0.0400185)             (0.413919 0.103438 -0.0409366)
         0.25             (0.206055 -0.111644 -2.39123e-21)             (0.317665 -0.0168138 0.00430474)             (0.311984 0.0437968 0.0021916)             (0.367205 -0.185857 0)             (0.361124 -0.015847 0.00379264)             (0.338774 0.0583341 0.00176163)             (0.232882 0.0204194 0)             (0.291437 -0.00071711 0.00434958)             (0.285952 0.0404332 0.00180778)             (0.309703 -0.00508601 -9.56216e-20)             (0.268562 0.0022418 0.00925569)             (0.249338 0.0279001 0.00333146)             (0.529653 -0.0815714 2.82386e-20)             (0.456139 0.0059149 0.00655863)             (0.407233 0.0963466 0.00157519)
         0.26             (0.202356 -0.102981 1.03811e-20)             (0.313255 0.00384182 -0.0217352)             (0.308382 0.0630508 -0.0220451)             (0.361131 -0.17653 0)             (0.355973 0.00449111 -0.0196166)             (0.335171 0.0784535 -0.0200741)             (0.231633 0.0278621 0)             (0.287806 0.0176465 -0.0219952)             (0.282298 0.058216 -0.0220866)             (0.299659 0.000517913 3.51308e-19)             (0.265491 0.0166912 -0.0473133)             (0.247576 0.0434402 -0.0478544)             (0.518757 -0.072156 -1.32774e-19)             (0.450648 0.0258594 -0.0340056)             (0.405432 0.116852 -0.0344442)
         0.27             (0.197836 -0.0977821 -1.7672e-21)             (0.309229 -0.00427325 0.0030903)             (0.302927 0.0565558 0.00123571)             (0.358254 -0.174063 0)             (0.352735 -0.00293725 0.00270845)             (0.32998 0.0719841 0.000964048)             (0.226779 0.0317098 0)             (0.28297 0.0111075 0.0031065)             (0.276567 0.0522236 0.000875114)             (0.301009 0.00272811 -7.2232e-20)             (0.260345 0.0117291 0.00656323)             (0.23993 0.0378042 0.00128432)             (0.521314 -0.0695023 2.03932e-20)             (0.449131 0.0198067 0.00471055)             (0.39993 0.111452 0.000599792)
         0.28             (0.194414 -0.0889666 9.65739e-21)             (0.305097 0.0150137 -0.0201456)             (0.299336 0.0747708 -0.0205373)             (0.352571 -0.164909 0)             (0.347949 0.016125 -0.0181498)             (0.326501 0.0908698 -0.0186485)             (0.225492 0.0391655 0)             (0.279527 0.0282823 -0.0204056)             (0.272791 0.0692994 -0.0206584)             (0.291714 0.00837921 3.25579e-19)             (0.256859 0.0255092 -0.044111)             (0.237317 0.0529098 -0.0452689)             (0.511509 -0.0604897 -1.22422e-19)             (0.443985 0.0383397 -0.0313636)             (0.398014 0.130603 -0.0319489)
         0.29             (0.190185 -0.0844729 -1.95536e-21)             (0.301427 0.00661013 0.00352154)             (0.294391 0.0678739 0.00186551)             (0.350034 -0.163118 0)             (0.345125 0.00832357 0.00309664)             (0.321746 0.0839711 0.00150782)             (0.221019 0.0423286 0)             (0.275125 0.0214135 0.00355462)             (0.267627 0.0628272 0.00159561)             (0.293519 0.0101378 -7.71597e-20)             (0.252565 0.0202614 0.00764806)             (0.230628 0.0470257 0.00295146)             (0.514128 -0.0584689 2.25635e-20)             (0.442811 0.0319421 0.00534565)             (0.392888 0.124717 0.00148897)
          0.3             (0.187323 -0.0774778 8.16778e-21)             (0.298188 0.0227825 -0.0170869)             (0.291901 0.0829197 -0.01722)             (0.345258 -0.155985 0)             (0.341257 0.0241545 -0.0154182)             (0.319238 0.0996598 -0.0156552)             (0.220235 0.0482197 0)             (0.272605 0.035766 -0.0172884)             (0.265112 0.0767596 -0.0172306)             (0.285706 0.0144673 2.77715e-19)             (0.250535 0.031668 -0.0372201)             (0.229807 0.059269 -0.0372823)             (0.50565 -0.0513495 -1.04903e-19)             (0.438766 0.0474256 -0.0267177)             (0.391853 0.140629 -0.0268169)
         0.31             (0.183732 -0.0730062 -1.27489e-21)             (0.295049 0.0165491 0.00219617)             (0.287691 0.0779621 0.000723275)             (0.342979 -0.153979 0)             (0.338775 0.0184176 0.0019021)             (0.315256 0.0946792 0.000520425)             (0.216488 0.0514644 0)             (0.268852 0.0307625 0.0022081)             (0.260676 0.0722194 0.000451803)             (0.286815 0.0162731 -5.35909e-20)             (0.246377 0.0278883 0.00473034)             (0.223612 0.0549926 0.000469228)             (0.507606 -0.0492972 1.40682e-20)             (0.437583 0.0427685 0.0032583)             (0.38753 0.136483 2.67994e-05)
         0.32             (0.180875 -0.0658819 7.57803e-21)             (0.291842 0.0315553 -0.0158101)             (0.284985 0.0921353 -0.0160778)             (0.338438 -0.146941 0)             (0.335075 0.0331192 -0.0142443)             (0.312632 0.109346 -0.0145912)             (0.21549 0.0573804 0)             (0.266188 0.044197 -0.0160223)             (0.257831 0.085541 -0.0161686)             (0.279631 0.0206814 2.56263e-19)             (0.243798 0.0386893 -0.0346399)             (0.221765 0.0668093 -0.035427)             (0.500071 -0.0423902 -9.64477e-20)             (0.433692 0.0571136 -0.0246056)             (0.386153 0.151299 -0.0249909)
         0.33             (0.177538 -0.0622148 -1.54759e-21)             (0.289066 0.0247631 0.0027655)             (0.281236 0.0865132 0.00148341)             (0.33644 -0.145708 0)             (0.332955 0.0268234 0.0024239)             (0.309019 0.103709 0.00119194)             (0.212107 0.0598319 0)             (0.262869 0.0385646 0.00279912)             (0.253903 0.0802629 0.00127073)             (0.281274 0.0219395 -6.05419e-20)             (0.240567 0.0343862 0.00607818)             (0.216588 0.0620016 0.00242898)             (0.502201 -0.0410343 1.7263e-20)             (0.432894 0.0518836 0.00415869)             (0.382233 0.146454 0.00118814)
         0.34             (0.175249 -0.056509 6.46588e-21)             (0.286643 0.037494 -0.0135132)             (0.27952 0.0983176 -0.0135415)             (0.332654 -0.140193 0)             (0.330055 0.0392381 -0.0121893)             (0.307282 0.115999 -0.0122904)             (0.211562 0.064539 0)             (0.261029 0.0498906 -0.013676)             (0.252189 0.0912021 -0.013537)             (0.275205 0.025342 2.20606e-19)             (0.239174 0.0434483 -0.0294612)             (0.216337 0.0716827 -0.029243)             (0.49563 -0.0355977 -8.34108e-20)             (0.429882 0.063952 -0.021134)             (0.381686 0.158832 -0.0210318)
         0.35             (0.172313 -0.0525532 -8.59226e-22)             (0.28417 0.0327734 0.001437)             (0.276225 0.0945907 0.000263407)             (0.330702 -0.138498 0)             (0.328095 0.0348532 0.0012148)             (0.304194 0.112223 0.000119073)             (0.208673 0.0673247 0)             (0.258086 0.0461293 0.00144837)             (0.24871 0.0878446 5.60615e-05)             (0.276112 0.0268581 -3.78339e-20)             (0.235805 0.0406159 0.00313962)             (0.211299 0.0685209 -0.000312798)             (0.497137 -0.0339531 8.79621e-21)             (0.428904 0.0604188 0.00202146)             (0.378262 0.155711 -0.000528061)
         0.36             (0.169871 -0.0467323 5.94287e-21)             (0.281655 0.0443875 -0.0124082)             (0.27416 0.105554 -0.0126001)             (0.326982 -0.133083 0)             (0.325214 0.0461974 -0.0111832)             (0.302187 0.123544 -0.0114323)             (0.2079 0.0720406 0)             (0.256022 0.0565681 -0.0125763)             (0.246538 0.0981694 -0.0126663)             (0.270602 0.0302892 2.01531e-19)             (0.233892 0.0490223 -0.0271887)             (0.209973 0.0776966 -0.0277361)             (0.491399 -0.0286637 -7.60527e-20)             (0.425948 0.071465 -0.0193262)             (0.377244 0.167112 -0.0195938)
         0.37             (0.167177 -0.0436998 -1.1825e-21)             (0.279536 0.0389214 0.00206921)             (0.271317 0.101017 0.00107521)             (0.325358 -0.132225 0)             (0.323626 0.041116 0.00179977)             (0.299453 0.118993 0.000859821)             (0.205298 0.0739832 0)             (0.253502 0.0520356 0.00209814)             (0.243557 0.0938992 0.000908963)             (0.272055 0.0312099 -4.57162e-20)             (0.231484 0.045542 0.00461135)             (0.20601 0.0737982 0.00180584)             (0.493128 -0.02775 1.24911e-20)             (0.425396 0.067237 0.00305377)             (0.37425 0.163175 0.000771573)
         0.38             (0.16531 -0.0389188 5.16187e-21)             (0.277702 0.0489914 -0.0107731)             (0.270119 0.11032 -0.0107451)             (0.322231 -0.127889 0)             (0.321415 0.0508763 -0.0097182)             (0.298237 0.128653 -0.00974238)             (0.20493 0.0778166 0)             (0.252152 0.061018 -0.0109071)             (0.242378 0.102554 -0.0107364)             (0.267313 0.0339268 1.76493e-19)             (0.230496 0.0527924 -0.0235067)             (0.206057 0.0815173 -0.0231649)             (0.488051 -0.0235547 -6.68354e-20)             (0.423119 0.0766851 -0.0168612)             (0.373982 0.172852 -0.0166668)
         0.39             (0.16288 -0.0353937 -5.20136e-22)             (0.275727 0.0454203 0.000816692)             (0.267519 0.107572 -0.000123335)             (0.320561 -0.126375 0)             (0.319857 0.0475596 0.000656852)             (0.295814 0.125829 -0.000217501)             (0.202666 0.0802632 0)             (0.24981 0.0582345 0.000830726)             (0.239623 0.100115 -0.000281299)             (0.268054 0.035223 -2.51236e-20)             (0.227742 0.0507065 0.00183638)             (0.201938 0.0792309 -0.000975526)             (0.489237 -0.0221808 4.54255e-21)             (0.422301 0.0740477 0.00102229)             (0.371255 0.170542 -0.000997904)
          0.4             (0.16078 -0.0306074 4.68952e-21)             (0.273727 0.0543985 -0.00979976)             (0.265912 0.116066 -0.0099439)             (0.317457 -0.122166 0)             (0.317589 0.0563108 -0.00883592)             (0.294248 0.134576 -0.00902244)             (0.202048 0.0840467 0)             (0.248186 0.0663547 -0.00993208)             (0.237934 0.108121 -0.00999257)             (0.263839 0.0378994 1.59358e-19)             (0.226309 0.0572491 -0.0214639)             (0.200952 0.0863563 -0.0218669)             (0.484887 -0.0180969 -6.03747e-20)             (0.420037 0.0825601 -0.0152816)             (0.370473 0.179323 -0.0154833)
         0.41             (0.158604 -0.0280547 -8.72494e-22)             (0.272095 0.0500546 0.00149654)             (0.263744 0.112395 0.000731195)             (0.316076 -0.121518 0)             (0.316376 0.0522334 0.00128409)             (0.292159 0.130909 0.000567884)             (0.200083 0.0856045 0)             (0.246253 0.0627374 0.00152705)             (0.235668 0.104658 0.000617621)             (0.265096 0.0385604 -3.38488e-20)             (0.224547 0.0544393 0.00341862)             (0.197948 0.0831933 0.00128179)             (0.486271 -0.0174893 8.56292e-21)             (0.419654 0.0791523 0.00213507)             (0.368182 0.176129 0.000385774)
         0.42             (0.157026 -0.023967 4.19634e-21)             (0.270673 0.0581254 -0.00873797)             (0.262896 0.119858 -0.00868074)             (0.313436 -0.118003 0)             (0.314662 0.0600284 -0.00788451)             (0.291297 0.138618 -0.00786577)             (0.199811 0.0888122 0)             (0.245234 0.0699944 -0.00884955)             (0.234849 0.111627 -0.00866992)             (0.261345 0.0407823 1.43523e-19)             (0.223806 0.0603425 -0.0190802)             (0.198133 0.0894619 -0.0187026)             (0.482335 -0.0141722 -5.4495e-20)             (0.417898 0.0866598 -0.0136863)             (0.368069 0.183809 -0.0134586)
         0.43             (0.154975 -0.0209171 -3.48224e-22)             (0.269093 0.0552414 0.000511478)             (0.26085 0.117611 -0.000245401)             (0.311945 -0.116763 0)             (0.313417 0.0573094 0.000386009)             (0.289391 0.136293 -0.000316266)             (0.198039 0.0908576 0)             (0.243381 0.0677394 0.000528914)             (0.232677 0.109665 -0.000358214)             (0.262053 0.041826 -1.79831e-20)             (0.221621 0.0586483 0.00121503)             (0.194814 0.0876214 -0.00105344)             (0.483342 -0.013124 2.4047e-21)             (0.417242 0.0844949 0.000534301)             (0.365889 0.181898 -0.00107667)
         0.44             (0.153211 -0.0170099 3.73542e-21)             (0.267534 0.0622298 -0.0078058)             (0.259665 0.124173 -0.00788873)             (0.309353 -0.113487 0)             (0.311665 0.0640683 -0.00704379)             (0.288229 0.143048 -0.0071602)             (0.197537 0.0938729 0)             (0.242146 0.0740697 -0.00790535)             (0.231438 0.115861 -0.00791341)             (0.258813 0.0439068 1.27116e-19)             (0.220621 0.0637621 -0.0170556)             (0.194219 0.0931507 -0.0172544)             (0.480041 -0.0100086 -4.8511e-20)             (0.415536 0.0910694 -0.01221)             (0.365356 0.188663 -0.0123126)