/*--------------------------------*- C++ -*----------------------------------*\
  =========                 |
  \\      /  F ield         | OpenFOAM: The Open Source CFD Toolbox
   \\    /   O peration     | Website:  https://openfoam.org
    \\  /    A nd           | Version:  7
     \\/     M anipulation  |
\*---------------------------------------------------------------------------*/
FoamFile
{
    version     2.0;
    format      ascii;
    class       volScalarField;
    location    "7.7";
    object      p;
}
// * * * * * * * * * * * * * * * * * * * * * * * * * * * * * * * * * * * * * //

dimensions      [0 2 -2 0 0 0 0];

internalField   nonuniform List<scalar> 
8000
(
0.175469
0.177842
0.179362
0.181065
0.182807
0.184589
0.186403
0.188237
0.190077
0.191911
0.193731
0.195527
0.197293
0.199022
0.200712
0.202358
0.203959
0.205513
0.207017
0.208481
0.174583
0.176983
0.17854
0.180279
0.18205
0.18385
0.185673
0.187504
0.189331
0.191144
0.192932
0.194689
0.196409
0.198086
0.199719
0.201304
0.202841
0.204325
0.205745
0.207161
0.173645
0.176102
0.177707
0.179492
0.1813
0.183128
0.184966
0.186801
0.188621
0.190416
0.192178
0.193899
0.195575
0.197202
0.198778
0.200302
0.201775
0.20319
0.204525
0.205886
0.172717
0.175237
0.176893
0.178728
0.180577
0.182435
0.184293
0.186136
0.187953
0.189734
0.191471
0.193159
0.194793
0.196372
0.197893
0.199356
0.200765
0.202109
0.203359
0.204657
0.171796
0.174383
0.176093
0.177981
0.179875
0.181768
0.183649
0.185505
0.187322
0.189093
0.190809
0.192467
0.194063
0.195595
0.197063
0.198466
0.19981
0.201083
0.202247
0.203475
0.170873
0.173531
0.175299
0.177245
0.179189
0.181122
0.183032
0.184904
0.186726
0.188491
0.190191
0.191823
0.193383
0.194872
0.196287
0.197632
0.198911
0.200113
0.201191
0.202338
0.169946
0.172677
0.174508
0.176517
0.178517
0.180494
0.182437
0.18433
0.186162
0.187925
0.189613
0.191222
0.192751
0.194199
0.195566
0.196853
0.198069
0.199199
0.200192
0.201247
0.169008
0.171818
0.173716
0.175794
0.177854
0.179882
0.181863
0.183781
0.185627
0.187393
0.189073
0.190664
0.192165
0.193576
0.194897
0.19613
0.197282
0.198343
0.199252
0.200204
0.168054
0.170948
0.172919
0.175072
0.177198
0.179281
0.181305
0.183254
0.185118
0.18689
0.188566
0.190144
0.191622
0.193
0.194278
0.19546
0.196552
0.197545
0.198372
0.199211
0.167075
0.170062
0.172112
0.174346
0.176545
0.178688
0.180759
0.182744
0.18463
0.186414
0.18809
0.189658
0.191117
0.192466
0.193708
0.194842
0.195878
0.196806
0.197558
0.198271
0.166065
0.169156
0.171291
0.173613
0.17589
0.178099
0.180223
0.182246
0.184159
0.185958
0.187638
0.189201
0.190645
0.191972
0.193181
0.194275
0.195259
0.19613
0.196813
0.19739
0.165015
0.168223
0.170451
0.172868
0.17523
0.177509
0.17969
0.181756
0.1837
0.185516
0.187205
0.188766
0.1902
0.191509
0.192694
0.193754
0.194695
0.195517
0.196144
0.196575
0.163916
0.167257
0.169587
0.172107
0.174558
0.176914
0.179156
0.181269
0.183245
0.185083
0.186782
0.188345
0.189774
0.191071
0.192238
0.193274
0.194183
0.194969
0.195557
0.195839
0.162761
0.166254
0.168694
0.171324
0.173872
0.176308
0.178615
0.180777
0.182789
0.18465
0.186362
0.187929
0.189356
0.190647
0.191805
0.192828
0.193717
0.194486
0.195061
0.195195
0.161541
0.165209
0.167767
0.170516
0.173166
0.175687
0.178061
0.180275
0.182324
0.184209
0.185935
0.187508
0.188935
0.190224
0.191379
0.192401
0.19329
0.194066
0.194668
0.194668
0.16025
0.164116
0.166804
0.169679
0.172437
0.175045
0.177489
0.179755
0.181842
0.183751
0.18549
0.187068
0.188496
0.189785
0.190943
0.191976
0.192883
0.193701
0.194386
0.194289
0.158881
0.162973
0.165799
0.168809
0.171679
0.174379
0.176893
0.179212
0.181335
0.183267
0.185017
0.186597
0.188022
0.189308
0.190472
0.191522
0.192465
0.193361
0.194207
0.194096
0.157429
0.161776
0.164751
0.167904
0.17089
0.173683
0.176269
0.17864
0.180797
0.182748
0.184503
0.18608
0.187495
0.188771
0.189933
0.191001
0.191991
0.193006
0.19415
0.19422
0.155892
0.160523
0.163658
0.16696
0.170068
0.172955
0.175612
0.178033
0.180221
0.182185
0.183939
0.185502
0.186894
0.188144
0.189285
0.190356
0.191397
0.192616
0.194388
0.195186
0.154272
0.159216
0.16252
0.165979
0.16921
0.172192
0.174919
0.177386
0.1796
0.181571
0.183315
0.184851
0.1862
0.187392
0.188463
0.18946
0.19046
0.191801
0.194203
0.196236
0.211762
0.216517
0.220252
0.223838
0.226782
0.229437
0.231734
0.233773
0.235571
0.237158
0.238549
0.239755
0.240786
0.241651
0.24236
0.242925
0.243357
0.243668
0.243872
0.243973
0.210672
0.215081
0.218825
0.222326
0.225242
0.227869
0.230152
0.232183
0.233979
0.235567
0.23696
0.23817
0.239205
0.240074
0.240788
0.241357
0.241795
0.242113
0.242322
0.242434
0.20959
0.213683
0.217412
0.22083
0.223711
0.226307
0.228573
0.230596
0.232388
0.233977
0.235373
0.236589
0.237629
0.238503
0.239223
0.239797
0.240241
0.240567
0.240782
0.240904
0.208512
0.212324
0.216016
0.219353
0.222191
0.224753
0.227001
0.229012
0.230801
0.232391
0.233791
0.235012
0.236059
0.23694
0.237666
0.238247
0.238698
0.239031
0.239253
0.239386
0.207432
0.211007
0.214636
0.217894
0.220684
0.22321
0.225435
0.227435
0.229219
0.230809
0.232214
0.23344
0.234494
0.235383
0.236116
0.236705
0.237162
0.237503
0.237731
0.237875
0.20634
0.209733
0.213272
0.216457
0.219191
0.221678
0.22388
0.225865
0.227643
0.229234
0.230642
0.231875
0.232937
0.233834
0.234575
0.235171
0.235636
0.235985
0.23622
0.236373
0.205227
0.208502
0.211925
0.21504
0.217713
0.220159
0.222334
0.224304
0.226076
0.227666
0.229078
0.230317
0.231387
0.232292
0.233041
0.233646
0.234119
0.234475
0.234717
0.234879
0.204081
0.207316
0.210594
0.213645
0.216252
0.218655
0.2208
0.222753
0.224517
0.226105
0.227521
0.228767
0.229844
0.230758
0.231516
0.232129
0.23261
0.232973
0.233221
0.233392
0.202892
0.206173
0.209278
0.21227
0.214807
0.217164
0.219279
0.221213
0.222967
0.224554
0.225972
0.227224
0.228309
0.229232
0.229999
0.23062
0.231109
0.23148
0.231734
0.231911
0.201647
0.205069
0.207976
0.210915
0.213378
0.215689
0.217771
0.219685
0.221429
0.223012
0.224433
0.225691
0.226784
0.227715
0.228491
0.229121
0.229618
0.229996
0.230254
0.230437
0.200337
0.203999
0.206688
0.209576
0.211964
0.214227
0.216276
0.218169
0.219901
0.221481
0.222904
0.224166
0.225267
0.226206
0.226991
0.22763
0.228134
0.228519
0.228781
0.228968
0.198956
0.202955
0.205411
0.208252
0.210565
0.21278
0.214794
0.216665
0.218386
0.219961
0.221384
0.222652
0.223759
0.224707
0.225501
0.226148
0.226659
0.227049
0.227316
0.227505
0.197499
0.201923
0.204144
0.206938
0.20918
0.211345
0.213325
0.215173
0.216881
0.218451
0.219875
0.221147
0.222261
0.223217
0.224019
0.224674
0.225192
0.225587
0.225857
0.226047
0.195972
0.200887
0.202885
0.205629
0.207805
0.209922
0.211869
0.213694
0.215389
0.216953
0.218376
0.219651
0.220773
0.221736
0.222546
0.223209
0.223733
0.224133
0.224404
0.224593
0.194392
0.199828
0.201632
0.204323
0.20644
0.208509
0.210424
0.212227
0.213908
0.215466
0.216888
0.218167
0.219294
0.220265
0.221083
0.221753
0.222282
0.222684
0.222957
0.223144
0.192801
0.198736
0.200391
0.203021
0.205088
0.207111
0.208994
0.210775
0.212442
0.213992
0.215412
0.216693
0.217826
0.218804
0.219629
0.220305
0.220838
0.221243
0.221515
0.221697
0.191242
0.197581
0.199154
0.201721
0.203746
0.205724
0.207577
0.209336
0.210988
0.21253
0.213948
0.21523
0.216367
0.217352
0.218183
0.218864
0.219402
0.219807
0.220078
0.220254
0.189657
0.196202
0.197813
0.200336
0.202345
0.204292
0.206125
0.207869
0.209513
0.211051
0.21247
0.213758
0.214903
0.215897
0.216737
0.217426
0.217968
0.218375
0.218645
0.218812
0.188249
0.194529
0.196279
0.198777
0.200809
0.202752
0.204589
0.206338
0.207989
0.209537
0.210968
0.21227
0.213429
0.214437
0.21529
0.215989
0.216538
0.216947
0.217215
0.217373
0.189125
0.193906
0.195442
0.197746
0.199715
0.201595
0.203394
0.205116
0.206747
0.208276
0.20969
0.210975
0.212116
0.213106
0.213941
0.214622
0.215153
0.215544
0.215797
0.215938
0.200169
0.198606
0.198124
0.199277
0.200503
0.201714
0.202962
0.204229
0.205477
0.206676
0.207797
0.208816
0.209714
0.210483
0.21112
0.211627
0.212015
0.212293
0.21247
0.21256
0.192703
0.19186
0.191948
0.193499
0.194978
0.196311
0.197622
0.198915
0.200164
0.201346
0.202442
0.203436
0.204315
0.205071
0.205702
0.20621
0.206603
0.206887
0.207071
0.207162
0.184024
0.184253
0.185047
0.187043
0.188854
0.190423
0.1919
0.193302
0.194616
0.195832
0.196941
0.197937
0.198814
0.19957
0.200203
0.200718
0.201119
0.201411
0.201603
0.201697
0.175006
0.176387
0.177858
0.180284
0.182467
0.184332
0.186028
0.187586
0.189002
0.190278
0.191417
0.19242
0.193292
0.194036
0.194657
0.195161
0.195553
0.195841
0.196029
0.196121
0.164901
0.167396
0.16965
0.172606
0.175264
0.177533
0.17955
0.181355
0.182953
0.184356
0.185578
0.186632
0.187531
0.188288
0.188913
0.189416
0.189807
0.190093
0.19028
0.190372
0.153916
0.157418
0.160488
0.16402
0.167209
0.169953
0.172368
0.174496
0.176348
0.177944
0.179307
0.180459
0.181425
0.182226
0.18288
0.183402
0.183805
0.184098
0.18429
0.184384
0.142387
0.146757
0.150598
0.154695
0.158418
0.161661
0.164513
0.167011
0.169168
0.171007
0.172557
0.17385
0.174917
0.17579
0.176495
0.177052
0.177479
0.177788
0.177989
0.178088
0.130498
0.135587
0.140116
0.144734
0.148963
0.152697
0.155997
0.158888
0.161382
0.1635
0.165273
0.16674
0.16794
0.168911
0.169686
0.170293
0.170755
0.171088
0.171303
0.171409
0.118366
0.12402
0.12913
0.134207
0.138894
0.143089
0.146823
0.15011
0.152953
0.15537
0.157393
0.15906
0.160417
0.161507
0.162371
0.163043
0.16355
0.163913
0.164147
0.164262
0.106078
0.112151
0.117727
0.123185
0.128267
0.132872
0.137006
0.140668
0.143854
0.146575
0.148858
0.150742
0.152273
0.153499
0.154466
0.155214
0.155775
0.156175
0.156432
0.156557
0.0937122
0.100066
0.105989
0.111743
0.11714
0.122087
0.126567
0.130565
0.134068
0.137079
0.139619
0.141721
0.143433
0.144803
0.145882
0.146713
0.147334
0.147775
0.148057
0.148195
0.081332
0.0878427
0.0939962
0.0999478
0.105571
0.110777
0.115532
0.119808
0.123584
0.126853
0.129627
0.131936
0.133822
0.135335
0.136525
0.137442
0.138125
0.138608
0.138917
0.139066
0.0690309
0.075567
0.0818287
0.0878727
0.0936202
0.0989897
0.103932
0.108411
0.112394
0.115868
0.118837
0.121322
0.123362
0.125003
0.126297
0.127292
0.128033
0.128556
0.128889
0.129051
0.05685
0.0633108
0.0695602
0.0755841
0.0813442
0.0867676
0.0917955
0.0963816
0.10049
0.104097
0.107201
0.109815
0.111972
0.113713
0.115088
0.116148
0.116936
0.117492
0.117845
0.118016
0.0449901
0.0512052
0.0572976
0.063167
0.0688083
0.0741578
0.0791489
0.0837291
0.087857
0.0915047
0.0946617
0.0973356
0.0995513
0.101347
0.102768
0.103864
0.104679
0.105253
0.105618
0.105796
0.0333492
0.039292
0.0451002
0.0506843
0.0560675
0.0611992
0.0660126
0.0704525
0.0744754
0.0780499
0.0811602
0.0838081
0.0860123
0.0878054
0.0892291
0.0903283
0.0911468
0.0917236
0.0920902
0.0922658
0.0226291
0.027877
0.033172
0.0382725
0.0432141
0.0479524
0.0524164
0.0565479
0.0603025
0.0636477
0.0665656
0.0690548
0.0711298
0.0728189
0.0741596
0.0751935
0.0759616
0.0765017
0.0768471
0.0770257
0.0118079
0.0167972
0.0214881
0.0259385
0.0302446
0.0343964
0.038332
0.0419946
0.0453406
0.0483368
0.0509624
0.0532124
0.0550968
0.0566384
0.0578682
0.0588216
0.0595328
0.0600332
0.0603509
0.0604904
0.00351064
0.00676378
0.0106597
0.014226
0.017628
0.0208747
0.0239098
0.0266916
0.0291968
0.0314109
0.0333279
0.0349519
0.0362966
0.0373838
0.0382405
0.0388963
0.0393794
0.0397132
0.0399316
0.0401419
-0.0116936
-0.00636153
-0.00280692
0.0003929
0.00339743
0.00619855
0.00878203
0.0111341
0.0132352
0.0150715
0.0166426
0.0179606
0.019046
0.0199241
0.0206208
0.0211601
0.0215626
0.0218408
0.0219753
0.0218901
0.186561
0.17952
0.172975
0.164861
0.155736
0.145714
0.135061
0.123916
0.112404
0.100637
0.0887316
0.076758
0.0648852
0.0530406
0.0417208
0.0301334
0.0206005
0.00821562
0.00598806
-0.0194926
0.186978
0.178117
0.171651
0.163121
0.153708
0.143455
0.132634
0.121381
0.109818
0.0980509
0.0861963
0.0743097
0.0625726
0.050868
0.0397837
0.028289
0.0192957
0.0064345
0.00648365
-0.0225432
0.187487
0.176873
0.170287
0.161252
0.151516
0.141003
0.129998
0.118629
0.107014
0.0952515
0.0834537
0.071665
0.0600689
0.0485236
0.0376638
0.026322
0.0177761
0.00471338
0.00629662
-0.0249952
0.186973
0.175065
0.168474
0.15906
0.149111
0.138433
0.12732
0.115893
0.104269
0.092542
0.08082
0.0691409
0.0576884
0.046305
0.0356549
0.0244736
0.0163067
0.00311622
0.00595596
-0.02729
0.185977
0.173052
0.166476
0.156746
0.146629
0.135823
0.124632
0.113173
0.101561
0.0898843
0.0782494
0.0666888
0.0553848
0.044169
0.0337229
0.0227123
0.0148787
0.00160623
0.00554453
-0.0295626
0.184669
0.170979
0.164373
0.15437
0.144105
0.133189
0.121937
0.110459
0.0988711
0.0872554
0.0757158
0.0642814
0.0531303
0.0420893
0.0318434
0.0210171
0.0134744
0.000172829
0.00504435
-0.031838
0.183046
0.168846
0.162162
0.151932
0.141544
0.130539
0.119243
0.107761
0.0962078
0.0846626
0.0732255
0.0619243
0.0509303
0.0400704
0.0300207
0.0193924
0.0120993
-0.00117776
0.00445741
-0.0341479
0.181126
0.16666
0.159848
0.149445
0.138954
0.127883
0.116559
0.105087
0.0935802
0.0821146
0.0707868
0.059625
0.0487921
0.0381189
0.0282627
0.0178454
0.0107639
-0.00243481
0.0037975
-0.0365207
0.178948
0.16444
0.157453
0.146923
0.136349
0.125231
0.113896
0.102447
0.0909955
0.0796175
0.0684053
0.0573885
0.0467204
0.0362392
0.0265752
0.0163824
0.00947931
-0.00358361
0.00307272
-0.0390084
0.176551
0.162201
0.154999
0.144383
0.133743
0.122595
0.111262
0.0998467
0.0884599
0.0771768
0.0660858
0.0552188
0.0447193
0.0344352
0.0249637
0.0150097
0.00825843
-0.00460029
0.00225346
-0.0418932
0.173978
0.159953
0.152507
0.14184
0.131149
0.119986
0.108667
0.0972948
0.0859799
0.0747975
0.0638328
0.0531198
0.0427928
0.0327105
0.0234337
0.013734
0.00711904
-0.00544062
0.00127486
-0.0457317
0.171274
0.157707
0.150001
0.13931
0.128579
0.117414
0.106119
0.0947979
0.0835612
0.0724848
0.061651
0.0510955
0.0409444
0.0310686
0.0219902
0.0125618
0.00608276
-0.00603905
0.000237485
-0.0494295
0.168489
0.155473
0.147502
0.136808
0.126048
0.11489
0.103626
0.0923627
0.0812096
0.0702434
0.0595442
0.0491494
0.0391775
0.0295123
0.0206373
0.0114972
0.00516707
-0.0063524
-0.000413683
-0.0464297
0.165676
0.153263
0.145033
0.134348
0.123568
0.112423
0.101196
0.0899958
0.0789306
0.0680777
0.0575164
0.0472848
0.0374948
0.0280439
0.0193776
0.0105408
0.00437741
-0.00639931
-0.000757212
-0.0371806
0.162888
0.151089
0.142614
0.131944
0.121151
0.110023
0.0988382
0.0877035
0.0767291
0.0659921
0.0555709
0.0455046
0.0358987
0.0266649
0.0182123
0.00968941
0.00370624
-0.00623923
-0.00106814
-0.0293604
0.160175
0.148964
0.140264
0.129611
0.118808
0.107701
0.0965589
0.0854917
0.0746098
0.0639904
0.0537109
0.0438114
0.0343909
0.025376
0.0171408
0.00893736
0.00314039
-0.00595134
-0.00140176
-0.0236421
0.157586
0.146903
0.138004
0.127361
0.116551
0.105463
0.0943652
0.0833659
0.0725773
0.0620762
0.051939
0.0422069
0.0329726
0.0241772
0.0161616
0.00827805
0.00266861
-0.00560246
-0.00190792
-0.0189752
0.155167
0.144923
0.135851
0.125207
0.114389
0.103319
0.0922634
0.0813311
0.0706354
0.0602528
0.0502577
0.0406929
0.0316447
0.0230678
0.0152725
0.00770497
0.00228211
-0.00521323
-0.00224591
-0.0152732
0.152956
0.143041
0.133819
0.12316
0.112332
0.101275
0.0902592
0.0793921
0.0687879
0.0585229
0.0486692
0.0392705
0.0304075
0.0220469
0.0144709
0.00721195
0.00197494
-0.00478161
-0.00247442
-0.0123263
0.150987
0.141275
0.131925
0.121233
0.110389
0.099338
0.0883579
0.0775531
0.0670384
0.0568892
0.0471755
0.0379408
0.0292613
0.0211134
0.013754
0.00679353
0.00173805
-0.00435623
-0.00260555
-0.0099555
0.149287
0.139643
0.13018
0.119436
0.108567
0.0975144
0.0865646
0.0758182
0.0653901
0.0553545
0.0457783
0.0367049
0.0282062
0.0202663
0.0131196
0.00644505
0.00156647
-0.00393874
-0.00265843
-0.0080378
0.14788
0.138163
0.128598
0.117776
0.106872
0.0958087
0.0848826
0.0741899
0.0638448
0.0539195
0.044478
0.0355624
0.0272408
0.0195033
0.0125641
0.00616211
0.00145633
-0.00352899
-0.00264516
-0.0064817
0.14678
0.136852
0.127189
0.116262
0.10531
0.0942256
0.0833159
0.0726715
0.0624052
0.0525865
0.0432759
0.034514
0.0263649
0.0188235
0.0120854
0.00594106
0.00140316
-0.00312611
-0.00257489
-0.00521458
0.145999
0.135727
0.12596
0.114902
0.103887
0.092769
0.0818677
0.0712658
0.0610737
0.051357
0.042173
0.03356
0.0255778
0.0182256
0.0116809
0.00577902
0.00140244
-0.00272942
-0.00245661
-0.0041789
0.145542
0.134804
0.12492
0.113702
0.102605
0.0914419
0.0805407
0.0699749
0.0598519
0.0502322
0.0411696
0.0327
0.0248787
0.0177077
0.0113483
0.00567315
0.00145004
-0.00233807
-0.00229899
-0.00332936
0.145413
0.134097
0.124073
0.112665
0.101469
0.0902467
0.0793371
0.0688006
0.0587411
0.0492128
0.040266
0.0319336
0.0242661
0.0172682
0.0110849
0.00562078
0.00154213
-0.00195107
-0.00210981
-0.0026302
0.145609
0.133617
0.123424
0.111794
0.100479
0.0891856
0.0782588
0.0677449
0.0577426
0.0482994
0.0394621
0.0312597
0.023739
0.0169049
0.0108882
0.00561922
0.00167499
-0.00156757
-0.00189592
-0.00205303
0.146127
0.133377
0.122971
0.111093
0.099637
0.0882606
0.0773076
0.0668091
0.0568572
0.0474924
0.0387576
0.030678
0.0232951
0.0166157
0.0107553
0.00566579
0.00184503
-0.00118692
-0.00166317
-0.00157523
0.146959
0.133386
0.122715
0.110561
0.098944
0.0874736
0.0764854
0.0659946
0.0560854
0.0467917
0.0381518
0.0301868
0.0229334
0.0163985
0.0106838
0.00575778
0.00204882
-0.000808621
-0.00141652
-0.00117874
0.148094
0.133651
0.122653
0.1102
0.0984008
0.0868264
0.0757936
0.0653018
0.0554273
0.046197
0.0376435
0.0297847
0.0226518
0.0162509
0.010671
0.00589254
0.00228318
-0.000432302
-0.00116001
-0.000849022
0.14952
0.134176
0.122778
0.110008
0.0980094
0.0863211
0.0752335
0.0647312
0.0548832
0.0457068
0.0372311
0.02947
0.0224483
0.0161705
0.0107142
0.00606746
0.00254518
-5.76487e-05
-0.000896867
-0.00057429
0.151222
0.134959
0.123087
0.109984
0.0977756
0.0859604
0.0748061
0.064284
0.0544504
0.0453197
0.036913
0.0292405
0.0223203
0.0161547
0.0108105
0.00628002
0.00283218
0.000315617
-0.000629554
-0.000344926
0.153181
0.135994
0.123576
0.110127
0.0977071
0.085748
0.0745126
0.0639572
0.0541286
0.0450338
0.036687
0.0290939
0.0222652
0.0162009
0.010957
0.00652772
0.00314175
0.000687738
-0.000359885
-0.000152997
0.155325
0.137323
0.124249
0.110466
0.0977921
0.0856865
0.074354
0.0637523
0.0539171
0.0448479
0.0365516
0.0290279
0.0222807
0.0163064
0.0111509
0.00680838
0.0034718
0.00105899
-8.90998e-05
8.12297e-06
0.157641
0.138909
0.125116
0.110991
0.0980552
0.0857814
0.0743336
0.0636717
0.0538175
0.044763
0.0365072
0.0290423
0.0223657
0.0164699
0.0113904
0.00712038
0.00382079
0.00142982
0.000182085
0.000144055
0.160047
0.140711
0.126157
0.111689
0.0984818
0.0860215
0.0744429
0.0637079
0.0538238
0.0447744
0.0365495
0.0291332
0.0225169
0.0166881
0.0116725
0.00746165
0.00418702
0.00180046
0.000453216
0.000259646
0.162432
0.14271
0.127376
0.112541
0.0990361
0.0863658
0.0746387
0.0638188
0.0538973
0.0448482
0.0366498
0.0292771
0.0227158
0.0169469
0.0119869
0.00782506
0.00456585
0.00216958
0.000723349
0.000359175
0.164861
0.14521
0.129024
0.113692
0.0997911
0.0868409
0.0749185
0.0639843
0.0540092
0.0449524
0.0367765
0.0294461
0.0229383
0.017227
0.0123189
0.0082002
0.00495064
0.00253471
0.000991453
0.000446599
0.16742
0.148626
0.131547
0.115553
0.101127
0.0878006
0.0756052
0.0644917
0.0544081
0.0452951
0.0370987
0.0297724
0.0232838
0.0175999
0.0127175
0.00861897
0.00536047
0.00290735
0.00126407
0.000525531
0.168489
0.151246
0.13399
0.117721
0.103036
0.0895195
0.0771519
0.0658857
0.0556631
0.046422
0.0381078
0.0306756
0.024093
0.0183287
0.0133747
0.0092125
0.00587646
0.00333177
0.00156326
0.000597807
0.165098
0.151583
0.136493
0.121115
0.106919
0.093758
0.0815483
0.0702769
0.059917
0.0504366
0.0418101
0.034021
0.0270601
0.0209209
0.0156006
0.0110925
0.00739552
0.00448274
0.00232235
0.000767032
0.160486
0.147879
0.132228
0.11651
0.102309
0.0893668
0.0775671
0.0668545
0.057149
0.0483665
0.0404352
0.0332998
0.026921
0.0212698
0.0163234
0.0120597
0.00845209
0.00546096
0.00302951
0.000995894
0.155806
0.144396
0.128675
0.11326
0.0994316
0.0869021
0.0755517
0.0653109
0.0560836
0.0477703
0.0402823
0.0335476
0.0275099
0.0221256
0.0173584
0.0131731
0.00952958
0.00637766
0.00364882
0.00120344
0.152871
0.140603
0.125605
0.110819
0.0975314
0.0855271
0.0746826
0.0649114
0.0561084
0.0481687
0.0409983
0.0345192
0.0286691
0.0233989
0.0186669
0.0144332
0.0106532
0.00727417
0.00422681
0.00139478
0.150346
0.137766
0.123308
0.109203
0.096486
0.0849888
0.0745973
0.0652179
0.0567455
0.049077
0.0421196
0.0357946
0.030038
0.024798
0.0200302
0.015692
0.0117377
0.00811518
0.00475874
0.00157168
0.148645
0.136066
0.122025
0.108561
0.0963733
0.0853148
0.075287
0.0661974
0.0579466
0.0504389
0.0435874
0.0373173
0.0315663
0.0262823
0.0214195
0.016934
0.0127799
0.00890653
0.00525275
0.0017368
0.148039
0.135521
0.121828
0.108907
0.0971478
0.086425
0.0766541
0.0677479
0.0596156
0.0521708
0.0453343
0.0390373
0.0332205
0.0278328
0.0228281
0.0181622
0.0137893
0.00966055
0.00571862
0.00189282
0.148574
0.136096
0.122674
0.110164
0.0987041
0.0881983
0.0785726
0.0697472
0.061641
0.0541763
0.0472821
0.0408949
0.0349587
0.0294237
0.024244
0.0193749
0.0147714
0.0103853
0.00616308
0.00204176
0.150178
0.137685
0.124446
0.112206
0.100915
0.0905107
0.0809265
0.0720912
0.0639324
0.0563807
0.0493716
0.0428461
0.0367509
0.0310371
0.0256589
0.0205715
0.0157297
0.0110866
0.00659069
0.00218502
0.152711
0.140138
0.126994
0.11489
0.10365
0.093246
0.0836149
0.0746946
0.06642
0.0587285
0.0515604
0.0448604
0.0385768
0.0326614
0.0270682
0.021752
0.0166674
0.0117681
0.00700455
0.00232363
0.156006
0.143288
0.130156
0.118073
0.106788
0.0963004
0.0865515
0.0774867
0.0690472
0.0611753
0.0538151
0.0469134
0.0404199
0.0342865
0.0284668
0.022915
0.0175853
0.0124318
0.00740635
0.00245814
0.159879
0.146961
0.133774
0.12162
0.110215
0.0995794
0.0896584
0.0804043
0.071763
0.0636807
0.056104
0.0489813
0.042263
0.0359006
0.0298472
0.0240562
0.0184815
0.0130774
0.00779623
0.00258864
0.164141
0.150982
0.137689
0.125397
0.113818
0.102989
0.0928575
0.0833826
0.0745139
0.0662007
0.0583915
0.0510357
0.0440836
0.0374866
0.0311967
0.0251667
0.0193502
0.0137013
0.00817242
0.00271456
0.168595
0.15517
0.141738
0.129264
0.117478
0.106426
0.0960613
0.0863472
0.0772369
0.0686821
0.0606329
0.0530392
0.0458512
0.0390197
0.0324959
0.0262319
0.020181
0.0142966
0.00853091
0.00283459
0.17303
0.159332
0.145749
0.133069
0.12106
0.109774
0.0991674
0.0892088
0.0798545
0.0710581
0.0627709
0.0549432
0.047525
0.0404663
0.0337178
0.0272309
0.0209582
0.0148526
0.00886541
0.00294662
0.177223
0.163263
0.14953
0.136641
0.124414
0.112898
0.102056
0.0918621
0.0822741
0.0732479
0.0647356
0.0566877
0.049054
0.0417841
0.0348281
0.0281367
0.0216616
0.015355
0.00916746
0.00304784
0.180943
0.166752
0.152884
0.139801
0.127374
0.115649
0.104596
0.0941896
0.0843919
0.0751602
0.0664473
0.0582041
0.0503801
0.0429247
0.0357872
0.0289177
0.0222671
0.0157871
0.00942713
0.00313491
0.18397
0.169591
0.155615
0.142369
0.129778
0.11788
0.106652
0.0960711
0.0861013
0.0767012
0.0678244
0.0594219
0.0514434
0.0438378
0.0365539
0.0295412
0.0227501
0.0161314
0.00963401
0.00320432
0.186112
0.171602
0.157548
0.144186
0.131478
0.119456
0.108103
0.0973975
0.0873051
0.0777852
0.068792
0.0602767
0.0521889
0.0444773
0.0370903
0.029977
0.0230874
0.0163719
0.00977841
0.00325271
0.187223
0.172638
0.158547
0.145123
0.132355
0.120269
0.108851
0.0980809
0.087925
0.078343
0.0692896
0.060716
0.0525718
0.0448054
0.0373653
0.0302003
0.0232603
0.0164951
0.00985224
0.00327717
0.189138
0.186419
0.183454
0.178706
0.174563
0.171113
0.168677
0.167426
0.167387
0.168487
0.170572
0.173442
0.176868
0.180615
0.184441
0.188108
0.191386
0.194067
0.195968
0.196979
0.194297
0.191945
0.188376
0.183898
0.179679
0.176161
0.173668
0.172357
0.17225
0.173273
0.175277
0.178063
0.181404
0.185066
0.188809
0.192397
0.195607
0.198237
0.200108
0.201129
0.197895
0.194858
0.190582
0.185754
0.181523
0.178155
0.175915
0.174907
0.175105
0.176407
0.178646
0.181619
0.185105
0.188877
0.192703
0.196354
0.199612
0.202283
0.204184
0.205244
0.201981
0.19835
0.193451
0.188263
0.18391
0.180585
0.178484
0.177671
0.178083
0.179593
0.182017
0.185148
0.188765
0.192643
0.196556
0.20028
0.203597
0.206318
0.208257
0.209356
0.206243
0.202225
0.196831
0.191445
0.186986
0.183671
0.181648
0.180951
0.181494
0.183132
0.185671
0.188901
0.192601
0.196546
0.200515
0.204284
0.207639
0.210392
0.212357
0.213485
0.210451
0.206069
0.200307
0.194797
0.190269
0.186978
0.185031
0.184439
0.185095
0.186838
0.189471
0.192779
0.196542
0.200538
0.204546
0.208345
0.211725
0.214497
0.216477
0.217627
0.214632
0.209866
0.203838
0.198238
0.193661
0.190398
0.188523
0.188029
0.188786
0.190626
0.193342
0.19672
0.200539
0.204578
0.208617
0.21244
0.215836
0.218622
0.22061
0.221775
0.21881
0.213666
0.207445
0.201794
0.197191
0.193956
0.192144
0.191731
0.192574
0.194495
0.197282
0.200719
0.204584
0.208657
0.212721
0.21656
0.219966
0.222759
0.224751
0.225926
0.22298
0.217444
0.21112
0.205454
0.200853
0.197653
0.195898
0.195552
0.196465
0.19845
0.201293
0.204776
0.208676
0.212775
0.216855
0.220703
0.224113
0.226906
0.228897
0.230076
0.227129
0.221203
0.21485
0.209199
0.204626
0.20147
0.199768
0.19948
0.200449
0.202484
0.20537
0.208886
0.212812
0.216927
0.221014
0.224864
0.228271
0.23106
0.233044
0.234221
0.231248
0.225039
0.218629
0.213012
0.20849
0.205388
0.203738
0.203499
0.204512
0.206586
0.209502
0.213042
0.216983
0.221105
0.225193
0.229037
0.232435
0.235214
0.237188
0.238357
0.23532
0.22887
0.222444
0.216881
0.212427
0.209389
0.207792
0.207595
0.208643
0.210744
0.213681
0.217234
0.221181
0.225302
0.229383
0.233216
0.2366
0.239364
0.241324
0.24248
0.239336
0.23269
0.226283
0.220793
0.216423
0.213455
0.211912
0.211755
0.212829
0.214948
0.217896
0.221453
0.225397
0.229511
0.233578
0.237394
0.240759
0.243503
0.245445
0.246584
0.243281
0.236501
0.230136
0.224735
0.22046
0.217571
0.216084
0.215963
0.217058
0.219187
0.222137
0.225689
0.229623
0.233722
0.237771
0.241564
0.244905
0.247626
0.249548
0.250665
0.247131
0.240291
0.233986
0.228692
0.224523
0.22172
0.220291
0.220204
0.221315
0.223447
0.226392
0.229933
0.233851
0.237928
0.241952
0.245718
0.249031
0.251726
0.253625
0.254717
0.25085
0.244044
0.237819
0.232648
0.228595
0.225885
0.224517
0.224464
0.225588
0.227718
0.230651
0.234174
0.238068
0.242119
0.246113
0.249849
0.253131
0.255795
0.25767
0.258734
0.254473
0.247743
0.241615
0.236587
0.232659
0.230049
0.228746
0.228726
0.22986
0.231984
0.234901
0.238401
0.242267
0.246286
0.250247
0.253948
0.257196
0.259829
0.261678
0.262711
0.257951
0.251369
0.245358
0.240492
0.236697
0.234194
0.232959
0.232975
0.234118
0.236234
0.23913
0.242602
0.246436
0.250419
0.254343
0.258007
0.261219
0.263818
0.26564
0.266641
0.261268
0.254907
0.249029
0.244344
0.240692
0.238303
0.237141
0.237194
0.238347
0.240452
0.243326
0.246767
0.250564
0.254508
0.258392
0.262018
0.265192
0.267755
0.269549
0.270519
0.264417
0.258338
0.25261
0.248125
0.244626
0.242358
0.241273
0.241368
0.242532
0.244627
0.247476
0.250883
0.254641
0.258543
0.262386
0.265971
0.269107
0.271634
0.2734
0.274337
0.267387
0.261649
0.256087
0.251819
0.248482
0.246343
0.245342
0.245482
0.246659
0.248745
0.251568
0.254939
0.258657
0.262516
0.266316
0.269859
0.272956
0.275446
0.277183
0.278088
0.270169
0.26482
0.259441
0.255406
0.25224
0.250239
0.249328
0.249518
0.250712
0.25279
0.255588
0.258923
0.262599
0.266415
0.270171
0.273671
0.27673
0.279183
0.280893
0.281767
0.272758
0.267839
0.26266
0.258871
0.255886
0.254031
0.253217
0.253463
0.254677
0.25675
0.259524
0.262824
0.266459
0.270231
0.273942
0.277401
0.280421
0.28284
0.284522
0.285366
0.275152
0.270695
0.265732
0.262201
0.259406
0.257703
0.256993
0.257301
0.258541
0.260612
0.263366
0.266631
0.270226
0.273955
0.277623
0.28104
0.284022
0.286406
0.288062
0.288878
0.277352
0.273378
0.268648
0.265383
0.262787
0.261244
0.260643
0.26102
0.262292
0.264366
0.267101
0.270336
0.27389
0.277578
0.281203
0.284579
0.287525
0.289877
0.291508
0.292298
0.279362
0.275882
0.2714
0.268408
0.266017
0.264639
0.264156
0.264607
0.265917
0.267999
0.270721
0.273927
0.277444
0.281091
0.284676
0.288012
0.290923
0.293244
0.294853
0.295619
0.281187
0.278199
0.273984
0.271266
0.269087
0.26788
0.267519
0.268053
0.269407
0.271502
0.274215
0.277396
0.280878
0.284486
0.288033
0.291332
0.294209
0.296502
0.298089
0.298834
0.282836
0.280328
0.276396
0.27395
0.271989
0.270956
0.270726
0.271347
0.272752
0.274867
0.277575
0.280735
0.284186
0.287758
0.291269
0.294532
0.297378
0.299644
0.301212
0.301939
0.284317
0.282268
0.278633
0.276458
0.274717
0.273863
0.273768
0.274484
0.275946
0.278087
0.280794
0.283937
0.287361
0.2909
0.294377
0.297607
0.300423
0.302664
0.304216
0.304928
0.285642
0.284018
0.280697
0.278786
0.27727
0.276596
0.276641
0.277457
0.278982
0.281154
0.283866
0.286997
0.290398
0.293907
0.297352
0.300552
0.303341
0.305559
0.307096
0.307796
0.286821
0.285582
0.282588
0.280935
0.279644
0.279152
0.279343
0.280262
0.281856
0.284064
0.286787
0.28991
0.293293
0.296775
0.300192
0.303364
0.306127
0.308324
0.309848
0.31054
0.287864
0.286965
0.284308
0.282906
0.281843
0.281533
0.281871
0.282898
0.284564
0.286814
0.289553
0.292674
0.296041
0.299502
0.302892
0.306038
0.308778
0.310956
0.312469
0.313156
0.28878
0.288171
0.285862
0.284703
0.283868
0.28374
0.284226
0.285364
0.287106
0.289401
0.292162
0.295285
0.298643
0.302084
0.305451
0.308574
0.311292
0.313454
0.314957
0.315642
0.289575
0.289206
0.287254
0.286331
0.285723
0.285776
0.28641
0.28766
0.289481
0.291826
0.294613
0.297744
0.301095
0.304521
0.307867
0.310969
0.313668
0.315815
0.317309
0.317995
0.290252
0.290078
0.28849
0.287799
0.287417
0.287648
0.288428
0.289789
0.291691
0.294089
0.296907
0.30005
0.303399
0.306814
0.310142
0.313224
0.315906
0.318039
0.319526
0.320214
0.29081
0.290801
0.289583
0.289124
0.288964
0.289367
0.290291
0.291762
0.293744
0.296198
0.29905
0.302208
0.305558
0.308964
0.312277
0.315342
0.318007
0.320128
0.321607
0.3223
0.291246
0.291382
0.290538
0.290308
0.290364
0.290935
0.291996
0.293574
0.295638
0.298149
0.301038
0.304215
0.30757
0.310971
0.314272
0.317321
0.319973
0.322083
0.323554
0.324253
0.291526
0.291793
0.291313
0.291302