/*--------------------------------*- C++ -*----------------------------------*\
  =========                 |
  \\      /  F ield         | OpenFOAM: The Open Source CFD Toolbox
   \\    /   O peration     | Website:  https://openfoam.org
    \\  /    A nd           | Version:  7
     \\/     M anipulation  |
\*---------------------------------------------------------------------------*/
FoamFile
{
    version     2.0;
    format      ascii;
    class       volVectorField;
    location    "7.7";
    object      U;
}
// * * * * * * * * * * * * * * * * * * * * * * * * * * * * * * * * * * * * * //

dimensions      [0 1 -1 0 0 0 0];

internalField   nonuniform List<vector> 
8000
(
(-0.00018927 0.0177207 2.31482e-22)
(0.00049884 0.0475068 2.86301e-24)
(0.00250437 0.073323 2.46136e-24)
(0.00512918 0.0959831 2.90134e-22)
(0.0081966 0.116098 1.77787e-21)
(0.0115262 0.134117 0)
(0.0149901 0.150376 6.30823e-22)
(0.0184956 0.165126 -6.38223e-22)
(0.0219732 0.178563 6.55931e-22)
(0.0253704 0.190836 -6.59031e-22)
(0.0286479 0.202063 2.67365e-21)
(0.0317757 0.212337 0)
(0.0347312 0.221732 0)
(0.0374974 0.230311 0)
(0.0400618 0.238123 0)
(0.0424155 0.24521 0)
(0.0445526 0.25161 0)
(0.0464698 0.257354 -1.37222e-21)
(0.0481652 0.262469 1.35812e-21)
(0.0496404 0.266965 0)
(-0.00084466 0.0173526 0)
(-0.00122773 0.0465037 0)
(-0.000103962 0.0718144 4.35244e-21)
(0.00179614 0.0940622 0)
(0.00426916 0.113844 2.34831e-21)
(0.00711249 0.131596 0)
(0.0101812 0.147647 4.99223e-21)
(0.0133691 0.162241 -5.10087e-21)
(0.0165956 0.175567 5.19171e-21)
(0.0197996 0.187772 -5.26611e-21)
(0.0229341 0.198968 5.33196e-21)
(0.0259629 0.209247 -2.67872e-21)
(0.0288577 0.218681 -2.6848e-21)
(0.0315968 0.227328 -2.74178e-21)
(0.0341631 0.235236 5.46222e-21)
(0.0365439 0.242446 -5.46634e-21)
(0.0387305 0.248992 1.6332e-20)
(0.0407157 0.254903 -1.08396e-20)
(0.0424867 0.260203 -5.40276e-21)
(0.0440558 0.264902 -1.22946e-20)
(-0.00147254 0.016949 0)
(-0.00287843 0.0454062 0)
(-0.00259352 0.0701561 -1.51986e-20)
(-0.00138173 0.0919406 1.13091e-20)
(0.000527911 0.111342 -4.71607e-21)
(0.00291144 0.128786 -9.69116e-21)
(0.00560733 0.14459 -4.99213e-21)
(0.00849609 0.158993 5.10077e-21)
(0.0114868 0.172178 -5.19161e-21)
(0.0145098 0.184286 -5.22709e-21)
(0.0175109 0.195427 -5.32534e-21)
(0.0204478 0.20569 0)
(0.0232872 0.215143 -5.35942e-21)
(0.0260023 0.223842 -5.42576e-21)
(0.0285719 0.231835 5.43742e-21)
(0.0309795 0.239158 -5.44006e-21)
(0.0332135 0.245844 -5.4347e-21)
(0.0352624 0.251921 5.4221e-21)
(0.0371032 0.257406 -5.33985e-21)
(0.0387561 0.26231 -6.13537e-21)
(-0.00207072 0.0165067 9.0502e-22)
(-0.00444704 0.0442152 2.06305e-21)
(-0.00495394 0.0683528 6.51339e-21)
(-0.00438966 0.0896258 -9.05239e-21)
(-0.00300804 0.108604 0)
(-0.00105382 0.1257 4.8303e-21)
(0.00129521 0.141221 9.92807e-21)
(0.00390684 0.155399 -5.04761e-21)
(0.00668003 0.168413 0)
(0.00953693 0.180397 2.09494e-20)
(0.0124167 0.191459 0)
(0.0152714 0.201683 0)
(0.0180624 0.211137 2.14848e-20)
(0.0207587 0.219874 -1.0823e-20)
(0.0233349 0.227938 2.15993e-20)
(0.0257705 0.235365 -1.07617e-20)
(0.0280508 0.242186 2.1583e-20)
(0.0301604 0.248424 -1.07204e-20)
(0.0320662 0.254096 2.14882e-20)
(0.0337925 0.259208 -1.20961e-20)
(-0.00263734 0.0160318 3.56803e-21)
(-0.00592746 0.0429388 8.12848e-21)
(-0.00717498 0.0664151 -4.28234e-21)
(-0.00721279 0.0871316 -2.23671e-21)
(-0.00631927 0.105645 0)
(-0.00475957 0.122355 -9.61995e-21)
(-0.00272735 0.137559 0)
(-0.000367205 0.151482 -5.08022e-21)
(0.00221014 0.164295 5.12081e-21)
(0.00491909 0.17613 -1.04563e-20)
(0.00769253 0.187089 0)
(0.0104771 0.197253 0)
(0.0132296 0.206688 -1.07214e-20)
(0.0159146 0.215446 -1.07788e-20)
(0.0185026 0.223568 -1.91543e-23)
(0.0209695 0.23109 0)
(0.023297 0.238039 -1.07606e-20)
(0.0254657 0.244436 2.14649e-20)
(0.0274329 0.250294 -2.12444e-20)
(0.0292231 0.255618 -1.20281e-20)
(-0.00317056 0.0155293 -5.39132e-21)
(-0.00731358 0.0415848 6.03005e-21)
(-0.00924605 0.0643538 -6.37748e-21)
(-0.00983567 0.0844713 0)
(-0.00938545 0.102481 -4.67611e-21)
(-0.00818081 0.11877 1.43953e-20)
(-0.00643101 0.133626 0)
(-0.00429267 0.147265 -3.02534e-20)
(-0.00188581 0.159851 2.05158e-20)
(0.00069669 0.171511 -1.03561e-20)
(0.00338184 0.182343 0)
(0.00611135 0.192427 2.11764e-20)
(0.00883776 0.201825 0)
(0.0115217 0.210587 0)
(0.0141296 0.218754 3.22327e-20)
(0.0166334 0.226359 -4.28274e-20)
(0.0190113 0.233429 2.1304e-20)
(0.0212398 0.239983 0)
(0.0232669 0.246028 0)
(0.0251125 0.251571 3.61158e-20)
(-0.00366858 0.0150021 -1.79502e-21)
(-0.00859908 0.0401592 -2.62989e-20)
(-0.0111559 0.0621782 8.56448e-21)
(-0.0122419 0.081658 -1.33706e-20)
(-0.0121851 0.0991299 4.65918e-21)
(-0.0112912 0.114967 -2.38643e-20)
(-0.00978485 0.129445 0)
(-0.00783438 0.142773 1.00289e-20)
(-0.00556868 0.155108 -1.02495e-20)
(-0.00308748 0.16657 -2.07184e-20)
(-0.000469147 0.177256 -1.05316e-20)
(0.00222359 0.187239 -1.06495e-20)
(0.00493941 0.196581 2.12252e-20)
(0.00763522 0.205331 0)
(0.0102739 0.213529 -2.14166e-20)
(0.0128233 0.221207 4.25533e-20)
(0.0152578 0.22839 0)
(0.0175497 0.235097 -2.11568e-20)
(0.0196381 0.241332 2.10397e-20)
(0.0215331 0.247099 2.39566e-20)
(-0.00412972 0.0144531 1.77108e-21)
(-0.00977754 0.0386685 1.61467e-20)
(-0.0128929 0.0598985 4.26936e-21)
(-0.0144144 0.0787058 1.33896e-20)
(-0.0146958 0.0956087 0)
(-0.0140631 0.110966 9.5173e-21)
(-0.0127563 0.125042 9.74349e-21)
(-0.0109553 0.138037 0)
(-0.00879722 0.150099 2.04266e-20)
(-0.00638829 0.161344 2.07183e-20)
(-0.0038117 0.171862 0)
(-0.00113408 0.181727 1.11114e-22)
(0.00158988 0.190996 -4.24416e-20)
(0.0043139 0.199717 4.24009e-20)
(0.00699745 0.207931 2.13405e-20)
(0.00960453 0.21567 -6.37925e-20)
(0.0121053 0.222959 6.35484e-20)
(0.0144678 0.229817 1.02369e-22)
(0.0166228 0.236244 -6.30232e-20)
(0.0185643 0.242243 -1.60741e-22)
(-0.00455236 0.0138849 -1.40476e-20)
(-0.0108424 0.037119 1.59833e-20)
(-0.0144447 0.0575249 0)
(-0.0163351 0.0756292 1.76589e-20)
(-0.0168938 0.0919369 0)
(-0.0164675 0.106791 -9.55799e-21)
(-0.0153115 0.120446 1.95315e-20)
(-0.0136166 0.133088 -1.99734e-20)
(-0.0115282 0.14486 2.03378e-20)
(-0.00915837 0.155871 1.03397e-20)
(-0.00659462 0.166206 2.09455e-20)
(-0.00390689 0.175935 -2.09879e-20)
(-0.00115262 0.185115 2.09928e-20)
(0.00161927 0.193792 -2.12235e-20)
(0.00436533 0.202008 0)
(0.00704589 0.209795 0)
(0.00962667 0.217181 -7.54493e-23)
(0.0120712 0.224185 0)
(0.0143028 0.230807 2.09436e-20)
(0.0162926 0.237048 -2.38571e-20)
(-0.00493482 0.0132998 1.40476e-20)
(-0.0117866 0.0355164 -3.18827e-20)
(-0.0157984 0.0550678 -2.10124e-20)
(-0.0179851 0.0724436 -3.97332e-20)
(-0.0187544 0.0881349 -9.18891e-21)
(-0.0184741 0.102469 0)
(-0.0174147 0.115686 -1.9447e-20)
(-0.0157777 0.127963 1.00115e-20)
(-0.0137164 0.139432 -3.03532e-20)
(-0.0113482 0.150196 -6.1835e-20)
(-0.00876438 0.160335 2.07127e-20)
(-0.00603758 0.169915 -2.10498e-20)
(-0.00322733 0.178991 -4.23107e-20)
(-0.000384431 0.18761 -4.74924e-23)
(0.00244536 0.195813 2.12052e-20)
(0.00521916 0.203635 -2.10512e-20)
(0.00789814 0.211107 -2.10829e-20)
(0.0104414 0.218253 -2.09113e-20)
(0.0127652 0.225072 0)
(0.0148106 0.231563 -2.35448e-20)
(-0.00527528 0.0126994 -1.03656e-20)
(-0.0126028 0.0338664 -3.84123e-21)
(-0.0169402 0.0525378 1.25673e-20)
(-0.0193446 0.0691648 2.19427e-20)
(-0.0202518 0.0842242 9.10848e-21)
(-0.0200515 0.0980265 9.38307e-21)
(-0.019029 0.110796 1.9447e-20)
(-0.0173967 0.122699 0)
(-0.015315 0.133858 -7.20596e-23)
(-0.0129064 0.144368 4.09858e-20)
(-0.0102654 0.154302 0)
(-0.00746667 0.163724 -2.09984e-20)
(-0.00457115 0.172685 2.09952e-20)
(-0.00163069 0.181232 2.11061e-20)
(0.00130763 0.189408 0)
(0.00419838 0.197251 -2.10234e-20)
(0.00699842 0.204798 -4.20532e-20)
(0.0096625 0.212076 -9.68933e-23)
(0.0121009 0.219094 -1.32812e-22)
(0.0142166 0.225845 -2.3025e-22)
(-0.00557162 0.0120851 -1.36979e-20)
(-0.0132831 0.0321743 1.58133e-20)
(-0.0178557 0.0499454 0)
(-0.0203926 0.0658093 0)
(-0.0213593 0.0802277 9.15547e-21)
(-0.0211671 0.0934922 1.18314e-22)
(-0.0201165 0.105812 -1.93566e-20)
(-0.0184302 0.11734 2.97685e-20)
(-0.0162756 0.128187 -2.00777e-20)
(-0.0137798 0.138441 0)
(-0.01104 0.148168 4.13698e-20)
(-0.00813265 0.157427 4.16956e-20)
(-0.00511899 0.166265 6.29051e-20)
(-0.00205104 0.17473 0)
(0.0010239 0.182866 0)
(0.00405905 0.190715 2.10233e-20)
(0.00700763 0.198321 0)
(0.00982062 0.205721 2.08425e-20)
(0.0124038 0.212935 -4.12625e-20)
(0.0146127 0.219953 4.67021e-20)
(-0.00582132 0.0114579 2.41063e-20)
(-0.0138185 0.030445 3.88008e-21)
(-0.0185294 0.0473011 0)
(-0.0211074 0.0623941 0)
(-0.0220489 0.076169 4.53002e-20)
(-0.0217874 0.0888973 2.81377e-20)
(-0.0206381 0.100771 0)
(-0.0188339 0.111929 0)
(-0.0165488 0.122471 2.02357e-20)
(-0.013914 0.132474 4.10155e-20)
(-0.0110294 0.141999 -1.23961e-19)
(-0.00797229 0.151095 -2.09582e-20)
(-0.00480389 0.15981 -4.19048e-20)
(-0.00157532 0.168187 -4.19135e-20)
(0.00166731 0.176271 4.19191e-20)
(0.00487747 0.184111 1.46234e-22)
(0.00800617 0.191757 -8.33091e-20)
(0.011002 0.199262 0)
(0.0137683 0.206664 8.24105e-20)
(0.0161041 0.213955 -4.63179e-20)
(-0.0060214 0.0108185 0)
(-0.0141994 0.0286833 3.92458e-21)
(-0.0189448 0.044616 -4.09155e-21)
(-0.0214664 0.058937 0)
(-0.0222923 0.0720731 -3.61781e-20)
(-0.0218784 0.084274 -4.68627e-20)
(-0.0205546 0.0957133 9.55988e-21)
(-0.0185632 0.106514 0)
(-0.0160846 0.116765 -4.01201e-20)
(-0.0132541 0.126531 -4.08204e-20)
(-0.0101736 0.135864 4.1277e-20)
(-0.00692103 0.144809 -2.0857e-20)
(-0.00355728 0.153406 2.08036e-20)
(-0.000131665 0.161695 4.19135e-20)
(0.00331232 0.169721 -4.19191e-20)
(0.00673049 0.177537 4.18377e-20)
(0.010074 0.185202 9.5978e-23)
(0.0132919 0.192788 -8.28163e-20)
(0.0162888 0.200362 -1.13168e-22)
(0.0187968 0.20792 9.26013e-20)
(-0.00616829 0.0101673 3.42373e-21)
(-0.014415 0.0268938 -3.82835e-21)
(-0.0190846 0.0419013 3.26996e-20)
(-0.0214462 0.0554565 0)
(-0.0220607 0.0679663 3.58851e-20)
(-0.0214061 0.0796562 3.71912e-20)
(-0.0198267 0.0906801 -1.9304e-20)
(-0.0175738 0.101145 1.95308e-20)
(-0.0148337 0.111126 4.01205e-20)
(-0.0117451 0.120677 2.04323e-20)
(-0.00841214 0.129841 -2.04719e-20)
(-0.00491341 0.138653 2.08106e-20)
(-0.00130903 0.147147 1.49847e-22)
(0.00235381 0.155358 -6.27159e-20)
(0.00603541 0.163328 8.35417e-20)
(0.00969621 0.17111 -8.32361e-20)
(0.0132908 0.178771 8.96864e-23)
(0.0167735 0.186405 4.13553e-20)
(0.0200571 0.194122 2.97326e-23)
(0.0227974 0.201929 -4.61152e-20)
(-0.00625781 0.00950454 3.99032e-23)
(-0.0144537 0.0250815 -1.15555e-20)
(-0.0189305 0.0391687 -2.46154e-20)
(-0.0210229 0.051972 -8.64482e-21)
(-0.0213249 0.0638756 8.72564e-21)
(-0.0203368 0.0750791 -3.71918e-20)
(-0.0184162 0.085715 1.89395e-20)
(-0.0158227 0.0958729 1.94716e-20)
(-0.0127478 0.105614 -2.0086e-20)
(-0.00933353 0.114981 2.01811e-20)
(-0.00568578 0.124007 0)
(-0.00188395 0.132717 0)
(0.00201225 0.141136 2.08587e-20)
(0.00595765 0.149292 -2.07676e-20)
(0.0099168 0.157219 0)
(0.0138566 0.164967 4.16508e-20)
(0.0177386 0.172606 -4.36761e-23)
(0.0215299 0.180248 -5.14857e-23)
(0.0251642 0.188061 8.19262e-20)
(0.0282136 0.19608 -9.76092e-23)
(-0.0062851 0.00883067 3.3303e-21)
(-0.0143029 0.0232516 -7.7049e-21)
(-0.0184636 0.0364308 1.6208e-20)
(-0.0201725 0.0485039 -8.45517e-21)
(-0.0200568 0.0598298 -3.57322e-20)
(-0.0186381 0.0705792 -9.31177e-21)
(-0.0162867 0.0808621 -2.87238e-20)
(-0.0132693 0.09075 0)
(-0.00978182 0.10029 -1.97623e-20)
(-0.00596879 0.109512 -2.01266e-20)
(-0.00193767 0.11844 -6.14308e-20)
(0.00223131 0.12709 -1.66258e-22)
(0.00647837 0.135476 6.22699e-20)
(0.0107596 0.143617 -4.14312e-20)
(0.0150431 0.151535 -4.15223e-20)
(0.0193025 0.159268 4.16079e-20)
(0.0235097 0.166879 -1.24021e-19)
(0.0276529 0.174489 4.11384e-20)
(0.0317101 0.182327 -4.09096e-20)
(0.0351711 0.190488 -4.58129e-20)
(-0.00624459 0.00814605 0)
(-0.0139489 0.0214099 0)
(-0.0176644 0.0337011 8.12777e-21)
(-0.0188709 0.0450739 2.54454e-20)
(-0.0182287 0.0558584 0)
(-0.0162795 0.0661942 -3.67594e-20)
(-0.0134047 0.0761666 3.79171e-20)
(-0.00987694 0.0858288 3.88847e-20)
(-0.00589518 0.0952125 5.97688e-20)
(-0.00160554 0.104338 4.0497e-20)
(0.00288375 0.113217 2.05651e-20)
(0.00749203 0.121858 -6.17384e-20)
(0.0121592 0.130267 1.03385e-19)
(0.0168416 0.138451 7.22563e-23)
(0.021509 0.146419 4.15224e-20)
(0.0261399 0.154192 0)
(0.030715 0.161804 1.14764e-22)
(0.0352508 0.169361 4.096e-20)
(0.0398078 0.177145 8.16917e-20)
(0.0438297 0.18534 0)
(-0.00613004 0.0074514 0)
(-0.0133773 0.019563 2.99786e-20)
(-0.0165132 0.0309943 -8.07825e-21)
(-0.0170951 0.041705 1.66771e-20)
(-0.015815 0.0519926 -3.50762e-20)
(-0.0132334 0.0619626 2.7667e-20)
(-0.0097409 0.0716744 -3.7918e-20)
(-0.0056144 0.0811614 -1.36711e-22)
(-0.00105427 0.0904408 0)
(0.00379339 0.0995212 2.00815e-20)
(0.00882108 0.108407 1.83611e-22)
(0.0139491 0.117098 2.06622e-20)
(0.0191181 0.125596 -1.42807e-22)
(0.0242848 0.133899 -1.51486e-22)
(0.0294188 0.142007 4.14384e-20)
(0.0344984 0.14992 -4.13462e-20)
(0.0395029 0.15764 4.09508e-20)
(0.0444612 0.16523 -1.72092e-22)
(0.0495413 0.173004 0)
(0.0542738 0.181183 -5.44303e-22)
(-0.00593536 0.00674865 0)
(-0.0125737 0.0177196 -2.99878e-20)
(-0.0149908 0.0283271 0)
(-0.014823 0.038422 -4.21375e-20)
(-0.0127924 0.0482651 3.50769e-20)
(-0.00947597 0.0579242 9.05181e-21)
(-0.00527137 0.0674313 -1.8983e-20)
(-0.000457653 0.0767992 -1.95476e-20)
(0.00476538 0.0860303 0)
(0.0102538 0.0951222 -2.00214e-20)
(0.0159031 0.104071 -2.01832e-20)
(0.0216377 0.112874 -2.05142e-20)
(0.0274027 0.121527 -6.18907e-20)
(0.0331601 0.130028 -2.14378e-22)
(0.0388853 0.138378 4.12517e-20)
(0.0445622 0.146575 -8.21087e-20)
(0.0501726 0.15461 4.1072e-20)
(0.0557344 0.162546 -4.06846e-20)
(0.0614264 0.170699 0)
(0.066954 0.179051 3.13641e-22)
(0.0525287 0.275767 -1.97897e-21)
(0.0552462 0.288039 6.69796e-22)
(0.0563577 0.296506 -6.91622e-22)
(0.0554193 0.302944 7.02351e-22)
(0.0530626 0.307769 0)
(0.0493634 0.311813 0)
(0.0447516 0.315599 -7.31317e-22)
(0.0394903 0.319542 7.30781e-22)
(0.0338719 0.323887 0)
(0.0281344 0.328764 1.48659e-21)
(0.0224987 0.334189 -7.4502e-22)
(0.0171612 0.340104 3.75974e-22)
(0.0123042 0.346378 3.74782e-22)
(0.00809005 0.352825 -3.74439e-22)
(0.00465297 0.359208 -3.77654e-22)
(0.00208299 0.365244 0)
(0.000407398 0.370623 -1.89626e-22)
(-0.000429132 0.375025 -5.66351e-22)
(-0.00056899 0.378161 -7.5561e-22)
(-0.000246551 0.379786 -7.62175e-22)
(0.0474075 0.274196 5.86221e-21)
(0.0513143 0.28706 -2.00396e-21)
(0.0533474 0.296225 3.47107e-21)
(0.0533873 0.303244 -6.61881e-22)
(0.0518935 0.308574 -2.81599e-21)
(0.0489645 0.313002 -2.87964e-21)
(0.0450035 0.317063 5.78201e-21)
(0.0402795 0.321178 -2.90228e-21)
(0.0350909 0.325609 0)
(0.0296847 0.330494 -2.21199e-21)
(0.0242899 0.335862 0)
(0.0191081 0.341659 2.97835e-21)
(0.0143234 0.347764 -2.24194e-21)
(0.0100974 0.353999 7.52041e-22)
(0.00656207 0.360138 0)
(0.00380607 0.365915 0)
(0.00185867 0.371042 -1.50057e-21)
(0.000672706 0.375223 1.13194e-21)
(0.000119359 0.378192 -1.12176e-21)
(-8.91907e-06 0.379728 7.61705e-22)
(0.042524 0.272127 1.03556e-20)
(0.0475296 0.285627 -5.33711e-21)
(0.0504439 0.295532 0)
(0.05142 0.303178 0)
(0.0507674 0.309058 -8.46512e-21)
(0.0485941 0.313915 2.7974e-21)
(0.0452758 0.318293 2.85605e-21)
(0.0410835 0.32262 0)
(0.0363185 0.327171 2.92295e-21)
(0.0312365 0.332096 -1.45019e-21)
(0.0260735 0.337435 0)
(0.0210371 0.343145 -4.44742e-21)
(0.0163142 0.349111 1.4745e-21)
(0.0120672 0.355165 1.48498e-21)
(0.00842719 0.361092 -1.49248e-21)
(0.00548285 0.366643 1.49095e-21)
(0.00326637 0.371548 1.49877e-21)
(0.00173882 0.375534 0)
(0.000784357 0.378357 1.49889e-21)
(0.000220561 0.379814 0)
(0.0379243 0.269576 2.57397e-21)
(0.043924 0.283746 -2.66876e-21)
(0.0476724 0.294427 0)
(0.0495348 0.302741 0)
(0.049696 0.309215 2.80279e-21)
(0.0482593 0.314546 -2.81291e-21)
(0.045573 0.319283 0)
(0.0419049 0.32386 2.90259e-21)
(0.0375572 0.328566 2.92206e-21)
(0.0327921 0.333563 -8.70857e-21)
(0.0278525 0.338905 -2.92752e-21)
(0.0229522 0.344557 5.84892e-21)
(0.0182817 0.350414 0)
(0.0140052 0.356318 -1.42282e-23)
(0.0102546 0.362064 5.13185e-24)
(0.00711964 0.367419 0)
(0.00463617 0.37213 1.48271e-21)
(0.0027739 0.375944 -7.39701e-22)
(0.00142907 0.378638 -7.40628e-22)
(0.000442802 0.380025 0)
(0.0336618 0.26657 7.7838e-21)
(0.0405349 0.281429 -1.86151e-20)
(0.045063 0.292919 1.07196e-20)
(0.0477534 0.301938 0)
(0.0486943 0.309046 0)
(0.04797 0.314894 5.60082e-21)
(0.045901 0.320032 -5.67482e-21)
(0.0427474 0.324899 8.52424e-21)
(0.0388096 0.329796 -2.87519e-21)
(0.034354 0.334901 -5.78101e-21)
(0.0296298 0.340277 1.15657e-20)
(0.0248568 0.345902 -3.20987e-24)
(0.02023 0.351681 1.20821e-23)
(0.0159165 0.357464 -2.92463e-21)
(0.0120497 0.363061 2.94862e-21)
(0.00872196 0.368249 -2.93116e-21)
(0.00597321 0.372793 0)
(0.00378192 0.376459 -7.3492e-22)
(0.00205599 0.37904 7.34139e-22)
(0.000658654 0.380366 0)
(0.0297977 0.263137 -1.00617e-20)
(0.0374062 0.278692 5.27224e-21)
(0.0426516 0.291019 -1.08179e-20)
(0.0461024 0.300773 1.62243e-20)
(0.0477813 0.308553 5.48252e-21)
(0.0477391 0.314957 -2.78719e-21)
(0.0462686 0.320538 5.58275e-21)
(0.0436171 0.325734 0)
(0.04008 0.33086 5.6603e-21)
(0.0359261 0.336106 5.69199e-21)
(0.0314094 0.341549 -8.59841e-21)
(0.0267555 0.347179 5.7749e-21)
(0.0221643 0.35291 -6.09998e-24)
(0.0178065 0.358604 0)
(0.0138184 0.36408 -8.69458e-21)
(0.0102955 0.36913 2.90353e-21)
(0.0072826 0.373533 5.8005e-21)
(0.00476697 0.377071 0)
(0.00266772 0.379555 -5.80263e-21)
(0.000868936 0.380829 0)
(0.0264014 0.259311 -1.00082e-20)
(0.0345889 0.275553 -5.27148e-21)
(0.04048 0.28874 0)
(0.0446136 0.299255 -1.08008e-20)
(0.0469802 0.307741 6.128e-23)
(0.0475829 0.314739 -2.20278e-20)
(0.0466867 0.3208 -5.43169e-23)
(0.0445213 0.326365 5.57322e-21)
(0.0413739 0.331758 3.32198e-25)
(0.037513 0.33718 -5.67665e-21)
(0.0331956 0.342724 3.87282e-23)
(0.0286528 0.34839 -5.71881e-21)
(0.0240895 0.354105 1.1407e-20)
(0.0196806 0.359739 -1.14457e-20)
(0.0155661 0.365124 3.7733e-23)
(0.0118456 0.370062 0)
(0.00856914 0.374349 -1.0081e-20)
(0.00573286 0.37778 -1.43978e-21)
(0.00326671 0.380182 5.78195e-21)
(0.00107444 0.38141 0)
(0.0235513 0.255133 -2.2864e-22)
(0.0321418 0.272039 1.0369e-20)
(0.0385968 0.286102 0)
(0.0433245 0.297396 5.37718e-21)
(0.0463186 0.306615 -5.45488e-21)
(0.0475213 0.314241 1.08621e-20)
(0.0471692 0.320821 5.5219e-21)
(0.0454697 0.326792 -5.55926e-21)
(0.0426983 0.332488 0)
(0.0391198 0.338123 -5.62066e-21)
(0.0349931 0.343801 1.12868e-20)
(0.0305534 0.349536 -5.63163e-21)
(0.0260104 0.355265 -5.68316e-21)
(0.0215439 0.36087 5.69667e-21)
(0.0172982 0.366191 5.70689e-21)
(0.0133774 0.371045 0)
(0.00983731 0.375238 8.5711e-21)
(0.00668307 0.378582 -2.84916e-21)
(0.00385519 0.380915 0)
(0.00127589 0.382107 0)
(0.0213343 0.250646 4.00703e-20)
(0.030132 0.26818 -2.57976e-20)
(0.0370572 0.283127 0)
(0.0422786 0.295213 5.30185e-21)
(0.0458289 0.305187 -1.07947e-20)
(0.0475777 0.313471 1.07663e-20)
(0.0477326 0.320603 0)
(0.0464738 0.327016 0)
(0.0440612 0.333052 0)
(0.040753 0.338934 0)
(0.0368072 0.344781 5.58188e-21)
(0.0324621 0.350618 -5.57074e-21)
(0.027932 0.356392 0)
(0.0234014 0.361996 0)
(0.0190195 0.367282 5.60657e-21)
(0.0148954 0.372077 -2.81904e-21)
(0.0110912 0.376201 2.81541e-21)
(0.00762084 0.379476 -7.032e-21)
(0.00443518 0.381754 1.40927e-21)
(0.0014739 0.382916 0)
(0.0198458 0.245898 2.01439e-20)
(0.028636 0.264013 -1.5313e-20)
(0.0359234 0.279843 0)
(0.0415254 0.292727 -5.29473e-21)
(0.0455481 0.303471 0)
(0.0477794 0.312438 0)
(0.048396 0.320151 0)
(0.047547 0.327041 -5.41153e-21)
(0.0454721 0.33345 0)
(0.0424194 0.339615 1.10015e-20)
(0.0386433 0.345665 -5.42026e-21)
(0.0343838 0.351634 -1.65517e-20)
(0.0298588 0.357485 5.52479e-21)
(0.0252576 0.363118 2.78694e-23)
(0.0207344 0.368396 -1.6695e-20)
(0.0164039 0.373158 5.55858e-21)
(0.0123346 0.377233 -2.78771e-21)
(0.00854904 0.380458 6.98205e-21)
(0.00500851 0.382694 -3.46696e-21)
(0.00166904 0.383833 -7.02802e-22)
(0.0191899 0.240937 -5.35078e-21)
(0.0277404 0.259579 2.03683e-20)
(0.0352649 0.27628 -5.16865e-21)
(0.0411208 0.289962 -2.10654e-20)
(0.0455182 0.301486 3.15934e-20)
(0.0481574 0.311153 -5.27467e-21)
(0.0491819 0.319474 0)
(0.0487049 0.326869 5.39198e-21)
(0.0469419 0.333686 1.08366e-20)
(0.0441267 0.340167 -5.40147e-21)
(0.0405074 0.346451 5.45971e-21)
(0.0363233 0.352587 -5.43936e-21)
(0.0317951 0.358544 0)
(0.0271166 0.364235 5.47346e-21)
(0.022447 0.369533 5.48211e-21)
(0.0179066 0.374286 0)
(0.0135705 0.378334 -8.23841e-21)
(0.00947015 0.381526 5.50494e-21)
(0.00557675 0.383732 2.77294e-21)
(0.00186179 0.384856 0)
(0.019478 0.235814 4.14154e-22)
(0.0275422 0.254927 -2.02406e-20)
(0.035158 0.272477 5.16362e-21)
(0.0411266 0.28695 2.08948e-20)
(0.0457859 0.299253 -4.18283e-20)
(0.0487464 0.309633 1.56573e-20)
(0.050115 0.318582 0)
(0.0499651 0.326509 5.37568e-21)
(0.0484828 0.333763 -1.06334e-20)
(0.0458834 0.340591 -1.61268e-20)
(0.0424053 0.347143 -5.42249e-21)
(0.0382851 0.353475 2.69678e-20)
(0.0337448 0.359569 -1.07798e-20)
(0.0289818 0.365347 -8.46742e-24)
(0.0241603 0.370691 -8.29839e-24)
(0.0194064 0.375459 0)
(0.0148017 0.379502 1.08645e-20)
(0.0103862 0.382678 -8.13739e-21)
(0.00614119 0.384867 4.07719e-21)
(0.00205254 0.385982 -6.84e-21)
(0.0208284 0.230581 9.78757e-21)
(0.02815 0.250112 -2.04442e-20)
(0.035686 0.268475 2.03311e-20)
(0.0416103 0.283726 0)
(0.0464018 0.2968 2.08342e-20)
(0.0495845 0.307898 -1.55394e-20)
(0.0512229 0.317488 -5.21562e-21)
(0.0513469 0.325968 5.27359e-21)
(0.050108 0.333685 0)
(0.0476984 0.34089 1.58944e-20)
(0.0443432 0.34774 -1.05457e-20)
(0.0402735 0.3543 0)
(0.0357109 0.360561 -1.06887e-20)
(0.0308559 0.366453 1.06613e-20)
(0.0258769 0.371869 -1.07245e-20)
(0.0209055 0.376676 5.34751e-21)
(0.0160301 0.380734 -1.07197e-20)
(0.0112987 0.383911 2.6975e-21)
(0.0067028 0.386095 6.68821e-21)
(0.00224156 0.387207 6.78507e-21)
(0.0233653 0.225282 -9.41306e-21)
(0.0296838 0.245192 -4.02974e-20)
(0.0369384 0.26432 2.01931e-20)
(0.0426439 0.280328 -5.09381e-21)
(0.0474201 0.294157 0)
(0.0507124 0.30597 1.5548e-20)
(0.0525355 0.316207 -1.54165e-20)
(0.0528714 0.325257 0)
(0.0518318 0.33346 0)
(0.0495809 0.341069 -5.24389e-21)
(0.0463267 0.348245 5.25706e-21)
(0.0422918 0.355062 1.05282e-20)
(0.0376957 0.361518 4.96755e-23)
(0.0327403 0.367553 -1.05147e-20)
(0.0275978 0.373067 -5.28343e-21)
(0.022405 0.377936 1.05371e-20)
(0.0172565 0.382029 5.30287e-21)
(0.0122085 0.385223 5.2725e-21)
(0.00726211 0.387414 1.28957e-21)
(0.00242899 0.38853 3.98898e-21)
(0.0272166 0.219962 2.43935e-20)
(0.032275 0.240231 -3.50225e-20)
(0.0390103 0.260064 2.00529e-20)
(0.0443025 0.276803 5.0831e-21)
(0.0488979 0.291359 -2.55099e-20)
(0.0521734 0.303875 1.52244e-20)
(0.0540845 0.314759 -5.10076e-21)
(0.0545611 0.324388 1.54206e-20)
(0.0536692 0.333095 -5.04999e-21)
(0.0515403 0.341131 -2.57672e-20)
(0.048361 0.348661 1.55197e-20)
(0.0443427 0.355763 -5.16534e-21)
(0.0396999 0.362441 0)
(0.0346349 0.368645 5.23032e-21)
(0.0293227 0.374282 -1.03806e-20)
(0.0239045 0.379236 -5.22225e-21)
(0.0184809 0.383385 2.16472e-23)
(0.0131155 0.386612 -1.04405e-20)
(0.00781915 0.388821 -3.92996e-21)
(0.00261481 0.389948 -6.59864e-21)
(0.0325131 0.214668 -1.92464e-20)
(0.0360649 0.235305 -2.50887e-20)
(0.042 0.255772 1.99105e-20)
(0.0466621 0.273205 2.01959e-20)
(0.050893 0.288451 1.02721e-20)
(0.054012 0.301647 -1.50294e-20)
(0.0559035 0.31317 5.07637e-21)
(0.0564399 0.323381 -3.04965e-20)
(0.0556359 0.332604 3.03939e-20)
(0.0535857 0.341086 1.01759e-20)
(0.0504506 0.348993 -5.10926e-21)
(0.0464269 0.356404 2.0378e-20)
(0.0417225 0.363332 -1.01953e-20)
(0.0365377 0.36973 1.02343e-20)
(0.0310491 0.375514 0)
(0.0254018 0.380575 -5.11093e-21)
(0.0197014 0.384798 5.14924e-21)
(0.0140185 0.388074 -5.12059e-21)
(0.00837325 0.390313 -5.12529e-21)
(0.00279878 0.391457 0)
(0.0393881 0.209452 3.85079e-20)
(0.0412006 0.230503 3.98175e-22)
(0.0460056 0.251521 -1.97639e-20)
(0.0497963 0.269601 0)
(0.0534624 0.285487 -5.00219e-21)
(0.0562733 0.299328 -4.97555e-21)
(0.0580267 0.31147 0)
(0.058532 0.322258 3.47525e-23)
(0.0577475 0.332002 -5.02819e-21)
(0.0557255 0.340945 -1.00334e-20)
(0.052598 0.349247 0)
(0.0485434 0.356991 -1.00566e-20)
(0.0437597 0.364192 0)
(0.0384436 0.370808 -1.00779e-20)
(0.0327719 0.376761 0)
(0.026892 0.38195 1.51527e-20)
(0.0209141 0.386266 -5.04762e-21)
(0.0149146 0.389607 1.01183e-20)
(0.00892282 0.391887 5.08119e-21)
(0.00298046 0.393055 5.09475e-21)
(0.0479701 0.204279 0)
(0.0478291 0.225818 0)
(0.0511204 0.247328 2.22559e-20)
(0.0537715 0.26601 -2.20621e-20)
(0.0566598 0.282481 0)
(0.0590013 0.296928 4.95286e-21)
(0.0604884 0.309665 1.98318e-20)
(0.0608619 0.32102 -3.45499e-20)
(0.060019 0.331287 3.95237e-20)
(0.0579665 0.340701 -1.47424e-20)
(0.0548036 0.349416 2.46483e-21)
(0.0506874 0.357515 2.50111e-21)
(0.045804 0.365012 0)
(0.0403437 0.371871 7.44708e-21)
(0.0344819 0.378017 -7.44518e-21)
(0.028367 0.383356 -4.99908e-21)
(0.0221122 0.387784 9.94626e-21)
(0.0157991 0.391206 -1.24629e-20)
(0.0094651 0.39354 1.24456e-21)
(0.00315913 0.394737 -3.79169e-21)
(0.058315 0.199009 -1.92306e-20)
(0.056089 0.221093 -1.22007e-21)
(0.0574342 0.243087 -2.20685e-20)
(0.0586481 0.262339 2.18509e-20)
(0.0605367 0.279354 0)
(0.0622409 0.294378 1.21518e-21)
(0.0633251 0.307695 2.0785e-20)
(0.0634556 0.319615 1.60508e-22)
(0.0624658 0.330415 -1.81837e-20)
(0.0603145 0.340317 -9.77047e-21)
(0.0570654 0.349468 -1.29282e-21)
(0.0528516 0.357948 1.33717e-20)
(0.0478442 0.365769 0)
(0.0422252 0.372899 -1.23154e-21)
(0.0361661 0.379266 3.66595e-21)
(0.0298146 0.384779 -4.89333e-21)
(0.0232858 0.389342 4.88671e-21)
(0.0166647 0.392864 2.45132e-21)
(0.009996 0.395265 -2.45203e-21)
(0.00333396 0.3965 0)
(0.07029 0.194589 2.24401e-20)
(0.0660831 0.216938 -2.13884e-20)
(0.0650265 0.239205 4.53094e-20)
(0.064479 0.25887 -2.25138e-20)
(0.0651478 0.276326 2.27391e-20)
(0.0660446 0.291861 -2.39336e-20)
(0.0665811 0.305724 -1.41743e-21)
(0.0663455 0.318191 0)
(0.0651077 0.32952 -2.4106e-20)
(0.0627774 0.339913 2.25209e-20)
(0.059381 0.349509 9.91898e-21)
(0.0550257 0.35838 -1.26827e-20)
(0.0498652 0.366538 1.13245e-20)
(0.0440703 0.37395 -1.2685e-20)
(0.0378064 0.380548 -1.41575e-21)
(0.0312182 0.386248 -5.64942e-21)
(0.0244207 0.390955 5.63225e-21)
(0.017501 0.394586 0)
(0.0105096 0.397061 1.40847e-21)
(0.00350415 0.39834 -1.41895e-21)
(0.0977062 0.193371 0)
(0.0899186 0.21414 0)
(0.0834308 0.23548 0)
(0.0788405 0.255045 0)
(0.0767283 0.272698 0)
(0.0757022 0.288763 0)
(0.0748451 0.303381 0)
(0.0736035 0.31673 0)
(0.0716325 0.328988 0)
(0.0687465 0.340297 0)
(0.0648953 0.350747 0)
(0.0601271 0.360379 0)
(0.0545524 0.369188 0)
(0.048312 0.377137 0)
(0.0415516 0.384165 0)
(0.0344055 0.390195 0)
(0.026986 0.395149 0)
(0.0193834 0.398953 0)
(0.0116635 0.40154 0)
(0.00389205 0.40287 0)
(0.146462 0.222617 0)
(0.132183 0.23397 0)
(0.118664 0.248157 0)
(0.107773 0.263225 0)
(0.100574 0.278219 0)
(0.095612 0.292827 0)
(0.0917041 0.306871 0)
(0.0881137 0.320266 0)
(0.0843292 0.33297 0)
(0.0800119 0.344941 0)
(0.0749817 0.35613 0)
(0.0691839 0.366478 0)
(0.062651 0.375918 0)
(0.0554675 0.384386 0)
(0.0477414 0.391814 0)
(0.0395836 0.39814 0)
(0.0310961 0.403301 0)
(0.0223684 0.407242 0)
(0.0134783 0.409911 0)
(0.00450127 0.411269 0)
(0.195366 0.250358 0)
(0.175688 0.256287 0)
(0.156877 0.264816 0)
(0.140659 0.275395 0)
(0.128492 0.287197 0)
(0.119248 0.299716 0)
(0.111778 0.312592 0)
(0.105286 0.325539 0)
(0.0991585 0.33831 0)
(0.0929371 0.350681 0)
(0.0863242 0.362448 0)
(0.0791628 0.373433 0)
(0.0714027 0.38349 0)
(0.0630656 0.392504 0)
(0.0542144 0.40039 0)
(0.0449299 0.407081 0)
(0.0352966 0.41252 0)
(0.0253966 0.41666 0)
(0.0153094 0.419457 0)
(0.00511449 0.420872 0)
(0.239507 0.277837 0)
(0.217383 0.280381 0)
(0.195483 0.284783 0)
(0.175402 0.291429 0)
(0.158983 0.29995 0)
(0.145635 0.309987 0)
(0.134465 0.32119 0)
(0.124769 0.333185 0)
(0.115932 0.345586 0)
(0.107437 0.358013 0)
(0.0989048 0.370111 0)
(0.0900894 0.381575 0)
(0.0808615 0.392162 0)
(0.071177 0.401691 0)
(0.0610487 0.41004 0)
(0.0505215 0.417123 0)
(0.0396562 0.422879 0)
(0.0285215 0.427257 0)
(0.017191 0.430212 0)
(0.00574322 0.431703 0)
(0.277786 0.304738 0)
(0.255176 0.305694 0)
(0.232046 0.30745 0)
(0.209703 0.311036 0)
(0.190158 0.316597 0)
(0.173347 0.32408 0)
(0.158749 0.333297 0)
(0.145865 0.343919 0)
(0.134182 0.355515 0)
(0.123207 0.367604 0)
(0.112527 0.379709 0)
(0.101842 0.391406 0)
(0.090956 0.402346 0)
(0.0797646 0.412275 0)
(0.0682298 0.421015 0)
(0.0563578 0.428453 0)
(0.0441816 0.434509 0)
(0.0317512 0.439121 0)
(0.0191297 0.442236 0)
(0.0063899 0.443808 0)
(0.309724 0.329838 0)
(0.287931 0.330614 0)
(0.264953 0.331149 0)
(0.241771 0.332799 0)
(0.220329 0.336115 0)
(0.200961 0.341372 0)
(0.18351 0.348625 0)
(0.16774 0.357691 0)
(0.153313 0.368192 0)
(0.139831 0.379624 0)
(0.12691 0.391439 0)
(0.114231 0.403117 0)
(0.101561 0.414215 0)
(0.0887476 0.4244 0)
(0.0757075 0.433434 0)
(0.0624091 0.441164 0)
(0.0488562 0.447482 0)
(0.0350775 0.452308 0)
(0.021122 0.455575 0)
(0.00705365 0.457225 0)
(0.335391 0.352301 0)
(0.315258 0.353971 0)
(0.293388 0.354503 0)
(0.270474 0.35535 0)
(0.24825 0.357318 0)
(0.227288 0.360946 0)
(0.207724 0.366541 0)
(0.189573 0.374119 0)
(0.172704 0.383427 0)
(0.156859 0.394012 0)
(0.141736 0.405314 0)
(0.127043 0.41676 0)
(0.112535 0.427836 0)
(0.0980344 0.438135 0)
(0.0834245 0.44736 0)
(0.0686411 0.45531 0)
(0.0536606 0.461845 0)
(0.0384903 0.46686 0)
(0.0231635 0.470265 0)
(0.00773328 0.471988 0)
(0.355241 0.371751 0)
(0.337295 0.37515 0)
(0.317147 0.376655 0)
(0.295281 0.377697 0)
(0.27317 0.379213 0)
(0.251492 0.381928 0)
(0.230582 0.386354 0)
(0.210659 0.392709 0)
(0.191782 0.400904 0)
(0.173857 0.410592 0)
(0.156692 0.421259 0)
(0.140056 0.432323 0)
(0.12373 0.44323 0)
(0.10753 0.453517 0)
(0.0913218 0.462834 0)
(0.0750191 0.470934 0)
(0.0585756 0.477638 0)
(0.0419797 0.482811 0)
(0.0252497 0.486338 0)
(0.00842761 0.488127 0)
(0.369959 0.388022 0)
(0.354515 0.39383 0)
(0.336455 0.397083 0)
(0.316141 0.399146 0)
(0.294796 0.401022 0)
(0.27312 0.403545 0)
(0.251563 0.407376 0)
(0.230484 0.412908 0)
(0.210096 0.420217 0)
(0.190456 0.429095 0)
(0.171496 0.439112 0)