/*--------------------------------*- C++ -*----------------------------------*\
  =========                 |
  \\      /  F ield         | OpenFOAM: The Open Source CFD Toolbox
   \\    /   O peration     | Website:  https://openfoam.org
    \\  /    A nd           | Version:  7
     \\/     M anipulation  |
\*---------------------------------------------------------------------------*/
FoamFile
{
    version     2.0;
    format      ascii;
    class       surfaceScalarField;
    location    "4.1";
    object      phi;
}
// * * * * * * * * * * * * * * * * * * * * * * * * * * * * * * * * * * * * * //

dimensions      [0 3 -1 0 0 0 0];

internalField   nonuniform List<scalar> 
35640
(
-3.9458e-05
0.000594896
-0.000555438
-0.000129122
0.00170998
-0.00162031
-0.000253663
0.0027834
-0.00265886
-0.000400574
0.00376167
-0.00361476
-0.000559755
0.00463495
-0.00447577
-0.000722815
0.00540992
-0.00524686
-0.00088283
0.00609695
-0.00593693
-0.00103418
0.00670521
-0.00655386
-0.00117229
0.00724092
-0.00710281
-0.0012935
0.00770758
-0.00758637
-0.00139492
0.00810654
-0.00800511
-0.00147427
0.00843809
-0.00835874
-0.00152969
0.00870227
-0.00864685
-0.00155973
0.00889956
-0.00886952
-0.0015632
0.00903116
-0.00902769
-0.00153912
0.00909921
-0.00912329
-0.00148668
0.00910676
-0.0091592
-0.00140516
0.00905767
-0.00913919
-0.00129399
0.00895656
-0.00906772
-0.00115272
0.00880859
-0.00894986
-0.000981005
0.00861932
-0.00879104
-0.000778703
0.00839463
-0.00859693
-0.000545935
0.00814055
-0.00837332
-0.00028318
0.00786324
-0.00812599
8.59596e-06
0.00756894
-0.00786072
0.000327759
0.00726392
-0.00758308
0.000671813
0.00695448
-0.00729854
0.00103715
0.00664674
-0.00701207
0.0014188
0.00634966
-0.00673131
0.00607401
0.00181017
-0.00646538
-3.80189e-05
0.000632913
-0.000124329
0.00179629
-0.000244474
0.00290355
-0.000386685
0.00390388
-0.000541358
0.00478963
-0.000700425
0.00556899
-0.000857068
0.00625359
-0.00100565
0.00685379
-0.0011416
0.00737687
-0.00126125
0.00782723
-0.00136167
0.00820696
-0.00144049
0.00851691
-0.00149582
0.0087576
-0.00152609
0.00892983
-0.00152999
0.00903506
-0.00150639
0.0090756
-0.00145428
0.00905465
-0.0013728
0.00897619
-0.00126115
0.0088449
-0.00111862
0.00866606
-0.000944686
0.00844538
-0.000739003
0.00818895
-0.000501516
0.00790306
-0.000232537
0.00759426
6.71131e-05
0.00726929
0.000395893
0.00693514
0.000751359
0.00659902
0.00112986
0.00626823
0.00152619
0.00595333
0.00566708
0.00193312
-3.59382e-05
0.00066885
-0.0001175
0.00187785
-0.000231414
0.00301746
-0.000366766
0.00403924
-0.000514561
0.00493742
-0.000667062
0.00572149
-0.000817643
0.00640417
-0.000960734
0.00699688
-0.00109178
0.00750792
-0.00120705
0.0079425
-0.00130358
0.00830349
-0.00137896
0.00859229
-0.00143121
0.00880985
-0.00145869
0.00895731
-0.00145998
0.00903634
-0.00143381
0.00904944
-0.00137905
0.00899988
-0.00129463
0.00889177
-0.00117959
0.00872986
-0.00103308
0.00851956
-0.000854415
0.00826672
-0.000643088
0.00797762
-0.000398891
0.00765886
-0.000122005
0.00731737
0.000186871
0.00696041
0.00052636
0.00659565
0.000894132
0.00623125
0.00128658
0.00587578
0.0016984
0.00554151
0.00524361
0.00212187
-3.32578e-05
0.000702108
-0.000108904
0.00195349
-0.000214849
0.00312341
-0.000341232
0.00416562
-0.000479726
0.00507592
-0.000623045
0.00586481
-0.000764813
0.00654594
-0.000899512
0.00713158
-0.00102262
0.00763102
-0.00113043
0.00805031
-0.00121989
0.00839296
-0.00128856
0.00866096
-0.00133441
0.0088557
-0.00135571
0.00897861
-0.00135095
0.00903159
-0.00131876
0.00901725
-0.00125789
0.00893901
-0.00116716
0.00880104
-0.00104549
0.00860819
-0.000891918
0.00836598
-0.000705639
0.00808044
-0.000486072
0.00775805
-0.000232922
0.00740571
5.3728e-05
0.00703072
0.000373306
0.00664083
0.00072459
0.00624437
0.00110544
0.0058504
0.00151243
0.00546879
0.00194034
0.0051136
0.00480289
0.00238106
-3.00532e-05
0.000732161
-9.85698e-05
0.00202201
-0.000194842
0.00321968
-0.000310154
0.00428093
-0.000436966
0.00520273
-0.000568467
0.00599632
-0.00069855
0.00667602
-0.000821872
0.0072549
-0.000933939
0.00774309
-0.00103101
0.00814738
-0.00111003
0.00847198
-0.0011685
0.00871943
-0.00120435
0.00889154
-0.00121578
0.00899004
-0.00120121
0.00901702
-0.00115921
0.00897526
-0.00108846
0.00886825
-0.000987683
0.00870026
-0.00085575
0.00847626
-0.000691656
0.00820189
-0.000494569
0.00788335
-0.000263877
0.00752736
7.39107e-07
0.0071411
0.000299234
0.00673223
0.000631131
0.00630894
0.000995361
0.00588014
0.00139003
0.00545572
0.00181202
0.00504681
0.00225632
0.00466929
0.00434452
0.0027147
-2.63505e-05
0.000758511
-8.66396e-05
0.0020823
-0.000171678
0.00330472
-0.000273957
0.00438321
-0.000386759
0.00531553
-0.000503825
0.00611338
-0.000619392
0.00679159
-0.000728288
0.0073638
-0.000826069
0.00784087
-0.000909008
0.00823032
-0.000974032
0.008537
-0.00101861
0.008764
-0.00104061
0.00891354
-0.00103821
0.00898764
-0.0010098
0.00898861
-0.000953909
0.00891937
-0.000869161
0.00878351
-0.000754296
0.0085854
-0.00060818
0.00833014
-0.000429824
0.00802353
-0.000218433
0.00767196
2.65556e-05
0.00728237
0.000305412
0.00686224
0.000618075
0.00641956
0.000964101
0.00596291
0.00134255
0.00550169
0.00175179
0.00504648
0.00218908
0.00460952
0.00264985
0.00420852
0.00386844
0.00312593
-2.22411e-05
0.000780753
-7.334e-05
0.0021334
-0.000145708
0.00337709
-0.000233076
0.00447058
-0.00032964
0.0054121
-0.000429733
0.00621347
-0.000527945
0.0068898
-0.000619335
0.00745519
-0.000699551
0.00792109
-0.000764879
0.00829565
-0.000812237
0.00858436
-0.000839074
0.00879084
-0.000843242
0.00891771
-0.000822901
0.0089673
-0.000776427
0.00894214
-0.000702349
0.00884529
-0.00059932
0.00868048
-0.000466122
0.0084522
-0.000301685
0.0081657
-0.000105109
0.00782695
0.000124296
0.00744255
0.000386969
0.00701969
0.000683063
0.00656615
0.00101243
0.0060902
0.00137459
0.00560075
0.00176868
0.0051076
0.0021933
0.00462186
0.00264613
0.00415669
0.00312321
0.00373144
0.0033749
0.00361675
-1.78224e-05
0.000798576
-5.89079e-05
0.00217448
-0.000117336
0.00343552
-0.000188112
0.00454135
-0.000266346
0.00549033
-0.000347009
0.00629414
-0.000425115
0.00696791
-0.000495971
0.00752605
-0.000555335
0.00798045
-0.000599548
0.00833987
-0.00062554
0.00861035
-0.00063075
0.00879605
-0.000613026
0.00889999
-0.000570539
0.00892481
-0.000501692
0.00887329
-0.000405056
0.00874865
-0.000279361
0.00855478
-0.000123493
0.00829633
6.34935e-05
0.00797872
0.00028235
0.0076081
0.00053359
0.00719131
0.000817461
0.00673582
0.00113394
0.00624967
0.0014827
0.00574143
0.00186316
0.00522029
0.00227445
0.0046963
0.00271536
0.00418095
0.00318398
0.00368806
0.00367706
0.00323836
0.00286447
0.00418748
-1.31788e-05
0.000811754
-4.36253e-05
0.00220493
-8.70664e-05
0.00347896
-0.000139772
0.00459406
-0.00019778
0.00554834
-0.000256736
0.00635309
-0.000312112
0.00702329
-0.000359498
0.00757343
-0.000394807
0.00801576
-0.000414461
0.00835952
-0.000415423
0.00861131
-0.000395145
0.00877577
-0.000351501
0.00885634
-0.000282698
0.00885601
-0.000187199
0.00877779
-6.36692e-05
0.00862512
8.90339e-05
0.00840208
0.000271868
0.0081135
0.000485596
0.00776499
0.000730756
0.00736294
0.00100763
0.00691444
0.00131621
0.00642724
0.00165623
0.00590965
0.00202715
0.00537052
0.00242817
0.00481927
0.00285834
0.00426613
0.00331653
0.00372276
0.00380121
0.00320338
0.00430987
0.00272971
0.00233799
0.00483635
-8.41716e-06
0.000820172
-2.78003e-05
0.00222432
-5.54594e-05
0.00350662
-8.88826e-05
0.00462748
-0.000125023
0.00558448
-0.00016022
0.00638829
-0.000190441
0.00705351
-0.000211595
0.00759459
-0.0002198
0.00802397
-0.000211592
0.00835131
-0.000183992
0.00858371
-0.000134501
0.00872628
-6.10454e-05
0.00878289
3.80973e-05
0.00875687
0.000164365
0.00865152
0.000318952
0.00847053
0.000502824
0.00821821
0.00071673
0.00789959
0.000961197
0.00752052
0.00123649
0.00708764
0.00154261
0.00660832
0.00187926
0.00609059
0.00224587
0.00554304
0.0026416
0.00497479
0.00306541
0.00439546
0.00351616
0.00381538
0.0039927
0.00324622
0.00449376
0.00270232
0.00501753
0.00220593
0.00179648
0.00555905
-3.64512e-06
0.000823817
-1.17611e-05
0.00223243
-2.31287e-05
0.00351798
-3.63643e-05
0.00464072
-4.92995e-05
0.00559742
-5.89778e-05
0.00639797
-6.18893e-05
0.00705642
-5.43081e-05
0.00758701
-3.25985e-05
0.00800226
6.54773e-06
0.00831216
6.60062e-05
0.00852425
0.000148193
0.00864409
0.000255097
0.00867598
0.000388333
0.00862363
0.000549193
0.00849066
0.000738684
0.00828104
0.000957553
0.00799934
0.00120629
0.00765085
0.00148514
0.00724167
0.00179405
0.00677873
0.00213269
0.00626968
0.00250043
0.00572284
0.00289637
0.0051471
0.00331933
0.00455183
0.00376798
0.00394681
0.00424092
0.00334244
0.00473686
0.00275029
0.00525465
0.00218453
0.0057931
0.00166748
0.00124106
0.00634851
1.04159e-06
0.000822776
4.14743e-06
0.00222933
9.27529e-06
0.00351286
1.67911e-05
0.00463321
2.80403e-05
0.00558617
4.52858e-05
0.00638072
7.14937e-05
0.00703021
0.000109982
0.00754852
0.000164088
0.00794815
0.000236917
0.00823934
0.000331195
0.00842998
0.000449213
0.00852607
0.000592831
0.00853236
0.000763511
0.00845295
0.00096236
0.00829181
0.00119015
0.00805325
0.00144737
0.00774212
0.00173421
0.00736401
0.00205058
0.00692531
0.00239607
0.00643324
0.00276999
0.00589575
0.00317137
0.00532147
0.00359893
0.00471954
0.00405116
0.0040996
0.00452637
0.00347159
0.00502287
0.00284594
0.00553914
0.00223402
0.006074
0.00164966
0.00662672
0.00111476
0.000672937
0.00719485
5.51558e-06
0.000817261
1.95782e-05
0.00221526
4.10858e-05
0.00349135
6.95455e-05
0.00460475
0.000105558
0.00555015
0.000150722
0.00633556
0.000207446
0.00697349
0.000278597
0.00747737
0.000367165
0.00785958
0.000475997
0.0081305
0.000607619
0.00829835
0.000764143
0.00836955
0.000947254
0.00834925
0.00115821
0.00824199
0.0013979
0.00805213
0.00166681
0.00778434
0.00196513
0.0074438
0.0022927
0.00703643
0.00264908
0.00656894
0.00303347
0.00604884
0.00344483
0.0054844
0.00388178
0.00488452
0.00434269
0.00425863
0.00482569
0.00361659
0.00532876
0.00296853
0.00584984
0.00232486
0.00638714
0.00169672
0.00693934
0.00109746
0.00750593
0.000548174
9.32523e-05
0.00808561
9.68127e-06
0.00080758
3.41925e-05
0.00219075
7.16406e-05
0.0034539
0.000120848
0.00455554
0.000181771
0.00548923
0.00025539
0.00626194
0.000343548
0.00688533
0.000448628
0.00737229
0.000573225
0.00773499
0.00071987
0.00798386
0.000890827
0.0081274
0.00108798
0.0081724
0.00131277
0.00812446
0.00156622
0.00798853
0.00184893
0.00776942
0.0021611
0.00747217
0.00250255
0.00710235
0.00287278
0.0066662
0.00327093
0.00617078
0.00369585
0.00562393
0.00414607
0.00503418
0.00461986
0.00441073
0.00511521
0.00376328
0.00562991
0.0031019
0.00616158
0.00243686
0.00670784
0.00177859
0.00726657
0.001138
0.00783619
0.00052784
0.00841624
-3.18763e-05
-0.000496861
0.00900635
1.34395e-05
0.000794141
4.76717e-05
0.00215652
0.000100305
0.00340127
0.000169672
0.00448617
0.000255203
0.0054037
0.000357317
0.00615983
0.000477303
0.00676535
0.000617031
0.00723256
0.000778654
0.00757336
0.000964329
0.00779818
0.001176
0.00791573
0.00141525
0.00793315
0.00168324
0.00785647
0.0019807
0.00769107
0.0023079
0.00744222
0.00266471
0.00711537
0.00305057
0.00671648
0.0034646
0.00625217
0.00390554
0.00572984
0.00437184
0.00515763
0.00486166
0.00454437
0.00537287
0.00389952
0.00590311
0.00323303
0.00644984
0.00255518
0.00701034
0.00187636
0.00758191
0.00120702
0.00816207
0.000557843
0.00874894
-5.90359e-05
0.00934194
-0.000624877
-0.00109628
0.00994136
1.67031e-05
0.000777438
5.97309e-05
0.00211349
0.000126498
0.0033345
0.000215057
0.00439761
0.000324443
0.00529431
0.000454587
0.00602969
0.000606238
0.0066137
0.000780739
0.00705806
0.000979765
0.00737434
0.00120504
0.00757291
0.00145812
0.00766264
0.00174025
0.00765102
0.00205224
0.00754447
0.00239448
0.00734884
0.00276688
0.00706982
0.00316893
0.00671332
0.00359972
0.00628569
0.00405794
0.00579395
0.00454195
0.00524583
0.0050498
0.00464978
0.00557926
0.0040149
0.00612786
0.00335092
0.00669287
0.00266802
0.00727141
0.00197663
0.00786047
0.0012873
0.00845701
0.000610479
0.0090582
-4.33528e-05
0.00966184
-0.000662679
0.0102671
-0.00123013
-0.0017038
0.0108746
1.94008e-05
0.000758038
7.01309e-05
0.00206276
0.000149719
0.00325491
0.000256155
0.00429118
0.000388215
0.00516225
0.00054542
0.00587248
0.000728013
0.00643111
0.000936808
0.00684927
0.00117297
0.00713818
0.00143774
0.00730813
0.00173224
0.00736814
0.0020573
0.00732596
0.00241336
0.00718842
0.0028004
0.00696179
0.00321797
0.00665225
0.00366516
0.00626612
0.00414066
0.00581019
0.00464279
0.00529183
0.00516949
0.00471912
0.00571846
0.00410081
0.00628707
0.00344628
0.0068725
0.0027655
0.00747167
0.00206884
0.00808137
0.00136694
0.00869825
0.000670418
0.00931898
-1.02438e-05
0.00994038
-0.000664758
0.0105599
-0.00128221
0.0111764
-0.00184662
-0.00231806
0.0117907
2.14804e-05
0.000736557
7.8691e-05
0.00200555
0.000169577
0.00316403
0.000292275
0.00416848
0.000445441
0.00500909
0.000628272
0.00568965
0.00084055
0.00621883
0.00108257
0.00660725
0.00135496
0.00686579
0.00165846
0.00700463
0.00199371
0.0070329
0.00236107
0.0069586
0.00276056
0.00678893
0.00319175
0.0065306
0.00365378
0.00619022
0.00414536
0.00577454
0.00466479
0.00529076
0.00520997
0.00474664
0.00577851
0.00415059
0.0063677
0.00351162
0.00697456
0.00283942
0.00759588
0.00214417
0.00822824
0.00143649
0.00886805
0.000727123
0.00951165
2.68235e-05
0.0101553
-0.000653945
0.0107957
-0.00130509
0.0114298
-0.00191629
0.0120561
-0.00247296
-0.00293742
0.0126755
2.29118e-05
0.000713646
8.52994e-05
0.00194317
0.000185809
0.00306352
0.000322922
0.00403137
0.000495308
0.0048367
0.00070193
0.00548303
0.000942163
0.0059786
0.00121581
0.0063336
0.00152296
0.00655864
0.00186382
0.00666378
0.00223851
0.00665821
0.00264692
0.00655018
0.00308862
0.00634723
0.00356274
0.00605648
0.00406801
0.00568495
0.00460274
0.00523981
0.00516486
0.00472865
0.00575189
0.00415961
0.00636107
0.00354141
0.00698931
0.00288339
0.00763324
0.00219549
0.00828925
0.00148816
0.00895352
0.000772214
0.00962208
5.85657e-05
0.0102909
-0.000641973
0.0109559
-0.00131897
0.0116134
-0.00196256
0.0122601
-0.00256303
0.0128943
-0.00310719
-0.00355981
0.0135167
2.36898e-05
0.000689956
8.99221e-05
0.00187693
0.000198303
0.00295514
0.000347838
0.00388183
0.000537332
0.00464721
0.000765605
0.00525476
0.00103169
0.00571251
0.00133493
0.00603037
0.00167489
0.00621868
0.00205124
0.00628742
0.00246359
0.00624586
0.00291133
0.00610244
0.00339356
0.00586501
0.00390898
0.00554107
0.00445591
0.00513801
0.00503228
0.00466343
0.00563563
0.0041253
0.00626312
0.00353212
0.00691159
0.00289294
0.00757755
0.00221743
0.0082572
0.00151583
0.00894649
0.000798877
0.00964112
7.75746e-05
0.0103367
-0.000637008
0.0110287
-0.00133402
0.0117129
-0.00200313
0.0123851
-0.00263478
0.013042
-0.00321991
0.0136815
-0.00374673
-0.00418263
0.0143044
2.38358e-05
0.00066612
9.26095e-05
0.00180816
0.000207113
0.00284063
0.00036703
0.00372191
0.000571408
0.00444283
0.000819012
0.00500716
0.0011086
0.00542292
0.00143911
0.00569986
0.00180961
0.00584817
0.00221927
0.00587777
0.00266717
0.00579796
0.00315222
0.00561739
0.00367305
0.00534418
0.00422794
0.00498617
0.00481483
0.00455113
0.00543124
0.00404703
0.00607431
0.00348222
0.00674084
0.0028656
0.00742721
0.00220656
0.00812949
0.00151515
0.00884338
0.000801947
0.00956428
7.7972e-05
0.0102874
-0.000645541
0.0110078
-0.00135741
0.0117206
-0.00204681
0.0124211
-0.00270361
0.0131049
-0.00331865
0.0137687
-0.00388366
0.0144103
-0.00438832
-0.00480269
0.0150303
2.33991e-05
0.000642721
9.34996e-05
0.00173806
0.000212469
0.00272166
0.000380786
0.0035536
0.000597842
0.00422577
0.000862424
0.00474257
0.0011731
0.00511225
0.00152844
0.00534452
0.00192708
0.00544952
0.00236772
0.00543713
0.00284895
0.00531672
0.00336922
0.00509712
0.0039267
0.00478669
0.00451928
0.00439359
0.00514447
0.00392594
0.00579941
0.00339209
0.00648081
0.00280082
0.00718501
0.0021614
0.0079079
0.00148367
0.008645
0.000778059
0.00939139
5.55489e-05
0.0101419
-0.000672529
0.0108911
-0.00139473
0.0116335
-0.00209983
0.0123638
-0.00277712
0.013077
-0.0034168
0.0137687
-0.00401032
0.0144353
-0.0045503
0.015075
-0.00502799
-0.00541628
0.0156886
2.24561e-05
0.000620265
9.28174e-05
0.0016677
0.000214771
0.00259971
0.000389684
0.00337868
0.000617364
0.0039981
0.000896701
0.00446324
0.00122613
0.00478282
0.00160396
0.0049667
0.00202844
0.00502504
0.00249783
0.00496774
0.0030103
0.00480425
0.00356385
0.00454356
0.00415624
0.0041943
0.00478493
0.0037649
0.005447
0.00326386
0.00613916
0.00269994
0.00685762
0.00208236
0.00759817
0.00142085
0.00835611
0.00072573
0.00912625
7.91116e-06
0.00990302
-0.000721218
0.0106805
-0.00145002
0.0114527
-0.00216689
0.0122135
-0.00286064
0.0129572
-0.00352086
0.0136787
-0.00413828
0.0143735
-0.00470514
0.0150384
-0.00521514
0.0156716
-0.00566123
-0.00601925
0.0162746
2.11081e-05
0.000599157
9.0868e-05
0.00159794
0.000214585
0.00247599
0.000394572
0.0031987
0.000631115
0.00376155
0.000923272
0.00417108
0.00126943
0.00443666
0.00166768
0.00456845
0.00211599
0.00457674
0.00261223
0.0044715
0.00315419
0.00426229
0.00373946
0.0039583
0.00436536
0.0035684
0.00502893
0.00310134
0.00572677
0.00256602
0.00645502
0.00197168
0.00720934
0.00132804
0.00798482
0.00064537
0.00877601
-6.54597e-05
0.00957694
-0.000793024
0.0103812
-0.00152552
0.0111823
-0.00225105
0.0119734
-0.00295797
0.012748
-0.0036353
0.0135002
-0.00427309
0.0142248
-0.00486285
0.0149175
-0.00539782
0.0155754
-0.005873
0.0161973
-0.00628316
-0.00660727
0.0167853
1.9478e-05
0.000579679
8.80259e-05
0.00152939
0.000212616
0.0023514
0.000396537
0.00301478
0.000640599
0.00351749
0.000944085
0.0038676
0.0013054
0.00407534
0.00172251
0.00415134
0.00219313
0.00410612
0.00271484
0.00394978
0.00328506
0.00369208
0.00390096
0.0033424
0.00455944
0.00290991
0.00525702
0.00240377
0.00598972
0.00183332
0.00675304
0.00120837
0.00754186
0.000539218
0.00835046
-0.00016323
0.00917251
-0.000887504
0.0100011
-0.00162167
0.0108292
-0.00235356
0.0116493
-0.00307114
0.0124542
-0.00376291
0.0132372
-0.0044183
0.0139922
-0.00502807
0.0147141
-0.00558474
0.015399
-0.00608274
0.0160446
-0.00651855
0.0166503
-0.00688888
-0.00717605
0.0172191
1.77057e-05
0.000561973
8.47183e-05
0.00146238
0.000209678
0.00222644
0.000396857
0.0028276
0.000647615
0.00326673
0.000961504
0.00355371
0.00133701
0.00369983
0.00177203
0.00371633
0.0022641
0.00361405
0.00281052
0.00340336
0.00340835
0.00309425
0.00405434
0.0026964
0.00474488
0.00221938
0.00547585
0.00167279
0.00624258
0.00106659
0.00703972
0.000411229
0.00786124
-0.000282305
0.00870044
-0.00100243
0.00955001
-0.00173708
0.0104022
-0.00247385
0.011249
-0.00320039
0.0120826
-0.0039047
0.0128953
-0.00457566
0.0136804
-0.00520338
0.0144319
-0.00577959
0.0151452
-0.00629799
0.0158168
-0.0067544
0.0164451
-0.00714679
0.0170301
-0.00747387
-0.00772146
0.0175755
1.59415e-05
0.000546032
8.14049e-05
0.00139691
0.000206657
0.00210119
0.000396934
0.00263732
0.000654151
0.00300952
0.000978164
0.00322969
0.00136758
0.00331041
0.00182027
0.00326364
0.00233362
0.0031007
0.00290465
0.00283232
0.00353004
0.00246886
0.00420602
0.00202042
0.00492835
0.00149705
0.00569213
0.000909005
0.00649179
0.000266937
0.00732097
-0.000417953
0.00817258
-0.00113391
0.00903883
-0.00186868
0.00991141
-0.00260966
0.0107817
-0.00334417
0.0116412
-0.00405985
0.0124816
-0.00474508
0.0132953
-0.00538939
0.0140758
-0.00598386
0.0148176
-0.00652141
0.0155166
-0.00699704
0.0161702
-0.00740797
0.016777
-0.00775361
0.0173377
-0.00803453
-0.00823957
0.0178558
1.43384e-05
0.000531693
7.85548e-05
0.0013327
0.000204461
0.00197528
0.000398213
0.00244357
0.000662271
0.00274546
0.0009968
0.00289517
0.00140055
0.00290666
0.00187138
0.00279282
0.00240651
0.00256557
0.00300264
0.00223619
0.00365596
0.00181554
0.00436207
0.00131431
0.0051159
0.000743222
0.00591161
0.000113296
0.00674251
-0.000563964
0.00760108
-0.00127653
0.00847905
-0.00201188
0.00936753
-0.00275716
0.0102573
-0.00349942
0.0111391
-0.00422595
0.012004
-0.00492474
0.0128438
-0.00558486
0.0136513
-0.00619689
0.0144205
-0.00675313
0.015147
-0.00724785
0.0158273
-0.00767735
0.0164593
-0.00804001
0.0170421
-0.00833638
0.0175762
-0.00856865
-0.00872687
0.0180635
1.30449e-05
0.000518648
7.66223e-05
0.00126912
0.000203973
0.00184793
0.000402099
0.00224544
0.000673973
0.00247358
0.00102006
0.00254908
0.00143923
0.00248748
0.00192929
0.00230275
0.00248724
0.00200762
0.00310934
0.00161409
0.00379116
0.00113373
0.00452746
0.000578005
0.00531217
-4.14885e-05
0.00613827
-0.000712799
0.0069978
-0.00142349
0.00788196
-0.00216069
0.00878128
-0.0029112
0.00968586
-0.00366174
0.0105857
-0.0043993
0.0114713
-0.00511152
0.0123337
-0.00578711
0.0131651
-0.00641628
0.0139592
-0.00699099
0.0147112
-0.0075051
0.0154177
-0.00795439
0.0160767
-0.00833638
0.0166867
-0.00864997
0.0172456
-0.00889523
0.0177498
-0.00907295
-0.00918083
0.0182038
1.21956e-05
0.000506452
7.60247e-05
0.00120529
0.000206001
0.00171795
0.000409875
0.00204157
0.00069107
0.00219239
0.0010503
0.00218985
0.00148651
0.00205128
0.00199736
0.0017919
0.00257948
0.0014255
0.00322857
0.000965
0.00393934
0.000422958
0.00470552
-0.000188175
0.00551979
-0.000855758
0.00637377
-0.00156679
0.00725815
-0.00230787
0.00816281
-0.00306536
0.00907718
-0.00382557
0.00999055
-0.00457512
0.0108926
-0.0053013
0.0117736
-0.00599254
0.0126252
-0.00663873
0.0134405
-0.00723161
0.0142144
-0.00776491
0.0149437
-0.00823438
0.0156269
-0.00863763
0.0162644
-0.00897381
0.0168573
-0.00924287
0.0174063
-0.00944425
0.0179052
-0.00957189
0.0183134
-0.00958899
0.00362358
0.02894
-0.0307534
0.00533274
0.0238565
-0.0255657
0.00663082
0.0224845
-0.0237826
0.00755149
0.0232732
-0.0241939
0.00814032
0.0251891
-0.0257779
0.00846518
0.0274483
-0.0277731
0.00859033
0.029571
-0.0296962
0.00857256
0.0314067
-0.0313889
0.00845658
0.0329939
-0.032878
0.00827401
0.0344438
-0.0342612
0.00804463
0.0358295
-0.0356001
0.00778072
0.0371819
-0.036918
0.00748998
0.0384963
-0.0382055
0.00717692
0.0397621
-0.039449
0.00684568
0.0409626
-0.0406314
0.00649965
0.0420877
-0.0417417
0.00614107
0.0431377
-0.0427791
0.00577277
0.044107
-0.0437387
0.00539641
0.0449968
-0.0446205
0.00501353
0.0458087
-0.0454258
0.00462603
0.0465347
-0.0461473
0.00423391
0.0471901
-0.046798
0.00383934
0.0477532
-0.0473586
0.0034415
0.0482481
-0.0478502
0.00304167
0.0486482
-0.0482483
0.00263901
0.0489791
-0.0485764
0.00223315
0.0492159
-0.04881
0.0018251
0.0493953
-0.0489872
0.00141558
0.0495215
-0.049112
0.0496428
-0.0492402
0.00379094
0.0270822
0.00552621
0.0221213
0.00683914
0.0211715
0.00776531
0.022347
0.00835458
0.0245998
0.00867738
0.0271255
0.00879912
0.0294493
0.00877707
0.0314287
0.00865604
0.033115
0.00846773
0.0346321
0.00823304
0.0360642
0.00796302
0.0374519
0.00766576
0.0387935
0.00734591
0.040082
0.00700768
0.0413008
0.00665358
0.0424418
0.00628691
0.0435044
0.00590944
0.0444845
0.00552379
0.0453825
0.005131
0.0462015
0.00473273
0.046933
0.00433018
0.0475926
0.00392381
0.0481595
0.0035148
0.0486571
0.0031027
0.0490603
0.00268824
0.0493935
0.00227006
0.0496341
0.00184977
0.0498156
0.00142789
0.0499434
0.0500586
0.00400349
0.0252005
0.00574586
0.0203789
0.00706212
0.0198553
0.0079866
0.0214226
0.00857234
0.0240141
0.00889091
0.0268069
0.00900816
0.0293321
0.00898139
0.0314555
0.00885532
0.033241
0.00866132
0.0348261
0.0084212
0.0363043
0.00814523
0.0377279
0.00784169
0.0390971
0.00751516
0.0404085
0.00716997
0.041646
0.00680794
0.0428038
0.00643329
0.043879
0.00604675
0.044871
0.00565187
0.0457774
0.00524919
0.0466042
0.0048402
0.047342
0.00442721
0.0480056
0.00400908
0.0485777
0.00358892
0.0490773
0.00316458
0.0494846
0.00273823
0.0498199
0.00230771
0.0500646
0.00187505
0.0502483
0.0014406
0.0503779
0.0504877
0.00426357
0.023318
0.00599268
0.0186498
0.00729999
0.018548
0.00821518
0.0205074
0.00879327
0.023436
0.00910547
0.0264947
0.00921727
0.0292203
0.00918534
0.0314874
0.00905399
0.0333724
0.00885453
0.0350256
0.00860891
0.0365499
0.00832727
0.0380095
0.00801761
0.0394067
0.00768453
0.0407416
0.00733235
0.0419982
0.0069628
0.0431734
0.00657999
0.0442619
0.00618467
0.0452663
0.00578052
0.0461815
0.00536796
0.0470167
0.00494856
0.0477614
0.00452475
0.0484294
0.00409537
0.049007
0.00366358
0.0495091
0.00322737
0.0499208
0.00278886
0.0502584
0.00234607
0.0505074
0.0019009
0.0506934
0.00145368
0.0508251
0.0509303
0.00457313
0.0214596
0.00626759
0.0169553
0.00755286
0.0172627
0.00845079
0.0196094
0.00901699
0.0228698
0.00932073
0.026191
0.00942603
0.029115
0.00938846
0.031525
0.00925181
0.033509
0.00904725
0.0352301
0.00879602
0.0368012
0.00850879
0.0382968
0.00819331
0.0397222
0.0078539
0.041081
0.00749473
0.0423574
0.00711788
0.0435502
0.00672695
0.0446528
0.00632309
0.0456702
0.00590961
0.046595
0.00548723
0.0474391
0.00505764
0.048191
0.00462281
0.0488643
0.00418243
0.0494474
0.00373881
0.0499527
0.00329089
0.0503687
0.00284009
0.0507092
0.00238505
0.0509624
0.00192725
0.0511512
0.00146708
0.0512852
0.0513865
0.00493361
0.0196519
0.00657139
0.0153175
0.00782074
0.0160133
0.00869326
0.0187369
0.00924317
0.0223199
0.00953628
0.0258979
0.00963411
0.0290171
0.00959057
0.0315685
0.0094486
0.033651
0.00923903
0.0354397
0.00898238
0.0370578
0.00868974
0.0385894
0.00836856
0.0400434
0.00802303
0.0414265
0.00765708
0.0427233
0.00727301
0.0439343
0.00687412
0.0450517
0.0064618
0.0460825
0.00603912
0.0470177
0.00560702
0.0478712
0.00516721
0.0486308
0.00472147
0.04931
0.00427006
0.0498988
0.00381471
0.050408
0.003355
0.0508285
0.00289195
0.0511723
0.00242459
0.0514298
0.00195408
0.0516217
0.00148083
0.0517585
0.0518566
0.00534581
0.0179229
0.00690466
0.0137587
0.00810365
0.0148143
0.00894237
0.0178982
0.00947146
0.0217908
0.00975175
0.0256176
0.0098412
0.0289277
0.00979142
0.0316183
0.00964411
0.0337983
0.00942959
0.0356542
0.00916777
0.0373196
0.00886992
0.0388873
0.00854319
0.0403701
0.00819173
0.0417779
0.00781921
0.0430958
0.00742804
0.0443255
0.00702139
0.0454583
0.00660072
0.0465032
0.00616892
0.0474495
0.00572721
0.0483129
0.00527722
0.0490808
0.00482067
0.0497666
0.00435819
0.0503613
0.00389119
0.050875
0.00341965
0.0513
0.00294437
0.0516475
0.00246463
0.0519095
0.00198138
0.052105
0.00149492
0.0522449
0.0523406
0.00580967
0.0163007
0.00726761
0.0123008
0.00840154
0.0136804
0.00919788
0.0171018
0.00970154
0.0212872
0.0099668
0.0253523
0.010047
0.0288475
0.0099907
0.0316746
0.00983806
0.033951
0.00961869
0.0358736
0.00935195
0.0375864
0.0090491
0.0391901
0.00871703
0.0407022
0.00835984
0.0421351
0.00798097
0.0434747
0.00758288
0.0447236
0.00716861
0.0458726
0.00673974
0.046932
0.00629893
0.0478903
0.00584772
0.0487641
0.00538759
0.0495409
0.00492033
0.0502338
0.00444675
0.0508349
0.00396818
0.0513536
0.00348479
0.0517834
0.00299732
0.052135
0.00250514
0.0524017
0.00200911
0.052601
0.00150935
0.0527447
0.0528387
0.00632402
0.014813
0.00766001
0.0109648
0.00871417
0.0126263
0.00945951
0.0163565
0.00993308
0.0208136
0.0101811
0.0251043
0.0102512
0.0287774
0.0101881
0.0317376
0.0100302
0.0341089
0.00980612
0.0360977
0.0095347
0.0378578
0.00922709
0.0394977
0.00888991
0.0410394
0.00852719
0.0424979
0.00814221
0.0438597
0.00773739
0.0451284
0.00731566
0.0462943
0.00687875
0.0473689
0.00642905
0.04834
0.00596845
0.0492247
0.00549826
0.0500111
0.00502037
0.0507117
0.00453571
0.0513196
0.00404561
0.0518437
0.00355039
0.0522786
0.00305073
0.0526347
0.00254609
0.0529063
0.00203725
0.0531099
0.00152411
0.0532579
0.0533511
0.00688639
0.0134857
0.00808091
0.00977026
0.0090411
0.0116661
0.00972695
0.0156707
0.0101658
0.0203748
0.0103944
0.0248757
0.0104534
0.0287184
0.0103834
0.0318077
0.0102203
0.034272
0.00999166
0.0363263
0.0097158
0.0381336
0.00940367
0.0398098
0.00906163
0.0413814
0.00869363
0.0428659
0.00830276
0.0442506
0.00789142
0.0455397
0.00746239
0.0467234
0.00701764
0.0478137
0.0065592
0.0487984
0.0060893
0.0496946
0.00560914
0.0504913
0.00512072
0.0512001
0.004625
0.0518153
0.00412342
0.0523453
0.00361639
0.0527856
0.00310457
0.0531465
0.00258745
0.0534234
0.00206578
0.0536315
0.00153921
0.0537844
0.0538778
0.00749281
0.0123414
0.0085286
0.00873447
0.00938154
0.0108131
0.00999978
0.0150524
0.0103993
0.0199752
0.0106063
0.0246687
0.0106535
0.0286711
0.0105763
0.0318849
0.0104081
0.0344402
0.0101751
0.0365593
0.00989504
0.0384137
0.00957865
0.0401262
0.00923201
0.0417281
0.00885897
0.0432389
0.00846246
0.0446471
0.00804484
0.0459574
0.00760869
0.0471595
0.00715626
0.0482661
0.00668926
0.0492654
0.00621019
0.0501737
0.00572015
0.0509813
0.00522129
0.051699
0.00471457
0.052322
0.00420155
0.0528583
0.00368272
0.0533045
0.00315879
0.0536704
0.00262919
0.053953
0.00209467
0.0541661
0.00155464
0.0543245
0.054419
0.00813778
0.0113984
0.00900046
0.00787179
0.0097343
0.0100793
0.0102774
0.0145093
0.0106334
0.0196193
0.0108167
0.0244854
0.0108512
0.0286366
0.0107667
0.0319694
0.0105934
0.0346135
0.0103562
0.0367965
0.0100722
0.0386977
0.00975182
0.0404466
0.00940085
0.042079
0.00902305
0.0436167
0.00862112
0.045049
0.00819747
0.046381
0.00775444
0.0476025
0.00729451
0.048726
0.00681913
0.0497408
0.00633103
0.0506618
0.00583122
0.0514811
0.005322
0.0522082
0.00480435
0.0528397
0.00427996
0.0533827
0.00374934
0.0538351
0.00321333
0.0542064
0.00267129
0.0544951
0.00212391
0.0547134
0.00157041
0.054878
0.0549749
0.00881437
0.0106697
0.00949296
0.0071932
0.0100978
0.00947448
0.0105592
0.0140479
0.0108675
0.019311
0.0110252
0.0243278
0.0110463
0.0286155
0.0109542
0.0320614
0.010776
0.0347918
0.0105348
0.0370376
0.0102471
0.0389854
0.00992298
0.0407707
0.00956796
0.042434
0.00918566
0.043999
0.0087786
0.0454561
0.00834918
0.0468104
0.0078995
0.0480522
0.00743227
0.0491933
0.0069487
0.0502244
0.00645171
0.0511588
0.00594227
0.0519906
0.00542279
0.0527277
0.00489429
0.0533682
0.00435858
0.0539184
0.0038162
0.0543775
0.00326814
0.0547545
0.00271372
0.0550495
0.0021535
0.0552737
0.00158649
0.055445
0.0555455
0.00951429
0.0101617
0.0100017
0.00670579
0.0104699
0.00900631
0.010844
0.0136737
0.0111013
0.0190537
0.0112315
0.0241975
0.0112385
0.0286085
0.0111388
0.0321611
0.0109556
0.0349749
0.0107107
0.0372825
0.0104195
0.0392767
0.0100919
0.0410983
0.00973312
0.0427928
0.00934663
0.0443855
0.00893471
0.045868
0.00849979
0.0472453
0.00804374
0.0485083
0.00756941
0.0496676
0.00707786
0.0507159
0.00657214
0.0516645