/*--------------------------------*- C++ -*----------------------------------*\
  =========                 |
  \\      /  F ield         | OpenFOAM: The Open Source CFD Toolbox
   \\    /   O peration     | Website:  https://openfoam.org
    \\  /    A nd           | Version:  7
     \\/     M anipulation  |
\*---------------------------------------------------------------------------*/
FoamFile
{
    version     2.0;
    format      ascii;
    class       volVectorField;
    location    "4.1";
    object      U;
}
// * * * * * * * * * * * * * * * * * * * * * * * * * * * * * * * * * * * * * //

dimensions      [0 1 -1 0 0 0 0];

internalField   nonuniform List<vector> 
18000
(
(-0.00116246 0.0172252 1.23131e-20)
(-0.00585708 0.04986 0)
(-0.0134552 0.0814592 0)
(-0.0217678 0.110374 0)
(-0.030222 0.136285 -4.05193e-21)
(-0.0382631 0.159374 2.04958e-20)
(-0.0455434 0.179937 -4.14916e-21)
(-0.0518501 0.198233 4.17779e-21)
(-0.0570619 0.214435 0)
(-0.0611208 0.228635 -1.26548e-20)
(-0.0640152 0.240861 -4.23538e-21)
(-0.0657634 0.251115 0)
(-0.0664035 0.25939 8.46278e-21)
(-0.0659848 0.265695 8.48459e-21)
(-0.0645627 0.27006 -1.69396e-20)
(-0.0621953 0.272547 -1.68999e-20)
(-0.0589386 0.273243 0)
(-0.054847 0.272263 -2.52058e-20)
(-0.0499734 0.269743 8.35964e-21)
(-0.0443685 0.265834 -2.49693e-20)
(-0.0380823 0.260703 8.27331e-21)
(-0.0311652 0.25452 0)
(-0.0236679 0.247462 -8.12774e-21)
(-0.0156443 0.239708 -8.11651e-21)
(-0.00715572 0.231437 0)
(0.00172521 0.222824 0)
(0.0109104 0.214046 -1.58431e-20)
(0.0203135 0.205265 -1.57123e-20)
(0.0298185 0.196729 -1.5646e-20)
(0.0390496 0.188728 1.73828e-20)
(-0.00162716 0.018391 1.75153e-20)
(-0.00707 0.0524161 3.04704e-20)
(-0.0152643 0.0848316 -3.11765e-20)
(-0.0240865 0.114184 -3.17781e-20)
(-0.0329896 0.140235 -8.08412e-21)
(-0.0414422 0.163228 2.45001e-20)
(-0.0491102 0.183509 -3.30514e-20)
(-0.055784 0.201381 -3.3324e-20)
(-0.0613416 0.21705 3.35321e-20)
(-0.0657246 0.230638 3.36863e-20)
(-0.068917 0.242197 -1.68834e-20)
(-0.0709311 0.251744 -3.38306e-20)
(-0.0718014 0.259286 -1.69725e-20)
(-0.0715726 0.26484 3.38144e-20)
(-0.0702955 0.268444 -3.37494e-20)
(-0.0680236 0.270163 3.37422e-20)
(-0.0648096 0.270089 -6.72276e-20)
(-0.0607058 0.268338 5.02253e-20)
(-0.0557621 0.265047 -3.32599e-20)
(-0.0500269 0.260372 1.66232e-20)
(-0.0435495 0.254478 -3.28921e-20)
(-0.0363816 0.247544 0)
(-0.0285754 0.239753 1.64634e-20)
(-0.0201879 0.231293 -3.22851e-20)
(-0.0112836 0.222356 3.19955e-20)
(-0.00193971 0.213139 0)
(0.00774913 0.20384 -1.56461e-20)
(0.0176888 0.194656 1.55722e-20)
(0.0277409 0.185873 6.19759e-20)
(0.0375136 0.177826 3.44412e-20)
(-0.00213039 0.0194327 -2.80714e-20)
(-0.00832049 0.0546977 -3.04697e-20)
(-0.0170518 0.0879145 4.67473e-20)
(-0.0262973 0.117713 7.93128e-20)
(-0.0355457 0.143925 0)
(-0.0442953 0.166852 -3.27072e-20)
(-0.0522266 0.186883 3.30506e-20)
(-0.0591432 0.204359 9.98088e-20)
(-0.064926 0.219522 -3.35313e-20)
(-0.0695104 0.23252 -3.36811e-20)
(-0.0728777 0.24343 1.01148e-19)
(-0.0750382 0.252286 3.38298e-20)
(-0.0760203 0.259107 0)
(-0.0758648 0.263921 -6.76103e-20)
(-0.0746182 0.266771 1.00934e-19)
(-0.0723312 0.267727 -3.3508e-20)
(-0.0690539 0.266881 3.35538e-20)
(-0.0648343 0.264354 3.33864e-20)
(-0.0597213 0.260285 1.22909e-22)
(-0.0537642 0.254829 0)
(-0.0470128 0.248158 9.85898e-20)
(-0.0395193 0.240453 -6.51023e-20)
(-0.0313395 0.231906 3.24661e-20)
(-0.0225337 0.222714 0)
(-0.0131705 0.213084 -3.19949e-20)
(-0.00333273 0.203232 1.26461e-19)
(0.00688113 0.19338 -9.37785e-20)
(0.0173699 0.183762 -3.12248e-20)
(0.0279738 0.174708 3.0544e-20)
(0.0382848 0.166608 3.42451e-20)
(-0.00267228 0.0204331 0)
(-0.00961608 0.0568849 1.51785e-20)
(-0.0188292 0.0908394 3.26439e-24)
(-0.028415 0.121051 -7.92306e-20)
(-0.0379008 0.147419 0)
(-0.0468263 0.170289 -6.51018e-20)
(-0.0548977 0.190084 0)
(-0.0619271 0.20718 -9.97083e-20)
(-0.0677993 0.221855 3.33806e-20)
(-0.0724516 0.234284 -6.70022e-20)
(-0.0758624 0.244564 -6.7368e-20)
(-0.0780374 0.252746 -3.37095e-20)
(-0.079001 0.258865 3.36444e-20)
(-0.0787902 0.262953 3.34816e-20)
(-0.077449 0.265063 -3.37286e-20)
(-0.075024 0.265265 -6.67306e-20)
(-0.0715626 0.263658 6.65999e-20)
(-0.0671127 0.26036 0)
(-0.0617231 0.255513 0)
(-0.0554433 0.249275 0)
(-0.0483246 0.241821 0)
(-0.0404227 0.233339 0)
(-0.0317981 0.224026 0)
(-0.0225155 0.21409 -6.36817e-20)
(-0.0126485 0.203751 -6.34677e-20)
(-0.00228454 0.193243 -2.80687e-22)
(0.00847242 0.182815 -6.23014e-20)
(0.0195166 0.172736 -2.88604e-22)
(0.0306738 0.163386 -6.17724e-20)
(0.0415119 0.15522 1.35815e-19)
(-0.00324163 0.0213011 0)
(-0.0109333 0.0588011 1.36078e-19)
(-0.0205706 0.093437 4.0186e-24)
(-0.0304111 0.124051 -4.73805e-20)
(-0.04003 0.150587 1.60275e-19)
(-0.0490154 0.173423 9.7627e-20)
(-0.0570988 0.193017 9.8399e-20)
(-0.0641079 0.209772 0)
(-0.0699354 0.223995 0)
(-0.0745185 0.235887 1.00479e-19)
(-0.0778338 0.245569 5.17142e-23)
(-0.0798849 0.253109 -2.34819e-19)
(-0.0806924 0.258551 2.01092e-19)
(-0.0802899 0.26194 -6.71532e-20)
(-0.0787183 0.263332 6.65403e-20)
(-0.0760223 0.262802 6.66599e-20)
(-0.0722482 0.260449 -6.61352e-20)
(-0.0674442 0.256396 6.61236e-20)
(-0.06166 0.250784 1.31185e-19)
(-0.0549472 0.243775 -6.52333e-20)
(-0.0473607 0.235549 -1.2938e-19)
(-0.0389614 0.226296 1.2847e-19)
(-0.0298153 0.216223 -1.2752e-19)
(-0.0199933 0.205545 6.36799e-20)
(-0.00957476 0.194497 0)
(0.00134757 0.183326 0)
(0.0126654 0.172309 5.7511e-22)
(0.0242682 0.161749 -2.45025e-19)
(0.0359739 0.152076 1.21279e-19)
(0.047322 0.143827 -1.34857e-19)
(-0.00383328 0.0220646 0)
(-0.0122638 0.0604873 -1.20937e-19)
(-0.0222675 0.0957354 1.23425e-19)
(-0.032284 0.126723 0)
(-0.0419357 0.153427 -2.56054e-19)
(-0.0508629 0.176252 -3.24431e-20)
(-0.0588323 0.195674 -6.56965e-20)
(-0.0656885 0.212121 -3.30102e-20)
(-0.0713307 0.225928 0)
(-0.0757012 0.23732 -6.67612e-20)
(-0.0787774 0.246438 6.68274e-20)
(-0.0805592 0.253367 1.3407e-19)
(-0.0810642 0.258166 -1.34018e-19)
(-0.0803245 0.260886 0)
(-0.078379 0.261589 -1.3347e-19)
(-0.0752706 0.260355 1.3243e-19)
(-0.0710463 0.257285 1.32441e-19)
(-0.0657559 0.252502 1.96911e-19)
(-0.0594516 0.24615 -1.96337e-19)
(-0.0521889 0.238395 2.59504e-19)
(-0.044028 0.229419 1.2911e-19)
(-0.0350366 0.21942 -1.28466e-19)
(-0.0252881 0.208608 2.54212e-19)
(-0.0148604 0.19721 0)
(-0.00383997 0.185468 1.24661e-19)
(0.00767442 0.173646 2.47798e-19)
(0.0195693 0.162039 -1.21982e-19)
(0.0317313 0.150985 1.22359e-19)
(0.043976 0.140968 -3.14605e-22)
(0.0558107 0.132614 -1.33883e-19)
(-0.00443664 0.0226932 -1.38631e-20)
(-0.013592 0.0618897 0)
(-0.0239078 0.0976701 -1.54244e-19)
(-0.0340205 0.128999 3.14077e-20)
(-0.0436068 0.155876 9.59219e-20)
(-0.0523644 0.17871 3.23273e-20)
(-0.0600947 0.197993 1.30538e-19)
(-0.0666624 0.214174 0)
(-0.0719792 0.227608 6.63016e-20)
(-0.0759934 0.238542 6.63634e-20)
(-0.078682 0.247138 -6.67041e-20)
(-0.0800441 0.253498 1.99857e-19)
(-0.0800965 0.257693 0)
(-0.0788695 0.259783 0)
(-0.0764004 0.259837 1.9875e-19)
(-0.072733 0.257937 -3.3029e-19)
(-0.0679163 0.254186 1.31192e-19)
(-0.0620029 0.24871 -1.31121e-19)
(-0.0550486 0.241656 -1.29639e-19)
(-0.047115 0.233193 -3.87496e-19)
(-0.0382702 0.223507 -4.86097e-22)
(-0.0285894 0.2128 1.2686e-19)
(-0.0181547 0.20129 -2.52548e-19)
(-0.00705328 0.18921 1.2483e-19)
(0.00462057 0.176809 -8.72568e-22)
(0.0167613 0.164364 -1.23608e-19)
(0.0292495 0.152185 1.22545e-19)
(0.0419684 0.14064 0)
(0.0547388 0.130264 1.19492e-19)
(0.0670333 0.12178 2.73749e-22)
(-0.00504412 0.0231806 -2.76431e-20)
(-0.0149038 0.0629861 3.00279e-20)
(-0.0254777 0.0992122 -1.84194e-19)
(-0.0356137 0.130845 -9.38234e-20)
(-0.0450423 0.157887 1.27172e-19)
(-0.0535207 0.180751 -1.93384e-19)
(-0.0608895 0.199931 -6.53873e-20)
(-0.0670369 0.215888 -1.31211e-19)
(-0.0718886 0.228994 1.31958e-19)
(-0.0754003 0.239517 -2.65288e-19)
(-0.0775519 0.247638 -1.32698e-19)
(-0.0783428 0.253476 -4.47687e-22)
(-0.0777895 0.257113 6.64468e-20)
(-0.0759217 0.25862 -1.98515e-19)
(-0.0727775 0.258071 -2.64197e-19)
(-0.0684028 0.255551 2.29873e-22)
(-0.0628498 0.251167 -3.80909e-22)
(-0.0561747 0.245047 1.29776e-19)
(-0.0484399 0.237342 1.29634e-19)
(-0.0397148 0.228223 2.94165e-22)
(-0.0300762 0.21788 -1.65372e-22)
(-0.0196089 0.206521 1.25548e-19)
(-0.00840477 0.194369 1.25852e-19)
(0.00343843 0.181663 -3.25953e-22)
(0.0158168 0.168659 -3.70464e-19)
(0.0286175 0.155639 2.43989e-19)
(0.0417141 0.142925 2.42635e-19)
(0.054986 0.130907 -2.40001e-19)
(0.0682652 0.120168 -1.19487e-19)
(0.0809905 0.111533 -1.30291e-19)
(-0.00564542 0.0235189 -2.47682e-19)
(-0.016184 0.0637599 -2.99413e-20)
(-0.0269666 0.100332 1.53368e-19)
(-0.0370579 0.132219 1.25142e-19)
(-0.0462424 0.159419 -1.2717e-19)
(-0.054339 0.182328 1.2884e-19)
(-0.061229 0.201438 -6.50307e-20)
(-0.0668276 0.217214 1.96687e-19)
(-0.0710766 0.23004 -1.31954e-19)
(-0.073942 0.240204 1.32442e-19)
(-0.075408 0.247901 6.64275e-20)
(-0.0754765 0.253268 -6.65046e-20)
(-0.0741648 0.256401 -3.96593e-19)
(-0.0715039 0.257378 2.64243e-19)
(-0.0675342 0.256278 1.31817e-19)
(-0.0623053 0.253194 0)
(-0.0558736 0.248234 0)
(-0.0483012 0.24153 -1.05993e-21)
(-0.0396586 0.233235 -1.27893e-19)
(-0.0300247 0.223525 0)
(-0.0194864 0.212594 0)
(-0.00813915 0.200653 -1.26034e-19)
(0.00391346 0.187932 0)
(0.0165624 0.174674 -2.46186e-19)
(0.0296935 0.161139 0)
(0.0431853 0.147611 -1.2182e-19)
(0.0569034 0.13442 2.40806e-19)
(0.0707217 0.121968 -2.38192e-19)
(0.0844893 0.110878 0)
(0.0976165 0.102076 0)
(-0.00623118 0.0237047 2.20122e-19)
(-0.0174177 0.0641963 0)
(-0.0283638 0.101005 -3.05613e-20)
(-0.0383495 0.13309 3.11427e-20)
(-0.047212 0.160429 -1.89572e-19)
(-0.0548317 0.183393 5.97209e-23)
(-0.0611328 0.202462 -6.4786e-20)
(-0.0660597 0.218098 0)
(-0.0695737 0.230695 0)
(-0.0716529 0.240552 -6.59389e-20)
(-0.0722887 0.247882 6.60039e-20)
(-0.0714869 0.252835 -1.3208e-19)
(-0.0692678 0.25552 1.32793e-19)
(-0.0656658 0.256026 0)
(-0.0607254 0.254437 0)
(-0.0545006 0.250851 0)
(-0.0470537 0.245381 1.28939e-19)
(-0.0384554 0.238162 -6.71218e-22)
(-0.0287852 0.229351 1.28578e-19)
(-0.0181331 0.219126 -2.52994e-19)
(-0.00659724 0.207686 1.25901e-19)
(0.00571469 0.195249 -6.23294e-19)
(0.018687 0.182045 7.14231e-22)
(0.0321984 0.168323 2.46174e-19)
(0.0461238 0.154345 -1.04478e-21)
(0.0603323 0.140397 2.40774e-19)
(0.0746808 0.126806 -2.3788e-19)
(0.0890357 0.11398 -2.36829e-19)
(0.103268 0.102572 6.62168e-22)
(0.116769 0.0935996 -2.53991e-19)
(-0.00679236 0.0237371 -2.73854e-20)
(-0.0185907 0.0642885 0)
(-0.0296602 0.101215 6.09446e-20)
(-0.0394876 0.13343 -6.21038e-20)
(-0.0479591 0.160879 5.68281e-19)
(-0.0550164 0.1839 5.96312e-23)
(-0.0606272 0.202952 -6.46016e-20)
(-0.0647681 0.218488 6.51599e-20)
(-0.0674223 0.230903 -3.2704e-19)
(-0.0685826 0.240507 0)
(-0.06825 0.247527 0)
(-0.066437 0.252127 -1.31123e-19)
(-0.0631692 0.254427 1.31865e-19)
(-0.058486 0.254525 -1.30972e-19)
(-0.0524376 0.252514 1.30415e-19)
(-0.0450845 0.248497 0)
(-0.036497 0.242591 -5.15832e-19)
(-0.0267552 0.234935 2.55497e-19)
(-0.0159498 0.225689 1.27137e-19)
(-0.00418226 0.215036 3.78383e-19)
(0.00843642 0.203179 0)
(0.0217854 0.190339 2.48795e-19)
(0.0357363 0.176751 2.45714e-19)
(0.0501557 0.162666 2.4349e-19)
(0.0649069 0.148348 -1.71997e-21)
(0.0798492 0.134081 -2.38311e-19)
(0.0948303 0.120185 2.37867e-19)
(0.109707 0.107066 0)
(0.124375 0.0953928 6.71924e-22)
(0.138223 0.0862643 5.04398e-19)
(-0.00732085 0.0236191 -2.18032e-19)
(-0.0196905 0.0640362 0)
(-0.0308483 0.100953 -2.426e-19)
(-0.0404732 0.133217 -3.09391e-19)
(-0.0484952 0.160736 -1.89264e-19)
(-0.0549154 0.183807 6.38162e-20)
(-0.0597457 0.202857 5.64931e-23)
(-0.0629966 0.218326 -6.4917e-20)
(-0.0646761 0.230605 7.80717e-22)
(-0.0647946 0.24001 1.31036e-19)
(-0.0633656 0.24678 1.30784e-19)
(-0.0604109 0.251089 -1.30232e-19)
(-0.0559637 0.253068 1.30879e-19)
(-0.0500707 0.252827 -3.90828e-19)
(-0.0427898 0.250466 3.89076e-19)
(-0.0341897 0.246093 2.57734e-19)
(-0.0243504 0.239831 6.41637e-19)
(-0.0133631 0.231823 -1.28734e-19)
(-0.00133058 0.222233 -2.52175e-19)
(0.0116331 0.211246 -1.43765e-21)
(0.0254032 0.199071 -2.48634e-19)
(0.0398454 0.185931 7.38462e-19)
(0.0548186 0.172066 -4.89957e-19)
(0.0701767 0.157728 4.82941e-19)
(0.0857719 0.143182 -2.40519e-19)
(0.101454 0.128709 4.74892e-19)
(0.11706 0.114618 1.03361e-21)
(0.132438 0.101304 -4.66102e-19)
(0.147507 0.0894396 4.60717e-19)
(0.161677 0.0801903 2.47776e-19)
(-0.00780958 0.0233569 2.18031e-19)
(-0.0207063 0.0634461 0)
(-0.0319227 0.100216 5.4505e-19)
(-0.0413095 0.132438 1.85679e-19)
(-0.0488345 0.159973 0)
(-0.0545549 0.183073 0)
(-0.0585268 0.202128 0)
(-0.0607966 0.217556 0)
(-0.0613993 0.22974 1.30558e-19)
(-0.0603658 0.238997 1.30576e-19)
(-0.0577254 0.245574 -2.61939e-19)
(-0.0535121 0.249654 2.61808e-19)
(-0.0477693 0.251381 3.90702e-19)
(-0.0405531 0.250872 1.3042e-19)
(-0.0319311 0.248236 1.28222e-19)
(-0.0219823 0.243588 -3.86333e-19)
(-0.0107982 0.237055 -5.10876e-19)
(0.00151778 0.228785 -2.54171e-19)
(0.0148499 0.218945 2.52162e-19)
(0.0290708 0.207726 -4.99347e-19)
(0.0440417 0.195338 2.47153e-19)
(0.0596146 0.182007 -4.90493e-19)
(0.0756354 0.167977 2.41809e-19)
(0.0919466 0.153502 -1.46357e-21)
(0.108389 0.138846 -2.3792e-19)
(0.124802 0.124286 -4.72464e-19)
(0.141016 0.11012 4.67731e-19)
(0.156865 0.0967228 0)
(0.172294 0.0847599 -6.43857e-22)
(0.18676 0.0754476 -4.91869e-19)
(-0.00825313 0.02296 2.71222e-20)
(-0.0216295 0.0625309 0)
(-0.03288 0.0990101 -2.41867e-19)
(-0.0420016 0.131086 6.16094e-20)
(-0.0489928 0.158571 -6.2558e-20)
(-0.0539635 0.181666 0)
(-0.0570133 0.200719 -6.40954e-20)
(-0.0582252 0.216123 6.45371e-20)
(-0.057664 0.228246 1.29822e-19)
(-0.0553838 0.237402 -3.90167e-19)
(-0.051433 0.24384 -1.30319e-19)
(-0.0458608 0.247754 3.85301e-23)
(-0.0387233 0.249296 -4.79746e-22)
(-0.0300887 0.248592 -2.58864e-19)
(-0.0200364 0.245758 -1.29269e-19)
(-0.00865764 0.240917 0)
(0.00394353 0.234201 7.06166e-22)
(0.0176501 0.225762 2.52878e-19)
(0.0323332 0.215772 -2.50269e-19)
(0.0478511 0.204424 0)
(0.0640511 0.191931 0)
(0.0807722 0.178522 0)
(0.0978477 0.164443 0)
(0.115108 0.149949 -1.52995e-21)
(0.132384 0.135304 0)
(0.149507 0.120779 0)
(0.166299 0.106661 2.31076e-19)
(0.182582 0.0933018 2.28864e-19)
(0.198321 0.0813474 2.27711e-19)
(0.213052 0.0720514 -6.36511e-22)
(-0.00864783 0.0224409 2.70346e-20)
(-0.0224546 0.0613099 -5.88093e-20)
(-0.0337188 0.0973499 3.60787e-19)
(-0.0425557 0.129165 -6.13648e-20)
(-0.0489872 0.156519 6.24364e-20)
(-0.0531711 0.17956 6.1784e-23)
(-0.0552496 0.198593 1.91308e-19)
(-0.0553427 0.213976 -2.5711e-19)
(-0.0535471 0.226062 3.87864e-19)
(-0.0499434 0.235156 4.19202e-22)
(-0.0446014 0.241507 -1.29496e-19)
(-0.0375889 0.245314 2.59154e-19)
(-0.0289777 0.246737 -2.58473e-19)
(-0.0188503 0.245909 2.57421e-19)
(-0.00730003 0.242956 0)
(0.0055683 0.238005 2.54403e-19)
(0.0196364 0.231195 0)
(0.0347735 0.222681 1.17921e-21)
(0.0508365 0.212641 -2.4828e-19)
(0.0676699 0.201269 -2.45989e-19)
(0.0851073 0.18878 2.43637e-19)
(0.102975 0.175407 -2.41253e-19)
(0.121094 0.161395 -2.3886e-19)
(0.139284 0.147 -4.74419e-19)
(0.157366 0.132486 -2.34122e-19)
(0.175162 0.118119 2.32649e-19)
(0.19249 0.104173 -4.61234e-19)
(0.20916 0.0909765 -2.28852e-19)
(0.225149 0.0791458 0)
(0.240106 0.0699633 -2.40427e-19)
(-0.00899191 0.0218143 0)
(-0.0231785 0.0598081 2.34055e-19)
(-0.0344397 0.0952572 -1.8036e-19)
(-0.0429788 0.126686 -3.05648e-19)
(-0.0488341 0.153816 0)
(-0.0522065 0.176739 0)
(-0.0532789 0.195716 -3.82598e-19)
(-0.0522089 0.211072 5.13381e-19)
(-0.0491265 0.223134 -3.87105e-19)
(-0.0441413 0.232196 0)
(-0.0373475 0.238503 1.29938e-19)
(-0.0288341 0.242257 -1.29755e-19)
(-0.0186916 0.243623 8.86089e-22)
(-0.00701898 0.242742 -1.29324e-19)
(0.00607489 0.239745 -1.27214e-19)
(0.0204698 0.234767 -1.02731e-21)
(0.0360326 0.227951 2.51439e-19)
(0.0526182 0.219457 2.50462e-19)
(0.0700697 0.209466 7.61271e-22)
(0.0882176 0.198174 4.91478e-19)
(0.106882 0.185798 -4.86491e-19)
(0.125877 0.172572 4.81902e-19)
(0.145014 0.158742 2.38847e-19)
(0.1641 0.144564 2.36465e-19)
(0.182946 0.130299 1.41962e-21)
(0.201368 0.116208 0)
(0.219178 0.102558 2.2889e-19)
(0.236177 0.0896469 -6.79805e-19)
(0.252348 0.0780586 2.22929e-19)
(0.267479 0.0690993 2.37113e-19)
(-0.00928564 0.0210974 -1.60817e-19)
(-0.023801 0.0580553 -5.25827e-19)
(-0.0350448 0.0927616 -5.69402e-23)
(-0.0432777 0.123673 6.73654e-22)
(-0.0485483 0.15047 -1.85767e-19)
(-0.0510952 0.173198 0)
(-0.0511406 0.192071 -1.26603e-19)
(-0.0488792 0.207376 -7.67906e-19)
(-0.0444757 0.219415 3.86273e-19)
(-0.0380704 0.228464 -2.57612e-19)
(-0.0297847 0.234762 3.86831e-19)
(-0.0197312 0.238511 -1.28975e-19)
(-0.00802133 0.239878 2.57569e-19)
(0.0052272 0.239008 -6.39959e-19)
(0.0198885 0.236041 3.82424e-19)
(0.0358258 0.231115 -7.11001e-22)
(0.052891 0.224379 -7.52923e-19)
(0.0709244 0.215997 2.48562e-19)
(0.0897551 0.206151 -2.46696e-19)
(0.1092 0.195042 0)
(0.129067 0.182885 2.41116e-19)
(0.149158 0.169915 0)
(0.169272 0.156379 -2.36764e-19)
(0.189208 0.142531 2.34434e-19)
(0.208766 0.12863 2.32676e-19)
(0.227754 0.114933 2.28961e-19)
(0.245981 0.101695 0)
(0.26324 0.0891907 0)
(0.279512 0.0779618 -4.47578e-19)
(0.294751 0.0693418 7.02474e-19)
(-0.00953131 0.0203085 1.60963e-19)
(-0.0243244 0.0560856 2.91535e-19)
(-0.0355372 0.0898996 -2.38185e-19)
(-0.043458 0.120155 4.86717e-19)
(-0.0481406 0.146503 6.26261e-20)
(-0.0498572 0.168944 6.27718e-20)
(-0.0488665 0.187649 8.50348e-22)
(-0.0454002 0.202867 -2.54458e-19)
(-0.0396581 0.214869 -1.27909e-19)
(-0.0318127 0.223913 7.69934e-22)
(-0.0220144 0.230228 -7.90037e-22)
(-0.0104017 0.23401 -3.85092e-19)
(0.00289124 0.235428 -1.27649e-19)
(0.0177265 0.234631 8.78888e-22)
(0.0339599 0.231762 2.53179e-19)
(0.0514377 0.226964 2.51396e-19)
(0.0699962 0.22039 9.99128e-22)
(0.0894615 0.212208 -2.47181e-19)
(0.109649 0.202602 2.45167e-19)
(0.130362 0.191773 -2.43181e-19)
(0.151396 0.179937 -4.81048e-19)
(0.17254 0.16733 -2.37914e-19)
(0.193584 0.154197 4.70604e-19)
(0.214313 0.140791 0)
(0.23452 0.127366 -2.30034e-19)
(0.254003 0.114174 -4.56594e-19)
(0.272569 0.101461 -4.52098e-19)
(0.290006 0.0894774 2.2416e-19)
(0.306287 0.0787198 -6.65519e-19)
(0.321544 0.0705542 2.31822e-19)
(-0.00973301 0.019467 -2.66574e-19)
(-0.0247533 0.0539359 5.80244e-20)
(-0.0359202 0.0867136 2.38187e-19)
(-0.0435226 0.116174 -1.82297e-19)
(-0.0476166 0.141949 6.20004e-20)
(-0.0485035 0.164001 -1.37918e-22)
(-0.0464769 0.182461 6.31322e-19)
(-0.0418041 0.19754 2.54851e-19)
(-0.0347202 0.209479 2.56139e-19)
(-0.0254307 0.218514 3.85032e-19)
(-0.0141164 0.22486 -3.853e-19)
(-0.000942627 0.228705 2.56632e-19)
(0.0139322 0.230216 5.11085e-19)
(0.0303489 0.229545 2.54061e-19)
(0.048144 0.226837 -6.91486e-22)
(0.0671471 0.222238 -5.02544e-19)
(0.0871786 0.215904 4.97991e-19)
(0.10805 0.208006 2.5073e-22)
(0.129563 0.19873 -2.44073e-19)
(0.151508 0.188277 2.42096e-19)
(0.173666 0.176863 2.39933e-19)
(0.195815 0.164722 -2.3629e-19)
(0.217731 0.152098 -4.69179e-19)
(0.239188 0.13924 1.40648e-22)
(0.259968 0.1264 2.30668e-19)
(0.279862 0.113821 2.27634e-19)
(0.298674 0.10174 4.49461e-19)
(0.316191 0.0903827 -4.43304e-19)
(0.332372 0.0801998 0)
(0.347536 0.0725959 2.29774e-19)
(-0.00989639 0.0185919 6.82745e-22)
(-0.0250937 0.0516445 0)
(-0.0361963 0.0832507 -1.77401e-19)
(-0.0434709 0.111778 -6.04317e-20)
(-0.0469746 0.136851 -2.45536e-19)
(-0.0470344 0.158404 0)
(-0.0439768 0.176532 -3.78137e-19)
(-0.0381038 0.191411 1.26819e-19)
(-0.0296853 0.20325 0)
(-0.0189596 0.21226 -2.55305e-19)
(-0.00613821 0.218639 0)
(0.00858569 0.222568 -3.82662e-19)
(0.0250291 0.224208 3.81574e-19)
(0.0430111 0.223709 -2.53808e-19)
(0.0623489 0.221219 -2.51398e-19)
(0.0828545 0.216884 0)
(0.104333 0.210865 0)
(0.126581 0.203332 2.45392e-19)
(0.149385 0.194473 -5.27045e-22)
(0.172521 0.184486 2.39805e-19)
(0.195756 0.17359 -2.38496e-19)
(0.218853 0.162016 4.71848e-19)
(0.241574 0.150004 -2.33333e-19)
(0.263681 0.1378 0)
(0.284943 0.125648 6.85132e-19)
(0.305145 0.113784 -1.12836e-18)
(0.32409 0.102433 2.23961e-19)
(0.341568 0.0918006 2.21733e-19)
(0.357522 0.0822844 2.18266e-19)
(0.372457 0.0753347 4.53509e-19)
(-0.0100283 0.0177018 -2.11127e-19)
(-0.0253523 0.0492501 4.60804e-19)
(-0.0363665 0.0795613 2.36709e-19)
(-0.0432973 0.107024 5.41831e-19)
(-0.0462036 0.131268 6.73867e-19)
(-0.0454361 0.152209 1.24302e-19)
(-0.0413527 0.169912 -6.26857e-19)
(-0.0342886 0.18452 0)
(-0.0245472 0.19621 -5.07762e-19)
(-0.0123993 0.205168 -2.5378e-19)
(0.00191363 0.211576 0)
(0.0181706 0.2156 -2.53444e-19)
(0.036164 0.217397 -6.21083e-22)
(0.055691 0.217112 -7.57004e-19)
(0.0765494 0.214891 2.51391e-19)
(0.0985337 0.210883 2.48794e-19)
(0.121433 0.205248 -4.93643e-19)
(0.145027 0.198158 -4.89398e-19)
(0.169086 0.189798 5.65614e-22)
(0.193368 0.180369 -2.37762e-22)
(0.217626 0.170085 0)
(0.241605 0.159175 -2.34461e-19)
(0.26505 0.147876 -2.30819e-19)
(0.287708 0.136425 0)
(0.30934 0.12506 0)
(0.329723 0.114006 6.74383e-19)
(0.348664 0.103475 -6.64897e-19)
(0.36596 0.0936509 0)
(0.381542 0.0848786 6.51409e-19)
(0.39609 0.0786554 -4.49259e-19)
(-0.0101361 0.0168138 1.39286e-21)
(-0.025536 0.0467906 -4.60746e-19)
(-0.036429 0.0756978 -5.88681e-20)
(-0.0429897 0.101973 -6.01789e-19)
(-0.0452821 0.125266 -3.67462e-19)
(-0.0436794 0.145483 1.23931e-19)
(-0.0385696 0.162666 2.51093e-19)
(-0.0303198 0.176928 6.29789e-19)
(-0.0192654 0.188416 5.07762e-19)
(-0.00570813 0.197292 5.0908e-19)
(0.0100814 0.203716 0)
(0.0278553 0.207842 1.58816e-21)
(0.0473818 0.209816 0)
(0.0684363 0.209781 5.04238e-19)
(0.0907967 0.207877 0)
(0.114239 0.204255 -2.47883e-19)
(0.138535 0.199072 2.48205e-19)
(0.163445 0.1925 0)
(0.18872 0.184722 0)
(0.214099 0.175937 -7.15013e-19)
(0.239313 0.166357 2.36435e-19)
(0.264089 0.156206 0)
(0.288154 0.145713 4.62267e-19)
(0.311241 0.13511 4.58013e-19)
(0.333101 0.124622 -9.03739e-19)
(0.353511 0.114462 8.93913e-19)
(0.372281 0.104827 1.13081e-21)
(0.389229 0.0958811 4.3632e-19)
(0.404273 0.0879119 -4.34098e-19)
(0.418256 0.0824619 0)
(-0.0102275 0.0159429 5.27697e-19)
(-0.0256504 0.0443018 -5.72897e-20)
(-0.0363782 0.0717131 -4.68937e-19)
(-0.042529 0.0966931 0)
(-0.0441767 0.118924 -4.86566e-19)
(-0.0417179 0.138312 0)
(-0.0355695 0.154884 -6.2321e-19)
(-0.026129 0.168725 -3.78033e-19)
(-0.0137622 0.179957 -5.04712e-19)
(0.00120015 0.188716 0)
(0.0184598 0.195141 1.26666e-19)
(0.037743 0.199372 1.27865e-19)
(0.0587944 0.201544 -2.52344e-19)
(0.0813672 0.201792 -5.00872e-19)
(0.105219 0.200253 -2.48662e-19)
(0.130104 0.197073 -9.88287e-19)
(0.155774 0.192408 4.91853e-19)
(0.181968 0.186427 6.59706e-22)
(0.208412 0.179311 6.3365e-22)
(0.234822 0.171254 7.14571e-19)
(0.260906 0.162465 0)
(0.286369 0.15316 0)
(0.310919 0.143562 -1.3719e-21)
(0.334277 0.13389 7.60479e-22)
(0.356189 0.124357 -4.48548e-19)
(0.376437 0.115161 -4.44647e-19)
(0.394844 0.106483 1.14304e-21)
(0.411251 0.098463 -4.36308e-19)
(0.42558 0.0913348 -4.30824e-19)
(0.438807 0.0866761 9.52395e-22)
(-0.0103095 0.0151018 0)
(-0.0256991 0.041816 4.56368e-19)
(-0.0362039 0.067659 4.10382e-19)
(-0.0418878 0.0912524 5.96764e-20)
(-0.042842 0.112325 9.71614e-19)
(-0.0394877 0.130792 -1.23178e-19)
(-0.0322708 0.14667 9.95098e-19)
(-0.0216176 0.160024 5.00581e-19)
(-0.00792259 0.17095 7.56653e-19)
(0.00845624 0.17956 3.78101e-19)
(0.0271948 0.185974 1.26264e-19)
(0.0479945 0.190314 6.311e-19)
(0.0705759 0.192704 -4.56222e-22)
(0.094669 0.19327 2.50605e-19)
(0.120008 0.192142 4.97573e-19)
(0.146326 0.189461 4.93694e-19)
(0.173346 0.185379 0)
(0.200781 0.180061 0)
(0.228329 0.173682 0)
(0.255679 0.166432 0)
(0.282513 0.158512 4.67238e-19)
(0.308514 0.150133 0)
(0.333374 0.141503 -7.11384e-22)
(0.356807 0.132832 9.04353e-19)
(0.37856 0.124315 4.4761e-19)
(0.398427 0.116134 4.42646e-19)
(0.416253 0.108451 8.75319e-19)
(0.431915 0.101384 0)
(0.445341 0.0951121 -8.55788e-19)
(0.457621 0.0912334 8.78825e-19)
(-0.0103879 0.0142999 4.18166e-19)
(-0.0256824 0.0393609 -4.56378e-19)
(-0.0358904 0.063584 0)
(-0.0410308 0.0857213 -4.75439e-19)
(-0.0412204 0.105559 -1.22711e-19)
(-0.0369087 0.12303 -3.67466e-19)
(-0.0285703 0.138148 -1.1162e-18)
(-0.0166599 0.15096 -1.65293e-21)
(-0.00159839 0.16154 -3.75989e-19)
(0.0162301 0.169978 -8.81353e-19)
(0.0364766 0.176374 -1.25976e-19)
(0.0588179 0.180833 -5.01934e-19)
(0.0829492 0.183466 -5.00059e-19)
(0.108575 0.184386 0)
(0.135403 0.183716 -4.93982e-19)
(0.163137 0.181591 -7.35127e-19)
(0.19147 0.178156 2.43623e-19)
(0.220082 0.173568 -4.80761e-19)
(0.248639 0.167995 -4.75704e-19)
(0.276801 0.161621 0)
(0.304222 0.154639 -9.32397e-19)
(0.330568 0.147246 0)
(0.355519 0.139642 -9.119e-19)
(0.378791 0.132019 -4.50021e-19)
(0.400143 0.124558 -8.9057e-19)
(0.419388 0.117421 4.40222e-19)
(0.436403 0.110748 -1.30643e-18)
(0.451108 0.104639 4.29612e-19)
(0.463449 0.0992153 2.22571e-21)
(0.474602 0.0960783 -4.35676e-19)
(-0.0104667 0.0135434 -4.18175e-19)
(-0.0255971 0.036959 5.67965e-20)
(-0.0354161 0.0595329 4.06245e-19)
(-0.0399142 0.0801678 4.75449e-19)
(-0.0392437 0.0987172 -4.83504e-19)
(-0.0338863 0.115141 1.58968e-21)
(-0.0243468 0.129451 4.95288e-19)
(-0.0111075 0.141684 -9.96556e-19)
(0.00538474 0.151894 -1.23533e-19)
(0.0247205 0.16015 1.12944e-18)
(0.046526 0.166531 -7.52041e-19)
(0.0704516 0.171128 1.25283e-18)
(0.0961646 0.174034 1.24764e-18)
(0.12334 0.17535 -2.48513e-19)
(0.151652 0.175188 4.93978e-19)
(0.180772 0.173675 7.3416e-19)
(0.210355 0.170944 2.40926e-19)
(0.240044 0.167145 1.9994e-21)
(0.269472 0.162437 2.38698e-19)
(0.298267 0.156993 2.35074e-19)
(0.326063 0.150997 -2.29686e-19)
(0.352513 0.144634 2.29673e-19)
(0.377297 0.138088 -4.52387e-19)
(0.400141 0.131536 4.49311e-19)
(0.420828 0.125144 2.19868e-21)
(0.439202 0.119053 4.36979e-19)
(0.45518 0.113384 2.2388e-21)
(0.468728 0.108216 -4.28414e-19)
(0.479819 0.103615 1.16958e-21)
(0.489689 0.101161 0)
(-0.0105478 0.0128345 0)
(-0.0254352 0.034627 0)
(-0.0347538 0.0555449 -5.22357e-19)
(-0.0384873 0.0746564 5.90923e-20)
(-0.0368348 0.0918914 0)
(-0.0303156 0.10724 4.88528e-19)
(-0.0194665 0.120721 1.2327e-19)
(-0.00479826 0.13236 3.73362e-19)
(0.0132159 0.142194 4.9993e-19)
(0.0341407 0.150273 -5.01134e-19)
(0.0575751 0.156659 5.01184e-19)
(0.0831401 0.161422 -5.00191e-19)
(0.11047 0.164638 -4.9827e-19)
(0.139205 0.166395 0)
(0.16898 0.166791 0)
(0.199425 0.16594 0)
(0.230155 0.163965 -4.83588e-19)
(0.260773 0.161002 7.17235e-19)
(0.290879 0.1572 -2.36693e-19)
(0.320076 0.152721 0)
(0.347984 0.147735 6.93767e-19)
(0.374254 0.142415 -2.2861e-19)
(0.39858 0.136931 4.52379e-19)
(0.420714 0.131445 -8.90628e-19)
(0.440471 0.126107 8.83185e-19)
(0.457737 0.121043 -1.24787e-21)
(0.472473 0.116353 1.00662e-21)
(0.484692 0.112096 4.26127e-19)
(0.4944 0.108283 -2.25978e-22)
(0.502854 0.106447 4.30432e-19)
(-0.0106298 0.0121724 5.1861e-20)
(-0.025184 0.0323758 -5.63457e-20)
(-0.0338702 0.0516526 1.15589e-19)
(-0.0366933 0.0692461 -7.06434e-19)
(-0.0339108 0.0851678 1.19783e-19)
(-0.0260859 0.099443 0)
(-0.0137905 0.112098 4.90373e-19)
(0.00243366 0.123152 -4.94101e-19)
(0.0220852 0.132628 0)
(0.0446997 0.140555 6.22189e-19)
(0.069845 0.146978 -1.24689e-19)
(0.097107 0.151946 0)
(0.126081 0.155517 -2.47429e-19)
(0.156364 0.157761 4.92615e-19)
(0.187547 0.158762 -2.44924e-19)
(0.219214 0.158616 2.42139e-19)
(0.250935 0.157433 -4.80524e-19)
(0.282277 0.155335 7.89306e-22)
(0.31281 0.152459 7.6062e-22)
(0.342124 0.148952 -2.31136e-19)
(0.369838 0.144973 -4.59223e-19)
(0.395617 0.140679 1.13942e-21)
(0.419184 0.136229 1.66464e-21)
(0.440328 0.131774 4.44906e-19)
(0.458912 0.127448 -4.3834e-19)
(0.474868 0.123369 4.34837e-19)
(0.4882 0.119625 -8.57318e-19)
(0.498958 0.116254 -1.12562e-21)
(0.507182 0.113213 -8.3748e-19)
(0.5141 0.111951 4.27961e-19)
(-0.0107079 0.0115521 0)
(-0.0248251 0.0302096 -4.48621e-19)
(-0.032727 0.0478815 0)
(-0.034471 0.0639876 1.66076e-21)
(-0.0303857 0.0786256 1.19558e-19)
(-0.0210857 0.091857 1.6349e-22)
(-0.00718278 0.103718 -9.78908e-19)
(0.0107466 0.114222 3.70846e-19)
(0.032168 0.123378 0)
(0.0565832 0.131198 -6.21733e-19)
(0.0835219 0.137704 1.24226e-19)
(0.112528 0.142925 0)
(0.143149 0.146899 -2.46427e-19)
(0.174934 0.149675 2.45633e-19)
(0.207423 0.151318 2.42855e-19)
(0.240151 0.151907 4.82946e-19)
(0.272648 0.151536 -2.39601e-19)
(0.304449 0.15031 0)
(0.335108 0.148352 0)
(0.364213 0.145797 4.64107e-19)
(0.391399 0.142788 -4.5698e-19)
(0.416364 0.139472 4.52827e-19)
(0.438877 0.135996 4.47935e-19)
(0.458781 0.132502 4.41082e-19)
(0.475997 0.12912 -4.36608e-19)
(0.490508 0.125966 4.32314e-19)
(0.502352 0.12313 4.26031e-19)
(0.511579 0.120652 -4.21415e-19)
(0.518198 0.118489 1.0162e-21)
(0.523234 0.117927 8.51364e-19)
(-0.0107772 0.0109691 5.15066e-20)
(-0.0243379 0.0281302 3.92791e-19)
(-0.0312835 0.0442516 0)
(-0.0317586 0.0589251 4.69136e-19)
(-0.0261757 0.0723355 0)
(-0.0152099 0.0845804 0)
(0.000480606 0.0957056 3.66717e-19)
(0.0202786 0.105719 -4.79885e-23)
(0.0436101 0.114615 1.23446e-19)
(0.0699347 0.122387 1.23642e-19)
(0.0987358 0.129034 -3.70906e-19)
(0.129506 0.134562 2.46993e-19)
(0.16174 0.138985 0)
(0.19493 0.14233 0)
(0.228565 0.144641 -4.86029e-19)
(0.262134 0.145978 0)
(0.295132 0.146415 -2.37686e-19)
(0.327075 0.146042 2.36054e-19)
(0.357516 0.144968 2.32663e-19)
(0.38606 0.143313 -7.48909e-22)
(0.412378 0.141209 -2.28039e-19)
(0.436219 0.138792 0)
(0.457412 0.136199 -4.4397e-19)
(0.475871 0.133567 4.39602e-19)
(0.491588 0.131026 0)
(0.504614 0.1287 0)
(0.515044 0.126709 0)
(0.522953 0.125153 0)
(0.528245 0.124087 -4.1398e-19)
(0.53155 0.124985 8.45949e-19)
(0.068548 0.162788 -0.012945)
(0.113268 0.134749 -0.0132574)
(0.154267 0.126125 -0.0133529)
(0.181687 0.129379 -0.0134014)
(0.201398 0.138915 -0.0133756)
(0.212883 0.150511 -0.0133257)
(0.218675 0.161543 -0.0132419)
(0.220066 0.171166 -0.0131424)
(0.21843 0.179557 -0.0130254)
(0.214709 0.187282 -0.0128939)
(0.209551 0.194716 -0.0127528)
(0.203348 0.202003 -0.0126056)
(0.19631 0.209102 -0.0124504)
(0.188624 0.215946 -0.0122909)
(0.180349 0.222448 -0.0121319)
(0.171648 0.228548 -0.0119692)
(0.162496 0.234243 -0.0118085)
(0.153097 0.239507 -0.0116502)
(0.143332 0.24434 -0.0114902)
(0.133475 0.248755 -0.0113311)
(0.123282 0.252706 -0.01117)