/*--------------------------------*- C++ -*----------------------------------*\
  =========                 |
  \\      /  F ield         | OpenFOAM: The Open Source CFD Toolbox
   \\    /   O peration     | Website:  https://openfoam.org
    \\  /    A nd           | Version:  7
     \\/     M anipulation  |
\*---------------------------------------------------------------------------*/
FoamFile
{
    version     2.0;
    format      ascii;
    class       volVectorField;
    location    "72.3";
    object      U;
}
// * * * * * * * * * * * * * * * * * * * * * * * * * * * * * * * * * * * * * //

dimensions      [0 1 -1 0 0 0 0];

internalField   nonuniform List<vector> 
2000
(
(-0.000136112 -0.00665601 -2.79471e-22)
(5.58759e-05 -0.0147583 0)
(0.000831575 -0.0187026 0)
(0.00217077 -0.0191801 -1.434e-21)
(0.00403066 -0.0165971 4.63178e-22)
(0.00638031 -0.0112141 1.61587e-23)
(0.00919481 -0.00323512 -7.96775e-22)
(0.0124285 0.0071226 0)
(0.0159813 0.0195747 0)
(0.0196648 0.0337403 0)
(0.000423789 -0.00644279 0)
(0.00149801 -0.0148184 -1.09533e-21)
(0.00292131 -0.0191668 1.01011e-21)
(0.00457856 -0.0201363 1.9145e-21)
(0.00645619 -0.0181333 0)
(0.00855797 -0.0134257 1.74273e-21)
(0.0109027 -0.00620366 -1.62061e-21)
(0.0134964 0.00336133 0)
(0.0162981 0.0150651 2.95178e-21)
(0.0191393 0.0286339 -5.68057e-21)
(0.00102188 -0.00627566 0)
(0.0031734 -0.0149056 8.77752e-21)
(0.00548779 -0.0195834 0)
(0.0076929 -0.0209593 7.83565e-21)
(0.00979818 -0.0194598 0)
(0.0118362 -0.0153787 -7.04462e-21)
(0.0138643 -0.00890887 0)
(0.0159369 -0.000186991 6.33321e-21)
(0.0180773 0.0106627 -5.9314e-21)
(0.0201288 0.02348 -5.78743e-21)
(0.00169311 -0.00619011 -2.29003e-21)
(0.00513707 -0.0150598 -4.3744e-21)
(0.00858316 -0.0199675 -2.05384e-21)
(0.011562 -0.0216281 -3.84739e-21)
(0.0141035 -0.0205089 -3.68382e-21)
(0.0162689 -0.0169478 3.46666e-21)
(0.0181515 -0.0111597 3.32695e-21)
(0.0198497 -0.00326434 -9.39668e-24)
(0.0214539 0.0066848 6.00341e-21)
(0.0228161 0.0186359 5.78573e-21)
(0.00247914 -0.00621549 -2.26223e-21)
(0.00744728 -0.0153117 -4.48109e-21)
(0.0122499 -0.0203278 -8.50744e-21)
(0.0162039 -0.0221253 3.91202e-21)
(0.0193679 -0.0212296 0)
(0.0218383 -0.0180373 0)
(0.0237468 -0.0128033 -6.83363e-21)
(0.0252334 -0.00565133 -6.46612e-21)
(0.0264559 0.00341982 6.10173e-21)
(0.0272813 0.0144482 1.75138e-20)
(0.00342831 -0.00637072 2.29701e-21)
(0.0101588 -0.0156702 2.3219e-21)
(0.0165085 -0.0206621 -1.2645e-20)
(0.0215932 -0.0224383 2.00675e-20)
(0.0255188 -0.0215963 -3.73879e-21)
(0.0284314 -0.0186007 0)
(0.0305095 -0.0137589 0)
(0.0319373 -0.00721781 3.23502e-20)
(0.0329391 0.00105881 -3.05075e-20)
(0.0334127 0.0111743 5.77539e-21)
(0.00458974 -0.00665617 1.79811e-20)
(0.0133144 -0.0161201 0)
(0.0213473 -0.020954 1.68878e-20)
(0.0276506 -0.0225583 -1.60203e-20)
(0.0324052 -0.0216127 0)
(0.0358281 -0.0186521 7.28346e-21)
(0.0381595 -0.0140412 -2.0437e-20)
(0.0396361 -0.00796447 -2.5907e-20)
(0.0405485 -0.000368607 1.21618e-20)
(0.0408432 0.00889553 1.17183e-20)
(0.00600647 -0.00705118 -3.59426e-20)
(0.0169341 -0.0166198 -4.54931e-21)
(0.0267145 -0.0211713 -8.56838e-21)
(0.0342386 -0.0224794 -2.01659e-20)
(0.0397989 -0.0213104 -7.72343e-21)
(0.0437088 -0.0182648 -7.30468e-21)
(0.0462888 -0.0137623 2.71739e-23)
(0.0478398 -0.00803219 0)
(0.0487234 -0.00101922 0)
(0.0489528 0.00747064 1.12734e-22)
(0.00770845 -0.00751436 1.79619e-20)
(0.0210057 -0.0171016 -1.81226e-20)
(0.0325113 -0.0212673 1.27403e-20)
(0.0411629 -0.0221983 2.83947e-20)
(0.0474072 -0.0207445 -7.57956e-21)
(0.0516824 -0.0175601 7.28527e-21)
(0.0544056 -0.0131084 6.87254e-21)
(0.055952 -0.00766326 0)
(0.0567583 -0.00117939 0)
(0.0569352 0.00657924 -2.73056e-22)
(0.00970646 -0.00798722 -2.25301e-21)
(0.0254758 -0.0174783 2.2739e-20)
(0.0385894 -0.021187 -4.25418e-21)
(0.0481801 -0.0217169 0)
(0.0548971 -0.0199902 0)
(0.0593332 -0.0166933 1.44534e-20)
(0.0620173 -0.0123107 0)
(0.0634 -0.00714501 -1.27097e-20)
(0.0639723 -0.00118356 6.66662e-24)
(0.0639546 0.00577981 1.138e-20)
(0.0279913 0.0682117 2.20387e-22)
(0.0429617 0.136346 -2.22949e-22)
(0.0486312 0.197505 -2.58219e-22)
(0.0477086 0.253093 -2.95839e-22)
(0.0417091 0.310104 -3.64833e-22)
(0.0368435 0.372204 -1.28728e-23)
(0.0245649 0.441818 1.92624e-22)
(0.0212874 0.528222 6.86444e-22)
(0.000508717 0.652142 0)
(0.00663974 0.800789 -5.03607e-22)
(0.025162 0.0623558 8.39559e-22)
(0.0391692 0.131316 -9.68254e-22)
(0.0455776 0.195401 1.73794e-21)
(0.0452571 0.252865 2.96335e-22)
(0.0397396 0.310881 6.42549e-22)
(0.035249 0.373643 1.1083e-21)
(0.0235118 0.443777 -4.162e-22)
(0.0203897 0.530616 -4.6031e-22)
(0.000493106 0.654138 9.02712e-22)
(0.00619468 0.801429 5.02415e-22)
(0.0236532 0.0560399 0)
(0.0358826 0.124952 -9.18186e-22)
(0.0428715 0.191997 -5.05103e-22)
(0.0430907 0.251532 0)
(0.0380061 0.310676 -1.97878e-21)
(0.0338663 0.374195 6.16804e-22)
(0.0226086 0.444919 6.98809e-22)
(0.0195994 0.532225 2.47993e-21)
(0.000518717 0.655696 -8.9979e-22)
(0.0057937 0.801877 1.81192e-21)
(0.0237557 0.0496023 0)
(0.0331795 0.11739 9.25914e-22)
(0.040508 0.187277 0)
(0.0411888 0.249065 2.28365e-21)
(0.0364911 0.309482 -2.29548e-21)
(0.0326774 0.373844 -1.40967e-21)
(0.0218424 0.445181 -9.00059e-23)
(0.0189272 0.532934 -2.42189e-21)
(0.000587286 0.656505 -3.97019e-22)
(0.0054165 0.801936 -2.22876e-21)
(0.0257307 0.0434142 3.88644e-23)
(0.0311982 0.108883 -2.64178e-21)
(0.0384845 0.181252 1.18e-22)
(0.0395307 0.245448 -2.00547e-21)
(0.035175 0.307316 0)
(0.0316592 0.37266 -1.34558e-21)
(0.0211898 0.444729 -1.17438e-22)
(0.0183442 0.533076 3.04589e-21)
(0.000666065 0.657042 4.04513e-22)
(0.00506625 0.80194 -4.05981e-22)
(0.0296775 0.0378132 -7.19513e-21)
(0.0301357 0.0998058 4.54133e-21)
(0.0368076 0.173976 1.95543e-21)
(0.0381005 0.240678 -1.95446e-21)
(0.0340438 0.304139 -1.08823e-21)
(0.0308022 0.370519 0)
(0.0206559 0.443298 -2.69695e-21)
(0.0178745 0.532135 1.34341e-21)
(0.00078332 0.65653 1.47726e-21)
(0.00472407 0.801444 1.53965e-21)
(0.0353799 0.0330412 -8.69354e-22)
(0.0302018 0.0906292 0)
(0.0355009 0.165562 0)
(0.0368797 0.234793 0)
(0.0330721 0.300106 -1.16488e-21)
(0.0300766 0.367797 2.24962e-21)
(0.0201973 0.44155 2.62862e-21)
(0.0174423 0.531178 -4.09624e-21)
(0.000867292 0.65633 7.27344e-22)
(0.00441023 0.801176 -2.24521e-21)
(0.0422037 0.0291673 5.47265e-21)
(0.031494 0.0817709 3.70313e-21)
(0.0345989 0.156233 -3.66966e-21)
(0.0358722 0.227732 4.004e-21)
(0.0322544 0.294798 -4.97874e-21)
(0.0294952 0.363665 0)
(0.0198691 0.438193 -1.18117e-21)
(0.0171608 0.528333 5.99466e-23)
(0.00102674 0.654278 -1.31268e-21)
(0.00408897 0.800099 -1.37878e-21)
(0.0490389 0.0258483 -4.66681e-21)
(0.0338131 0.073021 0)
(0.0341007 0.145982 -4.16084e-21)
(0.0350268 0.220088 7.56559e-21)
(0.0315665 0.289642 -2.82981e-21)
(0.0289832 0.360324 -5.29936e-22)
(0.0195244 0.436112 1.17864e-21)
(0.0167862 0.527253 8.77722e-24)
(0.00105131 0.65407 1.89509e-21)
(0.00380458 0.799803 2.00323e-21)
(0.0542325 0.022938 -3.75418e-21)
(0.0365219 0.0642623 3.66711e-21)
(0.0341309 0.133491 4.5607e-22)
(0.0343797 0.208573 0)
(0.0309534 0.279963 0)
(0.028693 0.352291 5.17685e-22)
(0.0194774 0.429233 2.21388e-21)
(0.0167843 0.521234 -2.15058e-21)
(0.00130565 0.649682 -5.82247e-22)
(0.00348965 0.797998 5.63657e-22)
(0.0574698 0.0251461 0)
(0.0401073 0.0597603 0)
(0.0349959 0.125049 0)
(0.0341592 0.203593 0)
(0.0300381 0.278739 0)
(0.0270515 0.353513 0)
(0.0181269 0.431716 0)
(0.0152969 0.524925 0)
(0.000845844 0.652733 0)
(0.00288213 0.798235 0)
(0.060507 0.0466701 0)
(0.0435238 0.0802694 0)
(0.0340858 0.134882 0)
(0.0319727 0.208191 0)
(0.0282634 0.283166 0)
(0.0252308 0.35901 0)
(0.0170233 0.438708 0)
(0.0138808 0.533447 0)
(0.000756253 0.660314 0)
(0.00232818 0.80057 0)
(0.0591035 0.0552494 0)
(0.0460897 0.0926929 0)
(0.0345056 0.143348 0)
(0.0304498 0.213493 0)
(0.0264694 0.28817 0)
(0.0231086 0.364086 0)
(0.0155526 0.444156 0)
(0.012374 0.539184 0)
(0.000523182 0.664944 0)
(0.00185557 0.800994 0)
(0.0550674 0.0608917 0)
(0.0464247 0.102978 0)
(0.0348565 0.151232 0)
(0.0292905 0.218285 0)
(0.0252421 0.29319 0)
(0.0219119 0.370266 0)
(0.0148818 0.451735 0)
(0.0115077 0.547865 0)
(0.00071685 0.672431 0)
(0.00157872 0.803243 0)
(0.050057 0.0638697 0)
(0.0450745 0.111624 0)
(0.0348388 0.159444 0)
(0.028456 0.22318 0)
(0.0239086 0.296931 0)
(0.0203208 0.374008 0)
(0.0138027 0.45583 0)
(0.0104687 0.552151 0)
(0.000594084 0.675756 0)
(0.0012699 0.803195 0)
(0.0442608 0.0643187 0)
(0.0424096 0.117925 0)
(0.03377 0.166784 0)
(0.0273872 0.228338 0)
(0.0232976 0.301821 0)
(0.0198326 0.37995 0)
(0.013611 0.463171 0)
(0.0100412 0.56059 0)
(0.000931941 0.682861 0)
(0.00112783 0.805242 0)
(0.0379764 0.0624016 0)
(0.0392735 0.122373 0)
(0.0330017 0.17423 0)
(0.0263319 0.233481 0)
(0.0218438 0.304793 0)
(0.0185024 0.382412 0)
(0.0128376 0.465799 0)
(0.00937055 0.563266 0)
(0.000873208 0.68484 0)
(0.000940598 0.804861 0)
(0.0311283 0.0576771 0)
(0.0348658 0.122626 0)
(0.031199 0.178662 0)
(0.0258975 0.239085 0)
(0.0218668 0.310667 0)
(0.0184647 0.389088 0)
(0.0129545 0.473709 0)
(0.00922837 0.572147 0)
(0.00134015 0.692119 0)
(0.000902417 0.806989 0)
(0.0259156 0.053464 0)
(0.0324767 0.124286 0)
(0.0306689 0.18385 0)
(0.0250857 0.242602 0)
(0.0207456 0.31223 0)
(0.0175664 0.390228 0)
(0.0124628 0.475017 0)
(0.00884368 0.573383 0)
(0.00130224 0.693029 0)
(0.000806964 0.806627 0)
(0.0179439 0.0376388 0)
(0.0269344 0.114531 0)
(0.0297937 0.184398 0)
(0.0266302 0.249143 0)
(0.022165 0.319739 0)
(0.0183212 0.398243 0)
(0.0130434 0.484113 0)
(0.00897979 0.583401 0)
(0.00191955 0.701045 0)
(0.000836016 0.809108 0)
(0.0683174 0.0149784 3.34589e-21)
(0.0672777 0.0258863 -3.28972e-21)
(0.0622618 0.0291449 2.86142e-22)
(0.0561818 0.0301748 0)
(0.0496277 0.0291313 0)
(0.0423461 0.0263821 8.62129e-23)
(0.0346398 0.0220242 -1.0648e-22)
(0.0267063 0.0156161 1.04656e-22)
(0.0199176 0.00978943 -1.60873e-23)
(0.0112604 -0.00443863 1.58122e-23)
(0.0703909 0.0107949 -4.40461e-21)
(0.0672356 0.0170677 0)
(0.0612103 0.0178 1.61479e-21)
(0.0547042 0.0169161 -3.21449e-21)
(0.0478885 0.0143249 1.59704e-21)
(0.0403981 0.0104081 -8.4375e-23)
(0.0325023 0.0051857 7.365e-23)
(0.0245272 -0.00173996 1.57604e-23)
(0.0172714 -0.00808868 -2.76629e-23)
(0.0091951 -0.0212502 -3.09314e-23)
(0.0713815 0.00609972 4.9638e-21)
(0.0665274 0.00821097 -2.31191e-21)
(0.0598957 0.00656877 2.28966e-21)
(0.0530832 0.00380432 -1.26727e-21)
(0.0460339 -0.000318614 9.92935e-22)
(0.0383484 -0.00537858 0)
(0.0302974 -0.011412 -7.38182e-23)
(0.0223079 -0.0186882 -6.62153e-25)
(0.0147662 -0.0253041 1.05686e-23)
(0.00737508 -0.036968 4.65832e-23)
(0.0714953 0.000143 -7.57354e-22)
(0.0652046 -0.00137624 0)
(0.0582305 -0.00503824 0)
(0.0512064 -0.00944111 0)
(0.0439998 -0.0148915 6.32926e-22)
(0.0361838 -0.0209052 -3.89247e-22)
(0.0280534 -0.0275626 2.79343e-23)
(0.0200808 -0.0349651 1.27479e-23)
(0.0124956 -0.0415553 1.115e-23)
(0.00575543 -0.0515021 2.04096e-23)
(0.0706154 -0.00716622 -5.10821e-22)
(0.0631789 -0.0117446 -2.01511e-21)
(0.0560933 -0.0170771 -8.13483e-22)
(0.0489606 -0.0228182 8.12897e-22)
(0.0416889 -0.0293268 -2.40647e-22)
(0.0338413 -0.0360331 0)
(0.0257414 -0.0430669 -6.92406e-23)
(0.0178836 -0.0503556 2.06849e-23)
(0.010467 -0.0566372 -5.50288e-24)
(0.00439654 -0.0648219 -3.18895e-23)
(0.0688334 -0.0156579 -5.54083e-21)
(0.0605794 -0.0226868 9.21529e-22)
(0.0535773 -0.0293931 2.36219e-22)
(0.0464202 -0.0361632 7.96335e-22)
(0.0391695 -0.0434523 0)
(0.0313844 -0.050578 0)
(0.0234227 -0.0577334 0)
(0.0157846 -0.0646867 2.53713e-23)
(0.00869682 -0.0704355 0)
(0.00330611 -0.0769454 0)
(0.0662498 -0.0250633 0)
(0.0575393 -0.0339067 1.57929e-21)
(0.0507745 -0.0417459 -1.01786e-21)
(0.0436688 -0.0492454 -5.73607e-22)
(0.0365299 -0.0570569 5.76551e-22)
(0.0288978 -0.0643465 1.13589e-22)
(0.0211688 -0.0713956 -1.43351e-22)
(0.0138434 -0.0778395 -1.20963e-22)
(0.00719494 -0.082913 9.54236e-24)
(0.00245806 -0.0879258 9.61274e-24)
(0.0629491 -0.0350817 0)
(0.0541788 -0.0451012 -5.618e-22)
(0.0477625 -0.0538764 -2.2664e-22)
(0.0407896 -0.0618263 0)
(0.0338461 -0.069934 7.49692e-23)
(0.0264527 -0.0771694 -2.79201e-22)
(0.0190368 -0.0839324 1.1417e-22)
(0.0120992 -0.0897554 1.85248e-24)
(0.00595283 -0.0940957 -7.04148e-24)
(0.00181559 -0.0978378 -1.0873e-23)
(0.059062 -0.0453728 7.48644e-22)
(0.0505966 -0.0560044 5.08684e-22)
(0.0446152 -0.0655467 -1.72181e-22)
(0.0378578 -0.0736959 8.7813e-23)
(0.0311853 -0.0819122 1.22694e-22)
(0.0241077 -0.0889248 1.22326e-22)
(0.0170671 -0.0952781 -2.55198e-23)
(0.0105699 -0.100434 -1.28286e-23)
(0.00494646 -0.104055 7.06451e-24)
(0.00133952 -0.106766 4.65339e-26)
(0.0547489 -0.0556564 -1.57658e-22)
(0.0468815 -0.0664017 1.59066e-22)
(0.0414014 -0.076564 -1.14742e-22)
(0.0349427 -0.0846961 -8.76794e-23)
(0.0286034 -0.0928736 5.41801e-23)
(0.0219068 -0.0995483 -9.71096e-23)
(0.0152828 -0.105424 3.57291e-23)
(0.00925465 -0.109924 2.5485e-24)
(0.00414266 -0.112889 0)
(0.000992223 -0.114795 -4.66313e-26)
(0.0501927 -0.0657085 1.61754e-22)
(0.0431356 -0.0761429 -1.63121e-22)
(0.0381994 -0.086793 -1.21191e-22)
(0.0321175 -0.0947327 -9.37744e-23)
(0.0261509 -0.102761 -5.72649e-23)
(0.0198829 -0.109034 9.20095e-24)
(0.0136934 -0.11441 1.97571e-23)
(0.00814015 -0.118309 2.96101e-23)
(0.00350567 -0.120708 0)
(0.00074062 -0.12201 -2.21083e-24)
(0.0455841 -0.0753731 0)
(0.0394716 -0.0851438 -5.47352e-22)
(0.0350893 -0.0961561 9.24221e-22)
(0.0294516 -0.103776 9.39122e-23)
(0.0238689 -0.111572 1.46973e-22)
(0.0180572 -0.117428 1.52674e-22)
(0.0122977 -0.122316 -3.13073e-23)
(0.00720544 -0.125693 -1.79239e-23)
(0.00300174 -0.127625 2.11049e-23)
(0.000558045 -0.128489 2.20552e-24)
(0.0410758 -0.0845627 0)
(0.0359791 -0.0933866 -6.35996e-22)
(0.0321256 -0.104628 -2.51995e-22)
(0.0269901 -0.111854 0)
(0.0217788 -0.119352 -4.05052e-22)
(0.0164336 -0.124814 1.55528e-22)
(0.0110837 -0.129243 9.26935e-23)
(0.00642536 -0.132192 1.50511e-22)
(0.00260151 -0.133749 -2.10361e-23)
(0.000424258 -0.134308 1.56025e-23)
(0.0367783 -0.0932461 0)
(0.0327182 -0.100918 6.41265e-22)
(0.0293375 -0.112228 0)
(0.0247525 -0.119047 7.35574e-22)
(0.0198844 -0.126184 -7.39392e-22)
(0.0150018 -0.131303 -1.92958e-22)
(0.010033 -0.13531 4.38547e-23)
(0.0057739 -0.137925 -1.57525e-22)
(0.00228096 -0.139187 -2.888e-23)
(0.000324331 -0.139544 -2.41502e-23)
(0.032773 -0.101433 6.62679e-21)
(0.0297364 -0.107845 -2.48189e-21)
(0.0267444 -0.119013 -2.42214e-22)
(0.0227446 -0.125472 -9.99477e-22)
(0.0181832 -0.132179 0)
(0.013745 -0.137025 -2.07228e-22)
(0.00912615 -0.140643 6.96777e-23)
(0.00522741 -0.14301 2.40751e-22)
(0.00202175 -0.14404 9.76431e-24)
(0.00024772 -0.144274 -9.75382e-24)
(0.0291076 -0.10915 5.81707e-22)
(0.0270734 -0.114323 3.86884e-21)
(0.0243653 -0.125062 1.04788e-21)
(0.0209647 -0.131268 -1.04724e-21)
(0.016673 -0.137462 -3.63988e-22)
(0.0126459 -0.142112 0)
(0.00834611 -0.145367 -3.37831e-22)
(0.00476653 -0.147562 1.80716e-22)
(0.00181083 -0.148407 9.07754e-23)
(0.000187272 -0.148578 2.30662e-23)
(0.025812 -0.116405 -9.34273e-22)
(0.0247796 -0.120552 0)
(0.0222378 -0.130476 0)
(0.0194144 -0.136585 0)
(0.0153593 -0.14217 -2.87685e-22)
(0.0116925 -0.146698 6.50948e-22)
(0.00768164 -0.149608 3.48648e-22)
(0.00437751 -0.151692 -4.12738e-22)
(0.00163975 -0.152385 2.35978e-23)
(0.000138168 -0.15254 -4.61944e-23)
(0.0228868 -0.123154 -2.16693e-21)
(0.0228796 -0.126755 2.8814e-21)
(0.0203904 -0.135368 -2.85422e-21)
(0.0180762 -0.141562 1.82572e-21)
(0.0142393 -0.146443 -2.21477e-21)
(0.0108676 -0.150911 0)
(0.00712013 -0.153483 -2.13588e-22)
(0.00404795 -0.155504 -9.89354e-24)
(0.001502 -0.156068 -7.88082e-23)
(9.64459e-05 -0.156245 -2.67313e-23)
(0.0200315 -0.129237 -1.01551e-21)
(0.0210951 -0.133145 0)
(0.018678 -0.139866 -2.81937e-21)
(0.0167965 -0.146328 4.37256e-21)
(0.0132197 -0.150419 -1.50133e-21)
(0.0100979 -0.154871 -1.60039e-22)
(0.00661703 -0.157108 2.13102e-22)
(0.00375041 -0.159098 2.61913e-23)
(0.00138582 -0.15955 1.62538e-22)
(5.96068e-05 -0.159778 5.30882e-23)
(0.0172001 -0.134219 -4.11431e-21)
(0.0192805 -0.139918 4.02076e-21)
(0.0171112 -0.144156 3.65045e-22)
(0.0155511 -0.151017 0)
(0.0122845 -0.154253 0)
(0.00937689 -0.158707 1.64797e-22)
(0.00616556 -0.160602 3.97791e-22)
(0.00348347 -0.162578 -3.90368e-22)
(0.00129116 -0.162923 -2.94865e-23)
(4.05529e-05 -0.163231 2.88483e-23)
(0.0173208 -0.141399 0)
(0.0196649 -0.156037 0)
(0.0169249 -0.153955 0)
(0.0150612 -0.16205 0)
(0.0118082 -0.163346 0)
(0.00884825 -0.167908 0)
(0.00582403 -0.168992 0)
(0.00327221 -0.170936 0)
(0.00126563 -0.170981 0)
(7.62537e-05 -0.171432 0)
(0.0155051 -0.166596 0)
(0.013902 -0.182232 0)
(0.0119697 -0.176191 0)
(0.0101297 -0.184344 0)
(0.00795235 -0.183039 0)
(0.00591387 -0.18736 0)
(0.00391912 -0.18701 0)
(0.00224643 -0.188821 0)
(0.00091576 -0.18825 0)
(9.35862e-05 -0.188837 0)
(0.0159096 -0.196449 0)
(0.0130617 -0.213005 0)
(0.0107941 -0.204132 0)
(0.0086137 -0.212698 0)
(0.00664735 -0.209329 0)
(0.00480035 -0.21383 0)
(0.00321621 -0.212268 0)
(0.00187048 -0.214228 0)
(0.000834428 -0.213044 0)
(0.000106804 -0.213858 0)
(0.0157337 -0.233809 0)
(0.0120534 -0.251644 0)
(0.0098171 -0.24067 0)
(0.00741482 -0.250124 0)
(0.00572888 -0.245025 0)
(0.00401413 -0.25012 0)
(0.00277517 -0.247453 0)
(0.00162823 -0.249835 0)
(0.000802298 -0.248001 0)
(0.000108563 -0.249181 0)
(0.0152801 -0.280406 0)
(0.0111987 -0.298822 0)
(0.00904868 -0.287013 0)
(0.0064897 -0.297294 0)
(0.00506101 -0.291102 0)
(0.00340249 -0.296942 0)
(0.00244647 -0.293423 0)
(0.00139347 -0.296386 0)
(0.000746439 -0.293965 0)
(7.95594e-05 -0.295647 0)
(0.0141829 -0.334644 0)
(0.010085 -0.351718 0)
(0.00814851 -0.34113 0)
(0.00557205 -0.351286 0)
(0.00440358 -0.34519 0)
(0.00278587 -0.351311 0)
(0.00206308 -0.347542 0)
(0.00104722 -0.350878 0)
(0.000588694 -0.348177 0)
(4.93979e-06 -0.350281 0)
(0.0121236 -0.390345 0)
(0.00846266 -0.404055 0)
(0.00683187 -0.396675 0)
(0.00449848 -0.40529 0)
(0.00357251 -0.400642 0)
(0.00208778 -0.406069 0)
(0.00153767 -0.402882 0)
(0.000593375 -0.40597 0)
(0.000328758 -0.403521 0)
(-8.51544e-05 -0.405643 0)
(0.0091915 -0.438704 0)
(0.00633738 -0.448196 0)
(0.00508984 -0.444844 0)
(0.00326126 -0.450964 0)
(0.00256786 -0.44851 0)
(0.0013683 -0.452392 0)
(0.000949689 -0.450369 0)
(0.00017961 -0.452565 0)
(7.64033e-05 -0.45082 0)
(-0.000133583 -0.452427 0)
(0.00568606 -0.472832 0)
(0.0038689 -0.478792 0)
(0.00309628 -0.478804 0)
(0.00194472 -0.482553 0)
(0.00151589 -0.482082 0)
(0.000735243 -0.484315 0)
(0.000463433 -0.483465 0)
(-3.94707e-05 -0.484605 0)
(-5.03936e-05 -0.483653 0)
(-0.000116638 -0.48452 0)
(0.00191855 -0.490021 0)
(0.00128182 -0.494129 0)
(0.00103299 -0.495958 0)
(0.000637878 -0.49834 0)
(0.000499871 -0.498967 0)
(0.00022573 -0.500194 0)
(0.000133769 -0.500032 0)
(-4.37896e-05 -0.500502 0)
(-3.51985e-05 -0.500051 0)
(-4.64131e-05 -0.500416 0)
(0.0167908 -0.151466 4.83505e-21)
(0.0169844 -0.177977 -4.74017e-21)
(0.0180768 -0.209628 6.12967e-22)
(0.0180825 -0.24816 0)
(0.0176292 -0.294493 0)
(0.0162831 -0.346449 7.11097e-22)
(0.0138949 -0.398112 -3.05823e-21)
(0.0105873 -0.441952 3.018e-21)
(0.0066212 -0.472462 8.21719e-22)
(0.00225153 -0.487735 -8.08904e-22)
(0.0169453 -0.156513 -5.70226e-21)
(0.0178604 -0.182833 0)
(0.0191025 -0.214594 4.17135e-21)
(0.0191462 -0.253165 -9.62883e-21)
(0.0186641 -0.299147 6.1842e-21)
(0.0172019 -0.350139 -6.5628e-22)
(0.0146766 -0.400328 1.46375e-21)
(0.0112102 -0.442624 3.09047e-21)
(0.00704028 -0.471964 8.7147e-22)
(0.00239607 -0.486655 8.45548e-22)
(0.017459 -0.161762 6.66645e-21)
(0.0191021 -0.187979 -4.60315e-21)
(0.0203861 -0.219587 4.55957e-21)
(0.0204215 -0.25793 -5.11133e-21)
(0.0198614 -0.303369 3.7824e-21)
(0.0182402 -0.353286 0)
(0.0155323 -0.402003 -1.46732e-21)
(0.0118585 -0.442856 7.67087e-23)
(0.007449 -0.471167 -1.62324e-21)
(0.00252521 -0.485371 -1.6585e-21)
(0.0183534 -0.166461 -1.07928e-21)
(0.0206387 -0.192752 0)
(0.021908 -0.224282 0)
(0.0219073 -0.262409 0)
(0.0212321 -0.307303 4.21763e-21)
(0.0194229 -0.356165 -2.82037e-21)
(0.0164953 -0.40346 -1.92714e-23)
(0.0125671 -0.442914 -1.73475e-21)
(0.00787699 -0.470203 -8.90432e-22)
(0.00265295 -0.483895 -9.53398e-22)
(0.0196961 -0.170701 1.14197e-22)
(0.0224425 -0.196922 -3.26405e-21)
(0.0236401 -0.228358 -2.49988e-21)
(0.0235795 -0.266298 2.49832e-21)
(0.0227612 -0.310695 -1.3783e-21)
(0.0207478 -0.358599 0)
(0.0175794 -0.404608 -1.61743e-21)
(0.0133646 -0.442777 3.54137e-21)
(0.00835772 -0.469098 -1.8125e-21)
(0.00279714 -0.482274 1.86555e-21)
(0.0215284 -0.174568 -8.68176e-21)
(0.0245348 -0.200522 9.37547e-22)
(0.025596 -0.231742 -1.84605e-22)
(0.0254383 -0.269451 2.56853e-21)
(0.0244457 -0.313363 0)
(0.0222109 -0.360402 0)
(0.018784 -0.405287 0)
(0.0142589 -0.442342 1.89816e-21)
(0.00890458 -0.467815 0)
(0.00296674 -0.48053 0)
(0.0238624 -0.17797 0)
(0.0269351 -0.203537 3.59568e-21)
(0.0278041 -0.23443 -2.43008e-21)
(0.0275024 -0.271849 -2.88579e-21)
(0.0263004 -0.315267 2.9008e-21)
(0.0238202 -0.361516 1.72927e-21)
(0.0201109 -0.405424 -1.7157e-21)
(0.0152489 -0.441541 -6.78087e-21)
(0.00951669 -0.466315 4.82778e-22)
(0.00316306 -0.478657 -1.65251e-21)
(0.0267061 -0.180775 0)
(0.0296507 -0.205889 -1.16838e-21)
(0.0302846 -0.236384 -6.60775e-22)
(0.0297897 -0.273486 0)
(0.0283443 -0.316415 8.43325e-22)
(0.0255907 -0.361952 -2.54559e-21)
(0.0215682 -0.405024 2.83336e-21)
(0.0163361 -0.440366 1.01081e-21)
(0.0101913 -0.464583 -1.10629e-21)
(0.00338537 -0.47664 2.19239e-21)
(0.0300703 -0.18288 1.04871e-21)
(0.0326864 -0.207507 1.26992e-21)
(0.0330496 -0.237552 -2.81273e-22)
(0.0323106 -0.274338 3.77983e-22)
(0.0305921 -0.316808 8.03343e-22)
(0.027536 -0.36173 1.34825e-21)
(0.0231667 -0.40411 -5.07029e-22)
(0.0175259 -0.43883 -5.47831e-22)
(0.0109289 -0.462617 1.10993e-21)
(0.00363374 -0.474467 6.01561e-22)
(0.0339651 -0.184196 -2.93098e-22)
(0.0360478 -0.208354 2.95802e-22)
(0.0361088 -0.237889 -3.40282e-22)
(0.0350716 -0.274382 -3.77495e-22)
(0.0330541 -0.316433 4.48105e-22)
(0.0296664 -0.360854 -9.14797e-22)
(0.0249162 -0.40269 7.75871e-22)
(0.0188263 -0.436942 2.77387e-22)
(0.0117335 -0.46042 0)
(0.00390984 -0.472132 -6.02904e-22)
(0.0383984 -0.184659 3.00545e-22)
(0.0397376 -0.208423 -3.03424e-22)
(0.0394716 -0.237375 -3.65658e-22)
(0.0380774 -0.273615 -4.08146e-22)
(0.035739 -0.315288 -4.67712e-22)
(0.0319887 -0.359329 -3.27042e-23)
(0.026824 -0.400775 2.73478e-22)
(0.020243 -0.434711 8.82877e-22)
(0.012608 -0.457993 0)
(0.00421469 -0.469633 -6.58073e-22)
(0.0433752 -0.184249 0)
(0.043756 -0.207713 -1.39914e-21)
(0.0431446 -0.236021 2.53659e-21)
(0.04133 -0.272045 4.08836e-22)
(0.0386552 -0.313376 9.49625e-22)
(0.0345097 -0.357155 1.5582e-21)
(0.0288992 -0.398358 -5.54145e-22)
(0.0217852 -0.432127 -5.98951e-22)
(0.0135593 -0.45533 1.32487e-21)
(0.00455051 -0.466963 6.56539e-22)
(0.0488966 -0.18301 0)
(0.0481025 -0.206217 -1.38e-21)
(0.0471309 -0.233866 -7.62861e-22)
(0.0448339 -0.269693 0)
(0.0418079 -0.310733 -2.99083e-21)
(0.0372333 -0.354358 9.99698e-22)
(0.0311442 -0.395463 1.18998e-21)
(0.0234523 -0.42921 3.84213e-21)
(0.014585 -0.45243 -1.32057e-21)
(0.00491534 -0.464112 2.85053e-21)
(0.0549585 -0.181059 0)
(0.0527799 -0.203926 1.39177e-21)
(0.0514184 -0.23105 0)
(0.0485889 -0.266548 3.82256e-21)
(0.0452031 -0.307374 -3.84217e-21)
(0.0401688 -0.350926 -2.34766e-21)
(0.0335696 -0.392067 -5.23707e-23)
(0.025261 -0.425931 -3.95426e-21)
(0.0156999 -0.449269 -6.59135e-22)
(0.00531344 -0.461057 -3.54567e-21)
(0.0615338 -0.178496 1.0053e-20)
(0.0577892 -0.200823 -3.85892e-21)
(0.0560125 -0.227559 4.13692e-22)
(0.0526256 -0.262619 -3.57109e-21)
(0.0488297 -0.303331 0)
(0.0433175 -0.346907 -2.44858e-21)
(0.0361714 -0.388224 -2.04457e-22)
(0.027203 -0.422333 5.37094e-21)
(0.0168956 -0.445886 7.36251e-22)
(0.00573965 -0.457826 -7.39076e-22)
(0.0685692 -0.175312 -1.03563e-21)
(0.0631585 -0.196969 7.22024e-21)
(0.0608773 -0.223378 3.71606e-21)
(0.0569317 -0.258047 -3.71353e-21)
(0.0526931 -0.298629 -2.23748e-21)
(0.0466908 -0.342276 0)
(0.0389707 -0.383868 -5.48611e-21)
(0.0293052 -0.418351 2.75138e-21)
(0.0181949 -0.442237 2.93784e-21)
(0.0062026 -0.454385 3.1539e-21)
(0.0759931 -0.171558 -1.38664e-21)
(0.0688846 -0.192503 0)
(0.0659834 -0.218645 0)
(0.0614907 -0.252961 0)
(0.0567851 -0.293449 -2.58148e-21)
(0.0502658 -0.337266 4.81062e-21)
(0.0419271 -0.379244 5.58887e-21)
(0.0315158 -0.414174 -8.79987e-21)
(0.0195545 -0.438423 1.57481e-21)
(0.00668067 -0.450789 -4.68437e-21)
(0.0836836 -0.167346 -2.07338e-21)
(0.0749618 -0.187396 7.12649e-21)
(0.0713167 -0.213308 -7.05843e-21)
(0.0663104 -0.247163 9.05546e-21)
(0.0611401 -0.287464 -1.13881e-20)
(0.054115 -0.331419 0)
(0.0451536 -0.373868 -2.92211e-21)
(0.033964 -0.409433 -1.2037e-22)
(0.0210773 -0.434238 -3.27323e-21)
(0.00721765 -0.446902 -3.33537e-21)
(0.0914521 -0.163227 -1.47383e-21)
(0.0813117 -0.182187 0)
(0.0767621 -0.208071 -9.4244e-21)
(0.0712562 -0.241605 1.77458e-20)
(0.0655874 -0.281919 -6.86834e-21)
(0.0580073 -0.32614 -1.38319e-21)
(0.048362 -0.36902 2.91578e-21)
(0.0363562 -0.405009 -1.4731e-22)
(0.0225449 -0.430132 4.77786e-21)
(0.00771391 -0.442977 4.93601e-21)
(0.0996188 -0.157239 -6.63192e-21)
(0.0888417 -0.174702 6.501e-21)
(0.0830176 -0.200377 1.00414e-21)
(0.0769319 -0.233333 0)
(0.0707364 -0.273459 0)
(0.0626358 -0.318057 1.35768e-21)
(0.0523098 -0.36191 6.21447e-21)
(0.0394003 -0.399109 -6.07893e-21)
(0.0244637 -0.425212 -1.66385e-21)
(0.00838862 -0.438472 1.63598e-21)
(0.110542 -0.157798 0)
(0.105268 -0.171912 0)
(0.0961965 -0.198522 0)
(0.0886321 -0.230866 0)
(0.0809689 -0.270017 0)
(0.0712657 -0.313068 0)
(0.0592027 -0.355107 0)
(0.0444231 -0.390644 0)
(0.0274947 -0.415738 0)
(0.00925619 -0.428817 0)
(0.130018 -0.143442 0)
(0.133161 -0.162667 0)
(0.11924 -0.192503 0)
(0.110931 -0.224458 0)
(0.100633 -0.262547 0)
(0.0880459 -0.30317 0)
(0.0727701 -0.342057 0)
(0.0544436 -0.374324 0)
(0.0337439 -0.396424 0)
(0.0116986 -0.407016 0)
(0.15657 -0.129687 0)
(0.162951 -0.151327 0)
(0.144192 -0.181333 0)
(0.135792 -0.211934 0)
(0.121988 -0.248415 0)
(0.106035 -0.285983 0)
(0.0869098 -0.32169 0)
(0.0645331 -0.351558 0)
(0.0396475 -0.37286 0)
(0.0130886 -0.384559 0)
(0.189616 -0.120099 0)
(0.197217 -0.141885 0)
(0.173353 -0.170701 0)
(0.165259 -0.200039 0)
(0.146793 -0.234798 0)
(0.127238 -0.268881 0)
(0.103613 -0.30112 0)
(0.0765931 -0.327449 0)
(0.0471327 -0.345163 0)
(0.0165033 -0.352818 0)
(0.228502 -0.108114 0)
(0.234372 -0.12813 0)
(0.205701 -0.154535 0)
(0.197027 -0.181388 0)
(0.171781 -0.212252 0)
(0.148002 -0.24139 0)
(0.118715 -0.269847 0)
(0.0867048 -0.293614 0)
(0.0524687 -0.311531 0)
(0.01654 -0.323182 0)
(0.273702 -0.0990046 0)
(0.276159 -0.116529 0)
(0.243548 -0.14114 0)
(0.23281 -0.16471 0)
(0.199725 -0.191544 0)
(0.172634 -0.216657 0)
(0.137188 -0.242106 0)
(0.0999262 -0.262358 0)
(0.0608548 -0.276266 0)
(0.0224574 -0.27976 0)
(0.320547 -0.0813459 0)
(0.315518 -0.0950171 0)
(0.279967 -0.115469 0)
(0.263901 -0.133218 0)
(0.222873 -0.154596 0)
(0.192092 -0.174341 0)
(0.147591 -0.194726 0)
(0.104913 -0.21163 0)
(0.0605492 -0.228533 0)
(0.0150843 -0.247081 0)
(0.367565 -0.0692088 0)
(0.355966 -0.0787574 0)
(0.320538 -0.0956191 0)
(0.297966 -0.108653 0)
(0.253935 -0.127073 0)
(0.219055 -0.143146 0)
(0.168364 -0.161647 0)
(0.122049 -0.178259 0)
(0.0724767 -0.194784 0)
(0.0350339 -0.191668 0)
(0.406048 -0.0379481 0)
(0.389645 -0.0422628 0)
(0.343246 -0.0524054 0)
(0.313356 -0.0585764 0)
(0.258467 -0.0696508 0)
(0.214727 -0.077181 0)
(0.150389 -0.0876367 0)
(0.0931801 -0.097161 0)
(0.0331683 -0.117037 0)
(-0.0334184 -0.16763 0)
(0.649914 -0.0194894 0)
(0.627901 -0.022526 0)
(0.586266 -0.0271655 0)
(0.552071 -0.0313774 0)
(0.499323 -0.0378203 0)
(0.450768 -0.0444752 0)
(0.382545 -0.0548755 0)
(0.310694 -0.06982 0)
(0.215323 -0.0989277 0)
(0.153499 -0.156792 0)
(0.132676 -0.141556 6.77656e-21)
(0.154855 -0.126641 -6.67522e-21)
(0.181591 -0.113382 1.09523e-21)
(0.214295 -0.104099 0)
(0.253008 -0.0931476 0)
(0.296277 -0.0849008 1.67369e-21)
(0.341886 -0.0692831 -7.99164e-21)
(0.385953 -0.0595024 7.88769e-21)
(0.432781 -0.0321539 2.25057e-21)
(0.671177 -0.0170038 -2.27739e-21)
(0.139923 -0.134586 -6.29417e-21)
(0.161901 -0.119457 0)
(0.188016 -0.106695 7.81897e-21)
(0.220647 -0.0977051 -1.89114e-20)
(0.259437 -0.0871977 1.27589e-20)
(0.302594 -0.0793329 -1.55796e-21)
(0.348192 -0.0644796 3.39814e-21)
(0.3921 -0.0556568 7.65943e-21)
(0.442625 -0.0298738 2.08777e-21)
(0.679457 -0.0159421 2.07808e-21)
(0.146281 -0.126836 7.27354e-21)
(0.167747 -0.111891 -7.33691e-21)
(0.193207 -0.0998443 7.26752e-21)
(0.225477 -0.0912682 -1.00647e-20)
(0.264174 -0.0812921 7.29747e-21)
(0.307344 -0.0739172 0)
(0.352995 -0.0599066 -3.40635e-21)
(0.397308 -0.0520925 -6.91941e-23)
(0.451236 -0.0278274 -3.94677e-21)
(0.687187 -0.0149235 -4.15093e-21)
(0.152616 -0.118528 -1.25407e-21)
(0.173977 -0.104096 0)
(0.199027 -0.0928601 0)
(0.230898 -0.0847628 0)
(0.269354 -0.0754109 8.2775e-21)
(0.312435 -0.0686148 -5.63882e-21)
(0.357969 -0.0555258 -2.21132e-22)
(0.402592 -0.0487202 -3.8947e-21)
(0.459275 -0.0259849 -1.98268e-21)
(0.6946 -0.0139819 -2.02703e-21)
(0.15841 -0.109825 1.27938e-21)
(0.179896 -0.0961982 -3.97317e-21)
(0.204641 -0.0858346 -4.1302e-21)
(0.23637 -0.0782504 4.12764e-21)
(0.274579 -0.0695802 -2.6014e-21)
(0.317632 -0.0634349 0)
(0.363015 -0.0512998 -3.31865e-21)
(0.40791 -0.045464 7.41921e-21)
(0.46691 -0.0242854 -3.72994e-21)
(0.70167 -0.013119 4.04845e-21)
(0.163446 -0.100754 -9.36242e-21)
(0.185071 -0.0882164 4.66028e-22)
(0.209504 -0.0788019 -6.59292e-22)
(0.24117 -0.0717859 4.03559e-21)
(0.27923 -0.0638343 0)
(0.322372 -0.0583951 0)
(0.367576 -0.0472297 0)
(0.412955 -0.0423095 3.54765e-21)
(0.474 -0.022693 0)
(0.708299 -0.0123246 0)
(0.167655 -0.0913352 0)
(0.189449 -0.0801371 4.73458e-21)
(0.21359 -0.0717397 -3.28677e-21)
(0.245126 -0.0653716 -4.61774e-21)
(0.283097 -0.0581929 4.64175e-21)
(0.326377 -0.0534771 3.00805e-21)
(0.371415 -0.0433255 -2.83833e-21)
(0.417464 -0.0392791 -1.22171e-20)
(0.480356 -0.0211865 8.65023e-22)
(0.714406 -0.011599 -2.89822e-21)
(0.170935 -0.0816001 0)
(0.192998 -0.0719526 -1.4526e-21)
(0.21693 -0.0646259 -8.76478e-22)
(0.248285 -0.0589877 0)
(0.286185 -0.0526357 1.40188e-21)
(0.329579 -0.0486627 -4.03218e-21)