/*--------------------------------*- C++ -*----------------------------------*\
  =========                 |
  \\      /  F ield         | OpenFOAM: The Open Source CFD Toolbox
   \\    /   O peration     | Website:  https://openfoam.org
    \\  /    A nd           | Version:  7
     \\/     M anipulation  |
\*---------------------------------------------------------------------------*/
FoamFile
{
    version     2.0;
    format      ascii;
    class       volScalarField;
    location    "4";
    object      p;
}
// * * * * * * * * * * * * * * * * * * * * * * * * * * * * * * * * * * * * * //

dimensions      [1 -1 -2 0 0 0 0];

internalField   nonuniform List<scalar> 
25410
(
1
1
1
1
1
1
1
1
1
1
1
1
1
1
1
1
1
1
1
1
1
1
1
1
1
1
1
1.38405
7.7029
10.4787
10.539
10.6416
10.737
10.8319
10.9236
11.0122
11.0979
11.1808
11.2606
11.3375
11.4116
11.4823
11.5495
11.6134
11.6738
11.7304
11.7831
11.8314
11.8752
11.9149
11.9497
11.979
12.0017
12.0183
12.0298
1
1
1
1
1
1
1
1
1
1
1
1
1
1
1
1
1
1
1
1
1
1
1
1
1
1
1
1.36993
7.65281
10.47
10.5385
10.6399
10.735
10.8295
10.9208
11.0093
11.0949
11.1776
11.2574
11.3341
11.408
11.4786
11.5456
11.6093
11.6695
11.7259
11.7782
11.8261
11.8695
11.9087
11.943
11.972
11.9945
12.0109
12.0223
1
1
1
1
1
1
1
1
1
1
1
1
1
1
1
1
1
1
1
1
1
1
1
1
1
1
1
1.33772
7.55758
10.4641
10.5308
10.6324
10.7279
10.8226
10.914
11.0025
11.088
11.1708
11.2506
11.3274
11.4012
11.4717
11.5386
11.6022
11.6622
11.7183
11.7702
11.8175
11.8602
11.8987
11.9323
11.9607
11.9828
11.9991
12.0105
1
1
1
1
1
1
1
1
1
1
1
1
1
1
1
1
1
1
1
1
1
1
1
1
1
1
1
1.29015
7.41949
10.4593
10.5233
10.6239
10.7191
10.8135
10.9046
10.9927
11.078
11.1607
11.2405
11.3172
11.391
11.4613
11.5281
11.5915
11.6512
11.7068
11.7582
11.8049
11.8468
11.8843
11.9169
11.9444
11.9658
11.9816
11.9929
1
1
1
1
1
1
1
1
1
1
1
1
1
1
1
1
1
1
1
1
1
1
1
1
1
1
1
1.22416
7.23162
10.4555
10.5161
10.6151
10.7095
10.8029
10.8931
10.9805
11.0651
11.1474
11.2269
11.3034
11.377
11.4472
11.5138
11.5769
11.6362
11.6915
11.7424
11.7888
11.8301
11.8667
11.8979
11.9239
11.9441
11.9585
11.9693
1
1
1
1
1
1
1
1
1
1
1
1
1
1
1
1
1
1
1
1
1
1
1
1
1
1
1
1.14074
7.01696
10.4463
10.5026
10.6
10.6939
10.7872
10.8774
10.9647
11.0492
11.1312
11.2104
11.2865
11.3597
11.4296
11.4959
11.5588
11.6178
11.6728
11.7234
11.7693
11.8099
11.8455
11.8754
11.8997
11.9182
11.9305
11.94
1
1
1
1
1
1
1
1
1
1
1
1
1
1
1
1
1
1
1
1
1
1
1
1
1
1
1
1.03207
6.7569
10.4265
10.4904
10.5872
10.6819
10.7745
10.8633
10.9485
11.0308
11.1108
11.1884
11.2634
11.3355
11.4047
11.4706
11.5332
11.5922
11.6469
11.6973
11.7427
11.7826
11.8173
11.8462
11.8697
11.8879
11.8995
11.9087
1
1
1
1
1
1
1
1
1
1
1
1
1
1
1
1
1
1
1
1
1
1
1
1
1
1
1
1.00107
6.41186
10.3695
10.4565
10.5513
10.6475
10.7406
10.8299
10.9155
10.998
11.0781
11.1559
11.231
11.3033
11.3728
11.4391
11.502
11.5611
11.6158
11.666
11.7112
11.7509
11.7852
11.8134
11.8357
11.8528
11.8627
11.8708
1
1
1
1
1
1
1
1
1
1
1
1
1
1
1
1
1
1
1
1
1
1
1
1
1
1
1
1.00001
5.98676
10.3087
10.4324
10.5268
10.6253
10.7182
10.8064
10.8903
10.9708
11.0491
11.1252
11.1987
11.2695
11.3376
11.4027
11.4646
11.5229
11.5771
11.627
11.6721
11.7117
11.7458
11.7737
11.7954
11.812
11.8213
11.8292
1
1
1
1
1
1
1
1
1
1
1
1
1
1
1
1
1
1
1
1
1
1
1
1
1
1
1
1
5.50284
10.2309
10.4046
10.4996
10.5997
10.6923
10.7796
10.862
10.9409
11.017
11.0908
11.1618
11.2302
11.2961
11.3595
11.42
11.4773
11.5309
11.5803
11.6251
11.6645
11.6984
11.726
11.7473
11.7635
11.7721
11.7796
1
1
1
1
1
1
1
1
1
1
1
1
1
1
1
1
1
1
1
1
1
1
1
1
1
1
1
1
4.97299
10.1258
10.3767
10.4726
10.5735
10.6653
10.7514
10.8322
10.909
10.9829
11.0544
11.123
11.1887
11.252
11.313
11.3716
11.4271
11.4793
11.5275
11.5714
11.6101
11.6436
11.6709
11.6921
11.7082
11.7166
11.7242
1
1
1
1
1
1
1
1
1
1
1
1
1
1
1
1
1
1
1
1
1
1
1
1
1
1
1
1
4.40533
9.97984
10.3515
10.4482
10.5486
10.6389
10.7234
10.8024
10.8771
10.9485
11.0171
11.0827
11.1449
11.2043
11.2615
11.3167
11.3694
11.4191
11.4655
11.5081
11.546
11.5792
11.6062
11.6268
11.6422
11.6499
11.6567
1
1
1
1
1
1
1
1
1
1
1
1
1
1
1
1
1
1
1
1
1
1
1
1
1
1
1
1
3.81501
9.77377
10.3294
10.4225
10.5205
10.609
10.6914
10.7684
10.8411
10.9101
10.9762
11.0391
11.0983
11.1543
11.208
11.2593
11.3081
11.3543
11.3976
11.4375
11.4734
11.5049
11.5306
11.5505
11.5654
11.573
11.5802
1
1
1
1
1
1
1
1
1
1
1
1
1
1
1
1
1
1
1
1
1
1
1
1
1
1
1
1
3.21518
9.47966
10.3132
10.3997
10.4931
10.5772
10.6569
10.7317
10.802
10.8687
10.932
10.9921
11.0482
11.1007
11.1506
11.1979
11.2423
11.2839
11.3228
11.3588
11.3916
11.4206
11.4443
11.4621
11.4748
11.4807
11.4865
1
1
1
1
1
1
1
1
1
1
1
1
1
1
1
1
1
1
1
1
1
1
1
1
1
1
1
1
2.65503
9.0902
10.3304
10.3756
10.4686
10.549
10.6249
10.6967
10.7642
10.8273
10.8865
10.9425
10.9947
11.0431
11.0886
11.1314
11.1709
11.2074
11.2412
11.2721
11.2998
11.3237
11.3427
11.3569
11.3675
11.3729
11.3793
1
1
1
1
1
1
1
1
1
1
1
1
1
1
1
1
1
1
1
1
1
1
1
1
1
1
1
1
2.09634
8.55195
10.3386
10.3656
10.4525
10.522
10.5935
10.6613
10.7254
10.7855
10.8408
10.8924
10.9399
10.9832
11.0233
11.0605
11.0943
11.1248
11.1522
11.1766
11.1979
11.2156
11.2291
11.2379
11.2421
11.2417
11.2432
1
1
1
1
1
1
1
1
1
1
1
1
1
1
1
1
1
1
1
1
1
1
1
1
1
1
1
1
1.55122
8.00766
10.3916
10.3238
10.4141
10.483
10.5527
10.618
10.6808
10.7391
10.7915
10.8391
10.8823
10.9205
10.9546
10.9853
11.0123
11.0358
11.0559
11.0722
11.0846
11.0922
11.0946
11.0924
11.0882
11.0835
11.0863
1
1
1
1
1
1
1
1
1
1
1
1
1
1
1
1
1
1
1
1
1
1
1
1
1
1
1
1
1.11292
7.28371
10.3816
10.2989
10.363
10.422
10.4949
10.5647
10.6278
10.6863
10.7374
10.7819
10.821
10.8544
10.8824
10.906
10.9254
10.9403
10.9514
10.9572
10.9584
10.9538
10.9444
10.9309
10.9119
10.8895
10.8738
1
1
1
1
1
1
1
1
1
1
1
1
1
1
1
1
1
1
1
1
1
1
1
1
1
1
1
1
1.00324
6.45111
10.1581
10.1747
10.2817
10.36
10.4358
10.5029
10.5693
10.6273
10.6767
10.7189
10.7543
10.7836
10.8057
10.822
10.8329
10.8385
10.8393
10.8326
10.8205
10.7998
10.769
10.7266
10.6789
10.6349
10.6232
1
1
1
1
1
1
1
1
1
1
1
1
1
1
1
1
1
1
1
1
1
1
1
1
1
1
1
1
1.00001
5.46554
9.95954
10.1308
10.2348
10.3122
10.3844
10.4488
10.5011
10.5583
10.6076
10.648
10.6804
10.7062
10.7234
10.7327
10.7348
10.7302
10.7184
10.6974
10.6673
10.6239
10.5674
10.4983
10.4236
10.335
10.2443
1
1
1
1
1
1
1
1
1
1
1
1
1
1
1
1
1
1
1
1
1
1
1
1
1
1
1
1
1
4.49211
9.68277
10.0406
10.1631
10.2594
10.3314
10.391
10.4463
10.4893
10.5312
10.5704
10.6001
10.6226
10.6345
10.6374
10.6308
10.6151
10.5893
10.5517
10.5012
10.4336
10.346
10.2249
10.0568
9.86714
9.71838
1
1
1
1
1
1
1
1
1
1
1
1
1
1
1
1
1
1
1
1
1
1
1
1
1
1
1
1
1
3.53395
9.2641
10.0308
10.1431
10.2225
10.2815
10.3322
10.3765
10.4183
10.4563
10.4859
10.5119
10.5311
10.5375
10.5345
10.5195
10.4925
10.4519
10.3958
10.3222
10.2225
10.0869
9.89971
9.65571
9.37979
9.19134
1
1
1
1
1
1
1
1
1
1
1
1
1
1
1
1
1
1
1
1
1
1
1
1
1
1
1
1
1
2.58714
8.6601
10.0334
10.1026
10.1742
10.2369
10.2818
10.316
10.3463
10.374
10.401
10.4198
10.4335
10.4336
10.4242
10.4009
10.3631
10.3073
10.2312
10.1321
9.9979
9.81775
9.56321
9.16891
8.33471
6.40996
1
1
1
1
1
1
1
1
1
1
1
1
1
1
1
1
1
1
1
1
1
1
1
1
1
1
1
1
1
1.66507
7.98444
10.1304
10.0818
10.1344
10.1783
10.2182
10.2528
10.2796
10.2991
10.3141
10.3267
10.3329
10.3244
10.3073
10.2751
10.2263
10.1554
10.0587
9.93264
9.76218
9.5276
9.18818
8.61132
7.67608
5.48241
1
1
1
1
1
1
1
1
1
1
1
1
1
1
1
1
1
1
1
1
1
1
1
1
1
1
1
1
1
1.07502
6.98946
10.1374
10.0343
10.0472
10.1065
10.1531
10.1871
10.2096
10.2239
10.2312
10.2344
10.2323
10.2151
10.1877
10.1451
10.0845
9.99861
9.88185
9.72854
9.52387
9.23736
8.82989
8.15492
7.14433
5.04337
1
1
1
1
1
1
1
1
1
1
1
1
1
1
1
1
1
1
1
1
1
1
1
1
1
1
1
1
1
1.00063
5.75651
9.80008
9.8749
9.97277
10.035
10.0864
10.1178
10.1377
10.1481
10.1481
10.1424
10.131
10.1049
10.0672
10.0126
9.93879
9.83805
9.70259
9.52372
9.28765
8.96244
8.49568
7.81275
6.67653
4.90302
1
1
1
1
1
1
1
1
1
1
1
1
1
1
1
1
1
1
1
1
1
1
1
1
1
1
1
1
1
0.99999
4.43313
9.42027
9.83171
9.93237
9.97612
10.013
10.0421
10.0603
10.0681
10.0641
10.0504
10.0283
9.99482
9.94771
9.88147
9.79381
9.67791
9.52495
9.32394
9.05981
8.70791
8.20539
7.52068
6.39877
4.96042
1
1
1
1
1
1
1
1
1
1
1
1
1
1
1
1
1
1
1
1
1
1
1
1
1
1
1
1
1
0.999997
3.1781
8.91597
9.81885
9.89018
9.93423
9.94996
9.96742
9.97928
9.98406
9.97706
9.95764
9.92638
9.88326
9.82643
9.75004
9.65005
9.51962
9.3509
9.13182
8.84609
8.47471
7.96506
7.29401
6.24023
5.05403
1
1
1
1
1
1
1
1
1
1
1
1
1
1
1
1
1
1
1
1
1
1
1
1
1
1
1
1
1
0.999999
1.99123
8.19341
9.88831
9.85276
9.87136
9.8899
9.90216
9.90618
9.90348
9.89054
9.86578
9.82668
9.77365
9.70663
9.6204
9.51072
9.36813
9.18454
8.95098
8.64999
8.266
7.76282
7.11124
6.16903
5.1644
1
1
1
1
1
1
1
1
1
1
1
1
1
1
1
1
1
1
1
1
1
1
1
1
1
1
1
1
1
1
1.14478
7.10248
9.92235
9.80068
9.79047
9.8216
9.83226
9.83148
9.82123
9.80185
9.77148
9.72704
9.66612
9.58865
9.49229
9.37089
9.22066
9.02586
8.78234
8.47281
8.08475
7.59089
6.96965
6.14202
5.27379
1
1
1
1
1
1
1
1
1
1
1
1
1
1
1
1
1
1
1
1
1
1
1
1
1
1
1
1
1
1
1.00251
5.71326
9.50461
9.63433
9.69436
9.74144
9.75623
9.75503
9.74047
9.71558
9.67885
9.62831
9.56096
9.47452
9.36865
9.2378
9.07812
8.87796
8.62918
8.31391
7.93077
7.44379
6.85946
6.13294
5.37171
1
1
1
1
1
1
1
1
1
1
1
1
1
1
1
1
1
1
1
1
1
1
1
1
1
1
1
1
1
1
0.999961
4.15663
9.09896
9.59295
9.66434
9.68822
9.68792
9.68002
9.66051
9.62978
9.58664
9.52987
9.45723
9.36439
9.25024
9.11091
8.94287
8.73567
8.48611
8.17211
7.79865
7.32192
6.77757
6.13211
5.46813
1
1
1
1
1
1
1
1
1
1
1
1
1
1
1
1
1
1
1
1
1
1
1
1
1
1
1
1
1
1
0.999989
2.59513
8.50188
9.63928
9.63384
9.62032
9.61967
9.60673
9.58241
9.54686
9.49849
9.43573
9.35609
9.25726
9.1365
8.9899
8.81579
8.60583
8.35382
8.04494
7.68441
7.22364
6.72114
6.13583
5.55224
1
1
1
1
1
1
1
1
1
1
1
1
1
1
1
1
1
1
1
1
1
1
1
1
1
1
1
1
1
1
0.999998
1.33334
7.59063
9.75631
9.57383
9.53247
9.54131
9.52834
9.50208
9.46271
9.40955
9.34178
9.25662
9.15327
9.02835
8.87671
8.69765
8.48624
8.23414
7.93298
7.57917
7.14611
6.68198
6.14261
5.62194
1
1
1
1
1
1
1
1
1
1
1
1
1
1
1
1
1
1
1
1
1
1
1
1
1
1
1
1
1
1
1
1.01541
6.1612
9.34527
9.39144
9.43696
9.46203
9.44885
9.42289
9.38115
9.32392
9.25182
9.16299
9.05426
8.9244
8.76914
8.58681
8.37503
8.12505
7.83406
7.48592
7.08348
6.65449
6.15657
5.68175
1
1
1
1
1
1
1
1
1
1
1
1
1
1
1
1
1
1
1
1
1
1
1
1
1
1
1
1
1
1
1
0.999868
4.3464
8.93548
9.32968
9.39749
9.4083
9.38152
9.34876
9.3023
9.24041
9.16323
9.07021
8.95808
8.82486
8.66821
8.48485
8.27379
8.02645
7.74336
7.40782
7.03013
6.62884
6.17391
5.73553
1
1
1
1
1
1
1
1
1
1
1
1
1
1
1
1
1
1
1
1
1
1
1
1
1
1
1
1
1
1
1
0.999962
2.54265
8.38249
9.40212
9.36637
9.34429
9.31678
9.27844
9.22604
9.15931
9.07776
8.98102
8.86667
8.73209
8.57363
8.38861
8.18028
7.93526
7.65867
7.34012
6.98493
6.60807
6.19005
5.78286
1
1
1
1
1
1
1
1
1
1
1
1
1
1
1
1
1
1
1
1
1
1
1
1
1
1
1
1
1
1
1
0.999992
1.26132
7.26382
9.45263
9.29439
9.26088
9.24548
9.20469
9.14943
9.08016
8.99588
8.89623
8.77876
8.6423
8.48412
8.30036
8.09672
7.85152
7.58101
7.28141
6.94714
6.59304
6.20496
5.82359
1
1
1
1
1
1
1
1
1
1
1
1
1
1
1
1
1
1
1
1
1
1
1
1
1
1
1
1
1
1
1
0.999999
1.00846
5.58164
8.98877
9.1466
9.20195
9.18077
9.13474
9.07646
9.00445
8.9169
8.81444
8.6951
8.55668
8.40181
8.21856
8.01432
7.7748
7.51234
7.22935
6.91498
6.58179
6.21731
5.86068
1
1
1
1
1
1
1
1
1
1
1
1
1
1
1
1
1
1
1
1
1
1
1
1
1
1
1
1
1
1
1
1
0.999893
3.51923
8.56971
9.16939
9.17533
9.13088
9.07394
9.00905
8.93281
8.84217
8.73806
8.61734
8.47851
8.32106
8.14317
7.93843
7.70848
7.45513
7.18228
6.88625
6.57183
6.22542
5.89468
1
1
1
1
1
1
1
1
1
1
1
1
1
1
1
1
1
1
1
1
1
1
1
1
1
1
1
1
1
1
1
1
0.99997
1.69643
7.87972
9.30379
9.11215
9.05086
8.9995
8.93535
8.85952
8.76855
8.66382
8.54225
8.40297
8.24532
8.07086
7.86952
7.64874
7.40566
7.13978
6.85961
6.56103
6.23269
5.92514
1
1
1
1
1
1
1
1
1
1
1
1
1
1
1
1
1
1
1
1
1
1
1
1
1
1
1
1
1
1
1
1
0.999993
1.05874
6.34849
8.96508
8.96635
8.95574
8.91926
8.86301
8.79043
8.70045
8.59516
8.47324
8.33452
8.17637
8.00374
7.80802
7.59487
7.3617
7.10427
6.83737
6.55162
6.24045
5.95067
1
1
1
1
1
1
1
1
1
1
1
1
1
1
1
1
1
1
1
1
1
1
1
1
1
1
1
1
1
1
1
1
0.999999
1.00012
4.17111
8.54046
8.90696
8.91499
8.87657
8.80963
8.72914
8.63555
8.52799
8.40606
8.26747
8.11148
7.94112
7.75154
7.54508
7.32036
7.07269
6.81786
6.54406
6.24742
5.97164
1
1
1
1
1
1
1
1
1
1
1
1
1
1
1
1
1
1
1
1
1
1
1
1
1
1
1
1
1
1
1
1
1
0.999997
2.06896
8.01883
9.0058
8.89181
8.81671
8.74464
8.66502
8.57219
8.46451
8.34336
8.20642
8.05398
7.88511
7.69977
7.49958
7.28244
7.04495
6.80133
6.53937
6.25533
5.99066
1
1
1
1
1
1
1
1
1
1
1
1
1
1
1
1
1
1
1
1
1
1
1
1
1
1
1
1
1
1
1
1
1
0.999999
1.12496
6.50866
8.82076
8.76405
8.73757
8.67557
8.60017
8.50908
8.40232
8.28295
8.1484
7.99862
7.83284
7.65118
7.45704
7.24694
7.0185
6.78462
6.53447
6.26268
6.00746
1
1
1
1
1
1
1
1
1
1
1
1
1
1
1
1
1
1
1
1
1
1
1
1
1
1
1
1
1
1
1
1
1
1
1.00128
4.24958
8.37653
8.70001
8.69426
8.63547
8.55785
8.4598
8.3493
8.22948
8.0959
7.94813
7.78567
7.60796
7.41926
7.21575
6.99465
6.76887
6.53005
6.27044
6.02376
1
1
1
1
1
1
1
1
1
1
1
1
1
1
1
1
1
1
1
1
1
1
1
1
1
1
1
1
1
1
1
1
1
1
0.999986
1.97821
7.85235
8.86748
8.70207
8.59314
8.49692
8.39748
8.29246
8.17705
8.04598
7.90051
7.7412
7.56739
7.3835
7.18626
6.9717
6.75309
6.52404
6.27633
6.03732
1
1
1
1
1
1
1
1
1
1
1
1
1
1
1
1
1
1
1
1
1
1
1
1
1
1
1
1
1
1
1
1
1
1
0.999996
1.10339
6.29775
8.57008
8.53969
8.50009
8.42057
8.33351
8.23835
8.12765
7.99919
7.8567
7.70122
7.53175
7.35229
7.16016
6.9513
6.73898
6.5183
6.28211
6.04962
1
1
1
1
1
1
1
1
1
1
1
1
1
1
1
1
1
1
1
1
1
1
1
1
1
1
1
1
1
1
1
1
1
1
0.999999
1.00075
3.86231
8.13378
8.50245
8.45783
8.37641
8.29995
8.20397
8.08906
7.95858
7.81676
7.66389
7.49816
7.32218
7.13444
6.93169
6.72492
6.51169
6.28621
6.05972
1
1
1
1
1
1
1
1
1
1
1
1
1
1
1
1
1
1
1
1
1
1
1
1
1
1
1
1
1
1
1
1
1
1
1
0.999992
1.63694
7.38685
8.67417
8.45832
8.34361
8.25821
8.1584
8.04313
7.9164
7.77927
7.63046
7.46822
7.29438
7.11024
6.91407
6.71244
6.50582
6.28947
6.06934
1
1
1
1
1
1
1
1
1
1
1
1
1
1
1
1
1
1
1
1
1
1
1
1
1
1
1
1
1
1
1
1
1
1
1
0.999998
1.04566
5.64819
8.31417
8.26728
8.26373
8.20829
8.11214
7.99925
7.87621
7.74275
7.59705
7.43781
7.26697
7.0869
6.89691
6.7003
6.49965
6.29146
6.07903
1
1
1
1
1
1
1
1
1
1
1
1
1
1
1
1
1
1
1
1
1
1
1
1
1
1
1
1
1
1
1
1
1
1
1
1
1.00003
3.06312
7.77406
8.30048
8.26629
8.19114
8.08588
7.97225
7.84953
7.71585
7.57
7.41211
7.24388
7.06689
6.88131
6.68924
6.49372
6.29301
6.08914
1
1
1
1
1
1
1
1
1
1
1
1
1
1
1
1
1
1
1
1
1
1
1
1
1
1
1
1
1
1
1
1
1
1
1
1
0.999999
1.36333
6.57844
8.36831
8.24636
8.1482
8.04061
7.93006
7.81219
7.68197
7.53836
7.38288
7.21761
7.04422
6.86378
6.6778
6.48859
6.29582
6.10055
1
1
1
1
1
1
1
1
1
1
1
1
1
1
1
1
1
1
1
1
1
1
1
1
1
1
1
1
1
1
1
1
1
1
1
1
1
1.01402
4.35599
7.92245
8.13557
8.08935
8.00019
7.90085
7.78692
7.65715
7.51346
7.35869
7.19509
7.02447
6.84882
6.66895
6.48615
6.30057
6.11208
1
1
1
1
1
1
1
1
1
1
1
1
1
1
1
1
1
1
1
1
1
1
1
1
1
1
1
1
1
1
1
1
1
1
1
1
1
0.999991
1.87646
7.17396
8.3076
8.12392
7.99549
7.88722
7.76473
7.62887
7.48311
7.32939
7.16865
7.00299
6.83461
6.66271
6.48732
6.30848
6.12591
1
1
1
1
1
1
1
1
1
1
1
1
1
1
1
1
1
1
1
1
1
1
1
1
1
1
1
1
1
1
1
1
1
1
1
1
1
0.999996
1.07889
5.46338
8.06194
7.99339
7.93819
7.84487
7.72181
7.58631
7.44293
7.29365
7.13949
6.98206
6.82219
6.65815
6.48923
6.31553
6.13806
1
1
1
1
1
1
1
1
1
1
1
1
1
1
1
1
1
1
1
1
1
1
1
1
1
1
1
1
1
1
1
1
1
1
1
1
1
0.999999
1.00052
2.75146
7.4477
8.03951
7.94034
7.82912
7.70349
7.56827
7.4244
7.27675
7.12795
6.97679
6.8219
6.6621
6.49691
6.32668
6.15316
1
1
1
1
1
1
1
1
1
1
1
1
1
1
1
1
1
1
1
1
1
1
1
1
1
1
1
1
1
1
1
1
1
1
1
1
1
1
0.999999
1.26948
6.11321
8.05947
7.91634
7.7868
7.66306
7.5297
7.39175
7.25157
7.10963
6.96419
6.81405
6.65848
6.4974
6.33175
6.163
1
1
1
1
1
1
1
1
1
1
1
1
1
1
1
1
1
1
1
1
1
1
1
1
1
1
1
1
1
1
1
1
1
1
1
1
1
1
1
1.00733
3.64129
7.55117
7.78868
7.72441
7.62126
7.50008
7.37314
7.24167
7.10512
6.96299
6.81519
6.66176
6.50344
6.3415
6.17642
1
1
1
1
1
1
1
1
1
1
1
1
1
1
1
1
1
1
1
1
1
1
1
1
1
1
1
1
1
1
1
1
1
1
1
1
1
1
1
1.00001
1.559
6.44305
7.91644
7.75026
7.61462
7.49126
7.36442
7.2341
7.09905
6.95839
6.81207
6.66049
6.50498
6.34675
6.18555
1
1
1
1
1
1
1
1
1
1
1
1
1
1
1
1
1
1
1
1
1
1
1
1
1
1
1
1
1
1
1
1
1
1
1
1
1
1
1
1
1.03191
4.26558
7.54947
7.629
7.55742
7.46229
7.34597
7.22177
7.09011
6.95178
6.80779
6.65937
6.50773
6.35322
6.19635
1
1
1
1
1
1
1
1
1
1
1
1
1
1
1
1
1
1
1
1
1
1
1
1
1
1
1
1
1
1
1
1
1
1
1
1
1
1
1
1
1.00017
1.8525
6.58326
7.74861
7.59551
7.46589
7.34182
7.21687
7.08598
6.94942
6.80795
6.66258
6.51417
6.36251
6.20853
1
1
1
1
1
1
1
1
1
1
1
1
1
1
1
1
1
1
1
1
1
1
1
1
1
1
1
1
1
1
1
1
1
1
1
1
1
1
1
1
1
1.07095
4.61332
7.49727
7.51731
7.43466
7.32528
7.20525
7.07734
6.94378
6.80568
6.66347
6.51769
6.36917
6.21904
1
1
1
1
1
1
1
1
1
1
1
1
1
1
1
1
1
1
1
1
1
1
1
1
1
1
1
1
1
1
1
1
1
1
1
1
1
1
1
1
1
1.00071
2.07067
6.59033
7.57048
7.4475
7.32751
7.20186
7.07317
6.94166
6.80659
6.66754
6.52472
6.3792
6.23227
1
1
1
1
1
1
1
1
1
1
1
1
1
1
1
1
1
1
1
1
1
1
1
1
1
1
1
1
1
1
1
1
1
1
1
1
1
1
1
1
1
1
1.10765
4.73702
7.41189
7.42563
7.30751
7.18623
7.06388
6.93786
6.80645
6.66997
6.53002
6.38754
6.24259
1
1
1
1
1
1
1
1
1
1
1
1
1
1
1
1
1
1
1
1
1
1
1
1
1
1
1
1
1
1
1
1
1
1
1
1
1
1
1
1
1
1
1.00155
2.17718
6.53827
7.43642
7.3009
7.19088
7.06902
6.94105
6.80872
6.67319
6.53574
6.39644
6.25435
1
1
1
1
1
1
1
1
1
1
1
1
1
1
1
1
1
1
1
1
1
1
1
1
1
1
1
1
1
1
1
1
1
1
1
1
1
1
1
1
1
1
1.00001
1.1274
4.69119
7.30873
7.30307
7.18594
7.05939
6.93275
6.8041
6.6738
6.54103
6.40453
6.26487
1
1
1
1
1
1
1
1
1
1
1
1
1
1
1
1
1
1
1
1
1
1
1
1
1
1
1
1
1
1
1
1
1
1
1
1
1
1
1
1
1
1
1
1.00219
2.16368
6.42348
7.31242
7.17123
7.05695
6.93582
6.80993
6.68114
6.54926
6.41337
6.27515
1
1
1
1
1
1
1
1
1
1
1
1
1
1
1
1
1
1
1
1
1
1
1
1
1
1
1
1
1
1
1
1
1
1
1
1
1
1
1
1
1
1
1
1.00001
1.12405
4.50211
7.16814
7.16907
7.06169
6.93815
6.8129
6.68432
6.553
6.41951
6.28532
1
1
1
1
1
1
1
1
1
1
1
1
1
1
1
1
1
1
1
1
1
1
1
1
1
1
1
1
1
1
1
1
1
1
1
1
1
1
1
1
1
1
1
1
1.00222
2.04717
6.24319
7.19948
7.06015
6.94066
6.81666
6.68873
6.55917
6.42848
6.29756
1
1
1
1
1
1
1
1
1
1
1
1
1
1
1
1
1
1
1
1
1
1
1
1
1
1
1
1
1
1
1
1
1
1
1
1
1
1
1
1
1
1
1
1
1.00001
1.10178
4.19313
6.97127
7.04655
6.93705
6.81465
6.69109
6.56572
6.43891
6.31107
1
1
1
1
1
1
1
1
1
1
1
1
1
1
1
1
1
1
1
1
1
1
1
1
1
1
1
1
1
1
1
1
1
1
1
1
1
1
1
1
1
1
1
1
1
1.00173
1.86263
5.95606
7.08911
6.96923
6.82489
6.70355
6.58011
6.45515
6.32923
1
1
1
1
1
1
1
1
1
1
1
1
1
1
1
1
1
1
1
1
1
1
1
1
1
1
1
1
1
1
1
1
1
1
1
1
1
1
1
1
1
1
1
1
1
1.00001
1.07102
3.75809
6.72108
6.91285
6.82347
6.7081
6.58967
6.46783
6.34275
1
1
1
1
1
1
1
1
1
1
1
1
1
1
1
1
1
1
1
1
1
1
1
1
1
1
1
1
1
1
1
1
1
1
1
1
1
1
1
1
1
1
1
1
1
1
1.0011
1.64413
5.56685
6.9504
6.87568
6.7337
6.60797
6.48689
6.36177
1
1
1
1
1
1
1
1
1
1
1
1
1
1
1
1
1
1
1
1
1
1
1
1
1
1
1
1
1
1
1
1
1
1
1
1
1
1
1
1
1
1
1
1
1
1
1.00001
1.04169
3.22064
6.45068
6.81837
6.72566
6.61386
6.49732
6.37499
1
1
1
1
1
1
1
1
1
1
1
1
1
1
1
1
1
1
1
1
1
1
1
1
1
1
1
1
1
1
1
1
1
1
1
1
1
1
1
1
1
1
1
1
1
1
1
1.00057
1.42406
5.06402
6.84604
6.77898
6.64457
6.51452
6.39246
1
1
1
1
1
1
1
1
1
1
1
1
1
1
1
1
1
1
1
1
1
1
1
1
1
1
1
1
1
1
1
1
1
1
1
1
1
1
1
1
1
1
1
1
1
1
1
1
1.01984
2.6284
6.17626
6.72997
6.63056
6.51217
6.40258
1
1
1
1
1
1
1
1
1
1
1
1
1
1
1
1
1
1
1
1
1
1
1
1
1
1
1
1
1
1
1
1
1
1
1
1
1
1
1
1
1
1
1
1
1
1
1
1
1.00023
1.23505
4.42788
6.6294
6.66245
6.552
6.43515
1
1
1
1
1
1
1
1
1
1
1
1
1
1
1
1
1
1
1
1
1
1
1
1
1
1
1
1
1
1
1
1
1
1
1
1
1
1
1
1
1
1
1
1
1
1
1
1
1
1.00741
2.06681
5.73058
6.64372
6.56217
6.43555
1
1
1
1
1
1
1
1
1
1
1
1
1
1
1
1
1
1
1
1
1
1
1
1
1
1
1
1
1
1
1
1
1
1
1
1
1
1
1
1
1
1
1
1
1
1
1
1
1
1.00007
1.10684
3.62066
6.32753
6.54955
6.45853
1
1
1
1
1
1
1
1
1
1
1
1
1
1
1
1
1
1
1
1
1
1
1
1
1
1
1
1
1
1
1
1
1
1
1
1
1
1
1
1
1
1
1
1
1
1
1
1
1
1
1.00231
1.59841
5.09564
6.54497
6.48697
1
1
1
1
1
1
1
1
1
1
1
1
1
1
1
1
1
1
1
1
1
1
1
1
1
1
1
1
1
1
1
1
1
1
1
1
1
1
1
1
1
1
1
1
1
1
1
1
1
1
1.00002
1.03764
2.75301
5.97629
6.45528
1
1
1
1
1
1
1
1
1
1
1
1
1
1
1
1
1
1
1
1
1
1
1
1
1
1
1
1
1
1
1
1
1
1
1
1
1
1
1
1
1
1
1
1
1
1
1
1
1
1
1
1.00058
1.27363
4.2844
6.32293
1
1
1
1
1
1
1
1
1
1
1
1
1
1
1
1
1
1
1
1
1
1
1
1
1
1
1
1
1
1
1
1
1
1
1
1
1
1
1
1
1
1
1
1
1
1
1
1
1
1
1
1
1.00997
2.01767
5.20498
1
1
1
1
1
1
1
1
1
1
1
1
1
1
1
1
1
1
1
1
1
1
1
1
1
1
1
1
1
1
1
1
1
1
1
1
1
1
1
1
1
1
1
1
1
1
1
1
1
1
1
1
1.00011
1.09932
3.02293
1
1
1
1
1
1
1
1
1
1
1
1
1
1
1
1
1
1
1
1
1
1
1
1
1
1
1
1
1
1
1
1
1
1
1
1
1
1
1
1
1
1
1
1
1
1
1
1
1
1
1
1
1
1.0017
1.85018
1
1
1
1
1
1
1
1
1
1
1
1
1
1
1
1
1
1
1
1
1
1
1
1
1
1
1
1
1
1
1
1
1
1
1
1
1
1
1
1
1
1
1
1
1
1
1
1
1
1
1
1
1
1.00002
2.32311
1
1
1
1
1
1
1
1
1
1
1
1
1
1
1
1
1
1
1
1
1
1
1
1
1
1
1
1
1
1
1
1
1
1
1
1
1
1
1
1
1
1
1
1
1
1
1
1
1
1
1
1
1
1
2.81631
1
1
1
1
1
1
1
1
1
1
1
1
1
1
1
1
1
1
1
1
1
1
1
1
1
1
1
1
1
1
1
1
1
1
1
1
1
1
1
1
1
1
1
1
1
1
1
1
1
1
1
1
1
1
2.79659
1
1
1
1
1
1
1
1
1
1
1
1
1
1
1
1
1
1
1
1
1
1
1
1
1
1
1
1
1
1
1
1
1
1
1
1
1
1
1
1
1
1
1
1
1
1
1
1
1
1
1
1
1
1
2.58347
1
1
1
1
1
1
1
1
1
1
1
1
1
1
1
1
1
1
1
1
1
1
1
1
1
1
1
1
1
1
1
1
1
1
1
1
1
1
1
1
1
1
1
1
1
1
1
1
1
1
1
1
1
1
2.25967
1
1
1
1
1
1
1
1
1
1
1
1
1
1
1
1
1
1
1
1
1
1
1
1
1
1
1
1
1
1
1
1
1
1
1
1
1
1
1
1
1
1
1
1
1
1
1
1
1
1
1
1
1
1
2.00104
1
1
1
1
1
1
1
1
1
1
1
1
1
1
1
1
1
1
1
1
1
1
1
1
1
1
1
1
1
1
1
1
1
1
1
1
1
1
1
1
1
1
1
1
1
1
1
1
1
1
1
1
1
1
1.79773
1
1
1
1
1
1
1
1
1
1
1
1
1
1
1
1
1
1
1
1
1
1
1
1
1
1
1
1
1
1
1
1
1
1
1
1
1
1
1
1
1
1
1
1
1
1
1
1
1
1
1
1
1
1
1.62777
1
1
1
1
1
1
1
1
1
1
1
1
1
1
1
1
1
1
1
1
1
1
1
1
1
1
1
1
1
1
1
1
1
1
1
1
1
1
1
1
1
1
1
1
1
1
1
1
1
1
1
1
1
1
1.47652
1
1
1
1
1
1
1
1
1
1
1
1
1
1
1
1
1
1
1
1
1
1
1
1
1
1
1
1
1
1
1
1
1
1
1
1
1
1
1
1
1
1
1
1
1
1
1
1
1
1
1
1
1
1
1.33274
1
1
1
1
1
1
1
1
1
1
1
1
1
1
1
1
1
1
1
1
1
1
1
1
1
1
1
1
1
1
1
1
1
1
1
1
1
1
1
1
1
1
1
1
1
1
1
1
1
1
1
1
1
1
1.17326
1
1
1
1
1
1
1
1
1
1
1
1
1
1
1
1
1
1
1
1
1
1
1
1
1
1
1
1
1
1
1
1
1
1
1
1
1
1
1
1
1
1
1
1
1
1
1
1
1
1
1
1
1
1
1.02283
1
1
1
1
1
1
1
1
1
1
1
1
1
1
1
1
1
1
1
1
1
1
1
1
1
1
1
1
1
1
1
1
1
1
1
1
1
1
1
1
1
1
1
1
1
1
1
1
1
1
1
1
1
1
1.00017
1
1
1
1
1
1
1
1
1
1
1
1
1
1
1
1
1
1
1
1
1
1
1
1
1
1
1
1
1
1
1
1
1
1
1
1
1
1
1
1
1
1
1
1
1
1
1
1
1
1
1
1
1
1
1
1
1
1
1
1
1
1
1
1
1
1
1
1
1
1
1
1
1
1
1
1
1
1
1
1
1
1
1
1
1
1
1
1
1
1
1
1
1
1
1
1
1
1
1
1
1
1
1
1
1
1
1
1
1
1
1
1
1
1
1
1
1
1
1
1
1
1
1
1
1
1
1
1
1
1
1
1
1
1
1
1
1
1
1
1
1
1
1
1
1
1
1
1
1
1
1
1
1
1
1
1
1
1
1
1
1
1
1
1
1
1
1
1
1
1
1
1
1
1
1
1
1
1
1
1
1
1
1
1
1
1
1
1
1
1
1
1
1
1
1
1
1
1
1
1
1
1
1
1
1
1
1
1
1
1
1
1
1
1
1
1
1
1
1
1
1
1
1
1
1
1
1
1
1
1
1
1
1
1
1
1
1
1
1
1
1
1
1
1
1
1
1
1
1
1
1
1
1
1
1
1
1
1
1
1
1
1
1
1
1
1
1
1
1
1
1
1
1
1
1
1
1
1
1
1
1
1
1
1
1
1
1
1
1
1
1
1
1
1
1
1
1
1
1
1
1
1
1
1
1
1
1
1
1
1
1
1
1
1
1
1
1
1
1
1
1
1
1
1
1
1
1
1
1
1
1
1
1
1
1
1
1
1
1
1
1
1
1
1
1
1
1
1
1
1
1
1
1
1
1
1
1
1
1
1
1
1
1
1
1
1
1
1
1
1
1
1
1
1
1
1
1
1
1
1
1
1
1
1
1
1
1
1
1
1
1
1
1
1
1
1
1
1
1
1
1
1
1
1
1
1
1
1
1
1
1
1
1
1
1
1
1
1
1
1
1
1
1
1
1
1
1
1
1
1
1
1
1
1
1
1
1
1
1
1
1
1
1
1
1
1
1
1
1
1
1
1
1
1
1
1
1
1
1
1
1
1
1
1
1
1
1
1
1
1
1
1
1
1
1
1
1
1
1
1
1
1
1
1
1
1
1
1
1
1
1
1
1
1
1
1
1
1
1
1
1
1
1
1
1
1
1
1
1
1
1
1
1
1
1
1
1
1
1
1
1
1
1
1
1
1
1
1
1
1
1
1
1
1
1
1
1
1
1
1
1
1
1
1
1
1
1
1
1
1
1
1
1
1
1
1
1
1
1
1
1
1
1
1
1
1
1
1
1
1
1
1
1
1
1
1
1
1
1
1
1
1
1
1
1
1
1
1
1
1
1
1
1
1
1
1
1
1
1
1
1
1
1
1
1
1.01604
0.122369
0.0131207
0.0347206
0.0450985
0.0503552
0.0687942
0.104728
0.156745
0.221872
0.290781
0.379472
0.460776
0.523249
0.604941
0.68874
0.715851
0.736155
0.749284
0.76067
0.783834
0.818371
0.874651
0.932155
0.96499
0.999561
1.02999
1.04182
1.02944
1.02759
1.04514
1.08409
1.13198
1.15256
1.1627
1.17373
1.17956
1.18196
1.18388
1.1954
1.21878
1.24674
1.26483
1.27155
1.27405
1.27014
1.26081
1.25581
1.25979
1.27906
1.31197
1.32884
1.33094
1.3273
1.31693
1.30309
1.29895
1.30058
1.30551
1.31823
1.33669
1.34642
1.34735
1.34423
2.02897
5.10215
5.91746
6.06468
6.14592
6.16607
6.16596
6.16704
6.17619
6.18351
6.17533
6.1502
6.12114
6.09327
6.06214
6.02688
5.99563
5.97003
5.94304
5.91149
5.88077
5.85882
5.854
5.86111
5.86641
5.85445
5.82239
5.77513
5.71655
5.65787
5.61015
5.57806
5.55751
5.53715
5.5065
5.46431
5.41747
5.37356
5.34051
5.32479
5.32955
5.34427
5.33236
5.28272
5.22632
5.17421
5.13021
5.10315
5.09358
5.0781
5.02858
4.96075
4.88134
4.80677
4.75548
4.72391
4.71597
4.71865
4.72056
4.70394
4.66461
4.59733
4.50863
4.44659
4.408
4.38177
4.37045
4.37004
4.37226
4.36989
4.35262
4.31954
4.26845
4.20042
4.15224
4.11806
4.09632
4.0865
4.07441
4.05478
4.03032
4.00267
3.97128
3.94055
3.91263
3.88427
3.85289
3.81866
3.78435
3.75562
3.73159
3.71552
3.70969
3.70659
3.69188
3.66513
3.62549
3.55813
3.49485
3.45734
3.43559
3.42157
3.41884
3.42337
3.42439
3.41294
3.39051
3.35675
3.3002
3.24336
3.21044
3.19107
3.17695
3.17025
3.16705
3.16134
3.15244
3.13978
3.12167
3.09481
3.05303
3.00512
2.97139
2.95106
2.93681
2.92591
2.9209
2.91885
2.91371
2.90147
2.8801
2.84153
2.77997
2.72148
2.68579
2.6661
2.65188
2.64216
2.64197
2.64661
2.64395
2.63274
2.61697
2.59361
2.55685
2.51942
2.49342
2.47697
2.46516
2.45589
2.45062
2.44559
2.43569
2.4215
2.4003
2.36036
1.91733
0.712605
0.249824
0.193891
0.189569
0.156611
0.14085
0.142361
0.161027
0.169455
0.189102
0.218639
0.270589
0.337771
0.419507
0.505757
0.579072
0.615462
0.66142
0.719992
0.758787
0.789124
0.838774
0.908568
0.940921
0.973156
0.992628
1.00552
1.00902
1.01826
1.04341
1.08197
1.12313
1.1414
1.14981
1.15685
1.16641
1.17265
1.17984
1.19693
1.224
1.24405
1.25509
1.2618
1.2674
1.2715
1.26966
1.26471
1.2641
1.27203
1.29042
1.30938
1.32026
1.32279
1.32029
1.31375
1.30687
1.30648
1.31165
1.32471
1.34124
1.3466
1.34374
1.33633
1.93893
5.01335
6.01703
6.14641
6.19766
6.19346
6.18255
6.17359
6.16565
6.15097
6.12505
6.10021
6.09237
6.10453
6.12111
6.11232
6.07149
6.02133
5.97649
5.93924
5.90681
5.87673
5.84916
5.822
5.79452
5.772
5.75426
5.73597
5.7138
5.68562
5.65397
5.62153
5.59025
5.56033
5.52885
5.4915
5.44687
5.39764
5.34877
5.30789
5.28102
5.26733
5.25433
5.2342
5.19873
5.15585
5.11582
5.08654
5.06893
5.05025
5.02439
4.99075
4.94631
4.89159
4.82601
4.76489
4.71974
4.68675
4.66199
4.63721
4.60729
4.5761
4.54446
4.50735
4.46526
4.42611
4.39571
4.37338
4.35354
4.33116
4.30431
4.2763
4.24883
4.22028
4.18774
4.15377
4.12227
4.09452
4.06766
4.03784
4.00712
3.97615
3.94778
3.92398
3.9033
3.8847
3.86416
3.83838
3.80747
3.77228
3.74014
3.71491
3.69458
3.67653
3.65593
3.63145
3.59993
3.56972
3.53915
3.50039
3.4637
3.43934
3.42622
3.41808
3.40508
3.38527
3.36385
3.33781
3.30399
3.27141
3.23856
3.21007
3.19034
3.17807
3.16903
3.15639
3.14007
3.12046
3.09889
3.07699
3.05036
3.02405
2.99671
2.96883
2.94707
2.9332
2.92356
2.91262
2.89714
2.87733
2.85566
2.82697
2.79107
2.75337
2.71326
2.67958
2.65991
2.64829
2.64315
2.63818
2.62761
2.61533
2.60275
2.58658
2.56408
2.53854
2.51083
2.48582
2.46884
2.45782
2.44807
2.43738
2.42575
2.41331
2.39896
2.36822
2.55002
1.40199
0.71588
0.460411
0.413665
0.314914
0.228983
0.226209
0.238831
0.234045
0.234646
0.242023
0.25877
0.295153
0.319102
0.345399
0.394409
0.463908
0.540425
0.616753
0.687965
0.740595
0.80337
0.88864
0.930046
0.956339
0.977538
0.998783
1.00775
1.03059
1.07268
1.10708
1.12769
1.13192
1.13861
1.14447
1.15684
1.16761
1.17798
1.20032
1.23695
1.25334
1.25715
1.25754
1.25915
1.26612
1.27353
1.28427
1.29472
1.30119
1.30285
1.30122
1.30259
1.30753
1.31229
1.31497
1.31463
1.31214
1.31521
1.32506
1.3392
1.34814
1.34759
1.34124
1.71764
4.81058
6.22068
6.19577
6.17956
6.17178
6.17077
6.17572
6.18186
6.17413
6.13143
6.07955
6.04539
6.05426
6.10119
6.15082
6.15571
6.11697
6.06079
6.00764
5.96686
5.93839
5.91394
5.87689
5.81905
5.75288
5.69537
5.65531
5.63789
5.63446
5.63166
5.61964
5.59727
5.56961
5.54039
5.51086
5.48128
5.45074
5.41661
5.37494
5.32534
5.27217
5.22293
5.18961
5.16295
5.1294
5.09015
5.04982
5.00798
4.97109
4.95005
4.94191
4.93849
4.92842
4.9014
4.85906
4.79798
4.72027
4.6403
4.57547
4.53405
4.51449
4.51656
4.51785
4.5091
4.49202
4.46311
4.41951
4.36396
4.30436
4.25102
4.21219
4.19177
4.19036
4.19072
4.18139
4.16133
4.13177
4.09391
4.04908
4.00109
3.95622
3.91911
3.88963
3.86627
3.85024
3.84062
3.83104
3.81905
3.80023
3.77335
3.738
3.69445
3.65005
3.61112
3.57991
3.56042
3.55374
3.54754
3.53257
3.51334
3.48615
3.45028
3.41337
3.38269
3.35517
3.32673
3.30057
3.2865
3.27392
3.25618
3.23751
3.21868
3.19902
3.17752
3.15344
3.12646
3.09852
3.07134
3.04539
3.02955
3.02007
3.00746
2.99184
2.97291
2.951
2.9272
2.90299
2.87952
2.85504
2.82613
2.79915
2.78243
2.76681
2.7468
2.71806
2.68616
2.6601
2.64136
2.62601
2.612
2.59764
2.58122
2.56625
2.55701
2.54582
2.53201
2.5121
2.48645
2.46145
2.44225
2.4272
2.41272
2.39665
2.38548
2.36805
3.05551
2.04373
1.25981
0.844559
0.696231
0.547436
0.39177
0.385241
0.389529
0.356789
0.322723
0.322629
0.317507
0.318851
0.326755
0.340361
0.347302
0.36957
0.421483
0.490946
0.563229
0.632301
0.704305
0.794212
0.85031
0.876978
0.911832
0.965237
1.0007
1.03985
1.08204
1.10819
1.11532
1.11705
1.12235
1.13323
1.14595
1.15866
1.17198
1.19786
1.22959
1.2407
1.24489
1.24635
1.24073
1.23861
1.24519
1.26085
1.28549
1.29989
1.30351
1.30345
1.30144
1.30589
1.31078
1.31637
1.32101
1.32368
1.32691
1.33046
1.33096
1.32974
1.33083
1.34172
1.5543
4.47727
6.54216
6.37162
6.25826
6.22372
6.19206
6.1815
6.19005
6.19636
6.17622
6.13586
6.08404
6.04681
6.0329
6.05495
6.07977
6.07161
6.04035
5.99323
5.9436
5.90186
5.86929
5.84604
5.81974
5.78328
5.73921
5.69231
5.65011
5.62139
5.60498
5.59593
5.58704
5.5732
5.55015
5.51796
5.48049
5.44209
5.40556
5.36937
5.324
5.27345
5.22621
5.18876
5.16132
5.13239
5.09959
5.06095
5.01287
4.96292
4.92528
4.89773
4.88513
4.88174
4.86935
4.84142
4.79942
4.74189
4.67682
4.61835
4.57421
4.54504
4.52805
4.51514
4.50318
4.48696
4.46047
4.42228
4.37435
4.32191
4.27311
4.23238
4.20253
4.18654
4.17576
4.1626
4.14311
4.11753
4.08601
4.05033
4.01432
3.98107
3.94856
3.91499
3.88191
3.85394
3.83237
3.81342
3.80098
3.79022
3.76906
3.73888
3.69968
3.65281
3.60865
3.57675
3.55642
3.5482
3.54459
3.54002
3.52872
3.50826
3.47245
3.42305
3.37673
3.33967
3.3105
3.29047
3.27926
3.27275
3.26422
3.25095
3.23233
3.20761
3.17909
3.15066
3.12118
3.09026
3.06156
3.04119
3.02764
3.01892
3.01099
3.00068
2.98643
2.96512
2.93586
2.90264
2.86683
2.82949
2.7978
2.77971
2.76954
2.7642
2.75705
2.74242
2.7195
2.68642
2.65108
2.62167
2.59829
2.57821
2.56251
2.55237
2.54723
2.54265
2.53507
2.52354
2.50502
2.47586
2.4452
2.4213
2.40282
2.38802
2.37936
2.36471
3.47342
2.56334
1.84516
1.299
1.03374
0.830977
0.637106
0.588601
0.560286
0.493447