/*--------------------------------*- C++ -*----------------------------------*\
  =========                 |
  \\      /  F ield         | OpenFOAM: The Open Source CFD Toolbox
   \\    /   O peration     | Website:  https://openfoam.org
    \\  /    A nd           | Version:  7
     \\/     M anipulation  |
\*---------------------------------------------------------------------------*/
FoamFile
{
    version     2.0;
    format      ascii;
    class       volScalarField;
    location    "4";
    object      T;
}
// * * * * * * * * * * * * * * * * * * * * * * * * * * * * * * * * * * * * * //

dimensions      [0 0 0 1 0 0 0];

internalField   nonuniform List<scalar> 
25410
(
1
1
1
1
1
1
1
1
1
1
1
1
1
1
1
1
1
1
1
1
1
1
1
1
1
1
1
1.19831
2.41858
2.69633
2.70506
2.71395
2.72012
2.72512
2.72948
2.73402
2.73944
2.74611
2.7537
2.76122
2.76757
2.77223
2.77562
2.77865
2.78211
2.78623
2.79061
2.79449
2.79751
2.79986
2.80192
2.80399
2.80596
2.80752
2.80848
1
1
1
1
1
1
1
1
1
1
1
1
1
1
1
1
1
1
1
1
1
1
1
1
1
1
1
1.19224
2.41454
2.69679
2.7053
2.71379
2.71992
2.72491
2.72927
2.7338
2.73922
2.7459
2.75349
2.76099
2.76731
2.77195
2.77532
2.77835
2.78181
2.78593
2.79028
2.79413
2.79711
2.79943
2.80147
2.80352
2.80547
2.80702
2.80798
1
1
1
1
1
1
1
1
1
1
1
1
1
1
1
1
1
1
1
1
1
1
1
1
1
1
1
1.17718
2.40478
2.69757
2.70511
2.71324
2.71932
2.72434
2.72874
2.73329
2.73872
2.7454
2.75299
2.76048
2.76678
2.77139
2.77476
2.77781
2.78128
2.78541
2.78974
2.79354
2.79647
2.79874
2.80074
2.80276
2.80469
2.80623
2.80719
1
1
1
1
1
1
1
1
1
1
1
1
1
1
1
1
1
1
1
1
1
1
1
1
1
1
1
1.15449
2.38904
2.69728
2.70448
2.71248
2.71853
2.72357
2.72798
2.73253
2.73794
2.74459
2.75215
2.75962
2.76591
2.77053
2.77392
2.77698
2.78048
2.78461
2.78891
2.79266
2.79552
2.79774
2.79969
2.80166
2.80355
2.80506
2.80601
1
1
1
1
1
1
1
1
1
1
1
1
1
1
1
1
1
1
1
1
1
1
1
1
1
1
1
1.121
2.36485
2.69534
2.70299
2.71126
2.71744
2.72249
2.7269
2.73145
2.73684
2.74344
2.75092
2.75835
2.76466
2.76934
2.77278
2.77588
2.77938
2.7835
2.78779
2.79151
2.79434
2.79651
2.7984
2.80029
2.8021
2.80352
2.80443
1
1
1
1
1
1
1
1
1
1
1
1
1
1
1
1
1
1
1
1
1
1
1
1
1
1
1
1.07698
2.3358
2.69248
2.70048
2.70888
2.71514
2.72038
2.72505
2.72986
2.73539
2.74198
2.74937
2.75672
2.76304
2.76781
2.77135
2.77451
2.77802
2.78212
2.78638
2.79011
2.79292
2.79505
2.79688
2.79867
2.80037
2.80165
2.80247
1
1
1
1
1
1
1
1
1
1
1
1
1
1
1
1
1
1
1
1
1
1
1
1
1
1
1
1.01756
2.30385
2.69125
2.69827
2.7059
2.71215
2.71769
2.72283
2.72801
2.73371
2.74023
2.7474
2.75456
2.76082
2.76568
2.76936
2.77259
2.77612
2.78019
2.78444
2.78817
2.79099
2.79311
2.79491
2.79667
2.79835
2.79958
2.80039
1
1
1
1
1
1
1
1
1
1
1
1
1
1
1
1
1
1
1
1
1
1
1
1
1
1
1
1.00047
2.2651
2.69002
2.69616
2.70259
2.70875
2.71448
2.71998
2.72551
2.7314
2.73788
2.74486
2.75182
2.75804
2.76303
2.76689
2.77026
2.77381
2.77786
2.78209
2.78586
2.78874
2.7909
2.79269
2.79438
2.796
2.79713
2.79786
1
1
1
1
1
1
1
1
1
1
1
1
1
1
1
1
1
1
1
1
1
1
1
1
1
1
1
1
2.21447
2.68907
2.6964
2.70223
2.7083
2.71386
2.71919
2.72452
2.73015
2.73627
2.7428
2.74933
2.75527
2.76017
2.76408
2.76748
2.771
2.77498
2.77918
2.783
2.78597
2.78818
2.78999
2.79166
2.79326
2.79435
2.79508
1
1
1
1
1
1
1
1
1
1
1
1
1
1
1
1
1
1
1
1
1
1
1
1
1
1
1
1
2.15033
2.68408
2.69595
2.70181
2.7079
2.71336
2.71856
2.72372
2.7291
2.73482
2.74085
2.74684
2.75236
2.75703
2.76086
2.76424
2.76771
2.77159
2.77573
2.77956
2.78261
2.7849
2.78673
2.78839
2.78997
2.79104
2.79175
1
1
1
1
1
1
1
1
1
1
1
1
1
1
1
1
1
1
1
1
1
1
1
1
1
1
1
1
2.07275
2.6725
2.69382
2.70047
2.70698
2.71258
2.71778
2.72286
2.72805
2.73347
2.73906
2.74455
2.7496
2.75394
2.75758
2.76083
2.76415
2.76787
2.77188
2.77566
2.77874
2.78108
2.78294
2.78461
2.78622
2.78729
2.78801
1
1
1
1
1
1
1
1
1
1
1
1
1
1
1
1
1
1
1
1
1
1
1
1
1
1
1
1
1.98093
2.65374
2.68913
2.69732
2.7048
2.71093
2.71645
2.72168
2.72685
2.73209
2.73735
2.7424
2.74695
2.75083
2.75413
2.75711
2.76019
2.76365
2.76744
2.77111
2.77419
2.77658
2.77846
2.78013
2.78171
2.78276
2.78344
1
1
1
1
1
1
1
1
1
1
1
1
1
1
1
1
1
1
1
1
1
1
1
1
1
1
1
1
1.87406
2.62792
2.68221
2.69193
2.70038
2.70738
2.71358
2.7193
2.72478
2.73012
2.73527
2.74005
2.74424
2.74776
2.75072
2.75338
2.75612
2.75922
2.76267
2.76609
2.76904
2.77136
2.77321
2.77485
2.77643
2.7775
2.77823
1
1
1
1
1
1
1
1
1
1
1
1
1
1
1
1
1
1
1
1
1
1
1
1
1
1
1
1
1.75205
2.59576
2.67439
2.68494
2.69395
2.70151
2.70852
2.71506
2.72124
2.72705
2.73242
2.73719
2.7412
2.74446
2.74715
2.74952
2.75189
2.75455
2.75754
2.76057
2.76326
2.76543
2.76716
2.7687
2.77016
2.77117
2.77181
1
1
1
1
1
1
1
1
1
1
1
1
1
1
1
1
1
1
1
1
1
1
1
1
1
1
1
1
1.62103
2.55623
2.6675
2.67596
2.68603
2.69399
2.70156
2.70893
2.71599
2.72257
2.72844
2.73347
2.73753
2.74069
2.74319
2.74533
2.74736
2.74958
2.75205
2.75457
2.7568
2.75859
2.76002
2.76135
2.7627
2.7637
2.76441
1
1
1
1
1
1
1
1
1
1
1
1
1
1
1
1
1
1
1
1
1
1
1
1
1
1
1
1
1.45628
2.49154
2.6589
2.6666
2.67704
2.68506
2.69306
2.70095
2.70881
2.71632
2.72301
2.72862
2.733
2.73627
2.73875
2.74073
2.74249
2.74426
2.74616
2.74803
2.74967
2.75095
2.752
2.75302
2.75396
2.75451
2.75488
1
1
1
1
1
1
1
1
1
1
1
1
1
1
1
1
1
1
1
1
1
1
1
1
1
1
1
1
1.25055
2.41415
2.65771
2.65651
2.66592
2.6743
2.68267
2.691
2.69957
2.708
2.71566
2.72212
2.72717
2.73085
2.73351
2.73552
2.73711
2.73851
2.73982
2.74093
2.74177
2.74226
2.7425
2.74271
2.74308
2.74336
2.74381
1
1
1
1
1
1
1
1
1
1
1
1
1
1
1
1
1
1
1
1
1
1
1
1
1
1
1
1
1.05444
2.34095
2.65869
2.65403
2.65914
2.66456
2.67191
2.68016
2.68891
2.69792
2.70641
2.71378
2.71968
2.72407
2.72721
2.72948
2.7311
2.73219
2.73287
2.7331
2.733
2.73251
2.7318
2.73115
2.73046
2.72954
2.72869
1
1
1
1
1
1
1
1
1
1
1
1
1
1
1
1
1
1
1
1
1
1
1
1
1
1
1
1
1.00137
2.26611
2.65385
2.65092
2.65614
2.66039
2.6655
2.67145
2.67893
2.68726
2.69579
2.70371
2.71038
2.71563
2.7195
2.72231
2.72419
2.7251
2.72521
2.72458
2.72342
2.72161
2.71921
2.71636
2.71356
2.71108
2.71052
1
1
1
1
1
1
1
1
1
1
1
1
1
1
1
1
1
1
1
1
1
1
1
1
1
1
1
1
1
2.15195
2.65814
2.65721
2.659
2.66126
2.66417
2.66756
2.67155
2.67771
2.685
2.69256
2.69955
2.70552
2.7102
2.71372
2.71605
2.71698
2.71662
2.71521
2.71272
2.70908
2.70462
2.69968
2.69476
2.68863
2.68173
1
1
1
1
1
1
1
1
1
1
1
1
1
1
1
1
1
1
1
1
1
1
1
1
1
1
1
1
1
2.00267
2.64401
2.65671
2.65942
2.6625
2.66459
2.66627
2.66861
2.67139
2.67583
2.68176
2.68811
2.6942
2.69929
2.70351
2.70644
2.70756
2.70695
2.70481
2.70099
2.69547
2.68847
2.67935
2.66705
2.65279
2.64096
1
1
1
1
1
1
1
1
1
1
1
1
1
1
1
1
1
1
1
1
1
1
1
1
1
1
1
1
1
1.81965
2.59537
2.65514
2.65996
2.66372
2.66521
2.66592
2.66646
2.66761
2.66967
2.67269
2.67716
2.68241
2.68714
2.69166
2.69513
2.69661
2.6959
2.69319
2.68807
2.68019
2.66928
2.65447
2.63566
2.61727
2.6105
1
1
1
1
1
1
1
1
1
1
1
1
1
1
1
1
1
1
1
1
1
1
1
1
1
1
1
1
1
1.58677
2.49987
2.64027
2.65269
2.66008
2.66421
2.66566
2.66562
2.66537
2.66539
2.66621
2.6681
2.67138
2.67474
2.67869
2.68224
2.68403
2.6833
2.68017
2.67387
2.66365
2.64909
2.62835
2.59658
2.5341
2.41287
1
1
1
1
1
1
1
1
1
1
1
1
1
1
1
1
1
1
1
1
1
1
1
1
1
1
1
1
1
1.27789
2.37843
2.62357
2.63627
2.64787
2.65618
2.66137
2.66344
2.66341
2.66268
2.66165
2.66142
2.66215
2.66323
2.66551
2.66819
2.66983
2.66905
2.66556
2.65823
2.64578
2.62693
2.59873
2.55077
2.47668
2.2941
1
1
1
1
1
1
1
1
1
1
1
1
1
1
1
1
1
1
1
1
1
1
1
1
1
1
1
1
1
1.02943
2.28051
2.61853
2.61798
2.62615
2.6393
2.65017
2.65687
2.65942
2.65927
2.65803
2.65638
2.65496
2.65354
2.65345
2.65404
2.65458
2.65343
2.64946
2.64118
2.62693
2.60422
2.56998
2.51231
2.42502
2.21422
1
1
1
1
1
1
1
1
1
1
1
1
1
1
1
1
1
1
1
1
1
1
1
1
1
1
1
1
1
1.00023
2.16424
2.60324
2.60303
2.61085
2.62208
2.63441
2.64448
2.65113
2.65368
2.6533
2.65165
2.64909
2.6457
2.64292
2.64085
2.63926
2.63683
2.63198
2.62277
2.60711
2.58189
2.54257
2.48263
2.37603
2.17697
1
1
1
1
1
1
1
1
1
1
1
1
1
1
1
1
1
1
1
1
1
1
1
1
1
1
1
1
1
0.999997
1.98414
2.58933
2.60658
2.60927
2.61275
2.61988
2.6292
2.63801
2.64411
2.64629
2.64558
2.64314
2.63905
2.63426
2.62942
2.62499
2.62028
2.6138
2.60342
2.58653
2.56001
2.51791
2.45648
2.34597
2.18193
1
1
1
1
1
1
1
1
1
1
1
1
1
1
1
1
1
1
1
1
1
1
1
1
1
1
1
1
1
0.999999
1.73181
2.53339
2.60916
2.6085
2.60945
2.61138
2.61636
2.62336
2.63079
2.63583
2.63721
2.63581
2.63211
2.62647
2.61959
2.61232
2.60468
2.5958
2.58373
2.56565
2.53838
2.49622
2.43544
2.32899
2.19214
1
1
1
1
1
1
1
1
1
1
1
1
1
1
1
1
1
1
1
1
1
1
1
1
1
1
1
1
1
1
1.38992
2.41319
2.60584
2.60449
2.60517
2.60605
2.60804
2.61163
2.61706
2.62278
2.62627
2.62618
2.6238
2.61856
2.61083
2.60153
2.59101
2.57911
2.56468
2.54509
2.51724
2.47624
2.41733
2.3216
2.20568
1
1
1
1
1
1
1
1
1
1
1
1
1
1
1
1
1
1
1
1
1
1
1
1
1
1
1
1
1
1
1.05582
2.28253
2.59792
2.5947
2.59705
2.60042
2.60154
2.60279
2.60516
2.60906
2.61297
2.61448
2.6133
2.60927
2.60191
2.59155
2.5791
2.56433
2.54722
2.52573
2.49723
2.45735
2.40167
2.31822
2.21937
1
1
1
1
1
1
1
1
1
1
1
1
1
1
1
1
1
1
1
1
1
1
1
1
1
1
1
1
1
1
1.00094
2.14645
2.5659
2.57829
2.58669
2.59277
2.59493
2.59555
2.59585
2.59713
2.59945
2.60121
2.6008
2.59805
2.59187
2.58182
2.56841
2.55183
2.5323
2.50842
2.47916
2.43949
2.38754
2.31511
2.23046
1
1
1
1
1
1
1
1
1
1
1
1
1
1
1
1
1
1
1
1
1
1
1
1
1
1
1
1
1
1
0.999989
1.92036
2.53299
2.57037
2.58008
2.58579
2.58796
2.5886
2.58804
2.58733
2.58737
2.58769
2.58725
2.58512
2.58011
2.57118
2.55805
2.54061
2.5196
2.49382
2.46355
2.42356
2.3751
2.31189
2.23997
1
1
1
1
1
1
1
1
1
1
1
1
1
1
1
1
1
1
1
1
1
1
1
1
1
1
1
1
1
1
0.999997
1.5671
2.44482
2.56456
2.57122
2.57543
2.5793
2.58089
2.58045
2.57907
2.57733
2.57568
2.57388
2.57127
2.56675
2.55895
2.54699
2.53018
2.50863
2.48188
2.45082
2.41045
2.36493
2.30814
2.24652
1
1
1
1
1
1
1
1
1
1
1
1
1
1
1
1
1
1
1
1
1
1
1
1
1
1
1
1
1
1
0.999999
1.13115
2.31299
2.56191
2.55554
2.5598
2.56671
2.5706
2.57162
2.57061
2.56826
2.56514
2.56163
2.55775
2.5528
2.5455
2.5347
2.5193
2.49851
2.47209
2.44029
2.40069
2.35733
2.30447
2.25031
1
1
1
1
1
1
1
1
1
1
1
1
1
1
1
1
1
1
1
1
1
1
1
1
1
1
1
1
1
1
1
1.00599
2.19089
2.53529
2.53613
2.54346
2.55239
2.55777
2.56101
2.56094
2.55919
2.55572
2.55106
2.54556
2.5393
2.53154
2.52127
2.50727
2.48805
2.46322
2.43164
2.39378
2.35236
2.30246
2.25295
1
1
1
1
1
1
1
1
1
1
1
1
1
1
1
1
1
1
1
1
1
1
1
1
1
1
1
1
1
1
1
0.999972
1.94571
2.50696
2.53063
2.53694
2.54217
2.54532
2.54883
2.55004
2.54903
2.54604
2.54112
2.53464
2.52702
2.51825
2.5077
2.49444
2.47673
2.45387
2.42413
2.38846
2.3489
2.30254
2.25605
1
1
1
1
1
1
1
1
1
1
1
1
1
1
1
1
1
1
1
1
1
1
1
1
1
1
1
1
1
1
1
0.99999
1.54262
2.41943
2.53243
2.53113
2.5323
2.53426
2.53663
2.53807
2.5376
2.53541
2.53104
2.52452
2.51619
2.50627
2.49472
2.48146
2.46454
2.44341
2.41639
2.38361
2.34657
2.30344
2.2597
1
1
1
1
1
1
1
1
1
1
1
1
1
1
1
1
1
1
1
1
1
1
1
1
1
1
1
1
1
1
1
0.999998
1.09906
2.27574
2.52925
2.52067
2.52201
2.52421
2.52503
2.52573
2.52539
2.52378
2.52021
2.51423
2.50591
2.4955
2.48315
2.46948
2.45228
2.43217
2.40792
2.37831
2.34437
2.30466
2.26357
1
1
1
1
1
1
1
1
1
1
1
1
1
1
1
1
1
1
1
1
1
1
1
1
1
1
1
1
1
1
1
1
1.00324
2.11293
2.49531
2.50651
2.51463
2.51527
2.51478
2.51431
2.5134
2.5116
2.50843
2.50321
2.49547
2.48553
2.47279
2.45825
2.44077
2.42111
2.39882
2.37208
2.34134
2.3049
2.26712
1
1
1
1
1
1
1
1
1
1
1
1
1
1
1
1
1
1
1
1
1
1
1
1
1
1
1
1
1
1
1
1
0.999974
1.76871
2.4384
2.49981
2.50734
2.50693
2.50581
2.5043
2.50238
2.49983
2.49648
2.49163
2.48464
2.47517
2.46309
2.44817
2.43082
2.41129
2.38968
2.36504
2.33707
2.30371
2.26969
1
1
1
1
1
1
1
1
1
1
1
1
1
1
1
1
1
1
1
1
1
1
1
1
1
1
1
1
1
1
1
1
0.999992
1.26215
2.31563
2.49798
2.49149
2.49391
2.49507
2.49405
2.49189
2.48873
2.48483
2.4798
2.47314
2.46431
2.45313
2.43873
2.42194
2.40276
2.3812
2.35782
2.33176
2.30115
2.27051
1
1
1
1
1
1
1
1
1
1
1
1
1
1
1
1
1
1
1
1
1
1
1
1
1
1
1
1
1
1
1
1
0.999998
1.02238
2.18424
2.47176
2.47341
2.47829
2.48209
2.48271
2.48144
2.47842
2.4741
2.46861
2.46184
2.45324
2.44277
2.4294
2.41355
2.39513
2.37391
2.35131
2.32631
2.29776
2.26979
1
1
1
1
1
1
1
1
1
1
1
1
1
1
1
1
1
1
1
1
1
1
1
1
1
1
1
1
1
1
1
1
1
1.00007
1.88848
2.43392
2.46039
2.46783
2.47096
2.47139
2.47048
2.4679
2.46361
2.45789
2.45079
2.44221
2.43213
2.41975
2.40499
2.38763
2.36728
2.34554
2.32135
2.29409
2.26799
1
1
1
1
1
1
1
1
1
1
1
1
1
1
1
1
1
1
1
1
1
1
1
1
1
1
1
1
1
1
1
1
1
0.999999
1.38416
2.33398
2.46237
2.45808
2.45856
2.45897
2.45853
2.45669
2.45298
2.44755
2.44045
2.4319
2.42181
2.40994
2.39613
2.37992
2.36084
2.34023
2.31704
2.29081
2.2658
1
1
1
1
1
1
1
1
1
1
1
1
1
1
1
1
1
1
1
1
1
1
1
1
1
1
1
1
1
1
1
1
1
1
1.04706
2.19017
2.44813
2.44325
2.44556
2.44603
2.44594
2.44468
2.44166
2.43691
2.43026
2.42189
2.41187
2.40021
2.38705
2.37182
2.35402
2.33467
2.31279
2.28777
2.26359
1
1
1
1
1
1
1
1
1
1
1
1
1
1
1
1
1
1
1
1
1
1
1
1
1
1
1
1
1
1
1
1
1
1
1.0005
1.89145
2.40777
2.43153
2.43636
2.43594
2.43518
2.43326
2.43024
2.42599
2.41996
2.41207
2.40239
2.39097
2.37822
2.36368
2.34685
2.3287
2.30831
2.28476
2.26153
1
1
1
1
1
1
1
1
1
1
1
1
1
1
1
1
1
1
1
1
1
1
1
1
1
1
1
1
1
1
1
1
1
1
0.999996
1.3486
2.29962
2.43788
2.42984
2.42667
2.42392
2.42129
2.41846
2.4147
2.40925
2.40199
2.39289
2.38192
2.36955
2.35556
2.3394
2.32222
2.30318
2.28124
2.25909
1
1
1
1
1
1
1
1
1
1
1
1
1
1
1
1
1
1
1
1
1
1
1
1
1
1
1
1
1
1
1
1
1
1
0.999999
1.03863
2.1571
2.41348
2.4122
2.41307
2.41152
2.40968
2.40732
2.40369
2.39848
2.39172
2.3833
2.37301
2.3612
2.34768
2.33208
2.31559
2.29761
2.27721
2.25614
1
1
1
1
1
1
1
1
1
1
1
1
1
1
1
1
1
1
1
1
1
1
1
1
1
1
1
1
1
1
1
1
1
1
1
1.00031
1.81189
2.36341
2.40164
2.40154
2.40051
2.3998
2.39751
2.39354
2.38811
2.38148
2.37351
2.36387
2.35265
2.33969
2.32473
2.30881
2.29167
2.27259
2.2525
1
1
1
1
1
1
1
1
1
1
1
1
1
1
1
1
1
1
1
1
1
1
1
1
1
1
1
1
1
1
1
1
1
1
1
0.999998
1.23188
2.23601
2.40702
2.39381
2.39081
2.38939
2.38671
2.38271
2.37758
2.37134
2.36377
2.35458
2.34381
2.33148
2.31737
2.30207
2.28566
2.26762
2.24843
1
1
1
1
1
1
1
1
1
1
1
1
1
1
1
1
1
1
1
1
1
1
1
1
1
1
1
1
1
1
1
1
1
1
1
0.999999
1.01701
2.07573
2.37774
2.37407
2.37778
2.37768
2.37554
2.37194
2.36718
2.36123
2.35393
2.34506
2.33471
2.323
2.30972
2.29512
2.27945
2.26236
2.24413
1
1
1
1
1
1
1
1
1
1
1
1
1
1
1
1
1
1
1
1
1
1
1
1
1
1
1
1
1
1
1
1
1
1
1
1
1.00003
1.6351
2.2988
2.3724
2.37239
2.37038
2.36673
2.36271
2.35788
2.35191
2.34459
2.33591
2.32589
2.31458
2.30191
2.28798
2.27302
2.25686
2.23968
1
1
1
1
1
1
1
1
1
1
1
1
1
1
1
1
1
1
1
1
1
1
1
1
1
1
1
1
1
1
1
1
1
1
1
1
1
1.13417
2.15333
2.36933
2.36315
2.36021
2.3564
2.35241
2.34782
2.34206
2.3349
2.32639
2.31665
2.30574
2.29367
2.2805
2.26639
2.25124
2.23515
1
1
1
1
1
1
1
1
1
1
1
1
1
1
1
1
1
1
1
1
1
1
1
1
1
1
1
1
1
1
1
1
1
1
1
1
1
1.00522
1.87831
2.32164
2.34663
2.34658
2.34489
2.34246
2.33858
2.33305
2.32594
2.31747
2.30782
2.29715
2.28557
2.27309
2.25976
2.24555
2.23039
1
1
1
1
1
1
1
1
1
1
1
1
1
1
1
1
1
1
1
1
1
1
1
1
1
1
1
1
1
1
1
1
1
1
1
1
1
1
1.30565
2.19242
2.35048
2.34007
2.33623
2.33347
2.32917
2.32337
2.31631
2.30805
2.29865
2.28839
2.27748
2.26581
2.25332
2.23994
2.22559
1
1
1
1
1
1
1
1
1
1
1
1
1
1
1
1
1
1
1
1
1
1
1
1
1
1
1
1
1
1
1
1
1
1
1
1
1
0.999999
1.02915
2.02648
2.32672
2.32257
2.32347
2.32181
2.31766
2.31202
2.30529
2.29761
2.28897
2.27957
2.26952
2.25864
2.24683
2.23408
2.22041
1
1
1
1
1
1
1
1
1
1
1
1
1
1
1
1
1
1
1
1
1
1
1
1
1
1
1
1
1
1
1
1
1
1
1
1
1
1
1.0002
1.54574
2.23066
2.32073
2.31631
2.31268
2.30822
2.30273
2.29612
2.28883
2.28099
2.27235
2.26283
2.25237
2.24095
2.22859
2.21541
1
1
1
1
1
1
1
1
1
1
1
1
1
1
1
1
1
1
1
1
1
1
1
1
1
1
1
1
1
1
1
1
1
1
1
1
1
1
1
1.09915
2.08905
2.31588
2.30722
2.30154
2.29698
2.29165
2.28563
2.27905
2.27197
2.26409
2.25524
2.24533
2.23439
2.22252
2.20987
1
1
1
1
1
1
1
1
1
1
1
1
1
1
1
1
1
1
1
1
1
1
1
1
1
1
1
1
1
1
1
1
1
1
1
1
1
1
1
1.00269
1.73663
2.25445
2.28927
2.28744
2.28444
2.28054
2.27599
2.27053
2.26412
2.25673
2.24831
2.23882
2.22831
2.21692
2.20473
1
1
1
1
1
1
1
1
1
1
1
1
1
1
1
1
1
1
1
1
1
1
1
1
1
1
1
1
1
1
1
1
1
1
1
1
1
1
1
1
1.20081
2.11134
2.29268
2.28222
2.27598
2.27143
2.2668
2.26168
2.2557
2.24872
2.2407
2.23163
2.22162
2.21079
2.19912
1
1
1
1
1
1
1
1
1
1
1
1
1
1
1
1
1
1
1
1
1
1
1
1
1
1
1
1
1
1
1
1
1
1
1
1
1
1
1
1
1.01172
1.84191
2.2532
2.2668
2.26337
2.2604
2.25649
2.25199
2.24658
2.24012
2.23261
2.22414
2.21478
2.20457
2.19356
1
1
1
1
1
1
1
1
1
1
1
1
1
1
1
1
1
1
1
1
1
1
1
1
1
1
1
1
1
1
1
1
1
1
1
1
1
1
1
1
1.00006
1.29396
2.11568
2.26845
2.25954
2.25335
2.24813
2.24316
2.2377
2.23154
2.22454
2.21667
2.20794
2.19832
2.18788
1
1
1
1
1
1
1
1
1
1
1
1
1
1
1
1
1
1
1
1
1
1
1
1
1
1
1
1
1
1
1
1
1
1
1
1
1
1
1
1
1
1.02607
1.88779
2.23914
2.24896
2.24486
2.2397
2.23438
2.22872
2.22263
2.21598
2.20861
2.20043
2.19144
2.18171
1
1
1
1
1
1
1
1
1
1
1
1
1
1
1
1
1
1
1
1
1
1
1
1
1
1
1
1
1
1
1
1
1
1
1
1
1
1
1
1
1
1.00024
1.35615
2.10694
2.2439
2.23786
2.23276
2.22693
2.22078
2.21445
2.20783
2.20071
2.19295
2.1845
2.1754
1
1
1
1
1
1
1
1
1
1
1
1
1
1
1
1
1
1
1
1
1
1
1
1
1
1
1
1
1
1
1
1
1
1
1
1
1
1
1
1
1
1
1.03956
1.89592
2.21964
2.23061
2.2246
2.21878
2.2129
2.2067
2.20002
2.19287
2.18527
2.17718
2.16847
1
1
1
1
1
1
1
1
1
1
1
1
1
1
1
1
1
1
1
1
1
1
1
1
1
1
1
1
1
1
1
1
1
1
1
1
1
1
1
1
1
1
1.00053
1.38329
2.09147
2.22202
2.21508
2.21162
2.20641
2.20005
2.19302
2.1856
2.17794
2.16999
2.16156
1
1
1
1
1
1
1
1
1
1
1
1
1
1
1
1
1
1
1
1
1
1
1
1
1
1
1
1
1
1
1
1
1
1
1
1
1
1
1
1
1
1
1
1.04674
1.8784
2.19909
2.20793
2.20322
2.19799
2.19221
2.18567
2.1786
2.1711
2.16312
2.15472
1
1
1
1
1
1
1
1
1
1
1
1
1
1
1
1
1
1
1
1
1
1
1
1
1
1
1
1
1
1
1
1
1
1
1
1
1
1
1
1
1
1
1
1.00074
1.3765
2.07088
2.19868
2.19145
2.18865
2.1845
2.17897
2.17236
2.16494
2.15683
2.1483
1
1
1
1
1
1
1
1
1
1
1
1
1
1
1
1
1
1
1
1
1
1
1
1
1
1
1
1
1
1
1
1
1
1
1
1
1
1
1
1
1
1
1
1
1.04536
1.84299
2.17349
2.18365
2.1798
2.17555
2.17088
2.1651
2.15825
2.15054
2.14232
1
1
1
1
1
1
1
1
1
1
1
1
1
1
1
1
1
1
1
1
1
1
1
1
1
1
1
1
1
1
1
1
1
1
1
1
1
1
1
1
1
1
1
1
1.00074
1.34254
2.04365
2.17608
2.16833
2.16524
2.16157
2.15681
2.15098
2.14416
2.13659
1
1
1
1
1
1
1
1
1
1
1
1
1
1
1
1
1
1
1
1
1
1
1
1
1
1
1
1
1
1
1
1
1
1
1
1
1
1
1
1
1
1
1
1
1
1.03708
1.79085
2.13932
2.16325
2.15667
2.15169
2.14739
2.14264
2.13701
2.13043
1
1
1
1
1
1
1
1
1
1
1
1
1
1
1
1
1
1
1
1
1
1
1
1
1
1
1
1
1
1
1
1
1
1
1
1
1
1
1
1
1
1
1
1
1
1.00057
1.2895
2.00265
2.15647
2.15018
2.14317
2.13891
2.13444
2.12949
2.12381
1
1
1
1
1
1
1
1
1
1
1
1
1
1
1
1
1
1
1
1
1
1
1
1
1
1
1
1
1
1
1
1
1
1
1
1
1
1
1
1
1
1
1
1
1
1
1.02576
1.71132
2.10258
2.14111
2.13563
2.13033
2.12581
2.12116
2.11597
1
1
1
1
1
1
1
1
1
1
1
1
1
1
1
1
1
1
1
1
1
1
1
1
1
1
1
1
1
1
1
1
1
1
1
1
1
1
1
1
1
1
1
1
1
1
1.00035
1.22226
1.95437
2.13377
2.13116
2.12386
2.11846
2.11363
2.10839
1
1
1
1
1
1
1
1
1
1
1
1
1
1
1
1
1
1
1
1
1
1
1
1
1
1
1
1
1
1
1
1
1
1
1
1
1
1
1
1
1
1
1
1
1
1
1
1.01495
1.60701
2.0617
2.1211
2.11549
2.11034
2.10557
2.1004
1
1
1
1
1
1
1
1
1
1
1
1
1
1
1
1
1
1
1
1
1
1
1
1
1
1
1
1
1
1
1
1
1
1
1
1
1
1
1
1
1
1
1
1
1
1
1
1.00018
1.15033
1.89131
2.11412
2.11183
2.10464
2.09826
2.09292
1
1
1
1
1
1
1
1
1
1
1
1
1
1
1
1
1
1
1
1
1
1
1
1
1
1
1
1
1
1
1
1
1
1
1
1
1
1
1
1
1
1
1
1
1
1
1
1
1.00697
1.47888
2.01878
2.10221
2.09588
2.0894
2.08481
1
1
1
1
1
1
1
1
1
1
1
1
1
1
1
1
1
1
1
1
1
1
1
1
1
1
1
1
1
1
1
1
1
1
1
1
1
1
1
1
1
1
1
1
1
1
1
1
1.00007
1.08469
1.80402
2.08029
2.09484
2.0877
2.08082
1
1
1
1
1
1
1
1
1
1
1
1
1
1
1
1
1
1
1
1
1
1
1
1
1
1
1
1
1
1
1
1
1
1
1
1
1
1
1
1
1
1
1
1
1
1
1
1
1
1.00251
1.34086
1.95551
2.08519
2.08135
2.07423
1
1
1
1
1
1
1
1
1
1
1
1
1
1
1
1
1
1
1
1
1
1
1
1
1
1
1
1
1
1
1
1
1
1
1
1
1
1
1
1
1
1
1
1
1
1
1
1
1
1.00002
1.03852
1.66951
2.03367
2.07622
2.07043
1
1
1
1
1
1
1
1
1
1
1
1
1
1
1
1
1
1
1
1
1
1
1
1
1
1
1
1
1
1
1
1
1
1
1
1
1
1
1
1
1
1
1
1
1
1
1
1
1
1
1.00074
1.20521
1.8742
2.06538
2.06401
1
1
1
1
1
1
1
1
1
1
1
1
1
1
1
1
1
1
1
1
1
1
1
1
1
1
1
1
1
1
1
1
1
1
1
1
1
1
1
1
1
1
1
1
1
1
1
1
1
1
1
1.0133
1.49738
1.97949
2.05536
1
1
1
1
1
1
1
1
1
1
1
1
1
1
1
1
1
1
1
1
1
1
1
1
1
1
1
1
1
1
1
1
1
1
1
1
1
1
1
1
1
1
1
1
1
1
1
1
1
1
1
1.00018
1.09763
1.76443
2.03041
1
1
1
1
1
1
1
1
1
1
1
1
1
1
1
1
1
1
1
1
1
1
1
1
1
1
1
1
1
1
1
1
1
1
1
1
1
1
1
1
1
1
1
1
1
1
1
1
1
1
1
1
1.00338
1.3198
1.88673
1
1
1
1
1
1
1
1
1
1
1
1
1
1
1
1
1
1
1
1
1
1
1
1
1
1
1
1
1
1
1
1
1
1
1
1
1
1
1
1
1
1
1
1
1
1
1
1
1
1
1
1
1.00003
1.03517
1.55884
1
1
1
1
1
1
1
1
1
1
1
1
1
1
1
1
1
1
1
1
1
1
1
1
1
1
1
1
1
1
1
1
1
1
1
1
1
1
1
1
1
1
1
1
1
1
1
1
1
1
1
1
1
1.00055
1.30176
1
1
1
1
1
1
1
1
1
1
1
1
1
1
1
1
1
1
1
1
1
1
1
1
1
1
1
1
1
1
1
1
1
1
1
1
1
1
1
1
1
1
1
1
1
1
1
1
1
1
1
1
1
1.00001
1.56456
1
1
1
1
1
1
1
1
1
1
1
1
1
1
1
1
1
1
1
1
1
1
1
1
1
1
1
1
1
1
1
1
1
1
1
1
1
1
1
1
1
1
1
1
1
1
1
1
1
1
1
1
1
1
1.74884
1
1
1
1
1
1
1
1
1
1
1
1
1
1
1
1
1
1
1
1
1
1
1
1
1
1
1
1
1
1
1
1
1
1
1
1
1
1
1
1
1
1
1
1
1
1
1
1
1
1
1
1
1
1
1.72182
1
1
1
1
1
1
1
1
1
1
1
1
1
1
1
1
1
1
1
1
1
1
1
1
1
1
1
1
1
1
1
1
1
1
1
1
1
1
1
1
1
1
1
1
1
1
1
1
1
1
1
1
1
1
1.63771
1
1
1
1
1
1
1
1
1
1
1
1
1
1
1
1
1
1
1
1
1
1
1
1
1
1
1
1
1
1
1
1
1
1
1
1
1
1
1
1
1
1
1
1
1
1
1
1
1
1
1
1
1
1
1.53011
1
1
1
1
1
1
1
1
1
1
1
1
1
1
1
1
1
1
1
1
1
1
1
1
1
1
1
1
1
1
1
1
1
1
1
1
1
1
1
1
1
1
1
1
1
1
1
1
1
1
1
1
1
1
1.44385
1
1
1
1
1
1
1
1
1
1
1
1
1
1
1
1
1
1
1
1
1
1
1
1
1
1
1
1
1
1
1
1
1
1
1
1
1
1
1
1
1
1
1
1
1
1
1
1
1
1
1
1
1
1
1.3734
1
1
1
1
1
1
1
1
1
1
1
1
1
1
1
1
1
1
1
1
1
1
1
1
1
1
1
1
1
1
1
1
1
1
1
1
1
1
1
1
1
1
1
1
1
1
1
1
1
1
1
1
1
1
1.30836
1
1
1
1
1
1
1
1
1
1
1
1
1
1
1
1
1
1
1
1
1
1
1
1
1
1
1
1
1
1
1
1
1
1
1
1
1
1
1
1
1
1
1
1
1
1
1
1
1
1
1
1
1
1
1.24412
1
1
1
1
1
1
1
1
1
1
1
1
1
1
1
1
1
1
1
1
1
1
1
1
1
1
1
1
1
1
1
1
1
1
1
1
1
1
1
1
1
1
1
1
1
1
1
1
1
1
1
1
1
1
1.17658
1
1
1
1
1
1
1
1
1
1
1
1
1
1
1
1
1
1
1
1
1
1
1
1
1
1
1
1
1
1
1
1
1
1
1
1
1
1
1
1
1
1
1
1
1
1
1
1
1
1
1
1
1
1
1.09555
1
1
1
1
1
1
1
1
1
1
1
1
1
1
1
1
1
1
1
1
1
1
1
1
1
1
1
1
1
1
1
1
1
1
1
1
1
1
1
1
1
1
1
1
1
1
1
1
1
1
1
1
1
1
1.01329
1
1
1
1
1
1
1
1
1
1
1
1
1
1
1
1
1
1
1
1
1
1
1
1
1
1
1
1
1
1
1
1
1
1
1
1
1
1
1
1
1
1
1
1
1
1
1
1
1
1
1
1
1
1
1.00007
1
1
1
1
1
1
1
1
1
1
1
1
1
1
1
1
1
1
1
1
1
1
1
1
1
1
1
1
1
1
1
1
1
1
1
1
1
1
1
1
1
1
1
1
1
1
1
1
1
1
1
1
1
1
1
1
1
1
1
1
1
1
1
1
1
1
1
1
1
1
1
1
1
1
1
1
1
1
1
1
1
1
1
1
1
1
1
1
1
1
1
1
1
1
1
1
1
1
1
1
1
1
1
1
1
1
1
1
1
1
1
1
1
1
1
1
1
1
1
1
1
1
1
1
1
1
1
1
1
1
1
1
1
1
1
1
1
1
1
1
1
1
1
1
1
1
1
1
1
1
1
1
1
1
1
1
1
1
1
1
1
1
1
1
1
1
1
1
1
1
1
1
1
1
1
1
1
1
1
1
1
1
1
1
1
1
1
1
1
1
1
1
1
1
1
1
1
1
1
1
1
1
1
1
1
1
1
1
1
1
1
1
1
1
1
1
1
1
1
1
1
1
1
1
1
1
1
1
1
1
1
1
1
1
1
1
1
1
1
1
1
1
1
1
1
1
1
1
1
1
1
1
1
1
1
1
1
1
1
1
1
1
1
1
1
1
1
1
1
1
1
1
1
1
1
1
1
1
1
1
1
1
1
1
1
1
1
1
1
1
1
1
1
1
1
1
1
1
1
1
1
1
1
1
1
1
1
1
1
1
1
1
1
1
1
1
1
1
1
1
1
1
1
1
1
1
1
1
1
1
1
1
1
1
1
1
1
1
1
1
1
1
1
1
1
1
1
1
1
1
1
1
1
1
1
1
1
1
1
1
1
1
1
1
1
1
1
1
1
1
1
1
1
1
1
1
1
1
1
1
1
1
1
1
1
1
1
1
1
1
1
1
1
1
1
1
1
1
1
1
1
1
1
1
1
1
1
1
1
1
1
1
1
1
1
1
1
1
1
1
1
1
1
1
1
1
1
1
1
1
1
1
1
1
1
1
1
1
1
1
1
1
1
1
1
1
1
1
1
1
1
1
1
1
1
1
1
1
1
1
1
1
1
1
1
1
1
1
1
1
1
1
1
1
1
1
1
1
1
1
1
1
1
1
1
1
1
1
1
1
1
1
1
1
1
1
1
1
1
1
1
1
1
1
1
1
1
1
1
1
1
1
1
1
1
1
1
1
1
1
1
1
1
1
1
1
1
1
1
1
1
1
1
1
1
1
1
1
1
1
1
1
1
1
1
1
1
1
1
1
1
1
1
1
1
1
1
1
1
1
1
1
1
1
1
1
1
1
1
1
1
1
1
1
1
1
1
1
1
1
1
1
1
1
1
1
1
1
1
1
1
1
1
1
1
1
1
1
1
1
1
1
1
1
1
1.48406
0.765323
0.462319
0.945405
0.996237
1.03886
1.07962
1.10536
1.13092
1.18633
1.29068
1.45452
1.55164
1.553
1.53336
1.52128
1.52913
1.58233
1.6559
1.67277
1.65309
1.59951
1.57923
1.59163
1.62201
1.65543
1.66172
1.65087
1.62602
1.61725
1.62211
1.63956
1.65964
1.66663
1.67134
1.67871
1.67988
1.67664
1.66943
1.66831
1.67624
1.69469
1.70739
1.70889
1.70635
1.69637
1.681
1.67158
1.67034
1.67528
1.68695
1.69024
1.68708
1.67968
1.67153
1.66721
1.66723
1.66969
1.6731
1.67605
1.67838
1.67861
1.67797
1.67749
1.986
2.70501
2.79985
2.80531
2.81399
2.81819
2.81758
2.81504
2.81063
2.80383
2.79519
2.78628
2.77946
2.77424
2.76929
2.76385
2.75814
2.7522
2.74553
2.738
2.73022
2.72335
2.71903
2.71636
2.71376
2.70891
2.70184
2.69352
2.6839
2.67442
2.66649
2.66051
2.65571
2.65045
2.64342
2.63478
2.62566
2.61718
2.61057
2.60721
2.60751
2.6091
2.60689
2.59939
2.59104
2.58268
2.57468
2.56828
2.56367
2.55776
2.54737
2.53564
2.52311
2.51166
2.50401
2.49968
2.49898
2.50024
2.50126
2.49917
2.49321
2.48253
2.46819
2.45744
2.44948
2.44294
2.43852
2.43594
2.43395
2.43152
2.42661
2.41988
2.41071
2.39926
2.39123
2.38535
2.38133
2.37917
2.37661
2.37277
2.3679
2.36218
2.35555
2.34883
2.34238
2.33577
2.32871
2.32123
2.31385
2.30748
2.30209
2.29846
2.29713
2.29648
2.29394
2.28966
2.28317
2.27165
2.26095
2.25443
2.25044
2.24755
2.24655
2.24661
2.24583
2.24189
2.23607
2.22847
2.21684
2.20549
2.19877
2.19486
2.19218
2.19112
2.19087
2.19031
2.18921
2.18721
2.184
2.17911
2.17128
2.16234
2.15616
2.15261
2.15028
2.14856
2.14793
2.14773
2.14647
2.14293
2.13703
2.12727
2.1125
2.09804
2.08799
2.08159
2.07658
2.07275
2.0716
2.07148
2.06985
2.06636
2.0624
2.05708
2.049
2.0409
2.03523
2.03174
2.02928
2.0273
2.02611
2.02478
2.02196
2.01793
2.01231
2.00168
1.75599
1.35498
1.00484
1.0143
1.05739
1.05057
0.999499
0.952605
0.960332
0.985494
1.04009
1.10209
1.17324
1.23095
1.27188
1.30666
1.34104
1.38391
1.45454
1.52743
1.53862
1.5229
1.51405
1.52734
1.55313
1.5845
1.59007
1.58563
1.5763
1.5771
1.58812
1.60542
1.62054
1.62649
1.63101
1.6378
1.64387
1.64329
1.64051
1.64104
1.64892
1.66151
1.67088
1.67529
1.67556
1.67242
1.66352
1.65486
1.65219
1.6537
1.65996
1.66522
1.66556
1.66277
1.65878
1.65576
1.65493
1.65623
1.65997
1.66402
1.66635
1.6659
1.66328
1.66042
1.93866
2.66938
2.80012
2.80348
2.80736
2.8068
2.80452
2.80067
2.79454
2.78499
2.77331
2.76341
2.75853
2.7579
2.75863
2.75686
2.7509
2.74326
2.73545
2.72789
2.72036
2.71275
2.70533
2.69787
2.69038
2.68385
2.67884
2.67477
2.67079
2.66609
2.66076
2.655
2.64888
2.64241
2.63537
2.62739
2.61847
2.60917
2.60034
2.59321
2.58851
2.58609
2.5842
2.58172
2.57695
2.57044
2.56351
2.55723
2.55189
2.54616
2.53964
2.53248
2.52419
2.51509
2.50525
2.49671
2.49073
2.48639
2.48315
2.4802
2.47653
2.47225
2.46714
2.46011
2.45158
2.44321
2.43611
2.43011
2.42437
2.4184
2.41245
2.4069
2.40179
2.39673
2.39076
2.38457
2.379
2.37412
2.36931
2.36383
2.358
2.35202
2.34637
2.34135
2.3367
2.33219
2.32714
2.32093
2.31378
2.30606
2.29915
2.29367
2.28926
2.28563
2.28219
2.27837
2.27351
2.26891
2.26397
2.25734
2.25093
2.24654
2.24371
2.24135
2.23782
2.23295
2.22774
2.22165
2.2144
2.20749
2.20067
2.19493
2.19113
2.18896
2.18754
2.18553
2.18287
2.17964
2.17609
2.1724
2.16776
2.16312
2.15812
2.15302
2.14921
2.1469
2.14524
2.14309
2.1397
2.13506
2.12948
2.1218
2.11228
2.10213
2.09154
2.08241
2.07631
2.07199
2.06928
2.06685
2.06356
2.06026
2.0571
2.05329
2.04831
2.04268
2.03667
2.03144
2.02791
2.02549
2.02322
2.02058
2.01755
2.01413
2.01014
2.00171
1.85353
1.589
1.33088
1.20319
1.19509
1.12494
1.01854
0.995752
1.00137
0.992303
0.98806
0.994418
1.01219
1.05594
1.07327
1.08657
1.11722
1.16423
1.2228
1.28884
1.34995
1.38455
1.40765
1.43546
1.45727
1.47632
1.48823
1.49545
1.49899
1.51214
1.53492
1.54409
1.54755
1.54902
1.55355
1.56067
1.57035
1.57448
1.5757
1.5796
1.58899
1.59538
1.59956
1.60318
1.60762
1.61217
1.61249
1.61258
1.61317
1.61402
1.61507
1.61505
1.61596
1.61681
1.6166
1.61664
1.6169
1.61715
1.62008
1.62512
1.62884
1.62954
1.62802
1.62385
1.78801
2.5514
2.76664
2.75834
2.75199
2.74881
2.74754
2.74649
2.74403
2.73726
2.72349
2.70865
2.69824
2.69605
2.69966
2.70598
2.70744
2.70379
2.69744
2.6903
2.68367
2.67768
2.67122
2.66212
2.65
2.63768
2.62773
2.62135
2.61898
2.61868
2.61827
2.61614
2.61192
2.60632
2.60001
2.59336
2.58664
2.57995
2.57312
2.56561
2.55743
2.54979
2.54391
2.54071
2.53819
2.53438
2.52915
2.52296
2.51586
2.50898
2.50388
2.50018
2.49741
2.49428
2.4897
2.48365
2.47541
2.46482
2.45421
2.44622
2.44154
2.43955
2.43996
2.43956
2.43704
2.43265
2.42599
2.41688
2.40576
2.39429
2.38441
2.37708
2.37282
2.37163
2.3706
2.36812
2.36438
2.3594
2.35318
2.34585
2.33811
2.33098
2.32507
2.32017
2.31595
2.31251
2.30966
2.30642
2.30248
2.29726
2.29072
2.28282
2.27372
2.26507
2.25803
2.25274
2.25006
2.24982
2.24945
2.24767
2.24511
2.24069
2.23419
2.227
2.22066
2.21496
2.20893
2.20317
2.19971
2.19641
2.19238
2.18838
2.18453
2.18079
2.17694
2.17282
2.16828
2.16376
2.15946
2.15529
2.15299
2.15167
2.14967
2.14713
2.14386
2.13994
2.1355
2.13074
2.1259
2.12069
2.11424
2.10769
2.10272
2.0976
2.09161
2.08353
2.07463
2.067
2.06103
2.05608
2.05193
2.04815
2.04422
2.04083
2.03883
2.03644
2.03374
2.0297
2.02421
2.0187
2.0143
2.01073
2.00724
2.00317
2.00006
1.99479
1.91554
1.72903
1.51881
1.37365
1.31841
1.2479
1.13952
1.12358
1.11603
1.07236
1.04217
1.04457
1.04129
1.03958
1.04263
1.04955
1.05161
1.06592
1.10154
1.15048
1.20259
1.25189
1.29375
1.33562
1.35809
1.3692
1.38508
1.41135
1.43393
1.45824
1.47751
1.47834
1.47748
1.4783
1.48284
1.49139
1.49887
1.50337
1.50709
1.51519
1.52387
1.52534
1.52661
1.52946
1.53246
1.53694
1.54299
1.54843
1.55313
1.55589
1.55769
1.55946
1.56171
1.5655
1.56707
1.56775
1.56837
1.56942
1.57204
1.57549
1.57596
1.57496
1.57326
1.57697
1.64867
2.36025
2.68372
2.66961
2.6561
2.65246
2.64951
2.64887
2.64976
2.64835
2.64065
2.62826
2.61464
2.60493
2.60123
2.60378
2.60839
2.60959
2.60907
2.60615
2.60169
2.5967
2.59092
2.58455
2.5771
2.56877
2.56048
2.55335
2.54841
2.54604
2.5452
2.54477
2.54375
2.54121
2.53663
2.53034
2.52319
2.51595
2.50911
2.50262
2.49561
2.48895
2.48368
2.48031
2.47868
2.47707
2.47473
2.47104
2.46534
2.45833
2.45185
2.446
2.44225
2.44028
2.43748
2.43325
2.42783
2.42116
2.41403
2.40755
2.40264
2.3995
2.39792
2.39679
2.39514
2.3919
2.38631
2.37867
2.36965
2.36002
2.35072
2.34262
2.33624
2.33217
2.32943
2.32662
2.32305
2.31877
2.31398
2.30905
2.30452
2.30061
2.29672
2.2924
2.2877
2.28334
2.27949
2.27559
2.27219
2.26851
2.26255
2.25501
2.24632
2.23677
2.22797
2.22191
2.21856
2.21793
2.21853
2.21937
2.21899
2.21663
2.21121
2.20295
2.19478
2.18789
2.1822
2.17804
2.17523
2.17332
2.17103
2.16785
2.16382
2.15897
2.15385
2.1492
2.14464
2.13988
2.13546
2.13262
2.13092
2.13007
2.12934
2.12801
2.12578
2.1222
2.11713
2.11122
2.10457
2.09727
2.09088
2.08704
2.08434
2.08225
2.07917
2.07391
2.06677
2.05762
2.04807
2.03992
2.03337
2.02794
2.02391
2.02149
2.02043
2.0198
2.01862
2.01643
2.01265
2.00647
1.9997
1.99429
1.98993
1.98624
1.98387
1.97965
1.97263
1.81725
1.66333
1.5198
1.44092
1.36067
1.26111
1.22996
1.20971
1.16294
1.12996
1.12565
1.11428
1.09128
1.08516
1.08448
1.07998
1.08234
1.08642
1.09117
1.10113
1.12245
1.14935
1.18676
1.23535
1.27722
1.31194
1.35032
1.38403
1.40446
1.41609
1.42397
1.42562
1.42841
1.43657
1.45245
1.46391
1.46834
1.47179
1.47606
1.47999
1.48288