/*--------------------------------*- C++ -*----------------------------------*\
  =========                 |
  \\      /  F ield         | OpenFOAM: The Open Source CFD Toolbox
   \\    /   O peration     | Website:  https://openfoam.org
    \\  /    A nd           | Version:  7
     \\/     M anipulation  |
\*---------------------------------------------------------------------------*/
FoamFile
{
    version     2.0;
    format      ascii;
    class       volVectorField;
    location    "4";
    object      U;
}
// * * * * * * * * * * * * * * * * * * * * * * * * * * * * * * * * * * * * * //

dimensions      [0 1 -1 0 0 0 0];

internalField   nonuniform List<vector> 
25410
(
(3 1.38538e-16 0)
(3 5.42603e-16 0)
(3 6.34222e-16 0)
(3 6.91456e-16 0)
(3 -9.12845e-17 0)
(3 -4.24263e-16 0)
(3 -7.77998e-16 0)
(3 -7.9576e-16 0)
(3 -4.84518e-16 0)
(3 1.10203e-15 0)
(3 2.2436e-15 0)
(3 2.10651e-15 0)
(3 1.54021e-15 0)
(3 1.29364e-15 0)
(3 3.61111e-16 0)
(3 -1.2344e-15 0)
(3 -1.85587e-15 0)
(3 -2.35824e-15 0)
(3 -3.30397e-15 0)
(3 -3.15989e-15 0)
(3 -2.87023e-15 0)
(3 -2.41024e-15 0)
(3 -1.50487e-15 0)
(3 -9.72073e-17 0)
(3 1.97947e-15 0)
(3 3.41473e-15 0)
(3 5.05669e-15 0)
(2.87962 0.00155913 0)
(0.992335 0.00646722 0)
(0.746153 0.00770199 0)
(0.721451 0.00893876 0)
(0.694282 0.00921873 0)
(0.668234 0.00939718 0)
(0.642011 0.00954699 0)
(0.615837 0.0096726 0)
(0.589646 0.00981689 0)
(0.563337 0.0100025 0)
(0.536826 0.0102005 0)
(0.510122 0.0103974 0)
(0.483221 0.0105944 0)
(0.456085 0.0107795 0)
(0.42866 0.0109735 0)
(0.400915 0.0111693 0)
(0.372901 0.0113393 0)
(0.344584 0.0115386 0)
(0.315814 0.0117828 0)
(0.286528 0.0120282 0)
(0.256672 0.0123058 0)
(0.226106 0.0126163 0)
(0.194791 0.0129386 0)
(0.162552 0.0134219 0)
(0.128925 0.0141263 0)
(0.0935086 0.0149004 0)
(0.056637 0.0152617 0)
(0.0194977 0.0156005 0)
(3 3.6065e-16 0)
(3 2.49968e-16 0)
(3 -3.31917e-16 0)
(3 -3.60427e-16 0)
(3 -1.07657e-15 0)
(3 -1.42225e-15 0)
(3 -1.88716e-15 0)
(3 -2.05569e-15 0)
(3 -1.38841e-15 0)
(3 1.32132e-15 0)
(3 3.68333e-15 0)
(3 4.61626e-15 0)
(3 3.36608e-15 0)
(3 1.57875e-15 0)
(3 4.69636e-16 0)
(3 -7.23366e-16 0)
(3 -6.32185e-16 0)
(3 -9.63978e-16 0)
(3 -1.91167e-15 0)
(3 -2.41568e-15 0)
(3 -3.40845e-15 0)
(3 -4.23576e-15 0)
(3 -3.72604e-15 0)
(3 -2.34873e-15 0)
(3 6.05666e-16 0)
(3 3.21481e-15 0)
(3 4.65648e-15 0)
(2.88333 0.00822578 0)
(0.993334 0.0273217 0)
(0.741075 0.0254195 0)
(0.71527 0.0253808 0)
(0.688402 0.0261715 0)
(0.662465 0.0268856 0)
(0.636274 0.0274921 0)
(0.610064 0.0279636 0)
(0.58381 0.028444 0)
(0.557442 0.0290246 0)
(0.530897 0.0296373 0)
(0.50418 0.030265 0)
(0.477272 0.0309195 0)
(0.450121 0.0315478 0)
(0.422687 0.032197 0)
(0.394964 0.032847 0)
(0.36703 0.0334187 0)
(0.338886 0.0340897 0)
(0.310403 0.0349207 0)
(0.281528 0.0357759 0)
(0.252205 0.0367364 0)
(0.22228 0.0377941 0)
(0.191694 0.0388578 0)
(0.16027 0.0403634 0)
(0.12752 0.0425221 0)
(0.0929321 0.0449561 0)
(0.0566149 0.046258 0)
(0.0196542 0.0476382 0)
(3 1.78071e-16 0)
(3 1.26183e-16 0)
(3 -3.57822e-16 0)
(3 -2.37425e-16 0)
(3 -7.128e-16 0)
(3 -4.09586e-16 0)
(3 1.22509e-16 0)
(3 4.37468e-16 0)
(3 5.34576e-16 0)
(3 1.27948e-15 0)
(3 3.02895e-15 0)
(3 3.78273e-15 0)
(3 4.6647e-15 0)
(3 4.20456e-15 0)
(3 3.89112e-15 0)
(3 4.0079e-15 0)
(3 5.24703e-15 0)
(3 5.38142e-15 0)
(3 3.65497e-15 0)
(3 1.78537e-15 0)
(3 -1.45266e-16 0)
(3 -1.17299e-15 0)
(3 -1.65075e-15 0)
(3 -1.63417e-15 0)
(3 -8.83411e-16 0)
(3 2.05569e-16 0)
(3 8.38008e-16 0)
(2.89646 0.0152982 0)
(1.00318 0.0482855 0)
(0.743082 0.0435112 0)
(0.716229 0.0434461 0)
(0.688421 0.0445442 0)
(0.661714 0.04564 0)
(0.634896 0.0465666 0)
(0.608153 0.047294 0)
(0.581442 0.0480409 0)
(0.554677 0.0489427 0)
(0.52777 0.0498827 0)
(0.500696 0.0508473 0)
(0.473397 0.0518765 0)
(0.445796 0.0528753 0)
(0.417869 0.0538924 0)
(0.389652 0.0548805 0)
(0.361264 0.0557017 0)
(0.332754 0.0566512 0)
(0.304043 0.0578539 0)
(0.2751 0.0591042 0)
(0.245908 0.0605481 0)
(0.21635 0.0621883 0)
(0.186387 0.0638564 0)
(0.155871 0.066271 0)
(0.12429 0.0698303 0)
(0.0909811 0.0740067 0)
(0.0557053 0.0764875 0)
(0.0195265 0.0792925 0)
(3 -1.91727e-16 0)
(3 -3.95606e-16 0)
(3 -1.06912e-16 0)
(3 3.80317e-16 0)
(3 9.80713e-16 0)
(3 1.89921e-15 0)
(3 3.0567e-15 0)
(3 3.52789e-15 0)
(3 2.82577e-15 0)
(3 2.9104e-15 0)
(3 1.75331e-15 0)
(3 1.71686e-15 0)
(3 1.95684e-15 0)
(3 1.88013e-15 0)
(3 3.03797e-15 0)
(3 6.63473e-15 0)
(3 5.93508e-15 0)
(3 3.35981e-15 0)
(3 2.66582e-15 0)
(3 1.96552e-15 0)
(3 1.47493e-15 0)
(3 8.66001e-16 0)
(3 -4.46943e-16 0)
(3 -9.30593e-16 0)
(3 -1.0557e-15 0)
(3 -1.20809e-15 0)
(3 -6.73325e-16 0)
(2.91557 0.0216928 0)
(1.01644 0.0691154 0)
(0.744855 0.0611862 0)
(0.71849 0.0613457 0)
(0.690922 0.0628436 0)
(0.664378 0.0643924 0)
(0.637691 0.0657327 0)
(0.611016 0.0668156 0)
(0.584281 0.0679258 0)
(0.557373 0.0692411 0)
(0.53018 0.0705996 0)
(0.502664 0.0720021 0)
(0.474767 0.0735269 0)
(0.446418 0.075021 0)
(0.417636 0.0764947 0)
(0.38852 0.0778574 0)
(0.359238 0.0789091 0)
(0.329891 0.0800558 0)
(0.300432 0.0815016 0)
(0.270834 0.0829794 0)
(0.241111 0.0846833 0)
(0.211213 0.086632 0)
(0.181189 0.0885775 0)
(0.151035 0.0915511 0)
(0.120337 0.0962386 0)
(0.0883358 0.102115 0)
(0.0542702 0.105962 0)
(0.0192322 0.110549 0)
(3 -4.48566e-17 0)
(3 -8.00083e-17 0)
(3 1.19307e-16 0)
(3 2.35659e-17 0)
(3 1.16655e-15 0)
(3 9.9164e-16 0)
(3 2.39097e-16 0)
(3 1.36652e-16 0)
(3 -4.71383e-16 0)
(3 -8.35946e-16 0)
(3 -9.80338e-16 0)
(3 -7.14028e-16 0)
(3 -1.09182e-15 0)
(3 -1.08674e-15 0)
(3 -6.62815e-16 0)
(3 4.7541e-16 0)
(3 -1.60961e-15 0)
(3 -1.85894e-15 0)
(3 -1.26259e-15 0)
(3 3.53105e-16 0)
(3 1.1646e-15 0)
(3 6.57152e-16 0)
(3 -9.81109e-16 0)
(3 -1.94946e-15 0)
(3 -1.84094e-15 0)
(3 -1.9535e-15 0)
(3 -2.28443e-15 0)
(2.94375 0.0286992 0)
(1.03606 0.0900279 0)
(0.750016 0.078055 0)
(0.72474 0.0793192 0)
(0.697708 0.0811656 0)
(0.67162 0.0830356 0)
(0.645382 0.0846982 0)
(0.619028 0.0861142 0)
(0.59242 0.0876297 0)
(0.565406 0.0894563 0)
(0.537863 0.0913692 0)
(0.509796 0.0933636 0)
(0.481204 0.095552 0)
(0.452053 0.0977089 0)
(0.422394 0.0997763 0)
(0.392344 0.101614 0)
(0.362065 0.102964 0)
(0.331661 0.104338 0)
(0.301088 0.106035 0)
(0.270311 0.107735 0)
(0.239374 0.109644 0)
(0.208305 0.111757 0)
(0.177281 0.113678 0)
(0.146506 0.116714 0)
(0.115837 0.121951 0)
(0.084719 0.129203 0)
(0.0518842 0.134383 0)
(0.01853 0.140884 0)
(3 8.13081e-17 0)
(3 5.20259e-16 0)
(3 2.23182e-16 0)
(3 -1.29656e-16 0)
(3 -6.85467e-16 0)
(3 -2.01846e-15 0)
(3 -3.71345e-15 0)
(3 -3.59217e-15 0)
(3 -3.69707e-15 0)
(3 -3.71625e-15 0)
(3 -3.12085e-15 0)
(3 -2.04085e-15 0)
(3 -1.74869e-15 0)
(3 -1.30456e-15 0)
(3 -1.85639e-15 0)
(3 -3.61441e-15 0)
(3 -3.8199e-15 0)
(3 -3.29748e-15 0)
(3 -1.46598e-15 0)
(3 7.44204e-16 0)
(3 1.40295e-15 0)
(3 1.12037e-15 0)
(3 1.45048e-15 0)
(3 1.2746e-15 0)
(3 4.77037e-16 0)
(3 -2.50568e-16 0)
(3 -9.37149e-18 0)
(2.97222 0.0149271 0)
(1.05678 0.110576 0)
(0.759806 0.0913269 0)
(0.736214 0.0951837 0)
(0.709532 0.0977119 0)
(0.683588 0.0999282 0)
(0.657495 0.102213 0)
(0.631209 0.104371 0)
(0.604534 0.106727 0)
(0.577273 0.10948 0)
(0.549302 0.112275 0)
(0.520708 0.11506 0)
(0.491591 0.118016 0)
(0.46193 0.120906 0)
(0.431717 0.12364 0)
(0.400974 0.126058 0)
(0.36976 0.127854 0)
(0.338145 0.129617 0)
(0.306111 0.131724 0)
(0.273698 0.133775 0)
(0.241078 0.135949 0)
(0.208401 0.138208 0)
(0.175921 0.139965 0)
(0.14395 0.142701 0)
(0.112533 0.147807 0)
(0.0815147 0.155745 0)
(0.0494065 0.161758 0)
(0.0176349 0.169798 0)
(3 -3.98493e-17 0)
(3 -2.08155e-16 0)
(3 -3.54652e-16 0)
(3 -1.09085e-15 0)
(3 -1.21449e-15 0)
(3 -1.52841e-15 0)
(3 -1.53701e-15 0)
(3 -2.6068e-15 0)
(3 -1.84475e-15 0)
(3 -1.42991e-15 0)
(3 -7.377e-16 0)
(3 -1.16953e-16 0)
(3 2.43138e-17 0)
(3 -6.4044e-16 0)
(3 -9.86842e-16 0)
(3 -1.58173e-15 0)
(3 -1.39712e-15 0)
(3 -1.25186e-15 0)
(3 -2.31629e-16 0)
(3 7.37066e-16 0)
(3 3.28566e-15 0)
(3 5.87177e-15 0)
(3 7.59127e-15 0)
(3 7.92439e-15 0)
(3 5.87488e-15 0)
(3 5.54075e-15 0)
(3 6.38934e-15 0)
(2.99441 0.00491294 0)
(1.09547 0.122637 0)
(0.766009 0.10377 0)
(0.743277 0.111845 0)
(0.71764 0.115343 0)
(0.692261 0.117865 0)
(0.666943 0.120338 0)
(0.641598 0.122814 0)
(0.615874 0.125709 0)
(0.589395 0.129215 0)
(0.561936 0.132798 0)
(0.533634 0.136285 0)
(0.504703 0.139945 0)
(0.475144 0.14359 0)
(0.44487 0.147135 0)
(0.413768 0.150411 0)
(0.381776 0.153037 0)
(0.348969 0.155582 0)
(0.315457 0.158409 0)
(0.281454 0.160978 0)
(0.247324 0.163437 0)
(0.213288 0.165807 0)
(0.179523 0.167375 0)
(0.146263 0.169753 0)
(0.113586 0.174446 0)
(0.0816974 0.182607 0)
(0.0490748 0.188895 0)
(0.0174824 0.197882 0)
(3 -1.95546e-17 0)
(3 -3.968e-18 0)
(3 -1.33591e-16 0)
(3 -3.7656e-16 0)
(3 -2.07212e-17 0)
(3 3.14669e-16 0)
(3 7.87007e-16 0)
(3 2.77255e-16 0)
(3 5.82916e-16 0)
(3 9.08762e-16 0)
(3 1.5753e-15 0)
(3 1.26018e-15 0)
(3 1.98161e-15 0)
(3 1.28411e-15 0)
(3 3.59167e-16 0)
(3 -2.28544e-15 0)
(3 -4.31593e-15 0)
(3 -4.68509e-15 0)
(3 -4.32222e-15 0)
(3 -2.48094e-15 0)
(3 -7.51037e-16 0)
(3 5.84722e-15 0)
(3 8.0146e-15 0)
(3 1.15818e-14 0)
(3 1.34957e-14 0)
(3 1.57183e-14 0)
(3 1.44358e-14 0)
(3.00028 0.000399147 0)
(1.14367 0.138402 0)
(0.764295 0.117318 0)
(0.738593 0.128184 0)
(0.713315 0.133101 0)
(0.688209 0.136047 0)
(0.663696 0.138705 0)
(0.639603 0.141538 0)
(0.615541 0.145099 0)
(0.590995 0.149498 0)
(0.565522 0.153948 0)
(0.539111 0.15811 0)
(0.511902 0.162415 0)
(0.483774 0.166863 0)
(0.454511 0.171426 0)
(0.423912 0.175888 0)
(0.39191 0.179671 0)
(0.358743 0.183172 0)
(0.324711 0.186694 0)
(0.290111 0.189625 0)
(0.255279 0.192192 0)
(0.22032 0.194601 0)
(0.185296 0.196042 0)
(0.150487 0.198134 0)
(0.116157 0.202273 0)
(0.0829361 0.210357 0)
(0.0493844 0.216546 0)
(0.0174373 0.226021 0)
(3 2.25433e-16 0)
(3 1.18367e-16 0)
(3 9.42221e-18 0)
(3 -1.39578e-16 0)
(3 -8.06344e-17 0)
(3 6.59173e-16 0)
(3 1.09693e-15 0)
(3 1.89414e-15 0)
(3 1.64297e-15 0)
(3 1.5947e-15 0)
(3 7.79145e-16 0)
(3 5.07993e-16 0)
(3 1.28497e-15 0)
(3 2.95092e-15 0)
(3 2.45556e-15 0)
(3 4.63151e-16 0)
(3 -1.39638e-15 0)
(3 -2.47729e-15 0)
(3 -2.32584e-15 0)
(3 -1.66927e-15 0)
(3 -1.34115e-15 0)
(3 8.26772e-16 0)
(3 7.02098e-15 0)
(3 6.84664e-15 0)
(3 6.62423e-15 0)
(3 7.70013e-15 0)
(3 6.32235e-15 0)
(3.00001 9.21163e-07 0)
(1.21547 0.159929 0)
(0.765714 0.133495 0)
(0.734053 0.144591 0)
(0.708257 0.149985 0)
(0.682618 0.152794 0)
(0.658108 0.155138 0)
(0.634475 0.157878 0)
(0.611442 0.161825 0)
(0.588507 0.167102 0)
(0.565024 0.172599 0)
(0.540805 0.177668 0)
(0.51592 0.182835 0)
(0.490098 0.188302 0)
(0.462951 0.194122 0)
(0.434135 0.20003 0)
(0.403459 0.20523 0)
(0.371146 0.209909 0)
(0.337513 0.21435 0)
(0.302813 0.21796 0)
(0.267349 0.221075 0)
(0.231234 0.22406 0)
(0.194575 0.225882 0)
(0.157837 0.228015 0)
(0.121475 0.231606 0)
(0.0863924 0.239387 0)
(0.0512321 0.245165 0)
(0.0179548 0.254736 0)
(3 1.10589e-16 0)
(3 1.13689e-16 0)
(3 3.3648e-16 0)
(3 5.89272e-16 0)
(3 3.35933e-16 0)
(3 2.57946e-16 0)
(3 4.25744e-16 0)
(3 4.71658e-16 0)
(3 4.34589e-16 0)
(3 6.19721e-16 0)
(3 4.21116e-16 0)
(3 8.97666e-16 0)
(3 2.25097e-16 0)
(3 1.5714e-15 0)
(3 2.07653e-15 0)
(3 1.72758e-15 0)
(3 1.81842e-15 0)
(3 2.55125e-15 0)
(3 3.07611e-15 0)
(3 2.53008e-15 0)
(3 7.35675e-16 0)
(3 4.298e-15 0)
(3 4.63879e-15 0)
(3 3.37312e-15 0)
(3 2.93593e-15 0)
(3 1.84937e-15 0)
(3 -5.86548e-16 0)
(3 -7.59651e-10 0)
(1.31444 0.181942 0)
(0.772821 0.152964 0)
(0.733234 0.163021 0)
(0.70613 0.168076 0)
(0.679451 0.170548 0)
(0.654279 0.17234 0)
(0.630249 0.17455 0)
(0.607195 0.178248 0)
(0.584741 0.183806 0)
(0.56215 0.189968 0)
(0.539088 0.195739 0)
(0.515686 0.20172 0)
(0.491676 0.208336 0)
(0.466536 0.21568 0)
(0.439734 0.223412 0)
(0.410832 0.230494 0)
(0.379915 0.236845 0)
(0.347217 0.242704 0)
(0.312888 0.247485 0)
(0.277225 0.251563 0)
(0.240437 0.255399 0)
(0.202718 0.25773 0)
(0.164665 0.259901 0)
(0.1268 0.262815 0)
(0.0901456 0.270081 0)
(0.0534379 0.275277 0)
(0.0186178 0.284759 0)
(3 -2.47456e-17 0)
(3 8.92229e-17 0)
(3 4.19727e-16 0)
(3 1.27349e-15 0)
(3 9.40799e-16 0)
(3 6.84479e-16 0)
(3 8.4306e-16 0)
(3 2.44264e-16 0)
(3 6.12565e-17 0)
(3 1.49253e-16 0)
(3 8.14237e-16 0)
(3 1.29594e-15 0)
(3 3.62715e-16 0)
(3 -1.34307e-15 0)
(3 -1.63497e-15 0)
(3 -5.85974e-16 0)
(3 -2.35333e-16 0)
(3 7.71635e-17 0)
(3 9.67119e-16 0)
(3 6.54852e-16 0)
(3 -4.90321e-16 0)
(3 2.57308e-15 0)
(3 1.76047e-16 0)
(3 -1.42828e-16 0)
(3 -5.62107e-16 0)
(3 -8.12581e-16 0)
(3 -1.00348e-15 0)
(3 -9.41494e-11 0)
(1.44114 0.203908 0)
(0.783469 0.175184 0)
(0.73462 0.182994 0)
(0.706335 0.18683 0)
(0.678867 0.18882 0)
(0.653081 0.190061 0)
(0.628494 0.191694 0)
(0.605017 0.194929 0)
(0.58246 0.200459 0)
(0.560091 0.207008 0)
(0.53742 0.213169 0)
(0.514707 0.21954 0)
(0.491912 0.226896 0)
(0.468581 0.235479 0)
(0.444031 0.244899 0)
(0.41744 0.253905 0)
(0.388588 0.262136 0)
(0.35754 0.269761 0)
(0.324284 0.276182 0)
(0.289063 0.281713 0)
(0.252132 0.286853 0)
(0.213677 0.290135 0)
(0.174359 0.29277 0)
(0.134746 0.295374 0)
(0.095996 0.302358 0)
(0.0570115 0.307133 0)
(0.0197823 0.316568 0)
(3 1.62112e-16 0)
(3 1.89206e-16 0)
(3 6.46298e-16 0)
(3 1.27521e-15 0)
(3 1.42331e-15 0)
(3 1.35399e-15 0)
(3 8.91262e-16 0)
(3 1.4358e-15 0)
(3 1.16718e-15 0)
(3 6.08461e-16 0)
(3 4.19865e-16 0)
(3 -6.83461e-17 0)
(3 -9.47585e-16 0)
(3 -2.39822e-15 0)
(3 -3.65223e-15 0)
(3 -2.89471e-15 0)
(3 -2.50913e-15 0)
(3 -2.97355e-15 0)
(3 -3.83368e-15 0)
(3 -5.14203e-15 0)
(3 -5.05831e-15 0)
(3 -4.84881e-15 0)
(3 -7.52613e-15 0)
(3 -6.3737e-15 0)
(3 -6.24275e-15 0)
(3 -6.11749e-15 0)
(3 -6.25117e-15 0)
(3 -1.36987e-11 0)
(1.60029 0.223889 0)
(0.798165 0.199682 0)
(0.737032 0.205001 0)
(0.707618 0.206447 0)
(0.679698 0.207743 0)
(0.653524 0.208419 0)
(0.628451 0.209465 0)
(0.604453 0.212094 0)
(0.581515 0.217385 0)
(0.558982 0.224193 0)
(0.536165 0.230633 0)
(0.51336 0.237084 0)
(0.490784 0.244686 0)
(0.468233 0.25403 0)
(0.445196 0.264906 0)
(0.420649 0.2759 0)
(0.394016 0.286275 0)
(0.365089 0.296069 0)
(0.333524 0.304646 0)
(0.29934 0.312191 0)
(0.262728 0.31919 0)
(0.223802 0.32397 0)
(0.183342 0.327535 0)
(0.142055 0.330159 0)
(0.101307 0.336962 0)
(0.0602082 0.341328 0)
(0.020767 0.350647 0)
(3 -2.92023e-17 0)
(3 2.90645e-16 0)
(3 5.24798e-16 0)
(3 4.10937e-16 0)
(3 4.24999e-16 0)
(3 1.3206e-16 0)
(3 -7.12994e-17 0)
(3 3.72147e-16 0)
(3 1.47228e-15 0)
(3 1.88155e-15 0)
(3 1.4019e-15 0)
(3 1.04987e-15 0)
(3 7.38862e-16 0)
(3 9.60514e-16 0)
(3 1.36714e-15 0)
(3 -1.25187e-15 0)
(3 -1.60385e-15 0)
(3 -6.53647e-16 0)
(3 -7.30859e-16 0)
(3 -1.82093e-15 0)
(3 -1.27471e-15 0)
(3 -2.09081e-15 0)
(3 -5.15873e-15 0)
(3 -7.6474e-15 0)
(3 -8.41262e-15 0)
(3 -1.04669e-14 0)
(3 -1.19655e-14 0)
(3 -2.94734e-12 0)
(1.7958 0.241549 0)
(0.819119 0.226526 0)
(0.742383 0.227987 0)
(0.712785 0.226159 0)
(0.684687 0.2266 0)
(0.658295 0.226962 0)
(0.632865 0.227621 0)
(0.608392 0.229697 0)
(0.585032 0.234689 0)
(0.562272 0.241764 0)
(0.539164 0.24861 0)
(0.515898 0.255165 0)
(0.492883 0.262789 0)
(0.470147 0.27238 0)
(0.44749 0.284043 0)
(0.424014 0.296493 0)
(0.398935 0.308776 0)
(0.371818 0.320815 0)
(0.341963 0.331921 0)
(0.309084 0.342029 0)
(0.273267 0.351484 0)
(0.23445 0.358361 0)
(0.193413 0.363403 0)
(0.150808 0.366558 0)
(0.108087 0.373558 0)
(0.0645118 0.37781 0)
(0.0222622 0.387175 0)
(3 8.0312e-17 0)
(3 1.61871e-17 0)
(3 -9.62395e-16 0)
(3 -1.69042e-15 0)
(3 -1.49063e-15 0)
(3 -1.24168e-15 0)
(3 -6.38563e-16 0)
(3 -3.73207e-16 0)
(3 -3.31606e-16 0)
(3 -9.42224e-17 0)
(3 5.16127e-16 0)
(3 1.03565e-15 0)
(3 1.52728e-15 0)
(3 2.0706e-15 0)
(3 2.09555e-15 0)
(3 5.1264e-16 0)
(3 9.46663e-16 0)
(3 3.28678e-15 0)
(3 5.47835e-15 0)
(3 5.86858e-15 0)
(3 4.74889e-15 0)
(3 1.69966e-15 0)
(3 1.52225e-15 0)
(3 1.36306e-15 0)
(3 1.09313e-15 0)
(3 -5.67852e-16 0)
(3 -4.95146e-16 0)
(3 -3.11146e-13 0)
(2.0229 0.248859 0)
(0.84463 0.255631 0)
(0.745321 0.250772 0)
(0.716176 0.246543 0)
(0.688258 0.246543 0)
(0.662053 0.246029 0)
(0.636596 0.246275 0)
(0.612004 0.247675 0)
(0.588605 0.252084 0)
(0.566198 0.259261 0)
(0.54355 0.26659 0)
(0.520504 0.273379 0)
(0.49749 0.281093 0)
(0.474604 0.290888 0)
(0.451835 0.303108 0)
(0.428568 0.316671 0)
(0.404086 0.330554 0)
(0.377995 0.344694 0)
(0.349445 0.358431 0)
(0.317837 0.371411 0)
(0.283045 0.383795 0)
(0.24462 0.393425 0)
(0.203192 0.400684 0)
(0.159312 0.405119 0)
(0.114634 0.412802 0)
(0.0685915 0.417239 0)
(0.0235559 0.426734 0)
(3 -1.30857e-16 0)
(3 -4.96628e-16 0)
(3 -9.34996e-16 0)
(3 -7.99283e-16 0)
(3 -5.47948e-16 0)
(3 -3.27526e-16 0)
(3 1.94541e-16 0)
(3 5.14986e-16 0)
(3 3.1491e-16 0)
(3 3.57371e-17 0)
(3 -1.33258e-16 0)
(3 -5.06645e-16 0)
(3 -1.98208e-15 0)
(3 -1.89131e-15 0)
(3 -1.73404e-15 0)
(3 -3.83189e-16 0)
(3 3.25701e-15 0)
(3 5.5846e-15 0)
(3 7.53087e-15 0)
(3 9.93113e-15 0)
(3 9.47622e-15 0)
(3 7.1679e-15 0)
(3 6.67646e-15 0)
(3 6.94474e-15 0)
(3 8.30214e-15 0)
(3 7.95261e-15 0)
(3 1.00144e-14 0)
(3 -1.38566e-14 0)
(2.26737 0.252384 0)
(0.871667 0.292718 0)
(0.74957 0.273573 0)
(0.726363 0.267009 0)
(0.698215 0.266939 0)
(0.671076 0.266789 0)
(0.644326 0.26646 0)
(0.618284 0.266986 0)
(0.593558 0.270383 0)
(0.570439 0.277146 0)
(0.547734 0.28475 0)
(0.524832 0.291775 0)
(0.502087 0.299591 0)
(0.479557 0.309608 0)
(0.457147 0.322323 0)
(0.434325 0.336832 0)
(0.410399 0.352069 0)
(0.385108 0.368027 0)
(0.357677 0.384228 0)
(0.327318 0.400115 0)
(0.293804 0.4157 0)
(0.256274 0.428596 0)
(0.215078 0.438727 0)
(0.170349 0.445262 0)
(0.123696 0.454409 0)
(0.074553 0.459758 0)
(0.0257344 0.469806 0)
(3 -2.22774e-16 0)
(3 -2.77926e-16 0)
(3 1.51013e-16 0)
(3 1.20877e-15 0)
(3 1.11914e-15 0)
(3 1.46146e-15 0)
(3 1.33029e-15 0)
(3 9.84636e-16 0)
(3 8.17131e-16 0)
(3 8.30528e-16 0)
(3 9.2264e-18 0)
(3 -2.60997e-15 0)
(3 -4.02945e-15 0)
(3 -4.7282e-15 0)
(3 -3.76519e-15 0)
(3 -2.10601e-15 0)
(3 1.48733e-15 0)
(3 2.93526e-15 0)
(3 2.77552e-15 0)
(3 3.70693e-15 0)
(3 5.0594e-15 0)
(3 4.88934e-15 0)
(3 2.20463e-15 0)
(3 9.72998e-16 0)
(3 1.3649e-15 0)
(3 2.17388e-15 0)
(3 4.28735e-15 0)
(3 2.96533e-15 0)
(2.55557 0.253093 0)
(0.935198 0.331145 0)
(0.778078 0.281921 0)
(0.755068 0.28692 0)
(0.72398 0.288504 0)
(0.69427 0.288225 0)
(0.663906 0.288442 0)
(0.634196 0.288495 0)
(0.606009 0.290635 0)
(0.580096 0.296457 0)
(0.555679 0.303828 0)
(0.531767 0.310721 0)
(0.508518 0.318295 0)
(0.486016 0.328306 0)
(0.464004 0.341412 0)
(0.441804 0.356802 0)
(0.418563 0.373333 0)
(0.394021 0.390976 0)
(0.367582 0.409509 0)
(0.338317 0.428278 0)
(0.305927 0.447282 0)
(0.269019 0.464104 0)
(0.227502 0.478141 0)
(0.181226 0.488129 0)
(0.131862 0.499786 0)
(0.0795253 0.506606 0)
(0.0271589 0.517238 0)
(3 1.01828e-17 0)
(3 2.03332e-16 0)
(3 3.69074e-16 0)
(3 5.62809e-16 0)
(3 5.78264e-16 0)
(3 8.33222e-16 0)
(3 6.38943e-16 0)
(3 3.46931e-16 0)
(3 -1.06084e-16 0)
(3 -6.3508e-16 0)
(3 -1.83484e-15 0)
(3 -3.36583e-15 0)
(3 -2.12477e-15 0)
(3 -1.35256e-15 0)
(3 -1.68617e-15 0)
(3 -1.70854e-15 0)
(3 -2.83629e-16 0)
(3 -2.84412e-16 0)
(3 -1.80669e-16 0)
(3 -1.01574e-15 0)
(3 -7.81799e-16 0)
(3 -4.27601e-16 0)
(3 -1.11791e-15 0)
(3 -5.2387e-15 0)
(3 -7.69585e-15 0)
(3 -8.78701e-15 0)
(3 -6.40505e-15 0)
(3 -4.54399e-15 0)
(2.894 0.148843 0)
(1.0431 0.349747 0)
(0.822728 0.301743 0)
(0.801699 0.299555 0)
(0.766025 0.306189 0)
(0.731969 0.309996 0)
(0.697141 0.311455 0)
(0.662595 0.311961 0)
(0.629266 0.313254 0)
(0.598618 0.317803 0)
(0.570569 0.324528 0)
(0.544033 0.330983 0)
(0.518929 0.337873 0)
(0.495413 0.347356 0)
(0.473221 0.360481 0)
(0.451449 0.37655 0)
(0.428915 0.394325 0)
(0.405083 0.413622 0)
(0.379508 0.434467 0)
(0.351137 0.456219 0)
(0.319738 0.478873 0)
(0.28383 0.500163 0)
(0.242736 0.518801 0)
(0.196092 0.532917 0)
(0.145094 0.54814 0)
(0.0885145 0.557792 0)
(0.030765 0.569927 0)
(3 -1.13985e-17 0)
(3 -1.86667e-16 0)
(3 2.71005e-18 0)
(3 -7.80226e-18 0)
(3 4.87423e-17 0)
(3 -3.59853e-16 0)
(3 -1.89183e-16 0)
(3 -3.30238e-16 0)
(3 -7.04364e-16 0)
(3 -1.32186e-15 0)
(3 -2.52667e-15 0)
(3 -2.64888e-15 0)
(3 -1.58876e-15 0)
(3 1.40752e-15 0)
(3 2.01981e-15 0)
(3 1.63028e-15 0)
(3 2.07529e-15 0)
(3 7.50229e-16 0)
(3 -5.27219e-16 0)
(3 -2.84901e-15 0)
(3 -3.5416e-15 0)
(3 -3.62961e-15 0)
(3 -1.73631e-15 0)
(3 -3.71766e-15 0)
(3 -1.02382e-14 0)
(3 -1.33594e-14 0)
(3 -1.32253e-14 0)
(3 -1.12143e-14 0)
(3.02364 0.0241408 0)
(1.14519 0.3322 0)
(0.841927 0.309091 0)
(0.828907 0.326221 0)
(0.799222 0.332278 0)
(0.767603 0.335458 0)
(0.732299 0.338506 0)
(0.695968 0.339961 0)
(0.65979 0.340397 0)
(0.625081 0.343179 0)
(0.592907 0.348487 0)
(0.562827 0.353823 0)
(0.53476 0.359379 0)
(0.509011 0.367556 0)
(0.485597 0.380051 0)
(0.463575 0.396373 0)
(0.441464 0.415229 0)
(0.418275 0.436167 0)
(0.393631 0.459222 0)
(0.366382 0.484012 0)
(0.336086 0.510339 0)
(0.301327 0.536359 0)
(0.260504 0.560747 0)
(0.211828 0.581254 0)
(0.157256 0.602466 0)
(0.0959843 0.616766 0)
(0.0319541 0.63019 0)
(3 -2.21571e-17 0)
(3 -1.06269e-16 0)
(3 -2.33012e-16 0)
(3 -6.74751e-16 0)
(3 -8.4247e-16 0)
(3 -1.16135e-15 0)
(3 -9.15067e-16 0)
(3 -1.06597e-15 0)
(3 -1.22782e-15 0)
(3 -1.3776e-15 0)
(3 -1.75841e-15 0)
(3 -1.42585e-15 0)
(3 -1.89388e-16 0)
(3 1.63616e-15 0)
(3 2.4884e-15 0)
(3 2.34291e-15 0)
(3 1.67872e-15 0)
(3 5.48775e-17 0)
(3 -1.19616e-15 0)
(3 -2.34851e-15 0)
(3 -1.93421e-15 0)
(3 -1.37738e-15 0)
(3 -8.53417e-16 0)
(3 -2.04844e-15 0)
(3 -6.01878e-15 0)
(3 -7.24842e-15 0)
(3 -6.55637e-15 0)
(3 -6.003e-15 0)
(3.00441 0.00104492 0)
(1.22826 0.319102 0)
(0.823415 0.322926 0)
(0.823436 0.348774 0)
(0.800414 0.356908 0)
(0.778347 0.361308 0)
(0.753502 0.363643 0)
(0.724716 0.365451 0)
(0.691701 0.367576 0)
(0.657068 0.370256 0)
(0.622657 0.3748 0)
(0.589212 0.379308 0)
(0.557479 0.383498 0)
(0.528298 0.389785 0)
(0.502314 0.400854 0)
(0.478971 0.416778 0)
(0.456665 0.436238 0)
(0.434108 0.458623 0)
(0.410021 0.483812 0)
(0.384155 0.51161 0)
(0.3551 0.541875 0)
(0.321531 0.573495 0)
(0.282072 0.604998 0)
(0.234573 0.632625 0)
(0.18036 0.660394 0)
(0.113961 0.682242 0)
(0.0404607 0.700298 0)
(3 -8.20587e-18 0)
(3 5.02052e-17 0)
(3 -1.72948e-17 0)
(3 -2.89545e-16 0)
(3 -2.74033e-16 0)
(3 -7.26738e-16 0)
(3 -1.66326e-15 0)
(3 -2.2094e-15 0)
(3 -2.35262e-15 0)
(3 -2.84986e-15 0)
(3 -1.88077e-15 0)
(3 -1.38251e-15 0)
(3 -1.39598e-15 0)
(3 -1.10827e-15 0)
(3 -1.15664e-15 0)
(3 -1.28317e-15 0)
(3 -2.48749e-15 0)
(3 -4.29572e-15 0)
(3 -4.4511e-15 0)
(3 -2.72267e-15 0)
(3 -9.41401e-16 0)
(3 -9.97584e-16 0)
(3 -1.91198e-15 0)
(3 -4.02201e-15 0)
(3 -4.08043e-15 0)
(3 -4.39275e-16 0)
(3 1.30013e-16 0)
(3 4.74741e-16 0)
(3.00005 4.7086e-07 0)
(1.3729 0.337152 0)
(0.809109 0.320216 0)
(0.797647 0.35158 0)
(0.783794 0.36931 0)
(0.769092 0.377843 0)
(0.752923 0.383222 0)
(0.735337 0.387772 0)
(0.713164 0.391702 0)
(0.684985 0.396833 0)
(0.653361 0.402892 0)
(0.619818 0.407636 0)
(0.58592 0.411063 0)
(0.553483 0.415191 0)
(0.524113 0.424053 0)
(0.498353 0.438616 0)
(0.475011 0.457869 0)
(0.452568 0.4812 0)
(0.429393 0.508243 0)
(0.4049 0.539016 0)
(0.377783 0.573379 0)
(0.346882 0.610267 0)
(0.310587 0.648627 0)
(0.263462 0.686068 0)
(0.20415 0.727297 0)
(0.129406 0.765899 0)
(0.0408843 0.790724 0)
(3 -5.8584e-17 0)
(3 -7.07852e-18 0)
(3 9.28406e-17 0)
(3 4.06904e-16 0)
(3 4.93451e-17 0)
(3 -3.36677e-16 0)
(3 -3.90218e-16 0)
(3 -6.03525e-16 0)
(3 -1.31517e-15 0)
(3 -1.88376e-15 0)
(3 -2.2806e-15 0)
(3 -2.55964e-15 0)
(3 -3.5201e-15 0)
(3 -3.56804e-15 0)
(3 -2.78501e-15 0)
(3 -2.0811e-15 0)
(3 -2.26657e-15 0)
(3 -3.45875e-15 0)
(3 -5.241e-15 0)
(3 -7.02117e-15 0)
(3 -8.19645e-15 0)
(3 -7.37532e-15 0)
(3 -7.05102e-15 0)
(3 -5.68181e-15 0)
(3 -1.20203e-15 0)
(3 9.01858e-16 0)
(3 1.51824e-15 0)
(3 1.06852e-15 0)
(3 -2.77095e-09 0)
(1.59564 0.362975 0)
(0.826166 0.344672 0)
(0.766197 0.354854 0)
(0.758297 0.368226 0)
(0.749889 0.380146 0)
(0.741455 0.391143 0)
(0.730507 0.400753 0)
(0.718176 0.409942 0)
(0.701471 0.41812 0)
(0.678544 0.4274 0)
(0.649851 0.435098 0)
(0.617497 0.440013 0)
(0.583682 0.44342 0)
(0.551557 0.450161 0)
(0.522708 0.462615 0)
(0.497333 0.480736 0)
(0.474317 0.50425 0)
(0.451884 0.532661 0)
(0.429124 0.565958 0)
(0.404643 0.604004 0)
(0.376666 0.646472 0)
(0.343378 0.694246 0)
(0.300773 0.746269 0)
(0.248031 0.802303 0)
(0.178135 0.8566 0)
(0.0660795 0.901864 0)
(3 5.94271e-17 0)
(3 3.5225e-16 0)
(3 1.41105e-16 0)
(3 -5.04314e-16 0)
(3 -8.26671e-16 0)
(3 -6.39671e-16 0)
(3 -1.33062e-16 0)
(3 -8.06382e-17 0)
(3 -7.48258e-16 0)
(3 -4.42698e-16 0)
(3 -4.16093e-16 0)
(3 -7.73108e-16 0)
(3 -7.32159e-16 0)
(3 -1.00347e-15 0)
(3 -5.66617e-16 0)
(3 6.6338e-16 0)
(3 1.76108e-15 0)
(3 1.60459e-15 0)
(3 9.14131e-16 0)
(3 6.4396e-16 0)
(3 -6.54722e-16 0)
(3 -7.96996e-16 0)
(3 -6.19261e-16 0)
(3 1.14484e-16 0)
(3 2.4922e-15 0)
(3 2.4773e-15 0)
(3 2.48218e-15 0)
(3 1.52347e-15 0)
(3 -3.68416e-09 0)
(1.90516 0.389282 0)
(0.849911 0.397836 0)
(0.757574 0.371717 0)
(0.746307 0.376259 0)
(0.739035 0.385495 0)
(0.731737 0.395098 0)
(0.723357 0.405653 0)
(0.71442 0.418208 0)
(0.704387 0.432373 0)
(0.691783 0.446361 0)
(0.672385 0.458618 0)
(0.646289 0.467616 0)
(0.615165 0.472946 0)
(0.582982 0.478971 0)
(0.552028 0.489352 0)
(0.524298 0.505459 0)
(0.50012 0.528084 0)
(0.478057 0.556918 0)
(0.457162 0.592082 0)
(0.435716 0.633697 0)
(0.412017 0.681943 0)
(0.386192 0.737387 0)
(0.354573 0.798702 0)
(0.3086 0.875992 0)
(0.222715 0.987296 0)
(0.111107 1.10548 0)
(3 2.50748e-17 0)
(3 2.81596e-16 0)
(3 1.35189e-16 0)
(3 -2.71764e-16 0)
(3 1.82538e-16 0)
(3 2.10069e-16 0)
(3 -5.1863e-16 0)
(3 -1.09351e-15 0)
(3 -8.15141e-16 0)
(3 2.74161e-16 0)
(3 2.53314e-15 0)
(3 3.64518e-15 0)
(3 3.32787e-15 0)
(3 2.60024e-15 0)
(3 2.7992e-15 0)
(3 2.64246e-15 0)
(3 3.6713e-15 0)
(3 5.66862e-15 0)
(3 6.05629e-15 0)
(3 5.53205e-15 0)
(3 3.46903e-15 0)
(3 2.97256e-15 0)
(3 3.70843e-15 0)
(3 5.63322e-15 0)
(3 8.76479e-15 0)
(3 9.63014e-15 0)
(3 6.96052e-15 0)
(3 3.9055e-15 0)
(3 -9.17658e-10 0)
(2.34111 0.388333 0)
(0.916695 0.458682 0)
(0.790074 0.393746 0)
(0.764543 0.390269 0)
(0.745615 0.394082 0)
(0.733276 0.403942 0)
(0.722524 0.414403 0)
(0.712525 0.426207 0)
(0.703111 0.440597 0)
(0.694317 0.457889 0)
(0.684533 0.475509 0)
(0.667588 0.490155 0)
(0.643182 0.50018 0)
(0.614893 0.508265 0)
(0.58464 0.518265 0)
(0.555638 0.532433 0)
(0.53014 0.553338 0)
(0.507969 0.581578 0)
(0.488833 0.617759 0)
(0.471071 0.662081 0)
(0.453107 0.714354 0)
(0.43575 0.776192 0)
(0.412603 0.85407 0)
(0.384589 0.97152 0)
(0.366977 1.12539 0)
(0.446973 1.38893 0)
(3 -1.91127e-17 0)
(3 2.74518e-17 0)
(3 1.04645e-16 0)
(3 4.53534e-16 0)
(3 8.76422e-16 0)
(3 9.94375e-16 0)
(3 8.08346e-16 0)
(3 4.32909e-16 0)
(3 1.05431e-15 0)
(3 2.40146e-15 0)
(3 2.58459e-15 0)
(3 2.36187e-15 0)
(3 1.75004e-15 0)
(3 1.02444e-15 0)
(3 9.53379e-16 0)
(3 5.53144e-17 0)
(3 -1.9625e-16 0)
(3 -1.18156e-17 0)
(3 -1.41171e-16 0)
(3 4.32705e-17 0)
(3 6.53245e-16 0)
(3 1.56578e-15 0)
(3 2.03107e-15 0)
(3 5.46006e-15 0)
(3 7.40477e-15 0)
(3 8.13065e-15 0)
(3 8.91007e-15 0)
(3 8.31466e-15 0)
(3 -1.34367e-10 0)
(2.88781 0.228596 0)
(1.06817 0.486465 0)
(0.868096 0.416601 0)
(0.82928 0.405567 0)
(0.785241 0.411012 0)
(0.75353 0.417177 0)
(0.732215 0.426536 0)
(0.717083 0.43741 0)
(0.705233 0.450442 0)
(0.696547 0.466921 0)
(0.688893 0.486328 0)
(0.680585 0.506075 0)
(0.664654 0.522156 0)
(0.643395 0.534813 0)
(0.617525 0.547115 0)
(0.590026 0.56083 0)
(0.564289 0.579859 0)
(0.542051 0.606537 0)
(0.52456 0.642436 0)
(0.510743 0.687962 0)
(0.49943 0.743204 0)
(0.491077 0.811934 0)
(0.485941 0.904914 0)
(0.487538 1.03622 0)
(0.548451 1.18707 0)
(0.822401 1.399 0)
(3 -9.24416e-17 0)
(3 -3.99003e-20 0)
(3 2.9561e-16 0)
(3 1.36651e-15 0)
(3 1.07061e-15 0)
(3 4.55578e-16 0)
(3 1.12424e-15 0)
(3 2.7787e-15 0)
(3 2.313e-15 0)
(3 2.28061e-15 0)
(3 1.61579e-15 0)
(3 1.4919e-15 0)
(3 1.08388e-15 0)
(3 7.35962e-16 0)
(3 -1.36504e-16 0)
(3 -9.87377e-16 0)
(3 -2.33158e-15 0)
(3 -2.9762e-15 0)
(3 -2.11193e-15 0)
(3 -1.30763e-15 0)
(3 4.05806e-16 0)
(3 9.88776e-16 0)
(3 1.62476e-16 0)
(3 -5.60359e-16 0)
(3 2.26007e-15 0)
(3 5.71292e-15 0)
(3 8.30654e-15 0)
(3 9.43369e-15 0)
(3 -9.20349e-12 0)
(3.06549 0.0206783 0)
(1.25603 0.44618 0)
(0.910062 0.442012 0)
(0.878944 0.449765 0)
(0.836368 0.446553 0)
(0.791197 0.445201 0)
(0.756508 0.44528 0)
(0.732065 0.451185 0)
(0.714943 0.461835 0)
(0.7031 0.476929 0)
(0.694692 0.495718 0)
(0.688821 0.517157 0)
(0.68013 0.537962 0)
(0.666434 0.556266 0)
(0.647699 0.57306 0)
(0.624785 0.589016 0)
(0.600956 0.60754 0)
(0.579612 0.632367 0)
(0.563791 0.666874 0)
(0.553665 0.712128 0)
(0.549611 0.768823 0)
(0.551075 0.84106 0)
(0.567329 0.938522 0)
(0.600008 1.06558 0)
(0.724195 1.20909 0)
(1.06065 1.3655 0)
(3 -1.96046e-16 0)
(3 -1.09782e-16 0)
(3 -3.45198e-17 0)
(3 -1.46459e-16 0)
(3 -1.34726e-16 0)
(3 -2.56619e-16 0)
(3 -2.28863e-16 0)
(3 1.07341e-16 0)
(3 1.07716e-15 0)
(3 1.73967e-15 0)
(3 2.99167e-15 0)
(3 2.5331e-15 0)
(3 1.91479e-15 0)
(3 1.95094e-15 0)
(3 1.55491e-15 0)
(3 7.47797e-16 0)
(3 1.68183e-16 0)
(3 -4.68758e-17 0)
(3 -1.05487e-16 0)
(3 -1.8545e-16 0)
(3 -4.07727e-16 0)
(3 -5.68477e-16 0)
(3 -2.38097e-15 0)
(3 -3.97504e-15 0)
(3 -2.78885e-15 0)
(3 1.53057e-15 0)
(3 2.54357e-15 0)
(3 3.36046e-15 0)
(3 -3.89327e-13 0)
(3.00436 3.64698e-05 0)
(1.40519 0.421791 0)
(0.888716 0.474341 0)
(0.868428 0.483964 0)
(0.845856 0.479338 0)
(0.819957 0.474557 0)
(0.787933 0.471512 0)
(0.757994 0.472001 0)
(0.733599 0.477224 0)
(0.716459 0.488761 0)
(0.704727 0.505468 0)
(0.698071 0.526538 0)
(0.692235 0.549611 0)
(0.685036 0.572092 0)
(0.673783 0.593705 0)
(0.65788 0.614009 0)
(0.638832 0.634215 0)
(0.620075 0.657819 0)
(0.606354 0.690219 0)
(0.599677 0.73363 0)
(0.60213 0.789483 0)
(0.61434 0.861049 0)
(0.645866 0.956657 0)
(0.709096 1.07453 0)
(0.871651 1.2048 0)
(1.18412 1.30837 0)
(3 4.3679e-17 0)
(3 1.31715e-16 0)
(3 -2.14499e-16 0)
(3 -5.51268e-16 0)
(3 -4.76494e-16 0)
(3 1.42189e-16 0)
(3 -1.43833e-16 0)
(3 -5.67145e-16 0)
(3 -3.27204e-16 0)
(3 3.28267e-16 0)
(3 1.86623e-15 0)
(3 2.64818e-15 0)
(3 4.2687e-15 0)
(3 3.87455e-15 0)
(3 4.14655e-15 0)
(3 4.16779e-15 0)
(3 3.90727e-15 0)
(3 3.29768e-15 0)
(3 9.58577e-16 0)
(3 -3.2127e-16 0)
(3 -1.22633e-15 0)
(3 -1.93454e-15 0)
(3 -2.15661e-15 0)
(3 -3.51025e-15 0)
(3 -4.65177e-15 0)
(3 -4.20943e-15 0)
(3 -2.81549e-15 0)