/*--------------------------------*- C++ -*----------------------------------*\
  =========                 |
  \\      /  F ield         | OpenFOAM: The Open Source CFD Toolbox
   \\    /   O peration     | Website:  https://openfoam.org
    \\  /    A nd           | Version:  7
     \\/     M anipulation  |
\*---------------------------------------------------------------------------*/
FoamFile
{
    version     2.0;
    format      ascii;
    class       volVectorField;
    location    "5";
    object      U;
}
// * * * * * * * * * * * * * * * * * * * * * * * * * * * * * * * * * * * * * //

dimensions      [0 1 -1 0 0 0 0];

internalField   nonuniform List<vector> 
8000
(
(-0.000217549 0.0174177 3.79875e-22)
(0.000473646 0.0458044 3.03756e-24)
(0.00259598 0.0696602 2.76699e-24)
(0.00548882 0.0899898 4.70241e-22)
(0.00897548 0.107543 2.88478e-21)
(0.0128663 0.12287 0)
(0.0170206 0.136381 1.016e-21)
(0.0213311 0.148384 -1.02792e-21)
(0.0257138 0.159116 1.04947e-21)
(0.0301022 0.168757 -1.05443e-21)
(0.0344427 0.177452 4.25691e-21)
(0.0386918 0.185313 0)
(0.042813 0.19243 0)
(0.0467761 0.198876 0)
(0.0505554 0.204713 0)
(0.0541291 0.209987 0)
(0.0574789 0.214741 0)
(0.0605903 0.219007 -2.12868e-21)
(0.0634523 0.222814 2.1068e-21)
(0.0660499 0.226172 0)
(-0.00086635 0.0170699 0)
(-0.00119697 0.0447941 0)
(0.000118343 0.0680837 7.10946e-21)
(0.00237951 0.087922 0)
(0.00537602 0.105053 3.81433e-21)
(0.00889099 0.12002 0)
(0.0127629 0.133226 8.05714e-21)
(0.0168687 0.144975 -8.20641e-21)
(0.0211121 0.155501 8.32548e-21)
(0.0254169 0.164981 -8.4169e-21)
(0.0297217 0.173556 8.48765e-21)
(0.0339761 0.181338 -4.25898e-21)
(0.0381382 0.188417 -4.25665e-21)
(0.0421724 0.194864 -4.31203e-21)
(0.0460481 0.200739 8.57847e-21)
(0.049739 0.206089 -8.55594e-21)
(0.0532227 0.210955 2.54946e-20)
(0.0564799 0.215369 -1.6882e-20)
(0.0594898 0.219355 -8.38492e-21)
(0.0622415 0.222926 -1.89752e-20)
(-0.00148848 0.0166898 0)
(-0.00278532 0.0436958 0)
(-0.00222047 0.0663666 -2.48256e-20)
(-0.000538634 0.0856659 1.84277e-20)
(0.00201565 0.102332 -7.65791e-21)
(0.00519804 0.116901 -1.5692e-20)
(0.00882629 0.12977 -8.05697e-21)
(0.0127617 0.141237 8.20625e-21)
(0.016896 0.151529 -8.32532e-21)
(0.0211435 0.160824 -8.35902e-21)
(0.0254352 0.169259 -8.48312e-21)
(0.0297146 0.176944 0)
(0.0339343 0.183967 -8.48877e-21)
(0.0380535 0.190401 -8.55627e-21)
(0.0420372 0.196304 8.5462e-21)
(0.0458542 0.201723 -8.52233e-21)
(0.0494782 0.206697 -8.48648e-21)
(0.0528846 0.211258 8.44023e-21)
(0.0560439 0.215429 -8.30728e-21)
(0.0589453 0.21922 -9.45524e-21)
(-0.00208155 0.0162716 1.49115e-21)
(-0.00428362 0.0425038 3.37619e-21)
(-0.00440672 0.0645065 1.06369e-20)
(-0.00324572 0.0832235 -1.47462e-20)
(-0.00107982 0.099388 0)
(0.00181891 0.113527 7.83295e-21)
(0.00524746 0.126029 1.60266e-20)
(0.0090516 0.137188 -8.13553e-21)
(0.0131112 0.147225 0)
(0.0173317 0.156313 3.34942e-20)
(0.0216369 0.164588 0)
(0.0259644 0.172159 0)
(0.0302615 0.179112 3.40177e-20)
(0.0344829 0.185519 -1.70555e-20)
(0.0385889 0.191438 3.39839e-20)
(0.0425439 0.196918 -1.69057e-20)
(0.0463169 0.201996 3.37288e-20)
(0.0498785 0.206705 -1.67381e-20)
(0.0531908 0.211064 3.33729e-20)
(0.0562387 0.215087 -1.87545e-20)
(-0.0026431 0.0158202 5.88914e-21)
(-0.00568374 0.0412252 1.33382e-20)
(-0.00642658 0.0625137 -6.99914e-21)
(-0.00572181 0.0806082 -3.64987e-21)
(-0.00388439 0.0962367 0)
(-0.00121466 0.109916 -1.55761e-20)
(0.00206351 0.122027 0)
(0.00578048 0.132855 -8.1618e-21)
(0.00980469 0.142616 8.22699e-21)
(0.0140328 0.15148 -1.67185e-20)
(0.0183819 0.159578 0)
(0.0227842 0.167018 0)
(0.0271822 0.173886 -1.69784e-20)
(0.0315263 0.180253 -1.69923e-20)
(0.0357723 0.186178 -6.15841e-24)
(0.0398801 0.191711 0)
(0.0438137 0.196889 -1.68314e-20)
(0.0475391 0.201745 3.34468e-20)
(0.0510107 0.206299 -3.31033e-20)
(0.0542038 0.210563 -1.86464e-20)
(-0.00317051 0.0153381 -8.88565e-21)
(-0.00697699 0.0398629 9.88985e-21)
(-0.00826508 0.0603935 -1.04168e-20)
(-0.00794552 0.0778293 0)
(-0.00637046 0.0928918 -7.58265e-21)
(-0.00386922 0.106087 2.33196e-20)
(-0.000686662 0.117785 0)
(0.0029923 0.128264 -4.86404e-20)
(0.00702494 0.137734 3.29014e-20)
(0.0112996 0.146358 -1.6582e-20)
(0.0157272 0.154265 0)
(0.0202347 0.161561 3.36382e-20)
(0.0247606 0.16833 0)
(0.0292512 0.174646 0)
(0.0336581 0.180567 5.06964e-20)
(0.0379366 0.186144 -6.72336e-20)
(0.042046 0.191418 3.33967e-20)
(0.0459469 0.196421 0)
(0.0495871 0.201175 0)
(0.0529268 0.205692 5.59028e-20)
(-0.00366076 0.0148262 -2.95058e-21)
(-0.00815377 0.0384198 -4.31089e-20)
(-0.00990603 0.0581526 1.3998e-20)
(-0.0098942 0.0748977 -2.17643e-20)
(-0.00850919 0.0893693 7.5533e-21)
(-0.0061101 0.10206 -3.8632e-20)
(-0.00296295 0.113331 0)
(0.000732224 0.123448 1.61602e-20)
(0.00482182 0.132614 -1.63966e-20)
(0.00918631 0.140987 -3.31013e-20)
(0.0137308 0.148693 -1.67528e-20)
(0.0183778 0.155833 -1.6893e-20)
(0.0230619 0.162494 3.36042e-20)
(0.0277261 0.168747 0)
(0.0323181 0.174654 -3.3672e-20)
(0.0367889 0.180268 6.68555e-20)
(0.0410923 0.185632 0)
(0.0451839 0.190782 -3.30443e-20)
(0.0490059 0.195741 3.27906e-20)
(0.0524966 0.200524 3.70689e-20)
(-0.0041106 0.0142854 2.9188e-21)
(-0.00920376 0.0368985 2.64662e-20)
(-0.0113321 0.0557971 6.96438e-21)
(-0.0115439 0.0718247 2.1797e-20)
(-0.0102704 0.0856858 0)
(-0.00790131 0.097859 1.54295e-20)
(-0.00472397 0.108691 1.57385e-20)
(-0.000953368 0.118438 0)
(0.00324633 0.127294 3.27379e-20)
(0.00774813 0.135411 3.31011e-20)
(0.0124518 0.142908 0)
(0.0172759 0.149887 1.38517e-22)
(0.0221521 0.15643 -6.71995e-20)
(0.02702 0.162612 6.69646e-20)
(0.0318245 0.168497 3.3547e-20)
(0.0365122 0.174139 -1.0015e-19)
(0.0410315 0.179587 9.95045e-20)
(0.0453328 0.184882 1.16834e-22)
(0.0493536 0.190052 -9.81922e-20)
(0.0530039 0.195113 -8.65956e-23)
(-0.00451646 0.0137158 -2.31411e-20)
(-0.0101158 0.0353015 2.6188e-20)
(-0.012525 0.0533342 0)
(-0.0128695 0.0686224 2.87418e-20)
(-0.0116229 0.0818594 0)
(-0.0092059 0.0935067 -1.54302e-20)
(-0.00592748 0.103896 3.14788e-20)
(-0.00201735 0.113271 -3.20853e-20)
(0.00235009 0.121817 3.25652e-20)
(0.00704078 0.129677 1.64632e-20)
(0.0119497 0.136965 3.32797e-20)
(0.016992 0.143779 -3.3288e-20)
(0.0220967 0.150201 3.32332e-20)
(0.0272016 0.156305 -3.34903e-20)
(0.0322486 0.162158 0)
(0.0371809 0.167821 0)
(0.0419414 0.173347 -1.29116e-22)
(0.0464752 0.178783 0)
(0.0507163 0.184168 3.26488e-20)
(0.0545392 0.189518 -3.68009e-20)
(-0.00487435 0.0131177 2.31412e-20)
(-0.010878 0.0336315 -5.22309e-20)
(-0.0134651 0.0507712 -3.4295e-20)
(-0.013845 0.0653041 -6.46179e-20)
(-0.0125343 0.0779096 -1.4866e-20)
(-0.00998618 0.0890296 0)
(-0.00653072 0.0989791 -3.13064e-20)
(-0.00241227 0.107988 1.60432e-20)
(0.00218485 0.11623 -4.85707e-20)
(0.00711993 0.123838 -9.85575e-20)
(0.0122835 0.130922 3.29806e-20)
(0.017588 0.137574 -3.33191e-20)
(0.0229607 0.143874 -6.67809e-20)
(0.0283377 0.149897 -1.30136e-23)
(0.0336596 0.155713 3.33001e-20)
(0.0388666 0.161388 -3.30583e-20)
(0.0438964 0.166983 -3.29974e-20)
(0.0486891 0.172555 -3.26417e-20)
(0.0531768 0.178157 0)
(0.0571909 0.183806 -3.65557e-20)
(-0.00517979 0.0124909 -1.70756e-20)
(-0.0114774 0.0318912 -6.2994e-21)
(-0.0141321 0.048116 2.05315e-20)
(-0.0144432 0.061884 3.57086e-20)
(-0.0129721 0.0738575 1.47969e-20)
(-0.0102041 0.0844561 1.51794e-20)
(-0.00649092 0.0939757 3.13065e-20)
(-0.00209096 0.102631 0)
(0.00280185 0.110582 -4.66706e-23)
(0.00804046 0.117952 6.53634e-20)
(0.0135114 0.124843 0)
(0.0191249 0.131342 -3.32025e-20)
(0.0248069 0.137526 3.32356e-20)
(0.0304931 0.143469 3.32535e-20)
(0.0361236 0.149244 0)
(0.0416371 0.154923 -3.29284e-20)
(0.0469665 0.160576 -6.56906e-20)
(0.0520479 0.166273 -1.56098e-23)
(0.0568129 0.17209 -9.13235e-23)
(0.0610425 0.178044 -1.58676e-23)
(-0.0054277 0.0118352 -2.25262e-20)
(-0.0118999 0.0300837 2.58934e-20)
(-0.0145044 0.0453775 0)
(-0.0146365 0.0583776 0)
(-0.012903 0.0697256 1.48001e-20)
(-0.00982192 0.079816 1.35115e-22)
(-0.00576586 0.0889232 -3.11192e-20)
(-0.00100718 0.0972444 4.76608e-20)
(0.00425102 0.104926 -3.21079e-20)
(0.0098557 0.112079 0)
(0.0156897 0.118798 6.55717e-20)
(0.0216612 0.12516 6.58895e-20)
(0.0276956 0.13124 9.91708e-20)
(0.033729 0.137109 0)
(0.0397025 0.142843 0)
(0.0455544 0.148518 3.29283e-20)
(0.0512149 0.154216 0)
(0.0566171 0.160025 3.25109e-20)
(0.0616947 0.166047 -6.42256e-20)
(0.0661707 0.172306 7.21873e-20)
(-0.0056124 0.0111504 3.96768e-20)
(-0.0121308 0.0282125 6.36624e-21)
(-0.0145599 0.0425656 0)
(-0.0143967 0.0548018 0)
(-0.0122941 0.0655384 7.32591e-20)
(-0.00880236 0.0751412 4.53029e-20)
(-0.00431463 0.0838612 0)
(0.000883472 0.0918765 0)
(0.00658009 0.0993174 3.22093e-20)
(0.0126164 0.106284 6.5018e-20)
(0.0188718 0.112857 -1.96339e-19)
(0.0252525 0.119109 -3.30932e-20)
(0.0316838 0.125106 -6.60332e-20)
(0.038103 0.130915 -6.57701e-20)
(0.0444531 0.136613 6.56209e-20)
(0.0506746 0.14228 2.15762e-22)
(0.056697 0.148008 -1.29988e-19)
(0.062453 0.153907 0)
(0.0678823 0.160117 1.28201e-19)
(0.0726432 0.166669 -7.17723e-20)
(-0.00572758 0.0104366 0)
(-0.0121542 0.0262819 6.40927e-21)
(-0.0142758 0.0396911 -6.68194e-21)
(-0.0136958 0.0511748 0)
(-0.0111131 0.0613218 -5.85248e-20)
(-0.00710973 0.0704655 -7.54743e-20)
(-0.00209845 0.0788311 1.53666e-20)
(0.00362264 0.0865762 0)
(0.00983345 0.0938144 -6.38326e-20)
(0.0163698 0.100632 -6.48152e-20)
(0.0231073 0.107098 6.53268e-20)
(0.0299507 0.113274 -3.28348e-20)
(0.0368247 0.119219 3.27506e-20)
(0.0436682 0.124993 6.57701e-20)
(0.0504276 0.130668 -6.56207e-20)
(0.0570474 0.136327 6.53507e-20)
(0.0634599 0.142071 2.60021e-22)
(0.0696017 0.148031 -1.28703e-19)
(0.0754245 0.154396 -1.89436e-22)
(0.0805167 0.161217 1.43172e-19)
(-0.00576631 0.00969399 5.61342e-21)
(-0.0119536 0.0242973 -6.27681e-21)
(-0.0136288 0.0367665 5.32727e-20)
(-0.012506 0.0475169 0)
(-0.00932896 0.0571036 5.79603e-20)
(-0.00471048 0.0658241 5.98109e-20)
(0.000918343 0.0738757 -3.08705e-20)
(0.00724797 0.0813938 3.12331e-20)
(0.0140508 0.0884745 6.38331e-20)
(0.0211576 0.0951893 3.23122e-20)
(0.0284407 0.101595 -3.23747e-20)
(0.0358024 0.107742 3.27026e-20)
(0.0431669 0.113677 1.43504e-22)
(0.0504741 0.119453 -9.81107e-20)
(0.0576742 0.125132 1.30429e-19)
(0.0647178 0.130794 -1.29665e-19)
(0.0715436 0.136542 2.68199e-22)
(0.0780989 0.142528 6.42542e-20)
(0.0843576 0.149003 8.48626e-23)
(0.0898366 0.156046 -7.13478e-20)
(-0.00572109 0.00892345 5.21437e-23)
(-0.0115117 0.0222653 -1.88862e-20)
(-0.012596 0.0338063 -4.0079e-20)
(-0.0108005 0.0438502 -1.39886e-20)
(-0.00691269 0.0529135 1.40758e-20)
(-0.00157422 0.0612541 -5.98119e-20)
(0.00476713 0.0690388 3.03394e-20)
(0.0117918 0.0763801 3.10985e-20)
(0.0192657 0.0833553 -3.18252e-20)
(0.0270151 0.0900214 3.19759e-20)
(0.0349091 0.0964226 0)
(0.0428477 0.102597 0)
(0.0507534 0.108579 3.26207e-20)
(0.0585664 0.11441 -3.24781e-20)
(0.0662395 0.120137 0)
(0.0737302 0.12583 6.48138e-20)
(0.0809868 0.131583 5.20725e-23)
(0.0879757 0.137563 4.98058e-23)
(0.0947102 0.144083 1.26873e-19)
(0.100642 0.151272 -3.98015e-22)
(-0.00558395 0.00812646 5.47151e-21)
(-0.010811 0.0201941 -1.25722e-20)
(-0.0111546 0.0308265 2.6389e-20)
(-0.00855401 0.0401988 -1.37367e-20)
(-0.00383802 0.0487832 -5.76693e-20)
(0.00232537 0.0567938 -1.49193e-20)
(0.00947381 0.0643651 -4.59181e-20)
(0.0172795 0.0715851 0)
(0.0255033 0.0785127 -3.13339e-20)
(0.0339682 0.0851899 -3.1837e-20)
(0.0425406 0.0916486 -9.65132e-20)
(0.0511178 0.0979152 -1.55577e-22)
(0.0596203 0.104014 9.72718e-20)
(0.0679867 0.109969 -6.46556e-20)
(0.0761707 0.115814 -6.44638e-20)
(0.0841348 0.121595 6.44631e-20)
(0.0918377 0.127384 -1.9188e-19)
(0.0992728 0.133337 6.37869e-20)
(0.10652 0.139824 -6.30702e-20)
(0.112986 0.147045 -7.03738e-20)
(-0.00534651 0.00730527 0)
(-0.00983403 0.0180937 0)
(-0.00928296 0.0278458 1.32007e-20)
(-0.00574355 0.0365892 4.1184e-20)
(-8.23095e-05 0.0447462 0)
(0.00700942 0.052483 -5.89472e-20)
(0.0150574 0.0598994 6.0506e-20)
(0.023728 0.0670583 6.17587e-20)
(0.0327789 0.0739996 9.45651e-20)
(0.0420312 0.0807511 6.36419e-20)
(0.0513499 0.0873334 3.22868e-20)
(0.060631 0.0937635 -9.64715e-20)
(0.0697927 0.100056 1.6111e-19)
(0.0787708 0.106223 -5.56206e-23)
(0.0875167 0.112281 6.44639e-20)
(0.0959933 0.118249 0)
(0.104165 0.124156 3.49658e-22)
(0.112054 0.130112 6.31335e-20)
(0.119842 0.136509 1.25878e-19)
(0.126961 0.143616 0)
(-0.00500015 0.00646311 0)
(-0.00856355 0.0159763 4.90377e-20)
(-0.00696092 0.0248852 -1.31178e-20)
(-0.00234894 0.0330505 2.69952e-20)
(0.00437258 0.0408383 -5.65738e-20)
(0.0124928 0.0483628 4.43352e-20)
(0.021529 0.055687 -6.05074e-20)
(0.031144 0.0628475 -2.98936e-22)
(0.0410949 0.0698654 0)
(0.0512034 0.0767545 3.14231e-20)
(0.0613354 0.0835259 1.66567e-22)
(0.0713877 0.0901895 3.22665e-20)
(0.0812784 0.0967543 -3.57177e-22)
(0.090942 0.103228 -3.77491e-22)
(0.100326 0.109616 6.4021e-20)
(0.109388 0.115919 -6.38827e-20)
(0.118083 0.122123 6.32722e-20)
(0.126431 0.128267 -2.9487e-22)
(0.134728 0.134718 0)
(0.142586 0.141698 -6.6499e-22)
(-0.00453668 0.00560483 0)
(-0.00698338 0.0138567 -4.90528e-20)
(-0.00417048 0.0219687 0)
(0.00164631 0.0296143 -6.82015e-20)
(0.00953945 0.0370971 5.65791e-20)
(0.0187833 0.0444753 1.4537e-20)
(0.0288901 0.0517729 -3.01664e-20)
(0.0395224 0.058999 -3.09479e-20)
(0.0504394 0.0661553 0)
(0.0614663 0.0732423 -3.15632e-20)
(0.0724732 0.0802623 -3.16353e-20)
(0.0833619 0.0872204 -3.19116e-20)
(0.0940567 0.0941242 -9.60173e-20)
(0.104498 0.100984 -2.99843e-22)
(0.114641 0.107813 6.35795e-20)
(0.124447 0.114617 -1.26542e-19)
(0.13387 0.121386 6.29623e-20)
(0.142901 0.128162 -6.23684e-20)
(0.15179 0.135288 0)
(0.160377 0.142579 6.31823e-22)
(0.0712749 0.232777 -3.02276e-21)
(0.077584 0.24154 1.02558e-21)
(0.0823749 0.248051 -1.04356e-21)
(0.0848728 0.253392 1.05295e-21)
(0.0856685 0.258062 0)
(0.0847187 0.262571 0)
(0.082375 0.267204 -1.07903e-21)
(0.0788465 0.272105 1.07824e-21)
(0.074383 0.277291 0)
(0.0691871 0.282702 2.17941e-21)
(0.0634398 0.288223 -1.09115e-21)
(0.0572902 0.293718 5.48862e-22)
(0.0508617 0.299037 5.47512e-22)
(0.044251 0.304032 -5.47026e-22)
(0.0375303 0.308558 -5.50097e-22)
(0.0307498 0.312489 0)
(0.02394 0.315719 -2.7573e-22)
(0.0171156 0.318173 -8.24494e-22)
(0.0102834 0.319813 -1.09946e-21)
(0.00343765 0.320615 -1.1089e-21)
(0.0679683 0.230071 8.99468e-21)
(0.0753026 0.239371 -3.06617e-21)
(0.0809833 0.24663 5.22747e-21)
(0.0843362 0.252625 -1.01641e-21)
(0.0858675 0.257918 -4.21456e-21)
(0.0855209 0.26296 -4.27188e-21)
(0.0836375 0.268039 8.563e-21)
(0.0804351 0.2733 -4.29099e-21)
(0.0761785 0.27877 0)
(0.0710891 0.284396 -3.25057e-21)
(0.065366 0.290077 0)
(0.0591739 0.295685 4.36057e-21)
(0.052649 0.30108 -3.27775e-21)
(0.0458972 0.306122 1.09704e-21)
(0.0389976 0.310675 0)
(0.0320048 0.314619 0)
(0.024953 0.317853 -2.18919e-21)
(0.0178613 0.320307 1.64791e-21)
(0.0107399 0.321944 -1.63749e-21)
(0.00359469 0.322743 1.10822e-21)
(0.0651236 0.226948 1.59091e-20)
(0.0733521 0.236803 -8.16185e-21)
(0.0798659 0.244845 0)
(0.0840104 0.251537 0)
(0.086239 0.257499 -1.26464e-20)
(0.0864667 0.263122 4.19175e-21)
(0.0850239 0.268694 4.24548e-21)
(0.0821328 0.274358 0)
(0.0780706 0.280149 4.30757e-21)
(0.0730761 0.286024 -2.14183e-21)
(0.0673655 0.291892 0)
(0.0611196 0.297637 -6.51852e-21)
(0.0544871 0.303129 2.16404e-21)
(0.0475837 0.308237 2.17414e-21)
(0.0404956 0.312833 -2.18139e-21)
(0.0332822 0.316805 2.17916e-21)
(0.0259815 0.320056 2.18656e-21)
(0.0186169 0.32252 0)
(0.0112017 0.324162 2.18559e-21)
(0.00375322 0.324962 0)
(0.062814 0.223437 3.9486e-21)
(0.0717874 0.233851 -4.07738e-21)
(0.0790683 0.242708 0)
(0.0839306 0.25013 0)
(0.0868093 0.256803 4.19594e-21)
(0.0875752 0.263053 -4.20142e-21)
(0.086548 0.269165 0)
(0.0839494 0.275275 4.2869e-21)
(0.0800668 0.281424 4.30357e-21)
(0.0751539 0.287581 -1.28514e-20)
(0.0694437 0.293666 -4.30681e-21)
(0.063132 0.299572 8.60498e-21)
(0.0563805 0.305182 0)
(0.0493147 0.310374 -1.46138e-23)
(0.0420282 0.315031 4.92769e-24)
(0.0345856 0.319044 0)
(0.0270285 0.322326 2.16956e-21)
(0.0193846 0.32481 -1.08265e-21)
(0.0116703 0.326464 -1.08344e-21)
(0.00391362 0.32727 0)
(0.0611183 0.219576 1.19101e-20)
(0.0706683 0.230539 -2.843e-20)
(0.0786406 0.240234 1.63243e-20)
(0.0841356 0.248413 0)
(0.0876075 0.255836 0)
(0.0888674 0.262755 8.37359e-21)
(0.0882244 0.26945 -8.44163e-21)
(0.0858951 0.276047 1.26696e-20)
(0.0821741 0.282595 -4.25507e-21)
(0.0773281 0.289067 -8.53675e-21)
(0.0716049 0.295397 1.70708e-20)
(0.065215 0.30149 -3.2179e-24)
(0.0583326 0.30724 1.25746e-23)
(0.0510935 0.312536 -4.2969e-21)
(0.0435985 0.317268 4.32122e-21)
(0.0359175 0.321338 -4.30184e-21)
(0.0280961 0.324662 0)
(0.0201659 0.327176 -1.07731e-21)
(0.0121464 0.328851 1.07617e-21)
(0.00407616 0.329666 0)
(0.0601201 0.215407 -1.55738e-20)
(0.0700597 0.226892 8.07579e-21)
(0.0786372 0.237443 -1.63894e-20)
(0.0846682 0.2464 2.45661e-20)
(0.0886657 0.254602 8.25293e-21)
(0.0903665 0.26223 -4.17107e-21)
(0.0900694 0.269548 8.34211e-21)
(0.0879813 0.276675 0)
(0.0844007 0.283658 8.41107e-21)
(0.0796045 0.29048 8.43914e-21)
(0.0738536 0.297085 -1.2715e-20)
(0.0673724 0.30339 8.51719e-21)
(0.0603471 0.309301 -6.1763e-24)
(0.0529233 0.314719 0)
(0.0452095 0.319545 -1.27975e-20)
(0.0372808 0.323686 4.26996e-21)
(0.0291867 0.327064 8.53242e-21)
(0.0209627 0.329619 0)
(0.0126313 0.331321 -8.53123e-21)
(0.00424114 0.33215 0)
(0.0599077 0.210975 -1.54974e-20)
(0.0700319 0.222945 -8.07452e-21)
(0.0791165 0.234358 0)
(0.0855752 0.244105 -1.63479e-20)
(0.0900189 0.253114 6.03543e-23)
(0.0920981 0.261483 -3.30629e-20)
(0.0921007 0.269463 -5.3111e-23)
(0.0902199 0.277157 8.31965e-21)
(0.0867544 0.284612 -5.03026e-25)
(0.0819885 0.291818 -8.41737e-21)
(0.0761941 0.298727 4.04337e-23)
(0.0696077 0.305271 -8.45145e-21)
(0.0624269 0.311366 1.68643e-20)
(0.054807 0.316925 -1.68983e-20)
(0.0468637 0.32186 3.86187e-23)
(0.0386776 0.326086 0)
(0.0303019 0.329531 -1.48441e-20)
(0.0217761 0.332138 -2.11971e-21)
(0.0131256 0.333875 8.50084e-21)
(0.00440879 0.334722 0)
(0.0605721 0.206331 -1.93286e-22)
(0.0706598 0.218734 1.59053e-20)
(0.0801406 0.231008 0)
(0.0869067 0.241551 8.14502e-21)
(0.0917047 0.251383 -8.20862e-21)
(0.0940895 0.260523 1.63624e-20)
(0.0943371 0.269198 8.26719e-21)
(0.0926233 0.277495 -8.29875e-21)
(0.0892435 0.285458 0)
(0.0844855 0.29308 -8.3501e-21)
(0.07863 0.300323 1.67368e-20)
(0.0719237 0.307131 -8.35173e-21)
(0.0645744 0.313432 -8.40146e-21)
(0.0567466 0.319152 8.41239e-21)
(0.048563 0.324213 8.42051e-21)
(0.0401097 0.328539 0)
(0.0314434 0.332064 1.26369e-20)
(0.0226074 0.334732 -4.20307e-21)
(0.0136301 0.336511 0)
(0.00457927 0.337382 0)
(0.0622065 0.201527 6.17448e-20)
(0.0720232 0.214305 -3.95845e-20)
(0.0817744 0.227426 0)
(0.0887159 0.238763 8.05362e-21)
(0.093763 0.249428 -1.62886e-20)
(0.0963694 0.259359 1.62458e-20)
(0.0967983 0.268759 0)
(0.0952046 0.277691 0)
(0.091876 0.286195 0)
(0.0871006 0.294265 0)
(0.0811643 0.301872 8.29423e-21)
(0.0743222 0.308969 -8.27772e-21)
(0.0667911 0.315499 0)
(0.0587435 0.321398 0)
(0.0503088 0.326602 8.30515e-21)
(0.0415782 0.331042 -4.16839e-21)
(0.032612 0.334659 4.16304e-21)
(0.0234573 0.3374 -1.04005e-20)
(0.0141452 0.339229 2.08257e-21)
(0.0047527 0.340128 0)
(0.0649042 0.196616 3.08807e-20)
(0.0742061 0.209707 -2.3482e-20)
(0.0840854 0.223647 0)
(0.0910584 0.23577 -8.04269e-21)
(0.096235 0.24727 0)
(0.0989677 0.258007 0)
(0.0995044 0.268153 0)
(0.0979764 0.27775 -8.12474e-21)
(0.0946596 0.286825 0)
(0.0898378 0.295374 1.64083e-20)
(0.0837992 0.303372 -8.11352e-21)
(0.0768045 0.310784 -2.463e-20)
(0.0690776 0.317564 8.21308e-21)
(0.0607981 0.323663 3.00939e-23)
(0.0521015 0.329026 -2.47475e-20)
(0.0430836 0.333596 8.23958e-21)
(0.0338083 0.337318 -4.12861e-21)
(0.0243261 0.340141 1.03316e-20)
(0.0146712 0.342029 -5.14071e-21)
(0.00492911 0.34296 -1.04043e-21)
(0.068757 0.191652 -7.88091e-21)
(0.077297 0.204994 3.12394e-20)
(0.0871425 0.219715 -7.89336e-21)
(0.0939911 0.232608 -3.19994e-20)
(0.0991626 0.244934 4.79369e-20)
(0.101914 0.256484 -7.99151e-21)
(0.102476 0.267394 0)
(0.100952 0.277678 8.09532e-21)
(0.0976013 0.287351 1.62264e-20)
(0.0927007 0.296406 -8.08952e-21)
(0.0865359 0.304822 8.14287e-21)
(0.0793705 0.312574 -8.11459e-21)
(0.0714333 0.319628 0)
(0.0629098 0.325945 8.14125e-21)
(0.0539405 0.331485 8.1476e-21)
(0.0446256 0.336199 0)
(0.0350321 0.340038 -1.22335e-20)
(0.0252137 0.342954 8.16761e-21)
(0.015208 0.344909 4.10501e-21)
(0.0051084 0.345877 0)
(0.0738534 0.186686 3.45364e-22)
(0.0813878 0.200225 -3.10339e-20)
(0.091015 0.215674 7.88556e-21)
(0.0975712 0.229316 3.17805e-20)
(0.102587 0.242451 -6.35184e-20)
(0.105239 0.254813 2.37575e-20)
(0.105731 0.266493 0)
(0.104141 0.277482 8.06611e-21)
(0.100707 0.287776 -1.59885e-20)
(0.0956913 0.297363 -2.41433e-20)
(0.0893741 0.306223 -8.08896e-21)
(0.0820187 0.314339 4.02635e-20)
(0.0738563 0.321687 -1.60859e-20)
(0.0650765 0.328243 -8.31359e-24)
(0.055824 0.333976 -8.20737e-24)
(0.0462027 0.338848 0)
(0.0362823 0.342818 1.61541e-20)
(0.0261196 0.345839 -1.21031e-20)
(0.0157552 0.347868 6.05977e-21)
(0.00529041 0.348878 -1.01719e-20)
(0.0802773 0.181763 1.49474e-20)
(0.0865743 0.195464 -3.13345e-20)
(0.0957719 0.211574 3.11612e-20)
(0.101854 0.225937 0)
(0.106549 0.239855 3.16327e-20)
(0.108969 0.253016 -2.35995e-20)
(0.109289 0.265469 -7.89208e-21)
(0.107556 0.277173 7.94591e-21)
(0.103981 0.288107 0)
(0.0988099 0.298247 2.38526e-20)
(0.0923117 0.307575 -1.58308e-20)
(0.0847455 0.316077 0)
(0.0763425 0.323741 -1.59599e-20)
(0.0672944 0.330554 1.59192e-20)
(0.0577487 0.336497 -1.59822e-20)
(0.0478121 0.341543 7.9717e-21)
(0.0375567 0.345657 -1.59687e-20)
(0.0270421 0.348793 4.01009e-21)
(0.0163121 0.350906 9.96663e-21)
(0.00547476 0.351964 1.0094e-20)
(0.0881067 0.176924 -1.46332e-20)
(0.0929554 0.190774 -6.17526e-20)
(0.10148 0.207469 3.09544e-20)
(0.106892 0.222519 -7.77924e-21)
(0.111082 0.237183 0)
(0.113127 0.251123 2.35711e-20)
(0.113162 0.264339 -2.33935e-20)
(0.111202 0.276763 0)
(0.107426 0.288348 0)
(0.102055 0.29906 -7.87905e-21)
(0.0953441 0.308877 7.88406e-21)
(0.0875452 0.317787 1.57675e-20)
(0.0788857 0.325788 5.55219e-23)
(0.0695573 0.332876 -1.57287e-20)
(0.0597091 0.339046 -7.89048e-21)
(0.0494493 0.344281 1.57413e-20)
(0.0388519 0.348552 7.90674e-21)
(0.0279787 0.351815 7.87367e-21)
(0.016877 0.35402 1.93809e-21)
(0.00566094 0.355131 5.95688e-21)
(0.0974133 0.1722 3.72979e-20)
(0.100632 0.186222 -5.36425e-20)
(0.108204 0.203416 3.07409e-20)
(0.112729 0.219114 7.76277e-21)
(0.116217 0.234476 -3.8847e-20)
(0.117734 0.249163 2.31809e-20)
(0.117363 0.263125 -7.74126e-21)
(0.115085 0.276265 2.33181e-20)
(0.111039 0.288509 -7.66291e-21)
(0.10542 0.299808 -3.88232e-20)
(0.0984638 0.310131 2.33312e-20)
(0.0904086 0.319469 -7.7602e-21)
(0.0814764 0.327825 0)
(0.0718563 0.335208 7.82065e-21)
(0.0616969 0.341621 -1.55413e-20)
(0.0511074 0.34706 -7.80383e-21)
(0.0401625 0.351501 2.44795e-23)
(0.0289257 0.354902 -1.55994e-20)
(0.0174479 0.357209 -5.86625e-21)
(0.00584817 0.358378 -9.85315e-21)
(0.108264 0.167626 -2.96498e-20)
(0.109707 0.181884 -3.84707e-20)
(0.115999 0.199488 3.05211e-20)
(0.119401 0.215784 3.08466e-20)
(0.121975 0.231785 1.56053e-20)
(0.1228 0.247175 -2.29197e-20)
(0.121896 0.261856 7.70416e-21)
(0.119202 0.275698 -4.61733e-20)
(0.114816 0.288603 4.5985e-20)
(0.108898 0.300496 1.53535e-20)
(0.101659 0.31134 -7.68972e-21)
(0.0933228 0.321123 3.06596e-20)
(0.0841012 0.329853 -1.53221e-20)
(0.0741784 0.337547 1.53547e-20)
(0.0637006 0.34422 0)
(0.0527764 0.349877 -7.66433e-21)
(0.0414805 0.354501 7.70536e-21)
(0.0298775 0.358052 -7.67405e-21)
(0.0180213 0.36047 -7.68009e-21)
(0.00603538 0.361703 0)
(0.120729 0.163231 5.90445e-20)
(0.120277 0.177842 6.60328e-22)
(0.124912 0.195767 -3.02933e-20)
(0.126928 0.212599 0)
(0.128362 0.229167 -7.63596e-21)
(0.128327 0.245202 -7.58716e-21)
(0.126759 0.260562 0)
(0.123549 0.275086 4.23242e-23)
(0.118745 0.288642 -7.60763e-21)
(0.112473 0.301135 -1.51623e-20)
(0.104913 0.31251 0)
(0.0962692 0.322752 -1.51481e-20)
(0.0867413 0.331871 0)
(0.0765054 0.339891 -1.51457e-20)
(0.0657037 0.346839 0)
(0.0544422 0.352728 2.27409e-20)
(0.0427948 0.357548 -7.57453e-21)
(0.0308261 0.361262 1.5177e-20)
(0.0185928 0.3638 7.614e-21)
(0.00622115 0.365103 7.64691e-21)
(0.134877 0.15896 0)
(0.132431 0.174084 0)
(0.134972 0.192267 3.40881e-20)
(0.135309 0.209577 -3.3789e-20)
(0.135372 0.226629 0)
(0.134305 0.243241 7.55247e-21)
(0.131939 0.259233 3.01619e-20)
(0.128108 0.274412 -5.24983e-20)
(0.122809 0.28861 5.99309e-20)
(0.116123 0.301703 -2.23456e-20)
(0.108201 0.313621 3.72708e-21)
(0.0992223 0.324337 3.76449e-21)
(0.0893708 0.333863 0)
(0.0788126 0.342227 1.12075e-20)
(0.0676834 0.349466 -1.12003e-20)
(0.0560851 0.355603 -7.50595e-21)
(0.0440895 0.360635 1.49485e-20)
(0.03176 0.364524 -1.87202e-20)
(0.0191557 0.367193 1.8701e-21)
(0.00640367 0.368573 -5.68935e-21)
(0.150741 0.154779 -2.94289e-20)
(0.146234 0.170479 -1.86997e-21)
(0.146189 0.188899 -3.38232e-20)
(0.14452 0.20662 3.34873e-20)
(0.142978 0.224077 0)
(0.140712 0.241204 1.85687e-21)
(0.137416 0.257789 3.16548e-20)
(0.13286 0.273603 1.85493e-22)
(0.126983 0.288441 -2.76378e-20)
(0.119822 0.302147 -1.47972e-20)
(0.111493 0.314626 -1.92959e-21)
(0.10215 0.32584 2.02154e-20)
(0.0919566 0.335797 0)
(0.0810677 0.34453 -1.85254e-21)
(0.0696098 0.352083 5.52196e-21)
(0.0576791 0.358489 -7.36761e-21)
(0.0453436 0.36375 7.3577e-21)
(0.0326643 0.367829 3.68924e-21)
(0.0197015 0.370643 -3.69032e-21)
(0.00658087 0.372108 0)
(0.168218 0.151731 3.43805e-20)
(0.161664 0.167656 -3.29881e-20)
(0.158535 0.186101 6.99201e-20)
(0.154509 0.204057 -3.47496e-20)
(0.151141 0.221804 3.50348e-20)
(0.147518 0.239362 -3.68592e-20)
(0.143164 0.256485 -2.17538e-21)
(0.137778 0.272901 0)
(0.131239 0.288357 -3.68065e-20)
(0.123538 0.302661 3.43675e-20)
(0.114753 0.315692 1.50818e-20)
(0.105011 0.327398 -1.92734e-20)
(0.094457 0.337782 1.71662e-20)
(0.0832291 0.346881 -1.92213e-20)
(0.0714438 0.354746 -2.14088e-21)
(0.0591895 0.36142 -8.54261e-21)
(0.0465287 0.366913 8.51569e-21)
(0.0335182 0.371187 0)
(0.0202183 0.374149 2.12818e-21)
(0.00675061 0.375704 -2.14396e-21)
(0.207345 0.152683 0)
(0.196339 0.167628 0)
(0.186515 0.18484 0)
(0.177262 0.202566 0)
(0.169919 0.220419 0)
(0.163295 0.238499 0)
(0.156541 0.256458 0)
(0.149215 0.273895 0)
(0.141091 0.290444 0)
(0.132075 0.305827 0)
(0.122175 0.319861 0)
(0.111463 0.332462 0)
(0.10004 0.343618 0)
(0.0880108 0.353373 0)
(0.0754665 0.361793 0)
(0.0624769 0.36894 0)
(0.0490912 0.374837 0)
(0.0353558 0.379443 0)
(0.0213304 0.382652 0)
(0.00712645 0.384334 0)
(0.264576 0.182601 0)
(0.248426 0.190944 0)
(0.231812 0.202483 0)
(0.215877 0.216644 0)
(0.202529 0.232558 0)
(0.190847 0.249648 0)
(0.179864 0.267265 0)
(0.169035 0.284781 0)
(0.15802 0.301657 0)
(0.146604 0.317484 0)
(0.134683 0.331994 0)
(0.12223 0.34505 0)
(0.10927 0.356619 0)
(0.0958471 0.366739 0)
(0.0820061 0.375487 0)
(0.0677824 0.382939 0)
(0.0532003 0.389122 0)
(0.0382876 0.393985 0)
(0.0230946 0.397392 0)
(0.00771801 0.39917 0)
(0.313371 0.208388 0)
(0.293668 0.21452 0)
(0.273203 0.222925 0)
(0.25293 0.234332 0)
(0.23493 0.248221 0)
(0.218814 0.26393 0)
(0.203853 0.280734 0)
(0.189572 0.297889 0)
(0.175615 0.314727 0)
(0.161706 0.330721 0)
(0.147657 0.345511 0)
(0.133363 0.358893 0)
(0.118777 0.370793 0)
(0.103883 0.381235 0)
(0.0886831 0.390294 0)
(0.0731767 0.398048 0)
(0.0573625 0.404526 0)
(0.0412482 0.409659 0)
(0.0248702 0.413278 0)
(0.00831108 0.415169 0)
(0.351508 0.232629 0)
(0.3307 0.238014 0)
(0.308716 0.245021 0)
(0.28618 0.254702 0)
(0.265136 0.266919 0)
(0.245691 0.281211 0)
(0.227464 0.296951 0)
(0.210156 0.313414 0)
(0.193485 0.329886 0)
(0.177183 0.345765 0)
(0.161031 0.360613 0)
(0.144876 0.374159 0)
(0.128619 0.386283 0)
(0.1122 0.396976 0)
(0.0955835 0.406302 0)
(0.0787405 0.414336 0)
(0.0616466 0.421101 0)
(0.0442898 0.426507 0)
(0.0266907 0.430345 0)
(0.00891796 0.432357 0)
(0.380843 0.255794 0)
(0.360104 0.261466 0)
(0.337948 0.268224 0)
(0.314632 0.277102 0)
(0.291976 0.288222 0)
(0.270395 0.301348 0)
(0.24981 0.316028 0)
(0.230116 0.331639 0)
(0.211155 0.347507 0)
(0.192722 0.363018 0)
(0.174615 0.377691 0)
(0.156666 0.391206 0)
(0.138753 0.403394 0)
(0.120793 0.414215 0)
(0.102724 0.423714 0)
(0.0845003 0.431959 0)
(0.0660799 0.438961 0)
(0.047435 0.444608 0)
(0.0285713 0.448648 0)
(0.00954416 0.450776 0)
(0.403445 0.277626 0)
(0.383311 0.284168 0)
(0.361656 0.291426 0)
(0.338446 0.300263 0)
(0.315217 0.310913 0)
(0.292508 0.323309 0)
(0.27043 0.337161 0)
(0.249035 0.351988 0)
(0.228292 0.367209 0)
(0.208081 0.382248 0)
(0.188246 0.396623 0)
(0.168639 0.409983 0)
(0.149138 0.422127 0)
(0.129654 0.432984 0)
(0.110119 0.44258 0)
(0.0904809 0.450971 0)
(0.070689 0.458161 0)
(0.0507062 0.464014 0)
(0.0305268 0.468237 0)
(0.010195 0.470472 0)
(0.421355 0.298082 0)
(0.402003 0.305806 0)
(0.381109 0.314001 0)
(0.358445 0.323327 0)
(0.335279 0.334039 0)
(0.312158 0.346159 0)
(0.289281 0.359525 0)
(0.266794 0.373785 0)
(0.244759 0.38847 0)
(0.223141 0.403075 0)
(0.201841 0.417145 0)
(0.180748 0.430325 0)
(0.159759 0.442389 0)
(0.138796 0.453243 0)
(0.117799 0.462896 0)
(0.0967201 0.471397 0)
(0.0755116 0.478742 0)
(0.0541345 0.484776 0)
(0.0325777 0.489165 0)
(0.0108778 0.491501 0)
(0.43631 0.317357 0)
(0.417744 0.326424 0)
(0.397649 0.335779 0)
(0.375685 0.34592 0)
(0.352906 0.357079 0)
(0.329813 0.369315 0)
(0.306618 0.382542 0)
(0.283502 0.396514 0)
(0.260586 0.410865 0)
(0.237895 0.425173 0)
(0.215386 0.439025 0)
(0.192987 0.452075 0)
(0.170624 0.464089 0)
(0.148241 0.474954 0)
(0.125797 0.484665 0)
(0.103256 0.493267 0)
(0.0805855 0.500754 0)
(0.0577516 0.506955 0)
(0.0347449 0.511501 0)
(0.0115997 0.513934 0)
(0.449635 0.335648 0)
(0.431802 0.346158 0)
(0.412451 0.356781 0)
(0.391189 0.367923 0)
(0.368919 0.379788 0)
(0.346079 0.392443 0)
(0.322855 0.405842 0)
(0.299425 0.419811 0)
(0.275929 0.434072 0)
(0.252431 0.448275 0)
(0.228928 0.462057 0)
(0.205385 0.475091 0)
(0.181758 0.48714 0)
(0.158016 0.498078 0)
(0.134142 0.507888 0)
(0.110122 0.516616 0)
(0.0859422 0.524254 0)
(0.0615837 0.530624 0)
(0.0370458 0.535325 0)
(0.0123669 0.537854 0)
(0.462163 0.353041 0)
(0.445063 0.365103 0)