/*--------------------------------*- C++ -*----------------------------------*\
  =========                 |
  \\      /  F ield         | OpenFOAM: The Open Source CFD Toolbox
   \\    /   O peration     | Website:  https://openfoam.org
    \\  /    A nd           | Version:  7
     \\/     M anipulation  |
\*---------------------------------------------------------------------------*/
FoamFile
{
    version     2.0;
    format      ascii;
    class       surfaceScalarField;
    location    "90.6";
    object      phi;
}
// * * * * * * * * * * * * * * * * * * * * * * * * * * * * * * * * * * * * * //

dimensions      [0 3 -1 0 0 0 0];

internalField   nonuniform List<scalar> 
3880
(
-1.76275e-05
-0.000477968
0.000495596
-1.69813e-05
-0.00115483
0.00115419
1.21704e-05
-0.00155692
0.00152777
7.47397e-05
-0.00172475
0.00166218
0.000175485
-0.00168565
0.00158491
0.000320214
-0.00145834
0.00131361
0.000515399
-0.0010561
0.000860917
0.000766504
-0.000489693
0.000238589
0.00107567
0.000230321
-0.000539489
0.00109247
0.0014392
-0.001456
-6.37206e-06
-0.000471596
1.69804e-05
-0.00117819
7.52255e-05
-0.00161517
0.000169994
-0.00181951
0.00030367
-0.00181933
0.000480648
-0.00163532
0.000706816
-0.00128227
0.00098795
-0.000770827
0.00132747
-0.000109202
0.000696253
0.00172369
8.87816e-06
-0.000480474
6.19233e-05
-0.00123123
0.000158435
-0.00171168
0.000295931
-0.00195701
0.000473921
-0.00199732
0.000694771
-0.00185617
0.000963196
-0.0015507
0.00128479
-0.00109242
0.00166396
-0.000488372
0.000259093
0.00210112
2.73185e-05
-0.000507793
0.000116201
-0.00132011
0.000258676
-0.00185416
0.000447867
-0.0021462
0.000680162
-0.00222961
0.000955627
-0.00213163
0.00127746
-0.00187253
0.00165064
-0.0014656
0.00208004
-0.000917772
-0.000228892
0.00256802
4.84174e-05
-0.00055621
0.000177332
-0.00144903
0.000371005
-0.00204783
0.000617939
-0.00239313
0.000911418
-0.00252309
0.00124926
-0.00246948
0.00163314
-0.0022564
0.00206722
-0.00189968
0.0025564
-0.00140695
-0.000776794
0.00310431
7.10883e-05
-0.000627299
0.000241968
-0.00161991
0.000488714
-0.00229458
0.000795202
-0.00269962
0.00115181
-0.0028797
0.00155442
-0.00287209
0.00200348
-0.00270547
0.00250261
-0.00239881
0.00305654
-0.00196088
-0.00138934
0.00366908
9.40732e-05
-0.000721372
0.000306084
-0.00183192
0.000603702
-0.00259219
0.000966259
-0.00306218
0.0013815
-0.00329494
0.0018438
-0.00333438
0.00235289
-0.00321456
0.00291246
-0.00295838
0.00352764
-0.00257606
-0.00206315
0.00420145
0.000115983
-0.000837355
0.000365241
-0.00208118
0.000707053
-0.00293401
0.00111639
-0.00347151
0.00157864
-0.00375719
0.00208696
-0.00384271
0.00264083
-0.00376842
0.00324484
-0.00356239
0.0039062
-0.00323742
-0.00278433
0.00462739
0.000135376
-0.000972731
0.000414886
-0.00236069
0.000789768
-0.00330889
0.00123097
-0.00391271
0.00172184
-0.00424807
0.00225449
-0.00437536
0.00282805
-0.00434199
0.00344818
-0.00418253
0.00412642
-0.00391566
-0.00352999
0.00487209
0.000150829
-0.00112356
0.000450663
-0.00266052
0.000843512
-0.00370174
0.00129699
-0.00436619
0.00179294
-0.00474402
0.00232269
-0.0049051
0.00288456
-0.00490386
0.00348354
-0.00478151
0.0041348
-0.00456692
0.00488062
-0.00427581
0.00256858
0.0120511
-0.0131805
0.00388838
0.0302981
-0.0316178
0.00451907
0.0502748
-0.0509055
0.0044796
0.0689163
-0.0688768
0.00400635
0.0870667
-0.0865934
0.00324628
0.10612
-0.105359
0.00230325
0.127977
-0.127034
0.00121333
0.158283
-0.157193
0.000330246
0.204469
-0.203586
0.259569
-0.259239
0.0028751
0.0108997
0.00441956
0.0287536
0.0053293
0.0493651
0.00548165
0.0687639
0.00510194
0.0874464
0.00435267
0.106869
0.00335145
0.128978
0.0021375
0.159497
0.000913035
0.205693
0.260482
0.00321229
0.00978856
0.00492324
0.0270426
0.0061132
0.0481751
0.00647295
0.0684042
0.00619754
0.0877218
0.00546317
0.107603
0.00440294
0.130039
0.00305654
0.160844
0.00150339
0.207246
0.261985
0.00358493
0.00877165
0.00538791
0.0252397
0.00684795
0.0467151
0.00743044
0.0678217
0.00727351
0.0878787
0.00656061
0.108316
0.00544472
0.131155
0.003966
0.162322
0.00208718
0.209125
0.264073
0.00399363
0.00788232
0.0058078
0.0234255
0.00751309
0.0450098
0.00833178
0.067003
0.00831023
0.0879003
0.00762944
0.108997
0.00646417
0.13232
0.00485623
0.16393
0.0026589
0.211323
0.266731
0.00442785
0.00712355
0.00618124
0.0216721
0.00809214
0.0430989
0.00915612
0.065939
0.00928884
0.0877676
0.00865381
0.109632
0.00744806
0.133526
0.00571653
0.165662
0.00321128
0.213828
0.269943
0.00485972
0.00646528
0.00650549
0.0200263
0.0085735
0.0410309
0.00988512
0.0646274
0.0101926
0.08746
0.00962069
0.110204
0.00838704
0.134759
0.00654112
0.167508
0.00374389
0.216625
0.273687
0.00523726
0.00585541
0.00676845
0.0184951
0.00894794
0.0388514
0.0105032
0.0630721
0.011003
0.0869602
0.0105104
0.110696
0.00926199
0.136008
0.007314
0.169456
0.00424403
0.219695
0.277931
0.00548408
0.00524341
0.0069406
0.0170386
0.009201
0.036591
0.0109997
0.0612735
0.0117219
0.0862379
0.0113339
0.111084
0.0100883
0.137253
0.00804778
0.171496
0.00472218
0.223021
0.282653
0.0055695
0.00455453
0.00705818
0.0155499
0.00936024
0.0342889
0.0113491
0.0592846
0.0122857
0.0853014
0.0120215
0.111349
0.0108198
0.138455
0.00868952
0.173626
0.00517956
0.226531
0.287832
0.0179661
0.00853449
-0.0219461
0.0138382
0.0196779
0.0116631
0.0364639
0.010582
0.0603658
0.00927822
0.0866051
0.0074435
0.113183
0.00499203
0.140906
0.00208389
0.176535
-0.000135091
0.22875
0.287697
0.0187938
0.0112845
-0.0215437
0.0148006
0.0236711
0.0118335
0.039431
0.0102837
0.0619156
0.00891426
0.0879746
0.00710282
0.114995
0.00468559
0.143324
0.00190503
0.179315
-0.000179901
0.230835
0.287517
0.0183752
0.0126493
-0.0197401
0.015302
0.0267443
0.0121792
0.0425538
0.010134
0.0639609
0.00852296
0.0895856
0.00670066
0.116817
0.00437489
0.145649
0.00172322
0.181967
-0.000215293
0.232773
0.287302
0.0170747
0.0131118
-0.0175372
0.0149461
0.0288728
0.0122244
0.0452755
0.0100347
0.0661506
0.00824338
0.0913769
0.00638085
0.11868
0.00412527
0.147905
0.00163277
0.184459
-0.000174517
0.23458
0.287128
0.0154156
0.0129344
-0.0152382
0.0140636
0.0302247
0.0118646
0.0474746
0.00980111
0.068214
0.0079913
0.0931867
0.00611713
0.120554
0.00390599
0.150116
0.00151006
0.186855
-0.000194477
0.236285
0.286933
0.0135701
0.0122181
-0.0128538
0.0128749
0.0309199
0.0111808
0.0491688
0.00936329
0.0700315
0.00767129
0.0948787
0.00588009
0.122345
0.00376072
0.152235
0.00148944
0.189127
-0.000128997
0.237903
0.286804
0.0116755
0.0110086
-0.0104659
0.0116079
0.0309875
0.0104354
0.0503413
0.0088827
0.0715842
0.00731555
0.0964458
0.00561376
0.124047
0.00358625
0.154263
0.0013971
0.191316
-0.000145724
0.239446
0.286658
0.00974786
0.00933774
-0.00807703
0.0101978
0.0305376
0.00952074
0.0510183
0.00832821
0.0727767
0.00696497
0.0978091
0.00539752
0.125614
0.00347906
0.156181
0.00141972
0.193375
-5.13445e-05
0.240917
0.286607
0.00822021
0.00703297
-0.00591545
0.00924616
0.0295116
0.00895732
0.0513072
0.0079588
0.0737752
0.00668638
0.0990815
0.00519324
0.127107
0.00334474
0.15803
0.00134857
0.195371
-6.68998e-05
0.242333
0.28654
0.00588787
-0.00330774
0.00772854
0.00821439
0.00765814
0.00658675
0.00514473
0.00338037
0.00142315
6.38901e-05
0.00471992
-0.0221148
-0.00455115
0.00428235
-0.0211062
0.00355813
-0.0190158
0.00275962
-0.0167387
0.00194026
-0.0144188
0.00111926
-0.0120328
0.000302231
-0.00964885
-0.000484603
-0.00729019
-0.00134433
-0.00505572
-0.00260856
0.00385404
-0.021948
-0.00402087
0.00319286
-0.020445
0.00235783
-0.0181808
0.00149392
-0.0158748
0.000629228
-0.0135541
-0.000222492
-0.0111811
-0.00106016
-0.00881119
-0.00186392
-0.00648643
-0.00268929
-0.00423035
-0.00197438
0.00285429
-0.0215011
-0.00330118
0.00200525
-0.019596
0.00108381
-0.0172594
0.000166535
-0.0149575
-0.00072511
-0.0126625
-0.00158984
-0.0103164
-0.0024232
-0.00797782
-0.00321018
-0.00569945
-0.00396454
-0.00347599
-0.00142977
0.00171891
-0.0208275
-0.00239257
0.000734606
-0.0186116
-0.000243957
-0.0162808
-0.00118887
-0.0140126
-0.00209299
-0.0117583
-0.00294935
-0.00946003
-0.00375464
-0.00717254
-0.0044949
-0.00495919
-0.00515516
-0.00281573
-0.000987996
0.000463647
-0.0199702
-0.00132086
-0.000604304
-0.0175437
-0.00160772
-0.0152774
-0.00255905
-0.0130612
-0.00344881
-0.0108686
-0.00427344
-0.0086354
-0.00502775
-0.00641822
-0.00569676
-0.00429019
-0.00624901
-0.00226347
-0.000651301
-0.0008701
-0.0189808
-0.000119307
-0.00198105
-0.0164327
-0.0029819
-0.0142765
-0.00391218
-0.012131
-0.0047647
-0.0100161
-0.00553628
-0.00786382
-0.00622033
-0.00573417
-0.00680078
-0.00370975
-0.00724051
-0.00182374
-0.000414581
-0.00224128
-0.0178752
0.00113564
-0.00335515
-0.0153189
-0.00432865
-0.013303
-0.00521628
-0.0112433
-0.00601257
-0.00921977
-0.00671441
-0.00716198
-0.00731498
-0.0051336
-0.00779804
-0.00322668
-0.00812882
-0.00149296
-0.000267605
-0.0035975
-0.0167028
0.00242509
-0.00468538
-0.014231
-0.00561301
-0.0123754
-0.00644124
-0.0104151
-0.00716785
-0.00849316
-0.0077893
-0.00654053
-0.00830017
-0.00462273
-0.00868526
-0.00284159
-0.00891697
-0.00126125
-0.000196945
-0.004894
-0.0155012
0.00369242
-0.00593495
-0.01319
-0.00680417
-0.0115062
-0.00756195
-0.00965732
-0.00821162
-0.00784349
-0.0087486
-0.00600355
-0.00917042
-0.0042009
-0.00946394
-0.00254808
-0.00961082
-0.00111436
-0.000187558
-0.00609308
-0.0143029
0.00489481
-0.00707369
-0.0122094
-0.00787796
-0.0107019
-0.00856005
-0.00897523
-0.00913164
-0.00727189
-0.00958623
-0.00554897
-0.00992567
-0.00386147
-0.0101393
-0.00233448
-0.0102181
-0.00103556
-0.000223897
-0.00716624
-0.0131336
0.00599688
-0.00807935
-0.0112963
-0.00881779
-0.00996348
-0.0094243
-0.00836872
-0.00992219
-0.00677401
-0.0103018
-0.00516935
-0.0105701
-0.00359312
-0.010719
-0.00218567
-0.0107474
-0.00100711
-0.000290596
-0.00809894
-0.0120116
0.00697699
-0.00894036
-0.0104549
-0.00961623
-0.00928761
-0.0101515
-0.00783341
-0.0105841
-0.00634149
-0.0108999
-0.00485348
-0.0111114
-0.00338167
-0.0112122
-0.00208479
-0.011208
-0.00101137
-0.000372824
-0.00888201
-0.0109491
0.00781944
-0.00965096
-0.00968595
-0.0102711
-0.00866752
-0.0107434
-0.00736109
-0.0111219
-0.005963
-0.011388
-0.00458733
-0.0115585
-0.00321117
-0.011629
-0.00201436
-0.0116089
-0.00103138
-0.000456431
-0.00951491
-0.00995087
0.00851672
-0.0102129
-0.008988
-0.0107861
-0.00809429
-0.0112064
-0.00694075
-0.0115438
-0.00562558
-0.0117758
-0.00435534
-0.0119218
-0.00306516
-0.011979
-0.00195716
-0.0119592
-0.00105121
-0.000527978
-0.0100029
-0.0090142
0.00906628
-0.0106331
-0.00835787
-0.011169
-0.00755837
-0.0115504
-0.00655935
-0.0118602
-0.00531577
-0.0120741
-0.00414144
-0.0122118
-0.00292746
-0.0122722
-0.00189674
-0.0122674
-0.00105601
-0.00057466
-0.010355
-0.00812734
0.00946815
-0.0109228
-0.00779007
-0.01143
-0.0070512
-0.0117868
-0.00620251
-0.0120821
-0.00502046
-0.0122938
-0.00392977
-0.0124387
-0.0027826
-0.0125178
-0.00181765
-0.0125419
-0.00103191
-0.000584206
-0.0105809
-0.0072691
0.00972266
-0.0110959
-0.00727505
-0.0115803
-0.00656679
-0.0119277
-0.00585512
-0.0122209
-0.00472727
-0.0124455
-0.00370515
-0.0126121
-0.00261603
-0.0127243
-0.00170541
-0.0127903
-0.000965885
-0.000544752
-0.0106834
-0.00641581
0.00983011
-0.011163
-0.00679543
-0.0116291
-0.00610075
-0.011983
-0.00550119
-0.0122864
-0.0044239
-0.0125385
-0.00345301
-0.0127407
-0.00241388
-0.0128998
-0.00154631
-0.0130203
-0.000845398
-0.000444685
-0.0106592
-0.00555463
0.00979806
-0.0111345
-0.00632017
-0.0115862
-0.00564909
-0.0119624
-0.00512492
-0.0122882
-0.00409812
-0.0125816
-0.00315963
-0.0128325
-0.00216295
-0.0130515
-0.00132732
-0.0132386
-0.000658277
-0.000272442
-0.0105514
-0.00466959
0.0096664
-0.011052
-0.00581957
-0.0114782
-0.0052229
-0.011879
-0.00472417
-0.0122364
-0.00374076
-0.0125811
-0.00281488
-0.0128939
-0.00185014
-0.0131857
-0.00103553
-0.0134529
-0.000391078
-1.69947e-05
-0.0473555
-0.0045479
0.0472338
-0.0484657
-0.00470937
-0.0496798
-0.0040088
-0.0508893
-0.00351465
-0.0519007
-0.0027293
-0.052687
-0.00202865
-0.0532212
-0.0013159
-0.0535218
-0.000734927
-0.0536348
-0.000278133
-2.07879e-05
-0.0562499
-0.00459268
0.0562946
-0.0569361
-0.00402317
-0.0576125
-0.00333239
-0.0583661
-0.00276105
-0.0589908
-0.00210458
-0.059479
-0.00154045
-0.0598024
-0.000992527
-0.0599733
-0.00056399
-0.0600297
-0.000221705
-2.54448e-05
-0.0672949
-0.00473172
0.067434
-0.0676101
-0.00370803
-0.0679455
-0.00299697
-0.0683855
-0.00232105
-0.0687356
-0.00175449
-0.0690325
-0.00124351
-0.0692129
-0.000812091
-0.06931
-0.000466979
-0.0693308
-0.000200806
-2.81117e-05
-0.0809017
-0.00481504
0.080985
-0.0810844
-0.0035253
-0.0812577
-0.00282365
-0.0815303
-0.00204847
-0.0817266
-0.00155817
-0.0819167
-0.00105347
-0.082018
-0.00071079
-0.0820831
-0.000401833
-0.082091
-0.000192865
-2.61191e-05
-0.0970014
-0.00467948
0.0968659
-0.0972195
-0.00330719
-0.0973922
-0.00265101
-0.0976166
-0.001824
-0.0977676
-0.00140725
-0.097923
-0.000898059
-0.0980042
-0.0006296
-0.0980736
-0.000332444
-0.0980928
-0.000173621
-1.36187e-05
-0.114528
-0.00423991
0.114089
-0.114891
-0.00294464
-0.115178
-0.00236391
-0.115435
-0.0015664
-0.11562
-0.00122228
-0.115785
-0.000733744
-0.115887
-0.000527417
-0.115979
-0.000239914
-0.116023
-0.000130343
6.42686e-06
-0.131557
-0.00348157
0.130799
-0.132106
-0.00239549
-0.132549
-0.00192091
-0.132874
-0.00124166
-0.133124
-0.000972049
-0.133308
-0.000549256
-0.133443
-0.000393327
-0.133545
-0.000137635
-0.133603
-7.21264e-05
2.50509e-05
-0.145932
-0.00246288
0.144913
-0.146646
-0.00168154
-0.147222
-0.001345
-0.147608
-0.000855759
-0.147911
-0.000668529
-0.148103
-0.000357403
-0.148248
-0.000248653
-0.14833
-5.58167e-05
-0.148378
-2.3462e-05
3.0628e-05
-0.15607
-0.00127343
0.15488
-0.156889
-0.000861668
-0.157546
-0.000688848
-0.157968
-0.000433704
-0.158297
-0.000338766
-0.158481
-0.000173907
-0.158612
-0.000117424
-0.158655
-1.2823e-05
-0.158676
-2.27728e-06
2.06531e-05
-0.161249
0.159975
-0.16211
-0.162799
-0.163233
-0.163572
-0.163745
-0.163863
-0.163876
-0.163878
-0.0108512
0.0482361
0.00984894
-0.0115959
0.0570393
-0.0121992
0.0680373
-0.0125205
0.0813063
-0.0123436
0.096689
-0.011427
0.113172
-0.00962513
0.128997
-0.00697045
0.142259
-0.00366354
0.151573
0.156312
-0.0103061
0.049008
0.00953416
-0.010999
0.0577322
-0.0115314
0.0685696
-0.0117678
0.0815428
-0.0115205
0.0964416
-0.0105861
0.112238
-0.00885638
0.127267
-0.00637916
0.139781
-0.00334064
0.148535
0.152971
-0.00978106
0.0497227
0.00906635
-0.0104077
0.0583589
-0.010861
0.0690229
-0.011022
0.0817038
-0.0107255
0.096145
-0.00979965
0.111312
-0.00815999
0.125627
-0.00585763
0.137479
-0.00306121
0.145738
0.14991
-0.00916447
0.050411
0.00847617
-0.00972893
0.0589233
-0.0101011
0.069395
-0.0101896
0.0817923
-0.00985337
0.0958088
-0.00895042
0.110409
-0.00741727
0.124094
-0.00530601
0.135368
-0.00276701
0.143199
0.147143
-0.00844188
0.0510642
0.0077887
-0.00894635
0.0594278
-0.00924522
0.0696939
-0.00927327
0.0818204
-0.00891323
0.0954488
-0.00805051
0.109546
-0.00663982
0.122683
-0.00473287
0.133461
-0.0024624
0.140929
0.14468
-0.0076317
0.0516726
0.00702329
-0.00807013
0.0598663
-0.00829956
0.0699233
-0.00827792
0.0817988
-0.00790966
0.0950805
-0.00710486
0.108741
-0.00583274
0.121411
-0.00414274
0.131771
-0.00215009
0.138936
0.14253
-0.00675106
0.052228
0.00619563
-0.00711931
0.0602345
-0.00728118
0.0700852
-0.00721789
0.0817355
-0.00685402
0.0947166
-0.00612187
0.108009
-0.00500201
0.120291
-0.00353964
0.130308
-0.0018322
0.137229
0.140698
-0.00581413
0.0527206
0.00532158
-0.0061116
0.060532
-0.00620882
0.0701824
-0.00611106
0.0816377
-0.00576175
0.0943673
-0.00511354
0.107361
-0.00415596
0.119334
-0.00292866
0.129081
-0.00151118
0.135811
0.139187
-0.00483686
0.0531393
0.0044181
-0.00506487
0.06076
-0.00510075
0.0702183
-0.00497521
0.0815122
-0.00464864
0.0940408
-0.00409268
0.106805
-0.00330389
0.118545
-0.00231567
0.128093
-0.00118983
0.134685
0.137997
-0.0038365
0.0534728
0.00350301
-0.00399851
0.060922
-0.00397535
0.0701951
-0.00382772
0.0813645
-0.00352979
0.0937428
-0.0030716
0.106347
-0.00245494
0.117928
-0.00170661
0.127345
-0.000871128
0.13385
0.137126
-0.00284009
0.0537144
0.00259849
-0.0029365
0.0610184
-0.00285539
0.070114
-0.00268946
0.0811986
-0.00242301
0.0934764
-0.00206478
0.105989
-0.00162001
0.117484
-0.00110866
0.126833
-0.000558648
0.1333
0.136567
-0.00186656
0.0538663
0.00171471
-0.00189281
0.0610446
-0.00175938
0.0699806
-0.00157566
0.0810149
-0.00134154
0.0932423
-0.00108149
0.105729
-0.000805284
0.117207
-0.000526602
0.126555
-0.000254732
0.133028
0.136313
-0.000946404
0.0539427
0.000869926
-0.000892415
0.0609907
-0.000717938
0.0698061
-0.000516179
0.0808131
-0.000316892
0.093043
-0.000152715
0.105564
-4.09047e-05
0.117096
1.73446e-05
0.126496
2.94736e-05
0.133016
0.136342
-0.000118006
0.0539968
6.39066e-05
3.04159e-05
0.0608422
0.000253967
0.0695826
0.000490211
0.0805769
0.000670084
0.0928631
0.000752716
0.105482
0.000716073
0.117132
0.000560822
0.126652
0.000311231
0.133265
0.136653
0.000716754
0.0539556
-0.000675521
0.000936445
0.0606225
0.00119871
0.0693203
0.0014475
0.0803281
0.00160079
0.0927098
0.0016007
0.105482
0.00141938
0.117314
0.00106333
0.127008
0.000572475
0.133756
0.137226
0.00146618
0.0538534
-0.00136401
0.0017504
0.0603383
0.0020518
0.0690189
0.00232009
0.0800598
0.00245367
0.0925762
0.00238142
0.105554
0.00206876
0.117626
0.00152758
0.127549
0.000813132
0.134471
0.138039
0.00213323
0.0537182
-0.00199801
0.00248083
0.0599907
0.0028167
0.068683
0.00310497
0.0797715
0.00322493
0.0924563
0.00309149
0.105688
0.00266181
0.118056
0.00195214
0.128258
0.00103249
0.13539
0.139071
0.00272586
0.0535791
-0.00258669
0.00312617
0.0595904
0.00349
0.0683192
0.00379433
0.0794672
0.00390331
0.0923473
0.00371775
0.105873
0.0031858
0.118588
0.00232705
0.129117
0.00122499
0.136492
0.140296
0.0032568
0.0534669
-0.00314466
0.00369316
0.059154
0.00408423
0.0679281
0.00440542
0.079146
0.00451023
0.0922425
0.00428279
0.1061
0.00366056
0.11921
0.00266632
0.130111
0.00139786
0.137761
0.141694
0.00365633
0.0534739
-0.00366335
0.00408877
0.0587216
0.00450494
0.067512
0.0048345
0.0788165
0.00493556
0.0921414
0.00468093
0.106355
0.0039973
0.119894
0.00290703
0.131202
0.00151756
0.13915
0.143212
-0.0349079
0.0493775
0.0390043
-0.0317603
0.0555741
-0.0296638
0.0654154
-0.0274267
0.0765794
-0.0247088
0.0894235
-0.0212148
0.102861
-0.0168422
0.115521
-0.0116911
0.126051
-0.00598316
0.133442
0.137229
-0.042885
0.0457785
0.046484
-0.0399617
0.0526508
-0.0372918
0.0627455
-0.0342211
0.0735087
-0.0306154
0.0858178
-0.0261047
0.0983504
-0.0206162
0.110033
-0.0142707
0.119705
-0.00731948
0.126491
0.129909
-0.0518468
0.0423617
0.0552636
-0.0488463
0.0496502
-0.0455427
0.0594419
-0.0416249
0.0695909
-0.0369621
0.0811551
-0.0312091
0.0925973
-0.024427
0.103251
-0.0167724
0.11205
-0.00850158
0.11822
0.121408
-0.0625975
0.0390935
0.0658657
-0.0591178
0.0461706
-0.0550116
0.0553357
-0.05013
0.0647093
-0.0442518
0.0752768
-0.0370904
0.085436
-0.0288457
0.095006
-0.0197245
0.102929
-0.0100444
0.10854
0.111363
-0.0746166
0.0352813
0.0784288
-0.0703203
0.0418742
-0.0651548
0.0501703
-0.0589364
0.0584909
-0.0514391
0.0677795
-0.0425567
0.0765536
-0.0326464
0.0850957
-0.0219529
0.0922356
-0.0108926
0.0974801
0.10047
-0.088352
0.031455
0.0921783
-0.0829585
0.0364807
-0.0765509
0.0437627
-0.0688041
0.0507441
-0.0596151
0.0585905
-0.0490593
0.0659978
-0.03745
0.0734863
-0.0250945
0.0798801
-0.0126816
0.0850672
0.0877889
-0.10143
0.0257851
0.1071
-0.0948564
0.0299073
-0.0869415
0.0358478
-0.0772059
0.0410085
-0.0659626
0.0473472
-0.0532421
0.0532772
-0.0394091
0.0596533
-0.024972
0.065443
-0.0111248
0.07122
0.0766641
-0.115249
0.0202549
0.120779
-0.107587
0.0222459
-0.0983697
0.0266303
-0.0873605
0.0299993
-0.0749234
0.0349102
-0.060898
0.0392518
-0.0457897
0.044545
-0.0301131
0.0497664
-0.0158941
0.057001
0.06077
-0.129647
0.00986685
0.140035
-0.118627
0.0112257
-0.105617
0.0136206
-0.0910482
0.0154305
-0.0743865
0.0182485
-0.0559541
0.0208195
-0.0356965
0.0242874
-0.0145524
0.0286222
0.00493943
0.0375092
0.0657094
-0.235473
0.24534
-0.224247
-0.210627
-0.195196
-0.176948
-0.156128
-0.131841
-0.103219
-0.0657094
0.00200854
0.0403741
-0.00337842
0.000776135
0.0477164
-0.000193174
0.0562329
-0.000826023
0.0664986
-0.00121309
0.0788159
-0.00135721
0.0923224
-0.00113508
0.106878
-0.000846679
0.12049
-0.0016365
0.140825
0.243703
0.00233614
0.0416967
-0.00365872
0.00113165
0.0489209
0.000173409
0.0571912
-0.000507309
0.0671793
-0.000931877
0.0792404
-0.00110795
0.0924985
-0.000959403
0.106729
-0.000725857
0.120257
-0.00143988
0.141539
0.242263
0.0027299
0.042918
-0.00395116
0.00156537
0.0500854
0.000637886
0.0581187
-8.63224e-05
0.0679035
-0.00051281
0.0796669
-0.000730567
0.0927162
-0.000641283
0.10664
-0.000516283
0.120132
-0.00124081
0.142263
0.241023
0.00312663
0.0440383
-0.00424691
0.00200926
0.0512028
0.00111364
0.0590143
0.000413958
0.0686032
-4.77012e-05
0.0801286
-0.00030287
0.0929714
-0.000249759
0.106587
-0.000258109
0.12014
-0.000985653
0.142991
0.240037
0.0035177
0.0450535
-0.00453295
0.00246568
0.0522548
0.00161125
0.0598687
0.000943387
0.0692711
0.000490421
0.0805815
0.000184706
0.0932771
0.000184602
0.106587
3.87085e-05
0.120286
-0.000685278
0.143715
0.239352
0.00391528
0.0459375
-0.00479928
0.00295001
0.0532201
0.0021451
0.0606736
0.00151217
0.069904
0.00106718
0.0810265
0.000760301
0.093584
0.000658368
0.106689
0.000460917
0.120484
-0.000344424
0.14452
0.239007
0.0043187
0.0466581
-0.00503926
0.00346041
0.0540784
0.00271463
0.0614194
0.00212228
0.0704963
0.00168766
0.0814611
0.00136682
0.0939048
0.0011845
0.106871
0.000895511
0.120773
3.72036e-05
0.145379
0.239045
0.00472315
0.047182
-0.00524711
0.003988
0.0548135
0.00331134
0.0620961
0.00276595
0.0710417
0.00234604
0.0818811
0.00201005
0.0942408
0.00175105
0.10713
0.00136239
0.121161
0.000408641
0.146332
0.239453
0.00511971
0.0474786
-0.0054163
0.00452255
0.0554107
0.0039251
0.0626935
0.00343304
0.0715338
0.0030339
0.0822802
0.00268331
0.0945914
0.00234997
0.107463
0.00185989
0.121651
0.00081846
0.147374
0.240272
0.0054965
0.0475218
-0.00553967
0.0050525
0.0558547
0.00454513
0.0632009
0.00411271
0.0719662
0.00374123
0.0826517
0.00337694
0.0949557
0.00297305
0.107867
0.00238187
0.122242
0.00124889
0.148507
0.241521
0.00583663
0.047293
-0.00560785
0.00556131
0.05613
0.00515656
0.0636056
0.00478928
0.0723335
0.00445154
0.0829894
0.0040773
0.0953299
0.00360841
0.108336
0.00291866
0.122932
0.00169097
0.149734
0.243211
0.00613272
0.0467839
-0.00562364
0.00604206
0.0562207
0.00575141
0.0638963
0.00545545
0.0726295
0.00515726
0.0832876
0.00477863
0.0957085
0.00425064
0.108864
0.00346613
0.123717
0.00214162
0.151059
0.245353
0.00636836
0.0460003
-0.00558473
0.00647729
0.0561117
0.00631053
0.0640631
0.00609271
0.0728473
0.00584045
0.0835399
0.00546531
0.0960837
0.00488616
0.109443
0.00401385
0.124589
0.00259366
0.152479
0.247947
0.00653322
0.0449633
-0.00549629
0.00685284
0.0557921
0.00681891
0.064097
0.00668605
0.0729801
0.00648657
0.0837394
0.00612419
0.0964461
0.00550374
0.110064
0.00455325
0.125539
0.00304074
0.153992
0.250988
0.0066206
0.0437111
-0.00536832
0.00715667
0.055256
0.00726279
0.0639909
0.00722113
0.0730218
0.00708181
0.0838787
0.00674229
0.0967856
0.0060925
0.110714
0.00507597
0.126556
0.00347682
0.155591
0.254464
0.0066296
0.0422972
-0.0052157
0.00737973
0.0545059
0.00763034
0.0637403
0.00768498
0.0729671
0.0076134
0.0839503
0.00730684
0.0970921
0.00664141
0.111379
0.00557358
0.127624
0.00389384
0.15727
0.258358
0.00656775
0.040785
-0.00505562
0.00751704
0.0535566
0.00791211
0.0633452
0.00806709
0.0728122
0.00807016
0.0839472
0.00780769
0.0973546
0.00714233
0.112044
0.00604027
0.128726
0.00428713
0.159024
0.262645
0.00644924
0.0392343
-0.00489846
0.00756738
0.0524385
0.00810278
0.0628098
0.00835826
0.0725567
0.00843918
0.0838663
0.00823001
0.0975638
0.00758015
0.112694
0.00646465
0.129841
0.00464399
0.160844
0.267289
0.00626971
0.0376818
-0.00471723
0.00752454
0.0511837
0.00820436
0.06213
0.00856465
0.0721964
0.00872954
0.0837014
0.00858514
0.0977082
0.0079651
0.113314
0.00685505
0.130951
0.00496951
0.16273
0.272259
0.00600537
0.0360651
-0.00438866
0.00732619
0.0498628
0.0081433
0.0613129
0.00860317
0.0717365
0.00885658
0.083448
0.00878644
0.0977783
0.00822784
0.113873
0.00714424
0.132035
0.00526042
0.164614
0.277519
-0.0157846
0.0362325
0.0156171
-0.014188
0.0482663
-0.0117799
0.0589047
-0.00895333
0.0689099
-0.00599224
0.0804869
-0.0028116
0.0945977
0.00044411
0.110617
0.00283023
0.129649
0.00201156
0.165432
0.279531
-0.0283931
0.0350794
0.0295463
-0.0259088
0.045782
-0.0222701
0.0552661
-0.0180692
0.064709
-0.0136036
0.0760212
-0.00874436
0.0897385
-0.00376094
0.105634
7.90502e-05
0.125809
0.000757199
0.164754
0.280288
-0.0422178
0.0330547
0.0442425
-0.0385947
0.0421589
-0.0335764
0.0502478
-0.0280017
0.0591343
-0.0220065
0.0700261
-0.015349
0.083081
-0.00841423
0.0986989
-0.00262969
0.120024
-0.000433533
0.162558
0.279854
-0.0572213
0.0301182
0.0601578
-0.0521855
0.0371231
-0.0459736
0.0440358
-0.0391458
0.0523065
-0.0315039
0.0623842
-0.0228692
0.0744463
-0.0138621
0.0896917
-0.00608756
0.11225
-0.00202594
0.158496
0.277828
-0.0735721
0.0257896
0.0779008
-0.0673017
0.0308527
-0.0602649
0.0369991
-0.0521132
0.0441548
-0.0426825
0.0529534
-0.0320463
0.0638101
-0.020944
0.0785895
-0.0109519
0.102258
-0.00436147
0.151906
0.273467
-0.091885
0.0208483
0.0968262
-0.0847668
0.0237345
-0.0768153
0.0290475
-0.0671637
0.0345033
-0.0560752
0.0418649
-0.0436105
0.0513454
-0.0306577
0.0656367
-0.0184058
0.090006
-0.00865139
0.142151
0.264816
-0.113202
0.0143009
0.119749
-0.105635
0.016168
-0.0969693
0.0203814
-0.0864858
0.0240197
-0.0746835
0.0300627
-0.0612277
0.0378896
-0.0469168
0.0513257
-0.0322716
0.0753608
-0.017642
0.127522
0.247174
-0.143945
0.00751231
0.150733
-0.135974
0.00819729
-0.126654
0.0110612
-0.115859
0.013225
-0.103631
0.0178348
-0.0898083
0.0240668
-0.0746102
0.0361276
-0.057763
0.0585136
-0.0358568
0.105616
0.211317
-0.201763
0.00178845
0.207487
-0.195797
0.00223094
-0.188216
0.0034803
-0.179839
0.00484849
-0.169583
0.00757844
-0.157366
0.0118497
-0.141213
0.0199747
-0.117514
0.0348143
-0.0763654
0.0644672
0.134951
-0.284196
0.285984
-0.281965
-0.278484
-0.273636
-0.266057
-0.254208
-0.234233
-0.199419
-0.134951
0.00204399
0.0163927
-0.00281958
0.000587797
0.0310025
-0.000943782
0.045774
-0.00232723
0.0615412
-0.00345175
0.0790253
-0.00439417
0.0977687
-0.00504503
0.1204
-0.00555849
0.151247
-0.00478502
0.206714
0.281199
0.00177659
0.016847
-0.00223096
0.000609569
0.0321695
-0.000777514
0.0471611
-0.00210204
0.0628657
-0.00321489
0.0801381
-0.00414445
0.0986982
-0.00480233
0.121058
-0.00533505
0.151779
-0.00429948
0.205678
0.2769
0.00160144
0.0170566
-0.00181095
0.000712535
0.0330584
-0.000498538
0.0483722
-0.00171071
0.0640779
-0.00276885
0.0811963
-0.00366827
0.0995976
-0.00434826
0.121738
-0.0048468
0.152278
-0.00393283
0.204764
0.272967
0.00150788
0.0170594
-0.00151077
0.000883073
0.0336832
-0.000152219
0.0494075
-0.00123332
0.065159
-0.00221704
0.08218
-0.00309046
0.100471
-0.00378343
0.122431
-0.00428733
0.152782
-0.00351507
0.203992
0.269452
0.00148966
0.0168676
-0.00129782
0.00113
0.0340429
0.000302132
0.0502354
-0.000672485
0.0661336
-0.00158006
0.0830876
-0.0024261
0.101317
-0.00313513
0.12314
-0.00366354
0.15331
-0.00305221
0.20338
0.266399
0.00154167
0.016483
-0.0011571
0.00145539
0.0341291
0.000847492
0.0508433
-3.80928e-05
0.0670192
-0.000846636
0.0838961
-0.00167233
0.102143
-0.00240206
0.12387
-0.002975
0.153883
-0.00255117
0.202957
0.263848
0.0016571
0.0159077
-0.00108177
0.00185262
0.0339336
0.00147215
0.0512237
0.00076684
0.0677245
-1.66441e-05
0.0846796
-0.000834699
0.102961
-0.00158076
0.124616
-0.00222575
0.154528
-0.00201826
0.202749
0.26183
0.00182695
0.0151501
-0.00106937
0.00231089
0.0334497
0.00216676
0.0513679
0.00161872
0.0682726
0.000902951
0.0853954
5.70913e-05
0.103807
-0.000670825
0.125344
-0.00142748
0.155285
-0.0014582
0.20278
0.260372
0.00204136
0.0142299
-0.00112109
0.00281556
0.0326755
0.00291736
0.0512661
0.00253084
0.0686591
0.00189155
0.0860347
0.00110784
0.10459
0.000302478
0.126149
-0.000598962
0.156186
-0.000873188
0.203054
0.259499
0.00229114
-0.00124181
0.00334879
0.00370935
0.00349164
0.00293286
0.00216382
0.00127878
0.000271713
-0.000259908
0.000161607
-0.00128517
0.000469166
-0.00296808
0.000861086
-0.00409366
0.00130304
-0.00480815
0.00177664
-0.00521762
0.00227342
-0.00540189
0.00279151
-0.00542194
0.00333425
-0.00532425
0.00391209
-0.00514476
-0.00491487
0.000163649
-0.00144882
0.000463553
-0.00326798
0.000834418
-0.00446452
0.00124126
-0.00521498
0.00166662
-0.00564298
0.00210371
-0.00583899
0.00255229
-0.00587052
0.00301633
-0.00578829
0.00350293
-0.00563136
-0.00543281
0.000157929
-0.00160675
0.00043425
-0.0035443
0.000762851
-0.00479312
0.0011101
-0.00556223
0.00146104
-0.00599391
0.00181177
-0.00618973
0.00216483
-0.00622358
0.00252618
-0.00614963
0.00290297
-0.00600815
-0.00583101
0.000143739
-0.00175048
0.000380182
-0.00378075
0.000645905
-0.00505884
0.000910878
-0.00582721
0.00116406
-0.00624709
0.00140529
-0.00643096
0.00164029
-0.00645857
0.00187741
-0.00638675
0.0021255
-0.00625624
-0.00609809
0.000120811
-0.00187129
0.000301682
-0.00396162
0.000485852
-0.00524301
0.000649198
-0.00599055
0.000785814
-0.00638371
0.000899726
-0.00654487
0.000999766
-0.00655861
0.00109634
-0.00648333
0.00119944
-0.00635934
-0.00621951
8.93673e-05
-0.00196066
0.000200508
-0.00407276
0.000287529
-0.00533003
0.000334372
-0.0060374
0.000341149
-0.00639049
0.000316115
-0.00651984
0.000270799
-0.0065133
0.000217259
-0.00642979
0.000165963
-0.00630804
-0.00617285
5.01582e-05
-0.00201082
7.97219e-05
-0.00410232
5.7923e-05
-0.00530824
-2.1523e-05
-0.00595795
-0.000152007
-0.00626
-0.00032134
-0.00635051
-0.00051597
-0.00631867
-0.000723475
-0.00622228
-0.000933686
-0.00609783
-0.0059709
3.9499e-06
-0.00201477
-5.64386e-05
-0.00404193
-0.000194398
-0.00517028
-0.000404704
-0.00574764
-0.00067428
-0.00599043
-0.000987655
-0.00603713
-0.00133018
-0.00597614
-0.00168971
-0.00586275
-0.00205683
-0.00573071
-0.00560265
-4.68023e-05
-0.00196797
-0.000203038
-0.0038857
-0.000459985
-0.00491333
-0.00080078
-0.00540685