/*--------------------------------*- C++ -*----------------------------------*\
  =========                 |
  \\      /  F ield         | OpenFOAM: The Open Source CFD Toolbox
   \\    /   O peration     | Website:  https://openfoam.org
    \\  /    A nd           | Version:  7
     \\/     M anipulation  |
\*---------------------------------------------------------------------------*/
FoamFile
{
    version     2.0;
    format      ascii;
    class       volScalarField;
    location    "5.7";
    object      p;
}
// * * * * * * * * * * * * * * * * * * * * * * * * * * * * * * * * * * * * * //

dimensions      [0 2 -2 0 0 0 0];

internalField   nonuniform List<scalar> 
18000
(
0.714861
0.714858
0.714951
0.715075
0.715269
0.715568
0.716031
0.716716
0.717661
0.718886
0.720399
0.722206
0.724311
0.726714
0.729397
0.732335
0.735497
0.738855
0.742377
0.74603
0.749777
0.753579
0.757403
0.761219
0.765
0.768725
0.772374
0.775937
0.779391
0.782633
0.714078
0.713999
0.714067
0.714173
0.714358
0.714647
0.7151
0.715768
0.716685
0.717871
0.719335
0.721076
0.723098
0.725398
0.727959
0.730759
0.733772
0.736966
0.740312
0.743775
0.747323
0.75092
0.754533
0.758134
0.761699
0.765207
0.768641
0.771994
0.775241
0.778303
0.713271
0.713122
0.713166
0.713257
0.713437
0.713726
0.714179
0.714838
0.715733
0.716886
0.718304
0.719984
0.721925
0.724123
0.726564
0.729227
0.732087
0.735114
0.738277
0.741545
0.744887
0.748269
0.751661
0.755038
0.758376
0.761657
0.764866
0.767995
0.77102
0.773887
0.712421
0.712208
0.712238
0.712321
0.712504
0.712802
0.713262
0.713921
0.714803
0.715929
0.717304
0.718927
0.72079
0.722889
0.725209
0.727734
0.730439
0.733294
0.73627
0.739336
0.742464
0.745623
0.748787
0.75193
0.755031
0.758074
0.761046
0.763939
0.766726
0.769381
0.711551
0.711283
0.7113
0.71138
0.711571
0.711883
0.712354
0.713016
0.713891
0.714994
0.716333
0.717899
0.719686
0.721686
0.723888
0.726275
0.728824
0.731504
0.734286
0.737144
0.740052
0.742981
0.745907
0.748808
0.751663
0.754458
0.757181
0.759825
0.762365
0.764791
0.710652
0.710331
0.71034
0.710422
0.710626
0.710956
0.711444
0.712116
0.71299
0.714077
0.715381
0.716893
0.718605
0.72051
0.722596
0.724847
0.727237
0.729737
0.732322
0.734967
0.737648
0.740341
0.743023
0.745673
0.748274
0.75081
0.753273
0.755657
0.757938
0.760122
0.709726
0.709359
0.709364
0.709452
0.709671
0.710024
0.710533
0.71122
0.712099
0.713174
0.714446
0.715906
0.717545
0.719357
0.72133
0.723444
0.725673
0.72799
0.730374
0.732802
0.735253
0.737703
0.740134
0.742527
0.744864
0.747133
0.749326
0.751441
0.753453
0.755382
0.708768
0.708364
0.708368
0.708465
0.708703
0.709081
0.709616
0.710325
0.711211
0.712278
0.713521
0.714931
0.716501
0.718223
0.720084
0.722061
0.724127
0.72626
0.72844
0.730647
0.732863
0.735067
0.737241
0.73937
0.741438
0.743432
0.745347
0.747184
0.748921
0.750583
0.707776
0.707345
0.707348
0.707458
0.707717
0.708124
0.70869
0.709423
0.710322
0.711383
0.712599
0.713963
0.715467
0.717103
0.718853
0.720691
0.722595
0.724542
0.726516
0.728501
0.730478
0.732432
0.734347
0.736207
0.737999
0.739712
0.741344
0.742898
0.744356
0.74574
0.706746
0.706296
0.706302
0.706426
0.706709
0.707148
0.707748
0.708509
0.709424
0.710482
0.711676
0.712998
0.71444
0.715991
0.71763
0.719331
0.721073
0.722835
0.724602
0.726362
0.7281
0.729802
0.731454
0.733041
0.734554
0.735983
0.737329
0.738597
0.739773
0.740871
0.705677
0.705216
0.705227
0.705367
0.705676
0.70615
0.706787
0.707579
0.708511
0.709571
0.710746
0.71203
0.713413
0.714881
0.716411
0.717977
0.719558
0.721135
0.722696
0.724231
0.725729
0.727177
0.728564
0.729877
0.731109
0.732254
0.733312
0.734293
0.735189
0.735996
0.704565
0.704102
0.70412
0.704278
0.704616
0.705126
0.705802
0.706628
0.70758
0.708643
0.709804
0.711054
0.712381
0.713768
0.715191
0.716625
0.718047
0.719441
0.720797
0.722108
0.723367
0.724562
0.725683
0.726722
0.727673
0.728534
0.729306
0.730002
0.730623
0.731138
0.703409
0.70295
0.702978
0.703156
0.703526
0.704075
0.704791
0.705651
0.706626
0.707696
0.708845
0.710063
0.711338
0.712648
0.713967
0.71527
0.716536
0.71775
0.718905
0.719995
0.721016
0.721959
0.722817
0.723582
0.724255
0.724834
0.725323
0.72574
0.726094
0.726321
0.702207
0.701757
0.701798
0.701999
0.702401
0.702991
0.703749
0.704644
0.705644
0.706722
0.707862
0.709053
0.710278
0.711514
0.712734
0.71391
0.715023
0.71606
0.717017
0.717891
0.718678
0.719373
0.71997
0.720466
0.720864
0.721166
0.721379
0.721522
0.721622
0.721572
0.700956
0.700522
0.700577
0.700802
0.70124
0.701871
0.702671
0.703604
0.704629
0.705717
0.706851
0.708017
0.709197
0.710363
0.711485
0.712538
0.713503
0.714369
0.715134
0.715797
0.716357
0.716808
0.717149
0.717381
0.717509
0.717543
0.717486
0.717368
0.717227
0.716915
0.699658
0.699242
0.699313
0.699565
0.700039
0.700713
0.701556
0.702525
0.703577
0.704678
0.705808
0.706953
0.70809
0.709188
0.710218
0.711152
0.711974
0.712675
0.713255
0.713715
0.714053
0.714268
0.71436
0.714334
0.714202
0.713975
0.713661
0.713293
0.712928
0.712373
0.698311
0.697916
0.698004
0.698284
0.698796
0.699513
0.700399
0.701405
0.702484
0.703599
0.704729
0.705855
0.706952
0.707986
0.708927
0.709747
0.710432
0.710976
0.711379
0.711644
0.711769
0.711755
0.711606
0.711333
0.710951
0.710475
0.709918
0.709314
0.708742
0.707967
0.696914
0.696541
0.696649
0.696959
0.697509
0.698268
0.699197
0.70024
0.701347
0.702477
0.703609
0.70472
0.705779
0.706753
0.707607
0.708319
0.708874
0.709268
0.709504
0.709582
0.709503
0.709271
0.708892
0.708383
0.707763
0.707054
0.706267
0.705444
0.704682
0.703714
0.695468
0.695117
0.695246
0.695588
0.696176
0.696978
0.697948
0.699028
0.700162
0.701311
0.702447
0.703544
0.704568
0.705483
0.706256
0.706864
0.707296
0.707549
0.707625
0.707526
0.707254
0.706814
0.706218
0.705486
0.704645
0.703717
0.702719
0.701692
0.700756
0.699624
0.693972
0.693642
0.693793
0.694168
0.694797
0.69564
0.696649
0.697765
0.698928
0.700097
0.701239
0.702324
0.703315
0.704172
0.704867
0.705377
0.705692
0.705812
0.705738
0.705471
0.705016
0.70438
0.70358
0.702642
0.701595
0.700466
0.699275
0.698063
0.696969
0.695699
0.692424
0.692114
0.692288
0.692699
0.693367
0.694251
0.6953
0.69645
0.697643
0.698832
0.699982
0.701055
0.702013
0.702815
0.703434
0.703851
0.704056
0.70405
0.703833
0.703408
0.70278
0.701961
0.700972
0.699843
0.698607
0.697296
0.695931
0.694553
0.693318
0.691937
0.690823
0.69053
0.690729
0.691177
0.691886
0.692811
0.693898
0.695082
0.696303
0.697513
0.69867
0.699732
0.700656
0.701405
0.701951
0.702278
0.702379
0.702252
0.7019
0.701325
0.700534
0.699543
0.698378
0.697074
0.695666
0.69419
0.692671
0.691149
0.689789
0.688324
0.689166
0.68889
0.689115
0.689599
0.69035
0.691316
0.69244
0.693657
0.694906
0.696136
0.697299
0.698347
0.699238
0.699934
0.700409
0.70065
0.700649
0.700406
0.699923
0.699205
0.698259
0.697107
0.695779
0.694313
0.692749
0.691125
0.689472
0.687827
0.686363
0.684842
0.687452
0.68719
0.687442
0.687965
0.688757
0.689764
0.690925
0.692174
0.69345
0.694697
0.695863
0.696896
0.697751
0.698393
0.698799
0.698954
0.698853
0.698497
0.697887
0.69703
0.695936
0.694631
0.693148
0.691531
0.689823
0.688066
0.686296
0.684551
0.683008
0.681464
0.685679
0.68543
0.685709
0.68627
0.687104
0.688151
0.689348
0.690628
0.691929
0.693191
0.694355
0.695369
0.696186
0.696773
0.697107
0.697177
0.696976
0.696507
0.695772
0.694778
0.69354
0.692086
0.690455
0.688693
0.686849
0.68497
0.683098
0.681274
0.679678
0.678154
0.683842
0.683607
0.683913
0.684514
0.685389
0.686475
0.687707
0.689016
0.690339
0.691611
0.69277
0.693759
0.694534
0.695062
0.695323
0.695305
0.695003
0.694419
0.693558
0.692427
0.691046
0.689444
0.687665
0.68576
0.683783
0.681786
0.679819
0.677933
0.676312
0.67486
0.681938
0.681717
0.682053
0.682693
0.683609
0.684734
0.685998
0.687334
0.688675
0.689953
0.691099
0.692058
0.692785
0.693249
0.693432
0.693322
0.692915
0.692214
0.691223
0.689954
0.688426
0.686674
0.684745
0.682692
0.680575
0.678454
0.676391
0.674448
0.672824
0.671502
0.679962
0.679758
0.680125
0.680807
0.681764
0.682925
0.684218
0.685578
0.686932
0.688207
0.689334
0.690255
0.690927
0.691322
0.691421
0.691213
0.690696
0.689871
0.688747
0.687334
0.685656
0.683749
0.681661
0.67945
0.677178
0.674912
0.672729
0.670718
0.669106
0.667983
0.677909
0.677727
0.678129
0.678853
0.67985
0.681044
0.682364
0.683742
0.685102
0.686368
0.687466
0.68834
0.688949
0.689266
0.689273
0.68896
0.688326
0.687373
0.686109
0.684549
0.682715
0.680646
0.67839
0.676004
0.673548
0.671091
0.668722
0.66657
0.664966
0.664162
0.675779
0.675624
0.676063
0.67683
0.677866
0.67909
0.680432
0.681821
0.68318
0.684426
0.685486
0.686304
0.68684
0.687069
0.686975
0.686549
0.68579
0.684702
0.683294
0.681581
0.679588
0.677353
0.674922
0.672344
0.669668
0.666948
0.664244
0.661667
0.659582
0.658545
0.792825
0.806704
0.815625
0.823396
0.828487
0.832559
0.8353
0.837189
0.838331
0.838912
0.839016
0.838711
0.838066
0.83714
0.835971
0.834574
0.833002
0.831286
0.829418
0.827403
0.825242
0.822936
0.820507
0.817974
0.815337
0.812647
0.809929
0.807296
0.80502
0.803417
0.788181
0.801947
0.811026
0.819081
0.824428
0.828687
0.831566
0.833584
0.834826
0.835474
0.835627
0.835391
0.834806
0.833935
0.832796
0.831446
0.829915
0.828226
0.82639
0.824406
0.822263
0.819983
0.817566
0.815041
0.812415
0.809724
0.80701
0.804374
0.802079
0.800466
0.783384
0.79707
0.806321
0.814695
0.820322
0.824789
0.827821
0.829974
0.831318
0.832036
0.83224
0.832071
0.831544
0.830726
0.829622
0.82832
0.826832
0.825172
0.823369
0.821419
0.819297
0.817046
0.814645
0.812132
0.809524
0.806836
0.804129
0.801494
0.79918
0.797556
0.778407
0.792068
0.801521
0.810238
0.816159
0.820867
0.824073
0.826356
0.827798
0.828597
0.828867
0.828753
0.828279
0.827509
0.826455
0.825198
0.823751
0.822129
0.820357
0.818437
0.816345
0.814119
0.811744
0.809252
0.806661
0.803987
0.801287
0.798652
0.796325
0.794684
0.773258
0.786935
0.796611
0.805707
0.811948
0.816924
0.820319
0.822734
0.824274
0.825158
0.8255
0.825437
0.825015
0.82429
0.823292
0.82208
0.820673
0.819093
0.817354
0.815464
0.813407
0.811206
0.808861
0.806396
0.803825
0.801173
0.798483
0.795849
0.793514
0.79185
0.767944
0.781669
0.79158
0.801102
0.807696
0.812959
0.816557
0.819112
0.820754
0.82172
0.822134
0.822123
0.821754
0.821076
0.820131
0.818965
0.817599
0.816061
0.814359
0.812501
0.810481
0.808311
0.805998
0.803564
0.801018
0.798391
0.795714
0.793086
0.790744
0.789056
0.762465
0.776269
0.786425
0.796421
0.803401
0.808974
0.812787
0.815489
0.817237
0.818286
0.818771
0.818812
0.818497
0.817867
0.816972
0.815855
0.81453
0.813035
0.811373
0.80955
0.807568
0.805433
0.803155
0.800755
0.798239
0.795641
0.792981
0.79036
0.788014
0.786303
0.756828
0.770737
0.781147
0.791661
0.799065
0.804968
0.809012
0.811867
0.813726
0.814855
0.815411
0.815506
0.815245
0.814664
0.813818
0.812751
0.81147
0.810017
0.808396
0.806611
0.804668
0.802572
0.800333
0.79797
0.795487
0.792921
0.790284
0.787673
0.785325
0.783591
0.751043
0.765078
0.775751
0.786824
0.794686
0.800944
0.805231
0.808247
0.810219
0.81143
0.812056
0.812206
0.811999
0.811467
0.810671
0.809654
0.808417
0.807007
0.805428
0.803684
0.801782
0.799729
0.797531
0.795209
0.792763
0.790233
0.787623
0.785025
0.782676
0.780921
0.745126
0.759303
0.770243
0.78191
0.790264
0.796901
0.801447
0.804631
0.806718
0.808013
0.808708
0.808914
0.80876
0.808279
0.807532
0.806564
0.805374
0.804007
0.802471
0.800769
0.798911
0.796902
0.79475
0.792472
0.790067
0.787574
0.784997
0.782417
0.780068
0.778293
0.7391
0.753427
0.764631
0.776923
0.785803
0.79284
0.797658
0.801018
0.803225
0.804605
0.805368
0.80563
0.80553
0.8051
0.804402
0.803484
0.802339
0.801016
0.799524
0.797866
0.796054
0.794092
0.791988
0.789758
0.787397
0.784945
0.782405
0.779847
0.777501
0.775707
0.732993
0.747471
0.758932
0.771866
0.781302
0.788762
0.793868
0.797412
0.799742
0.801208
0.802039
0.802358
0.80231
0.80193
0.801281
0.800412
0.799314
0.798036
0.796587
0.794975
0.793212
0.791298
0.789246
0.787066
0.784754
0.782347
0.779847
0.777317
0.774977
0.773165
0.72684
0.74146
0.753162
0.766748
0.776766
0.784667
0.790078
0.793813
0.79627
0.797824
0.798722
0.799097
0.799101
0.798772
0.798171
0.79735
0.796299
0.795065
0.793662
0.792097
0.790385
0.788521
0.786522
0.784396
0.782137
0.779779
0.777325
0.774826
0.772496
0.770667
0.72068
0.735425
0.747345
0.761577
0.772199
0.780557
0.786287
0.790222
0.79281
0.794453
0.795418
0.795848
0.795904
0.795626
0.795074
0.794298
0.793294
0.792105
0.790749
0.789231
0.787573
0.78576
0.783817
0.781748
0.779545
0.77724
0.774837
0.772375
0.770059
0.768216
0.714555
0.729402
0.741507
0.756366
0.767606
0.776434
0.782498
0.786639
0.789363
0.791096
0.792127
0.792613
0.79272
0.792494
0.791989
0.791257
0.790299
0.789155
0.787848
0.786379
0.784775
0.783015
0.78113
0.779121
0.776978
0.774731
0.772384
0.769965
0.767668
0.765812
0.708512
0.723429
0.73568
0.751129
0.762992
0.7723
0.778711
0.783067
0.78593
0.787753
0.788852
0.789394
0.789551
0.789375
0.788917
0.788227
0.787316
0.786217
0.784959
0.783539
0.781991
0.780287
0.77846
0.776514
0.774435
0.77225
0.769963
0.767595
0.765324
0.763457
0.702599
0.717547
0.729896
0.745883
0.758365
0.76816
0.774927
0.779505
0.782513
0.784426
0.785593
0.78619
0.786398
0.786271
0.785858
0.78521
0.784344
0.783291
0.782082
0.780712
0.779219
0.777573
0.775806
0.773925
0.771913
0.769794
0.767575
0.765265
0.763029
0.761155
0.696862
0.711798
0.724188
0.740649
0.753733
0.764018
0.771149
0.775957
0.779113
0.781118
0.782352
0.783005
0.783261
0.783181
0.782813
0.782205
0.781384
0.780377
0.779217
0.777898
0.776459
0.774873
0.773167
0.771351
0.76941
0.767364
0.765219
0.762976
0.760784
0.758907
0.691347
0.706221
0.718593
0.735449
0.749107
0.759878
0.767377
0.772424
0.775731
0.77783
0.779132
0.779839
0.780143
0.780106
0.779781
0.779214
0.778437
0.777475
0.776363
0.775096
0.77371
0.772185
0.77054
0.768792
0.766925
0.764957
0.762894
0.760728
0.758591
0.756718
0.686094
0.700854
0.713145
0.730303
0.744499
0.755745
0.763616
0.768905
0.772368
0.774565
0.775933
0.776695
0.777043
0.777047
0.776763
0.776237
0.775502
0.774584
0.77352
0.772305
0.770972
0.769508
0.767925
0.766246
0.764457
0.762572
0.760598
0.758521
0.756454
0.754593
0.681139
0.695731
0.707877
0.725234
0.739921
0.751625
0.759866
0.765403
0.769026
0.771323
0.772756
0.773572
0.773962
0.774005
0.773761
0.773274
0.772579
0.771705
0.770687
0.769525
0.768245
0.766841
0.76532
0.763711
0.762003
0.760207
0.758331
0.756357
0.754375
0.752537
0.676507
0.690878
0.702816
0.720265
0.735386
0.747524
0.756132
0.761918
0.765704
0.768104
0.769603
0.770472
0.770901
0.770982
0.770775
0.770324
0.769669
0.768838
0.767865
0.766755
0.765526
0.764181
0.762724
0.761186
0.759561
0.75786
0.756091
0.754234
0.752357
0.750557
0.67222
0.686315
0.697989
0.715416
0.730908
0.74345
0.752414
0.758452
0.762405
0.76491
0.766474
0.767394
0.767861
0.767977
0.767806
0.767389
0.766772
0.765984
0.765054
0.763993
0.762814
0.761528
0.760135
0.758669
0.75713
0.755528
0.753876
0.752152
0.750404
0.74866
0.668288
0.682056
0.693411
0.71071
0.7265
0.739412
0.748718
0.755008
0.75913
0.76174
0.763371
0.764341
0.764845
0.764992
0.764855
0.764469
0.763889
0.763142
0.762253
0.761239
0.760109
0.758881
0.757551
0.756159
0.754707
0.75321
0.751682
0.750108
0.748516
0.746857
0.664724
0.678108
0.689097
0.706166
0.722178
0.735417
0.745049
0.751589
0.75588
0.758598
0.760296
0.761315
0.761852
0.762028
0.761921
0.761565
0.761019
0.760311
0.759462
0.758492
0.75741
0.756238
0.754972
0.753652
0.752289
0.750901
0.749506
0.7481
0.746697
0.74516
0.66154
0.674472
0.685054
0.701803
0.71796
0.73148
0.741415
0.748201
0.75266
0.755487
0.757251
0.758316
0.758885
0.759086
0.759006
0.758678
0.758164
0.757492
0.75668
0.755752
0.754717
0.753598
0.752394
0.751148
0.749873
0.748596
0.747342
0.746123
0.744947
0.743584
0.658756
0.671142
0.681287
0.697639
0.713865
0.727613
0.737825
0.744848
0.749473
0.752409
0.754239
0.755347
0.755943
0.756166
0.75611
0.755808
0.755324
0.754683
0.753906
0.753019
0.752028
0.75096
0.749817
0.748644
0.747458
0.746293
0.745186
0.744171
0.743264
0.742151
0.656417
0.668109
0.677779
0.693645
0.709845
0.723759
0.734227
0.741488
0.746285
0.749339
0.751239
0.752388
0.753012
0.753256
0.753222
0.752944
0.752487
0.751876
0.751132
0.750283
0.749335
0.748317
0.747235
0.746133
0.745034
0.743981
0.743025
0.742231
0.741642
0.740886
0.654542
0.665298
0.674448
0.689705
0.705765
0.71979
0.730506
0.738023
0.743013
0.746205
0.74819
0.74939
0.750047
0.750318
0.750306
0.750055
0.749627
0.749048
0.748338
0.747527
0.746623
0.745655
0.744634
0.743603
0.74259
0.74165
0.740847
0.740286
0.740067
0.739823
0.653167
0.662615
0.671318
0.686059
0.70198
0.716061
0.726956
0.734672
0.739819
0.743123
0.745177
0.746419
0.747103
0.747396
0.747403
0.747177
0.746773
0.746222
0.745544
0.744767
0.743904
0.742983
0.742018
0.741052
0.74012
0.739285
0.73863
0.738305
0.738498
0.738979
0.64852
0.654155
0.662095
0.676702
0.693033
0.70749
0.718723
0.726704
0.73199
0.735319
0.737315
0.738464
0.739063
0.739298
0.739267
0.739032
0.738632
0.738099
0.737457
0.736731
0.735941
0.735114
0.734274
0.733462
0.732726
0.732152
0.731871
0.732177
0.733586
0.736771
0.62958
0.637941
0.648314
0.662656
0.677469
0.690446
0.700762
0.708401
0.713744
0.717329
0.719656
0.721131
0.722029
0.72253
0.722741
0.722734
0.722551
0.722231
0.721801
0.721287
0.720714
0.720111
0.719508
0.718953
0.718506
0.718274
0.718429
0.719349
0.721716
0.726195
0.61021
0.621858
0.633905
0.647411
0.660603
0.672279
0.681883
0.6893
0.694752
0.698624
0.701311
0.703149
0.704388
0.705201
0.7057
0.705959
0.70603
0.705952
0.705756
0.705472
0.705125
0.704749
0.704378
0.704062
0.703868
0.703908
0.704358
0.705601
0.708327
0.713196
0.591081
0.604454
0.617091
0.629856
0.642053
0.653008
0.662244
0.669604
0.675228
0.679405
0.68245
0.68465
0.686237
0.687377
0.688184
0.688735
0.689081
0.689266
0.689322
0.689279
0.689166
0.689017
0.688869
0.688773
0.688793
0.689042
0.689688
0.691091
0.693895
0.698832
0.571655
0.585684
0.598495
0.610857
0.622504
0.633012
0.642006
0.649355
0.655164
0.659649
0.66306
0.665642
0.667601
0.669096
0.670238
0.671104
0.67175
0.672217
0.67254
0.67275
0.672877
0.672955
0.673019
0.67312
0.673319
0.673724
0.674487
0.675946
0.678677
0.683494
0.551684
0.565954
0.578808
0.590925
0.602199
0.612374
0.621188
0.628549
0.634537
0.639319
0.643095
0.646065
0.648412
0.650282
0.651778
0.652979
0.653941
0.654706
0.655308
0.65578
0.656152
0.656454
0.656722
0.657003
0.657354
0.657875
0.658704
0.660151
0.662728
0.667332
0.53117
0.545504
0.558307
0.570213
0.581209
0.591148
0.599849
0.60725
0.613415
0.618479
0.6226
0.625949
0.628682
0.630927
0.632784
0.634328
0.635612
0.636681
0.637568
0.638306
0.638922
0.639447
0.639911
0.64036
0.640847
0.641461
0.642325
0.643724
0.646109
0.650443
0.510112
0.524411
0.537098
0.54882
0.559618
0.569406
0.578052
0.585516
0.591856
0.597182
0.601628
0.605336
0.608439
0.611051
0.613263
0.615146
0.616751
0.618122
0.619294
0.620296
0.621155
0.621897
0.622554
0.623165
0.623777
0.624476
0.625364
0.626702
0.628882
0.632914
0.488507
0.502716
0.515266
0.526836
0.537499
0.547195
0.555826
0.563368
0.569879
0.575453
0.580202
0.584247
0.5877
0.590665
0.593221
0.595434
0.597352
0.599019
0.600468
0.601729
0.602824
0.603779
0.604622
0.60539
0.606124
0.606903
0.607814
0.609094
0.611076
0.614783
0.466369
0.480463
0.492876
0.504321
0.51489
0.524534
0.533177
0.54081
0.547487
0.553294
0.558327
0.562686
0.56647
0.569769
0.572654
0.575184
0.577405
0.579359
0.581077
0.582586
0.583909
0.585071
0.586095
0.587017
0.587873
0.588732
0.589669
0.590899
0.592701
0.596097
0.443713
0.457679
0.469963
0.481305
0.491808
0.501429
0.510104
0.517834
0.524674
0.530701
0.535999
0.540652
0.544747
0.548361
0.551557
0.554389
0.556901
0.559131
0.561106
0.562853
0.564395
0.565753
0.56695
0.568018
0.56899
0.569928
0.570896
0.572087
0.573732
0.57681
0.420554
0.434384
0.446548
0.457804
0.468262
0.47788
0.486602
0.494435
0.501434
0.507669
0.513213
0.51814
0.522524
0.526433
0.529922
0.533042
0.53583
0.538321
0.540541
0.542516
0.544268
0.545815
0.547179
0.548389
0.549473
0.550487
0.551485
0.552642
0.554156
0.556968
0.396902
0.410592
0.422643
0.433827
0.444256
0.453887
0.462666
0.470607
0.477759
0.48419
0.489963
0.495144
0.499795
0.503978
0.507742
0.511131
0.514178
0.516916
0.519368
0.521558
0.523505
0.525229
0.526747
0.528089
0.529278
0.530367
0.531401
0.53253
0.533917
0.536431
0.372766
0.386309
0.398256
0.40938
0.419794
0.429448
0.438292
0.446339
0.45364
0.460254
0.466239
0.471653
0.476551
0.480986
0.485002
0.48864
0.491929
0.494897
0.497567
0.499961
0.502095
0.503987
0.505653
0.507117
0.508399
0.509545
0.5106
0.511709
0.513012
0.515302
0.348151
0.36154
0.373393
0.384468
0.394876
0.404561
0.413473
0.421626
0.429066
0.43585
0.442029
0.447656
0.452777
0.457441
0.461687
0.465551
0.469061
0.472241
0.47511
0.477688
0.479989
0.482032
0.483833
0.485415
0.486795
0.488012
0.489093
0.490159
0.49133
0.493333
0.323064
0.336291
0.348059
0.359097
0.369506
0.379225
0.388204
0.396457
0.404029
0.410967
0.417322
0.423138
0.428458
0.433325
0.437775
0.441841
0.44555
0.448921
0.451973
0.454723
0.457183
0.459366
0.461283
0.462952
0.464392
0.465644
0.466743
0.467806
0.468935
0.470725
0.297513
0.310565
0.322261
0.333272
0.343685
0.353438
0.36248
0.370827
0.378517
0.385595
0.392103
0.398084
0.403577
0.408619
0.413245
0.417485
0.421363
0.424898
0.428105
0.430999
0.433595
0.435906
0.437943
0.439719
0.441239
0.442527
0.443605
0.444582
0.445567
0.447084
0.271514
0.284373
0.296012
0.307005
0.317422
0.327201
0.336298
0.344728
0.352524
0.359722
0.366361
0.372479
0.378113
0.383299
0.388067
0.392451
0.396471
0.400147
0.403492
0.406515
0.409221
0.411619
0.41372
0.415545
0.41711
0.418445
0.419564
0.420548
0.421481
0.422756
0.245104
0.257739
0.269336
0.280315
0.290726
0.300519
0.309658
0.318159
0.326043
0.333339
0.340082
0.346308
0.35205
0.357343
0.362217
0.366704
0.370826
0.374602
0.378045
0.38117
0.383983
0.38649
0.388686
0.390568
0.392135
0.393416
0.394441
0.39531
0.396126
0.397135
0.218364
0.230726
0.242281
0.253232
0.263613
0.273399
0.282564
0.291117
0.29907
0.306439
0.313254
0.319548
0.325357
0.330715
0.335655
0.340211
0.344404
0.348251
0.351758
0.35493
0.357772
0.3603
0.362527
0.364464
0.366104
0.36745
0.368494
0.369309
0.370002
0.370738
0.19146
0.203456
0.214926
0.225805
0.23611
0.245853
0.255021
0.263606
0.271603
0.279015
0.285866
0.292191
0.298024
0.303399
0.308351
0.312914
0.317119
0.320992
0.324544
0.327778
0.330684
0.333246
0.335456
0.337325
0.338872
0.340126
0.341089
0.34181
0.342379
0.342776
0.164695
0.176156
0.187412
0.198112
0.208258
0.217906
0.227044
0.235633
0.243642
0.251057
0.257896
0.264198
0.27
0.275341
0.280257
0.284784
0.288951
0.292776
0.296268
0.299443
0.302315
0.304893
0.307162
0.309099
0.310677
0.311894
0.312757
0.313331
0.313736
0.313845
0.138527
0.149179
0.159961
0.170279
0.180131
0.189603
0.198658
0.207212
0.215196
0.222576
0.229364
0.235594
0.241301
0.246528
0.251324
0.255744
0.259832
0.26361
0.26707
0.270193
0.272964
0.275392
0.277503
0.279317
0.280825
0.282
0.282793
0.283212
0.283362
0.282995
0.113526
0.123
0.1329
0.142518
0.151865
0.161028
0.169915
0.178365
0.186255
0.193532
0.200197
0.206284
0.211831
0.216882
0.221487
0.225699
0.22957
0.233142
0.236443
0.239482
0.242238
0.244674
0.24676
0.248488
0.249874
0.250933
0.251628
0.251918
0.251851
0.251092
0.0902543
0.0981424
0.106663
0.115166
0.123707
0.132353
0.14093
0.149179
0.156909
0.164028
0.170511
0.176372
0.181652
0.186419
0.190759
0.194741
0.198402
0.201748
0.204773
0.207496
0.209951
0.212159
0.214105
0.215747
0.217043
0.217978
0.218506
0.218547
0.218087
0.216699
0.0691456
0.0751087
0.0817748
0.0887152
0.0960727
0.103884
0.111871
0.119683
0.127074
0.133909
0.140113
0.145662
0.150578
0.15493
0.158826
0.162378
0.165677
0.168766
0.171627
0.174216
0.176493
0.178464
0.18016
0.181601
0.18277
0.183641
0.184134
0.184049
0.1832
0.181219
0.0503933
0.054305
0.0588154
0.0637938
0.0695885
0.0762012
0.0832437
0.0903231
0.0971667
0.103557
0.10933
0.114421
0.118859
0.122733
0.126137
0.129154
0.13187
0.13437
0.136707
0.138884
0.140859
0.142584
0.144041
0.145224
0.146131
0.146778
0.147142
0.146953
0.145721
0.142999
0.0338765
0.0358958
0.0382852
0.0410577
0.0449404
0.0498314
0.0552833
0.0610381
0.0669018
0.0725663
0.0777035
0.0821292
0.0858523
0.0890116
0.0917732
0.0942646
0.0965554
0.0986554
0.100545
0.102224
0.103721
0.105065
0.106253
0.107247
0.107983
0.108455
0.108707
0.108506
0.107038
0.103822
0.0190911
0.0196236
0.0201692
0.0209889
0.0233408
0.0264071
0.0298048
0.0336344
0.0378667
0.0422087
0.0462782
0.0497706
0.052548
0.0546703
0.056347
0.0578272
0.059276
0.0607075
0.0620338
0.0631739
0.0641233
0.0649361
0.0656585
0.0662862
0.066758
0.0670178
0.0671195
0.0670004
0.0656964
0.0622898
0.00574403
0.00470282
0.000837592
1.24761e-06
0.00245589
0.00426204
0.00562572
0.00725943
0.00932297
0.0116422
0.013961
0.0160382
0.0177096
0.0189393
0.019812
0.0204735
0.0210586
0.0216366
0.0222008
0.0227088
0.0231337
0.0234835
0.0237788
0.0240286
0.0242122
0.0242736
0.024213
0.0241936
0.0238466
0.021471
0.631103
0.615497
0.597486
0.578628
0.559254
0.539208
0.518619
0.497529
0.47593
0.453836
0.431267
0.408221
0.384713
0.360754
0.336355
0.31154
0.286329
0.260781
0.234963
0.209003
0.183089
0.157505
0.132663
0.109012
0.0870028
0.0669851
0.0491309
0.0333499
0.0191335
0.00608222
0.62908
0.611996
0.593496
0.574368
0.55493
0.534897
0.514349
0.493313
0.471779
0.449753
0.427258
0.404291
0.380867
0.356997
0.33269
0.307975
0.282871
0.257442
0.23176
0.205962
0.180248
0.154915
0.130392
0.107118
0.0855293
0.0659445
0.0484954
0.0330507
0.0190685
0.00614983
0.626299
0.608242
0.589461
0.570173
0.550696
0.530679
0.510166
0.489177
0.467701
0.445742
0.423319
0.400429
0.377088
0.353309
0.329095
0.304482
0.279487
0.25418
0.228636
0.203
0.177484
0.152392
0.12816
0.105219
0.0839992
0.0648085
0.0477572
0.0326693
0.018945
0.00618461
0.623131
0.604444
0.585434
0.56602
0.546508
0.52651
0.506035
0.485093
0.463673
0.441777
0.419424
0.396609
0.373349
0.349658
0.325535
0.301021
0.276133
0.250946
0.225539
0.200064
0.17475
0.149906
0.125977
0.103385
0.0825498
0.0637549
0.0470835
0.0323234
0.0188304
0.00620475
0.619661
0.600594
0.581424
0.561924
0.542383
0.522405
0.501968
0.481072
0.459706
0.437868
0.415581
0.392839
0.369657
0.346049
0.322016
0.297598
0.272816
0.247746
0.222476
0.197165
0.172056
0.147466
0.123846
0.101613
0.08117
0.0627754
0.0464754
0.0320197
0.0187316
0.00621471
0.615958
0.596706
0.577439
0.557886
0.538324
0.518368
0.497966
0.477113
0.455797
0.434016
0.411791
0.389119
0.366011
0.342484
0.318538
0.294214
0.269535
0.244582
0.21945
0.194304
0.169404
0.145075
0.121771
0.0999037
0.0798574
0.0618614
0.0459222
0.0317497
0.018645
0.00621549
0.612082
0.592789
0.573483
0.553909
0.534331
0.514398
0.49403
0.473217
0.45195
0.430222
0.408058
0.385451
0.362413
0.338964
0.315102
0.29087
0.266293
0.241455
0.216461
0.191485
0.166798
0.142737
0.119757
0.0982627
0.0786147
0.061013
0.0454215
0.0315104
0.0185695
0.00620903
0.608087
0.588856
0.56956
0.549993
0.530407
0.510496
0.490161
0.469386
0.448164
0.426489
0.404381
0.381836
0.358867
0.335491
0.311711
0.287567
0.263091
0.238367
0.213513
0.188708
0.16424
0.140454
0.117807
0.0966922
0.0774436
0.0602304
0.0449722
0.031301
0.0185043
0.00619821
0.604018
0.584919
0.565673
0.546139
0.526554
0.506662
0.486359
0.465621
0.444443
0.422817
0.400762
0.378277
0.355373
0.332068
0.308366
0.284306
0.25993
0.23532
0.210606
0.185975
0.161732
0.138228
0.115921
0.0951921
0.0763432
0.0595118
0.0445715
0.0311195
0.0184481
0.00618416
0.599915
0.580994
0.561828
0.542345
0.522771
0.502897
0.482625
0.461923
0.440787
0.419207
0.397203
0.374775
0.351934
0.328696
0.305068
0.281091
0.256812
0.232317
0.207742
0.183288
0.159274
0.13606
0.114101
0.0937609
0.0753113
0.0588536
0.0442152
0.0309628
0.0183992
0.0061668
0.595809
0.577092
0.55803
0.538611
0.519057
0.499203
0.47896
0.458292
0.437195
0.415659
0.393704
0.371331
0.34855
0.325377
0.30182
0.277924
0.25374
0.229358
0.204922
0.180649
0.156869
0.133951
0.112344
0.0923971
0.0743451
0.0582524
0.0438994
0.0308278
0.0183564
0.00614839
0.591725
0.573225
0.554284
0.53494
0.515414
0.495582
0.475366
0.454729
0.433669
0.412176
0.390267
0.367947
0.345223
0.322111
0.298623
0.274806
0.250716
0.226445
0.202151
0.178062
0.15452
0.131903
0.110655
0.091101
0.0734432
0.0577049
0.0436206
0.0307119
0.0183186
0.00613015
0.587684
0.569403
0.550595
0.531332
0.511843
0.492032
0.471843
0.451235
0.430209
0.408757
0.386893
0.364623
0.341953
0.3189
0.29548
0.27174
0.247741
0.223582
0.199431
0.17553
0.152232
0.129922
0.109034
0.0898744
0.0726053
0.057209
0.0433763
0.0306128
0.0182853
0.00611297
0.583701
0.565636
0.546967
0.527793
0.508345
0.488556
0.468392
0.447811
0.426817
0.405404
0.383582
0.361359
0.338741
0.315746
0.292392
0.268727
0.244818
0.22077
0.196766
0.173057
0.150008
0.128011
0.107486
0.0887189
0.0718309
0.0567628
0.0431638
0.0305288
0.0182557
0.00609744
0.579791
0.561935
0.543409
0.524324
0.504922
0.485156
0.465015
0.444459
0.423496
0.402119
0.380336
0.358157
0.335589
0.31265
0.28936
0.265768
0.241947
0.218011
0.194157
0.170646
0.147851
0.126171
0.106013
0.0876353
0.071119
0.0563638
0.0429805
0.0304579
0.0182295
0.00608397
0.575964
0.558309
0.539924
0.520928
0.501576
0.481833
0.461715
0.441183
0.420247
0.398903
0.377156
0.355019
0.332499
0.309613
0.286385
0.262864
0.239131
0.215308
0.191607
0.168297
0.145762
0.124405
0.104614
0.0866227
0.0704675
0.056009
0.0428234
0.0303982
0.018206
0.00607283
0.572231
0.554764
0.53652
0.517609
0.498308
0.47859
0.458493
0.437984
0.417072
0.395758
0.374044
0.351945
0.329472
0.306636
0.283467
0.260015
0.23637
0.212661
0.189114
0.16601
0.143741
0.122712
0.103289
0.0856791
0.0698733
0.0556948
0.0426892
0.0303479
0.0181863
0.00606425
0.568599
0.551309
0.533199
0.51437
0.495121
0.475427
0.45535
0.434861
0.413972
0.392685
0.371003
0.34894
0.326509
0.303721
0.280608
0.257223
0.233665
0.210071
0.186681
0.163787
0.141789
0.121092
0.102036
0.0848021
0.0693335
0.0554179
0.0425751
0.0303056
0.0181857
0.00605851
0.565076
0.547951
0.529968
0.511214
0.492017
0.472346
0.452289
0.431818
0.410949
0.389686
0.368033
0.346003
0.323612
0.300868
0.277809
0.25449
0.231018
0.20754
0.184309
0.161629
0.139906
0.119544
0.100856
0.0839896
0.0688452
0.0551752