/*--------------------------------*- C++ -*----------------------------------*\
  =========                 |
  \\      /  F ield         | OpenFOAM: The Open Source CFD Toolbox
   \\    /   O peration     | Website:  https://openfoam.org
    \\  /    A nd           | Version:  7
     \\/     M anipulation  |
\*---------------------------------------------------------------------------*/
FoamFile
{
    version     2.0;
    format      ascii;
    class       surfaceScalarField;
    location    "5.7";
    object      phi;
}
// * * * * * * * * * * * * * * * * * * * * * * * * * * * * * * * * * * * * * //

dimensions      [0 3 -1 0 0 0 0];

internalField   nonuniform List<scalar> 
35640
(
-3.62684e-06
-5.93176e-05
6.29445e-05
-1.37364e-05
0.000109963
-9.98533e-05
-2.89434e-05
0.000505585
-0.000490378
-4.69466e-05
0.00103849
-0.00102048
-6.52578e-05
0.00165415
-0.00163584
-8.14809e-05
0.00231827
-0.00230205
-9.34792e-05
0.00300846
-0.00299646
-9.94493e-05
0.00370935
-0.00370338
-9.793e-05
0.00441011
-0.00441163
-8.77645e-05
0.00510242
-0.00511259
-6.80963e-05
0.0057794
-0.00579906
-3.83552e-05
0.0064349
-0.00646464
1.83948e-06
0.00706333
-0.00710352
5.2686e-05
0.00765957
-0.00771041
0.000114224
0.00821901
-0.00828055
0.00018638
0.00873764
-0.0088098
0.000268978
0.00921213
-0.00929473
0.000361758
0.0096399
-0.00973268
0.000464392
0.0100191
-0.0101217
0.000576501
0.0103487
-0.0104608
0.00069767
0.0106284
-0.0107495
0.000827483
0.0108585
-0.0109883
0.000965505
0.0110399
-0.0111779
0.00111128
0.0111739
-0.0113197
0.00126437
0.0112623
-0.0114154
0.00142428
0.0113068
-0.0114667
0.0015904
0.0113095
-0.0114756
0.00176195
0.0112722
-0.0114437
0.00193772
0.011199
-0.0113748
0.0110951
0.00211598
-0.0112734
-5.66095e-06
-5.3657e-05
-2.00473e-05
0.000124349
-4.10038e-05
0.000526541
-6.57833e-05
0.00106327
-9.1622e-05
0.00167999
-0.000115979
0.00234263
-0.000136574
0.00302905
-0.000151471
0.00372424
-0.000159089
0.00441773
-0.000158194
0.00510153
-0.000147856
0.00576906
-0.000127418
0.00641446
-9.64385e-05
0.00703235
-5.46587e-05
0.00761778
-1.96919e-06
0.00816632
6.15953e-05
0.00867408
0.0001359
0.00913783
0.000220732
0.00955506
0.000315812
0.00992401
0.000420805
0.0102437
0.000535326
0.0105138
0.000658965
0.0107348
0.00079129
0.0109075
0.000931839
0.0110334
0.00108012
0.011114
0.00123555
0.0111514
0.00139738
0.0111476
0.00156463
0.0111049
0.00173592
0.0110277
0.0109218
0.00190926
-7.53536e-06
-4.61219e-05
-2.57912e-05
0.000142605
-5.1925e-05
0.000552675
-8.27991e-05
0.00109414
-0.00011538
0.00171257
-0.00014696
0.00237421
-0.000175125
0.00305722
-0.000197876
0.00374699
-0.000213544
0.00443339
-0.000220806
0.00510879
-0.000218655
0.00576691
-0.000206365
0.00640217
-0.000183439
0.00700942
-0.000149572
0.00758392
-0.000104628
0.00812138
-4.85953e-05
0.00861804
1.84491e-05
0.00907079
9.63299e-05
0.00947718
0.00018479
0.00983555
0.000283516
0.010145
0.000392167
0.0104052
0.000510363
0.0106166
0.000637683
0.0107802
0.000773654
0.0108974
0.000917727
0.0109699
0.00106922
0.0109999
0.00122728
0.0109896
0.00139074
0.0109415
0.001558
0.0108604
0.0107529
0.00172686
-9.19576e-06
-3.69263e-05
-3.10066e-05
0.000164416
-6.18078e-05
0.000583477
-9.8037e-05
0.00113037
-0.000136447
0.00175098
-0.000174224
0.00241199
-0.00020886
0.00309185
-0.000238268
0.0037764
-0.000260723
0.00445585
-0.00027484
0.00512291
-0.000279545
0.00577161
-0.000274055
0.00639668
-0.000257848
0.00699322
-0.000230578
0.00755665
-0.000192064
0.00808287
-0.000142263
0.00856824
-8.12365e-05
0.00900976
-9.12946e-06
0.00940507
7.3836e-05
0.00975259
0.000167388
0.0100514
0.000271218
0.0103014
0.000384971
0.0105029
0.000508249
0.0106569
0.000640578
0.0107651
0.000781369
0.0108291
0.000929886
0.0108514
0.00108513
0.0108343
0.00124579
0.0107808
0.00141004
0.0106962
0.0105875
0.00157546
-1.07123e-05
-2.62138e-05
-3.56146e-05
0.000189318
-7.0404e-05
0.000618266
-0.000111152
0.00117112
-0.000154421
0.00179425
-0.000197269
0.00245484
-0.00023715
0.00313173
-0.000271919
0.00381117
-0.000299795
0.00448372
-0.000319342
0.00514246
-0.000329453
0.00578172
-0.000329306
0.00639654
-0.000318326
0.00698224
-0.00029615
0.00753447
-0.000262587
0.0080493
-0.000217566
0.00852322
-0.000161124
0.00895332
-9.3386e-05
0.00933734
-1.45464e-05
0.00967375
7.5161e-05
0.00996171
0.000175468
0.0102011
0.000286058
0.0103923
0.000406566
0.0105364
0.000536538
0.0106351
0.000675381
0.0106903
0.000822304
0.0107044
0.000976212
0.0106804
0.00113564
0.0106214
0.00129857
0.0105332
0.0104238
0.00146231
-1.20004e-05
-1.42137e-05
-3.95427e-05
0.00021686
-7.76442e-05
0.000656368
-0.000122018
0.00121549
-0.00016908
0.00184131
-0.000215816
0.00250157
-0.00025964
0.00317556
-0.000298362
0.00384989
-0.00033018
0.00451554
-0.000353626
0.0051659
-0.000367555
0.00579565
-0.000371114
0.0064001
-0.000363711
0.00697483
-0.000344972
0.00751573
-0.000314684
0.00801901
-0.000272764
0.0084813
-0.000219244
0.0088998
-0.000154234
0.00927233
-7.78937e-05
0.00959741
9.58173e-06
0.00987423
0.000107966
0.0101027
0.000216994
0.0102833
0.000336354
0.0104171
0.000465634
0.0105058
0.000604272
0.0105517
0.000751452
0.0105573
0.000906025
0.0105258
0.00106639
0.010461
0.00123035
0.0103693
0.0102592
0.0013949
-1.30854e-05
-1.12812e-06
-4.27613e-05
0.000246537
-8.34142e-05
0.000697021
-0.000130466
0.00126254
-0.000180206
0.00189105
-0.000229551
0.00255092
-0.000275912
0.00322192
-0.000317091
0.00389107
-0.000351261
0.00454971
-0.000376936
0.00519158
-0.000392953
0.00581167
-0.000398445
0.00640559
-0.000392805
0.00696919
-0.000375649
0.00749858
-0.000346759
0.00799012
-0.000306054
0.0084406
-0.000253559
0.0088473
-0.000189372
0.00920814
-0.000113624
0.00952166
-2.64723e-05
0.00978708
7.19052e-05
0.0100043
0.000181313
0.0101738
0.00030151
0.0102969
0.000432161
0.0103752
0.000572763
0.0104111
0.000722526
0.0104075
0.000880287
0.0103681
0.00104436
0.010297
0.00121235
0.0102013
0.0100907
0.00138092
-1.39498e-05
1.2822e-05
-4.52275e-05
0.000277814
-8.7656e-05
0.00073945
-0.00013639
0.00131128
-0.000187619
0.00194228
-0.000238237
0.00260154
-0.000285659
0.00326934
-0.000327691
0.00393311
-0.000362509
0.00458453
-0.000388624
0.00521769
-0.000404865
0.00582791
-0.000410357
0.00641108
-0.000404491
0.00696333
-0.000386879
0.00748096
-0.000357303
0.00796055
-0.000315689
0.00839899
-0.000262066
0.00879368
-0.000196518
0.00914259
-0.000119154
0.0094443
-3.00957e-05
0.00969802
7.05393e-05
0.00990366
0.000182632
0.0100618
0.000306032
0.0101735
0.000440512
0.0102407
0.000585663
0.0102659
0.000740791
0.0102524
0.000904762
0.0102041
0.00107585
0.0101259
0.0012515
0.0100256
0.00991419
0.00142798
-1.45929e-05
2.7415e-05
-4.69305e-05
0.000310152
-9.03341e-05
0.000782854
-0.000139729
0.00136067
-0.000191232
0.00199378
-0.00024173
0.00265203
-0.000288662
0.00331627
-0.000329862
0.00397431
-0.000363526
0.00461819
-0.000388174
0.00524234
-0.000402638
0.00584238
-0.000406046
0.00641449
-0.000397791
0.00695507
-0.000377486
0.00746066
-0.000344921
0.00792798
-0.000300034
0.0083541
-0.000242857
0.0087365
-0.000173468
0.0090732
-9.19589e-05
0.00936279
1.58462e-06
0.00960448
0.000107104
0.00979814
0.000224561
0.00994429
0.00035392
0.0100441
0.000495082
0.0100995
0.00064778
0.0101132
0.000811463
0.0100887
0.000985103
0.0100305
0.00116699
0.00994398
0.00135445
0.00983818
0.00972532
0.00154332
-1.50138e-05
4.2429e-05
-4.78712e-05
0.00034301
-9.14531e-05
0.000826436
-0.000140484
0.00140971
-0.000191025
0.00204432
-0.000239978
0.00270099
-0.000284821
0.00336112
-0.000323438
0.00401293
-0.000354057
0.00464881
-0.000375224
0.00526351
-0.000385784
0.00585294
-0.000384877
0.00641358
-0.0003719
0.00694209
-0.000346471
0.00743523
-0.000308394
0.00788991
-0.000257621
0.00830333
-0.000194189
0.00867307
-0.000118174
0.00899718
-2.96575e-05
0.00927427
7.13052e-05
0.00950351
0.000184711
0.00968473
0.000310608
0.0098184
0.000449073
0.00990566
0.000600153
0.00994845
0.000763769
0.00994959
0.000939559
0.0099129
0.00112667
0.00984336
0.00132351
0.00974715
0.00152731
0.00963438
0.00951915
0.00173347
-1.52166e-05
5.76457e-05
-4.80729e-05
0.000375867
-9.10563e-05
0.000869419
-0.000138711
0.00145736
-0.000187062
0.00209267
-0.000233035
0.00274696
-0.000274165
0.00340225
-0.000308398
0.00404716
-0.000334014
0.00467443
-0.000349596
0.00527909
-0.000354017
0.00585736
-0.000346428
0.00640599
-0.000326235
0.0069219
-0.000293067
0.00740206
-0.000246745
0.00784358
-0.000187229
0.00824381
-0.000114565
0.00860041
-2.88352e-05
0.00891145
6.98829e-05
0.00917555
0.000181557
0.00939184
0.000306229
0.00956006
0.000444021
0.0096806
0.000595122
0.00975456
0.000759729
0.00978384
0.000937961
0.00977136
0.0011297
0.00972116
0.00133435
0.00963871
0.00155048
0.00953101
0.00177537
0.00940949
0.00929055
0.00200397
-1.52136e-05
7.28594e-05
-4.75776e-05
0.000408231
-8.92233e-05
0.000911065
-0.000134532
0.00150267
-0.000179493
0.00213764
-0.000221068
0.00278854
-0.000256857
0.00343804
-0.000284884
0.00407519
-0.000303498
0.00469304
-0.000311325
0.00528692
-0.000307277
0.00585331
-0.000290525
0.00638924
-0.000260486
0.00689186
-0.000216801
0.00735838
-0.000159304
0.00778609
-8.79659e-05
0.00817247
-2.84047e-06
0.00851528
9.59747e-05
0.00881264
0.000208402
0.00906312
0.00033442
0.00926582
0.000474097
0.00942038
0.000627612
0.00952709
0.000795236
0.00958693
0.000977306
0.00960177
0.00117414
0.00957452
0.00138589
0.00950941
0.00161227
0.00941234
0.00185211
0.00929117
0.00210283
0.00915877
0.00903436
0.00235903
-1.50233e-05
8.78829e-05
-4.64486e-05
0.000439657
-8.60734e-05
0.00095069
-0.000128124
0.00154472
-0.000168552
0.00217806
-0.000204354
0.00282434
-0.000233204
0.00346689
-0.000253216
0.0040952
-0.000262811
0.00470264
-0.000260679
0.00528479
-0.000245775
0.0058384
-0.000217295
0.00636076
-0.000174671
0.00684924
-0.000117558
0.00730126
-4.57981e-05
0.00771433
4.06285e-05
0.00808605
0.000141654
0.00841425
0.000257172
0.00869712
0.000387091
0.0089332
0.000531384
0.00912153
0.000690121
0.00926164
0.000863504
0.00935371
0.00105186
0.00939858
0.00125562
0.00939801
0.00147529
0.00935485
0.00171126
0.00927344
0.00196358
0.00916002
0.00223147
0.00902328
0.00251258
0.00887765
0.00874567
0.00280127
-1.46713e-05
0.000102555
-4.47675e-05
0.000469753
-8.17623e-05
0.000987684
-0.000119726
0.00158268
-0.000154558
0.0022129
-0.000183287
0.00285307
-0.000203663
0.00348726
-0.00021389
0.00410543
-0.000212476
0.00470122
-0.000198183
0.00527049
-0.000170015
0.00581024
-0.000127202
0.00631794
-6.91911e-05
0.00679123
4.34774e-06
0.00722772
9.35659e-05
0.00762511
0.000198478
0.00798113
0.000319003
0.00829373
0.000455018
0.0085611
0.000606411
0.00878181
0.00077313
0.00895481
0.000955223
0.00907955
0.00115287
0.00915606
0.00136641
0.00918504
0.00159631
0.00916811
0.00184318
0.00910798
0.00210764
0.00900897
0.00239008
0.00887758
0.00269011
0.00872324
0.0030058
0.00856196
0.00842004
0.00333143
-1.41889e-05
0.000116744
-4.26321e-05
0.000498197
-7.64779e-05
0.00102153
-0.000109626
0.00161583
-0.000137907
0.00224118
-0.000158369
0.00287353
-0.000168832
0.00349773
-0.00016759
0.00410419
-0.000153243
0.00468688
-0.000124635
0.00524189
-8.08265e-05
0.00576643
-2.10816e-05
0.0062582
5.51201e-05
0.00671502
0.000148106
0.00713474
0.000258021
0.00751519
0.000384871
0.00785428
0.000528563
0.00815004
0.000688954
0.00840071
0.000865904
0.00860486
0.00105931
0.0087614
0.00126918
0.00886968
0.00149562
0.00892962
0.00173891
0.00894176
0.0019995
0.00890752
0.00227803
0.00882945
0.00257524
0.00871176
0.0028918
0.00856102
0.00322776
0.00838728
0.00358168
0.00820804
0.0080537
0.00394801
-1.36116e-05
0.000130356
-4.01538e-05
0.000524739
-7.04342e-05
0.00105181
-9.81593e-05
0.00164356
-0.000119064
0.00226208
-0.0001302
0.00288467
-0.000129444
0.00349697
-0.000115175
0.00408992
-8.60877e-05
0.00465779
-4.11135e-05
0.00519691
2.06242e-05
0.00570469
9.98152e-05
0.00617901
0.000196959
0.00661788
0.000312362
0.00701934
0.000446163
0.00738139
0.000598363
0.00770208
0.000768854
0.00797955
0.000957468
0.0082121
0.00116402
0.00839831
0.00138835
0.00853707
0.00163038
0.00862766
0.0018901
0.00866989
0.00216769
0.00866417
0.00246347
0.00861173
0.00277802
0.00851491
0.0031121
0.00837768
0.00346654
0.00820658
0.00384179
0.00801204
0.00423697
0.00781286
0.00764372
0.00464695
-1.29781e-05
0.000143334
-3.74525e-05
0.000549214
-6.38626e-05
0.00107822
-8.569e-05
0.00166538
-9.85456e-05
0.00227494
-9.94588e-05
0.00288558
-8.63468e-05
0.00348386
-5.76637e-05
0.00406123
-1.2197e-05
0.00461232
5.10332e-05
0.00513368
0.000132835
0.00562289
0.000233846
0.006078
0.00035453
0.0064972
0.000495175
0.00687869
0.000655908
0.00722066
0.000836716
0.00752128
0.00103747
0.00777879
0.00125798
0.0079916
0.00149799
0.0081583
0.00175727
0.00827779
0.00203561
0.00834932
0.00233287
0.00837263
0.00264904
0.008348
0.00298427
0.0082765
0.00333893
0.00816024
0.00371369
0.00800292
0.00410942
0.00781086
0.00452683
0.00759463
0.00496562
0.00737407
0.00718805
0.00542128
-1.23283e-05
0.000155662
-3.46513e-05
0.000571537
-5.70024e-05
0.00110057
-7.26005e-05
0.00168098
-7.69008e-05
0.00227924
-6.68823e-05
0.00287556
-4.04785e-05
0.00345746
3.79348e-06
0.00401696
6.70599e-05
0.00454906
0.000150215
0.00505053
0.00025399
0.00551911
0.000378965
0.00595302
0.000525557
0.0063506
0.000694025
0.00671022
0.000884474
0.00703021
0.00109687
0.00730888
0.00133105
0.0075446
0.00158678
0.00773587
0.00186374
0.00788134
0.00216159
0.00797994
0.00247997
0.00803094
0.00281856
0.00803403
0.00317713
0.00798944
0.00355554
0.00789808
0.00395392
0.00776186
0.00437267
0.00758417
0.00481254
0.00737098
0.0052744
0.00713277
0.00575844
0.00689003
0.00668556
0.00626093
-1.17018e-05
0.000167364
-3.18705e-05
0.000591705
-5.00887e-05
0.00111879
-5.92714e-05
0.00169016
-5.46857e-05
0.00227465
-3.32284e-05
0.00285411
7.17464e-06
0.00341706
6.79617e-05
0.00395618
0.000150183
0.00446684
0.00025465
0.00494606
0.000382014
0.00539175
0.000532785
0.00580225
0.000707326
0.00617606
0.000905852
0.0065117
0.00112843
0.00680763
0.00137499
0.00706232
0.00164532
0.00727427
0.00193912
0.00744207
0.00225598
0.00756448
0.00259542
0.0076405
0.00295692
0.00766944
0.00333994
0.00765101
0.00374397
0.00758541
0.00416857
0.00747348
0.0046135
0.00731693
0.00507881
0.00711885
0.00556501
0.00688478
0.00607292
0.00662486
0.00660311
0.00635984
0.00613598
0.0071527
-1.11345e-05
0.000178499
-2.92204e-05
0.000609791
-4.33386e-05
0.00113291
-4.60603e-05
0.00169289
-3.24325e-05
0.00226102
7.605e-07
0.00282091
5.56273e-05
0.00336219
0.00013358
0.00387822
0.000235607
0.00436481
0.000362442
0.00481922
0.000514653
0.00523954
0.000692673
0.00562423
0.000896794
0.00597194
0.00112717
0.00628132
0.00138381
0.00655099
0.00166658
0.00677955
0.00197521
0.00696564
0.00230929
0.00710799
0.00266831
0.00720547
0.00305162
0.00725719
0.00345851
0.00726255
0.00388818
0.00722133
0.00433982
0.00713377
0.00481265
0.00700066
0.00530599
0.00682359
0.0058195
0.00660534
0.0063533
0.00635099
0.00690803
0.00607012
0.00748451
0.00578336
0.00553983
0.00808066
-1.06574e-05
0.000189156
-2.67942e-05
0.000625928
-3.69378e-05
0.00114305
-3.32788e-05
0.00168923
-1.0616e-05
0.00223836
3.4405e-05
0.00277589
0.000103954
0.00329264
0.000199437
0.00378274
0.000321793
0.00424245
0.000471687
0.00466933
0.000649603
0.00506162
0.000855883
0.00541795
0.00109074
0.00573709
0.00135423
0.00601783
0.0016463
0.00625892
0.00196672
0.00645913
0.00231512
0.00661724
0.00269097
0.00673213
0.00309361
0.00680283
0.00352222
0.00682858
0.00397583
0.00680893
0.0044534
0.00674377
0.00495376
0.0066334
0.00547576
0.00647866
0.00601831
0.00628104
0.00658057
0.00604308
0.00716222
0.00576934
0.00776364
0.00546871
0.00838572
0.00516127
0.00489841
0.00902714
-1.02933e-05
0.000199449
-2.46602e-05
0.000640295
-3.1026e-05
0.00114942
-2.11699e-05
0.00167937
1.03778e-05
0.00220681
6.71378e-05
0.00271913
0.000151358
0.00320842
0.000264456
0.00366964
0.000407339
0.00409957
0.00058061
0.00449606
0.000784664
0.00485756
0.00101975
0.00518287
0.00128597
0.00547087
0.0015833
0.0057205
0.00191155
0.00593067
0.00227039
0.00610029
0.00265932
0.00622831
0.00307766
0.00631379
0.00352456
0.00635593
0.00399899
0.00635415
0.00449974
0.00630818
0.00502544
0.00621806
0.00557462
0.00608423
0.0061457
0.00590758
0.00673715
0.00568958
0.00734766
0.00543258
0.00797639
0.00514061
0.00862336
0.00482173
0.00928949
0.00449515
0.00421377
0.00997413
-1.00554e-05
0.000209505
-2.28564e-05
0.000653096
-2.56841e-05
0.00115224
-9.88024e-06
0.00166357
3.02944e-05
0.00216664
9.85542e-05
0.00265087
0.000197238
0.00310974
0.000327791
0.00353909
0.000491102
0.00393626
0.000687714
0.00429944
0.00091794
0.00462734
0.00118192
0.00491889
0.00147964
0.00517315
0.00181095
0.00538919
0.00217553
0.00556609
0.00257291
0.00570291
0.00300242
0.0057988
0.00346322
0.00585299
0.00395424
0.00586491
0.00447421
0.00583418
0.00502167
0.00576073
0.00559492
0.0056448
0.00619213
0.00548702
0.00681132
0.00528839
0.00745049
0.0050504
0.00810783
0.00477525
0.00878196
0.00446648
0.00947247
0.00413122
0.0101802
0.00378743
0.00348878
0.0109052
-9.94502e-06
0.00021945
-2.13846e-05
0.000664535
-2.09249e-05
0.00115178
5.34967e-07
0.00164211
4.90329e-05
0.00211814
0.000128461
0.00257145
0.000241262
0.00299694
0.000388924
0.00339143
0.000572324
0.00375286
0.000791952
0.00407982
0.00104804
0.00437125
0.0013406
0.00462632
0.00166951
0.00484424
0.00203446
0.00502424
0.00243499
0.00516556
0.00287046
0.00526745
0.00334002
0.00532924
0.00384262
0.00535039
0.00437698
0.00533054
0.00494159
0.00526957
0.00553469
0.00516763
0.00615428
0.00502521
0.00679815
0.00484315
0.0074639
0.00462263
0.00814907
0.00436524
0.00885125
0.00407307
0.00956848
0.00374925
0.0102998
0.00339993
0.0110457
0.00304147
0.00272733
0.0118072
-9.95043e-06
0.0002294
-2.0207e-05
0.000674792
-1.66818e-05
0.00114826
1.01741e-05
0.00161525
6.66792e-05
0.00206164
0.000156914
0.00248121
0.000283424
0.00287043
0.000447745
0.00322711
0.000650749
0.00354985
0.000892876
0.00383769
0.00117427
0.00408986
0.00149483
0.00430576
0.00185429
0.00448478
0.00225219
0.00462634
0.0026879
0.00472985
0.00316059
0.00479475
0.00366924
0.00482059
0.00421258
0.00480706
0.0047891
0.00475402
0.00539704
0.00466162
0.00603438
0.00453029
0.00669881
0.00436079
0.00738774
0.00415422
0.00809835
0.00391202
0.00882763
0.00363596
0.00957253
0.00332817
0.0103303
0.00299148
0.0110991
0.0026311
0.0118792
0.00226145
0.00193456
0.0126719
-1.0046e-05
0.000239446
-1.92445e-05
0.00068399
-1.28079e-05
0.00114182
1.92509e-05
0.00158319
8.35172e-05
0.00199737
0.000184247
0.00238048
0.000324088
0.00273059
0.000504621
0.00304657
0.000726717
0.00332776
0.000990767
0.00357364
0.00129682
0.00378381
0.00164467
0.00395791
0.0020339
0.00409555
0.00246389
0.00419635
0.00293383
0.0042599
0.00344272
0.00428586
0.00398932
0.004274
0.00457216
0.00422422
0.00518952
0.00413666
0.00583941
0.00401173
0.00651955
0.00385015
0.00722733
0.00365301
0.00795983
0.00342173
0.00871376
0.00315809
0.00948553
0.00286418
0.0102713
0.0025424
0.0110673
0.00219553
0.0118703
0.00182803
0.0126795
0.00145229
0.00111738
0.0134967
-1.01929e-05
0.000249639
-1.83771e-05
0.000692174
-9.07381e-06
0.00113252
2.81185e-05
0.001546
0.000100033
0.00192546
0.000211082
0.00226943
0.000364006
0.00257766
0.000560427
0.00285015
0.000801213
0.00308697
0.00108671
0.00328814
0.00141687
0.00345365
0.00179137
0.00358341
0.00220965
0.00367727
0.00267093
0.00373507
0.00317423
0.00375661
0.00371834
0.00374176
0.00430183
0.0036905
0.00492305
0.00360301
0.00558005
0.00347965
0.00627065
0.00332113
0.00699233
0.00312848
0.00774222
0.00290311
0.00851708
0.00264687
0.0093132
0.00236197
0.0101263
0.00205104
0.0109517
0.00171701
0.0117842
0.0013631
0.0126186
0.000993579
0.0134517
0.000619198
0.000285188
0.0142839
-1.03403e-05
0.000259979
-1.74486e-05
0.000699282
-5.17872e-06
0.00112025
3.72538e-05
0.00150357
0.000116901
0.00184581
0.000238311
0.00214802
0.000404302
0.00241167
0.000616531
0.00263792
0.00087586
0.00282764
0.00118258
0.00298143
0.00153655
0.00309967
0.00193735
0.00318261
0.00238425
0.00323037
0.00287631
0.00324301
0.00341236
0.00322055
0.00399102
0.0031631
0.00461066
0.00307087
0.00526942
0.00294425
0.00596516
0.00278391
0.00669549
0.0025908
0.00745769
0.00236628
0.00824868
0.00211212
0.00906496
0.00183059
0.00990246
0.00152447
0.0107564
0.0011971
0.011621
0.000852417
0.0124893
0.000494793
0.0133534
0.000129434
0.0142059
-0.000233273
-0.00055071
0.0150418
-1.04279e-05
0.000270407
-1.62725e-05
0.000705127
-7.60868e-07
0.00110474
4.72381e-05
0.00145557
0.000134959
0.00175809
0.000267062
0.00201592
0.000446427
0.00223231
0.000674739
0.00240961
0.000952842
0.00254954
0.00128097
0.0026533
0.00165889
0.00272174
0.00208605
0.00275545
0.00256159
0.00275484
0.00308438
0.00272022
0.00365306
0.00265186
0.00426604
0.00255012
0.00492148
0.00241543
0.00561729
0.00224844
0.00635113
0.00205006
0.00712039
0.00182154
0.00792215
0.00156452
0.00875315
0.00128111
0.00960974
0.000973998
0.0104877
0.000646484
0.0113822
0.000302673
0.0122868
-5.21781e-05
0.0131931
-0.000411552
0.0140892
-0.000766713
0.0149585
-0.00110255
-0.00137958
0.0157874
-1.03885e-05
0.000280795
-1.46395e-05
0.000709378
4.59145e-06
0.00108551
5.87311e-05
0.00140143
0.000155166
0.00166165
0.000298637
0.00187245
0.000492077
0.00203887
0.000737179
0.00216451
0.00103476
0.00225196
0.00138498
0.00230308
0.00178752
0.00231921
0.00224166
0.0023013
0.00274639
0.00225011
0.00330038
0.00216623
0.00390205
0.0020502
0.00454956
0.00190261
0.0052408
0.00172419
0.00597342
0.00151582
0.0067448
0.00127869
0.00755204
0.00101429
0.00839199
0.000724565
0.00926122
0.000411885
0.010156
7.91947e-05
0.0110724
-0.000269899
0.012006
-0.000630912
0.0129519
-0.000998079
0.0139039
-0.00136355
0.0148518
-0.00171463
0.0157691
-0.00201989
0.0165608
-0.00217127
0.00279058
0.0587652
-0.0594398
0.00360432
0.053384
-0.0541977
0.00441307
0.0478563
-0.0486651
0.00519536
0.0435875
-0.0443698
0.00587519
0.0409347
-0.0416146
0.00640844
0.0396644
-0.0401977
0.00677596
0.0393511
-0.0397186
0.0069833
0.0395826
-0.0397899
0.00705353
0.040083
-0.0401532
0.00701574
0.040716
-0.0406782
0.00689738
0.0414397
-0.0413213
0.00672011
0.042237
-0.0420597
0.00649862
0.0430942
-0.0428727
0.00624356
0.0439854
-0.0437303
0.0059621
0.0448823
-0.0446008
0.00565964
0.0457637
-0.0454612
0.00534084
0.0466111
-0.0462922
0.00500947
0.0474142
-0.0470828
0.00466854
0.0481678
-0.0478269
0.00432053
0.0488674
-0.0485194
0.0039674
0.0495093
-0.0491562
0.00361068
0.0500942
-0.0497375
0.0032514
0.0506197
-0.0502604
0.00289062
0.0510849
-0.0507241
0.00252833
0.0514892
-0.0511269
0.00216511
0.0518317
-0.0514684
0.00180048
0.0521161
-0.0517514
0.00143584
0.0523616
-0.051997
0.00107363
0.0525815
-0.0522193
0.0527419
-0.0523866
0.0026237
0.0580508
0.00350323
0.0525044
0.00437913
0.0469804
0.00522621
0.0427404
0.00596012
0.0402008
0.00653439
0.0390902
0.00693036
0.0389551
0.00715553
0.0393574
0.00723518
0.0400033
0.00720083
0.0407504
0.00708162
0.0415589
0.00690106
0.0424175
0.00667443
0.0433209
0.00641326
0.0442465
0.00612445
0.0451711
0.00581395
0.0460742
0.00548639
0.0469386
0.00514545
0.0477552
0.00479436
0.0485189
0.0044358
0.0492259
0.00407143
0.0498736
0.00370327
0.0504624
0.00333226
0.0509907
0.00295935
0.0514578
0.0025851
0.0518635
0.00220965
0.0522071
0.00183307
0.0524927
0.0014568
0.0527379
0.0010831
0.0529552
0.0531087
0.00247219
0.0573054
0.00341167
0.051565
0.00435144
0.0460407
0.00526076
0.0418311
0.0060473
0.0394143
0.00666175
0.0384757
0.00708571
0.0385312
0.00732855
0.0391146
0.00741754
0.0399144
0.00738666
0.0407812
0.00726664
0.0416789
0.0070828
0.0426014
0.00685109
0.0435526
0.00658383
0.0445138
0.00628782
0.0454671
0.00596939
0.0463926
0.00563321
0.0472748
0.00528284
0.0481055
0.00492167
0.0488801
0.00455262
0.049595
0.00417707
0.0502492
0.00379747
0.050842
0.00341471
0.0513735
0.00302966
0.0518428
0.00264338
0.0522498
0.00225562
0.0525949
0.00186694
0.0528813
0.00147886
0.053126
0.00109335
0.0533407
0.0534874
0.00234253
0.0565384
0.00333449
0.050573
0.00433324
0.0450419
0.00530102
0.0408633
0.00613781
0.0385775
0.00679102
0.0378225
0.00724218
0.03808
0.00750232
0.0388544
0.00760052
0.0398161
0.00757301
0.0408088
0.00745227
0.0417996
0.00726507
0.0427886
0.00702845
0.0437892
0.00675505
0.0447872
0.00645208
0.04577
0.00612583
0.0467188
0.00578108
0.0476196
0.00542147
0.0484651
0.00505032
0.0492512
0.00467078
0.0499745
0.00428424
0.0506357
0.00389317
0.0512331
0.00349866
0.051768
0.00310152
0.05224
0.00270303
0.0526482
0.00230298
0.0529949
0.00190207
0.0532822
0.00150192
0.0535262
0.00110441
0.0537382
0.0538785
0.00224187
0.0557588
0.00327687
0.049538
0.00432813
0.0439907
0.00534917
0.0398423
0.00623279
0.0376939
0.00692269
0.0371326
0.00739991
0.0376028
0.00767676
0.0385776
0.00778394
0.039709
0.00775967
0.040833
0.00763829
0.041921
0.00744773
0.0429791
0.0072063
0.0440306
0.00692674
0.0450668
0.00661697
0.0460798
0.00628305
0.0470528
0.00592981
0.0479728
0.00556112
0.0488338
0.00518016
0.0496322
0.00479014
0.0503646
0.00439275
0.0510331
0.00399022
0.0516356
0.00358393
0.0521743
0.00317479
0.0526491
0.00276397
0.0530591
0.00235165
0.0534072
0.00193839
0.0536955
0.00152593
0.0539386
0.0011162
0.054148
0.0542823
0.00217797
0.0549757
0.00324455
0.0484714
0.00433986
0.0428953
0.00540747
0.0387747
0.00633349
0.0367679
0.00705729
0.0364088
0.00755905
0.037101
0.00785181
0.0382848
0.00796766
0.0395931
0.00794648
0.0408542
0.00782447
0.042043
0.00763057
0.043173
0.00738438
0.0442768
0.00709879
0.0453523
0.00678228
0.0463963
0.00644085
0.0473942
0.00607925
0.0483344
0.00570161
0.0492115
0.005311
0.0500228
0.00491059
0.050765
0.00450241
0.0514413
0.00408852
0.0520495
0.00367046
0.0525923
0.00324934
0.0530702
0.00282617
0.0534822
0.00240151
0.0538319
0.00197581
0.0541212
0.00155086
0.0543636
0.00112867
0.0545702
0.0546992
0.00215877
0.0541979
0.00324346
0.0473867
0.00437248
0.0417663
0.00547834
0.0376688
0.0064412
0.035805
0.00719542
0.0356546
0.00771976
0.0365767
0.00802741
0.0379772
0.00815153
0.039469
0.00813326
0.0408725
0.00801059
0.0421657
0.00781339
0.0433702
0.00756248
0.0445277
0.007271
0.0456438
0.00694783
0.0467195
0.00659904
0.047743
0.00622926
0.0487042
0.00584275
0.049598
0.00544264
0.0504229
0.00503199
0.0511756
0.00461307
0.0518602
0.00418792
0.0524746
0.00375814
0.0530221
0.00332502
0.0535033
0.00288952
0.0539177
0.00245246
0.0542689
0.00201425
0.0545594
0.00157665
0.0548012
0.00114175
0.0550051
0.0551295
0.00219219
0.0534337
0.00327973
0.0462992
0.00443016
0.0406159
0.00556436
0.0365346
0.0065573
0.0348121
0.0073377
0.0348742
0.00788221
0.0360322
0.00820351
0.0376559
0.00833535
0.0393372
0.00831981
0.040888
0.00819643
0.0422891
0.00799599
0.0435707
0.0077404
0.0447833
0.00744318
0.045941
0.00711345
0.0470492
0.00675743
0.048099
0.00637963
0.049082
0.00598439
0.0499932
0.0055749
0.0508324
0.00515416
0.0515963
0.00472458
0.0522898
0.00428826
0.052911
0.00384683
0.0534635
0.00340173
0.0539484
0.0029539
0.0543656
0.00250441
0.0547184
0.00205362
0.0550102
0.00160323
0.0552515
0.00115539
0.0554529
0.0555734
0.00228583
0.0526912
0.00335954
0.0452255
0.00451724
0.0394582
0.00566824
0.0353836
0.00668327
0.033797
0.00748482
0.0340726
0.00804662
0.0354704
0.00838008
0.0373224
0.00851897
0.0391983
0.00850593
0.040901
0.00838177
0.0424132
0.00817815
0.0437743
0.00791796
0.0450435
0.00761512
0.0462439
0.00727895
0.0473854
0.00691584
0.0484621
0.0065302
0.0494676
0.00612637
0.050397
0.00570764
0.0512511
0.00527696
0.052027
0.00483682
0.05273
0.0043894
0.0533584
0.0039364
0.0539165
0.00347935
0.0544055
0.00301922
0.0548257
0.00255724
0.0551804
0.00209383
0.0554736
0.00163053
0.0557148
0.00116953
0.0559139
0.0560313
0.00244663
0.051978
0.00348886
0.0441833
0.00463804
0.038309
0.0057928
0.0342288
0.00682069
0.0327692
0.00763754
0.0332558
0.00821322
0.0348947
0.00855709
0.0369786
0.00870222
0.0390531
0.00869141
0.0409119
0.0085664
0.0425382
0.00835966
0.043981
0.00809495
0.0453082
0.00778662
0.0465522
0.00744415
0.0477279
0.00707409
0.0488322
0.00668077
0.0498609
0.00626852
0.0508093
0.00584068
0.0516789
0.0054002
0.0524675
0.00494963
0.0531805
0.0044912
0.0538168
0.0040267
0.054381
0.00355775
0.0548745
0.00308536
0.0552981
0.00261086
0.0556549
0.00213478
0.0559497
0.00165851
0.0561911
0.00118415
0.0563883
0.0565032
0.0026805
0.0513015
0.00367328
0.0431905
0.00479678
0.0371855
0.00594094
0.0330847
0.00697125
0.0317388
0.00779666
0.0324304
0.0083823
0.034309
0.00873453
0.0366263
0.00888495
0.0389027
0.00887604
0.0409208
0.00875009
0.0426642
0.0085403
0.0441908
0.00827117
0.0455773
0.00795748
0.0468659
0.00760887
0.0480765
0.00723201
0.049209
0.00683119
0.0502618
0.00641069
0.0512298
0.00597389
0.0521157
0.00552374
0.0529177
0.00506288
0.0536414
0.00459353
0.0542862
0.00411762
0.054857
0.0036368
0.0553553
0.00315221
0.0557827
0.00266518
0.0561419
0.00217638
0.0564385
0.00168707
0.0566804
0.0011992
0.0568761
0.0569895
0.00299195
0.0506685
0.00391763
0.0422648
0.00499739
0.0361058
0.00611545
0.0319666
0.00713665
0.0307176
0.00796306
0.031604
0.00855418
0.0337179
0.00891242
0.0362681
0.00906702
0.0387481
0.00905962
0.0409282
0.00893263
0.0427912
0.00871986
0.0444036
0.00844641
0.0458508
0.00812749
0.0471848
0.00777293
0.048431
0.00738943
0.0495925
0.00698128
0.0506699
0.0065527
0.0516584
0.00610712
0.0525613
0.00564743
0.0533774
0.00517643
0.0541124
0.00469626
0.0547663
0.00420903
0.0553442
0.0037164
0.0558479
0.00321964
0.0562794
0.00272009
0.0566415
0.00221856
0.05694
0.00171615
0.0571828
0.00121464
0.0573776
0.0574902
0.00338382
0.050086
0.0042257
0.0414229
0.0052433
0.0350882
0.00631899
0.0308909
0.00731862
0.029718
0.00813764
0.0307849
0.00872922
0.0331263
0.00909076
0.0359066
0.00924828
0.0385906
0.00924193
0.0409345
0.0091138
0.0429193
0.00889809
0.0446193
0.00862046
0.0461284
0.00829648
0.0475088
0.00793614
0.0487914
0.00754617
0.0499825
0.00713089
0.0510852
0.00669441
0.0520949
0.00624022
0.0530155
0.00577115
0.0538464
0.00529015
0.0545934
0.00479927
0.0552572
0.00430082
0.0558426
0.00379644
0.0563523
0.00328756
0.0567883
0.00277551
0.0571535
0.00226122
0.0574543
0.00174568
0.0576984
0.00123044
0.0578929
0.0580056
0.00385692
0.0495605
0.00459987
0.04068
0.00553717
0.0341509
0.00655383
0.0298743
0.00751877
0.0287531
0.0083213
0.0299824
0.00890779
0.0325398
0.00926959
0.0355448
0.00942863
0.0384316