/*--------------------------------*- C++ -*----------------------------------*\
  =========                 |
  \\      /  F ield         | OpenFOAM: The Open Source CFD Toolbox
   \\    /   O peration     | Website:  https://openfoam.org
    \\  /    A nd           | Version:  7
     \\/     M anipulation  |
\*---------------------------------------------------------------------------*/
FoamFile
{
    version     2.0;
    format      ascii;
    class       volVectorField;
    location    "15";
    object      U;
}
// * * * * * * * * * * * * * * * * * * * * * * * * * * * * * * * * * * * * * //

dimensions      [0 1 -1 0 0 0 0];

internalField   nonuniform List<vector> 
2000
(
(0.00402616 0.000643406 -9.37694e-23)
(0.025696 0.0494591 0)
(0.0673452 0.12094 0)
(0.113644 0.200401 -1.47292e-21)
(0.156228 0.275389 8.7606e-22)
(0.189061 0.337652 3.97416e-22)
(0.210005 0.383932 -1.59096e-21)
(0.220041 0.414725 0)
(0.221168 0.432699 0)
(0.218134 0.440984 0)
(0.00395139 -0.00527702 0)
(0.0196377 0.0316786 -9.39752e-22)
(0.0513546 0.0932949 8.66402e-22)
(0.0885511 0.166988 2.05934e-21)
(0.125544 0.241882 0)
(0.156879 0.309131 3.06954e-21)
(0.179409 0.363459 -2.85425e-21)
(0.192665 0.40318 0)
(0.197344 0.429298 9.28761e-21)
(0.197241 0.444353 -1.87547e-20)
(0.00476699 -0.0101149 0)
(0.0165049 0.0162729 8.22311e-21)
(0.0399994 0.067863 0)
(0.0684125 0.133882 8.66815e-21)
(0.0984831 0.205519 0)
(0.126102 0.274576 -9.74271e-21)
(0.148053 0.334794 0)
(0.162961 0.382688 1.46549e-20)
(0.170428 0.417392 -1.37254e-20)
(0.172803 0.440489 -1.5871e-20)
(0.00617209 -0.0139434 -2.04267e-21)
(0.0154963 0.00332283 -4.0085e-21)
(0.0324459 0.0452725 -2.09689e-21)
(0.0530685 0.10259 -4.04768e-21)
(0.0758962 0.168433 -4.26784e-21)
(0.0983061 0.235992 4.57653e-21)
(0.117687 0.299103 4.80436e-21)
(0.132386 0.353256 -1.76883e-21)
(0.141402 0.395951 1.22101e-20)
(0.145186 0.427523 1.58682e-20)
(0.00785665 -0.0168041 -2.1354e-21)
(0.0157573 -0.00721469 -4.90509e-21)
(0.0275731 0.0257606 -9.95019e-21)
(0.0416934 0.0740569 4.44282e-21)
(0.057793 0.132429 0)
(0.0744502 0.195636 0)
(0.0899029 0.258364 -1.06165e-20)
(0.102696 0.315952 -1.17516e-20)
(0.111837 0.36493 1.14789e-20)
(0.115419 0.404062 4.17469e-20)
(0.00949449 -0.0187082 2.56357e-21)
(0.0164406 -0.0154662 2.81345e-21)
(0.02417 0.00925364 -1.56139e-20)
(0.0330609 0.0486403 2.43538e-20)
(0.0434335 0.0986586 -4.49592e-21)
(0.0546452 0.15545 0)
(0.0656776 0.214848 0)
(0.0754863 0.272691 5.19597e-20)
(0.0835629 0.325411 -5.55516e-20)
(0.0852185 0.36984 1.30971e-20)
(0.0107479 -0.0196399 2.30359e-20)
(0.01678 -0.0215886 0)
(0.0211362 -0.0044841 2.04298e-20)
(0.025892 0.0262796 -1.94889e-20)
(0.031684 0.0676046 0)
(0.0382895 0.116716 9.7214e-21)
(0.0451869 0.170532 -2.81863e-20)
(0.0517701 0.225688 -4.0704e-20)
(0.0581977 0.279297 1.95462e-20)
(0.0566648 0.325598 2.29118e-20)
(0.0112885 -0.0195778 -4.82991e-20)
(0.0161714 -0.0257358 -5.93905e-21)
(0.0176539 -0.0156938 -1.1724e-20)
(0.0191761 0.00678016 -2.67904e-20)
(0.0214692 0.0393655 -1.02819e-20)
(0.0244931 0.080114 -1.06544e-20)
(0.0280089 0.126811 -9.47787e-22)
(0.0318469 0.176932 0)
(0.036707 0.22865 0)
(0.0320014 0.273586 -2.54764e-21)
(0.0108408 -0.0185383 2.52639e-20)
(0.0142424 -0.0280368 -2.5553e-20)
(0.0133057 -0.024495 1.68814e-20)
(0.0123883 -0.00990534 3.84203e-20)
(0.0121473 0.0140806 -1.04629e-20)
(0.0125707 0.0461537 9.30461e-21)
(0.0135858 0.0847186 1.00844e-20)
(0.0154952 0.128007 0)
(0.0194845 0.175108 0)
(0.0132718 0.215056 2.4756e-21)
(0.00924262 -0.0166066 -3.53148e-21)
(0.0109108 -0.0285966 3.21821e-20)
(0.00812045 -0.030825 -6.10812e-21)
(0.005572 -0.023479 0)
(0.00369047 -0.00766059 0)
(0.00237757 0.0157695 2.16637e-20)
(0.00160578 0.0456026 0)
(0.00210543 0.0804705 -2.38301e-20)
(0.00591011 0.119307 -1.12661e-21)
(0.00449255 0.150497 2.22193e-20)
(0.1936 0.44305 1.14415e-21)
(0.152519 0.422542 -1.16631e-21)
(0.117333 0.405332 -1.47369e-21)
(0.0900802 0.395301 -1.61499e-21)
(0.0600266 0.390473 -1.78141e-21)
(0.0359074 0.389401 -7.66825e-24)
(0.00751948 0.393269 9.10966e-22)
(-0.00947757 0.406597 2.87887e-21)
(-0.0295319 0.432453 0)
(-0.016972 0.483414 -1.99759e-21)
(0.181923 0.453041 3.03184e-21)
(0.145264 0.432727 -5.36986e-21)
(0.112777 0.414396 9.73402e-21)
(0.0874231 0.403824 1.61788e-21)
(0.0590423 0.398592 3.34178e-21)
(0.0365632 0.397045 5.31502e-21)
(0.0098225 0.400115 -1.86381e-21)
(-0.00590453 0.411723 -1.91509e-21)
(-0.0247644 0.433828 3.79399e-21)
(-0.0143034 0.476656 1.99293e-21)
(0.168241 0.460077 0)
(0.13742 0.441857 -4.65768e-21)
(0.108234 0.423111 -2.85661e-21)
(0.0848682 0.411927 0)
(0.0581522 0.406174 -1.00809e-20)
(0.0373201 0.404108 3.26776e-21)
(0.0121628 0.406357 3.4401e-21)
(-0.00242025 0.416354 1.08918e-20)
(-0.0202643 0.435107 -3.78168e-21)
(-0.0117308 0.470966 7.53717e-21)
(0.152333 0.462702 0)
(0.128711 0.448968 4.69874e-21)
(0.103515 0.431004 0)
(0.0822716 0.41938 1.23419e-20)
(0.0572568 0.413118 -1.24029e-20)
(0.0380866 0.410573 -6.81821e-21)
(0.014471 0.412014 -1.93262e-22)
(0.000945148 0.420547 -1.06867e-20)
(-0.0160311 0.436347 -1.78042e-21)
(-0.00930503 0.466438 -9.32038e-21)
(0.134037 0.459863 5.55135e-21)
(0.11918 0.45457 -9.47292e-21)
(0.0987791 0.438701 1.36088e-21)
(0.0797008 0.426467 -1.10359e-20)
(0.0563787 0.419577 0)
(0.0388431 0.416533 -6.62889e-21)
(0.0166907 0.417171 -1.75736e-22)
(0.00408894 0.424342 1.38507e-20)
(-0.0121393 0.437535 1.76308e-21)
(-0.00706775 0.46278 -1.76984e-21)
(0.113716 0.449265 -2.22626e-20)
(0.108367 0.456065 1.84399e-20)
(0.0934799 0.444577 1.06873e-20)
(0.076855 0.432504 -1.06758e-20)
(0.0553434 0.42527 -5.93836e-21)
(0.0394591 0.421817 0)
(0.0188001 0.42181 -1.30699e-20)
(0.00713264 0.427888 6.48628e-21)
(-0.00845053 0.438989 6.73124e-21)
(-0.00499899 0.460165 6.76257e-21)
(0.0917546 0.43224 -2.56625e-21)
(0.0972877 0.457136 0)
(0.0883581 0.450894 0)
(0.074066 0.438541 0)
(0.0543489 0.430798 -6.08911e-21)
(0.0400282 0.4268 1.20059e-20)
(0.0206914 0.426047 1.28608e-20)
(0.00975913 0.431005 -1.9348e-20)
(-0.00530463 0.4402 3.28258e-21)
(-0.00324015 0.457835 -9.95033e-21)
(0.0689642 0.403117 1.29035e-20)
(0.0840948 0.449816 1.76008e-20)
(0.0818314 0.452847 -1.74226e-20)
(0.0707474 0.442621 2.21943e-20)
(0.0530109 0.435079 -2.76001e-20)
(0.0403062 0.430811 0)
(0.022601 0.429787 -6.06239e-21)
(0.0127049 0.434219 1.76388e-22)
(-0.0019136 0.442221 -6.19925e-21)
(-0.00149003 0.457269 -6.22325e-21)
(0.0471478 0.375416 -1.05696e-20)
(0.0732154 0.448372 0)
(0.0761891 0.457522 -2.21008e-20)
(0.0675873 0.448062 4.12449e-20)
(0.051846 0.44029 -1.57247e-20)
(0.0405023 0.435231 -2.86389e-21)
(0.0237072 0.433164 6.04949e-21)
(0.0142271 0.436407 4.6447e-23)
(5.95065e-05 0.442777 9.09409e-21)
(-0.000346925 0.455188 9.12738e-21)
(0.0237459 0.319827 -1.24567e-20)
(0.0563825 0.4267 1.20844e-20)
(0.0677702 0.452943 2.19887e-21)
(0.063882 0.449309 0)
(0.0501014 0.442317 0)
(0.0405691 0.437622 2.76314e-21)
(0.0262348 0.436329 1.12944e-20)
(0.0183614 0.440216 -1.10998e-20)
(0.00434498 0.446725 -2.81757e-21)
(0.00154872 0.458164 2.77158e-21)
(-0.00313047 0.296024 0)
(0.0360896 0.426155 0)
(0.0479467 0.460479 0)
(0.0518782 0.464401 0)
(0.045855 0.45873 0)
(0.0377774 0.449396 0)
(0.0210038 0.441219 0)
(0.0120282 0.439352 0)
(0.000746779 0.440254 0)
(0.00105628 0.445585 0)
(-0.0240882 0.258743 0)
(0.0245681 0.405014 0)
(0.0285352 0.446722 0)
(0.0309881 0.451567 0)
(0.0288572 0.449162 0)
(0.0352372 0.451917 0)
(0.0346097 0.456449 0)
(0.0334593 0.462539 0)
(0.0204337 0.470207 0)
(0.0091751 0.478463 0)
(-0.0230887 0.26116 0)
(0.008292 0.376234 0)
(0.0233336 0.444252 0)
(0.0397593 0.466982 0)
(0.0350035 0.462779 0)
(0.0264138 0.454657 0)
(0.0143231 0.451881 0)
(0.0114003 0.451498 0)
(0.0035426 0.453746 0)
(0.00338722 0.458869 0)
(0.0143272 0.305892 0)
(3.06819e-05 0.351457 0)
(0.00146846 0.404018 0)
(0.0204532 0.435436 0)
(0.0304652 0.452354 0)
(0.0381043 0.462393 0)
(0.0322913 0.470373 0)
(0.0271754 0.480036 0)
(0.0124643 0.488692 0)
(0.00565462 0.495744 0)
(0.0767772 0.377903 0)
(0.0359222 0.388666 0)
(0.0236008 0.42297 0)
(0.0297342 0.444675 0)
(0.0263007 0.452414 0)
(0.025317 0.457213 0)
(0.0169437 0.459223 0)
(0.014057 0.463103 0)
(0.00454141 0.46633 0)
(0.00294385 0.46848 0)
(0.140007 0.42865 0)
(0.0855005 0.412611 0)
(0.045419 0.410225 0)
(0.0396889 0.425183 0)
(0.0413519 0.446375 0)
(0.0477031 0.468169 0)
(0.0425341 0.48586 0)
(0.0371264 0.500766 0)
(0.0228819 0.510019 0)
(0.0100156 0.513931 0)
(0.192215 0.473149 0)
(0.164727 0.488053 0)
(0.122368 0.478736 0)
(0.0872399 0.461223 0)
(0.0592984 0.451666 0)
(0.0470701 0.454895 0)
(0.035534 0.464237 0)
(0.0293312 0.476087 0)
(0.0190487 0.485636 0)
(0.00969007 0.490511 0)
(0.211321 0.4517 0)
(0.198427 0.480923 0)
(0.170084 0.484933 0)
(0.144086 0.481631 0)
(0.116515 0.482902 0)
(0.0975132 0.494242 0)
(0.0771442 0.510189 0)
(0.0602673 0.526275 0)
(0.0379191 0.540511 0)
(0.0163154 0.552491 0)
(0.232898 0.461405 0)
(0.249598 0.534204 0)
(0.226286 0.543093 0)
(0.189876 0.521739 0)
(0.145886 0.497603 0)
(0.110911 0.48922 0)
(0.0797916 0.495311 0)
(0.0582575 0.507843 0)
(0.033855 0.521299 0)
(0.0137124 0.535448 0)
(0.193066 0.34687 0)
(0.24524 0.474143 0)
(0.258701 0.540004 0)
(0.24919 0.5621 0)
(0.218236 0.562766 0)
(0.181705 0.562685 0)
(0.139158 0.569222 0)
(0.100686 0.581137 0)
(0.0586993 0.594572 0)
(0.0208358 0.60808 0)
(-0.0269367 0.14155 1.36566e-20)
(-0.0102359 0.170686 -1.34063e-20)
(0.0288922 0.239265 1.89362e-21)
(0.0811853 0.31828 0)
(0.132273 0.39004 0)
(0.171517 0.423337 1.11895e-21)
(0.195201 0.435037 -3.14652e-21)
(0.19622 0.391591 3.08908e-21)
(0.188272 0.359721 2.21245e-22)
(0.146379 0.237016 -2.16306e-22)
(-0.00839354 0.0921457 -1.36108e-20)
(0.0160835 0.153957 0)
(0.0596834 0.248367 1.17988e-20)
(0.107231 0.33388 -2.51039e-20)
(0.147769 0.396532 1.40757e-20)
(0.176104 0.416464 -1.1151e-21)
(0.188704 0.411943 1.67018e-21)
(0.18258 0.358201 2.22307e-21)
(0.167623 0.316382 -2.52217e-23)
(0.128292 0.194713 -1.72286e-22)
(0.0142926 0.070269 1.68777e-20)
(0.0472703 0.165011 -1.41474e-20)
(0.0904781 0.271177 1.40162e-20)
(0.129382 0.351004 -1.07617e-20)
(0.158677 0.397731 8.12964e-21)
(0.176515 0.402175 0)
(0.179263 0.382505 -1.67395e-21)
(0.167014 0.320386 -7.62542e-23)
(0.146101 0.270606 -7.82718e-22)
(0.109964 0.152794 -3.31984e-23)
(0.0442711 0.0822723 -3.11616e-21)
(0.0847114 0.196877 0)
(0.119641 0.298713 0)
(0.146873 0.363109 0)
(0.164376 0.390936 6.23718e-21)
(0.172001 0.379981 -4.07917e-21)
(0.166028 0.34685 1.49983e-22)
(0.148621 0.278344 -8.99429e-22)
(0.12395 0.223359 -1.8515e-22)
(0.0920479 0.111998 1.86537e-22)
(0.0843825 0.12262 2.19422e-21)
(0.121451 0.237047 -9.57025e-21)
(0.143341 0.322121 -5.24823e-21)
(0.157765 0.366091 5.2446e-21)
(0.164284 0.374935 -2.12805e-21)
(0.162871 0.350008 0)
(0.149739 0.305734 -1.46549e-21)
(0.128488 0.233246 1.93761e-21)
(0.102069 0.175878 -8.66367e-22)
(0.0751482 0.0733197 -2.77882e-24)
(0.127659 0.175562 -2.16745e-20)
(0.151754 0.273183 3.24689e-21)
(0.159377 0.335297 8.14074e-22)
(0.161908 0.358037 4.67931e-21)
(0.158959 0.349713 0)
(0.149872 0.313037 0)
(0.131142 0.260298 0)
(0.10744 0.186411 9.23312e-22)
(0.0811171 0.129351 0)
(0.0594991 0.0377633 0)
(0.167477 0.225786 0)
(0.173372 0.297718 7.26978e-21)
(0.167531 0.33554 -4.84556e-21)
(0.16 0.338878 -3.50156e-21)
(0.149216 0.316152 3.51931e-21)
(0.133858 0.2703 1.29317e-21)
(0.111105 0.211942 -1.39784e-21)
(0.0863928 0.139269 -3.19836e-21)
(0.0616728 0.0849645 3.05225e-22)
(0.0451234 0.00620054 1.00348e-22)
(0.198121 0.263902 0)
(0.185882 0.307534 -2.42772e-21)
(0.168599 0.322756 -8.87314e-22)
(0.153081 0.309755 0)
(0.136021 0.27569 6.69137e-22)
(0.115784 0.223324 -1.94971e-21)
(0.0905622 0.162234 1.60926e-21)
(0.0662467 0.093284 3.78358e-22)
(0.0442201 0.0438783 -2.79365e-22)
(0.0326584 -0.0208387 -2.63361e-23)
(0.21709 0.285439 1.93489e-21)
(0.190129 0.302467 1.76546e-21)
(0.163947 0.298439 -5.22364e-22)
(0.142329 0.272482 3.2627e-22)
(0.12039 0.230071 6.7452e-22)
(0.0966367 0.173814 8.59469e-22)
(0.0704478 0.112798 -2.31972e-22)
(0.0478422 0.0498573 -1.79258e-22)
(0.0293724 0.00715299 2.80278e-22)
(0.0236915 -0.0433781 8.57366e-24)
(0.224948 0.289698 -4.10533e-22)
(0.187676 0.284265 4.19371e-22)
(0.155083 0.264903 -3.73169e-22)
(0.12891 0.22916 -3.25747e-22)
(0.10333 0.181167 2.59882e-22)
(0.0773953 0.123537 -5.26611e-22)
(0.0516284 0.0652002 3.29443e-22)
(0.031848 0.0101416 8.11558e-23)
(0.0175446 -0.0246866 0)
(0.0163508 -0.0621211 -8.58968e-24)
(0.224 0.278858 3.44321e-22)
(0.180251 0.255675 -3.51546e-22)
(0.143396 0.224699 -2.57657e-22)
(0.113919 0.181938 -2.33555e-22)
(0.0858158 0.130867 -2.26958e-22)
(0.0589971 0.0742117 2.19587e-23)
(0.0348253 0.0208332 1.0024e-22)
(0.0186341 -0.0250144 2.401e-22)
(0.0087876 -0.0514754 0)
(0.0107749 -0.0777172 -2.02309e-23)
(0.216887 0.256408 0)
(0.169426 0.219585 -1.0059e-21)
(0.130068 0.180262 1.69824e-21)
(0.0983309 0.132873 2.33885e-22)
(0.0687655 0.0809639 3.799e-22)
(0.0422617 0.0273924 5.75364e-22)
(0.0205762 -0.0191851 -1.88602e-22)
(0.00836695 -0.0551625 -1.50701e-22)
(0.00280514 -0.073493 1.99424e-22)
(0.00684906 -0.0908219 2.01794e-23)
(0.205728 0.225704 0)
(0.156516 0.178609 -8.428e-22)
(0.116048 0.13379 -4.27619e-22)
(0.0829947 0.0838264 0)
(0.0529602 0.0330473 -1.07889e-21)
(0.0276851 -0.0156513 3.34881e-22)
(0.00925499 -0.0541908 3.29483e-22)
(0.00113993 -0.0803422 8.13343e-22)
(-0.000881092 -0.0914107 -1.98773e-22)
(0.00423193 -0.102131 9.64947e-23)
(0.191991 0.189505 0)
(0.142622 0.135018 8.49691e-22)
(0.10217 0.0871711 0)
(0.0685987 0.0363797 1.23188e-21)
(0.0388225 -0.0115452 -1.23836e-21)
(0.0156384 -0.0540483 -6.10828e-22)
(0.0010603 -0.0839882 -9.7102e-24)
(-0.00353751 -0.100966 -7.84867e-22)
(-0.00292628 -0.106098 -1.57181e-22)
(0.00255633 -0.112306 -1.52185e-22)
(0.176774 0.150112 7.47269e-21)
(0.12874 0.090745 -2.80113e-21)
(0.0892234 0.0419563 -1.72774e-22)
(0.0553647 -0.00813938 -1.10168e-21)
(0.026756 -0.051881 0)
(0.00637607 -0.0874041 -5.64381e-22)
(-0.00447418 -0.108684 5.65611e-23)
(-0.00620867 -0.117714 9.91437e-22)
(-0.00384794 -0.1186 5.30554e-23)
(0.00150671 -0.121958 -5.3023e-23)
(0.161057 0.109586 8.12884e-22)
(0.115661 0.047339 4.00166e-21)
(0.077347 -0.00059252 9.9231e-22)
(0.0437621 -0.0488425 -9.91876e-22)
(0.0171399 -0.0874635 -4.90734e-22)
(-0.000171402 -0.115569 0)
(-0.00778812 -0.128839 -9.8835e-22)
(-0.00718959 -0.131604 5.35669e-22)
(-0.00399909 -0.129814 3.71566e-22)
(0.000841014 -0.131526 9.45841e-23)
(0.145671 0.069864 -1.04211e-21)
(0.103728 0.00604312 0)
(0.0668351 -0.0396505 0)
(0.0343318 -0.0851893 0)
(0.00991397 -0.118028 -4.96048e-22)
(-0.00440397 -0.138843 9.85388e-22)
(-0.00915251 -0.145255 9.64459e-22)
(-0.00707143 -0.143606 -1.28816e-21)
(-0.00376722 -0.140486 9.49771e-23)
(0.000400039 -0.141326 -1.87659e-22)
(0.130989 0.0328575 -2.31329e-21)
(0.0931061 -0.032386 2.40177e-21)
(0.0582114 -0.0747494 -2.37996e-21)
(0.0270361 -0.116885 1.81529e-21)
(0.00489927 -0.143629 -2.25651e-21)
(-0.00676177 -0.157802 0)
(-0.00915771 -0.158898 -4.72404e-22)
(-0.00635156 -0.154616 1.35924e-23)
(-0.00340106 -0.151156 -2.64895e-22)
(9.53347e-05 -0.151555 -8.81395e-23)
(0.11687 0.000384144 -1.16806e-21)
(0.0835517 -0.0678557 0)
(0.0516053 -0.105832 -2.18352e-21)
(0.0219727 -0.143939 3.70759e-21)
(0.0019505 -0.164596 -1.33085e-21)
(-0.00763003 -0.173175 -2.42328e-22)
(-0.00841816 -0.17069 4.71331e-22)
(-0.00543828 -0.165351 6.73605e-23)
(-0.00304866 -0.162163 4.93544e-22)
(-0.000111415 -0.162318 1.71361e-22)
(0.106408 -0.0256179 -4.60578e-21)
(0.0750117 -0.100567 4.47981e-21)
(0.046037 -0.133174 2.80006e-22)
(0.0182062 -0.16663 0)
(0.000612629 -0.181381 0)
(-0.00761317 -0.185696 2.4891e-22)
(-0.00740767 -0.181434 8.5677e-22)
(-0.00459886 -0.176311 -8.41444e-22)
(-0.00276005 -0.173682 -8.41171e-23)
(-0.000232635 -0.173657 8.23166e-23)
(0.106201 -0.070183 0)
(0.0580515 -0.168422 0)
(0.0291102 -0.189203 0)
(0.00548204 -0.211508 0)
(-0.00336047 -0.213011 0)
(-0.00613075 -0.210624 0)
(-0.00371041 -0.206325 0)
(-0.00199996 -0.203959 0)
(-0.00162059 -0.202677 0)
(-0.000226045 -0.201956 0)
(0.0318505 -0.247586 0)
(0.00312532 -0.297212 0)
(0.0212851 -0.270021 0)
(0.00548194 -0.28256 0)
(0.00476471 -0.265602 0)
(-0.00225472 -0.267071 0)
(-0.00150912 -0.261464 0)
(-0.00111231 -0.262076 0)
(-0.000236607 -0.25976 0)
(-7.04955e-05 -0.258968 0)
(0.0564469 -0.294012 0)
(0.0344859 -0.318479 0)
(0.0320044 -0.30199 0)
(0.00919075 -0.325551 0)
(0.00888456 -0.311186 0)
(-0.00201877 -0.32016 0)
(0.00207304 -0.31084 0)
(0.000590627 -0.314095 0)
(0.00133463 -0.310974 0)
(-0.00017754 -0.311318 0)
(0.0324721 -0.345418 0)
(0.0181709 -0.376836 0)
(0.0146003 -0.364461 0)
(0.00708058 -0.380793 0)
(0.00767478 -0.366736 0)
(0.000130981 -0.375303 0)
(0.00525901 -0.364932 0)
(-6.16521e-05 -0.371351 0)
(0.00259453 -0.365712 0)
(-0.000368261 -0.367724 0)
(0.0291619 -0.407419 0)
(0.0185396 -0.441571 0)
(0.0160081 -0.42198 0)
(0.0102672 -0.440692 0)
(0.00736442 -0.428165 0)
(0.00274623 -0.437388 0)
(0.00503786 -0.43015 0)
(0.000505641 -0.435994 0)
(0.00369788 -0.429211 0)
(-0.00105232 -0.433376 0)
(0.0218319 -0.481148 0)
(0.0146467 -0.513079 0)
(0.0131509 -0.49242 0)
(0.00700707 -0.514523 0)
(0.00653618 -0.499523 0)
(0.00349713 -0.513034 0)
(0.00412297 -0.503857 0)
(0.00161824 -0.510424 0)
(0.00282457 -0.503832 0)
(-0.00101438 -0.508245 0)
(0.0162031 -0.572273 0)
(0.0111651 -0.605166 0)
(0.00962382 -0.584274 0)
(0.00631542 -0.606013 0)
(0.00519201 -0.590259 0)
(0.00294724 -0.606673 0)
(0.00347598 -0.594185 0)
(0.00194404 -0.604299 0)
(0.00240527 -0.594097 0)
(-0.000330878 -0.600312 0)
(0.0125422 -0.696403 0)
(0.00870212 -0.72558 0)
(0.00708941 -0.705749 0)
(0.00443079 -0.727255 0)
(0.00426644 -0.712238 0)
(0.00257113 -0.728187 0)
(0.0030024 -0.716287 0)
(0.00193796 -0.726993 0)
(0.00134358 -0.715941 0)
(-0.000397908 -0.725247 0)
(0.00721657 -0.845812 0)
(0.00500464 -0.863573 0)
(0.00423278 -0.852711 0)
(0.0025897 -0.867178 0)
(0.00231506 -0.858931 0)
(0.00122704 -0.870615 0)
(0.00143865 -0.862506 0)
(3.66868e-05 -0.869969 0)
(-0.000305304 -0.862535 0)
(-0.00043907 -0.870065 0)
(0.00195292 -0.955464 0)
(0.00130877 -0.963899 0)
(0.000960064 -0.962329 0)
(0.000458105 -0.968475 0)
(0.000434217 -0.966332 0)
(0.000258391 -0.971258 0)
(0.000258611 -0.967672 0)
(-0.000452808 -0.9699 0)
(-0.000493354 -0.965982 0)
(-0.000177547 -0.969369 0)
(0.0942244 -0.103233 8.24628e-21)
(0.0372111 -0.264487 -8.2672e-21)
(0.0573124 -0.308357 1.14956e-21)
(0.0324439 -0.359971 0)
(0.0324603 -0.42396 0)
(0.0228736 -0.499307 1.28237e-21)
(0.0184376 -0.590531 -5.49007e-21)
(0.0133777 -0.711713 5.47988e-21)
(0.00797973 -0.853998 1.48145e-21)
(0.00268998 -0.955002 -1.47656e-21)
(0.090217 -0.116662 -1.02955e-20)
(0.0391732 -0.271782 0)
(0.0567227 -0.312956 7.6311e-21)
(0.0327343 -0.364071 -1.75236e-20)
(0.0338094 -0.428727 1.12295e-20)
(0.023344 -0.504831 -1.1554e-21)
(0.0194544 -0.595878 2.6026e-21)
(0.0137708 -0.71634 5.43255e-21)
(0.00830908 -0.855165 1.53478e-21)
(0.00298678 -0.954095 1.53928e-21)
(0.0863535 -0.131353 1.30305e-20)
(0.0410663 -0.282294 -8.9834e-21)
(0.0560759 -0.318598 8.89914e-21)
(0.0336259 -0.368044 -9.42426e-21)
(0.0353021 -0.433106 6.97849e-21)
(0.0239858 -0.509437 0)
(0.0206108 -0.600119 -2.60911e-21)
(0.0143968 -0.719903 1.73225e-22)
(0.00871034 -0.854978 -2.84622e-21)
(0.00315728 -0.952209 -2.95303e-21)
(0.0825039 -0.144049 -2.12968e-21)
(0.0428386 -0.291919 0)
(0.0557049 -0.324132 0)
(0.0351883 -0.371979 0)
(0.0370115 -0.437495 7.82267e-21)
(0.0249035 -0.513658 -5.19568e-21)
(0.0219533 -0.603996 -1.47974e-23)
(0.0152671 -0.722933 -3.12832e-21)
(0.00925823 -0.854891 -1.63801e-21)
(0.00328444 -0.950076 -1.78667e-21)
(0.079318 -0.154462 -4.5955e-22)
(0.0445636 -0.29886 -6.80498e-21)
(0.0555511 -0.328398 -4.76479e-21)
(0.0373166 -0.375245 4.76205e-21)
(0.0389275 -0.441345 -2.59226e-21)
(0.026123 -0.517317 0)
(0.0234789 -0.60743 -2.95163e-21)
(0.0163126 -0.725516 6.47484e-21)
(0.00996159 -0.855098 -3.33499e-21)
(0.00344706 -0.948115 3.46561e-21)
(0.0772644 -0.162702 -1.94145e-20)
(0.0464722 -0.303699 2.3476e-21)
(0.0556329 -0.331347 -1.71994e-22)
(0.0399195 -0.377505 4.95817e-21)
(0.0410313 -0.444164 0)
(0.0276387 -0.520051 0)
(0.0251572 -0.610085 0)
(0.0174713 -0.727426 3.48918e-21)
(0.0107921 -0.855202 0)
(0.00367424 -0.946291 0)
(0.076475 -0.168353 0)
(0.0487491 -0.307138 7.35824e-21)
(0.0561113 -0.333419 -4.92607e-21)
(0.0429873 -0.378836 -5.54569e-21)
(0.0433543 -0.445789 5.57454e-21)
(0.0294596 -0.52165 3.21435e-21)
(0.0269665 -0.611735 -3.21542e-21)
(0.0187148 -0.728466 -1.25222e-20)
(0.0117021 -0.854859 8.84368e-22)
(0.00394811 -0.944418 -3.12641e-21)
(0.0770433 -0.170946 0)
(0.0514767 -0.30925 -2.4378e-21)
(0.0571717 -0.334826 -1.32173e-21)
(0.0465492 -0.37938 0)
(0.0459714 -0.446212 1.57481e-21)
(0.0316168 -0.522055 -4.81252e-21)
(0.0289149 -0.612285 5.27919e-21)
(0.0200666 -0.728483 1.85461e-21)
(0.0126892 -0.853801 -2.07539e-21)
(0.00426048 -0.942234 4.13888e-21)
(0.079227 -0.170125 2.68903e-21)
(0.0547044 -0.309843 2.59335e-21)
(0.0589786 -0.335465 -6.11152e-22)
(0.0506217 -0.379163 7.47079e-22)
(0.0489653 -0.445414 1.54708e-21)
(0.0341442 -0.521273 2.54187e-21)
(0.0310213 -0.611752 -9.56537e-22)
(0.0215554 -0.727529 -1.02402e-21)
(0.0137446 -0.85208 2.08226e-21)
(0.00460072 -0.939699 1.14609e-21)
(0.0834916 -0.165529 -6.45234e-22)
(0.0585098 -0.308756 6.49614e-22)
(0.0616993 -0.33513 -6.8572e-22)
(0.0552033 -0.378122 -7.46172e-22)
(0.0524056 -0.443327 8.60405e-22)
(0.0370699 -0.519266 -1.74456e-21)
(0.0333206 -0.610085 1.46284e-21)
(0.0232361 -0.725526 5.14815e-22)
(0.0149195 -0.849589 0)
(0.00498777 -0.936704 -1.14859e-21)
(0.0904537 -0.156892 6.60121e-22)
(0.0630055 -0.305822 -6.64698e-22)
(0.0655184 -0.333643 -7.47941e-22)
(0.0602948 -0.376215 -8.15328e-22)
(0.0563481 -0.439893 -9.03503e-22)
(0.0404087 -0.516051 -5.65618e-23)
(0.0358261 -0.607327 5.25507e-22)
(0.0251143 -0.722654 1.67067e-21)
(0.0161952 -0.846575 0)
(0.00541961 -0.933426 -1.27054e-21)
(0.1008 -0.144074 0)
(0.0683706 -0.300633 -2.84038e-21)
(0.0705894 -0.330879 5.18019e-21)
(0.0659144 -0.373429 8.16768e-22)
(0.0608343 -0.435095 1.87201e-21)
(0.0441819 -0.511517 3.0018e-21)
(0.0385866 -0.603351 -1.05713e-21)
(0.0272478 -0.71866 -1.13302e-21)
(0.0176478 -0.842744 2.54774e-21)
(0.00591865 -0.929686 1.26752e-21)
(0.115096 -0.127142 0)
(0.0748552 -0.2925 -2.70396e-21)
(0.0769741 -0.32686 -1.57394e-21)
(0.0721084 -0.369763 0)
(0.0659105 -0.429003 -5.86432e-21)
(0.0483855 -0.505744 1.98209e-21)
(0.0415951 -0.598386 2.30926e-21)
(0.0295945 -0.713903 7.35852e-21)
(0.0191966 -0.83855 -2.53951e-21)
(0.00646795 -0.925798 5.57794e-21)
(0.133483 -0.106479 0)
(0.0827976 -0.280592 2.72716e-21)
(0.0846321 -0.321681 0)
(0.078986 -0.36507 7.66115e-21)
(0.0716001 -0.421663 -7.70035e-21)
(0.0530598 -0.498569 -4.55519e-21)
(0.0449452 -0.591985 -7.19913e-23)
(0.0322716 -0.70777 -7.58488e-21)
(0.020964 -0.833314 -1.25799e-21)
(0.007093 -0.9213 -6.93443e-21)
(0.155357 -0.0827195 2.55151e-20)
(0.0927059 -0.264139 -8.5506e-21)
(0.0934599 -0.315531 9.65456e-22)
(0.0866735 -0.359238 -7.36149e-21)
(0.0779076 -0.413197 0)
(0.0582058 -0.490164 -4.78024e-21)
(0.0485643 -0.584799 -3.62911e-22)
(0.0351167 -0.701281 1.03826e-20)
(0.0227812 -0.828026 1.44688e-21)
(0.00775965 -0.916819 -1.45201e-21)
(0.179251 -0.0565835 1.75498e-21)
(0.105276 -0.242684 1.55411e-20)
(0.103388 -0.307903 7.69302e-21)
(0.0954239 -0.351977 -7.68756e-21)
(0.0848868 -0.40337 -4.54778e-21)
(0.0639009 -0.480179 0)
(0.0526402 -0.57585 -1.07224e-20)
(0.0384133 -0.692912 5.35298e-21)
(0.0249092 -0.821189 5.74726e-21)
(0.00852572 -0.911385 6.29725e-21)
(0.203057 -0.0286858 -3.58744e-21)
(0.121399 -0.216199 0)
(0.114367 -0.298226 0)
(0.105135 -0.34402 0)
(0.0923582 -0.393001 -5.15499e-21)
(0.0699706 -0.469759 9.6865e-21)
(0.0568756 -0.567031 1.09571e-20)
(0.0417535 -0.685246 -1.72466e-20)
(0.0270034 -0.815046 3.1374e-21)
(0.00929176 -0.906372 -9.34464e-21)
(0.224512 -0.00259665 -9.24433e-21)
(0.141848 -0.185602 1.47566e-20)
(0.12661 -0.285167 -1.46249e-20)
(0.116095 -0.333972 1.87754e-20)
(0.100751 -0.380944 -2.35904e-20)
(0.0768472 -0.45697 0)
(0.0619228 -0.555001 -5.78516e-21)
(0.0458072 -0.674194 -2.73663e-22)
(0.0295854 -0.80625 -6.54744e-21)
(0.0102364 -0.899737 -6.75702e-21)
(0.241428 0.0193611 -3.96675e-21)
(0.167828 -0.151363 0)
(0.139965 -0.27077 -1.98083e-20)
(0.126933 -0.325309 3.72149e-20)
(0.109034 -0.370433 -1.44334e-20)
(0.0835685 -0.446249 -2.79234e-21)
(0.0666181 -0.546201 5.77293e-21)
(0.0495525 -0.666679 -3.51973e-22)
(0.0319422 -0.799916 9.50607e-21)
(0.0110366 -0.894424 9.98972e-21)
(0.252233 0.038025 -1.75353e-20)
(0.198798 -0.112673 1.66493e-20)
(0.159015 -0.245803 2.09068e-21)
(0.141287 -0.309953 0)
(0.119718 -0.354943 0)
(0.0924502 -0.428892 2.69869e-21)
(0.0732218 -0.529322 1.21004e-20)
(0.054622 -0.651704 -1.17158e-20)
(0.0351521 -0.788497 -3.23591e-21)
(0.0122796 -0.886125 3.15319e-21)
(0.261272 0.0848455 0)
(0.259146 -0.0703723 0)
(0.180674 -0.226222 0)
(0.158232 -0.301635 0)
(0.13865 -0.341552 0)
(0.106862 -0.416158 0)
(0.0841682 -0.519648 0)
(0.0642605 -0.640996 0)
(0.0413668 -0.775784 0)
(0.0138786 -0.873548 0)
(0.327584 0.0801456 0)
(0.325002 -0.0346599 0)
(0.237478 -0.169578 0)
(0.189396 -0.273418 0)
(0.165334 -0.317399 0)
(0.13959 -0.388917 0)
(0.108536 -0.497136 0)
(0.0821391 -0.619359 0)
(0.0530694 -0.74698 0)
(0.0200516 -0.83662 0)
(0.379222 0.103379 0)
(0.379194 0.0118636 0)
(0.308745 -0.106251 0)
(0.244431 -0.224808 0)
(0.199432 -0.289931 0)
(0.176533 -0.360416 0)
(0.141165 -0.464933 0)
(0.105481 -0.589038 0)
(0.0677495 -0.712285 0)
(0.0216386 -0.80034 0)
(0.415328 0.100532 0)
(0.425762 0.0383535 0)
(0.381931 -0.0484336 0)
(0.320584 -0.162536 0)
(0.257031 -0.250528 0)
(0.221274 -0.332564 0)
(0.181208 -0.433694 0)
(0.137439 -0.554076 0)
(0.0903646 -0.666371 0)
(0.0309606 -0.744748 0)
(0.431352 0.0838103 0)
(0.453092 0.046382 0)
(0.438611 -0.00916429 0)
(0.398589 -0.0991072 0)
(0.335248 -0.191418 0)
(0.281815 -0.285149 0)
(0.2286 -0.387286 0)
(0.17132 -0.501011 0)
(0.111001 -0.605208 0)
(0.0370492 -0.680269 0)
(0.433902 0.0561589 0)
(0.460875 0.0326508 0)
(0.467046 -0.000308851 0)
(0.453372 -0.061034 0)
(0.410393 -0.138529 0)
(0.354493 -0.231138 0)
(0.289379 -0.334157 0)
(0.214297 -0.44032 0)
(0.136918 -0.531394 0)
(0.0508016 -0.583454 0)
(0.427079 0.0324366 0)
(0.452693 0.0174829 0)
(0.467135 -0.00159285 0)
(0.469724 -0.0373788 0)
(0.447616 -0.0888375 0)
(0.403017 -0.159037 0)
(0.337452 -0.246203 0)
(0.249458 -0.339924 0)
(0.151944 -0.426602 0)
(0.0411539 -0.490594 0)
(0.419891 -0.000504596 0)
(0.443652 -0.0105859 0)
(0.455617 -0.0239947 0)
(0.465807 -0.0469272 0)
(0.456425 -0.0800798 0)
(0.427255 -0.125711 0)
(0.372814 -0.188604 0)
(0.288156 -0.259943 0)
(0.186055 -0.324593 0)
(0.0801484 -0.365505 0)
(0.436879 -0.00667054 0)
(0.453967 -0.0114635 0)
(0.440895 -0.0183202 0)
(0.442426 -0.0284369 0)
(0.4183 -0.0441468 0)
(0.386823 -0.0662135 0)
(0.330451 -0.0972561 0)
(0.249702 -0.135708 0)
(0.140659 -0.181316 0)
(0.0185879 -0.245822 0)
(0.707472 -0.0138509 0)
(0.704223 -0.0187114 0)
(0.680866 -0.0245191 0)
(0.663663 -0.0317682 0)
(0.623737 -0.0412215 0)
(0.579237 -0.0533157 0)
(0.506291 -0.0679797 0)
(0.410747 -0.0879788 0)
(0.281628 -0.119501 0)
(0.179576 -0.175359 0)
(0.304187 0.111934 2.7059e-20)
(0.362252 0.113828 -2.64673e-20)
(0.399816 0.124244 4.17232e-21)
(0.421509 0.107348 0)
(0.426632 0.0854653 0)
(0.423066 0.0566654 5.61951e-21)
(0.415022 0.0326438 -2.43443e-20)
(0.410076 0.00145275 2.38535e-20)
(0.444964 -0.00481632 6.24178e-21)
(0.71824 -0.0117724 -6.34712e-21)
(0.313625 0.120452 -3.00512e-20)
(0.365599 0.124464 0)
(0.396913 0.129253 2.88925e-20)
(0.414128 0.108178 -6.84644e-20)
(0.417226 0.085297 4.54146e-20)
(0.413699 0.0565379 -5.12762e-21)
(0.407004 0.0326798 1.08902e-20)
(0.404736 0.00228463 2.27008e-20)
(0.447692 -0.00401115 5.82544e-21)
(0.721917 -0.0108858 5.7634e-21)
(0.321805 0.128853 3.64433e-20)
(0.367062 0.133247 -3.00257e-20)
(0.39059 0.131965 2.97503e-20)
(0.402901 0.107738 -3.71107e-20)
(0.404549 0.0843568 2.72563e-20)
(0.401862 0.0558518 0)
(0.39722 0.03229 -1.0917e-20)
(0.398658 0.00278548 -3.45682e-23)
(0.449828 -0.00330927 -1.14789e-20)
(0.725263 -0.00999006 -1.16225e-20)
(0.32928 0.136286 -6.12011e-21)
(0.369902 0.139888 0)
(0.386543 0.13312 0)
(0.394333 0.10683 0)
(0.394369 0.0832063 3.01592e-20)
(0.39183 0.0549969 -2.02435e-20)
(0.388549 0.0317031 -2.19354e-22)
(0.393222 0.00308791 -1.16008e-20)
(0.451768 -0.00275513 -5.80423e-21)
(0.728712 -0.00914374 -5.83384e-21)
(0.334892 0.142303 2.49071e-21)
(0.371161 0.144164 -1.97988e-20)
(0.38257 0.133065 -1.71234e-20)
(0.387172 0.105833 1.71172e-20)
(0.386054 0.0821771 -9.7861e-21)
(0.383413 0.0542722 0)
(0.381042 0.0311717 -1.10163e-20)
(0.388483 0.00338782 2.29024e-20)
(0.45356 -0.00233011 -1.1474e-20)
(0.732108 -0.00838734 1.17503e-20)
(0.338683 0.147085 -5.30533e-20)
(0.369554 0.146454 4.87204e-21)
(0.376744 0.132167 -1.64486e-21)
(0.37934 0.104862 1.72654e-20)
(0.377807 0.0813136 0)
(0.375333 0.0537394 0)
(0.373881 0.0307771 0)
(0.384015 0.0037579 1.139e-20)
(0.455048 -0.00200471 0)
(0.735208 -0.00772828 0)
(0.340988 0.150955 0)
(0.365756 0.147484 2.32554e-20)
(0.36935 0.13095 -1.57885e-20)
(0.370517 0.104047 -1.89566e-20)
(0.369027 0.0806076 1.9058e-20)
(0.366982 0.0533713 1.07481e-20)
(0.3666 0.0305045 -1.06382e-20)
(0.379488 0.00418603 -3.98126e-20)
(0.456055 -0.00175762 2.85211e-21)
(0.737878 -0.00715584 -8.80148e-21)
(0.341859 0.15422 0)
(0.360566 0.147941 -7.48963e-21)
(0.3613 0.129878 -4.21656e-21)
(0.361297 0.103544 0)
(0.359979 0.0801084 5.22438e-21)
(0.358424 0.0531669 -1.55622e-20)
(0.359172 0.0303406 1.66195e-20)
(0.3748 0.00465364 5.79971e-21)
(0.45647 -0.00157355 -5.79027e-21)
(0.740091 -0.00665629 1.18012e-20)
(0.341271 0.157217 6.50432e-21)
(0.354371 0.148355 8.02948e-21)
(0.353068 0.129236 -1.76707e-21)
(0.352107 0.103456 2.32523e-21)
(0.350969 0.0798862 4.97376e-21)
(0.349861 0.0531559 7.92677e-21)
(0.351697 0.0302989 -2.75744e-21)
(0.369936 0.00516431 -2.8478e-21)
(0.456226 -0.00143648 5.80936e-21)
(0.741879 -0.00622086 2.93431e-21)
(0.339253 0.16032 -1.82839e-21)
(0.347371 0.149113 1.83613e-21)
(0.344735 0.129169 -2.12482e-21)