0.362837 	0.362837 	0.5 	0.162732
0.380512 	0.380512 	0.5 	0.165192
0.398188 	0.398188 	0.5 	0.166926
0.415863 	0.415863 	0.5 	0.168884
0.433538 	0.433538 	0.5 	0.170841
0.451213 	0.451213 	0.5 	0.172799
0.468888 	0.468888 	0.5 	0.174741
0.486563 	0.486563 	0.5 	0.176652
0.504238 	0.504238 	0.5 	0.178524
0.521913 	0.521913 	0.5 	0.180347
0.539588 	0.539588 	0.5 	0.182117
0.557263 	0.557263 	0.5 	0.18383
0.574938 	0.574938 	0.5 	0.185483
0.592613 	0.592613 	0.5 	0.187075
0.610288 	0.610288 	0.5 	0.188605
0.627963 	0.627963 	0.5 	0.190073
0.645638 	0.645638 	0.5 	0.191479
0.663313 	0.663313 	0.5 	0.192825
0.680988 	0.680988 	0.5 	0.19411
0.698663 	0.698663 	0.5 	0.195337
0.716338 	0.716338 	0.5 	0.196507
0.734013 	0.734013 	0.5 	0.197623
0.751688 	0.751688 	0.5 	0.198687
0.769363 	0.769363 	0.5 	0.199703
0.787038 	0.787038 	0.5 	0.200672
0.804713 	0.804713 	0.5 	0.2016
0.822388 	0.822388 	0.5 	0.202489
0.840063 	0.840063 	0.5 	0.203345
0.857738 	0.857738 	0.5 	0.204173
0.875413 	0.875413 	0.5 	0.20498
0.893088 	0.893088 	0.5 	0.205777
0.910763 	0.910763 	0.5 	0.206576
0.928438 	0.928438 	0.5 	0.207397
0.946113 	0.946113 	0.5 	0.208274
0.963788 	0.963788 	0.5 	0.209262
0.981463 	0.981463 	0.5 	0.210435
0.999138 	0.999138 	0.5 	0.21194
1.01681 	1.01681 	0.5 	0.214451
1.03449 	1.03449 	0.5 	0.219675
1.05216 	1.05216 	0.5 	0.225604
1.061 	1.061 	0.5 	0.209431
1.12274 	1.12274 	0.5 	0.224754
1.20948 	1.20948 	0.5 	0.220065
1.27121 	1.27121 	0.5 	0.215343
1.35795 	1.35795 	0.5 	0.210179
1.41969 	1.41969 	0.5 	0.212753
1.49316 	1.49316 	0.5 	0.208314
1.56816 	1.56816 	0.5 	0.203531
1.6299 	1.6299 	0.5 	0.208176
1.71664 	1.71664 	0.5 	0.203102
