-0.362837 	0.362837 	0.5 	0.0258183 	0.0251595 	-2.18537e-24
-0.380512 	0.380512 	0.5 	0.0698251 	0.068234 	2.39585e-21
-0.398188 	0.398188 	0.5 	0.107925 	0.105593 	-1.22896e-21
-0.415863 	0.415863 	0.5 	0.141189 	0.137873 	9.96229e-21
-0.433538 	0.433538 	0.5 	0.170407 	0.165702 	0
-0.451213 	0.451213 	0.5 	0.196209 	0.189601 	7.76636e-21
-0.468888 	0.468888 	0.5 	0.219098 	0.210021 	1.32659e-20
-0.486563 	0.486563 	0.5 	0.239481 	0.22736 	8.05517e-21
-0.504238 	0.504238 	0.5 	0.257695 	0.241969 	-5.42571e-21
-0.521913 	0.521913 	0.5 	0.27402 	0.254164 	-1.39109e-20
-0.539588 	0.539588 	0.5 	0.288694 	0.264226 	0
-0.557263 	0.557263 	0.5 	0.301919 	0.27241 	1.13829e-20
-0.574938 	0.574938 	0.5 	0.313868 	0.278943 	5.80211e-21
-0.592613 	0.592613 	0.5 	0.324694 	0.284032 	-9.43237e-23
-0.610288 	0.610288 	0.5 	0.334528 	0.287861 	-9.35071e-24
-0.627963 	0.627963 	0.5 	0.343483 	0.290597 	2.35471e-20
-0.645638 	0.645638 	0.5 	0.351661 	0.292386 	-5.92981e-21
-0.663313 	0.663313 	0.5 	0.35915 	0.293361 	1.77498e-20
-0.680988 	0.680988 	0.5 	0.366027 	0.293639 	-5.95387e-21
-0.698663 	0.698663 	0.5 	0.37236 	0.293322 	1.77692e-20
-0.716338 	0.716338 	0.5 	0.378207 	0.292501 	-1.18902e-20
-0.734013 	0.734013 	0.5 	0.38362 	0.291255 	1.77185e-20
-0.751688 	0.751688 	0.5 	0.388646 	0.289652 	5.90504e-21
-0.769363 	0.769363 	0.5 	0.393321 	0.287752 	-1.75897e-20
-0.787038 	0.787038 	0.5 	0.397681 	0.285604 	0
-0.804713 	0.804713 	0.5 	0.401753 	0.283251 	-1.15658e-20
-0.822388 	0.822388 	0.5 	0.405563 	0.280729 	0
-0.840063 	0.840063 	0.5 	0.40913 	0.278068 	-1.14001e-20
-0.857738 	0.857738 	0.5 	0.41247 	0.27529 	0
-0.875413 	0.875413 	0.5 	0.415598 	0.272416 	1.12029e-20
-0.893088 	0.893088 	0.5 	0.418523 	0.269459 	0
-0.910763 	0.910763 	0.5 	0.421252 	0.266429 	1.09779e-20
-0.928438 	0.928438 	0.5 	0.42379 	0.263332 	-1.08557e-20
-0.946113 	0.946113 	0.5 	0.426139 	0.260172 	0
-0.963788 	0.963788 	0.5 	0.428297 	0.256947 	-1.0592e-20
-0.981463 	0.981463 	0.5 	0.43026 	0.253655 	1.04497e-20
-0.999138 	0.999138 	0.5 	0.432021 	0.25029 	0
-1.01681 	1.01681 	0.5 	0.433594 	0.246823 	0
-1.03449 	1.03449 	0.5 	0.435063 	0.243192 	-9.94046e-21
-1.05216 	1.05216 	0.5 	0.436418 	0.239632 	-1.13898e-20
-1.061 	1.061 	0.5 	0.439325 	0.23191 	9.30746e-21
-1.12274 	1.12274 	0.5 	0.433733 	0.225361 	0
-1.18448 	1.18448 	0.5 	0.428435 	0.204234 	0
-1.24621 	1.24621 	0.5 	0.429412 	0.190292 	0
-1.30795 	1.30795 	0.5 	0.428051 	0.178459 	0
-1.36969 	1.36969 	0.5 	0.415282 	0.149842 	0
-1.43142 	1.43142 	0.5 	0.409481 	0.135897 	0
-1.49316 	1.49316 	0.5 	0.39352 	0.101873 	0
-1.5549 	1.5549 	0.5 	0.376229 	0.0642221 	0
-1.61664 	1.61664 	0.5 	0.364928 	0.0455 	0
-1.67838 	1.67838 	0.5 	0.344868 	0.00347707 	0
