/*--------------------------------*- C++ -*----------------------------------*\
  =========                 |
  \\      /  F ield         | OpenFOAM: The Open Source CFD Toolbox
   \\    /   O peration     | Website:  https://openfoam.org
    \\  /    A nd           | Version:  7
     \\/     M anipulation  |
\*---------------------------------------------------------------------------*/
FoamFile
{
    version     2.0;
    format      ascii;
    class       volScalarField;
    location    "0.2875";
    object      p;
}
// * * * * * * * * * * * * * * * * * * * * * * * * * * * * * * * * * * * * * //

dimensions      [0 2 -2 0 0 0 0];

internalField   nonuniform List<scalar> 
400
(
5.299e-06
-0.00589781
-0.0130479
-0.0184927
-0.020515
-0.0183228
-0.0118525
-0.00155056
0.0117867
0.0271174
0.0432328
0.0588309
0.0726034
0.0833458
0.0900965
0.0923098
0.0900655
0.0842929
0.0769006
0.071028
0.00583049
-0.000240967
-0.00577479
-0.00948748
-0.0105355
-0.00836852
-0.002913
0.00551614
0.016324
0.0287081
0.0417198
0.0543304
0.0655086
0.0743158
0.080018
0.0822142
0.0809853
0.0769903
0.0712598
0.0652437
0.0133976
0.00496511
-0.00100831
-0.00442479
-0.0052775
-0.00326944
0.00159564
0.00901841
0.0184895
0.0293327
0.0407444
0.0518442
0.0617391
0.069604
0.0747732
0.0768436
0.075805
0.0720615
0.0658358
0.0574387
0.0202082
0.0085958
0.00120505
-0.00267636
-0.00373558
-0.00190011
0.00271616
0.00976861
0.0187633
0.0290768
0.0399724
0.0506329
0.0602102
0.0678919
0.0729785
0.0749756
0.0737349
0.0694392
0.0616661
0.0500008
0.0245946
0.00964865
0.000572549
-0.00398614
-0.00530828
-0.00351498
0.00116624
0.00832402
0.0174487
0.0279327
0.0390652
0.0500466
0.0600221
0.0681354
0.0735951
0.0757645
0.0743292
0.0692696
0.0596161
0.0444122
0.0252997
0.00700092
-0.00381661
-0.00904953
-0.0105133
-0.00850329
-0.00336128
0.00442236
0.0143029
0.0256646
0.0377951
0.04988
0.0610202
0.0702711
0.0767001
0.079479
0.0780916
0.0723109
0.0606593
0.0417347
0.0212478
-0.000435828
-0.012945
-0.0186934
-0.0200252
-0.0174124
-0.0113184
-0.00232285
0.0089833
0.0219645
0.0358929
0.0499221
0.063084
0.0743116
0.0824842
0.0865264
0.0856642
0.0794201
0.0657718
0.0428801
0.0113354
-0.0138153
-0.0278781
-0.0338268
-0.0345906
-0.030849
-0.0232067
-0.0123429
0.00110245
0.0164762
0.0330389
0.0499132
0.0660554
0.0802544
0.0911588
0.0973795
0.0978007
0.0916006
0.0760809
0.048879
-0.00572703
-0.0344865
-0.0498614
-0.0555057
-0.0550662
-0.0494971
-0.0395796
-0.0261043
-0.00975354
0.00882057
0.0288917
0.0495762
0.0697708
0.0881176
0.103001
0.112641
0.115463
0.110142
0.0930535
0.0611124
-0.0315544
-0.0641181
-0.0803908
-0.0849441
-0.0823825
-0.0740503
-0.060958
-0.0440198
-0.023941
-0.00133291
0.0231421
0.0486485
0.0740718
0.0979352
0.118345
0.133054
0.139877
0.136746
0.118694
0.0815485
-0.0682782
-0.104865
-0.121293
-0.123502
-0.117462
-0.105087
-0.0876861
-0.0663007
-0.0416191
-0.0141443
0.0156094
0.0469475
0.0788373
0.109759
0.13757
0.159502
0.172585
0.173671
0.155804
0.113061
-0.11889
-0.159633
-0.174828
-0.172638
-0.161078
-0.142879
-0.119719
-0.0927452
-0.0625525
-0.0294287
0.00638543
0.0444767
0.0840451
0.123674
0.161083
0.192991
0.21549
0.223922
0.208352
0.159939
-0.187942
-0.232519
-0.243806
-0.233798
-0.213611
-0.187097
-0.156327
-0.122465
-0.0858679
-0.0464464
-0.00399307
0.0415532
0.0898447
0.139812
0.189274
0.23459
0.270862
0.291447
0.282032
0.22882
-0.283061
-0.329538
-0.331639
-0.308108
-0.274624
-0.236385
-0.195722
-0.153576
-0.109809
-0.0637149
-0.0144077
0.0388914
0.096575
0.158281
0.22235
0.285202
0.341166
0.381281
0.385112
0.330527
-0.418184
-0.459744
-0.442069
-0.395624
-0.342069
-0.287706
-0.234591
-0.182907
-0.131585
-0.0789545
-0.0231763
0.0375197
0.1046
0.178879
0.259882
0.344933
0.428407
0.499311
0.529621
0.483718
-0.619422
-0.636578
-0.578329
-0.494079
-0.411224
-0.335651
-0.267774
-0.205966
-0.147521
-0.0893537
-0.0283831
0.0384069
0.113879
0.200552
0.300051
0.412064
0.532936
0.651426
0.732445
0.720598
-0.935595
-0.878176
-0.741678
-0.598052
-0.474386
-0.372622
-0.288841
-0.217735
-0.153922
-0.0924255
-0.0286733
0.041755
0.123338
0.220804
0.339004
0.482246
0.652267
0.841652
1.01496
1.09628
-1.48059
-1.20196
-0.920996
-0.692542
-0.517672
-0.387697
-0.29019
-0.213421
-0.148158
-0.0872059
-0.0245246
0.0455623
0.129104
0.233301
0.367365
0.543125
0.772633
1.06029
1.39819
1.73407
-2.57157
-1.60192
-1.04347
-0.714825
-0.497794
-0.353382
-0.255525
-0.184279
-0.126592
-0.07378
-0.0192062
0.0430682
0.119766
0.219655
0.356007
0.549825
0.829815
1.23507
1.88111
2.95926
-4.4451
-2.01726
-0.969792
-0.564334
-0.357041
-0.23903
-0.169352
-0.123292
-0.0871804
-0.0533655
-0.0166737
0.027517
0.0843016
0.161197
0.271581
0.441365
0.718807
1.2215
2.38403
4.9294
)
;

boundaryField
{
    movingWall
    {
        type            zeroGradient;
    }
    fixedWalls
    {
        type            zeroGradient;
    }
    frontAndBack
    {
        type            empty;
    }
}


// ************************************************************************* //
