/*--------------------------------*- C++ -*----------------------------------*\
  =========                 |
  \\      /  F ield         | OpenFOAM: The Open Source CFD Toolbox
   \\    /   O peration     | Website:  https://openfoam.org
    \\  /    A nd           | Version:  7
     \\/     M anipulation  |
\*---------------------------------------------------------------------------*/
FoamFile
{
    version     2.0;
    format      ascii;
    class       surfaceScalarField;
    location    "0.2875";
    object      phi;
}
// * * * * * * * * * * * * * * * * * * * * * * * * * * * * * * * * * * * * * //

dimensions      [0 3 -1 0 0 0 0];

internalField   nonuniform List<scalar> 
760
(
1.42679e-08
-1.42958e-08
-2.23543e-08
3.66223e-08
-1.14288e-07
9.19334e-08
-2.45429e-07
1.31142e-07
-3.96001e-07
1.50572e-07
-5.47253e-07
1.51251e-07
-6.83063e-07
1.35811e-07
-7.90522e-07
1.07459e-07
-8.60056e-07
6.95335e-08
-8.85483e-07
2.54268e-08
-8.6416e-07
-2.13234e-08
-7.97232e-07
-6.69274e-08
-6.89938e-07
-1.07294e-07
-5.51841e-07
-1.38097e-07
-3.96833e-07
-1.55007e-07
-2.42681e-07
-1.54152e-07
-1.09761e-07
-1.32919e-07
-1.85779e-08
-9.11838e-08
1.57743e-08
-3.43525e-08
1.57743e-08
-3.43551e-08
2.00593e-08
-1.80427e-07
1.82695e-07
-4.34046e-07
3.45552e-07
-7.64353e-07
4.61449e-07
-1.13193e-06
5.18153e-07
-1.49676e-06
5.16079e-07
-1.82267e-06
4.61719e-07
-2.07972e-06
3.64508e-07
-2.24536e-06
2.3517e-07
-2.30507e-06
8.51439e-08
-2.25295e-06
-7.34494e-08
-2.09217e-06
-2.27703e-07
-1.83552e-06
-3.63946e-07
-1.50549e-06
-4.68129e-07
-1.13375e-06
-5.26745e-07
-7.59412e-07
-5.28489e-07
-4.25451e-07
-4.6688e-07
-1.72747e-07
-3.43887e-07
-3.10011e-08
-1.76098e-07
-1.5227e-08
-9.20658e-08
1.12125e-07
-3.56876e-07
4.47504e-07
-7.64393e-07
7.53069e-07
-1.26818e-06
9.65236e-07
-1.81419e-06
1.06417e-06
-2.34833e-06
1.05022e-06
-2.82153e-06
9.34914e-07
-3.19288e-06
7.35856e-07
-3.43143e-06
4.73724e-07
-3.51728e-06
1.70991e-07
-3.44234e-06
-1.48383e-07
-3.2111e-06
-4.58947e-07
-2.84108e-06
-7.33961e-07
-2.36297e-06
-9.4624e-07
-1.81971e-06
-1.07001e-06
-1.26411e-06
-1.08409e-06
-7.54321e-07
-9.76669e-07
-3.4684e-07
-7.51369e-07
-8.71729e-08
-4.35765e-07
-1.024e-07
-1.45085e-07
2.5721e-07
-5.25258e-07
8.27677e-07
-1.0813e-06
1.30911e-06
-1.74699e-06
1.63093e-06
-2.45359e-06
1.77077e-06
-3.13542e-06
1.73204e-06
-3.73413e-06
1.53363e-06
-4.20158e-06
1.20331e-06
-4.50147e-06
7.73615e-07
-4.61042e-06
2.79933e-07
-4.51874e-06
-2.40058e-07
-4.23128e-06
-7.4641e-07
-3.76804e-06
-1.1972e-06
-3.1645e-06
-1.54978e-06
-2.47098e-06
-1.76353e-06
-1.75043e-06
-1.80463e-06
-1.07411e-06
-1.65299e-06
-5.14905e-07
-1.31057e-06
-1.39177e-07
-8.11493e-07
-2.41577e-07
-1.93514e-07
4.50725e-07
-6.84754e-07
1.31892e-06
-1.38517e-06
2.00952e-06
-2.20653e-06
2.45229e-06
-3.06449e-06
2.62873e-06
-3.88255e-06
2.5501e-06
-4.59505e-06
2.24613e-06
-5.14894e-06
1.7572e-06
-5.50467e-06
1.12934e-06
-5.63667e-06
4.11926e-07
-5.53388e-06
-3.42848e-07
-5.20054e-06
-1.07974e-06
-4.65718e-06
-1.74057e-06
-3.94145e-06
-2.2655e-06
-3.10848e-06
-2.59651e-06
-2.22959e-06
-2.68352e-06
-1.38906e-06
-2.49352e-06
-6.78196e-07
-2.02144e-06
-1.87647e-07
-1.30204e-06
-4.29223e-07
-2.39835e-07
6.9056e-07
-8.40039e-07
1.91912e-06
-1.6827e-06
2.85218e-06
-2.65615e-06
3.42574e-06
-3.65961e-06
3.6322e-06
-4.60626e-06
3.49675e-06
-5.4246e-06
3.06447e-06
-6.05862e-06
2.39122e-06
-6.46726e-06
1.53798e-06
-6.62385e-06
5.68521e-07
-6.51608e-06
-4.50622e-07
-6.14658e-06
-1.44924e-06
-5.53443e-06
-2.35272e-06
-4.71702e-06
-3.08291e-06
-3.75186e-06
-3.56167e-06
-2.71726e-06
-3.71812e-06
-1.71075e-06
-3.50004e-06
-8.44252e-07
-2.88793e-06
-2.3603e-07
-1.91026e-06
-6.65253e-07
-2.86605e-07
9.77164e-07
-9.96685e-07
2.6292e-06
-1.98133e-06
3.83682e-06
-3.10381e-06
4.54823e-06
-4.24647e-06
4.77485e-06
-5.31303e-06
4.56331e-06
-6.22808e-06
3.97952e-06
-6.93493e-06
3.09807e-06
-7.39309e-06
1.99613e-06
-7.5761e-06
7.51537e-07
-7.47057e-06
-5.56156e-07
-7.07651e-06
-1.84329e-06
-6.40936e-06
-3.01987e-06
-5.50324e-06
-3.98903e-06
-4.41503e-06
-4.64988e-06
-3.22778e-06
-4.90537e-06
-2.05188e-06
-4.67594e-06
-1.02197e-06
-3.91784e-06
-2.88068e-07
-2.64416e-06
-9.53321e-07
-3.36135e-07
1.3133e-06
-1.15984e-06
3.45291e-06
-2.28706e-06
4.96403e-06
-3.5536e-06
5.81477e-06
-4.82485e-06
6.0461e-06
-5.99699e-06
5.73545e-06
-6.99372e-06
4.97625e-06
-7.76102e-06
3.86537e-06
-8.26182e-06
2.49694e-06
-8.47181e-06
9.61528e-07
-8.37705e-06
-6.50917e-07
-7.97392e-06
-2.24642e-06
-7.27162e-06
-3.72217e-06
-6.29713e-06
-4.96352e-06
-5.10214e-06
-5.84487e-06
-3.77046e-06
-6.23705e-06
-2.42343e-06
-6.02296e-06
-1.21994e-06
-5.12134e-06
-3.47396e-07
-3.51671e-06
-1.30072e-06
-3.90679e-07
1.70398e-06
-1.33418e-06
4.39641e-06
-2.60375e-06
6.2336e-06
-4.00424e-06
7.21526e-06
-5.38473e-06
7.4266e-06
-6.6374e-06
6.98812e-06
-7.6899e-06
6.02874e-06
-8.49578e-06
4.67125e-06
-9.02558e-06
3.02674e-06
-9.25994e-06
1.19589e-06
-9.18552e-06
-7.25341e-07
-8.79422e-06
-2.63772e-06
-8.08602e-06
-4.43037e-06
-7.07571e-06
-5.97383e-06
-5.80323e-06
-7.11735e-06
-4.3464e-06
-7.69387e-06
-2.83287e-06
-7.5365e-06
-1.44596e-06
-6.50824e-06
-4.17644e-07
-4.54502e-06
-1.71836e-06
-4.53059e-07
2.15704e-06
-1.52473e-06
5.46808e-06
-2.93331e-06
7.64218e-06
-4.44805e-06
8.72999e-06
-5.90394e-06
8.8825e-06
-7.19525e-06
8.27944e-06
-8.261e-06
7.09449e-06
-9.06934e-06
5.47959e-06
-9.60405e-06
3.56145e-06
-9.85463e-06
1.44647e-06
-9.81027e-06
-7.69705e-07
-9.458e-06
-2.98999e-06
-8.78552e-06
-5.10285e-06
-7.78929e-06
-6.97006e-06
-6.48856e-06
-8.41808e-06
-4.94468e-06
-9.23775e-06
-3.28255e-06
-9.19864e-06
-1.70709e-06
-8.0837e-06
-5.02936e-07
-5.74918e-06
-2.2213e-06
-5.27796e-07
2.68483e-06
-1.73838e-06
6.67867e-06
-3.27597e-06
9.17977e-06
-4.86915e-06
1.03232e-05
-6.34434e-06
1.03577e-05
-7.60812e-06
9.54322e-06
-8.6217e-06
8.10807e-06
-9.37707e-06
6.23496e-06
-9.87836e-06
4.06274e-06
-1.01288e-05
1.6969e-06
-1.01228e-05
-7.75675e-07
-9.84306e-06
-3.26975e-06
-9.26235e-06
-5.68356e-06
-8.35237e-06
-7.88004e-06
-7.10057e-06
-9.66987e-06
-5.53675e-06
-1.08016e-05
-3.76741e-06
-1.0968e-05
-2.01002e-06
-9.84109e-06
-6.08799e-07
-7.1504e-06
-2.8301e-06
-6.23006e-07
3.30784e-06
-1.98574e-06
8.0414e-06
-3.62943e-06
1.08235e-05
-5.23907e-06
1.19328e-05
-6.64472e-06
1.17633e-05
-7.78182e-06
1.06803e-05
-8.6486e-06
8.97486e-06
-9.27209e-06
6.85845e-06
-9.68442e-06
4.47507e-06
-9.90764e-06
1.92012e-06
-9.94484e-06
-7.38481e-07
-9.7758e-06
-3.43879e-06
-9.35759e-06
-6.10177e-06
-8.63176e-06
-8.60587e-06
-7.54207e-06
-1.07596e-05
-6.06713e-06
-1.22765e-05
-4.27028e-06
-1.27648e-05
-2.36091e-06
-1.17505e-05
-7.43691e-07
-8.76762e-06
-3.57379e-06
-7.53524e-07
4.06136e-06
-2.28244e-06
9.57031e-06
-3.98411e-06
1.25251e-05
-5.50601e-06
1.34547e-05
-6.70682e-06
1.29641e-05
-7.57624e-06
1.15497e-05
-8.16821e-06
9.56683e-06
-8.55616e-06
7.24641e-06
-8.80649e-06
4.72539e-06
-8.96384e-06
2.07748e-06
-9.04298e-06
-6.59348e-07
-9.02396e-06
-3.45781e-06
-8.85019e-06
-6.27553e-06
-8.43166e-06
-9.0244e-06
-7.65897e-06
-1.15323e-05
-6.43752e-06
-1.3498e-05
-4.75189e-06
-1.44505e-05
-2.76368e-06
-1.37387e-05
-9.2148e-07
-1.06098e-05
-4.49527e-06
-9.45597e-07
5.00696e-06
-2.64682e-06
1.12715e-05
-4.30799e-06
1.41863e-05
-5.57036e-06
1.47171e-05
-6.36839e-06
1.37622e-05
-6.78172e-06
1.19631e-05
-6.93961e-06
9.72471e-06
-6.96935e-06
7.27615e-06
-6.97274e-06
4.72877e-06
-7.01659e-06
2.12133e-06
-7.1286e-06
-5.47339e-07
-7.29342e-06
-3.29299e-06
-7.44771e-06
-6.12124e-06
-7.47613e-06
-8.99598e-06
-7.21522e-06
-1.17932e-05
-6.47913e-06
-1.4234e-05
-5.12953e-06
-1.58001e-05
-3.21252e-06
-1.56557e-05
-1.16471e-06
-1.26576e-05
-5.65998e-06
-1.24107e-06
6.24804e-06
-3.08336e-06
1.31138e-05
-4.50543e-06
1.56084e-05
-5.23246e-06
1.54441e-05
-5.35413e-06
1.38838e-05
-5.08164e-06
1.16906e-05
-4.63145e-06
9.27452e-06
-4.18037e-06
6.82508e-06
-3.85587e-06
4.40427e-06
-3.73876e-06
2.00422e-06
-3.86691e-06
-4.19187e-07
-4.23426e-06
-2.92563e-06
-4.78331e-06
-5.57219e-06
-5.39166e-06
-8.38763e-06
-5.85824e-06
-1.13266e-05
-5.90537e-06
-1.41869e-05
-5.23119e-06
-1.64742e-05
-3.66686e-06
-1.722e-05
-1.50479e-06
-1.48197e-05
-7.16477e-06
-1.68689e-06
7.93493e-06
-3.51915e-06
1.49461e-05
-4.31565e-06
1.64049e-05
-4.08911e-06
1.52176e-05
-3.19416e-06
1.29889e-05
-2.00059e-06
1.0497e-05
-7.976e-07
8.07153e-06
2.16389e-07
5.81109e-06
9.14958e-07
3.7057e-06
1.22207e-06
1.6971e-06
1.09833e-06
-2.95442e-07
5.37225e-07
-2.36453e-06
-4.26739e-07
-4.60823e-06
-1.69623e-06
-7.11813e-06
-3.07588e-06
-9.94695e-06
-4.23411e-06
-1.30287e-05
-4.69959e-06
-1.60088e-05
-3.97651e-06
-1.79431e-05
-1.96095e-06
-1.68353e-05
-9.12572e-06
-2.27129e-06
1.02062e-05
-3.60891e-06
1.62837e-05
-3.08269e-06
1.58787e-05
-1.34763e-06
1.34825e-05
8.9286e-07
1.07484e-05
3.15058e-06
8.23929e-06
5.13355e-06
6.08856e-06
6.68396e-06
4.26068e-06
7.72091e-06
2.66876e-06
8.20141e-06
1.21661e-06
8.09839e-06
-1.92423e-07
7.39318e-06
-1.65932e-06
6.08059e-06
-3.29564e-06
4.1924e-06
-5.22995e-06
1.84663e-06
-7.60117e-06
-6.70407e-07
-1.05117e-05
-2.80422e-06
-1.38749e-05
-3.68946e-06
-1.70578e-05
-2.46026e-06
-1.80645e-05
-1.1586e-05
-2.69695e-06
1.29032e-05
-2.20743e-06
1.57942e-05
7.1388e-07
1.29574e-05
4.46379e-06
9.7326e-06
8.12626e-06
7.08592e-06
1.12944e-05
5.07111e-06
1.38222e-05
3.56079e-06
1.56815e-05
2.40142e-06
1.68851e-05
1.46508e-06
1.74482e-05
6.53512e-07
1.73694e-05
-1.13543e-07
1.66229e-05
-9.12873e-07
1.51588e-05
-1.83155e-06
1.29144e-05
-2.98548e-06
9.85197e-06
-4.53878e-06
6.05183e-06
-6.71152e-06
1.90022e-06
-9.72332e-06
-1.59532e-06
-1.35623e-05
-2.59407e-06
-1.70657e-05
-1.418e-05
-5.79036e-07
1.34822e-05
4.12017e-06
1.1095e-05
1.02998e-05
6.77772e-06
1.57883e-05
4.24412e-06
2.01501e-05
2.72413e-06
2.34496e-05
1.77157e-06
2.58529e-05
1.15753e-06
2.75143e-05
7.40038e-07
2.85472e-05
4.32186e-07
2.90195e-05
1.81222e-07
2.89552e-05
-4.92618e-08
2.8331e-05
-2.88663e-07
2.70731e-05
-5.737e-07
2.50457e-05
-9.58014e-07
2.2043e-05
-1.53612e-06
1.78102e-05
-2.47869e-06
1.21751e-05
-4.08829e-06
5.52158e-06
-6.90878e-06
9.59206e-08
-1.164e-05
-1.40841e-05
1.34822e-05
2.45772e-05
3.13549e-05
3.5599e-05
3.83231e-05
4.00947e-05
4.12522e-05
4.19923e-05
4.24245e-05
4.26057e-05
4.25564e-05
4.22678e-05
4.16941e-05
4.0736e-05
3.91999e-05
3.67212e-05
3.26329e-05
2.57242e-05
1.40841e-05
)
;

boundaryField
{
    movingWall
    {
        type            calculated;
        value           uniform 0;
    }
    fixedWalls
    {
        type            calculated;
        value           uniform 0;
    }
    frontAndBack
    {
        type            empty;
        value           nonuniform 0();
    }
}


// ************************************************************************* //
