/*--------------------------------*- C++ -*----------------------------------*\
  =========                 |
  \\      /  F ield         | OpenFOAM: The Open Source CFD Toolbox
   \\    /   O peration     | Website:  https://openfoam.org
    \\  /    A nd           | Version:  7
     \\/     M anipulation  |
\*---------------------------------------------------------------------------*/
FoamFile
{
    version     2.0;
    format      ascii;
    class       surfaceScalarField;
    location    "7.4";
    object      phi;
}
// * * * * * * * * * * * * * * * * * * * * * * * * * * * * * * * * * * * * * //

dimensions      [0 3 -1 0 0 0 0];

internalField   nonuniform List<scalar> 
63520
(
5.37243e-06
-9.30419e-05
8.76695e-05
1.94288e-05
-0.000161646
0.00014759
4.10529e-05
-0.000128675
0.000107051
6.96808e-05
-1.80379e-05
-1.059e-05
0.000105076
0.000153421
-0.000188816
0.000147179
0.000373285
-0.000415387
0.000196023
0.000631829
-0.000680673
0.000251684
0.00092127
-0.000976931
0.000314246
0.00123542
-0.00129798
0.000383764
0.0015692
-0.00163872
0.000460259
0.00191844
-0.00199493
0.000543702
0.00227962
-0.00236306
0.000634005
0.00264971
-0.00274001
0.000731015
0.00302605
-0.00312306
0.000834523
0.00340621
-0.00350971
0.000944258
0.00378796
-0.0038977
0.00105989
0.00416923
-0.00428486
0.00118102
0.00454804
-0.00466917
0.00130721
0.00492254
-0.00504874
0.00143798
0.00529096
-0.00542173
0.0015728
0.00565162
-0.00578644
0.00171112
0.00600295
-0.00614127
0.00185236
0.00634349
-0.00648473
0.00199592
0.0066719
-0.00681546
0.00214121
0.00698696
-0.00713225
0.00228763
0.00728761
-0.00743403
0.00243462
0.00757291
-0.0077199
0.0025816
0.0078421
-0.00798908
0.00272807
0.00809453
-0.008241
0.00287354
0.00832974
-0.00847521
0.00301758
0.00854739
-0.00869142
0.00315979
0.00874726
-0.00888947
0.00329986
0.00892926
-0.00906933
0.00343754
0.00909338
-0.00923106
0.00357264
0.00923963
-0.00937474
0.00370507
0.00936803
-0.00950045
0.00383477
0.00947846
-0.00960817
0.0039618
0.00957055
-0.00969757
0.00408618
0.00964416
-0.00976855
0.0096989
0.00420792
-0.00982065
4.87079e-06
-9.79132e-05
1.77212e-05
-0.000174497
3.74823e-05
-0.000148437
6.36462e-05
-4.42023e-05
9.6051e-05
0.000121015
0.000134702
0.000334633
0.000179686
0.000586844
0.000231117
0.000869838
0.000289122
0.00117742
0.000353796
0.00150453
0.000425195
0.00184704
0.000503323
0.00220149
0.000588125
0.00256491
0.000679485
0.00293469
0.000777224
0.00330847
0.000881105
0.00368408
0.000990834
0.0040595
0.00110606
0.00443282
0.00122637
0.00480223
0.00135134
0.005166
0.00148046
0.0055225
0.00161323
0.00587019
0.0017491
0.00620762
0.00188751
0.00653349
0.00202791
0.00684657
0.00216972
0.0071458
0.00231239
0.00743024
0.0024554
0.00769909
0.00259824
0.00795169
0.00274043
0.00818755
0.00288155
0.00840626
0.00302123
0.00860759
0.00315913
0.00879136
0.003295
0.00895751
0.00342864
0.00910599
0.00355994
0.00923674
0.00368882
0.00934958
0.00381529
0.00944408
0.00393933
0.00952013
0.00957738
0.00406085
4.37068e-06
-0.000102284
1.59778e-05
-0.000186104
3.38205e-05
-0.00016628
5.74776e-05
-6.78596e-05
8.68592e-05
9.16337e-05
0.000122028
0.000299464
0.000163134
0.000545738
0.000210335
0.000822637
0.000263804
0.00112395
0.000323669
0.00144466
0.000390019
0.00178069
0.000462892
0.00212862
0.000542262
0.00248554
0.000628045
0.00284891
0.000720097
0.00321642
0.000818216
0.00358596
0.000922136
0.00395558
0.00103154
0.00432341
0.00114607
0.0046877
0.00126531
0.00504676
0.0013888
0.005399
0.00151607
0.00574291
0.00164662
0.00607708
0.00177992
0.00640019
0.00191542
0.00671106
0.00205261
0.00700861
0.00219095
0.0072919
0.00232993
0.00756011
0.00246905
0.00781256
0.00260788
0.00804872
0.00274598
0.00826816
0.00288298
0.00847059
0.00301855
0.00865579
0.00315243
0.00882362
0.00328442
0.008974
0.00341437
0.00910678
0.0035422
0.00922175
0.00366784
0.00931843
0.00379123
0.00939674
0.00945641
0.0039122
3.88234e-06
-0.000106166
1.41865e-05
-0.000196408
3.00458e-05
-0.000182139
5.11316e-05
-8.89455e-05
7.74364e-05
6.53287e-05
0.000109094
0.000267806
0.000146306
0.000508526
0.000189279
0.000779664
0.000238228
0.001075
0.000293321
0.00138957
0.000354676
0.00171933
0.00042236
0.00206093
0.00049638
0.00241152
0.000576685
0.0027686
0.000663159
0.00312994
0.000755625
0.00349349
0.000853855
0.00385735
0.000957565
0.0042197
0.00106642
0.00457885
0.00118004
0.00493314
0.00129801
0.00528103
0.00141989
0.00562103
0.0015452
0.00595177
0.00167344
0.00627195
0.00180412
0.00658039
0.00193672
0.00687601
0.00207073
0.00715788
0.00220568
0.00742516
0.00234108
0.00767716
0.00247649
0.00791331
0.0026115
0.00813315
0.00274574
0.00833635
0.00287888
0.00852265
0.00301065
0.00869186
0.00314083
0.00884382
0.00326926
0.00897836
0.00339582
0.0090952
0.0035204
0.00919385
0.00364287
0.00927427
0.00933629
0.00376299
3.37793e-06
-0.000109544
1.23408e-05
-0.000205371
2.61645e-05
-0.000195963
4.46363e-05
-0.000107417
6.78312e-05
4.21338e-05
9.59516e-05
0.000239686
0.00012926
0.000475218
0.00016802
0.000740904
0.000212478
0.00103054
0.00026284
0.00133921
0.00031926
0.00166291
0.000381833
0.00199836
0.000450594
0.00234276
0.00052552
0.00269368
0.000606523
0.00304894
0.000693459
0.00340656
0.000786124
0.00376468
0.000884265
0.00412156
0.000987577
0.00447553
0.00109571
0.004825
0.00120829
0.00516845
0.00132489
0.00550443
0.00144507
0.00583159
0.00156837
0.00614865
0.0016943
0.00645446
0.00182238
0.00674793
0.00195213
0.00702813
0.00208309
0.00729421
0.00221478
0.00754547
0.00234679
0.00778131
0.00247869
0.00800125
0.00261013
0.00820491
0.00274078
0.008392
0.00287036
0.00856228
0.00299863
0.00871555
0.00312541
0.00885158
0.00325054
0.00897007
0.00337387
0.00907052
0.00349522
0.00915292
0.00921726
0.00361425
2.86503e-06
-0.000112409
1.04476e-05
-0.000212954
2.21898e-05
-0.000207705
3.80019e-05
-0.000123229
5.80526e-05
2.20829e-05
8.26203e-05
0.000215118
0.000112025
0.000445813
0.000146584
0.000706345
0.000186583
0.000990541
0.000232266
0.00129352
0.000283817
0.00161136
0.000341359
0.00194082
0.000404957
0.00227916
0.000474615
0.00262402
0.000550271
0.00297328
0.000631805
0.00332502
0.000719044
0.00367744
0.000811761
0.00402885
0.000909679
0.00437762
0.00101248
0.0047222
0.00111981
0.00506112
0.00123128
0.00539296
0.00134647
0.0057164
0.00146494
0.00603018
0.00158625
0.00633315
0.00170993
0.00662425
0.00183552
0.00690254
0.00196257
0.00716716
0.00209063
0.00741741
0.00221927
0.00765266
0.00234811
0.00787241
0.00247677
0.00807625
0.00260493
0.00826384
0.00273229
0.00843492
0.0028586
0.00858923
0.00298365
0.00872653
0.00310725
0.00884647
0.0032292
0.00894856
0.00334925
0.00903288
0.00909951
0.003467
2.33634e-06
-0.000114746
8.50521e-06
-0.000219123
1.81272e-05
-0.000217328
3.12477e-05
-0.00013635
4.8133e-05
5.19741e-06
6.91396e-05
0.000194111
9.46509e-05
0.000420302
0.000125036
0.000675959
0.000160623
0.000954954
0.000201688
0.00125246
0.000248447
0.0015646
0.000301054
0.00188821
0.0003596
0.00222061
0.000424111
0.00255951
0.000494552
0.00290284
0.00057083
0.00324875
0.000652797
0.00359548
0.000740249
0.0039414
0.000832937
0.00428493
0.000930572
0.00462457
0.00103282
0.00495887
0.00113933
0.00528646
0.0012497
0.00560603
0.00136352
0.00591636
0.00148035
0.00621631
0.00159978
0.00650483
0.00172134
0.00678097
0.0018446
0.0070439
0.00196914
0.00729287
0.00209453
0.00752727
0.00222038
0.00774656
0.00234634
0.0079503
0.00247205
0.00813813
0.00259722
0.00830975
0.00272158
0.00846487
0.00284488
0.00860322
0.0029669
0.00872445
0.00308739
0.00882807
0.00320603
0.00891424
0.00898319
0.00332235
1.78939e-06
-0.000116535
6.51628e-06
-0.00022385
1.3989e-05
-0.0002248
2.4394e-05
-0.000146755
3.81029e-05
-8.51159e-06
5.55551e-05
0.000176659
7.71968e-05
0.00039866
0.000103449
0.000649707
0.000134682
0.000923721
0.000171206
0.00121593
0.000213266
0.00152254
0.000261046
0.00184043
0.000314662
0.002167
0.000374163
0.00250001
0.00043954
0.00283746
0.000510722
0.00317756
0.000587584
0.00351862
0.00066995
0.00385903
0.000757594
0.00419728
0.000850252
0.00453191
0.000947619
0.0048615
0.00104935
0.00518472
0.00115509
0.00550029
0.00126444
0.00580701
0.001377
0.00610375
0.00149235
0.00638948
0.00161006
0.00666326
0.00172971
0.00692425
0.00185088
0.0071717
0.00197316
0.00740498
0.00209617
0.00762355
0.00221953
0.00782694
0.0023429
0.00801476
0.00246597
0.00818668
0.00258844
0.0083424
0.00271003
0.00848162
0.00283049
0.008604
0.00294949
0.00870907
0.00306667
0.00879706
0.00886838
0.00318149
1.2253e-06
-0.00011776
4.48579e-06
-0.00022711
9.78737e-06
-0.000230102
1.74644e-05
-0.000154432
2.79981e-05
-1.90454e-05
4.19146e-05
0.000162742
5.97246e-05
0.00038085
8.19004e-05
0.000627531
0.000108853
0.000896769
0.000140927
0.00118386
0.000178398
0.00148507
0.000221476
0.00179735
0.000270301
0.00211817
0.000324946
0.00244536
0.000385423
0.00277699
0.000451687
0.0031113
0.000523633
0.00344667
0.000601109
0.00378156
0.000683914
0.00411448
0.000771805
0.00444402
0.000864501
0.00476881
0.000961684
0.00508754
0.00106301
0.00539896
0.00116812
0.00570191
0.00127661
0.00599526
0.0013881
0.006278
0.00150217
0.00654919
0.00161842
0.00680801
0.00173642
0.0070537
0.00185579
0.00728562
0.00197613
0.00750321
0.00209707
0.007706
0.00221826
0.00789357
0.00233937
0.00806558
0.00246007
0.0082217
0.00258006
0.00836163
0.00269902
0.00848504
0.00281659
0.00859149
0.00293233
0.00868132
0.00875509
0.00304562
6.46984e-07
-0.000118407
2.42095e-06
-0.000228885
5.53654e-06
-0.000233218
1.04832e-05
-0.000159379
1.7857e-05
-2.64194e-05
2.82709e-05
0.000152328
4.2301e-05
0.000366819
6.04718e-05
0.00060936
8.32355e-05
0.000874005
0.000110969
0.00115613
0.000143977
0.00145206
0.000182496
0.00175883
0.000226687
0.00207398
0.000276647
0.0023954
0.000332408
0.00272123
0.000393948
0.00304976
0.000461186
0.00337943
0.000533989
0.00370875
0.000612179
0.00403629
0.000695536
0.00436066
0.000783799
0.00468054
0.000876674
0.00499466
0.000973839
0.0053018
0.00107495
0.0056008
0.00117963
0.00589057
0.00128751
0.00617012
0.00139819
0.00643851
0.00151128
0.00669492
0.00162636
0.00693861
0.00174305
0.00716893
0.00186095
0.0073853
0.0019797
0.00758725
0.00209892
0.00777435
0.00221827
0.00794623
0.00233739
0.00810258
0.00245594
0.00824308
0.00257355
0.00836743
0.00268981
0.00847523
0.0028042
0.00856693
0.00864325
0.00291604
5.2919e-08
-0.00011846
3.28481e-07
-0.00022916
1.25327e-06
-0.000234143
3.47872e-06
-0.000161605
7.71945e-06
-3.06603e-05
1.46778e-05
0.00014537
2.49972e-05
0.0003565
3.9252e-05
0.000595105
5.7934e-05
0.000855323
8.14537e-05
0.00113261
0.000110145
0.00142337
0.000144265
0.00172471
0.000183998
0.00203425
0.000229462
0.00234994
0.000280713
0.00266997
0.000337746
0.00299273
0.000400501
0.00331668
0.000468868
0.00364039
0.000542691
0.00396246
0.000621769
0.00428158
0.000705861
0.00459645
0.000794696
0.00490583
0.000887973
0.00520852
0.000985365
0.0055034
0.00108652
0.00578942
0.00119108
0.00606556
0.00129865
0.00633094
0.00140886
0.00658472
0.0015213
0.00682617
0.0016356
0.00705463
0.00175135
0.00726955
0.00186818
0.00747042
0.0019857
0.00765682
0.00210355
0.00782838
0.00222134
0.00798479
0.00233868
0.00812574
0.00245516
0.00825095
0.0025703
0.0083601
0.00268351
0.00845372
0.00853272
0.00279404
-5.45995e-07
-0.000117914
-1.78173e-06
-0.000227925
-3.04608e-06
-0.000232878
-3.52138e-06
-0.00016113
-2.37193e-06
-3.18098e-05
1.19368e-06
0.000141804
7.88601e-06
0.000349807
1.83303e-05
0.000584661
3.30578e-05
0.000840595
5.25102e-05
0.00111315
7.70467e-05
0.00139883
0.000106949
0.00169481
0.000142421
0.00199878
0.000183602
0.00230876
0.000230565
0.00262301
0.000283328
0.00293997
0.00034185
0.00325816
0.000406042
0.00357619
0.000475766
0.00389274
0.000550841
0.00420651
0.00063105
0.00451624
0.000716141
0.00482074
0.00080583
0.00511883
0.00089981
0.00540942
0.000997747
0.00569148
0.00109929
0.00596402
0.00120408
0.00622615
0.00131174
0.00647706
0.00142187
0.00671603
0.0015341
0.00694241
0.00164803
0.00715562
0.00176326
0.00735518
0.00187941
0.00754067
0.00199608
0.00771172
0.00211285
0.00786802
0.00222929
0.0080093
0.00234493
0.00813532
0.00245923
0.0082458
0.00257153
0.00834142
0.00842325
0.00268099
-1.15408e-06
-0.00011676
-3.90184e-06
-0.000225177
-7.34241e-06
-0.000229438
-1.0486e-05
-0.000157986
-1.23739e-05
-2.9922e-05
-1.2124e-05
0.000141554
-8.95717e-06
0.000346641
-2.19962e-06
0.000577903
8.71756e-06
0.000829678
2.42675e-05
0.0010976
4.48343e-05
0.00137826
7.07195e-05
0.00166893
0.000102148
0.00196735
0.000139277
0.00227163
0.000182201
0.00258009
0.000230952
0.00289121
0.000285513
0.0032036
0.000345811
0.00351589
0.000411729
0.00382682
0.000483106
0.00413513
0.000559744
0.0044396
0.000641409
0.00473907
0.000727839
0.0050324
0.000818741
0.00531852
0.000913803
0.00559642
0.00101269
0.00586513
0.00111504
0.00612379
0.0012205
0.0063716
0.00132869
0.00660785
0.00143922
0.00683188
0.0015517
0.00704315
0.00166572
0.00724116
0.00178088
0.00742551
0.00189675
0.00759585
0.00201288
0.00775188
0.0021288
0.00789338
0.00224397
0.00802014
0.0023578
0.00813198
0.00246954
0.00822967
0.0083145
0.00257829
-1.76626e-06
-0.000114994
-6.02192e-06
-0.000220921
-1.1617e-05
-0.000223843
-1.73852e-05
-0.000152218
-2.22424e-05
-2.5065e-05
-2.52151e-05
0.000144527
-2.5457e-05
0.000346882
-2.22455e-05
0.000574692
-1.49747e-05
0.000822407
-3.14241e-06
0.00108577
1.36585e-05
0.00136146
3.57491e-05
0.00164684
6.33731e-05
0.00193972
9.67057e-05
0.00223829
0.000135858
0.00254094
0.000180882
0.00284619
0.000231776
0.0031527
0.000288488
0.00345918
0.000350917
0.00376439
0.000418924
0.00406712
0.000492327
0.0043662
0.000570914
0.00466048
0.000654439
0.00494888
0.000742627
0.00523033
0.000835183
0.00550386
0.000931785
0.00576853
0.00103209
0.00602348
0.00113575
0.00626794
0.0012424
0.0065012
0.00135164
0.00672264
0.00146308
0.0069317
0.00157632
0.00712792
0.00169092
0.00731091
0.00180643
0.00748033
0.00192238
0.00763594
0.00203823
0.00777753
0.0021534
0.00790497
0.00226721
0.00801816
0.00237886
0.00811803
0.00820601
0.00248735
-2.37998e-06
-0.000112614
-8.1326e-06
-0.000215169
-1.58506e-05
-0.000216125
-2.41881e-05
-0.00014388
-3.19333e-05
-1.73199e-05
-3.80213e-05
0.000150615
-4.15383e-05
0.000350399
-4.17147e-05
0.000574868
-3.79083e-05
0.000818601
-2.95896e-05
0.00107745
-1.63299e-05
0.0013482
2.20982e-06
0.0016283
2.62908e-05
0.00191564
5.61044e-05
0.00220848
9.17784e-05
0.00250526
0.000133382
0.00280459
0.000180929
0.00310515
0.000234386
0.00340573
0.00029367
0.00370511
0.000358659
0.00400213
0.000429193
0.00429567
0.000505075
0.0045846
0.000586076
0.00486787
0.000671943
0.00514447
0.000762392
0.00541341
0.000857121
0.0056738
0.000955802
0.0059248
0.00105809
0.00616565
0.00116363
0.00639567
0.00127203
0.00661424
0.0013829
0.00682083
0.00149583
0.007015
0.00161036
0.00719638
0.00172602
0.00736467
0.0018423
0.00751966
0.00195862
0.00766121
0.00207432
0.00778927
0.00218868
0.00790381
0.0023008
0.00800591
0.00809722
0.0024096
-2.99259e-06
-0.000109622
-1.02243e-05
-0.000207938
-2.00242e-05
-0.000206325
-3.08643e-05
-0.00013304
-4.14033e-05
-6.78091e-06
-5.04844e-05
0.000159696
-5.71276e-05
0.000357042
-6.05165e-05
0.000578257
-5.99744e-05
0.000818058
-5.4946e-05
0.00107242
-4.49828e-05
0.00133824
-2.97288e-05
0.00161304
-8.90715e-06
0.00189482
1.76887e-05
0.00218188
5.02019e-05
0.00247275
8.87162e-05
0.00276607
0.000133262
0.00306061
0.000183821
0.00335517
0.00024033
0.0036486
0.000302683
0.00393978
0.000370737
0.00422761
0.000444314
0.00451102
0.000523203
0.00478899
0.000607166
0.0050605
0.000695939
0.00532464
0.000789233
0.00558051
0.000886735
0.0058273
0.000988112
0.00606428
0.00109301
0.00629077
0.00120107
0.00650618
0.00131187
0.00671002
0.001425
0.00690187
0.00154
0.00708138
0.00165638
0.0072483
0.00177357
0.00740247
0.00189096
0.00754382
0.00200785
0.00767238
0.00212341
0.00778824
0.00223669
0.00789263
0.00798741
0.00234649
-3.60147e-06
-0.00010602
-1.22874e-05
-0.000199252
-2.4119e-05
-0.000194494
-3.7384e-05
-0.000119775
-5.061e-05
6.44502e-06
-6.25481e-05
0.000171634
-7.21534e-05
0.000366648
-7.85633e-05
0.000584666
-8.10678e-05
0.000820563
-7.9088e-05
0.00107044
-7.21566e-05
0.00133131
-5.99022e-05
0.00160079
-4.20337e-05
0.00187695
-1.8331e-05
0.00215818
1.13625e-05
0.00244306
4.71446e-05
0.00273029
8.90601e-05
0.00301869
0.000137106
0.00330712
0.000191236
0.00359447
0.000251361
0.00387966
0.000317354
0.00416162
0.000389055
0.00443932
0.000466271
0.00471177
0.00054878
0.00497799
0.000636335
0.00523708
0.000728661
0.00548818
0.000825463
0.0057305
0.000926421
0.00596332
0.00103119
0.00618599
0.00113942
0.00639796
0.00125069
0.00659875
0.0013646
0.00678797
0.00148066
0.00696532
0.00159836
0.0071306
0.00171711
0.00728371
0.00183627
0.00742467
0.00195505
0.0075536
0.00207258
0.00767071
0.0021878
0.00777741
0.00787578
0.00229943
-4.20399e-06
-0.000101816
-1.43125e-05
-0.000189143
-2.81168e-05
-0.00018069
-4.37185e-05
-0.000104174
-5.95126e-05
2.22391e-05
-7.41587e-05
0.00018628
-8.65475e-05
0.000379036
-9.57714e-05
0.00059389
-0.000101088
0.00082588
-0.000101898
0.00107125
-9.77144e-05
0.00132713
-8.8153e-05
0.00159123
-7.29097e-05
0.00186171
-5.17526e-05
0.00213703
-2.45132e-05
0.00241582
8.9188e-06
0.00269686
4.86014e-05
0.00297901
9.45461e-05
0.00326118
0.000146721
0.0035423
0.000205055
0.00382132
0.000269435
0.00409724
0.000339718
0.00436904
0.000415728
0.00463576
0.000497261
0.00489646
0.000584084
0.00515026
0.000675942
0.00539632
0.000772554
0.00563389
0.000873616
0.00586226
0.0009788
0.00608081
0.00108775
0.00628901
0.00120007
0.00648642
0.00131535
0.00667269
0.0014331
0.00684756
0.0015528
0.0070109
0.00167383
0.00716268
0.0017955
0.007303
0.00191699
0.00743211
0.00203734
0.00755036
0.00215542
0.00765934
0.00776139
0.00226981
-4.79744e-06
-9.7019e-05
-1.62907e-05
-0.00017765
-3.20003e-05
-0.00016498
-4.98402e-05
-8.6334e-05
-6.80723e-05
4.04712e-05
-8.5265e-05
0.000203473
-0.000100246
0.000394017
-0.000112062
0.000605707
-0.000119943
0.00083376
-0.000123264
0.00107457
-0.000121527
0.00132539
-0.000114333
0.00158403
-0.000101366
0.00184874
-8.23842e-05
0.00211804
-5.72097e-05
0.00239064
-2.57205e-05
0.00266537
1.21532e-05
0.00294114
5.64357e-05
0.00321689
0.000107109
0.00349162
0.000164117
0.00376432
0.000227362
0.00403399
0.000296715
0.00429969
0.000372017
0.00456046
0.000453081
0.0048154
0.000539692
0.00506365
0.000631609
0.0053044
0.000728571
0.00553693
0.000830289
0.00576054
0.000936451
0.00597465
0.00104671
0.00617875
0.0011607
0.00637244
0.00127799
0.0065554
0.00139811
0.00672744
0.00152051
0.00688849
0.00164459
0.0070386
0.0017696
0.00717799
0.00189468
0.00730703
0.0020188
0.00742624
0.00214074
0.0075374
0.00764315
0.00225897
-5.37908e-06
-9.164e-05
-1.82131e-05
-0.000164817
-3.57527e-05
-0.00014744
-5.57228e-05
-6.63641e-05
-7.62526e-05
6.1001e-05
-9.58194e-05
0.000223039
-0.000113188
0.000411386
-0.000127363
0.000619882
-0.000137543
0.00084394
-0.000143086
0.00108012
-0.000143476
0.00132578
-0.000138304
0.00157886
-0.000127245
0.00183768
-0.000110047
0.00210085
-8.65252e-05
0.00236712
-5.65471e-05
0.00263539
-2.00324e-05
0.00290462
2.30545e-05
0.00317381
7.27083e-05
0.00344197
0.000128884
0.00370814
0.000191501
0.00397138
0.000260443
0.00423074
0.000335568
0.00448533
0.000416702
0.00473426
0.000503649
0.0049767
0.000596186
0.00521187
0.000694068
0.00543904
0.000797025
0.00565758
0.000904763
0.00586691
0.00101696
0.00606656
0.00113324
0.00625615
0.00125321
0.00643543
0.00137641
0.00660425
0.00150229
0.00676261
0.00163022
0.00691067
0.00175944
0.00704876
0.00188907
0.00717741
0.00201799
0.00729731
0.00214491
0.00741048
0.00751991
0.00226815
-5.94605e-06
-8.5694e-05
-2.00714e-05
-0.000150691
-3.93585e-05
-0.000128153
-6.1342e-05
-4.43807e-05
-8.40195e-05
8.36785e-05
-0.000105778
0.000244798
-0.00012532
0.000430928
-0.000141608
0.00063617
-0.000153811
0.000856144
-0.000161269
0.00108758
-0.000163453
0.00132796
-0.000159942
0.00157535
-0.000150403
0.00182815
-0.000134579
0.00208502
-0.000112275
0.00234482
-8.33525e-05
0.00260647
-4.77217e-05
0.00286899
-5.33704e-06
0.00313142
4.38066e-05
0.00339282
9.9676e-05
0.00365227
0.000162202
0.00390885
0.000231284
0.00416166
0.000306792
0.00440982
0.000388569
0.00465248
0.000476434
0.00488884
0.000570181
0.00511812
0.000669585
0.00533964
0.000774395
0.00555277
0.000884336
0.00575697
0.000999105
0.00595179
0.00111836
0.0061369
0.00124172
0.00631207
0.00136873
0.00647724
0.00149886
0.00663248
0.00163149
0.00677804
0.00176586
0.00691439
0.00190104
0.00704223
0.00203587
0.00716248
0.00216895
0.0072774
0.00739037
0.00229849
-6.49555e-06
-7.91986e-05
-2.18581e-05
-0.000135329
-4.28029e-05
-0.000107209
-6.66751e-05
-2.05085e-05
-9.13419e-05
0.000108345
-0.0001151
0.000268556
-0.000136591
0.000452419
-0.000154735
0.000654314
-0.000168676
0.000870085
-0.000177731
0.00109663
-0.000181361
0.00133159
-0.000179136
0.00157312
-0.000170714
0.00181972
-0.000155833
0.00207014
-0.000134293
0.00232328
-0.000105949
0.00257813
-7.07031e-05
0.00283374
-2.85014e-05
0.00308922
2.06696e-05
0.00334365
7.67866e-05
0.00359615
0.000139792
0.00384585
0.000209596
0.00409186
0.000286081
0.00433334
0.000369106
0.00456946
0.000458503
0.00479944
0.000554085
0.00502254
0.000655644
0.00523808
0.00076295
0.00544546
0.000875752
0.00564417
0.000993769
0.00583377
0.00111669
0.00601398
0.00124415
0.00618461
0.00137573
0.00634566
0.00151094
0.00649727
0.00164915
0.00663983
0.00178961
0.00677393
0.00193138
0.00690047
0.00207326
0.00702059
0.00221377
0.0071369
0.00725318
0.00235096
-7.0249e-06
-7.21737e-05
-2.35658e-05
-0.000118789
-4.60722e-05
-8.47024e-05
-7.17011e-05
5.1204e-06
-9.8191e-05
0.000134835
-0.000123749
0.000294114
-0.000146956
0.000475626
-0.000166692
0.00067405
-0.000182073
0.000885466
-0.000192399
0.00110696
-0.000197117
0.00133631
-0.000195787
0.00157179
-0.000188066
0.001812
-0.000173684
0.00205576
-0.000152436
0.00230203
-0.000124172
0.00254986
-8.87898e-05
0.00279836
-4.62278e-05
0.00304666
3.53439e-06
0.00329389
6.04814e-05
0.00353921
0.000124564
0.00378176
0.000195704
0.00402072
0.000273795
0.00425525
0.000358706
0.00448455
0.000450285
0.00470786
0.00054836
0.00492446
0.000652741
0.0051337
0.000763218
0.00533499
0.000879565
0.00552782
0.00100153
0.00571181
0.00112883
0.00588668
0.00126113
0.0060523
0.00139807
0.00620872
0.00153916
0.00635618
0.00168384
0.00649515
0.00183136
0.00662641
0.00198079
0.00675104
0.0021309
0.00687048
0.00228012
0.00698767
0.00710693
0.00242637
-7.53167e-06
-6.46421e-05
-2.51877e-05
-0.000101133
-4.91535e-05
-6.07367e-05
-7.64007e-05
3.23675e-05
-0.000104541
0.000162975
-0.000131692
0.000321265
-0.000156375
0.00050031
-0.000177431
0.000695105
-0.000193947
0.000901982
-0.000205208
0.00111822
-0.000210646
0.00134175
-0.000209815
0.00157096
-0.000202366
0.00180455
-0.000188023
0.00204142
-0.00016658
0.00228059
-0.000137883
0.00252116
-0.000101823
0.0027623
-5.83352e-05
0.00300317
-7.39382e-06
0.00324295
5.09921e-05
0.00348082
0.000116781
0.00371597
0.000189901
0.0039476
0.000270257
0.00417489
0.000357728
0.00439708
0.000452172
0.00461342
0.000553433
0.0048232
0.000661335
0.0050258
0.000775691
0.00522063
0.000896297
0.00540721
0.00102293
0.00558517
0.00115534
0.00575427
0.00129325
0.00591439
0.00143632
0.00606566
0.00158413
0.00620837
0.00173615
0.00634313
0.00189169
0.00647087
0.00204982
0.0065929
0.00220933
0.00671097
0.00236857
0.00682843
0.00695018
0.00252531
-8.01378e-06
-5.66284e-05
-2.67174e-05
-8.24292e-05
-5.20351e-05
-3.54191e-05
-8.0756e-05
6.10883e-05
-0.000110366
0.000192585
-0.000138897
0.000349795
-0.000164812
0.000526225
-0.000186909
0.000717202
-0.000204251
0.000919325
-0.000216104
0.00113007
-0.000221888
0.00134753
-0.00022115
0.00157022
-0.000213534
0.00179694
-0.000198763
0.00202665
-0.000176626
0.00225845
-0.000146965
0.0024915
-0.000109671
0.00272501
-6.46747e-05
0.00295817
-1.19455e-05
0.00319022
4.85117e-05
0.00342036
0.00011666
0.00364782
0.000192435
0.00387182
0.000275746
0.00409158
0.000366481
0.00430634
0.000464509
0.00451539
0.000569681
0.00471803
0.00068184
0.00491364
0.000800814
0.00510166
0.000926423
0.0052816
0.00105847
0.00545312
0.00119676
0.00561598
0.00134103
0.00577012
0.00149101
0.00591568
0.00164635
0.00605304
0.00180657
0.00618291
0.00197105
0.00630638
0.00213892
0.00642503
0.00230896
0.00654094
0.00247948
0.00665791
0.00678154
0.00264812
-8.46941e-06
-4.81591e-05
-2.81489e-05
-6.27498e-05
-5.47057e-05
-8.8624e-06
-8.475e-05
9.11324e-05
-0.000115645
0.00022348
-0.000145337
0.000379487
-0.000172231
0.000553119
-0.000195087
0.000740059
-0.000212941
0.000937179
-0.000225039
0.00114217
-0.000230791
0.00135328
-0.000229734
0.00156917
-0.000221509
0.00178871
-0.000205833
0.00201097
-0.000182495
0.00223511
-0.000151333
0.00246034
-0.000112236
0.00268591
-6.51317e-05
0.00291107
-9.98821e-06
0.00313508
5.31922e-05
0.00335718
0.000124377
0.00357664
0.000203505
0.00379269
0.00029049
0.00400459
0.000385225
0.00421161
0.000487584
0.00441303
0.000597429
0.00460819
0.000714611
0.00479646
0.000838974
0.00497729
0.000970358
0.00515022
0.0011086
0.00531489
0.00125352
0.00547107
0.00140492
0.00561871
0.00156259
0.005758
0.00172625
0.00588938
0.00189549
0.00601366
0.00206979
0.00613209
0.00224834
0.00624648
0.00242997
0.00635931
0.00261298
0.0064749
0.00659965
0.00279487
-8.89684e-06
-3.92623e-05
-2.94765e-05
-4.21703e-05
-5.71546e-05
1.88156e-05
-8.83665e-05
0.000122344
-0.000120355
0.000255468
-0.000150984
0.000410116
-0.000178603
0.000580738
-0.000201932
0.000763388
-0.000219979
0.000955226
-0.000231972
0.00115416
-0.000237311
0.00135862
-0.000235522
0.00156738
-0.00022624
0.00177943
-0.000209181
0.00199391
-0.000184129
0.00221006
-0.000150921
0.00242713
-0.000109444
0.00264443
-5.96243e-05
0.00286125
-1.42895e-06
0.00307688
6.51422e-05
0.00329061
0.000140057
0.00350172
0.000223258
0.00370949
0.000314659
0.00391319
0.000414155
0.00411211
0.000521624
0.00430556
0.000636931
0.00449288
0.000759934
0.00467345
0.000890487
0.00484674
0.00102844
0.00501226
0.00117366
0.00516967
0.001326
0.00531873
0.00148531
0.0054594
0.00165143
0.00559188
0.00182416
0.00571666
0.0020032
0.00583462
0.00218811
0.00594717
0.00237821
0.00605639
0.00257238
0.00616514
0.00276895
0.00627833
0.00640329
0.00296531
-9.29439e-06
-2.99679e-05
-3.06944e-05
-2.07704e-05
-5.93712e-05
4.74923e-05
-9.15892e-05
0.000154562
-0.000124475
0.000288354
-0.000155813
0.000441453
-0.000183897
0.000608822
-0.000207408
0.000786899
-0.000225328
0.000973145
-0.000236866
0.0011657
-0.000241408
0.00136316
-0.000238473
0.00156444
-0.000227689
0.00176864
-0.000208767
0.00197499
-0.000181487
0.00218278
-0.000145687
0.00239133
-0.000101249
0.0026
-4.81016e-05
0.0028081
1.37909e-05
0.00301499
8.44284e-05
0.00321997
0.00016378
0.00342237
0.000251786
0.00362149
0.000348361
0.00381662
0.000453401
0.00400707
0.00056678
0.00419218
0.000688364
0.00437129
0.000818012
0.00454381
0.000955582
0.00470917
0.00110094
0.00486691
0.00125395
0.00501666
0.0014145
0.00515818
0.00158248
0.00529142
0.00175779
0.00541657
0.00194031
0.00553414
0.00212984
0.00564509
0.00232607
0.00575094
0.00252843
0.00585403
0.00273594
0.00595762
0.00294699
0.00606729
0.00619138
0.0031589
-9.66032e-06
-2.03076e-05
-3.17973e-05
1.36642e-06
-6.13446e-05
7.70395e-05
-9.44015e-05
0.000187619
-0.000127983
0.000321936
-0.000159796
0.000473266
-0.000188081
0.000637107
-0.000211481
0.0008103
-0.000228952
0.000990616
-0.000239683
0.00117643
-0.000243046
0.00136653
-0.000238551
0.00155995
-0.00022582
0.00175591
-0.000204557
0.00195373
-0.00017454
0.00215276
-0.000135602
0.0023524
-8.76264e-05
0.00255202
-3.05385e-05
0.00275102
3.56966e-05
0.00294875
0.000111079
0.00314459
0.000195577
0.00333788
0.000289129
0.00352793
0.000391648
0.0037141
0.000503025
0.0038957
0.000623131
0.00407207
0.000751826
0.0042426
0.000888964
0.00440667
0.0010344
0.00456373
0.00118799
0.00471332
0.00134962
0.00485503
0.00151918
0.00498861
0.0016966
0.005114
0.00188182
0.00523135
0.00207479
0.00534117
0.00227543
0.00544445
0.00248355
0.00554282
0.00269875
0.00563883
0.00292022
0.00573616
0.00314644
0.00584107
0.00596307
0.00337474
-9.99285e-06
-1.03148e-05
-3.27792e-05
2.41526e-05
-6.30634e-05
0.000107324
-9.67859e-05
0.000221341
-0.000130855
0.000356004
-0.000162905
0.000505316
-0.000191122
0.000665324
-0.000214115
0.000833294
-0.000230812
0.00100731
-0.000240382
0.001186
-0.000242185
0.00136833
-0.00023572
0.00155348
-0.000220599
0.00174079
-0.000196522
0.00192965
-0.000163262
0.0021195
-0.000120648
0.00230978
-6.8562e-05
0.00249993
-6.92759e-06
0.00268938
6.42904e-05
0.00287753
0.000145091
0.00306379
0.000235443
0.00324752
0.00033528
0.0034281
0.000444514
0.00360486
0.000563026
0.00377718
0.000690682
0.00394442
0.000827331
0.00410595
0.000972817
0.00426118
0.00112698
0.00440957
0.00128967
0.00455063
0.00146076
0.00468394
0.00164014
0.00480923
0.00182775
0.00492639
0.00202356
0.00503554
0.00222759
0.00513714
0.00243986
0.00523219
0.00266031
0.00532236
0.00288875
0.00541039
0.00312454
0.00550037
0.00336636
0.00559925
0.00571781
0.00361162
-1.02901e-05
-2.47035e-08
-3.36339e-05
4.74963e-05
-6.45153e-05
0.000138205
-9.87239e-05
0.00025555
-0.000133066
0.000390347
-0.000165107
0.000537358
-0.000192984
0.000693201
-0.000215269
0.000855578
-0.000230863
0.00102291
-0.00023892
0.00119406
-0.00023878
0.00136819
-0.000229935
0.00154464
-0.000211986
0.00172284
-0.000184628
0.00190229
-0.000147625
0.0020825
-0.000100805
0.00226296
-4.40455e-05
0.00244317
2.27315e-05
0.0026226
9.95619e-05
0.0028007
0.000186445
0.00297691
0.000283347
0.00315062
0.000390201
0.00332124
0.00050691
0.00348816
0.000633351
0.00365074
0.000769377
0.00380839
0.000914826
0.0039605
0.00106952
0.00410649
0.00123328
0.00424581
0.00140594
0.00437797
0.00158733
0.00450255
0.00177734
0.00461922
0.00197589
0.00472784
0.00218296
0.00482846
0.00239861
0.0049215
0.00262292
0.00500787
0.00285601
0.00508928
0.00309784
0.00516856
0.00334806
0.00525015
0.0036056
0.00534171
0.00545538
0.00386803
-1.05503e-05
1.05255e-05
-3.43549e-05
7.13008e-05
-6.56874e-05
0.000169537
-0.000100195
0.000290057
-0.000134589
0.000424741
-0.000166369
0.000569137
-0.000193624
0.000720456
-0.000214894
0.000876848
-0.000229055
0.00103707
-0.00023524
0.00120024
-0.000232776
0.00136573
-0.000221142
0.001533
-0.00019993
0.00170163
-0.000168826
0.00187119
-0.000127589
0.00204126
-7.60417e-05
0.00221142