/*--------------------------------*- C++ -*----------------------------------*\
  =========                 |
  \\      /  F ield         | OpenFOAM: The Open Source CFD Toolbox
   \\    /   O peration     | Website:  https://openfoam.org
    \\  /    A nd           | Version:  7
     \\/     M anipulation  |
\*---------------------------------------------------------------------------*/
FoamFile
{
    version     2.0;
    format      ascii;
    class       volVectorField;
    location    "7.4";
    object      U;
}
// * * * * * * * * * * * * * * * * * * * * * * * * * * * * * * * * * * * * * //

dimensions      [0 1 -1 0 0 0 0];

internalField   nonuniform List<vector> 
32000
(
(0.000185973 -0.00362281 -2.93088e-22)
(0.00105414 -0.00619915 0)
(0.00266012 -0.0047183 -2.62189e-21)
(0.00468269 -0.000137033 0)
(0.00708305 0.00687722 2.7322e-21)
(0.00980153 0.0158307 0)
(0.0128049 0.0263354 2.82343e-21)
(0.0160713 0.038081 -2.14651e-21)
(0.0195818 0.0508193 4.82339e-25)
(0.023318 0.0643466 6.27819e-25)
(0.0272607 0.0784949 -7.38995e-22)
(0.0313908 0.0931225 2.98258e-21)
(0.0356883 0.108107 0)
(0.0401322 0.12334 -7.57639e-22)
(0.0447 0.138723 7.60784e-22)
(0.0493684 0.154165 0)
(0.0541128 0.169583 3.84928e-21)
(0.0589083 0.184895 -7.72279e-22)
(0.06373 0.200027 0)
(0.0685527 0.214905 1.56367e-21)
(0.0733517 0.229463 1.56768e-21)
(0.0781027 0.243637 0)
(0.0827827 0.257367 0)
(0.0873695 0.270599 0)
(0.0918433 0.283284 0)
(0.0961858 0.29538 0)
(0.10038 0.306849 0)
(0.104412 0.317661 0)
(0.10827 0.32779 -3.21094e-21)
(0.111943 0.33722 0)
(0.115425 0.345936 3.22684e-21)
(0.118711 0.353931 0)
(0.121799 0.361203 0)
(0.124689 0.367752 0)
(0.127384 0.373582 -3.25149e-21)
(0.12989 0.378692 -1.63721e-21)
(0.132215 0.383081 4.90535e-21)
(0.134377 0.386735 4.55624e-24)
(0.136377 0.389649 3.28249e-21)
(0.138104 0.391804 3.81078e-24)
(0.000248921 -0.00381296 0)
(0.00110254 -0.0066943 5.11803e-21)
(0.00254896 -0.00547792 1.31002e-21)
(0.00431121 -0.001133 -6.82695e-25)
(0.00637054 0.00565892 -1.36602e-21)
(0.00868752 0.0143961 0)
(0.0112433 0.024687 2.82275e-21)
(0.0140275 0.0362193 -2.86132e-21)
(0.01703 0.0487455 0)
(0.020239 0.0620617 -5.8552e-21)
(0.0236421 0.076001 0)
(0.0272255 0.090424 -8.94444e-21)
(0.0309726 0.10521 0)
(0.0348665 0.120253 0)
(0.0388882 0.135457 3.04769e-21)
(0.043017 0.150733 -3.05752e-21)
(0.0472313 0.165998 -3.07791e-21)
(0.0515096 0.181174 0)
(0.055829 0.196187 9.31532e-21)
(0.0601668 0.210967 -3.11045e-21)
(0.064501 0.225446 5.20395e-24)
(0.0688093 0.239562 -9.40687e-21)
(0.0730701 0.253256 -6.29583e-21)
(0.0772632 0.266473 -3.16969e-21)
(0.0813704 0.279166 9.49663e-21)
(0.0853743 0.29129 -9.54377e-21)
(0.089259 0.302808 9.57848e-21)
(0.0930106 0.313687 -1.27631e-20)
(0.0966175 0.323903 -3.19339e-21)
(0.10007 0.333434 3.17952e-23)
(0.10336 0.342265 -9.61445e-21)
(0.106484 0.350389 -6.43378e-21)
(0.109438 0.357798 1.29512e-20)
(0.112221 0.364492 -1.29259e-20)
(0.114836 0.37047 -3.22648e-21)
(0.117287 0.37573 -1.3007e-20)
(0.119582 0.380268 -9.76353e-24)
(0.121736 0.384067 3.27017e-21)
(0.123739 0.387122 -1.29888e-20)
(0.125482 0.389415 -1.85606e-20)
(0.000319762 -0.0040014 -1.1739e-21)
(0.00116947 -0.00718309 -2.55897e-21)
(0.00246075 -0.00620644 -1.18015e-20)
(0.00396705 -0.00207881 0)
(0.00569122 0.00450442 1.3663e-21)
(0.00761309 0.0130351 -1.38954e-21)
(0.00972852 0.0231186 -1.69366e-20)
(0.0120392 0.0344417 5.72303e-21)
(0.0145441 0.0467557 -2.89703e-21)
(0.0172377 0.0598591 1.75616e-20)
(0.0201136 0.073587 5.91111e-21)
(0.0231627 0.0878009 2.9832e-21)
(0.0263731 0.102383 -1.20119e-20)
(0.0297302 0.117228 0)
(0.0332187 0.132243 0)
(0.0368211 0.147342 6.12635e-21)
(0.0405182 0.162443 1.71121e-23)
(0.0442905 0.17747 -6.16749e-21)
(0.0481184 0.192351 -6.20524e-21)
(0.0519815 0.207016 -1.24471e-20)
(0.0558591 0.221401 1.87548e-20)
(0.0597312 0.235442 1.84532e-23)
(0.0635781 0.249081 -1.18413e-23)
(0.0673814 0.262266 6.29412e-21)
(0.0711238 0.274946 -1.26832e-20)
(0.0747893 0.287079 2.5365e-20)
(0.078363 0.298626 0)
(0.0818316 0.309554 6.3882e-21)
(0.0851835 0.319835 6.40426e-21)
(0.0884091 0.329449 1.28518e-20)
(0.0915011 0.338378 3.17929e-23)
(0.0944539 0.346611 0)
(0.0972641 0.35414 6.48196e-21)
(0.0999305 0.360962 -6.40016e-21)
(0.102454 0.367074 -6.43022e-21)
(0.104838 0.37247 1.94759e-20)
(0.10709 0.377145 -1.93502e-20)
(0.109224 0.38108 1.30075e-20)
(0.111216 0.38427 -1.93653e-20)
(0.11296 0.386698 7.3227e-21)
(0.000396963 -0.00415476 9.39196e-21)
(0.00124944 -0.00759167 -1.02435e-20)
(0.00238763 -0.00683575 2.09844e-20)
(0.00364013 -0.00291315 0)
(0.00503194 0.0034684 8.19769e-21)
(0.006564 0.0117956 1.38994e-20)
(0.00824687 0.0216711 2.82286e-21)
(0.0100929 0.0327825 1.13232e-24)
(0.01211 0.0448802 8.68814e-21)
(0.0143 0.0577649 -2.92909e-21)
(0.0166616 0.0712731 1.47725e-20)
(0.0191901 0.0852691 -1.78825e-20)
(0.0218774 0.0996367 1.80129e-20)
(0.0247127 0.114274 -6.05126e-21)
(0.0276831 0.129089 6.07645e-21)
(0.0307734 0.143999 -1.22279e-20)
(0.0339673 0.158923 -1.84412e-20)
(0.0372476 0.173787 6.16348e-21)
(0.0405967 0.188521 -6.20861e-21)
(0.0439962 0.203057 1.86564e-20)
(0.0474278 0.21733 -1.24916e-20)
(0.0508728 0.231279 -1.25205e-20)
(0.0543134 0.244848 0)
(0.0577326 0.257981 0)
(0.0611148 0.270632 -1.26286e-20)
(0.064445 0.282755 -1.26827e-20)
(0.0677088 0.294312 -1.26909e-20)
(0.0708938 0.305269 0)
(0.0739889 0.315598 0)
(0.0769845 0.325276 -2.56014e-20)
(0.0798733 0.334284 -8.62104e-23)
(0.0826493 0.34261 1.28523e-20)
(0.0853088 0.350243 -1.28095e-20)
(0.0878499 0.357178 -1.29147e-20)
(0.0902729 0.363408 1.28863e-20)
(0.0925799 0.368929 0)
(0.0947773 0.373729 1.29305e-20)
(0.0968787 0.377791 -2.58364e-20)
(0.0988478 0.38111 2.58088e-20)
(0.10058 0.383669 -2.94676e-20)
(0.000478704 -0.0042941 -4.69343e-21)
(0.00133963 -0.00796237 7.68342e-21)
(0.00232675 -0.00740585 -1.04937e-20)
(0.00332796 -0.00367322 0)
(0.00439168 0.00251725 -1.36637e-20)
(0.00553909 0.0106474 -8.34018e-21)
(0.00679615 0.0203182 1.12912e-20)
(0.00818655 0.0312176 0)
(0.00972646 0.0430973 -1.73764e-20)
(0.0114243 0.0557596 -5.85543e-21)
(0.0132841 0.0690434 -5.9068e-21)
(0.0153059 0.0828153 1.19253e-20)
(0.0174849 0.0969617 -1.20082e-20)
(0.0198129 0.111383 6.03933e-21)
(0.0222797 0.125989 0)
(0.0248731 0.140698 1.8348e-20)
(0.0275784 0.155434 6.15264e-21)
(0.0303805 0.170124 -1.23571e-20)
(0.0332642 0.184698 2.47757e-20)
(0.036213 0.19909 -2.48665e-20)
(0.0392099 0.213237 2.49202e-20)
(0.0422381 0.22708 1.25205e-20)
(0.0452814 0.24056 0)
(0.0483246 0.253626 1.26193e-20)
(0.0513529 0.266229 4.22622e-23)
(0.0543524 0.278325 0)
(0.0573097 0.289875 1.26909e-20)
(0.060213 0.300844 -1.27459e-20)
(0.0630516 0.311202 1.26929e-20)
(0.0658161 0.320926 2.5569e-20)
(0.0684992 0.329997 -2.55563e-20)
(0.0710949 0.338399 2.55709e-20)
(0.0735988 0.34612 0)
(0.0760087 0.353152 0)
(0.078324 0.359488 2.56824e-20)
(0.0805458 0.36512 0)
(0.08268 0.370035 0)
(0.0847386 0.374217 -2.57468e-20)
(0.0866732 0.377658 2.56325e-20)
(0.0883819 0.380346 1.4718e-20)
(0.000563455 -0.00440856 2.3498e-21)
(0.00143593 -0.00827265 0)
(0.00227319 -0.00789336 2.10009e-20)
(0.00302468 -0.00433613 2.6818e-21)
(0.00376306 0.00167152 2.73424e-21)
(0.00453107 0.00960873 1.66855e-20)
(0.00536963 0.019076 2.25863e-20)
(0.00631308 0.0297619 0)
(0.00738604 0.0414201 5.7932e-21)
(0.00860372 0.0538548 1.75627e-20)
(0.00997525 0.0669079 2.36357e-20)
(0.0115043 0.0804484 -5.96194e-21)
(0.0131895 0.0943649 -1.80119e-20)
(0.0150255 0.10856 0)
(0.0170046 0.122947 2.4313e-20)
(0.0191163 0.137446 0)
(0.0213484 0.151982 3.68532e-20)
(0.0236876 0.166484 -1.23156e-20)
(0.0261205 0.180885 0)
(0.0286321 0.19512 -1.24484e-20)
(0.0312071 0.209127 -2.81352e-23)
(0.0338304 0.222847 -1.2468e-20)
(0.0364874 0.236225 -1.25114e-20)
(0.0391639 0.249207 1.26041e-20)
(0.0418466 0.261746 -1.25712e-20)
(0.0445223 0.273798 0)
(0.0471787 0.285323 -1.2695e-20)
(0.0498043 0.296286 1.26466e-20)
(0.052389 0.306657 0)
(0.0549238 0.316411 0)
(0.0574013 0.325528 0)
(0.0598154 0.33399 -2.56091e-20)
(0.0621612 0.341784 2.54739e-20)
(0.0644361 0.3489 0)
(0.0666387 0.355328 -1.28197e-20)
(0.0687692 0.361059 0)
(0.0708329 0.366081 2.56968e-20)
(0.0728399 0.370374 -1.27027e-20)
(0.0747305 0.373933 -2.56852e-20)
(0.0764046 0.376749 2.91916e-20)
(0.00064978 -0.00450177 1.64627e-20)
(0.00153513 -0.00852824 -2.30745e-20)
(0.00222267 -0.00830428 -3.93835e-20)
(0.00272585 -0.00490872 -2.14614e-20)
(0.0031424 0.000924794 -5.46837e-21)
(0.00353618 0.00867361 -1.11218e-20)
(0.00396331 0.0179382 -5.08219e-20)
(0.00446921 0.028409 -1.7171e-20)
(0.00508642 0.0398423 -2.89613e-20)
(0.00583637 0.0520449 -2.92702e-20)
(0.00673311 0.0648611 -4.13659e-20)
(0.00778418 0.0781631 -2.38348e-20)
(0.00899108 0.0918417 -3.51432e-25)
(0.0103509 0.105802 -2.41697e-20)
(0.0118582 0.11996 -2.4313e-20)
(0.0135048 0.134238 -3.6672e-20)
(0.0152799 0.148563 2.45517e-20)
(0.0171721 0.162867 -1.23124e-20)
(0.0191695 0.177083 0)
(0.0212587 0.191148 2.48354e-20)
(0.0234259 0.205001 0)
(0.0256575 0.218585 4.99859e-20)
(0.0279402 0.231844 0)
(0.0302613 0.244728 -1.25913e-20)
(0.0326083 0.257188 1.26345e-20)
(0.0349689 0.269179 -2.51663e-20)
(0.0373317 0.280664 0)
(0.0396857 0.291605 -2.53986e-20)
(0.0420212 0.301973 2.52931e-20)
(0.0443298 0.311741 0)
(0.0466041 0.320888 0)
(0.0488374 0.329395 0)
(0.0510248 0.337248 -2.54565e-20)
(0.0531631 0.344434 0)
(0.0552501 0.350943 -2.55972e-20)
(0.0572852 0.356763 5.10491e-20)
(0.0592727 0.361882 -5.10508e-20)
(0.0612211 0.366281 2.53222e-20)
(0.0630596 0.369954 5.10129e-20)
(0.0646896 0.372897 -2.9106e-20)
(0.000736 -0.00457185 -2.11659e-20)
(0.00163351 -0.00872707 -8.47896e-24)
(0.00217097 -0.00863664 2.10078e-20)
(0.00242696 -0.00538843 4.29289e-20)
(0.00252485 0.000279041 -5.46957e-21)
(0.00255008 0.00784291 -2.22555e-20)
(0.00257372 0.0169055 2.25882e-20)
(0.00265187 0.0271597 3.4344e-20)
(0.00282487 0.0383644 1.15838e-20)
(0.00312036 0.0503296 2.9273e-20)
(0.00355691 0.062903 2.36371e-20)
(0.00414533 0.0759593 3.57478e-20)
(0.00488989 0.0893922 7.2039e-20)
(0.00579016 0.10311 3.62644e-20)
(0.00684286 0.11703 0)
(0.0080413 0.131077 1.22055e-20)
(0.00937646 0.14518 1.22606e-20)
(0.0108385 0.159274 1.23087e-20)
(0.0124169 0.173293 2.47492e-20)
(0.0140995 0.187175 -1.24003e-20)
(0.0158741 0.200862 0)
(0.0177284 0.214296 -9.84e-24)
(0.0196506 0.227423 -2.50387e-20)
(0.0216288 0.240194 2.50953e-20)
(0.0236515 0.252559 5.03138e-20)
(0.0257075 0.264476 5.04634e-20)
(0.0277858 0.275905 5.27587e-23)
(0.0298762 0.286809 2.52738e-20)
(0.0319695 0.297158 2.53075e-20)
(0.0340575 0.306926 -2.53368e-20)
(0.0361326 0.316088 2.53615e-20)
(0.0381883 0.324626 2.53814e-20)
(0.040219 0.332525 5.08528e-20)
(0.0422213 0.339769 -1.08089e-22)
(0.044192 0.346348 7.62963e-20)
(0.0461294 0.352248 3.81219e-23)
(0.048037 0.357457 -2.53991e-20)
(0.0499214 0.361956 -2.54751e-20)
(0.0517011 0.365741 2.53627e-20)
(0.0532789 0.36881 2.9048e-20)
(0.000820743 -0.00461861 1.88343e-20)
(0.00172781 -0.00886835 2.56501e-20)
(0.00211389 -0.00888951 1.57685e-20)
(0.00212361 -0.00577523 -1.60997e-20)
(0.00190628 -0.000266179 -2.73565e-20)
(0.00156897 0.00711631 2.22545e-20)
(0.00119753 0.0159772 0)
(0.000858546 0.0260124 2.2904e-20)
(0.00059983 0.0369848 0)
(0.000454884 0.0487077 -4.68445e-20)
(0.000446491 0.0610323 1.18263e-20)
(0.000588483 0.0738358 -5.95945e-20)
(0.00088768 0.0870151 -2.40139e-20)
(0.00134593 0.100481 1.21003e-20)
(0.00196179 0.114154 2.16708e-23)
(0.0027301 0.127961 -1.22076e-20)
(0.00364332 0.141833 -2.45516e-20)
(0.004693 0.155706 -4.93093e-20)
(0.0058697 0.169516 0)
(0.00716272 0.183204 4.23407e-23)
(0.00856103 0.196712 -2.48604e-20)
(0.0100539 0.209984 -2.49762e-20)
(0.0116304 0.222966 2.50387e-20)
(0.0132798 0.23561 -2.51577e-20)
(0.0149914 0.247867 2.51316e-20)
(0.0167547 0.259695 -5.03151e-20)
(0.0185595 0.271053 5.28428e-23)
(0.0203962 0.281907 -5.04661e-20)
(0.022256 0.292223 -2.53076e-20)
(0.0241308 0.301976 -5.0838e-23)
(0.0260132 0.31114 -9.48107e-23)
(0.0278962 0.319697 -2.53815e-20)
(0.0297742 0.327628 -2.53963e-20)
(0.031643 0.33492 -6.11554e-23)
(0.0334986 0.341558 -2.54092e-20)
(0.035338 0.347531 -7.3196e-23)
(0.0371637 0.352823 -2.54603e-20)
(0.0389805 0.357419 7.58416e-20)
(0.0406967 0.361314 -2.53628e-20)
(0.0422156 0.364511 -2.9079e-20)
(0.00090269 -0.00464147 -1.8835e-20)
(0.00181501 -0.00895154 5.13189e-21)
(0.00204746 -0.00906297 -1.57658e-20)
(0.00181153 -0.00606945 -5.36934e-21)
(0.00128273 -0.000711434 2.18858e-20)
(0.000589515 0.00649259 -5.56609e-21)
(-0.000167946 0.0151516 5.65e-21)
(-0.000912754 0.0249658 -3.43589e-20)
(-0.00158975 0.035702 1.15886e-20)
(-0.00216009 0.0471777 2.34245e-20)
(-0.00259729 0.0592471 0)
(-0.00288466 0.0717912 4.76913e-20)
(-0.00301288 0.0847095 0)
(-0.00297813 0.0979159 -4.83571e-20)
(-0.00278037 0.111333 -2.43215e-20)
(-0.0024233 0.124891 0)
(-0.00191306 0.138522 0)
(-0.00125698 0.152164 4.93156e-20)
(-0.00046352 0.165755 2.47874e-20)
(0.000457893 0.179238 -4.96636e-20)
(0.00149761 0.192555 2.48604e-20)
(0.00264599 0.205652 0)
(0.0038931 0.218478 -2.50795e-20)
(0.00522905 0.230982 5.01527e-20)
(0.00664402 0.243118 -2.50687e-20)
(0.00812826 0.254843 -2.52269e-20)
(0.0096722 0.266118 2.514e-20)
(0.0112668 0.276906 0)
(0.0129035 0.287177 5.05727e-20)
(0.0145746 0.296901 -2.52131e-20)
(0.0162725 0.306056 -2.53667e-20)
(0.01799 0.314619 -1.39664e-22)
(0.0197212 0.322572 1.01306e-19)
(0.021461 0.329901 -7.58346e-20)
(0.0232047 0.33659 0)
(0.0249478 0.342628 -2.53339e-20)
(0.0266916 0.347999 -5.06991e-20)
(0.0284389 0.352689 2.50814e-20)
(0.0300886 0.356694 2.51839e-20)
(0.0315434 0.360022 0)
(0.000980407 -0.00463997 -3.77087e-20)
(0.00189191 -0.00897671 -5.13429e-21)
(0.00196778 -0.00915732 4.2075e-20)
(0.0014869 -0.00627173 -4.29765e-20)
(0.000650606 -0.00105805 0)
(-0.000391475 0.00596999 0)
(-0.00152497 0.0144269 -1.13049e-20)
(-0.00266317 0.0240176 -2.98638e-24)
(-0.00374417 0.0345139 1.15917e-20)
(-0.00472411 0.0457372 0)
(-0.00557288 0.0575458 0)
(-0.00627133 0.0698238 -1.19161e-20)
(-0.00680807 0.0824741 1.4601e-23)
(-0.00717746 0.0954133 1.20971e-20)
(-0.00737797 0.108567 2.43215e-20)
(-0.0074121 0.121866 0)
(-0.00728498 0.135247 2.45937e-20)
(-0.00700283 0.148649 -2.45938e-20)
(-0.00657303 0.162012 -4.95114e-20)
(-0.00600393 0.175279 4.96726e-20)
(-0.00530411 0.188394 8.7258e-23)
(-0.00448212 0.201306 -2.49241e-20)
(-0.00354691 0.213962 2.5076e-20)
(-0.00250762 0.226315 -5.00984e-20)
(-0.0013733 0.238317 0)
(-0.000153044 0.249928 2.52129e-20)
(0.00114421 0.261106 -5.0373e-20)
(0.0025099 0.271817 2.51506e-20)
(0.00393593 0.282029 -2.52464e-20)
(0.00541452 0.291714 -2.53159e-20)
(0.00693804 0.300846 -2.54605e-20)
(0.00849916 0.309404 1.01069e-19)
(0.0100914 0.31737 -7.56918e-20)
(0.0117089 0.324727 -5.06568e-20)
(0.0133457 0.33146 5.03669e-20)
(0.0149962 0.337556 0)
(0.0166601 0.343003 5.05477e-20)
(0.0183379 0.347786 -5.02313e-20)
(0.0199198 0.351902 -2.5184e-20)
(0.0213072 0.355364 0)
(0.00105252 -0.0046141 8.0153e-20)
(0.00195557 -0.00894394 3.59659e-20)
(0.0018713 -0.00917317 -4.20747e-20)
(0.0011459 -0.00638343 3.76033e-20)
(6.50907e-06 -0.00130792 -5.47583e-21)
(-0.00137646 0.00554644 1.11379e-20)
(-0.00287522 0.0138007 0)
(-0.00439366 0.0231654 -1.14617e-20)
(-0.00586325 0.0334178 1.15952e-20)
(-0.00723568 0.044384 1.17249e-20)
(-0.00847786 0.0559262 -1.18275e-20)
(-0.00956825 0.0679319 -1.19374e-20)
(-0.0104934 0.0803076 1.20124e-20)
(-0.0112463 0.0929725 0)
(-0.0118243 0.105855 0)
(-0.0122288 0.118888 -2.44871e-20)
(-0.0124637 0.132011 2.4545e-20)
(-0.0125346 0.145163 -2.4708e-20)
(-0.0124479 0.158288 2.47282e-20)
(-0.0122108 0.171329 2.48841e-20)
(-0.0118309 0.184233 -4.98285e-20)
(-0.0113159 0.196949 4.99506e-20)
(-0.010674 0.209425 9.69598e-23)
(-0.00991326 0.221615 -2.50231e-20)
(-0.00904225 0.233473 0)
(-0.00806946 0.244956 2.52037e-20)
(-0.00700321 0.256027 1.16624e-22)
(-0.00585153 0.266649 -2.51373e-20)
(-0.00462229 0.276791 0)
(-0.0033232 0.286424 5.05755e-20)
(-0.00196205 0.295524 -5.03346e-20)
(-0.000546477 0.304067 0)
(0.000916492 0.312036 5.05777e-20)
(0.0024202 0.319412 -5.0299e-20)
(0.0039575 0.326183 0)
(0.00552099 0.332334 0)
(0.00710882 0.337853 0)
(0.00871915 0.342729 -5.03275e-20)
(0.0102343 0.346959 5.0005e-20)
(0.0115528 0.35056 5.77716e-20)
(0.00111769 -0.00456382 -3.77287e-20)
(0.00200299 -0.00885361 -4.11023e-20)
(0.0017544 -0.00911173 -5.26197e-21)
(0.000785151 -0.0064064 1.61241e-20)
(-0.000652462 -0.0014632 -2.19099e-20)
(-0.00236781 0.00521935 2.22836e-20)
(-0.00422006 0.0132701 -2.26221e-20)
(-0.00610435 0.0224063 -3.43998e-20)
(-0.00794616 0.0324111 0)
(-0.00969311 0.0431155 -1.17295e-20)
(-0.0113093 0.0543858 1.18321e-20)
(-0.0127711 0.0661135 0)
(-0.0140636 0.0782084 2.40655e-20)
(-0.0151784 0.0905925 -2.41902e-20)
(-0.0161119 0.103197 -7.30786e-20)
(-0.0168645 0.115957 -5.07825e-23)
(-0.0174396 0.128813 4.91739e-20)
(-0.0178417 0.141708 -2.46547e-20)
(-0.0180762 0.154586 0)
(-0.0181496 0.167393 0)
(-0.0180686 0.180076 4.98596e-20)
(-0.0178401 0.192586 2.50283e-20)
(-0.0174714 0.204872 -2.49873e-20)
(-0.0169699 0.216889 -2.5128e-20)
(-0.0163436 0.228591 5.02294e-20)
(-0.0156004 0.239937 -2.50904e-20)
(-0.014748 0.250889 5.045e-20)
(-0.0137939 0.261412 -1.00746e-19)
(-0.0127459 0.271473 1.00794e-19)
(-0.0116117 0.281044 -1.00819e-19)
(-0.0103993 0.290101 1.0082e-19)
(-0.00911652 0.29862 -1.00798e-19)
(-0.00777112 0.306583 5.02539e-20)
(-0.00637072 0.313974 5.046e-20)
(-0.00492385 0.320776 2.38636e-22)
(-0.00343959 0.326978 2.35553e-22)
(-0.0019218 0.332569 -5.00404e-20)
(-0.000374812 0.337539 1.7359e-22)
(0.00107677 0.341887 -4.98592e-20)
(0.00232713 0.345634 0)
(0.0011746 -0.00448932 4.71971e-21)
(0.00203141 -0.00870671 -5.14064e-21)
(0.00161381 -0.00897459 1.57912e-20)
(0.000401394 -0.00634281 -2.15058e-20)
(-0.00132899 -0.00152674 1.09585e-20)
(-0.00336727 0.00498555 0)
(-0.00556034 0.0128318 0)
(-0.00779516 0.021737 4.5862e-20)
(-0.00999166 0.0314904 5.80407e-20)
(-0.0120939 0.0419285 -1.17267e-20)
(-0.0140635 0.0529221 5.92269e-20)
(-0.0158753 0.0643665 -1.19361e-20)
(-0.0175128 0.0761749 0)
(-0.0189666 0.0882724 0)
(-0.0202325 0.100592 4.87084e-20)
(-0.0213102 0.113072 0)
(-0.0222022 0.125655 2.45875e-20)
(-0.0229122 0.138285 -2.47509e-20)
(-0.023445 0.150908 0)
(-0.0238063 0.163473 -4.97553e-20)
(-0.024002 0.175927 -2.48807e-20)
(-0.0240383 0.188222 -7.49564e-20)
(-0.0239216 0.200309 -2.50911e-20)
(-0.0236589 0.212143 2.50373e-20)
(-0.0232574 0.22368 5.02471e-20)
(-0.0227245 0.234879 0)
(-0.0220673 0.245702 5.03351e-20)
(-0.0212931 0.256115 1.00831e-19)
(-0.0204093 0.266086 2.26636e-22)
(-0.0194237 0.275586 -5.02634e-20)
(-0.0183446 0.284591 -5.04844e-20)
(-0.0171802 0.293078 5.02303e-20)
(-0.0159389 0.301028 5.04262e-20)
(-0.0146294 0.308426 -1.00525e-19)
(-0.0132617 0.315256 1.00402e-19)
(-0.0118469 0.321506 -5.01723e-20)
(-0.0103909 0.327169 4.99311e-20)
(-0.00890093 0.332235 9.98892e-20)
(-0.00750738 0.336706 4.97561e-20)
(-0.00632209 0.340607 5.72089e-20)
(0.0012219 -0.00439085 -3.77845e-20)
(0.00203805 -0.00850439 3.60052e-20)
(0.00144641 -0.00876384 -3.15996e-20)
(-8.23928e-06 -0.00619549 3.22753e-20)
(-0.00202536 -0.00150176 5.48161e-20)
(-0.00437634 0.00484148 -4.46029e-20)
(-0.00689654 0.0124821 5.66016e-20)
(-0.00946544 0.0211535 3.44255e-20)
(-0.011998 0.0306521 -8.1269e-20)
(-0.0144351 0.0408198 2.34805e-20)
(-0.0167365 0.0515322 1.18669e-20)
(-0.0188754 0.0626886 2.39111e-20)
(-0.0208343 0.0742056 2.41058e-20)
(-0.0226033 0.0860111 -4.84877e-20)
(-0.0241774 0.0980407 4.87737e-20)
(-0.0255558 0.110235 7.35617e-20)
(-0.0267402 0.122538 -7.38098e-20)
(-0.0277339 0.134897 9.88806e-20)
(-0.028541 0.147259 4.96377e-20)
(-0.0291663 0.159574 7.46814e-20)
(-0.0296153 0.171792 2.50127e-20)
(-0.0298935 0.183864 5.00047e-20)
(-0.0300065 0.195744 -5.01326e-20)
(-0.0299606 0.207387 0)
(-0.0297628 0.218749 -1.50874e-19)
(-0.0294196 0.229792 1.00611e-19)
(-0.0289378 0.240477 -5.01259e-20)
(-0.0283241 0.250771 -5.01449e-20)
(-0.027586 0.260642 1.06714e-22)
(-0.0267314 0.270062 0)
(-0.0257687 0.279007 0)
(-0.0247065 0.287454 5.02873e-20)
(-0.023554 0.295385 -5.03654e-20)
(-0.0223211 0.302784 5.00878e-20)
(-0.0210194 0.309638 -5.02266e-20)
(-0.0196619 0.315936 -5.01438e-20)
(-0.0182574 0.321671 0)
(-0.0168155 0.326837 -4.97328e-20)
(-0.0154719 0.331437 -4.95685e-20)
(-0.014346 0.3355 -1.71623e-19)
(0.00125833 -0.00426892 3.77863e-20)
(0.00202031 -0.00824822 -3.6001e-20)
(0.00124927 -0.00848196 4.21308e-20)
(-0.000446385 -0.0059676 -7.53159e-20)
(-0.00274354 -0.001392 -5.48193e-20)
(-0.00539614 0.00478304 4.46028e-20)
(-0.00822877 0.0122167 -9.05792e-20)
(-0.0111142 0.0206519 -4.58959e-20)
(-0.0139631 0.0298923 5.80701e-20)
(-0.0167135 0.0397859 -1.05664e-19)
(-0.0193237 0.0502131 -7.11238e-20)
(-0.0217657 0.0610773 -2.39379e-20)
(-0.0240215 0.0722986 -7.22762e-20)
(-0.0260804 0.0838076 7.27218e-20)
(-0.0279372 0.0955425 -4.87738e-20)
(-0.0295907 0.107446 -4.90292e-20)
(-0.031042 0.119465 0)
(-0.0322939 0.131547 -4.94596e-20)
(-0.0333498 0.143642 -7.45039e-20)
(-0.0342143 0.155701 2.48693e-20)
(-0.034892 0.167675 -4.99263e-20)
(-0.0353879 0.179518 0)
(-0.035707 0.191183 5.01328e-20)
(-0.0358551 0.202627 5.03193e-20)
(-0.0358385 0.213808 -5.02177e-20)
(-0.0356632 0.224686 0)
(-0.0353355 0.235225 0)
(-0.0348619 0.245391 0)
(-0.0342497 0.255155 1.62489e-24)
(-0.0335068 0.264487 0)
(-0.032642 0.273364 -1.00728e-19)
(-0.0316642 0.281764 -1.21466e-22)
(-0.0305834 0.28967 -1.00509e-19)
(-0.0294108 0.297066 1.00276e-19)
(-0.0281596 0.303941 -4.99518e-20)
(-0.0268453 0.310284 4.99926e-20)
(-0.0254794 0.316093 0)
(-0.0240744 0.321363 9.95629e-20)
(-0.0227697 0.3261 -4.94776e-20)
(-0.021695 0.330336 0)
(0.00128264 -0.00412413 4.72645e-21)
(0.00197575 -0.0079401 0)
(0.00101977 -0.00813184 -5.26926e-20)
(-0.000915374 -0.00566279 6.45694e-20)
(-0.00348518 -0.00120163 3.29113e-20)
(-0.0064274 0.00480575 -4.46308e-20)
(-0.00955676 0.0120312 4.52975e-20)
(-0.0127401 0.0202277 -4.59315e-20)
(-0.0158844 0.0292068 0)
(-0.0189255 0.0388228 4.69749e-20)
(-0.0218204 0.0489613 -4.74552e-20)
(-0.0245403 0.05953 -2.98698e-23)
(-0.0270669 0.0704519 0)
(-0.0293894 0.0816608 4.85601e-20)
(-0.0315023 0.0930971 -2.44117e-20)
(-0.033404 0.104706 4.9167e-20)
(-0.0350955 0.116436 2.47128e-20)
(-0.0365788 0.128237 -4.95491e-20)
(-0.0378571 0.14006 0)
(-0.0389344 0.151858 7.48518e-20)
(-0.0398152 0.163583 2.50595e-20)
(-0.0405034 0.17519 0)
(-0.0410039 0.186634 0)
(-0.0413217 0.197873 0)
(-0.0414626 0.208865 5.02997e-20)
(-0.0414321 0.219572 0)
(-0.0412361 0.229957 -5.04712e-20)
(-0.0408807 0.239989 1.00756e-19)
(-0.0403732 0.249637 -1.00631e-19)
(-0.0397216 0.258874 0)
(-0.0389345 0.267676 5.03086e-20)
(-0.0380216 0.276023 -5.02399e-20)
(-0.0369937 0.283898 5.01948e-20)
(-0.0358633 0.291288 0)
(-0.0346454 0.298181 0)
(-0.0333577 0.304569 4.99659e-20)
(-0.032015 0.310453 -4.96614e-20)
(-0.0306331 0.315831 9.93766e-20)
(-0.0293536 0.320713 -9.87397e-20)
(-0.0283188 0.325133 0)
(0.00129366 -0.00395721 3.3111e-20)
(0.00190208 -0.00758225 1.02987e-20)
(0.000755488 -0.00771675 4.21556e-20)
(-0.00141721 -0.00528508 4.30666e-20)
(-0.0042516 -0.000935208 -4.38798e-20)
(-0.00747053 0.00490479 4.46309e-20)
(-0.0108799 0.0119205 4.53284e-20)
(-0.0143414 0.0198759 4.59316e-20)
(-0.0177591 0.0285909 0)
(-0.021067 0.0379265 4.70224e-20)
(-0.0242212 0.0477735 4.74553e-20)
(-0.0271928 0.0580436 4.78655e-20)
(-0.0299632 0.0686634 0)
(-0.0325217 0.0795692 3.94476e-23)
(-0.0348627 0.090704 4.88527e-20)
(-0.0369847 0.102015 -2.45165e-20)
(-0.0388882 0.113453 -2.46064e-20)
(-0.0405749 0.124969 7.43706e-20)
(-0.0420479 0.136517 7.19265e-23)
(-0.0433108 0.14805 -2.48651e-20)
(-0.0443675 0.159522 -5.00156e-20)
(-0.0452216 0.170889 0)
(-0.0458774 0.182107 0)
(-0.0463395 0.193135 0)
(-0.0466131 0.203932 0)
(-0.0467031 0.214461 0)
(-0.046615 0.224687 0)
(-0.0463548 0.234578 5.04952e-20)
(-0.0459295 0.244104 -5.02854e-20)
(-0.0453471 0.253238 0)
(-0.0446163 0.26196 0)
(-0.0437474 0.270248 5.024e-20)
(-0.0427519 0.278088 0)
(-0.0416437 0.285466 5.01409e-20)
(-0.0404396 0.292374 -4.9854e-20)
(-0.0391597 0.298808 0)
(-0.0378224 0.304768 9.95025e-20)
(-0.0364467 0.31026 -9.88797e-20)
(-0.0351757 0.315295 0)
(-0.0341666 0.319911 0)
(0.00129027 -0.00376906 -3.7836e-20)
(0.00179723 -0.00717716 -1.0297e-20)
(0.000454318 -0.00724031 1.05438e-20)
(-0.00195359 -0.00483888 -4.30666e-20)
(-0.00504375 -0.000597657 0)
(-0.00852558 0.00507493 0)
(-0.0121973 0.0118795 -3.3992e-20)
(-0.0159162 0.0195915 -1.14871e-20)
(-0.019584 0.0280399 -2.32713e-20)
(-0.0231338 0.0370925 -2.35151e-20)
(-0.026521 0.0466455 -2.37635e-20)
(-0.0297167 0.056615 2.39409e-20)
(-0.0327027 0.0669305 2.41409e-20)
(-0.0354684 0.0775314 -2.43109e-20)
(-0.0380085 0.0883629 0)
(-0.0403214 0.0993746 0)
(-0.0424076 0.110518 -4.93935e-20)
(-0.0442686 0.121748 0)
(-0.0459074 0.133018 0)
(-0.0473271 0.144283 5.00966e-20)
(-0.0485315 0.155498 1.6054e-22)
(-0.0495237 0.166622 1.11059e-22)
(-0.0503076 0.17761 -5.03772e-20)
(-0.0508873 0.188423 5.02692e-20)
(-0.0512674 0.199021 5.04282e-20)
(-0.0514525 0.209367 -5.04528e-20)
(-0.0514475 0.219428 0)
(-0.0512582 0.229172 5.05209e-20)
(-0.0508913 0.23857 1.83968e-22)
(-0.0503547 0.247597 -5.02692e-20)
(-0.0496575 0.256232 0)
(-0.04881 0.264456 0)
(-0.0478248 0.272255 5.02179e-20)
(-0.046717 0.279619 -4.99411e-20)
(-0.045505 0.28654 -4.99777e-20)
(-0.0442118 0.293018 4.9682e-20)
(-0.0428596 0.299056 0)
(-0.0414708 0.304665 0)
(-0.0401885 0.309862 0)
(-0.0391877 0.314688 -5.65931e-20)
(0.00127145 -0.00356071 4.73252e-20)
(0.00165937 -0.00672766 -2.06053e-20)
(0.000114443 -0.00670649 1.05464e-20)
(-0.00252585 -0.00432896 0)
(-0.00586225 -0.000194262 5.48887e-20)
(-0.00959229 0.00531063 2.82338e-24)
(-0.0135075 0.0119024 4.53618e-20)
(-0.0174621 0.019369 -3.44871e-20)
(-0.0213559 0.0275485 4.65466e-20)
(-0.0251214 0.0363161 -2.35188e-20)
(-0.0287141 0.0455735 0)
(-0.0321054 0.0552407 2.39917e-20)
(-0.0352776 0.0652508 -7.24472e-20)
(-0.0382207 0.0755458 0)
(-0.0409296 0.0860731 7.34977e-20)
(-0.0434029 0.0967843 -4.92009e-20)
(-0.0456412 0.107633 -4.94735e-20)
(-0.0476462 0.118575 2.48071e-20)
(-0.0494205 0.129566 0)
(-0.0509673 0.140561 -4.99915e-20)
(-0.0522898 0.151519 -5.02343e-20)
(-0.0533911 0.162397 -5.3206e-23)
(-0.0542746 0.173153 5.03775e-20)
(-0.054944 0.183748 5.04983e-20)
(-0.0554033 0.194143 -1.00795e-19)
(-0.0556567 0.204304 5.0453e-20)
(-0.0557087 0.214195 0)
(-0.0555647 0.223788 -5.04857e-20)
(-0.0552313 0.233053 5.04496e-20)
(-0.054716 0.241968 5.03955e-20)
(-0.054028 0.250511 -5.03234e-20)
(-0.0531781 0.258666 5.02333e-20)
(-0.0521795 0.26642 0)
(-0.0510485 0.273764 5.00799e-20)
(-0.0498052 0.280696 9.99424e-20)
(-0.0484754 0.287216 -9.92881e-20)
(-0.0470854 0.293334 9.92248e-20)
(-0.0456611 0.299064 2.43988e-22)
(-0.0443448 0.304432 -4.90866e-20)
(-0.0433319 0.309479 1.13071e-19)
(0.00123629 -0.00333335 -2.84027e-20)
(0.0014869 -0.00623685 -6.18258e-20)
(-0.000265637 -0.00611956 4.2195e-20)
(-0.00313501 -0.00376042 -3.23188e-20)
(-0.00670737 0.000269383 -1.09723e-20)
(-0.01067 0.00560606 1.11669e-20)
(-0.0148092 0.0119835 -2.26689e-20)
(-0.0189765 0.0192027 -2.299e-20)
(-0.0230711 0.0271114 2.32938e-20)
(-0.0270253 0.0355925 -4.70863e-20)
(-0.0307948 0.0445529 -3.18294e-23)
(-0.0343521 0.0539172 2.39719e-20)
(-0.0376801 0.0636215 0)
(-0.0407695 0.0736103 -2.43783e-20)
(-0.0436159 0.0838337 -2.45084e-20)
(-0.046218 0.0942448 4.92591e-20)
(-0.0485768 0.104799 0)
(-0.0506941 0.115454 0)
(-0.0525725 0.126165 4.9998e-20)
(-0.0542152 0.136892 -5.00046e-20)
(-0.0556252 0.147591 0)
(-0.0568053 0.158222 5.04065e-20)
(-0.0577586 0.168745 -5.02087e-20)
(-0.0584885 0.179121 -1.00941e-19)
(-0.0589985 0.189312 -1.7242e-22)
(-0.0592922 0.199284 5.05003e-20)
(-0.0593739 0.209003 -1.00994e-19)
(-0.0592485 0.218441 5.04858e-20)
(-0.0589223 0.227571 -5.04497e-20)
(-0.0584026 0.236369 9.56789e-23)
(-0.0576984 0.244815 7.27511e-23)
(-0.0568209 0.252896 -5.02333e-20)
(-0.0557837 0.260601 -5.01283e-20)
(-0.0546042 0.267922 -4.99919e-20)
(-0.0533044 0.274861 -1.87012e-23)
(-0.0519125 0.281422 0)
(-0.0504593 0.287619 -4.9481e-20)
(-0.0489748 0.293473 9.87125e-20)
(-0.0475989 0.299019 -1.47207e-19)
(-0.0465506 0.304299 1.97486e-22)
(0.00118397 -0.0030883 -9.471e-21)
(0.00127847 -0.00570799 8.24377e-20)
(-0.000687113 -0.00548404 -4.21934e-20)
(-0.0037817 -0.00313863 3.23178e-20)
(-0.007579 0.000787441 -8.78462e-20)
(-0.0117577 0.00595521 1.1169e-20)
(-0.0161002 0.0121168 -4.53818e-20)
(-0.0204566 0.0190868 0)
(-0.0247258 0.0267232 0)
(-0.0288405 0.0349165 -4.71195e-20)
(-0.0327574 0.0435795 2.38096e-20)
(-0.0364501 0.0526406 1.38701e-23)
(-0.0399025 0.0620395 2.41784e-20)
(-0.0431062 0.0717231 0)
(-0.0460574 0.0816435 -7.36437e-20)
(-0.0487557 0.091756 2.46388e-20)
(-0.0512021 0.102017 -4.96099e-20)
(-0.053399 0.112386 0)
(-0.0553489 0.12282 0)
(-0.0570551 0.133278 4.73949e-23)
(-0.0585206 0.14372 -5.01981e-20)
(-0.059748 0.154106 5.04206e-20)
(-0.0607402 0.164396 -5.05562e-20)
(-0.0615001 0.174553 5.04478e-20)
(-0.0620309 0.184539 5.30669e-23)
(-0.0623358 0.194322 5.67101e-23)
(-0.0624187 0.203869 5.05536e-20)
(-0.062284 0.21315 -5.0579e-20)
(-0.0619376 0.222141 0)
(-0.0613865 0.230819 -5.05207e-20)
(-0.0606396 0.239166 5.02801e-20)
(-0.0597079 0.247169 0)
(-0.0586057 0.254819 5.01283e-20)
(-0.0573511 0.262114 -5.01155e-20)
(-0.0559676 0.269056 4.96965e-20)
(-0.0544863 0.275654 0)
(-0.0529426 0.281929 1.48507e-19)
(-0.0513705 0.287908 -9.84063e-20)
(-0.0499068 0.293637 0)
(-0.0487971 0.299163 5.63498e-20)
(0.00111381 -0.00282696 7.57954e-20)
(0.00103298 -0.00514453 -4.12225e-20)
(-0.00115086 -0.00480466 -1.05495e-20)
(-0.00446622 -0.00246916 1.07757e-20)
(-0.00847664 0.00135391 4.39254e-20)
(-0.0128542 0.00635188 0)
(-0.0173784 0.0122961 4.53821e-20)
(-0.0218992 0.0190153 6.90387e-20)
(-0.0263158 0.0263782 2.32911e-20)
(-0.030562 0.0342831 2.35376e-20)
(-0.034596 0.0426485 2.37885e-20)
(-0.0383925 0.0514071 -7.20745e-20)
(-0.0419369 0.0605016 2.41964e-20)
(-0.0452219 0.0698817 9.76276e-20)
(-0.0482447 0.0795014 2.44998e-20)
(-0.0510052 0.0893177 2.46641e-20)
(-0.0535055 0.0992888 4.96102e-20)
(-0.055748 0.109374 0)
(-0.0577358 0.119533 0)
(-0.059472 0.129727 1.00465e-19)