/*--------------------------------*- C++ -*----------------------------------*\
  =========                 |
  \\      /  F ield         | OpenFOAM: The Open Source CFD Toolbox
   \\    /   O peration     | Website:  https://openfoam.org
    \\  /    A nd           | Version:  7
     \\/     M anipulation  |
\*---------------------------------------------------------------------------*/
FoamFile
{
    version     2.0;
    format      ascii;
    class       surfaceScalarField;
    location    "9.9";
    object      phi;
}
// * * * * * * * * * * * * * * * * * * * * * * * * * * * * * * * * * * * * * //

dimensions      [0 3 -1 0 0 0 0];

internalField   nonuniform List<scalar> 
63520
(
6.75198e-06
-0.000156183
0.000149431
2.61733e-05
-0.000348703
0.000329282
5.81898e-05
-0.00043514
0.000403123
0.000102858
-0.000434971
0.000390302
0.000160324
-0.000362846
0.00030538
0.000230786
-0.000230251
0.000159788
0.000314481
-4.63392e-05
-3.73559e-05
0.000411651
0.000181423
-0.000278594
0.000522535
0.000446953
-0.000557836
0.000647337
0.000745269
-0.000870071
0.000786214
0.00107216
-0.00121103
0.000939257
0.00142402
-0.00157707
0.00110647
0.00179775
-0.00196496
0.00128774
0.00219049
-0.00237176
0.00148285
0.00259965
-0.00279476
0.00169144
0.00302271
-0.0032313
0.00191301
0.00345726
-0.00367883
0.00214691
0.00390087
-0.00413477
0.00239234
0.00435112
-0.00459655
0.00264834
0.00480559
-0.00506159
0.00291379
0.00526181
-0.00552727
0.00318748
0.00571734
-0.00599102
0.00346804
0.00616971
-0.00645027
0.00375403
0.00661651
-0.00690249
0.00404391
0.00705538
-0.00734527
0.00433613
0.00748407
-0.00777629
0.00462909
0.00790044
-0.00819339
0.00492121
0.0083025
-0.00859462
0.00521097
0.00868847
-0.00897822
0.00549687
0.00905677
-0.00934268
0.00577756
0.00940603
-0.00968671
0.00605175
0.00973515
-0.0100093
0.00631831
0.0100433
-0.0103098
0.00657624
0.0103297
-0.0105877
0.00682472
0.0105942
-0.0108426
0.00706309
0.0108364
-0.0110747
0.0072909
0.0110561
-0.0112839
0.00750793
0.0112531
-0.0114701
0.00771423
0.0114265
-0.0116328
0.0115734
0.00791022
-0.0117694
6.51122e-06
-0.000162694
2.52459e-05
-0.000367438
5.60154e-05
-0.000465909
9.88044e-05
-0.00047776
0.000153739
-0.000417781
0.000221011
-0.000297522
0.000300867
-0.000126195
0.00039356
8.87298e-05
0.000499341
0.000341172
0.000618444
0.000626165
0.00075105
0.000939549
0.000897279
0.0012778
0.00105717
0.00163785
0.00123069
0.00201698
0.00141767
0.00241267
0.00161783
0.00282255
0.00183078
0.00324431
0.00205596
0.00367569
0.00229267
0.00411441
0.00254009
0.00455817
0.00279723
0.00500467
0.00306299
0.00545158
0.00333614
0.00589656
0.00361535
0.0063373
0.00389921
0.00677153
0.00418624
0.00719704
0.00447494
0.00761173
0.0047638
0.00801364
0.00505133
0.00840094
0.00533608
0.00877201
0.00561668
0.00912543
0.00589185
0.00945998
0.00616041
0.0097747
0.00642133
0.0100688
0.00667371
0.0103418
0.00691684
0.0105932
0.00715017
0.0108228
0.00737339
0.0110299
0.00758643
0.0112135
0.0113703
0.00778955
6.28484e-06
-0.000168979
2.43177e-05
-0.000385471
5.38049e-05
-0.000495397
9.46813e-05
-0.000518637
0.000147071
-0.000470171
0.000211159
-0.00036161
0.000287203
-0.000202239
0.000375471
4.62206e-07
0.000476226
0.000240417
0.000589722
0.000512668
0.000716166
0.000813105
0.000855708
0.00113825
0.00100843
0.00148513
0.00117434
0.00185107
0.00135333
0.00223368
0.00154519
0.00263069
0.00174959
0.00303991
0.00196609
0.00345919
0.00219409
0.00388641
0.00243286
0.0043194
0.00268155
0.00475598
0.00293917
0.00519396
0.0032046
0.00563112
0.00347664
0.00606526
0.00375399
0.00649418
0.00403527
0.00691576
0.00431907
0.00732793
0.00460395
0.00772876
0.00488848
0.00811641
0.00517125
0.00848925
0.0054509
0.00884578
0.00572616
0.00918473
0.00599583
0.00950502
0.00625885
0.00980579
0.00651427
0.0100864
0.00676132
0.0103462
0.00699937
0.0105847
0.00722803
0.0108012
0.00744713
0.0109944
0.0111607
0.00765674
6.06766e-06
-0.000175047
2.33544e-05
-0.000402758
5.1506e-05
-0.000523548
9.04286e-05
-0.00055756
0.000140235
-0.000519977
0.000201118
-0.000422493
0.000273347
-0.000274469
0.00035721
-8.34004e-05
0.000452985
0.000144642
0.000560947
0.000404706
0.000681328
0.000692725
0.000814303
0.00100528
0.000959989
0.00133944
0.00111842
0.00169264
0.00128955
0.00206255
0.00147324
0.002447
0.00166922
0.00284393
0.00187712
0.00325129
0.00209644
0.00366709
0.00232655
0.00408929
0.0025667
0.00451583
0.00281602
0.00494464
0.00307351
0.00537363
0.00333807
0.0058007
0.00360851
0.00622374
0.00388356
0.00664071
0.0041619
0.0070496
0.00444216
0.00744849
0.00472298
0.00783559
0.005003
0.00820923
0.0052809
0.00856788
0.0055554
0.00891023
0.00582532
0.0092351
0.00608957
0.00954154
0.00634716
0.00982876
0.00659728
0.0100961
0.00683925
0.0103428
0.00707258
0.0105679
0.007297
0.0107699
0.0109452
0.00751242
5.83579e-06
-0.000180883
2.23389e-05
-0.000419261
4.90958e-05
-0.000550305
8.60012e-05
-0.000594465
0.000133167
-0.000567143
0.000190808
-0.000480134
0.000259202
-0.000342863
0.000338659
-0.000162857
0.000429483
5.38174e-05
0.000531965
0.000302224
0.000646356
0.000578334
0.00077286
0.000878774
0.000911622
0.00120068
0.00106271
0.00154155
0.00122613
0.00189913
0.00140177
0.00227136
0.00158944
0.00265626
0.00178883
0.0030519
0.00199953
0.00345639
0.002221
0.00386782
0.00245259
0.00428425
0.00269351
0.00470372
0.00294289
0.00512426
0.00319972
0.00554386
0.00346293
0.00596054
0.00373134
0.0063723
0.00400372
0.00677721
0.0042788
0.00717341
0.00455527
0.00755911
0.00483184
0.00793265
0.00510723
0.0082925
0.00538018
0.00863727
0.00564952
0.00896576
0.00591415
0.00927691
0.00617308
0.00956983
0.00642543
0.00984371
0.00667049
0.0100977
0.00690771
0.0103307
0.0071367
0.010541
0.0107247
0.00735721
5.59325e-06
-0.000186476
2.12551e-05
-0.000434923
4.6545e-05
-0.000575595
8.13567e-05
-0.000629277
0.00012581
-0.000611597
0.000180145
-0.000534468
0.000244661
-0.000407379
0.000319692
-0.000237889
0.000405568
-3.2058e-05
0.000502595
0.000205197
0.000611051
0.000469878
0.000731163
0.000758662
0.000863099
0.00106874
0.00100696
0.00139768
0.00116278
0.00174332
0.0013305
0.00210364
0.00150999
0.00247677
0.00170098
0.0028609
0.00190315
0.00325423
0.00211602
0.00365494
0.00233904
0.00406123
0.00257151
0.00447125
0.00281266
0.00488311
0.00306158
0.00529494
0.00331729
0.00570482
0.00357873
0.00611086
0.00384474
0.0065112
0.00411415
0.00690401
0.00438571
0.00728755
0.00465821
0.00766016
0.00493039
0.00802032
0.00520106
0.00836661
0.00546905
0.00869777
0.00573327
0.0090127
0.00599271
0.00931039
0.00624648
0.00958994
0.00649382
0.00985036
0.00673413
0.0100904
0.00696691
0.0103082
0.0104998
0.00719179
5.32676e-06
-0.000191803
2.00861e-05
-0.000449682
4.38268e-05
-0.000599336
7.64523e-05
-0.000661902
0.000118105
-0.00065325
0.000169055
-0.000585418
0.000229631
-0.000467955
0.000300195
-0.000308453
0.000381102
-0.000112965
0.000472685
0.000113614
0.000575241
0.000367322
0.000689018
0.000644885
0.000814208
0.000943551
0.000950943
0.00126095
0.00109928
0.00159498
0.00125921
0.00194371
0.00143063
0.00230536
0.00161334
0.00267819
0.00180707
0.0030605
0.00201142
0.00345059
0.0022259
0.00384675
0.00244991
0.00424723
0.00268276
0.00465027
0.00292364
0.00505406
0.00317167
0.0054568
0.00342586
0.00585668
0.00368516
0.00625189
0.00394848
0.00664069
0.00421465
0.00702137
0.00448251
0.0073923
0.00475088
0.00775195
0.00501859
0.0080989
0.00528451
0.00843185
0.00554756
0.00874964
0.00580674
0.00905121
0.00606115
0.00933554
0.00630998
0.00960153
0.00655258
0.00984778
0.0067884
0.0100723
0.0102714
0.00701689
5.03037e-06
-0.000196833
1.88172e-05
-0.000463469
4.09146e-05
-0.000621434
7.12498e-05
-0.000692237
0.000109998
-0.000691998
0.000157467
-0.000632888
0.000214024
-0.000524512
0.000280062
-0.00037449
0.000355965
-0.000188869
0.000442091
2.74874e-05
0.000538761
0.000270653
0.000646244
0.000537401
0.000764754
0.000825041
0.000894447
0.00113126
0.00103541
0.00145401
0.00118766
0.00179146
0.00135113
0.00214189
0.00152568
0.00250364
0.00171107
0.0028751
0.00190699
0.00325468
0.00211299
0.00364074
0.00232857
0.00403166
0.0025531
0.00442574
0.00278586
0.00482129
0.00302606
0.0052166
0.0032728
0.00560993
0.00352512
0.00599957
0.003782
0.00638381
0.00404237
0.006761
0.00430512
0.00712955
0.00456912
0.00748794
0.00483328
0.00783474
0.00509648
0.00816865
0.00535767
0.00848845
0.00561586
0.00879302
0.00587014
0.00908125
0.00611971
0.00935197
0.00636385
0.00960364
0.00660194
0.00983426
0.01004
0.0068333
4.69912e-06
-0.000201532
1.74353e-05
-0.000476205
3.77849e-05
-0.000641783
6.57134e-05
-0.000720166
0.00010144
-0.000727725
0.00014532
-0.000676768
0.000197763
-0.000576955
0.000259198
-0.000435926
0.000330043
-0.000259714
0.000410684
-5.31538e-05
0.000501465
0.000179872
0.000602676
0.00043619
0.000714554
0.000713163
0.000837275
0.00100854
0.000970949
0.00132034
0.00111562
0.00164679
0.00127126
0.00198624
0.00143777
0.00233713
0.00161495
0.00269793
0.00180252
0.0030671
0.00200013
0.00344313
0.00220732
0.00382447
0.00242354
0.00420952
0.00264815
0.00459668
0.00288044
0.00498432
0.00311959
0.00537078
0.00336472
0.00575444
0.0036149
0.00613364
0.00386911
0.00650679
0.00412634
0.00687233
0.00438552
0.00722876
0.00464558
0.00757468
0.00490547
0.00790876
0.00516418
0.00822975
0.00542071
0.00853648
0.00567418
0.00882779
0.00592375
0.00910239
0.00616869
0.00935869
0.00640831
0.00959464
0.00980649
0.00664181
4.32817e-06
-0.000205861
1.59288e-05
-0.000487806
3.44175e-05
-0.000660272
5.98125e-05
-0.000745561
9.23897e-05
-0.000760302
0.000132558
-0.000716936
0.000180779
-0.000625176
0.000237522
-0.000492669
0.000303241
-0.000325433
0.000378352
-0.000128265
0.000463224
9.50005e-05
0.000558169
0.000341244
0.000663445
0.000607887
0.000779248
0.000892733
0.000905712
0.00119387
0.0010429
0.0015096
0.00119082
0.00183833
0.00134939
0.00217856
0.00151847
0.00252885
0.00169782
0.00288775
0.00188713
0.00325382
0.002086
0.00362559
0.00229396
0.00400156
0.00251043
0.00438021
0.00273476
0.00475998
0.00296623
0.00513932
0.00320403
0.00551664
0.00344729
0.00589038
0.00369508
0.00625899
0.00394646
0.00662095
0.0042004
0.00697481
0.00445592
0.00731916
0.004712
0.00765268
0.00496765
0.0079741
0.00522192
0.00828221
0.00547393
0.00857578
0.00572284
0.00885349
0.00596789
0.00911364
0.00620832
0.0093542
0.00957156
0.00644325
3.91514e-06
-0.000209776
1.42886e-05
-0.00049818
3.07948e-05
-0.000676778
5.35212e-05
-0.000768288
8.28121e-05
-0.000789593
0.000119139
-0.000753263
0.000163018
-0.000669056
0.000214968
-0.000544618
0.00027548
-0.000385945
0.000345003
-0.000197788
0.000423931
1.60724e-05
0.000512601
0.000252574
0.000611291
0.000509197
0.000720216
0.000783808
0.00083953
0.00107456
0.000969322
0.00137981
0.00110962
0.00169803
0.00126036
0.00202781
0.00142145
0.00236776
0.00159269
0.00271652
0.0017738
0.00307271
0.00196446
0.00343494
0.00216422
0.0038018
0.00237258
0.00417185
0.00258896
0.0045436
0.0028127
0.00491558
0.00304307
0.00528627
0.00327927
0.00565418
0.00352044
0.00601782
0.00376569
0.0063757
0.00401409
0.00672642
0.00426468
0.00706857
0.0045165
0.00740086
0.00476861
0.00772199
0.00502008
0.00803073
0.00527005
0.00832582
0.00551768
0.00860586
0.00576219
0.00886913
0.00600278
0.00911361
0.00933588
0.00623846
3.45688e-06
-0.000213233
1.25063e-05
-0.000507229
2.69036e-05
-0.000691175
4.68201e-05
-0.000788204
7.26803e-05
-0.000815453
0.000105027
-0.00078561
0.000144439
-0.000708468
0.000191485
-0.000591664
0.000246699
-0.000441159
0.000310563
-0.000261652
0.000383502
-5.68664e-05
0.000465874
0.000170201
0.00055798
0.000417092
0.000660053
0.000681735
0.000772267
0.000962347
0.000894728
0.00125734
0.00102748
0.00156528
0.00117051
0.00188478
0.00132372
0.00221455
0.00148696
0.00255328
0.00165999
0.00289967
0.00184252
0.00325241
0.00203417
0.00361015
0.00223449
0.00397152
0.00244296
0.00433513
0.00265897
0.00469956
0.00288187
0.00506338
0.00311091
0.00542514
0.00334532
0.00578341
0.00358425
0.00613677
0.00382684
0.00648382
0.00407219
0.00682322
0.00431939
0.00715365
0.00456754
0.00747384
0.00481575
0.00778252
0.00506316
0.00807841
0.00530896
0.00836006
0.00555234
0.00862575
0.00579247
0.00887349
0.00910008
0.00602826
2.95189e-06
-0.000216185
1.0577e-05
-0.000514854
2.2734e-05
-0.000703332
3.96948e-05
-0.000805165
6.19767e-05
-0.000837735
9.02011e-05
-0.000813834
0.000125014
-0.000743281
0.00016704
-0.000633689
0.000216858
-0.000490977
0.000274986
-0.000319781
0.000341879
-0.000123759
0.000417921
9.41588e-05
0.000503433
0.00033158
0.000598668
0.000586499
0.000703817
0.000857198
0.000819005
0.00114216
0.000944298
0.00143998
0.00107969
0.00174939
0.00122513
0.00206912
0.00138048
0.00239793
0.00154554
0.00273461
0.00172007
0.00307789
0.00190371
0.00342651
0.00209607
0.00377916
0.00229669
0.00413452
0.002505
0.00449124
0.00272042
0.00484796
0.00294227
0.00520329
0.00316982
0.00555586
0.0034023
0.00590429
0.0036389
0.00624723
0.00387877
0.00658335
0.00412106
0.00691137
0.0043649
0.00723
0.00460945
0.00753798
0.00485387
0.00783399
0.00509735
0.00811658
0.00533908
0.00838402
0.00557817
0.00863439
0.00886475
0.0058135
2.39883e-06
-0.000218583
8.49676e-06
-0.000520952
1.82802e-05
-0.000713116
3.21383e-05
-0.000819023
5.06924e-05
-0.000856289
7.46506e-05
-0.000837792
0.000104731
-0.000773362
0.000141618
-0.000670576
0.000185938
-0.000535297
0.000238247
-0.000372091
0.000299032
-0.000184544
0.000368703
2.44878e-05
0.000447603
0.00025268
0.000536003
0.000498099
0.000634112
0.000759088
0.000742074
0.00103419
0.000859969
0.00132209
0.000987816
0.00162154
0.00112558
0.00193136
0.00127314
0.00225036
0.00143036
0.00257739
0.00159698
0.00291126
0.00177273
0.00325076
0.00195724
0.00359465
0.00215008
0.00394168
0.00235076
0.00429056
0.00255874
0.00463999
0.00277339
0.00498864
0.00299404
0.0053352
0.00321999
0.00567834
0.00345047
0.00601675
0.00368469
0.00634913
0.00392185
0.00667421
0.00416112
0.00699073
0.00440168
0.00729741
0.00464274
0.00759294
0.00488348
0.00787584
0.00512309
0.0081444
0.00536066
0.00839683
0.00863042
0.00559499
1.79717e-06
-0.000220381
6.26414e-06
-0.000525419
1.35405e-05
-0.000720392
2.41499e-05
-0.000829633
3.88284e-05
-0.000870968
5.8378e-05
-0.000857342
8.35944e-05
-0.000798579
0.000115223
-0.000702205
0.000153942
-0.000574016
0.000200348
-0.000418497
0.000254959
-0.000239154
0.000318213
-3.87662e-05
0.000390475
0.000180418
0.000472036
0.000416537
0.000563123
0.000668002
0.000663894
0.000933422
0.000774448
0.00121154
0.000894821
0.00150117
0.00102499
0.00180118
0.00116488
0.00211047
0.00131435
0.00242793
0.0014732
0.00275242
0.00164117
0.00308279
0.00181793
0.00341789
0.0020031
0.00375651
0.00219624
0.00409742
0.00239684
0.00443939
0.00260433
0.00478115
0.0028181
0.00512143
0.00303748
0.00545895
0.00326178
0.00579245
0.00349024
0.00612067
0.0037221
0.00644235
0.00395659
0.00675624
0.00419292
0.00706108
0.00443032
0.00735554
0.00466798
0.00763818
0.00490508
0.00790729
0.00514069
0.00816122
0.00839755
0.00537356
1.14694e-06
-0.000221528
3.87988e-06
-0.000528152
8.51769e-06
-0.00072503
1.57358e-05
-0.000836851
2.63951e-05
-0.000881627
4.13984e-05
-0.000872345
6.16227e-05
-0.000818803
8.78793e-05
-0.000728461
0.000120898
-0.000607035
0.000161316
-0.000458916
0.000209687
-0.000287525
0.000266476
-9.55552e-05
0.000332071
0.000114823
0.000406785
0.000341824
0.000490858
0.000583928
0.000584469
0.000839811
0.00068773
0.00110828
0.000800696
0.0013882
0.000923363
0.00167852
0.00105567
0.00197817
0.00119751
0.00228609
0.00134869
0.00260123
0.001509
0.00292249
0.00167813
0.00324875
0.00185575
0.00357889
0.00204145
0.00391173
0.00223476
0.00424608
0.00243516
0.00458075
0.00264209
0.0049145
0.00285493
0.00524612
0.00307301
0.00557437
0.00329566
0.00589803
0.00352214
0.00621587
0.00375171
0.00652666
0.00398363
0.00682916
0.00421713
0.00712204
0.00445144
0.00740387
0.00468572
0.00767302
0.004919
0.00792794
0.00816654
0.00515001
4.48814e-07
-0.000221976
1.34683e-06
-0.00052905
3.21914e-06
-0.000726903
6.90956e-06
-0.000840542
1.34133e-05
-0.000888131
2.374e-05
-0.000882672
3.88522e-05
-0.000833915
5.96288e-05
-0.000749238
8.68524e-05
-0.000634258
0.000121205
-0.000493269
0.000163273
-0.000329593
0.000213551
-0.000145833
0.00027245
5.59229e-05
0.000340304
0.00027397
0.000417372
0.00050686
0.000503846
0.000753337
0.000599856
0.00101226
0.000705474
0.00128258
0.000820713
0.00156328
0.000945531
0.00185335
0.00107983
0.00215179
0.00122347
0.00245759
0.00137624
0.00276972
0.00153787
0.00308712
0.00170806
0.0034087
0.00188644
0.00373335
0.00207257
0.00405995
0.00226598
0.00438734
0.00246615
0.00471433
0.00267249
0.00503977
0.0028844
0.00536246
0.00310123
0.0056812
0.00332228
0.00599481
0.00354687
0.00630208
0.00377426
0.00660177
0.00400371
0.00689259
0.00423446
0.00717313
0.00446566
0.00744181
0.00469632
0.00769728
0.00793771
0.00492514
-2.96583e-07
-0.00022168
-1.32974e-06
-0.000528017
-2.3432e-06
-0.000725889
-2.30819e-06
-0.000840577
-8.64738e-08
-0.000890353
5.44445e-06
-0.000888203
1.53352e-05
-0.000843806
3.05344e-05
-0.000764437
5.18787e-05
-0.000655603
8.00946e-05
-0.000521484
0.000115803
-0.000365301
0.000159529
-0.000189559
0.000211707
3.74474e-06
0.000272691
0.000212985
0.000342758
0.000436793
0.000422118
0.000673977
0.000510917
0.000923466
0.000609242
0.00118426
0.000717124
0.0014554
0.000834538
0.00173593
0.00096141
0.00202492
0.00109761
0.00232139
0.00124296
0.00262437
0.00139722
0.00293285
0.00156012
0.00324581
0.0017313
0.00356217
0.00191038
0.00388087
0.00209692
0.00420079
0.00229043
0.00452082
0.00249038
0.00483983
0.00269618
0.00515665
0.00290723
0.00547015
0.00312288
0.00577916
0.00334245
0.0060825
0.00356525
0.00637896
0.00379056
0.00666728
0.00401761
0.00694608
0.00424555
0.00721388
0.00447337
0.00746946
0.00771133
0.00469975
-1.08634e-06
-0.000220594
-4.14224e-06
-0.000524961
-8.15267e-06
-0.000721879
-1.18895e-05
-0.00083684
-1.40632e-05
-0.000888179
-1.34336e-05
-0.000888833
-8.85963e-06
-0.00084838
6.78228e-07
-0.000773975
1.60716e-05
-0.000670996
3.80916e-05
-0.000543505
6.7395e-05
-0.000394605
0.000104535
-0.000226699
0.000149972
-4.16921e-05
0.00020408
0.000158877
0.000267155
0.000373718
0.000339425
0.000601708
0.000421051
0.000841839
0.000512137
0.00109317
0.00061273
0.0013548
0.000722824
0.00162584
0.000842363
0.00190538
0.000971238
0.00219252
0.00110929
0.00248632
0.00125631
0.00278583
0.00141204
0.00309007
0.00157618
0.00339804
0.00174835
0.0037087
0.00192815
0.00402099
0.00211514
0.00433384
0.0023088
0.00464616
0.0025086
0.00495686
0.00271395
0.0052648
0.00292426
0.00556886
0.00313885
0.0058679
0.00335708
0.00616074
0.00357821
0.00644614
0.00380149
0.0067228
0.00402605
0.00698931
0.00425087
0.00724465
0.00748759
0.00447461
-1.91862e-06
-0.000218675
-7.08056e-06
-0.000519799
-1.41879e-05
-0.000714772
-2.17992e-05
-0.000829229
-2.8466e-05
-0.000881512
-3.28265e-05
-0.000884473
-3.36476e-05
-0.000847559
-2.98381e-05
-0.000777785
-2.04511e-05
-0.000680383
-4.67121e-06
-0.000559285
1.81941e-05
-0.00041747
4.87277e-05
-0.000257233
8.74133e-05
-8.03778e-05
0.000134647
0.000111643
0.000190745
0.00031762
0.000255951
0.000536502
0.000330445
0.000767345
0.000414346
0.00100927
0.00050772
0.00126143
0.000610576
0.00152298
0.000722878
0.00179308
0.000844537
0.00207086
0.000975415
0.00235544
0.00111533
0.00264592
0.00126404
0.00294137
0.00142126
0.00324082
0.00158667
0.00354329
0.00175989
0.00384777
0.0019405
0.00415324
0.00212802
0.00445864
0.00232195
0.00476293
0.00252174
0.00506501
0.00272679
0.00536381
0.0029365
0.0056582
0.00315019
0.00594705
0.00336717
0.00622917
0.00358667
0.00650331
0.00380781
0.00676817
0.00402954
0.00702291
0.00726661
0.00425051
-2.78999e-06
-0.000215885
-1.01322e-05
-0.000512457
-2.04229e-05
-0.000704481
-3.19949e-05
-0.000817657
-4.32341e-05
-0.000870273
-5.26538e-05
-0.000875053
-5.89283e-05
-0.000841285
-6.08945e-05
-0.000775819
-5.75501e-05
-0.000683728
-4.80363e-05
-0.000568798
-3.16251e-05
-0.000433881
-7.7046e-06
-0.000281153
2.42333e-05
-0.000112316
6.46065e-05
7.127e-05
0.000113751
0.000268475
0.000171928
0.000478324
0.000239336
0.000699938
0.000316111
0.000932496
0.000402336
0.00117521
0.000498039
0.00142728
0.0006032
0.00168792
0.000717751
0.00195631
0.000841575
0.00223162
0.000974508
0.00251299
0.00111634
0.00279953
0.00126681
0.00309034
0.00142562
0.00338448
0.00159242
0.00368097
0.00176681
0.00397885
0.00194835
0.0042771
0.00213657
0.00457471
0.00233094
0.00487064
0.00253089
0.00516385
0.00273582
0.00545327
0.00294509
0.00573778
0.00315799
0.00601627
0.00337374
0.00628755
0.00359147
0.00655044
0.00381009
0.00680429
0.00704846
0.00402825
-3.6964e-06
-0.000212189
-1.3282e-05
-0.000502871
-2.68272e-05
-0.000690936
-4.24274e-05
-0.000802057
-5.82972e-05
-0.000854403
-7.28232e-05
-0.000860527
-8.45862e-05
-0.000829522
-9.23526e-05
-0.000768053
-9.50648e-05
-0.000681016
-9.18217e-05
-0.000572042
-8.18606e-05
-0.000443842
-6.45411e-05
-0.000298473
-3.93305e-05
-0.000137526
-5.78962e-06
3.7729e-05
3.64376e-05
0.000226248
8.76324e-05
0.000427129
0.00014801
0.00063956
0.000217725
0.000862781
0.000296877
0.00109605
0.000385514
0.00133864
0.000483634
0.0015898
0.000591188
0.00184875
0.000708081
0.00211472
0.000834169
0.0023869
0.000969265
0.00266444
0.00111314
0.00294647
0.00126551
0.00323211
0.00142605
0.00352043
0.0015944
0.00381049
0.00177015
0.00410135
0.00195283
0.00439203
0.00214195
0.00468152
0.00233697
0.00496884
0.00253729
0.00525295
0.00274227
0.0055328
0.00295121
0.00580732
0.00316332
0.00607544
0.00337771
0.00633606
0.00359326
0.00658874
0.00683311
0.0038086
-4.63297e-06
-0.000207556
-1.65129e-05
-0.000490991
-3.33661e-05
-0.000674082
-5.30408e-05
-0.000782382
-7.3576e-05
-0.000833868
-9.32305e-05
-0.000840873
-0.000110492
-0.00081226
-0.000124057
-0.000754487
-0.000132815
-0.000672259
-0.000135823
-0.000569034
-0.000132284
-0.000447381
-0.000121532
-0.000309225
-0.000103008
-0.00015605
-7.6252e-05
1.09733e-05
-4.08883e-05
0.000190884
3.38426e-06
0.000382857
5.6799e-05
0.000586145
0.000119529
0.00080005
0.000191694
0.00102389
0.000273359
0.00125698
0.000364543
0.00149861
0.000465215
0.00174808
0.000575302
0.00200464
0.000694681
0.00226752
0.00082319
0.00253593
0.000960619
0.00280904
0.00110672
0.00308601
0.00126118
0.00336596
0.00142368
0.003648
0.00159381
0.00393122
0.00177116
0.00421468
0.00195523
0.00449745
0.0021455
0.00477857
0.00234139
0.00505705
0.00254227
0.00533192
0.00274742
0.00560217
0.00295604
0.00586682
0.0031672
0.0061249
0.00337978
0.00637616
0.0066205
0.00359239
-5.59402e-06
-0.000201962
-1.98053e-05
-0.00047678
-4.00009e-05
-0.000653887
-6.37733e-05
-0.00075861
-8.89829e-05
-0.000808658
-0.000113761
-0.000816095
-0.000136502
-0.000789519
-0.000155837
-0.000735153
-0.000170601
-0.000657495
-0.000179812
-0.000559823
-0.000182643
-0.00044455
-0.000178398
-0.000313471
-0.000166496
-0.000167952
-0.000146456
-9.06646e-06
-0.000117882
0.00016231
-8.04533e-05
0.000345428
-3.39168e-05
0.000539609
2.19195e-05
0.000744214
8.71936e-05
0.000958615
0.000161992
0.00118218
0.000246351
0.00141425
0.000340263
0.00165417
0.000443674
0.00190123
0.000556485
0.00215471
0.000678555
0.00241386
0.000809701
0.0026779
0.000949694
0.00294602
0.00109826
0.00321739
0.00125509
0.00349117
0.00141981
0.00376649
0.00159202
0.00404248
0.00177125
0.00431822
0.00195699
0.00459283
0.00214867
0.00486537
0.00234565
0.00513494
0.00254721
0.00540061
0.00275253
0.0056615
0.00296064
0.00591678
0.00317041
0.0061664
0.0064105
0.00338041
-6.57311e-06
-0.000195388
-2.31378e-05
-0.000460216
-4.6689e-05
-0.000630336
-7.45572e-05
-0.000730741
-0.000104423
-0.000778793
-0.00013429
-0.000786228
-0.000162463
-0.000761346
-0.000187506
-0.00071011
-0.000208206
-0.000636795
-0.000223543
-0.000544486
-0.00023266
-0.000435433
-0.000234834
-0.000311296
-0.000229463
-0.000173323
-0.000216045
-2.24851e-05
-0.000194162
0.000140427
-0.000163476
0.000314741
-0.000123713
0.000499846
-7.46616e-05
0.000695163
-1.61646e-05
0.000900118
5.18847e-05
0.00111413
0.000129544
0.00133659
0.000216827
0.00156688
0.000313699
0.00180435
0.000420087
0.00204832
0.000535872
0.00229807
0.000660897
0.00255287
0.000794957
0.00281196
0.000937807
0.00307454
0.00108916
0.00333982
0.00124866
0.00360699
0.00141594
0.0038752
0.00159055
0.00414361
0.00177199
0.00441139
0.00195969
0.00467767
0.00215301
0.00494162
0.00235121
0.00520241
0.00255345
0.00545926
0.00275875
0.00571149
0.0029659
0.00595924
0.0062029
0.0031735
-7.56315e-06
-0.000187825
-2.6487e-05
-0.000441292
-5.33842e-05
-0.000603438
-8.53196e-05
-0.000698806
-0.000119792
-0.00074432
-0.000154683
-0.000751337
-0.000188206
-0.000727823
-0.000218864
-0.000679452
-0.000245398
-0.000610261
-0.000266751
-0.000523133
-0.000282037
-0.000420147
-0.000290511
-0.000302822
-0.000291549
-0.000172286
-0.000284627
-2.94072e-05
-0.00026931
0.00012511
-0.000245238
0.000290669
-0.00021212
0.000466727
-0.000169722
0.000652766
-0.000117869
0.000848264
-5.6432e-05
0.00105269
1.46675e-05
0.00126549
9.54632e-05
0.00148609
0.000185945
0.00171387
0.000286062
0.0019482
0.000395722
0.00218841
0.000514789
0.0024338
0.000643089
0.00268366
0.000780401
0.00293723
0.00092646
0.00319377
0.00108095
0.00345249
0.00124352
0.00371263
0.00141372
0.00397341
0.00159109
0.00423403
0.00177505
0.00449371
0.00196496
0.00475171
0.00216007
0.0050073
0.0023595
0.00525982
0.00256224
0.00550875
0.00276706
0.00575443
0.00599746
0.0029725
-8.55648e-06
-0.000179269
-2.9828e-05
-0.00042002
-6.00375e-05
-0.000573229
-9.59832e-05
-0.00066286
-0.000134984
-0.000705319
-0.0001748
-0.000711522
-0.000213558
-0.000689065
-0.000249702
-0.000643309
-0.00028193
-0.000578033
-0.000309152
-0.00049591
-0.000330457
-0.000398843
-0.000345076
-0.000288202
-0.000352366
-0.000164997
-0.000351782
-2.99906e-05
-0.000342872
0.0001162
-0.000325257
0.000273054
-0.000298625
0.000440095
-0.000262724
0.000616864
-0.000217355
0.000802896
-0.000162372
0.000997709
-9.76741e-05
0.00120079
-2.32049e-05
0.00141162
6.10484e-05
0.00162962
0.000155058
0.00185419
0.000258758
0.00208471
0.000372038
0.00232052
0.00049475
0.00256094
0.000626703
0.00280528
0.000767659
0.00305281
0.000917332
0.00330282
0.00107538
0.00355459
0.0012414
0.00380739
0.00141492
0.0040605
0.0015954
0.00431324
0.00178216
0.00456494
0.00197446
0.004815
0.00217138
0.0050629
0.00237187
0.00530826
0.00257466
0.00555163
0.00579385
0.00277827
-9.54503e-06
-0.000169724
-3.31342e-05
-0.000396431
-6.65973e-05
-0.000539766
-0.000106467
-0.000622991
-0.000149884
-0.000661902
-0.00019449
-0.000666916
-0.000238332
-0.000645224
-0.000279796
-0.000601844
-0.000317543
-0.000540287
-0.000350451
-0.000463002
-0.000377584
-0.000371709
-0.000398156
-0.00026763
-0.000411502
-0.00015165
-0.000417063
-2.443e-05
-0.000414366
0.000113503
-0.000403013
0.000261701
-0.000382676
0.000419757
-0.00035308
0.000587269
-0.000314009
0.000763825
-0.000265294
0.000948994
-0.000206813
0.00114231
-0.000138489
0.0013433
-6.02848e-05
0.00155141
2.77963e-05
0.00176611
0.000125712
0.0019868
0.000233381
0.00221285
0.000350682
0.00244364
0.000477452
0.00267851
0.000613484
0.00291678
0.000758521
0.00315778
0.000912248
0.00340086
0.00107429
0.00364534
0.0012442
0.0038906
0.00142142
0.00413602
0.00160531
0.00438105
0.00179509
0.00462522
0.00198982
0.00486816
0.00218841
0.00510967
0.00238954
0.0053505
0.00559171
0.00259169
-1.05203e-05
-0.000159204
-3.63779e-05
-0.000370574
-7.30097e-05
-0.000503134
-0.000116686
-0.000579314
-0.000164375
-0.000614213
-0.000213602
-0.000617689
-0.000262339
-0.000596487
-0.000308919
-0.000555264
-0.000351967
-0.000497239
-0.000390336
-0.000424633
-0.000423068
-0.000338978
-0.000449358
-0.000241341
-0.000468525
-0.000132483
-0.000479994
-1.29615e-05
-0.000483274
0.000116783
-0.000477952
0.000256379
-0.000463678
0.000405483
-0.000440162
0.000563752
-0.000407165
0.000730829
-0.000364499
0.000906328
-0.000312022
0.00108984
-0.000249634
0.00128091
-0.000177275
0.00147906
-9.49254e-05
0.00168376
-2.60101e-06
0.00189447
9.96414e-05
0.00211061
0.000211711
0.00233157
0.000333474
0.00255674
0.000464754
0.0027855
0.000605327
0.00301721
0.000754912
0.00325127
0.000913162
0.00348709
0.00107965
0.00372411
0.00125385
0.00396182
0.00143512
0.00419978
0.00162268
0.00443767
0.00181556
0.00467528
0.00201263
0.00491261
0.00221252
0.00515061
0.00539059
0.00241364
-1.14734e-05
-0.00014773
-3.95305e-05
-0.000342517
-7.92198e-05
-0.000463445
-0.000126555
-0.000531979
-0.000178336
-0.000562433
-0.000231978
-0.000564047
-0.000285382
-0.000543083
-0.000336834
-0.000503812
-0.000384926
-0.000449148
-0.000428488
-0.000381071
-0.000466545
-0.000300921
-0.000498274
-0.000209611
-0.000522983
-0.000107774
-0.000540079
4.13405e-06
-0.000549056
0.000125761
-0.000549486
0.000256809
-0.000541002
0.000396998
-0.000523294
0.000546045
-0.000496107
0.000703642
-0.000459233
0.000869454
-0.000412509
0.00104311
-0.000355814
0.00122421
-0.000289068
0.00141231
-0.000212227
0.00160692
-0.000125283
0.00180753
-2.82651e-05
0.00201359
7.87611e-05
0.00222455
0.000195693
0.00243981
0.000322388
0.0026588
0.000458655
0.00288094
0.000604252
0.00310568
0.000758869
0.00333248
0.000922114
0.00356087
0.00109349
0.00379044
0.00127238
0.00402089
0.001458
0.00425205
0.00164938
0.0044839
0.00184533
0.00471665
0.00204445
0.0049515
0.00518998
0.00224505
-1.23953e-05
-0.000135335
-4.25628e-05
-0.000312349
-8.51715e-05
-0.000420836
-0.000135986
-0.000481164
-0.000191644
-0.000506775
-0.000249457
-0.000506233
-0.000307262
-0.000485279
-0.000363301
-0.000447773
-0.000416136
-0.000396312
-0.00046458
-0.000332626
-0.000507642
-0.00025786
-0.000544486
-0.000172767
-0.000574407
-7.78533e-05
-0.000596799
2.65265e-05
-0.000611145
0.000140107
-0.000616999
0.000262663
-0.00061398
0.000393979
-0.000601763
0.000533828
-0.000580074
0.000681953
-0.000548686
0.000838067
-0.00050742
0.00100185
-0.000456135
0.00117293
-0.00039473
0.0013509
-0.000323139
0.00153533
-0.000241334
0.00172572
-0.000149319
0.00192158
-4.71334e-05
0.00212236
6.51496e-05
0.00232753
0.00018742
0.00253653
0.000319524
0.00274884
0.000461263
0.00296394
0.00061237
0.00318137
0.000772504
0.00340073
0.000941216
0.00362173
0.00111792
0.00384419
0.00130186
0.00406811
0.00149207
0.00429369
0.00168735
0.00452138
0.00188619
0.00475265
0.00498932
0.00208686
-1.32766e-05
-0.000122058
-4.54457e-05
-0.00028018
-9.08088e-05
-0.000375473
-0.000144891
-0.000427082
-0.000204176