/*--------------------------------*- C++ -*----------------------------------*\
  =========                 |
  \\      /  F ield         | OpenFOAM: The Open Source CFD Toolbox
   \\    /   O peration     | Website:  https://openfoam.org
    \\  /    A nd           | Version:  7
     \\/     M anipulation  |
\*---------------------------------------------------------------------------*/
FoamFile
{
    version     2.0;
    format      ascii;
    class       volVectorField;
    location    "9.9";
    object      U;
}
// * * * * * * * * * * * * * * * * * * * * * * * * * * * * * * * * * * * * * //

dimensions      [0 1 -1 0 0 0 0];

internalField   nonuniform List<vector> 
32000
(
(0.000224015 -0.00611551 -1.40588e-22)
(0.0014176 -0.0135605 0)
(0.00377842 -0.0167484 -1.2651e-21)
(0.00694577 -0.016463 0)
(0.010884 -0.0132888 1.3243e-21)
(0.0155123 -0.00768442 0)
(0.0207717 -1.61712e-05 1.37337e-21)
(0.0266129 0.00941714 -1.04565e-21)
(0.0329931 0.0203717 7.37778e-25)
(0.0398738 0.0326471 7.23159e-25)
(0.0472192 0.0460735 -3.611e-22)
(0.0549941 0.0605057 1.45948e-21)
(0.0631627 0.0758166 0)
(0.0716876 0.0918903 -3.71223e-22)
(0.0805291 0.10862 3.72761e-22)
(0.0896441 0.125902 0)
(0.0989866 0.143637 1.88961e-21)
(0.108508 0.161724 -3.79387e-22)
(0.118157 0.180064 0)
(0.127879 0.198554 7.72033e-22)
(0.137618 0.217094 7.74414e-22)
(0.147316 0.235582 0)
(0.156915 0.253917 0)
(0.166356 0.272 0)
(0.175583 0.289734 0)
(0.184542 0.307027 0)
(0.193182 0.323792 0)
(0.201455 0.339951 0)
(0.20932 0.355432 -1.64235e-21)
(0.216741 0.370171 0)
(0.223686 0.384117 1.67361e-21)
(0.230132 0.397226 0)
(0.236062 0.409466 0)
(0.241464 0.420815 0)
(0.246333 0.43126 -1.7413e-21)
(0.250671 0.440796 -8.90897e-22)
(0.254488 0.449419 2.68497e-21)
(0.257803 0.457122 4.82789e-24)
(0.260641 0.463875 1.83363e-21)
(0.262888 0.469568 4.41049e-24)
(0.000345752 -0.00636773 0)
(0.00166136 -0.0142799 2.46701e-21)
(0.00401425 -0.017917 6.30949e-22)
(0.00706118 -0.0180678 -1.77843e-24)
(0.0107791 -0.0153213 -6.62429e-22)
(0.0151005 -0.0101409 0)
(0.019979 -0.00289492 1.37546e-21)
(0.0253746 0.00611634 -1.39617e-21)
(0.0312537 0.016648 0)
(0.0375863 0.0285009 -2.86185e-21)
(0.0443428 0.0415067 0)
(0.0514943 0.0555219 -4.37764e-21)
(0.0590113 0.0704221 0)
(0.0668627 0.0860949 0)
(0.0750146 0.102437 1.49385e-21)
(0.0834306 0.11935 -1.49866e-21)
(0.0920713 0.136738 -1.51067e-21)
(0.100894 0.154506 0)
(0.109855 0.172559 4.5803e-21)
(0.118905 0.190801 -1.53071e-21)
(0.127996 0.209135 3.06303e-24)
(0.137076 0.227464 -4.64776e-21)
(0.146092 0.24569 -3.11919e-21)
(0.154991 0.263718 -1.58057e-21)
(0.163722 0.281453 4.73712e-21)
(0.172234 0.298804 -4.78878e-21)
(0.180478 0.315685 4.83659e-21)
(0.188411 0.332015 -6.45878e-21)
(0.19599 0.347721 -1.61928e-21)
(0.203181 0.362737 3.54251e-23)
(0.209951 0.377006 -4.94614e-21)
(0.216275 0.390482 -3.34088e-21)
(0.222133 0.403126 6.80781e-21)
(0.227511 0.41491 -6.82156e-21)
(0.232402 0.425815 -1.70791e-21)
(0.236803 0.435829 -7.0097e-21)
(0.240719 0.444942 -1.0066e-23)
(0.24417 0.453135 1.80203e-21)
(0.247164 0.460369 -7.1532e-21)
(0.249569 0.466519 -1.00713e-20)
(0.000478539 -0.0066225 -5.65376e-22)
(0.0019349 -0.014993 -1.23292e-21)
(0.00429399 -0.019055 -5.70714e-21)
(0.00723409 -0.0196185 0)
(0.0107467 -0.0172794 6.63887e-22)
(0.0147783 -0.0125043 -6.75177e-22)
(0.0192946 -0.00566517 -8.25015e-21)
(0.024265 0.00293722 2.7904e-21)
(0.0296657 0.0130582 -1.41557e-21)
(0.0354739 0.024498 8.58483e-21)
(0.041666 0.0370896 2.89194e-21)
(0.0482199 0.050692 1.4604e-21)
(0.0551118 0.0651832 -5.88225e-21)
(0.0623158 0.080454 0)
(0.0698039 0.0964047 0)
(0.0775446 0.112941 3.00332e-21)
(0.0855045 0.129971 1.03685e-23)
(0.0936474 0.147405 -3.02542e-21)
(0.101934 0.165152 -3.04977e-21)
(0.110324 0.183123 -6.11825e-21)
(0.118773 0.201224 9.23792e-21)
(0.127236 0.219362 1.52358e-23)
(0.135664 0.237446 -7.13046e-24)
(0.144012 0.25538 3.11959e-21)
(0.152231 0.273075 -6.3298e-21)
(0.160275 0.29044 1.26784e-20)
(0.168099 0.30739 0)
(0.175661 0.323844 3.23415e-21)
(0.182922 0.339728 3.2616e-21)
(0.189845 0.354974 6.59117e-21)
(0.196401 0.369522 3.54088e-23)
(0.202562 0.38332 0)
(0.208307 0.396327 3.40462e-21)
(0.213619 0.408509 -3.33455e-21)
(0.218489 0.419841 -3.38582e-21)
(0.222911 0.430303 1.04674e-20)
(0.226888 0.439879 -1.03892e-20)
(0.230437 0.448542 7.1157e-21)
(0.23355 0.456242 -1.05773e-20)
(0.23608 0.462839 3.8949e-21)
(0.000621522 -0.00685557 4.52535e-21)
(0.00223314 -0.0156533 -4.94976e-21)
(0.00460889 -0.0201206 1.01556e-20)
(0.00745414 -0.021078 0)
(0.0107744 -0.01913 3.98536e-21)
(0.01453 -0.0147459 6.76695e-21)
(0.0186995 -0.00830163 1.3725e-21)
(0.0232631 -9.82806e-05 2.27073e-24)
(0.0282049 0.0096195 4.24778e-21)
(0.03351 0.0206515 -1.43072e-21)
(0.0391616 0.0328332 7.23023e-21)
(0.0451429 0.0460253 -8.75637e-21)
(0.0514351 0.0601079 8.82075e-21)
(0.0580173 0.0749749 -2.96386e-21)
(0.0648665 0.0905297 2.97618e-21)
(0.0719563 0.106682 -5.98948e-21)
(0.0792583 0.123344 -9.0369e-21)
(0.0867416 0.14043 3.02142e-21)
(0.0943726 0.157856 -3.04833e-21)
(0.102116 0.175534 9.16694e-21)
(0.109932 0.193377 -6.14927e-21)
(0.117782 0.211297 -6.16436e-21)
(0.125624 0.229205 0)
(0.133415 0.247011 0)
(0.141113 0.264626 -6.26673e-21)
(0.148674 0.281963 -6.33534e-21)
(0.156058 0.298939 -6.34812e-21)
(0.163226 0.315473 0)
(0.170139 0.331489 0)
(0.176764 0.346918 -1.3046e-20)
(0.18307 0.361699 -8.80833e-23)
(0.189031 0.375776 6.64956e-21)
(0.194623 0.389104 -6.63524e-21)
(0.19983 0.401644 -6.79291e-21)
(0.204639 0.413366 6.81392e-21)
(0.209042 0.424244 0)
(0.21304 0.434254 6.96263e-21)
(0.216649 0.443363 -1.40024e-20)
(0.219846 0.45151 1.40876e-20)
(0.222467 0.458542 -1.57765e-20)
(0.00077293 -0.00708052 -2.25844e-21)
(0.00255325 -0.0162867 3.71371e-21)
(0.00495565 -0.0211356 -5.08141e-21)
(0.00771499 -0.022466 0)
(0.0108525 -0.0208902 -6.64504e-21)
(0.0143438 -0.0168816 -4.06189e-21)
(0.0181801 -0.0108184 5.50612e-21)
(0.0223522 -0.00300294 0)
(0.0268529 0.00632051 -8.49511e-21)
(0.0316749 0.0169527 -2.86499e-21)
(0.0368074 0.0287303 -2.89047e-21)
(0.0422388 0.0415156 5.83988e-21)
(0.0479552 0.0551912 -5.88072e-21)
(0.0539404 0.069654 2.95765e-21)
(0.0601756 0.0848106 0)
(0.0666387 0.100574 8.98697e-21)
(0.0733059 0.11686 3.01558e-21)
(0.0801509 0.133588 -6.05661e-21)
(0.0871449 0.150678 1.21475e-20)
(0.0942567 0.168046 -1.22019e-20)
(0.101453 0.18561 1.22334e-20)
(0.1087 0.203286 6.16438e-21)
(0.115959 0.220989 0)
(0.123194 0.238633 6.24491e-21)
(0.130365 0.256133 3.8219e-23)
(0.137434 0.273405 0)
(0.144363 0.290365 6.34816e-21)
(0.151117 0.306934 -6.41207e-21)
(0.157659 0.323038 6.38537e-21)
(0.163959 0.338606 1.30027e-20)
(0.169985 0.353575 -1.30453e-20)
(0.175712 0.367887 1.31311e-20)
(0.181117 0.381492 0)
(0.186182 0.39435 0)
(0.190892 0.406423 1.34941e-20)
(0.195238 0.417682 0)
(0.199219 0.428095 0)
(0.202851 0.437621 -1.38878e-20)
(0.206096 0.446192 1.38632e-20)
(0.208775 0.453643 7.85708e-21)
(0.000932201 -0.0072914 1.13432e-21)
(0.00289203 -0.0168776 0)
(0.0053278 -0.0220851 1.01918e-20)
(0.00800799 -0.0237683 1.3046e-21)
(0.0109705 -0.022547 1.3344e-21)
(0.0142063 -0.0188991 8.14239e-21)
(0.0177201 -0.0132048 1.10308e-20)
(0.021514 -0.00576732 0)
(0.0255893 0.00316975 2.83467e-21)
(0.0299457 0.0134081 8.59922e-21)
(0.0345787 0.0247856 1.15749e-20)
(0.0394816 0.0371669 -2.91988e-21)
(0.0446451 0.050437 -8.82134e-21)
(0.0500569 0.0644951 0)
(0.055702 0.0792509 1.19026e-20)
(0.0615625 0.0946205 0)
(0.0676183 0.110524 1.80399e-20)
(0.0738471 0.126885 -6.02985e-21)
(0.0802242 0.143625 0)
(0.0867229 0.160667 -6.10388e-21)
(0.0933148 0.177933 -2.0566e-23)
(0.0999692 0.195343 -6.10982e-21)
(0.106654 0.212815 -6.15046e-21)
(0.113335 0.230268 6.22399e-21)
(0.119978 0.24762 -6.20768e-21)
(0.126549 0.264789 0)
(0.133014 0.281695 -6.33635e-21)
(0.13934 0.298259 6.31213e-21)
(0.145493 0.314408 0)
(0.151445 0.330071 0)
(0.157166 0.345183 0)
(0.16263 0.359686 -1.31475e-20)
(0.167816 0.373526 1.3078e-20)
(0.172706 0.386659 0)
(0.177282 0.399044 -6.71895e-21)
(0.181536 0.410646 0)
(0.185466 0.421428 1.37096e-20)
(0.189085 0.431342 -6.73038e-21)
(0.192344 0.440312 -1.39336e-20)
(0.195047 0.448162 1.5393e-20)
(0.00109806 -0.00748893 7.96274e-21)
(0.00324596 -0.0174283 -1.11898e-20)
(0.00572008 -0.0229704 -1.91245e-20)
(0.00832547 -0.0249854 -1.04465e-20)
(0.0111178 -0.0241014 -2.66675e-21)
(0.0141051 -0.0208 -5.42336e-21)
(0.0173053 -0.0154628 -2.4828e-20)
(0.020732 -0.00839375 -8.39928e-21)
(0.0243953 0.000164224 -1.41747e-20)
(0.0283021 0.0100143 -1.43301e-20)
(0.0324536 0.020996 -2.02603e-20)
(0.0368479 0.032976 -1.16751e-20)
(0.0414799 0.0458416 -1.75979e-25)
(0.0463409 0.0594949 -1.18338e-20)
(0.0514194 0.0738482 -1.19026e-20)
(0.0567007 0.0888206 -1.79451e-20)
(0.0621683 0.104336 1.2009e-20)
(0.0678034 0.120321 -6.02492e-21)
(0.0735849 0.136701 0)
(0.0794899 0.153404 1.21541e-20)
(0.0854938 0.170354 0)
(0.0915701 0.187477 2.45175e-20)
(0.0976902 0.204696 0)
(0.103825 0.221931 -6.20551e-21)
(0.109944 0.239105 6.2575e-21)
(0.116016 0.256138 -1.24376e-20)
(0.122011 0.272954 0)
(0.127899 0.289475 -1.26977e-20)
(0.13365 0.305628 1.26449e-20)
(0.139236 0.321344 0)
(0.14463 0.336557 0)
(0.149808 0.351207 0)
(0.154749 0.36524 -1.30353e-20)
(0.159433 0.378607 0)
(0.163846 0.391264 -1.33747e-20)
(0.167975 0.403171 2.6779e-20)
(0.17182 0.414286 -2.69945e-20)
(0.175394 0.424556 1.33559e-20)
(0.178632 0.433897 2.74199e-20)
(0.181327 0.442124 -1.52729e-20)
(0.00126943 -0.00767194 -1.02374e-20)
(0.00361156 -0.0179352 -1.60312e-23)
(0.00612654 -0.0237873 1.02062e-20)
(0.0086592 -0.0261137 2.09061e-20)
(0.0112843 -0.0255496 -2.66957e-21)
(0.0140275 -0.0225809 -1.08769e-20)
(0.0169209 -0.0175901 1.1037e-20)
(0.0199898 -0.010881 1.68013e-20)
(0.0232529 -0.00269546 5.66926e-21)
(0.0267242 0.00677124 1.43391e-20)
(0.0304106 0.0173606 1.15781e-20)
(0.0343149 0.0289414 1.75119e-20)
(0.0384355 0.0414036 3.52808e-20)
(0.0427673 0.0546516 1.77538e-20)
(0.0473016 0.0686005 0)
(0.0520269 0.0831724 5.97416e-21)
(0.0569296 0.0982945 5.99276e-21)
(0.0619938 0.113896 6.01633e-21)
(0.0672015 0.129907 1.21043e-20)
(0.0725332 0.146258 -6.07596e-21)
(0.0779677 0.162879 0)
(0.0834818 0.179698 -1.96723e-23)
(0.0890509 0.196642 -1.22735e-20)
(0.0946491 0.213636 1.23228e-20)
(0.10025 0.230604 2.47831e-20)
(0.105826 0.247472 2.4935e-20)
(0.11135 0.264164 3.38661e-23)
(0.116795 0.280606 1.2559e-20)
(0.122135 0.296726 1.26294e-20)
(0.127343 0.312455 -1.27047e-20)
(0.132394 0.327728 1.27847e-20)
(0.137266 0.342484 1.28691e-20)
(0.141938 0.356667 2.59931e-20)
(0.146392 0.370226 -1.26883e-22)
(0.150612 0.383115 3.95237e-20)
(0.154588 0.395288 4.34024e-23)
(0.158318 0.406699 -1.33416e-20)
(0.161815 0.417292 -1.35494e-20)
(0.165002 0.426973 1.35384e-20)
(0.167658 0.435555 1.52016e-20)
(0.00144522 -0.00783876 9.13312e-21)
(0.00398531 -0.0183954 1.24568e-20)
(0.00654115 -0.0245326 7.68121e-21)
(0.00900089 -0.0271494 -7.84107e-21)
(0.0114594 -0.0268888 -1.33576e-20)
(0.0139613 -0.0242397 1.08732e-20)
(0.016553 -0.0195851 0)
(0.0192715 -0.0132282 1.12167e-20)
(0.0221446 -0.00540943 0)
(0.0251931 0.00367788 -2.29517e-20)
(0.0284295 0.0138775 5.7942e-21)
(0.0318608 0.0250608 -2.9196e-20)
(0.0354891 0.0371201 -1.17608e-20)
(0.0393122 0.0499622 5.92155e-21)
(0.0433241 0.063505 8.04155e-24)
(0.0475159 0.0776735 -5.97228e-21)
(0.0518765 0.0923975 -1.20065e-20)
(0.0563925 0.10761 -2.41022e-20)
(0.0610487 0.123243 0)
(0.0658283 0.139233 1.77374e-23)
(0.0707132 0.155512 -1.21524e-20)
(0.075683 0.172011 -1.22274e-20)
(0.0807164 0.188661 1.22736e-20)
(0.0857907 0.205392 -1.23745e-20)
(0.0908829 0.22213 1.23507e-20)
(0.0959691 0.238805 -2.48016e-20)
(0.101025 0.255343 3.57281e-23)
(0.106027 0.271673 -2.50404e-20)
(0.11095 0.287725 -1.26295e-20)
(0.115771 0.303431 -4.08969e-23)
(0.120467 0.318725 -9.98839e-23)
(0.125017 0.333547 -1.28692e-20)
(0.129402 0.34784 -1.29577e-20)
(0.133604 0.36155 -7.63081e-23)
(0.13761 0.37463 -1.3145e-20)
(0.141407 0.38703 -8.8274e-23)
(0.144995 0.398701 -1.3425e-20)
(0.148388 0.409581 3.99415e-20)
(0.151494 0.419573 -1.35385e-20)
(0.154082 0.428482 -1.52242e-20)
(0.00162415 -0.00798804 -9.13614e-21)
(0.00436344 -0.0188061 2.49319e-21)
(0.00695786 -0.0252025 -7.67285e-21)
(0.00934234 -0.0280892 -2.61783e-21)
(0.0116331 -0.0281159 1.06889e-20)
(0.0138945 -0.025774 -2.72377e-21)
(0.0161879 -0.0214463 2.76482e-21)
(0.0185622 -0.0154349 -1.68291e-20)
(0.021054 -0.00797816 5.67788e-21)
(0.023691 0.000733038 1.14789e-20)
(0.0264911 0.010545 0)
(0.0294655 0.0213316 2.33664e-20)
(0.0326194 0.0329879 0)
(0.0359533 0.0454232 -2.36719e-20)
(0.0394637 0.058558 -1.18991e-20)
(0.0431439 0.07232 0)
(0.0469847 0.0866418 0)
(0.0509752 0.101459 2.40937e-20)
(0.0551024 0.116708 1.2106e-20)
(0.0593519 0.132327 -2.42563e-20)
(0.0637077 0.148252 1.21426e-20)
(0.0681522 0.164418 0)
(0.0726671 0.180758 -1.22811e-20)
(0.0772325 0.197207 2.45658e-20)
(0.0818283 0.213694 -1.2297e-20)
(0.0864337 0.230151 -1.2435e-20)
(0.0910274 0.246508 1.23921e-20)
(0.0955878 0.262696 0)
(0.100094 0.278647 2.51651e-20)
(0.104523 0.294294 -1.25661e-20)
(0.108857 0.309573 -1.27691e-20)
(0.113074 0.324423 -1.43697e-22)
(0.117158 0.338787 5.14687e-20)
(0.121093 0.35261 -3.86942e-20)
(0.124864 0.365842 0)
(0.12846 0.378431 -1.31543e-20)
(0.131882 0.390324 -2.65807e-20)
(0.135146 0.401457 1.30718e-20)
(0.138145 0.411726 1.33356e-20)
(0.140638 0.420937 0)
(0.00180495 -0.00811826 -1.83357e-20)
(0.00474219 -0.0191642 -2.49775e-21)
(0.00737044 -0.0257937 2.05331e-20)
(0.00967518 -0.0289298 -2.10014e-20)
(0.0117952 -0.029228 0)
(0.0138156 -0.0271816 0)
(0.0158127 -0.0231725 -5.53952e-21)
(0.0178475 -0.0175007 -3.70229e-24)
(0.0199656 -0.0104021 5.68227e-21)
(0.0222014 -0.00206464 0)
(0.0245779 0.00736076 0)
(0.0271102 0.017751 -5.83965e-21)
(0.0298067 0.0290036 4.16685e-24)
(0.0326701 0.0410307 5.92015e-21)
(0.035699 0.0537553 1.18991e-20)
(0.0388887 0.0671077 0)
(0.0422319 0.0810233 1.20137e-20)
(0.0457193 0.0954403 -1.20186e-20)
(0.0493399 0.110299 -2.41703e-20)
(0.0530811 0.125539 2.42451e-20)
(0.0569292 0.1411 4.67188e-23)
(0.0608687 0.15692 -1.21693e-20)
(0.0648835 0.172937 1.22668e-20)
(0.0689568 0.189086 -2.45224e-20)
(0.0730706 0.205303 0)
(0.077207 0.22152 1.24096e-20)
(0.0813474 0.237671 -2.48303e-20)
(0.0854728 0.25369 1.24159e-20)
(0.089564 0.26951 -1.25426e-20)
(0.0936022 0.285067 -1.26489e-20)
(0.097569 0.300297 -1.2849e-20)
(0.101447 0.315139 5.08944e-20)
(0.10522 0.329537 -3.82748e-20)
(0.108874 0.343435 -2.59004e-20)
(0.112394 0.356781 2.57521e-20)
(0.115773 0.369521 0)
(0.119009 0.3816 2.64109e-20)
(0.122121 0.392951 -2.62456e-20)
(0.12499 0.403466 -1.33358e-20)
(0.127364 0.41295 0)
(0.00198615 -0.00822773 3.90116e-20)
(0.00511745 -0.0194666 1.75566e-20)
(0.00777252 -0.0263027 -2.0533e-20)
(0.00999127 -0.0296676 1.8373e-20)
(0.0119359 -0.0302222 -2.68392e-21)
(0.0137132 -0.0284605 5.45373e-21)
(0.015415 -0.0247625 0)
(0.0171141 -0.0194253 -5.62144e-21)
(0.0188652 -0.0126818 5.68692e-21)
(0.020709 -0.00471666 5.74957e-21)
(0.0226738 0.00432257 -5.79986e-21)
(0.0247782 0.0143159 -5.84854e-21)
(0.0270332 0.0251636 5.88523e-21)
(0.0294439 0.0367806 0)
(0.0320107 0.0490925 0)
(0.0347304 0.0620321 -1.19662e-20)
(0.0375974 0.0755375 1.19944e-20)
(0.0406038 0.0895496 -1.2059e-20)
(0.0437401 0.104011 1.20688e-20)
(0.0469953 0.118865 1.2139e-20)
(0.0503572 0.134053 -2.43104e-20)
(0.0538126 0.149517 2.43809e-20)
(0.0573472 0.165198 6.03748e-23)
(0.0609462 0.181033 -1.22306e-20)
(0.0645944 0.196961 0)
(0.068276 0.212919 1.23898e-20)
(0.0719747 0.228843 9.26143e-23)
(0.0756738 0.244668 -1.23922e-20)
(0.0793566 0.26033 0)
(0.0830063 0.275767 2.52222e-20)
(0.0866067 0.290916 -2.51019e-20)
(0.0901422 0.305718 0)
(0.0935985 0.320115 2.56316e-20)
(0.096962 0.334053 -2.54903e-20)
(0.100221 0.347477 0)
(0.103367 0.360332 0)
(0.106402 0.37256 0)
(0.109344 0.384096 -2.64171e-20)
(0.112061 0.394826 2.62477e-20)
(0.114294 0.404553 3.00825e-20)
(0.0021662 -0.00831491 -1.83762e-20)
(0.00548505 -0.0197103 -2.00589e-20)
(0.0081577 -0.0267259 -2.57394e-21)
(0.0102823 -0.0302995 7.89248e-21)
(0.0120458 -0.031096 -1.07327e-20)
(0.0135768 -0.0296088 1.09241e-20)
(0.0149832 -0.0262152 -1.10963e-20)
(0.0163496 -0.0212086 -1.68877e-20)
(0.0177395 -0.0148181 0)
(0.0192001 -0.00722454 -5.75362e-21)
(0.0207642 0.00142816 5.80395e-21)
(0.0224539 0.0110233 0)
(0.024283 0.0214643 1.17845e-20)
(0.0262581 0.0326687 -1.18455e-20)
(0.0283814 0.0445649 -3.57437e-20)
(0.0306511 0.0570883 -1.56328e-23)
(0.0330629 0.0701794 2.40176e-20)
(0.03561 0.0837819 -1.20373e-20)
(0.038284 0.0978407 0)
(0.0410752 0.112301 0)
(0.043973 0.127109 2.43089e-20)
(0.0469656 0.142207 1.22136e-20)
(0.0500405 0.15754 -1.21935e-20)
(0.0531847 0.173048 -1.2291e-20)
(0.056385 0.188673 2.45909e-20)
(0.0596277 0.204354 -1.22945e-20)
(0.0628985 0.22003 2.48436e-20)
(0.0661829 0.235639 -4.96912e-20)
(0.0694661 0.251119 4.98867e-20)
(0.0727336 0.266409 -5.00966e-20)
(0.075971 0.281449 5.03209e-20)
(0.0791647 0.29618 -5.05594e-20)
(0.0823019 0.310545 2.52723e-20)
(0.0853707 0.324489 2.56781e-20)
(0.0883608 0.337956 2.90779e-22)
(0.091264 0.350892 3.01065e-22)
(0.0940843 0.363236 -2.58117e-20)
(0.0968404 0.374923 2.16398e-22)
(0.0993896 0.385836 -2.61012e-20)
(0.101463 0.39578 0)
(0.00234337 -0.00837812 2.30437e-21)
(0.00584055 -0.0198922 -2.51526e-21)
(0.00851948 -0.02706 7.73112e-21)
(0.0105404 -0.0308224 -1.05364e-20)
(0.0121155 -0.0318469 5.3711e-21)
(0.0133962 -0.0306248 0)
(0.0145065 -0.0275298 0)
(0.0155427 -0.0228505 2.25113e-20)
(0.0165768 -0.0168117 2.85018e-20)
(0.0176622 -0.00958986 -5.75661e-21)
(0.0188363 -0.00132483 2.90573e-20)
(0.0201243 0.00787029 -5.85363e-21)
(0.0215421 0.017902 0)
(0.0230982 0.0286909 0)
(0.0247963 0.040168 2.38271e-20)
(0.0266354 0.0522715 0)
(0.0286124 0.0649443 1.20123e-20)
(0.0307214 0.0781324 -1.2073e-20)
(0.0329549 0.0917831 0)
(0.0353043 0.105844 -2.42549e-20)
(0.03776 0.120264 -1.21303e-20)
(0.0403115 0.134988 -3.65477e-20)
(0.0429477 0.149962 -1.22507e-20)
(0.0456573 0.165132 1.22244e-20)
(0.0484287 0.18044 2.45792e-20)
(0.0512499 0.195828 0)
(0.0541086 0.211239 2.47261e-20)
(0.0569919 0.226611 4.97187e-20)
(0.059887 0.241887 2.01337e-22)
(0.0627813 0.257006 -2.48973e-20)
(0.0656623 0.271911 -2.52235e-20)
(0.0685182 0.286543 2.50964e-20)
(0.0713375 0.300846 2.54629e-20)
(0.0741102 0.314764 -5.09138e-20)
(0.0768271 0.328244 5.11692e-20)
(0.0794811 0.341227 -2.57625e-20)
(0.0820777 0.353656 2.57042e-20)
(0.0846363 0.365462 5.19916e-20)
(0.087003 0.376528 2.60608e-20)
(0.0889006 0.386662 2.94811e-20)
(0.00251585 -0.00841587 -1.84976e-20)
(0.00617938 -0.0200096 1.7647e-20)
(0.00885127 -0.027302 -1.55044e-20)
(0.0107573 -0.0312334 1.58413e-20)
(0.0121361 -0.0324727 2.69122e-20)
(0.0131619 -0.0315071 -2.19118e-20)
(0.013975 -0.0287055 2.78136e-20)
(0.014683 -0.0243512 1.69214e-20)
(0.0153665 -0.0186636 -3.99241e-20)
(0.0160847 -0.0118142 1.15361e-20)
(0.016879 -0.00393857 5.83439e-21)
(0.0177778 0.00485398 1.17216e-20)
(0.0187988 0.0144733 1.18117e-20)
(0.0199522 0.0248433 -2.37445e-20)
(0.0212426 0.0358977 2.38638e-20)
(0.0226702 0.0475772 3.59533e-20)
(0.0242325 0.0598273 -3.60517e-20)
(0.0259243 0.0725962 4.82526e-20)
(0.0277388 0.0858334 2.42074e-20)
(0.0296682 0.0994892 3.64052e-20)
(0.0317037 0.113513 1.21925e-20)
(0.033836 0.127855 2.43825e-20)
(0.0360551 0.142463 -2.44595e-20)
(0.0383509 0.157283 0)
(0.0407133 0.172262 -7.38169e-20)
(0.0431319 0.187344 4.93045e-20)
(0.0455956 0.202473 -2.45608e-20)
(0.0480934 0.217592 -2.46275e-20)
(0.0506141 0.232643 8.91257e-23)
(0.0531467 0.24757 0)
(0.0556807 0.262315 0)
(0.0582056 0.276822 2.51528e-20)
(0.0607116 0.291036 -2.54023e-20)
(0.0631901 0.304901 2.52622e-20)
(0.0656332 0.318363 -2.56437e-20)
(0.0680348 0.331364 -2.57745e-20)
(0.0704018 0.343846 0)
(0.0727542 0.355742 -2.57516e-20)
(0.0749274 0.366933 -2.57745e-20)
(0.0766367 0.37723 -8.85703e-20)
(0.00268169 -0.00842664 1.84954e-20)
(0.00649681 -0.0200595 -1.76464e-20)
(0.0091465 -0.0274489 2.06644e-20)
(0.0109255 -0.0315301 -3.69836e-20)
(0.0120991 -0.0329714 -2.69196e-20)
(0.0128651 -0.0322546 2.19118e-20)
(0.0133795 -0.0297421 -4.45302e-20)
(0.0137615 -0.0257109 -2.25565e-20)
(0.0140995 -0.0203745 2.85348e-20)
(0.0144582 -0.013899 -5.19131e-20)
(0.0148831 -0.00641521 -3.49091e-20)
(0.015405 0.00197172 -1.17439e-20)
(0.0160436 0.0111753 -3.54197e-20)
(0.0168101 0.0211225 3.56185e-20)
(0.0177103 0.0317501 -2.38639e-20)
(0.0187451 0.0430014 -2.39672e-20)
(0.0199124 0.0548242 0)
(0.0212075 0.067169 -2.41362e-20)
(0.0226242 0.0799874 -3.63325e-20)
(0.0241552 0.093232 1.21265e-20)
(0.0257926 0.106855 -2.43366e-20)
(0.0275276 0.120807 0)
(0.0293513 0.135039 2.44597e-20)
(0.0312547 0.1495 2.45924e-20)
(0.0332288 0.164139 -2.45443e-20)
(0.0352644 0.178902 0)
(0.0373517 0.193735 0)
(0.039481 0.208584 0)
(0.0416427 0.223394 -2.63395e-24)
(0.0438275 0.238109 0)
(0.0460261 0.252673 -5.01934e-20)
(0.0482297 0.267033 -1.25797e-22)
(0.0504298 0.281132 -5.05805e-20)
(0.052619 0.294918 5.0684e-20)
(0.0547909 0.308335 -2.53206e-20)
(0.0569401 0.321326 2.55948e-20)
(0.0590749 0.333833 0)
(0.0612154 0.345792 5.17725e-20)
(0.0631873 0.357081 -2.57657e-20)
(0.0646983 0.367515 0)
(0.00283883 -0.00840908 2.31992e-21)
(0.00678796 -0.0200397 0)
(0.00939858 -0.0274982 -2.59135e-20)
(0.0110372 -0.0317104 3.17325e-20)
(0.0119964 -0.0333417 1.61981e-20)
(0.0124974 -0.0328663 -2.19657e-20)
(0.012712 -0.0306392 2.22777e-20)
(0.0127702 -0.02693 -2.2606e-20)
(0.012768 -0.0219456 0)
(0.0127753 -0.0158458 2.30844e-20)
(0.0128411 -0.00875668 -2.33163e-20)
(0.0129985 -0.000778798 -2.56789e-23)
(0.0132689 0.0080051 0)
(0.0136644 0.0175255 2.3795e-20)
(0.0141917 0.0277219 -1.19583e-20)
(0.0148521 0.0385404 2.40348e-20)
(0.0156438 0.0499312 1.20719e-20)
(0.0165625 0.0618469 -2.41916e-20)
(0.0176024 0.0742413 0)
(0.0187565 0.0870688 3.65059e-20)
(0.0200175 0.100284 1.22242e-20)
(0.0213774 0.113839 0)
(0.0228277 0.127688 0)
(0.0243603 0.141781 0)
(0.0259673 0.15607 2.46024e-20)
(0.0276403 0.170503 0)
(0.0293707 0.185028 -2.48203e-20)
(0.03115 0.199593 4.962e-20)
(0.0329699 0.214145 -4.96677e-20)
(0.0348223 0.22863 0)
(0.0366994 0.242995 2.50398e-20)
(0.0385935 0.257185 -2.51193e-20)
(0.0404975 0.271149 2.52234e-20)
(0.0424053 0.284831 0)
(0.0443113 0.298178 0)
(0.0462111 0.311134 2.564e-20)
(0.0481139 0.32364 -2.54836e-20)
(0.05004 0.335636 5.17094e-20)
(0.0518057 0.346999 -5.13778e-20)
(0.0531111 0.357547 0)
(0.00298514 -0.00836195 1.62987e-20)
(0.00704791 -0.0199479 5.06624e-21)
(0.00960103 -0.0274478 2.07338e-20)
(0.0110853 -0.0317726 2.12135e-20)
(0.0118206 -0.0335823 -2.15915e-20)
(0.0120516 -0.0333418 2.19657e-20)
(0.0119653 -0.031397 2.23307e-20)
(0.0117023 -0.0280091 2.26061e-20)
(0.0113656 -0.0233777 0)
(0.0110299 -0.017656 2.31361e-20)
(0.0107473 -0.0109646 2.33164e-20)
(0.0105529 -0.00339951 2.34979e-20)
(0.0104694 0.00496065 0)
(0.0105099 0.0140498 2.99052e-23)
(0.0106815 0.0238106 2.39153e-20)
(0.0109858 0.0341917 -1.19936e-20)
(0.0114212 0.0451455 -1.20207e-20)
(0.0119837 0.056627 3.63092e-20)
(0.0126675 0.068592 2.93199e-23)
(0.0134661 0.080997 -1.21199e-20)
(0.0143725 0.0937979 -2.43935e-20)
(0.0153791 0.10695 0)
(0.016478 0.120408 0)
(0.0176618 0.134126 0)
(0.0189233 0.148055 0)
(0.0202548 0.162147 0)
(0.0216487 0.176353 0)
(0.0230975 0.190621 2.49136e-20)
(0.0245939 0.204901 -2.48099e-20)
(0.0261311 0.21914 0)
(0.0277023 0.233288 0)
(0.0293009 0.247291 2.51196e-20)
(0.030921 0.261098 0)
(0.0325575 0.274656 2.54066e-20)
(0.0342057 0.287911 -2.52611e-20)
(0.0358616 0.300807 0)
(0.0375354 0.31329 5.14021e-20)
(0.0392471 0.3253 -5.10802e-20)
(0.0408043 0.336715 0)
(0.0418995 0.347354 0)
(0.00311839 -0.00828416 -1.86239e-20)
(0.00727168 -0.0197825 -5.07544e-21)
(0.00974747 -0.0272961 5.19708e-21)
(0.0110628 -0.0317156 -2.12135e-20)
(0.0115647 -0.0336928 0)
(0.011521 -0.033681 0)
(0.0111334 -0.0320158 -1.67441e-20)
(0.0105524 -0.028949 -5.66089e-21)
(0.00988753 -0.0246718 -1.14577e-20)
(0.00921776 -0.0193307 -1.15622e-20)
(0.00859782 -0.0130404 -1.16811e-20)
(0.00806466 -0.00589192 1.17683e-20)
(0.00764201 0.00204031 1.18627e-20)
(0.00734365 0.0106938 -1.1909e-20)
(0.00717676 0.0200143 0)
(0.00714332 0.0299531 0)
(0.00724178 0.0404652 -2.41453e-20)
(0.007468 0.0515074 0)
(0.00781646 0.0630377 0)
(0.00828083 0.0750145 2.44727e-20)
(0.00885427 0.0873955 8.16905e-23)
(0.00952946 0.100138 6.89877e-23)
(0.0102991 0.113199 -2.4627e-20)
(0.0111562 0.126532 2.45741e-20)
(0.012094 0.140094 2.47106e-20)
(0.0131056 0.153836 -2.47671e-20)
(0.014184 0.167712 0)
(0.0153226 0.181671 2.49448e-20)
(0.0165151 0.195666 1.7199e-22)
(0.0177556 0.209646 -2.49011e-20)
(0.019038 0.223561 0)
(0.0203569 0.23736 0)
(0.0217072 0.250992 2.53166e-20)
(0.0230847 0.264406 -2.5177e-20)
(0.0244853 0.277549 -2.54878e-20)
(0.0259054 0.290366 2.53369e-20)
(0.0273556 0.302804 0)
(0.0288553 0.314808 0)
(0.0302044 0.326254 0)
(0.0310873 0.336965 -2.92637e-20)
(0.00323631 -0.00817481 2.3381e-20)
(0.00745427 -0.0195419 -1.01724e-20)
(0.00983173 -0.0270419 5.20649e-21)
(0.0109632 -0.0315387 0)
(0.0112225 -0.0336729 2.70991e-20)
(0.0108999 -0.0338842 5.51354e-25)
(0.0102113 -0.0324962 2.23873e-20)
(0.00931621 -0.0297503 -1.70056e-20)
(0.00833027 -0.0258289 2.29418e-20)
(0.00733605 -0.020871 -1.15884e-20)
(0.00639063 -0.0149851 0)
(0.00553231 -0.00825705 1.17896e-20)
(0.00478563 -0.000756916 -3.55813e-20)
(0.00416482 0.0074565 0)
(0.00367707 0.0163321 3.60269e-20)
(0.00332438 0.025824 -2.41119e-20)
(0.00310515 0.0358893 -2.42066e-20)
(0.0030152 0.0464872 1.21331e-20)
(0.003049 0.0575777 0)
(0.00320029 0.0691208 -2.44143e-20)
(0.00346237 0.0810762 -2.45476e-20)
(0.00382813 0.093403 -1.91185e-23)
(0.0042906 0.106059 2.4653e-20)
(0.00484319 0.119002 2.47403e-20)
(0.00547947 0.132188 -4.93865e-20)
(0.00619298 0.145572 2.47674e-20)
(0.00697744 0.159107 0)
(0.00782696 0.172748 -2.49342e-20)
(0.00873596 0.186446 2.49922e-20)
(0.00969908 0.200154 2.50519e-20)
(0.0107112 0.213822 -2.51137e-20)
(0.0117676 0.227401 2.51781e-20)
(0.012864 0.240842 0)
(0.0139967 0.254095 2.54109e-20)
(0.015162 0.267108 5.11016e-20)
(0.0163564 0.279827 -5.06784e-20)
(0.0175906 0.292202 5.13088e-20)
(0.018883 0.304181 4.71016e-22)
(0.0200266 0.31564 -2.54555e-20)
(0.0206971 0.326405 5.85967e-20)
(0.00333658 -0.00803319 -1.40308e-20)
(0.00759078 -0.0192255 -3.05918e-20)
(0.0098479 -0.0266848 2.08784e-20)
(0.0107804 -0.0312418 -1.59866e-20)
(0.0107884 -0.0335231 -5.39357e-21)
(0.0101836 -0.0339521 5.51663e-21)
(0.00919508 -0.0328392 -1.11854e-20)
(0.00799091 -0.0304142 -1.13501e-20)
(0.00669187 -0.02685 1.14868e-20)
(0.00538374 -0.0222778 -2.32101e-20)
(0.00412542 -0.0167994 -4.69019e-24)
(0.00295623 -0.0104954 1.18004e-20)
(0.00190124 -0.00343132 0)
(0.000974857 0.00433785 -1.19632e-20)
(0.000184167 0.0127642 -1.20065e-20)
(-0.000469042 0.0218046 2.41297e-20)
(-0.000986473 0.0314185 0)
(-0.00137244 0.0415672 0)
(-0.00163256 0.0522127 2.44539e-20)
(-0.00177313 0.0633169 -2.44571e-20)
(-0.00180081 0.0748411 0)
(-0.00172253 0.086746 2.4673e-20)
(-0.00154507 0.0989916 -2.4548e-20)
(-0.00127475 0.111537 -4.94848e-20)
(-0.000917734 0.124339 -1.25869e-22)
(-0.000480079 0.137356 2.48217e-20)
(3.24396e-05 0.150543 -4.97761e-20)
(0.000614484 0.163855 2.49345e-20)
(0.00126102 0.177245 -2.49925e-20)
(0.00196726 0.190669 1.1458e-22)
(0.00272867 0.204077 6.72329e-23)
(0.00354111 0.217424 -2.51784e-20)
(0.00440084 0.23066 -2.52876e-20)
(0.00530454 0.243736 -2.53514e-20)
(0.00624851 0.256603 2.96025e-23)
(0.0072292 0.269208 0)
(0.00825682 0.281503 -2.55515e-20)
(0.00934871 0.293441 5.14453e-20)
(0.0102914 0.304899 -7.67887e-20)
(0.0107516 0.315701 5.29237e-22)
(0.00341689 -0.00785883 -4.694e-21)
(0.00767643 -0.0188328 4.08371e-20)
(0.0097904 -0.0262249 -2.08759e-20)
(0.0105092 -0.0308256 1.59807e-20)
(0.0102576 -0.0332442 -4.34558e-20)
(0.00936815 -0.033886 5.52426e-21)
(0.00808202 -0.0330459 -2.24442e-20)
(0.00657484 -0.0309418 0)
(0.00497184 -0.027736 0)
(0.00336131 -0.0235516 -2.32576e-20)
(0.00180361 -0.0184837 1.17303e-20)
(0.000338682 -0.012607 1.76467e-23)
(-0.00100824 -0.00598246 1.18996e-20)
(-0.00222274 0.00133865 0)
(-0.00329799 0.00931176 -3.6156e-20)
(-0.00423259 0.0178964 1.20894e-20)
(-0.00502846 0.0270544 -2.43264e-20)
(-0.00569008 0.0367494 0)
(-0.00622327 0.0469451 0)
(-0.0066344 0.0576052 8.66993e-24)
(-0.00693016 0.0686928 -2.45811e-20)
(-0.0071174 0.0801702 2.47238e-20)
(-0.00720273 0.091999 -2.48053e-20)
(-0.00719233 0.10414 2.4752e-20)
(-0.00709215 0.116552 2.70847e-23)
(-0.00690794 0.129195 3.1591e-23)
(-0.00664508 0.142024 2.49407e-20)
(-0.00630848 0.154998 -2.50678e-20)
(-0.00590274 0.168071 0)
(-0.00543226 0.181199 -2.52275e-20)
(-0.00490111 0.194337 2.51072e-20)
(-0.00431303 0.207438 0)
(-0.00367146 0.220455 2.5288e-20)
(-0.00297961 0.233342 -2.56035e-20)
(-0.00224138 0.246048 2.52464e-20)
(-0.00146085 0.258525 0)
(-0.000628618 0.270726 7.69039e-20)
(0.000271105 0.282609 -5.10305e-20)
(0.00101937 0.294051 0)
(0.00127306 0.304877 2.93691e-20)
(0.00347495 -0.00765152 3.76805e-20)
(0.00770663 -0.0183642 -2.04377e-20)
(0.00965406 -0.0256629 -5.23017e-21)
(0.0101445 -0.0302914 5.3423e-21)
(0.00962606 -0.0328379 2.1744e-20)
(0.00845077 -0.0336873 0)
(0.00687058 -0.033118 2.24443e-20)
(0.00506772 -0.0313343 3.41691e-20)
(0.0031711 -0.0284879 1.15144e-20)
(0.00127086 -0.0246931 1.16179e-20)
(-0.000571672 -0.0200377 1.17418e-20)
(-0.00231631 -0.014591 -3.55057e-20)
(-0.00393797 -0.00840913 1.1919e-20)
(-0.00542244 -0.00153935 4.80383e-20)
(-0.00676334 0.00597696 1.20315e-20)
(-0.00795972 0.0141021 1.21134e-20)
(-0.00901387 0.0228004 2.43267e-20)
(-0.00993051 0.0320373 0)
(-0.0107157 0.0417788 0)
(-0.0113759 0.05199 4.92459e-20)
(-0.011918 0.0626359 -9.88449e-20)
(-0.0123487 0.0736805 -1.21502e-23)
(-0.0126745 0.0850868 0)
(-0.0129016 0.0968171 0)
(-0.0130357 0.108832 2.49033e-20)
(-0.0130824 0.121093 0)
(-0.0130467 0.133557 0)
(-0.0129331 0.146184 -2.52323e-20)
(-0.0127461 0.158931 -5.04069e-20)
(-0.0124897 0.171754 0)
(-0.0121676 0.18461 -5.06172e-20)
(-0.0117834 0.197454 -1.01554e-19)
(-0.0113405 0.210241 5.0563e-20)
(-0.0108422 0.222925 -5.09367e-20)
(-0.0102929 0.235459 5.11854e-20)
(-0.0096976 0.247795 -5.08824e-20)
(-0.00904813 0.25989 -5.12604e-20)