/*--------------------------------*- C++ -*----------------------------------*\
  =========                 |
  \\      /  F ield         | OpenFOAM: The Open Source CFD Toolbox
   \\    /   O peration     | Website:  https://openfoam.org
    \\  /    A nd           | Version:  7
     \\/     M anipulation  |
\*---------------------------------------------------------------------------*/
FoamFile
{
    version     2.0;
    format      ascii;
    class       surfaceScalarField;
    location    "70";
    object      phi;
}
// * * * * * * * * * * * * * * * * * * * * * * * * * * * * * * * * * * * * * //

dimensions      [0 3 -1 0 0 0 0];

internalField   nonuniform List<scalar> 
3880
(
-2.25885e-05
-0.000694273
0.000716861
-1.29372e-05
-0.00153918
0.00152953
5.06957e-05
-0.00195003
0.00188639
0.000183006
-0.00200178
0.00186947
0.000397177
-0.00173928
0.00152511
0.000705483
-0.0011913
0.000882997
0.0011173
-0.00037947
-3.23471e-05
0.00163601
0.000674428
-0.00119313
0.0022559
0.00194298
-0.00256287
0.00338968
0.00295911
-0.00409289
-1.70377e-05
-0.000677235
4.84973e-06
-0.00156107
8.21337e-05
-0.00202731
0.000226453
-0.0021461
0.000449827
-0.00196266
0.000765568
-0.00150704
0.00118607
-0.000799974
0.00171909
0.000141409
0.00236351
0.00129856
0.00264852
0.00310467
-5.83447e-06
-0.000671401
3.79973e-05
-0.0016049
0.000141315
-0.00213063
0.000310406
-0.00231519
0.000554311
-0.00220656
0.000885546
-0.00183828
0.00131809
-0.00123251
0.00186348
-0.000403982
0.00252577
0.00063627
0.00187903
0.00329525
1.11538e-05
-0.000682555
8.75087e-05
-0.00168125
0.000229971
-0.00227309
0.000438278
-0.0025235
0.000716819
-0.0024851
0.00107549
-0.00219695
0.00152808
-0.0016851
0.00208868
-0.000964589
0.00276628
-4.13236e-05
0.00108753
0.00355778
3.35746e-05
-0.000716129
0.000152655
-0.00180033
0.000347146
-0.00246758
0.000609365
-0.00278572
0.000938026
-0.00281377
0.00133899
-0.00259791
0.00182417
-0.00217029
0.00240853
-0.00154895
0.00310553
-0.000738315
0.000274315
0.00391874
6.10691e-05
-0.000777198
0.00023121
-0.00197048
0.000488498
-0.00272487
0.000817323
-0.00311454
0.00121033
-0.00320677
0.00166863
-0.00305621
0.00220105
-0.00270271
0.00282201
-0.00216992
0.00354765
-0.00146396
-0.0005668
0.00438877
9.23291e-05
-0.000869527
0.000319147
-0.00219729
0.000646027
-0.00305175
0.00104946
-0.00351798
0.00151626
-0.00367357
0.00204279
-0.00358274
0.00263431
-0.00329422
0.00330365
-0.00283925
0.00406844
-0.00222874
-0.00144336
0.004945
0.000125615
-0.000995143
0.000410838
-0.00248251
0.000808376
-0.00344929
0.00128719
-0.00399679
0.00182893
-0.00421532
0.0024258
-0.0041796
0.00307949
-0.00394792
0.00380073
-0.00356049
0.00460793
-0.00303594
-0.00235696
0.00552152
0.000158815
-0.00115396
0.000499447
-0.00282315
0.000961723
-0.00391156
0.0015077
-0.00454277
0.00211487
-0.00482248
0.00277216
-0.0048369
0.00347802
-0.00465378
0.00424006
-0.00432253
0.00507642
-0.00387229
-0.00329679
0.00601625
0.00018957
-0.00134353
0.000577457
-0.00321103
0.00109104
-0.00442514
0.00168643
-0.00513816
0.00233835
-0.0054744
0.00303403
-0.00553258
0.00376971
-0.00538946
0.00454895
-0.00510177
0.00538376
-0.00470711
0.00632077
-0.00423379
0.00487874
0.025199
-0.0271186
0.00619219
0.0499547
-0.0512682
0.00642072
0.0719361
-0.0721646
0.00601058
0.0917465
-0.0913364
0.00527227
0.112043
-0.111305
0.00431302
0.134202
-0.133243
0.00318704
0.159035
-0.157909
0.00188766
0.189474
-0.188175
0.000703533
0.232499
-0.231315
0.283932
-0.283228
0.00525417
0.0230495
0.00699673
0.0482122
0.00754214
0.0713907
0.00731139
0.0919772
0.00664951
0.112705
0.00567382
0.135178
0.00443751
0.160271
0.00293264
0.190979
0.00134793
0.234084
0.28528
0.00558037
0.0207644
0.00774622
0.0460463
0.00863484
0.0705021
0.00860404
0.092008
0.00802783
0.113281
0.0070386
0.136167
0.00569194
0.161618
0.00397832
0.192693
0.00199523
0.236067
0.287275
0.00585958
0.0184626
0.00841072
0.0434952
0.00966753
0.0692453
0.00986065
0.0918149
0.00938392
0.113758
0.00838949
0.137161
0.00693659
0.163071
0.00501682
0.194612
0.00263618
0.238448
0.289911
0.0061087
0.0162726
0.00896482
0.0406391
0.0106099
0.0676002
0.011054
0.0913708
0.0106948
0.114117
0.00970719
0.138149
0.00815705
0.164621
0.00603614
0.196733
0.00326582
0.241218
0.293177
0.00635205
0.0143094
0.00939255
0.0375986
0.0114345
0.0655582
0.0121576
0.0906477
0.0119368
0.114338
0.0109709
0.139115
0.00933645
0.166256
0.00702481
0.199045
0.0038773
0.244365
0.297054
0.00660766
0.0126467
0.00969135
0.0345149
0.012118
0.0631316
0.0131484
0.0896173
0.013094
0.114393
0.0121699
0.140039
0.0104669
0.167959
0.00797588
0.201536
0.00446813
0.247873
0.301522
0.00686596
0.0113023
0.0098648
0.031516
0.0126424
0.0603539
0.0139982
0.0882616
0.0141322
0.114259
0.0132696
0.140902
0.0115196
0.169709
0.00887237
0.204183
0.00502796
0.251718
0.30655
0.00706751
0.010251
0.00991001
0.0286735
0.012998
0.057266
0.0147194
0.0865402
0.0150849
0.113893
0.0143052
0.141681
0.0125218
0.171492
0.00972409
0.206981
0.00556107
0.255881
0.312111
0.0071733
0.00939847
0.00988447
0.0259624
0.0131472
0.0540032
0.0151933
0.0844941
0.0158232
0.113263
0.015171
0.142333
0.0134257
0.173237
0.0104929
0.209914
0.0060887
0.260285
0.3182
0.0190381
0.0162318
-0.0258715
0.0147259
0.0302745
0.0136821
0.0550471
0.012791
0.0853852
0.0112287
0.114825
0.00912661
0.144436
0.00653626
0.175828
0.00346193
0.212988
0.000734516
0.263012
0.318935
0.0205695
0.0215977
-0.0259354
0.0151941
0.0356499
0.0129832
0.057258
0.0119452
0.0864232
0.0104753
0.116295
0.00849586
0.146415
0.0060314
0.178292
0.0031426
0.215877
0.000626581
0.265528
0.319561
0.0210945
0.0250535
-0.0245503
0.0159757
0.0407687
0.0128311
0.0604026
0.0112997
0.0879546
0.00972161
0.117873
0.00775984
0.148377
0.00542739
0.180624
0.00274459
0.21856
0.000489436
0.267783
0.320051
0.0205595
0.0269977
-0.0225037
0.0163035
0.0450247
0.0127777
0.0639284
0.0108615
0.0898708
0.00926971
0.119465
0.00742656
0.15022
0.00517953
0.182871
0.0026274
0.221112
0.00048532
0.269926
0.320536
0.0194424
0.0277511
-0.0201958
0.0161921
0.048275
0.0127814
0.0673391
0.0105656
0.0920866
0.00875939
0.121271
0.00688616
0.152093
0.00475823
0.184999
0.00237646
0.223493
0.000402425
0.2719
0.320938
0.0178508
0.027416
-0.0175157
0.0156026
0.0505232
0.0124682
0.0704735
0.0103209
0.0942339
0.00866375
0.122929
0.00685047
0.153906
0.00471899
0.187131
0.00238898
0.225823
0.00045987
0.273829
0.321398
0.0159869
0.0260058
-0.0145767
0.0149619
0.0515482
0.0122992
0.0731362
0.00994985
0.0965832
0.00816417
0.124714
0.00642152
0.155649
0.00443866
0.189114
0.00223176
0.22803
0.000417298
0.275643
0.321816
0.0137062
0.0237235
-0.0114239
0.0137325
0.051522
0.0119317
0.074937
0.0100193
0.0984956
0.00835065
0.126383
0.00656812
0.157432
0.00452005
0.191162
0.0023323
0.230218
0.000520712
0.277455
0.322336
0.0120954
0.0204442
-0.00881612
0.0131972
0.0504201
0.0117846
0.0763496
0.00969807
0.100582
0.00795539
0.128126
0.00628249
0.159105
0.00434695
0.193097
0.00224374
0.232321
0.000497123
0.279201
0.322833
0.00925268
-0.00526524
0.0119532
0.0120835
0.0105061
0.00860436
0.00665526
0.00461097
0.00240222
0.00065458
0.00715922
-0.0266163
-0.00641437
0.00713538
-0.0259115
0.0066414
-0.0240563
0.00593821
-0.0218005
0.00510012
-0.0193577
0.00415397
-0.0165695
0.00311766
-0.0135404
0.00206315
-0.0103694
0.000822578
-0.00757555
-0.0042558
0.00635032
-0.0268807
-0.00608591
0.00594616
-0.0255074
0.00521417
-0.0233243
0.0043422
-0.0209285
0.00337321
-0.0183887
0.00232824
-0.0155246
0.00122446
-0.0124366
0.000139664
-0.00928459
-0.00109204
-0.00634385
-0.0033123
0.00528118
-0.026728
-0.00543393
0.00456047
-0.0247867
0.00364041
-0.0224042
0.00262951
-0.0199176
0.00155634
-0.0173155
0.000440534
-0.0144088
-0.00069407
-0.011302
-0.00179337
-0.00818528
-0.00291983
-0.00521739
-0.00246578
0.0039436
-0.0262273
-0.00444426
0.00298025
-0.0238233
0.00192245
-0.0213464
0.000812117
-0.0188073
-0.000327815
-0.0161756
-0.00147256
-0.013264
-0.00259867
-0.0101759
-0.00365979
-0.00712417
-0.00465969
-0.00421749
-0.00175591
0.00236092
-0.0254383
-0.00314994
0.00122592
-0.0226883
7.65544e-05
-0.020197
-0.00108111
-0.0176496
-0.00224129
-0.0150154
-0.00337911
-0.0121262
-0.00445629
-0.00909875
-0.00543462
-0.00614584
-0.00628388
-0.00336823
-0.00119685
0.000591061
-0.0244162
-0.00161311
-0.000650089
-0.0214472
-0.00183365
-0.0190135
-0.00300977
-0.0164735
-0.0041512
-0.013874
-0.00523791
-0.0110395
-0.0062304
-0.00810626
-0.00709286
-0.00528339
-0.00777941
-0.00268167
-0.000787219
-0.00128938
-0.0232311
0.000104275
-0.00258361
-0.020153
-0.00376958
-0.0178275
-0.00491963
-0.0153235
-0.00600636
-0.0127873
-0.00700914
-0.0100367
-0.00789028
-0.00722512
-0.00861665
-0.00455702
-0.00914131
-0.00215701
-0.000515133
-0.00321094
-0.0218947
0.00187449
-0.004508
-0.0188559
-0.00566338
-0.0166721
-0.00675688
-0.01423
-0.00776196
-0.0117822
-0.00865794
-0.00914072
-0.00941236
-0.0064707
-0.00999592
-0.00397345
-0.0103703
-0.00178259
-0.000362082
-0.00509199
-0.0204797
0.00367701
-0.00635779
-0.0175901
-0.00745916
-0.0155708
-0.00847382
-0.0132153
-0.00938019
-0.0108758
-0.0101574
-0.00836352
-0.0107814
-0.00584673
-0.0112275
-0.0035273
-0.0114712
-0.00153889
-0.000306075
-0.00686683
-0.0190355
0.00542265
-0.00807748
-0.0163794
-0.00910991
-0.0145383
-0.0100319
-0.0122933
-0.0108327
-0.0100751
-0.0114898
-0.00770644
-0.01199
-0.00534645
-0.0123137
-0.0032036
-0.0124511
-0.00140156
-0.000323913
-0.008482
-0.0176032
0.00704964
-0.00962282
-0.0152386
-0.0105798
-0.0135814
-0.0114038
-0.0114693
-0.0121015
-0.00937738
-0.0126464
-0.0071615
-0.0130381
-0.00495479
-0.0132607
-0.00298094
-0.0133181
-0.00134417
-0.000392595
-0.00990544
-0.0162142
0.00851649
-0.0109658
-0.0141782
-0.0118472
-0.0127
-0.012575
-0.0107416
-0.0131794
-0.00877297
-0.0136272
-0.00671372
-0.0139306
-0.0046513
-0.0140772
-0.00283442
-0.0140811
-0.00134025
-0.000490029
-0.0111141
-0.014892
0.00979187
-0.0120888
-0.0132035
-0.0129007
-0.0118881
-0.0135404
-0.0101018
-0.0140667
-0.00824663
-0.0144375
-0.00634302
-0.0146764
-0.00441235
-0.014773
-0.00273781
-0.0147488
-0.00136449
-0.000595293
-0.0120993
-0.0136507
0.010858
-0.0129872
-0.0123155
-0.0137394
-0.0111359
-0.0143045
-0.0095367
-0.014771
-0.00778015
-0.0150876
-0.00602643
-0.0152865
-0.00421342
-0.0153591
-0.00266528
-0.0153302
-0.00139334
-0.000688698
-0.0128637
-0.0124935
0.0117066
-0.0136665
-0.0115127
-0.0143711
-0.0104314
-0.0148787
-0.00902912
-0.0153044
-0.00735442
-0.0155909
-0.00573994
-0.0157738
-0.00403057
-0.0158467
-0.00259234
-0.0158348
-0.00140528
-0.00075169
-0.0134187
-0.0114106
0.0123357
-0.0141408
-0.0107906
-0.014809
-0.00976313
-0.0152789
-0.00855924
-0.0156822
-0.0069511
-0.0159623
-0.00545988
-0.0161514
-0.00384141
-0.0162474
-0.00249637
-0.0162721
-0.0013806
-0.000766727
-0.0137796
-0.0103771
0.0127461
-0.0144302
-0.01014
-0.0150698
-0.00912346
-0.0155235
-0.00810557
-0.0159211
-0.0065535
-0.0162171
-0.00516393
-0.0164331
-0.0036254
-0.0165728
-0.00235668
-0.0166521
-0.00130124
-0.000717136
-0.0139535
-0.00936242
0.0129388
-0.014552
-0.00954146
-0.0151681
-0.00850743
-0.015629
-0.0076446
-0.016037
-0.00614551
-0.0163698
-0.0048311
-0.0166317
-0.00336357
-0.0168341
-0.00215424
-0.0169851
-0.00115027
-0.00058695
-0.0139373
-0.00834735
0.0129222
-0.014524
-0.0089547
-0.0151202
-0.00791125
-0.0156121
-0.00715274
-0.0160462
-0.00571134
-0.016435
-0.00444233
-0.0167601
-0.00303849
-0.0170426
-0.00187169
-0.0172812
-0.000911757
-0.000360664
-0.0137872
-0.00730428
0.0127442
-0.0144093
-0.00833267
-0.014965
-0.00735546
-0.0154932
-0.00662454
-0.0159648
-0.00523977
-0.0164226
-0.0039845
-0.0168281
-0.00263298
-0.0172077
-0.00149212
-0.0175521
-0.000567408
-2.45084e-05
-0.0608349
-0.00685364
0.0603842
-0.0625931
-0.00657443
-0.0642952
-0.00565342
-0.066005
-0.00491465
-0.0673803
-0.00386453
-0.0684762
-0.00288855
-0.0691977
-0.0019115
-0.0696106
-0.00107923
-0.0697531
-0.000424907
-3.07803e-05
-0.0713709
-0.00649046
0.0710077
-0.0724038
-0.00554152
-0.0733623
-0.00469487
-0.0744294
-0.0038476
-0.0752817
-0.00301225
-0.0759693
-0.00220089
-0.0764078
-0.00147305
-0.0766474
-0.00083959
-0.0767148
-0.000357538
-3.84868e-05
-0.0835884
-0.00635527
0.0834533
-0.0841012
-0.00502876
-0.0846572
-0.00413885
-0.085295
-0.00320978
-0.0858127
-0.00249464
-0.0862407
-0.00177283
-0.0864982
-0.00121554
-0.0866325
-0.000705311
-0.0866547
-0.000335371
-4.22849e-05
-0.0987529
-0.00629831
0.098696
-0.0990923
-0.00468944
-0.0994305
-0.0038006
-0.0998437
-0.00279662
-0.100162
-0.0021766
-0.100442
-0.00149225
-0.100599
-0.0010591
-0.100691
-0.00061308
-0.1007
-0.000326301
-4.01353e-05
-0.117488
-0.00601854
0.117208
-0.117849
-0.00432784
-0.118155
-0.00349542
-0.118501
-0.00245063
-0.118751
-0.00192569
-0.118987
-0.00125621
-0.119125
-0.000921218
-0.119233
-0.000505669
-0.119271
-0.000288567
-1.96057e-05
-0.138953
-0.00539715
0.138331
-0.139487
-0.0037941
-0.139915
-0.00306661
-0.140303
-0.0020631
-0.140593
-0.00163549
-0.140849
-0.000999884
-0.141026
-0.000744409
-0.141188
-0.000344082
-0.141277
-0.00019914
1.54252e-05
-0.160696
-0.00439538
0.159695
-0.161456
-0.00303403
-0.16208
-0.00244346
-0.16255
-0.00159314
-0.162922
-0.00126305
-0.163209
-0.000713286
-0.163437
-0.000515864
-0.163622
-0.000159247
-0.163739
-8.25421e-05
4.98562e-05
-0.17942
-0.0030671
0.178091
-0.180359
-0.00209492
-0.181122
-0.00168057
-0.181643
-0.00107135
-0.182065
-0.000841065
-0.182345
-0.000434094
-0.18257
-0.000290183
-0.182708
-2.13197e-05
-0.182792
1.03503e-06
5.9263e-05
-0.192521
-0.00158663
0.19104
-0.193562
-0.00105324
-0.194406
-0.000837159
-0.194953
-0.000524658
-0.195381
-0.000412582
-0.195618
-0.000197028
-0.195787
-0.00012126
-0.195832
2.33508e-05
-0.195855
2.46108e-05
3.89373e-05
-0.199224
0.197637
-0.200277
-0.201114
-0.201639
-0.202052
-0.202249
-0.20237
-0.202346
-0.202322
-0.0140261
0.0614596
0.0129507
-0.014677
0.0716586
-0.0151662
0.0839425
-0.0153941
0.0989238
-0.015144
0.116958
-0.0140811
0.137268
-0.0119361
0.15755
-0.00868405
0.174839
-0.0045799
0.186936
0.193057
-0.0132547
0.0621959
0.0125184
-0.0138587
0.0722625
-0.0142874
0.0843713
-0.0144287
0.0990651
-0.014093
0.116622
-0.0129932
0.136169
-0.0109224
0.155479
-0.00789461
0.171812
-0.00414335
0.183185
0.188914
-0.012546
0.0628537
0.0118882
-0.0130843
0.0728009
-0.0134408
0.0847277
-0.013514
0.0991383
-0.0131295
0.116238
-0.0120383
0.135077
-0.010071
0.153511
-0.00725405
0.168995
-0.00379819
0.179729
0.185116
-0.0117366
0.063485
0.0111052
-0.0122154
0.0732798
-0.0124921
0.0850044
-0.0124944
0.0991406
-0.0120683
0.115812
-0.0110012
0.13401
-0.00915793
0.151668
-0.00657265
0.166409
-0.00343346
0.17659
0.181682
-0.0108047
0.064085
0.0102048
-0.0112313
0.0737064
-0.0114385
0.0852116
-0.0113815
0.0990835
-0.0109292
0.11536
-0.00990458
0.132986
-0.00820334
0.149967
-0.00586484
0.164071
-0.00305612
0.173781
0.178626
-0.00977173
0.0646425
0.00921416
-0.0101386
0.0740733
-0.0102812
0.0853542
-0.0101768
0.0989791
-0.00971562
0.114898
-0.00875406
0.132024
-0.00721408
0.148427
-0.00513733
0.161994
-0.00267004
0.171314
0.175956
-0.00865991
0.0651479
0.00815455
-0.00896006
0.0743734
-0.00903812
0.0854323
-0.00889434
0.0988353
-0.00843801
0.114442
-0.00755734
0.131143
-0.00619589
0.147066
-0.00439444
0.160193
-0.00227753
0.169197
0.173679
-0.00748688
0.0655883
0.00704647
-0.00771804
0.0746046
-0.00773232
0.0854466
-0.00755537
0.0986584
-0.00711452
0.114001
-0.00632828
0.130357
-0.00515815
0.145895
-0.00364172
0.158676
-0.00188115
0.167436
0.171798
-0.0062713
0.0659481
0.00591146
-0.00643412
0.0747674
-0.00638596
0.0853984
-0.00618214
0.0984546
-0.00576503
0.113584
-0.00508304
0.129675
-0.00411239
0.144925
-0.00288612
0.15745
-0.00148416
0.166034
0.170313
-0.00503259
0.0662087
0.00477199
-0.00513137
0.0748662
-0.00502013
0.0852872
-0.00479585
0.0982303
-0.00440818
0.113196
-0.00383723
0.129104
-0.00307024
0.144158
-0.00213515
0.156515
-0.00109027
0.164989
0.169223
-0.00380333
0.0663558
0.00365622
-0.00383872
0.0749016
-0.00366202
0.0851105
-0.00342132
0.0979896
-0.00306514
0.11284
-0.00260829
0.128647
-0.00204488
0.143594
-0.00139729
0.155867
-0.000703746
0.164296
0.168519
-0.00261228
0.0663907
0.00257746
-0.00257462
0.0748639
-0.0023396
0.0848755
-0.0020805
0.0977305
-0.00175725
0.112517
-0.00141014
0.1283
-0.00104537
0.14323
-0.000680164
0.155502
-0.000328171
0.163944
0.168191
-0.00149625
0.0663284
0.00155855
-0.00136961
0.0747373
-0.00109123
0.0845971
-0.000810081
0.0974493
-0.000524169
0.112231
-0.00028267
0.128059
-0.000110103
0.143057
-1.65204e-05
0.155409
1.84498e-05
0.163909
0.16821
-0.000489659
0.0662091
0.000608921
-0.000253986
0.0745016
2.03695e-05
0.0843227
0.000380454
0.0970892
0.000655351
0.111956
0.000812051
0.127902
0.000812742
0.143056
0.000654606
0.155567
0.000368585
0.164195
0.168578
0.00045588
0.066024
-0.000270812
0.000813623
0.0741438
0.00118503
0.0839513
0.00153356
0.0967407
0.00177968
0.11171
0.0018435
0.127838
0.00167473
0.143225
0.0012735
0.155968
0.000691379
0.164777
0.16927
0.001356
0.065735
-0.00106693
0.00178893
0.0737109
0.00220152
0.0835387
0.00257478
0.0963674
0.00280284
0.111482
0.00278808
0.127853
0.00246681
0.143546
0.00184288
0.156592
0.000987409
0.165633
0.170257
0.00213749
0.0653919
-0.00179444
0.00265662
0.0731918
0.0031087
0.0830867
0.00350837
0.0959678
0.00372697
0.111263
0.00364806
0.127932
0.00319239
0.144002
0.00236599
0.157418
0.00125876
0.16674
0.171516
0.00281464
0.0650386
-0.00246137
0.00341209
0.0725943
0.00389629
0.0826025
0.00431611
0.0955479
0.00452646
0.111053
0.00439397
0.128064
0.00382339
0.144573
0.0028211
0.158421
0.0014931
0.168068
0.173009
0.00342914
0.0647036
-0.00309412
0.00409175
0.0719317
0.00460819
0.082086
0.00504853
0.0951076
0.00525788
0.110844
0.00508243
0.12824
0.00440823
0.145247
0.00324239
0.159586
0.0017089
0.169601
0.174718
0.00382368
0.0645809
-0.00370095
0.00450786
0.0712475
0.00505635
0.0815375
0.00550772
0.0946562
0.00571726
0.110634
0.00552098
0.128436
0.00478679
0.145981
0.00351661
0.160857
0.00184412
0.171274
0.176562
-0.0447334
0.0591154
0.0501989
-0.0403
0.0668141
-0.0373403
0.0785778
-0.0343004
0.0916163
-0.0308468
0.10718
-0.0265318
0.124121
-0.0211163
0.140566
-0.0146769
0.154417
-0.00750456
0.164101
0.169057
-0.0543174
0.0546047
0.0588281
-0.0504226
0.0629194
-0.0468549
0.0750101
-0.04286
0.0876214
-0.0383996
0.10272
-0.032867
0.118589
-0.0260672
0.133766
-0.0181108
0.146461
-0.0093274
0.155318
0.15973
-0.0654887
0.0501546
0.0699389
-0.0614769
0.0589076
-0.0571165
0.0706497
-0.0521739
0.0826787
-0.0465095
0.0970557
-0.0394571
0.111536
-0.0310337
0.125342
-0.0213769
0.136804
-0.0108285
0.14477
0.148901
-0.0790275
0.0459697
0.0832124
-0.0743916
0.0542716
-0.0691293
0.0653875
-0.0631498
0.0766992
-0.0560435
0.0899494
-0.0472213
0.102714
-0.0369439
0.115065
-0.0253929
0.125253
-0.0130133
0.13239
0.135888
-0.0940783
0.0410242
0.0990238
-0.0886139
0.0488072
-0.0822577
0.0590312
-0.0747174
0.0691589
-0.0655525
0.0807845
-0.054544
0.0917055
-0.0421437
0.102665
-0.0284853
0.111595
-0.014163
0.118068
0.121725
-0.111741
0.0359802
0.116785
-0.10508
0.0421463
-0.0973083
0.0512593
-0.0878032
0.0596539
-0.0764684
0.0694496
-0.0633515
0.0785887
-0.0487326
0.0880456
-0.0328898
0.0957519
-0.0167294
0.101907
0.104996
-0.128813
0.0291248
0.135669
-0.120756
0.0340887
-0.111072
0.0415758
-0.0991258
0.0477075
-0.0853338
0.0556576
-0.0695607
0.0628155
-0.0520742
0.0705591
-0.0334627
0.0771404
-0.0152936
0.0837382
0.089702
-0.14713
0.0221818
0.154073
-0.137717
0.0246756
-0.126307
0.0301654
-0.112688
0.0340887
-0.0971821
0.0401517
-0.0794132
0.0450466
-0.0600252
0.0511711
-0.0398337
0.0569489
-0.0209654
0.0648699
0.0687366
-0.161334
0.0106685
0.172847
-0.148925
0.0122659
-0.133907
0.0151481
-0.116949
0.0171309
-0.0972964
0.0204986
-0.0753915
0.0231417
-0.0511843
0.0269639
-0.0254894
0.0312541
-0.000853467
0.0402339
0.0678832
-0.25452
0.265189
-0.242254
-0.227106
-0.209975
-0.189477
-0.166335
-0.139371
-0.108117
-0.0678832
0.0016625
0.05194
-0.00340367
3.39237e-05
0.0604566
-0.000992625
0.0709654
-0.00182431
0.084044
-0.00234928
0.0995488
-0.00254224
0.116978
-0.0023093
0.135436
-0.00177908
0.153543
-0.00203394
0.173102
0.263155
0.00206416
0.0536505
-0.00377466
0.000549453
0.0619713
-0.000615613
0.0721305
-0.00148846
0.0849169
-0.00206378
0.100124
-0.00228995
0.117204
-0.00213821
0.135284
-0.00165074
0.153056
-0.0018179
0.173269
0.261337
0.0025511
0.055251
-0.00415158
0.00109163
0.0634308
-9.14363e-05
0.0733136
-0.000950416
0.0857759
-0.00155065
0.100724
-0.00181948
0.117473
-0.00175828
0.135223
-0.00137136
0.152669
-0.00160466
0.173503
0.259732
0.00303103
0.0567525
-0.00453254
0.00162669
0.0648351
0.000499164
0.0744411
-0.000373898
0.0866489
-0.000950445
0.101301
-0.00126526
0.117788
-0.00126894
0.135227
-0.00102394
0.152424
-0.00132743
0.173806
0.258405
0.00349958
0.0581601
-0.00490717
0.00217015
0.0661646
0.00110744
0.0755038
0.000246847
0.0875095
-0.000317596
0.101865
-0.000665766
0.118136
-0.000722029
0.135283
-0.000625146
0.152327
-0.00100281
0.174184
0.257402
0.00397907
0.0594458
-0.00526474
0.00274876
0.0673949
0.0017575
0.0764951
0.000967337
0.0882997
0.000393325
0.102439
-3.22575e-05
0.118562
-0.000101262
0.135352
-0.000185745
0.152411
-0.000637913
0.174636
0.256764
0.00446932
0.0605742
-0.0055977
0.00336132
0.0685029
0.00245187
0.0774045
0.00172389
0.0890277
0.00117293
0.10299
0.000765565
0.118969
0.000552488
0.135565
0.0003519
0.152612
-0.000231253
0.175219
0.256533
0.004962
0.0615114
-0.00589919
0.00399622
0.0694687
0.0031795
0.0782213
0.00251996
0.0896872
0.00199439
0.103516
0.00157469
0.119389
0.00126464
0.135875
0.000938957
0.152938
0.000194069
0.175964
0.256727
0.00545109
0.0622212
-0.00616094
0.00464136
0.0702784
0.00392766
0.078935
0.00334495
0.0902699
0.00285178
0.104009
0.00241736
0.119823
0.00201871
0.136274
0.00154787
0.153408
0.000629661
0.176882
0.257357
0.00592483
0.062669
-0.00637258
0.00528401
0.0709192
0.00468413
0.0795348
0.00418601
0.090768
0.0037348
0.10446
0.0032865
0.120271
0.00280077
0.136759
0.00218092
0.154028
0.0010918
0.177971
0.258449
0.00636309
0.0628246
-0.00651877
0.00590531
0.071377
0.00543184
0.0800083
0.00502444
0.0911754
0.0046229
0.104862
0.0041655
0.120729
0.00359657
0.137328
0.00282949
0.154795
0.00156709
0.179234
0.260016
0.00675756
0.0626675
-0.0066004
0.00649751
0.071637
0.00616155
0.0803443
0.00585182
0.0914852
0.00550691
0.105207
0.00504711
0.121189
0.00440047
0.137975
0.00348936
0.155706
0.00205134
0.180672
0.262067
0.00708808
0.0621901
-0.00661073
0.00703931
0.0716858
0.00684986
0.0805337
0.00664493
0.0916901
0.00636431
0.105487
0.00591174
0.121641
0.00519614
0.13869
0.00414839
0.156754
0.00253714
0.182283
0.264604
0.00734191
0.0613995
-0.0065513
0.00751552
0.0715122
0.00747931
0.0805699
0.00738477
0.0917846
0.0071768
0.105695
0.00674253
0.122075
0.0059693
0.139464
0.00479593
0.157928
0.00301716
0.184062
0.267621
0.00750781
0.0603206
-0.00642887
0.00791233
0.0711077
0.00803326
0.080449
0.00805339
0.0917645
0.0079277
0.105821
0.00752362
0.12248
0.00670766
0.14028
0.00542302
0.159212
0.00348613
0.185999
0.271107
0.00757829
0.0589997
-0.00625745
0.00821806
0.0704679
0.008496
0.0801711
0.0086339
0.0916266
0.00859894
0.105856
0.00823658
0.122842
0.00739535
0.141121
0.00601702
0.160591
0.00393408
0.188082
0.275042
0.00755607
0.0575029
-0.00605925
0.00842586
0.0695981
0.00885837
0.0797385
0.00911607
0.0913689
0.00917941
0.105793
0.00887382
0.123147
0.00802805
0.141967
0.00657496
0.162044
0.00435893
0.190298
0.2794
0.00745359
0.0559113
-0.00586192
0.00852984
0.0685219
0.00910754
0.0791608
0.00947941
0.090997
0.00964183
0.10563
0.00940312
0.123386
0.0085733
0.142796
0.00707428
0.163543
0.0047436
0.192628
0.284144
0.00729575
0.0542988
-0.00568332
0.00855861
0.067259
0.00927967
0.0784398
0.00976451
0.0905122
0.0100299
0.105365
0.00986905
0.123547
0.00906792
0.143598
0.00753858
0.165072
0.00509861
0.195068
0.289243
0.00700985
0.0527343
-0.00544534
0.00832502
0.0659438
0.00919462
0.0775702
0.00978651
0.0899203
0.0101621
0.104989
0.0100971
0.123612
0.00937819
0.144317
0.0078595
0.166591
0.0054046
0.197523
0.294647
-0.0266245
0.0506374
0.0287214
-0.0229591
0.0622784
-0.0193136
0.0739247
-0.0155726
0.0861794
-0.011868
0.101285
-0.00797129
0.119715
-0.00391093
0.140256
-0.000469621
0.163149
0.00049868
0.196555
0.295146
-0.0414259
0.0473874
0.0446759
-0.0372288
0.0580813
-0.0323508
0.0690466
-0.0271212
0.0809498
-0.0217366
0.0959
-0.0158545
0.113833
-0.00958213
0.133984
-0.00387798
0.157445
-0.00129809
0.193975
0.293848
-0.0574995
0.04354
0.061347
-0.0523215
0.0529032
-0.0461878
0.0629129
-0.0396027
0.0743647
-0.0325818
0.0888791
-0.0245634
0.105815
-0.015904
0.125325
-0.00781106
0.149352
-0.00288005
0.189044
0.290968
-0.0752063
0.0391159
0.0796304
-0.0687866
0.0464836
-0.0616071
0.0557334
-0.0537361
0.0664938
-0.0448168
0.0799598
-0.034376
0.095374
-0.0231201
0.114069
-0.0124202
0.138652
-0.00489217
0.181516
0.286076
-0.0949939
0.0334366
0.100673
-0.0877014
0.0391911
-0.0797203
0.0477522
-0.0702297
0.0570032
-0.0590574
0.0687875
-0.0460659
0.0823825
-0.0320654
0.100068
-0.0183368
0.124924
-0.00756415
0.170743
0.278511
-0.117884
0.0275068
0.123814
-0.109616
0.0309234
-0.100325
0.0384606
-0.0888442
0.0455227
-0.0755081
0.0554514
-0.060223
0.0670973
-0.0435658
0.0834109
-0.0267062
0.108064
-0.0121901
0.156227
0.266321
-0.143427
0.0196212
0.151313
-0.13472
0.0222161
-0.12434
0.028081
-0.111583
0.0327648
-0.096968
0.0408369
-0.0798232
0.0499525
-0.0610195
0.0646072
-0.0408834
0.0879282
-0.0207752
0.136119
0.245546
-0.175461
0.0117031
0.183379
-0.165984
0.0127395
-0.15458
0.0166766
-0.141244
0.0194285
-0.125691
0.0252846
-0.107597
0.0318587
-0.0873346
0.0443443
-0.0648408
0.0654344
-0.037981
0.109259
0.207565
-0.228648
0.00392711
0.236424
-0.220495
0.00458687
-0.210166
0.00634766
-0.198697
0.00795901
-0.184561
0.0111486
-0.16808
0.0153779
-0.147233
0.0234972
-0.119145
0.037346
-0.075147
0.0652617
0.132418
-0.303943
0.30787
-0.299356
-0.293009
-0.28505
-0.273901
-0.258523
-0.235026
-0.19768
-0.132418
0.00253938
0.0300465
-0.00386441
0.000440241
0.046775
-0.00141283
0.0632
-0.00301955
0.0812371
-0.00428432
0.101938
-0.00525596
0.124786
-0.00566933
0.151726
-0.00580506
0.183515
-0.0043501
0.234969
0.30352
0.00240235
0.0310091
-0.00336502
0.000632199
0.0485452
-0.00113785
0.0649701
-0.00271748
0.0828167
-0.0039939
0.103214
-0.00495734
0.125749
-0.00541804
0.152187
-0.00556715
0.183664
-0.0042014
0.233603
0.299319
0.00240872
0.0316219
-0.00302145
0.000947725
0.0500062
-0.000673106
0.0665909
-0.00215496
0.0842986
-0.00339059
0.10445
-0.00433403
0.126692
-0.00484776
0.152701
-0.00499824
0.183814
-0.00383959
0.232445
0.295479
0.00250132
0.0319222
-0.00280169
0.0013316
0.0511759
-0.00014445
0.068067
-0.001487
0.0856411
-0.00264958
0.105613
-0.00358246
0.127625
-0.00413524
0.153254
-0.00435298
0.184032
-0.00340735
0.231499
0.292072
0.00266825
0.0319281
-0.00267413
0.00180147
0.0520427
0.00053886
0.0693296
-0.000734314
0.0869143
-0.00181817
0.106696
-0.00273759
0.128545
-0.00333775
0.153854
-0.00364422
0.184338
-0.00292126
0.230776
0.28915
0.00291821
0.0316285
-0.00261861
0.0023692
0.0525917
0.00132508
0.0703737
0.000118162
0.0881212
-0.000877279
0.107692
-0.0017933
0.129461
-0.00245267
0.154513
-0.00286778
0.184754
-0.00239065
0.230299
0.28676
0.00324338
0.0310054
-0.00262026
0.00302716
0.0528079
0.00220906
0.0711918
0.00118107
0.0891492
0.000181408
0.108692
-0.000753365
0.130395
-0.00146491
0.155225
-0.00202459
0.185313
-0.00182196
0.230096
0.284938
0.00362514
0.0300458
-0.00266558
0.0037598
0.0526733
0.00317926
0.0717723
0.00229802
0.0900304
0.00136609
0.109623
0.000399437
0.131362
-0.000363019
0.155987
-0.00112677
0.186077
-0.00121865
0.230188
0.283719
0.00404189
0.0287463
-0.00274232
0.00454775
0.0521674
0.00421787
0.0721022
0.00348606
0.0907622
0.00261344
0.110496
0.00167636
0.132299
0.00077355
0.15689
-0.000207653
0.187058
-0.000581286
0.230562
0.283138
0.00446906
-0.00284143
0.00536826
0.00530583
0.00473171
0.00392287
0.00297932
0.00196011
0.000843592
9.03303e-05
0.000216172
-0.0015597
0.000637909
-0.00363277
0.00118142
-0.00496866
0.00179859
-0.00575534
0.00246332
-0.00613912
0.00316356
-0.00623282
0.00389642
-0.00612232
0.00466674
-0.00587209
0.00549237
-0.00553274
-0.0051558
0.00023265
-0.00179235
0.000669081
-0.0040692
0.00121602
-0.0055156
0.00182245
-0.00636176
0.00246289
-0.00677956
0.00312755
-0.00689748
0.00381595
-0.00681073
0.00453343
-0.00658957
0.00528878
-0.00628808
-0.00595292
0.000239023
-0.00203137
0.000668028
-0.00449821
0.00118739
-0.00603496
0.00174562
-0.00692
0.00231978
-0.00735371
0.00290372
-0.00748142
0.00350047
-0.00740748
0.00411728
-0.00720638
0.00476126
-0.00693206
-0.0066256
0.000233301
-0.00226467
0.000630321
-0.00489523
0.00108949
-0.00649413
0.0015619
-0.0073924
0.00202918
-0.007821
0.00249015
-0.00794239
0.00295218
-0.00786951
0.00342579
-0.00767999
0.00392081
-0.00742708
-0.00714904
0.000214123
-0.0024788
0.000553835
-0.00523494
0.000921234
-0.00686153
0.00127351
-0.00774468
0.00159891
-0.0081464
0.00190213
-0.0082456
0.00219521
-0.00816259
0.00249215
-0.00797693
0.00280626
-0.00774119
-0.00749272
0.000180901
-0.0026597
0.00043899
-0.00549303
0.000686567
-0.0071091
0.000890531
-0.00794865
0.00104738
-0.00830324
0.00116806
-0.00836628
0.00126887
-0.00826341
0.00136617
-0.00807423
0.0014734
-0.00784842
-0.00763243
0.000133929
-0.00279363
0.000288763
-0.00564786
0.000393932
-0.00721427
0.000429258
-0.00798397
0.000400484
-0.00827447
0.000324478
-0.00829027
0.000220853
-0.00815978
0.000108533
-0.00796191
3.9034e-06
-0.00774379
-0.00752426
7.44553e-05
-0.00286808
0.000108421
-0.00568183
5.53238e-05
-0.00716117
-8.98025e-05
-0.00783885
-0.000311776
-0.0080525
-0.000588797
-0.00801325
-0.000899479
-0.0078491
-0.00122648
-0.00763491
-0.00155806
-0.00741221
-0.00720783
3.78696e-06
-0.00287187
-9.48122e-05
-0.00558323
-0.000314901
-0.00694109
-0.000644012
-0.00750974
-0.00105827
-0.00763824
-0.0015324
-0.00753912
-0.00204486
-0.00733664
-0.00257974
-0.00710003
-0.00312594
-0.00686601
-0.00665676
-7.37681e-05
-0.0027981
-0.000312739
-0.00534426
-0.00070138
-0.00655244
-0.00121063
-0.00700048
-0.00180915
-0.00703972
-0.00246979
-0.00687849
-0.00317209
-0.00663434
-0.00390252
-0.0063696
-0.00465327
-0.00611525