/*--------------------------------*- C++ -*----------------------------------*\
  =========                 |
  \\      /  F ield         | OpenFOAM: The Open Source CFD Toolbox
   \\    /   O peration     | Website:  https://openfoam.org
    \\  /    A nd           | Version:  7
     \\/     M anipulation  |
\*---------------------------------------------------------------------------*/
FoamFile
{
    version     2.0;
    format      ascii;
    class       volScalarField;
    location    "62.8";
    object      p;
}
// * * * * * * * * * * * * * * * * * * * * * * * * * * * * * * * * * * * * * //

dimensions      [0 2 -2 0 0 0 0];

internalField   nonuniform List<scalar> 
2000
(
0.0163791
0.016482
0.0167023
0.016953
0.0171962
0.0174164
0.0176128
0.0177941
0.0179704
0.0181759
0.0165984
0.0167132
0.016952
0.01723
0.0175033
0.0177506
0.0179647
0.018148
0.0183038
0.0184585
0.0167736
0.0169161
0.0171775
0.0174852
0.017791
0.0180687
0.0183055
0.0184981
0.0186445
0.0187559
0.0169011
0.0170902
0.0173777
0.0177163
0.0180548
0.0183633
0.0186248
0.0188322
0.0189799
0.0190573
0.0169816
0.0172382
0.0175528
0.0179217
0.01829
0.0186263
0.0189111
0.0191353
0.0192934
0.0193482
0.0170234
0.0173614
0.0177055
0.0181012
0.0184935
0.0188507
0.019153
0.019391
0.0195643
0.019609
0.0170345
0.0174675
0.0178399
0.0182565
0.0186636
0.019031
0.0193401
0.0195833
0.0197692
0.0198147
0.0170281
0.0175647
0.0179618
0.0183908
0.0188005
0.019164
0.0194657
0.0197011
0.0198913
0.0199451
0.0170209
0.0176624
0.018078
0.0185083
0.0189059
0.0192484
0.0195261
0.019741
0.0199308
0.0200048
0.017032
0.0177708
0.0181962
0.0186143
0.0189825
0.019284
0.0195166
0.0196916
0.0198645
0.0199659
0.0189425
0.0209718
0.0237524
0.0270389
0.0302743
0.0337334
0.036408
0.0395398
0.0404883
0.0422985
0.0190619
0.0206993
0.0230967
0.0260922
0.0290858
0.0323382
0.0348342
0.0377837
0.0387849
0.0404078
0.0191664
0.0204839
0.0224727
0.0251798
0.0279465
0.0310069
0.0333428
0.0361503
0.0371365
0.0386449
0.0192386
0.0203314
0.0218852
0.0243098
0.0268604
0.0297377
0.0319351
0.0346156
0.0355656
0.0370106
0.0192624
0.0202346
0.0213384
0.0234899
0.025832
0.028536
0.0306136
0.0331792
0.0340995
0.0355034
0.0192283
0.0201676
0.0208359
0.0227248
0.0248606
0.027396
0.0293619
0.0318187
0.0327206
0.0341056
0.0191346
0.0200879
0.0203812
0.022019
0.0239563
0.0263345
0.0282017
0.0305607
0.03145
0.0328163
0.018982
0.0199435
0.0199767
0.0213613
0.0230943
0.0253107
0.0270814
0.0293431
0.0302311
0.031611
0.0187728
0.0196728
0.0196139
0.02079
0.022348
0.0244122
0.0260966
0.0282557
0.0291308
0.0304993
0.0186895
0.0193844
0.0192384
0.0201507
0.021516
0.0234196
0.0250346
0.0270961
0.0280156
0.029431
0.0199735
0.020561
0.0204496
0.0205989
0.02123
0.0224299
0.0236623
0.0251855
0.0260131
0.0270503
0.0171317
0.0179855
0.0184323
0.0188176
0.0193723
0.0202137
0.0211078
0.0221771
0.0227984
0.0234647
0.0144863
0.0155232
0.0161505
0.016594
0.0171177
0.017824
0.0185055
0.0192925
0.0197001
0.0201467
0.0115854
0.0128475
0.0137568
0.0143554
0.0148483
0.0154525
0.0160005
0.0166108
0.0168624
0.0171605
0.00853788
0.00992368
0.0111654
0.0120414
0.0126203
0.0131655
0.0135998
0.0140667
0.0142198
0.0144322
0.00561103
0.00702617
0.00847939
0.00958204
0.010309
0.010884
0.0112836
0.0116576
0.0117438
0.0118794
0.00308423
0.00442025
0.00594181
0.00717513
0.00798683
0.00855093
0.00890543
0.00921746
0.00927325
0.00936603
0.00117683
0.00228002
0.00364728
0.00485815
0.00569266
0.00623665
0.00653627
0.0067713
0.0067842
0.00683287
6.69602e-05
0.000844253
0.00187603
0.00280621
0.00343707
0.00383557
0.00403344
0.00420103
0.00417595
0.00420476
-0.000803383
-0.000238475
0.000408238
0.000955593
0.0012888
0.00146644
0.00149952
0.00156768
0.00149215
0.00148347
0.0189505
0.0161144
0.0134621
0.0105891
0.0076724
0.00490519
0.00256042
0.000786784
-6.87641e-05
-0.00107295
0.0183591
0.0154931
0.0128328
0.00998886
0.00715201
0.00449061
0.00227239
0.000611136
-0.00011701
-0.00109135
0.017654
0.0148877
0.012251
0.00945647
0.0067021
0.00414266
0.00204209
0.00049054
-0.000158354
-0.000959496
0.0170051
0.0143845
0.0117731
0.00903364
0.00636122
0.00389852
0.00189944
0.000446877
-0.000157675
-0.0007997
0.0164628
0.0139766
0.0113896
0.00870418
0.00610938
0.00373965
0.00183323
0.00046283
-0.000116268
-0.000641462
0.0160601
0.0136691
0.0111049
0.00846551
0.00594943
0.00366201
0.00183396
0.00052949
-4.26985e-05
-0.000488215
0.0158122
0.0134644
0.0109219
0.00832466
0.00587594
0.00366
0.00189649
0.000640258
5.6892e-05
-0.000343819
0.0157251
0.0133592
0.0108395
0.00827387
0.00588362
0.00372706
0.00201343
0.000787464
0.000176872
-0.000211506
0.0157825
0.0133544
0.010852
0.00830732
0.0059652
0.00385494
0.00217598
0.000963114
0.000311643
-9.23316e-05
0.015961
0.0134413
0.0109504
0.00841619
0.0061108
0.00403391
0.00237485
0.00115959
0.000456078
1.42294e-05
0.0162317
0.013603
0.0111193
0.00858666
0.00630741
0.00425261
0.00260036
0.00136982
0.00060577
0.000109388
0.016572
0.0138251
0.0113456
0.00880792
0.00654451
0.00450194
0.00284472
0.00158829
0.000757421
0.00019452
0.0169666
0.0140989
0.0116206
0.00907304
0.00681458
0.00477515
0.00310207
0.00181097
0.000908788
0.000271091
0.0174002
0.0144157
0.0119342
0.00937463
0.00711014
0.00506599
0.00336753
0.00203484
0.00105843
0.00034043
0.0178603
0.0147695
0.0122778
0.00970635
0.00742504
0.00536933
0.0036374
0.00225782
0.00120556
0.000403692
0.0183362
0.0151564
0.0126434
0.0100625
0.0077543
0.00568103
0.00390902
0.00247852
0.00134986
0.000461879
0.0188124
0.0155693
0.0130221
0.0104366
0.00809339
0.00599741
0.00418036
0.00269607
0.00149134
0.000515924
0.0192801
0.016013
0.013417
0.0108305
0.00844434
0.00631947
0.0044523
0.00291115
0.00163077
0.000566849
0.0197868
0.0165465
0.0138668
0.0112712
0.00882682
0.00665942
0.00473208
0.00312767
0.00177019
0.000615115
0.0201997
0.0170895
0.0143084
0.0117051
0.00920549
0.00699009
0.00500396
0.00333652
0.00190617
0.000657582
0.0196454
0.017417
0.0147779
0.0122805
0.00981034
0.00756749
0.00552975
0.00376219
0.00219715
0.000753994
0.019527
0.0173196
0.014796
0.0124442
0.0100743
0.00791076
0.00589408
0.00410424
0.00245486
0.000870002
0.0200685
0.0177985
0.015233
0.0128905
0.0105035
0.00832408
0.00626237
0.00442105
0.00269189
0.000988046
0.0209179
0.0184533
0.015783
0.0133838
0.0109447
0.0087215
0.00660243
0.0047133
0.00292518
0.00112285
0.0221134
0.0193431
0.0164975
0.0139679
0.0114302
0.00912582
0.00693674
0.0050039
0.00317231
0.00127848
0.0235926
0.0204537
0.0173795
0.0146504
0.0119763
0.00955788
0.00728987
0.00530503
0.00342983
0.00143609
0.0252154
0.0216969
0.0183668
0.0153974
0.0125675
0.0100166
0.00766472
0.00560619
0.0036523
0.00153174
0.0267948
0.0228765
0.0192982
0.0161074
0.0131427
0.0104727
0.00803581
0.00586521
0.00377703
0.00151863
0.0280229
0.0238284
0.0200531
0.0166826
0.0136126
0.0108524
0.00833714
0.00603792
0.00379404
0.00142554
0.0287986
0.0243294
0.0204297
0.0169764
0.013866
0.0110678
0.00850902
0.00612332
0.0037743
0.00134564
0.0212081
0.0211901
0.0218073
0.0227589
0.024143
0.0258089
0.0276469
0.0294905
0.0310015
0.0319841
0.0215518
0.0218009
0.0225711
0.023657
0.0251843
0.0269675
0.0289082
0.0308151
0.0323659
0.0333229
0.0216774
0.0222366
0.0232595
0.0245896
0.0263377
0.028306
0.0303952
0.0323638
0.0338992
0.0347611
0.021889
0.0226743
0.0239023
0.0254602
0.0274125
0.0295678
0.0318257
0.0339086
0.0354925
0.0363404
0.0221883
0.0232049
0.0246074
0.0263548
0.0284748
0.0307899
0.0332041
0.0354249
0.0371126
0.0380232
0.022517
0.0237977
0.0253968
0.0273301
0.029608
0.0320694
0.0346232
0.0369747
0.0387764
0.0397725
0.0228668
0.0244199
0.0262463
0.0283813
0.0308301
0.0334464
0.0361384
0.0386093
0.0405099
0.0415782
0.0232522
0.0250697
0.0271416
0.0294885
0.0321246
0.0349122
0.0377531
0.0403422
0.0423272
0.043447
0.023682
0.0257524
0.028083
0.0306417
0.0334766
0.0364481
0.0394506
0.0421645
0.0442297
0.0453877
0.0241592
0.0264652
0.0290718
0.0318367
0.0348802
0.0380425
0.041217
0.0440646
0.0462132
0.0474052
0.0246867
0.0271979
0.0301056
0.0330665
0.0363323
0.0396897
0.0430462
0.0460363
0.0482747
0.0495005
0.0252616
0.0279368
0.031176
0.0343197
0.0378259
0.0413831
0.0449338
0.0480765
0.0504127
0.0516738
0.0258647
0.0286729
0.0322615
0.0355874
0.0393494
0.0431193
0.0468778
0.0501847
0.0526307
0.0539285
0.0264626
0.0294065
0.0333333
0.0368662
0.0408866
0.0448916
0.0488712
0.0523598
0.0549356
0.0562733
0.0270076
0.0301422
0.0343415
0.0381732
0.0424333
0.0466957
0.0509126
0.0545981
0.0573145
0.0587023
0.0274442
0.0308871
0.0353155
0.0394392
0.0439607
0.0485041
0.0529818
0.0568857
0.0597586
0.0612111
0.0277959
0.0315846
0.0362325
0.0406456
0.0454577
0.0503093
0.0550761
0.0592226
0.0622709
0.0638045
0.0280241
0.0322015
0.0370527
0.0417677
0.0468854
0.0520687
0.0571567
0.0615828
0.064839
0.0664789
0.0281069
0.0327613
0.0378011
0.0428432
0.0482846
0.0538248
0.059257
0.0639865
0.0674743
0.0692482
0.0278636
0.0330688
0.0382739
0.0436338
0.049399
0.0553299
0.0611768
0.0663069
0.0701174
0.0720887
0.0288695
0.0353841
0.0409978
0.0469905
0.0533756
0.0600053
0.0665658
0.0724098
0.0768252
0.0792029
0.0353505
0.0416851
0.047646
0.0546158
0.0620519
0.0698233
0.0774854
0.0842734
0.0893723
0.0920768
0.0424565
0.0492127
0.0559225
0.0640061
0.0725556
0.0815367
0.0902611
0.0978716
0.103518
0.106522
0.0500047
0.0574947
0.0653306
0.0746918
0.0844964
0.094805
0.104555
0.112901
0.118969
0.122091
0.0579979
0.0664308
0.075571
0.0862859
0.0974385
0.109112
0.119811
0.128811
0.135185
0.138524
0.066573
0.0760165
0.0865839
0.098667
0.111202
0.124187
0.135741
0.145285
0.15169
0.154666
0.0751538
0.0857346
0.0976421
0.110977
0.124835
0.138937
0.151263
0.161218
0.167408
0.170369
0.0836367
0.0950357
0.108168
0.122704
0.137859
0.152941
0.166161
0.176625
0.182285
0.183059
0.0893473
0.101783
0.11589
0.131356
0.147509
0.163311
0.177342
0.188085
0.192843
0.195255
0.0940665
0.106804
0.121585
0.137783
0.15479
0.171456
0.187059
0.200315
0.20737
0.192638
0.0268018
0.0329389
0.0391372
0.0461398
0.0533276
0.0614679
0.069248
0.0776125
0.0825766
0.0872731
0.0262271
0.0326195
0.0386931
0.0455125
0.052428
0.0603203
0.0677138
0.0758052
0.0802064
0.08479
0.0260534
0.0327449
0.0389025
0.0456296
0.0524176
0.0600693
0.0670921
0.0746785
0.0784789
0.082715
0.0257591
0.0325602
0.0387293
0.0453837
0.0520724
0.0595332
0.0662542
0.0734387
0.0769098
0.0807624
0.0254089
0.0321966
0.0382889
0.0448657
0.0514108
0.0586593
0.0651104
0.0719972
0.0753327
0.0788843
0.025058
0.0318099
0.037837
0.0443084
0.0507317
0.0577332
0.0639366
0.0705442
0.0738127
0.0771392
0.0247015
0.0314216
0.0374299
0.0437969
0.0501382
0.0569124
0.0629283
0.0692283
0.0724686
0.0755902
0.0243408
0.0310297
0.0370477
0.0433422
0.0496182
0.0562083
0.0621232
0.0680766
0.0713764
0.0742612
0.0239883
0.0306492
0.0366879
0.04294
0.0491606
0.0556247
0.0614602
0.0671478
0.0704948
0.0731494
0.0236607
0.0302985
0.0363653
0.042598
0.0487775
0.0551609
0.0609226
0.0664374
0.0697887
0.0722756
0.023374
0.0299903
0.0360947
0.0423287
0.0484867
0.054821
0.0605257
0.065927
0.0692619
0.0716441
0.0231241
0.0297191
0.0358769
0.0421335
0.0482947
0.054609
0.0602849
0.0656085
0.0689291
0.0712473
0.0228918
0.0294715
0.0357045
0.0420073
0.0481995
0.0545274
0.0602074
0.0654834
0.0688014
0.0710775
0.0226656
0.0292454
0.0355748
0.0419475
0.048199
0.0545761
0.0602915
0.0655521
0.0688778
0.0711279
0.0224326
0.0290423
0.0354855
0.0419511
0.0482919
0.0547548
0.0605369
0.0658165
0.0691582
0.0713976
0.0221692
0.0288593
0.0354266
0.0420094
0.0484715
0.0550525
0.0609338
0.0662656
0.0696273
0.0718846
0.0218435
0.0286899
0.0353861
0.0421156
0.0487357
0.0554703
0.0614904
0.0669043
0.0702923
0.0725955
0.0214153
0.0285089
0.0353324
0.0422371
0.0490466
0.0559659
0.0621675
0.0676965
0.0711144
0.07353
0.0208767
0.0283381
0.0352959
0.0424083
0.0494463
0.0565867
0.0630107
0.0686786
0.0721367
0.074702
0.0200006
0.0279206
0.0350392
0.0423804
0.0496696
0.05707
0.0637963
0.0696955
0.0732375
0.0760983
0.0210783
0.0292435
0.0364605
0.0441202
0.0518818
0.0596889
0.066912
0.0731372
0.0769388
0.0800804
0.026898
0.0347784
0.0420441
0.0503408
0.0588767
0.0675804
0.0757523
0.0826922
0.0871685
0.0900146
0.0335616
0.0417741
0.0496814
0.0589854
0.0685856
0.0785549
0.0879471
0.0958838
0.101105
0.103915
0.040486
0.0494019
0.0584708
0.0692018
0.080341
0.0921329
0.10323
0.112734
0.119224
0.122645
0.0475266
0.0574294
0.0679957
0.0804298
0.0935219
0.107641
0.12104
0.133017
0.141844
0.146994
0.0547381
0.0658054
0.0781517
0.0924647
0.107883
0.124756
0.141211
0.156987
0.170279
0.179702
0.0613366
0.0738306
0.0879106
0.104151
0.122139
0.14202
0.162556
0.184083
0.204998
0.223932
0.0678804
0.08149
0.0972328
0.115458
0.136105
0.159321
0.185129
0.214931
0.249165
0.288177
0.0709476
0.0853507
0.102191
0.121855
0.14492
0.172023
0.204848
0.246473
0.302595
0.377768
0.0741552
0.0902345
0.108604
0.130379
0.15683
0.189371
0.231159
0.288474
0.375835
0.500284
0.0194574
0.0247284
0.0301928
0.0362196
0.0421187
0.0488152
0.0542797
0.0606023
0.0632899
0.0652843
0.0189454
0.0242028
0.029518
0.0352426
0.0407444
0.0471402
0.0521334
0.0582504
0.0605915
0.0629134
0.0187997
0.0240538
0.0293192
0.0348611
0.0401266
0.0461724
0.0507735
0.0564649
0.0583741
0.0615139
0.0186913
0.0237359
0.0288076
0.0341495
0.0391877
0.0449087
0.0491869
0.0544741
0.0560416
0.0595647
0.0186201
0.0233119
0.0280726
0.0331854
0.0379241
0.0432989
0.0472606
0.0522091
0.0534969
0.0569234
0.0185968
0.0228802
0.0273179
0.0321471
0.0365978
0.0415915
0.0452268
0.0498707
0.0508997
0.0540051
0.0186097
0.0224588
0.0265877
0.0310826
0.0353229
0.0399294
0.0432662
0.0476232
0.0484198
0.0512014
0.0186537
0.0220477
0.0258646
0.0300387
0.0340458
0.0383161
0.0414363
0.0454975
0.0461398
0.0486754
0.0187271
0.0216552
0.0251441
0.0290169
0.0327679
0.0367284
0.0397184
0.0434416
0.0440798
0.046406
0.018826
0.021293
0.0244365
0.0280151
0.0315054
0.035196
0.0380441
0.0414315
0.042232
0.0443006
0.0170826
0.0179015
0.0183255
0.0187162
0.0190367
0.0192756
0.0194367
0.0195307
0.0195816
0.0195291
0.0172013
0.0180695
0.018477
0.0188243
0.0190804
0.01924
0.0193131
0.019314
0.0192674
0.0191328
0.0174052
0.0182853
0.0186616
0.018951
0.0191295
0.0191984
0.0191745
0.0190771
0.0189407
0.0187364
0.0177125
0.0185615
0.0188921
0.0191114
0.0192027
0.0191747
0.0190502
0.0188538
0.0186271
0.0183447
0.0181395
0.0189108
0.0191823
0.0193214
0.0193198
0.0191931
0.0189693
0.0186774
0.0183613
0.0179942
0.0186975
0.0193441
0.0195442
0.0195958
0.0194987
0.0192747
0.0189563
0.0185748
0.0181731
0.0177222
0.0193915
0.019869
0.019987
0.0199455
0.0197523
0.0194348
0.0190278
0.0185641
0.0180824
0.0175562
0.0202192
0.0204883
0.0205146
0.0203756
0.0200869
0.01968
0.0191912
0.0186525
0.0180976
0.0175029
0.0211689
0.0211977
0.0211241
0.0208839
0.0205004
0.0200086
0.0194441
0.0188384
0.0182178
0.0175575
0.0222105
0.0219802
0.0218026
0.0214593
0.0209829
0.0204105
0.0197768
0.0191106
0.0184319
0.0177227
0.0232889
0.0228084
0.0225285
0.0220836
0.0215174
0.0208695
0.0201727
0.0194527
0.0187244
0.0179793
0.0244206
0.0236741
0.0232846
0.0227361
0.0220826
0.0213641
0.0206107
0.0198441
0.0190758
0.0183061
0.0255524
0.0245389
0.024039
0.0233893
0.0226534
0.0218712
0.0210688
0.0202636
0.0194654
0.0186824
0.026632
0.0253639
0.0247583
0.0240137
0.0232035
0.0223664
0.0215242
0.0206895
0.0198721
0.0190877
0.0276113
0.0261107
0.0254085
0.0245797
0.0237065
0.022826
0.0219548
0.0211012
0.0202764
0.0195033
0.0284442
0.0267412
0.0259574
0.0250597
0.0241385
0.0232284
0.022341
0.0214804
0.0206605
0.0199123
0.0290883
0.0272207
0.0263757
0.0254294
0.0244787
0.0235556
0.0226669
0.021812
0.0210087
0.0202979
0.0295077
0.0275197
0.0266395
0.0256696
0.0247114
0.0237943
0.0229208
0.0220853
0.0213067
0.0206397
0.0296752
0.0276157
0.0267312
0.0257672
0.0248263
0.023936
0.0230951
0.0222897
0.0215334
0.0209102
0.0295736
0.0274945
0.0266403
0.0257153
0.0248203
0.0239804
0.02319
0.0224231
0.0216841
0.0211089
0.0291944
0.0271498
0.0263625
0.0255124
0.0246964
0.0239399
0.0232416
0.0225853
0.0219963
0.0216334
0.0285322
0.0265805
0.0258981
0.0251585
0.0244511
0.0238015
0.0232114
0.0226713
0.0222025
0.0219108
0.0276034
0.0257988
0.0252558
0.0246583
0.024085
0.0235603
0.0230881
0.0226634
0.0222978
0.0220472
0.0264337
0.0248243
0.0244499
0.0240225
0.0236063
0.0232248
0.0228845
0.0225853
0.0223333
0.0221575
0.0250568
0.023683
0.0235009
0.0232674
0.0230292
0.0228085
0.0226155
0.0224542
0.0223281
0.0222541
0.0235137
0.0224068
0.0224342
0.0224137
0.0223712
0.0223272
0.0222954
0.0222835
0.0222938
0.0223369
0.0218504
0.0210318
0.0212784
0.0214845
0.021652
0.0217979
0.021939
0.0220867
0.0222437
0.0224167
0.0201146
0.0195954
0.0200639
0.0205042
0.0208916
0.0212374
0.0215608
0.0218766
0.0221895
0.0225048
0.0183543
0.0181343
0.0188204
0.0194965
0.020109
0.0206614
0.0211738
0.0216641
0.0221399
0.0226082
0.0166289
0.0166881
0.0175778
0.018484
0.0193216
0.0200832
0.0207884
0.0214571
0.0221006
0.0227302
0.0150201
0.0153091
0.0163719
0.0174916
0.0185471
0.0195155
0.0204134
0.0212616
0.0220741
0.0228705
0.0134654
0.0139861
0.0152091
0.0165291
0.0177939
0.0189643
0.0200525
0.0210786
0.0220581
0.0230228
0.0120123
0.0127507
0.0141084
0.0156109
0.0170716
0.0184349
0.0197074
0.020907
0.022047
0.0231735
0.0106961
0.0116262
0.0130883
0.0147475
0.0163868
0.0179301
0.0193774
0.0207432
0.0220347
0.0233025
0.00953162
0.0106229
0.0121626
0.013949
0.0157428
0.0174505
0.01906
0.020582
0.0220184
0.0233888
0.00852671
0.00974884
0.0113372
0.0132195
0.015143
0.0169958
0.0187529
0.0204164
0.0219773
0.0234793
0.00768467
0.00900783
0.0106161
0.0125622
0.014588
0.0165648
0.0184541
0.0202479
0.0219207
0.0235185
0.00700391
0.00839973
0.0100011
0.0119787
0.0140775
0.0161552
0.0181601
0.0200742
0.0218487
0.023508
0.00647889
0.00792105
0.00949139
0.0114691
0.0136105
0.0157646
0.0178679
0.0198966
0.0217804
0.0234865
0.00610166
0.00756607
0.0090844
0.0110322
0.0131848
0.0153883
0.0175681
0.0196995
0.0217201
0.0235138
0.00585981
0.00732596
0.00877476
0.0106649
0.0127972
0.0150221
0.0172585
0.0194921
0.0217695
0.0239841
0.00572529
0.00718461
0.00855431
0.0103637
0.0124438
0.0146525
0.0168987
0.019144
0.0214268
0.0236368
0.00569993
0.00713908
0.00842028
0.0101282
0.0121254
0.0142802
0.0164935
0.0187041
0.0209255
0.0230729
0.00577505
0.00718102
0.00836757
0.00995872
0.0118491
0.0139221
0.0160783
0.0182478
0.0204277
0.0225317
0.00593726
0.00729975
0.00838984
0.00985512
0.0116223
0.0135938
0.0156763
0.0177965
0.0199394
0.0220114
0.00617355
0.00748489
0.00848021
0.00981601
0.0114493
0.0133048
0.0152983
0.0173561
0.019453
0.0214954
0.00647185
0.00772651
0.00863132
0.00983847
0.0113324
0.0130612
0.0149531
0.0169364
0.0189773
0.0209873
0.00682072
0.00801484
0.00883522
0.0099182
0.0112718
0.0128674
0.0146481
0.0165469
0.0185233
0.020496
0.00720981
0.00834044
0.00908344
0.0100495
0.0112656
0.0127254
0.0143885
0.0161948
0.0180993
0.0200296
0.00763374
0.00869817
0.0093702
0.0102274
0.0113113
0.0126356
0.014177
0.0158845
0.0177106
0.0195946
0.00809314
0.00909035
0.00969708
0.0104534
0.011411
0.0126012
0.0140178
0.0156208
0.017362
0.0191949
0.00855676
0.00948984
0.0100403
0.0107077
0.0115498
0.0126125
0.0139057
0.0154013
0.017052
0.0188269
0.00902544
0.00989737
0.0103986
0.0109874
0.0117246
0.0126667
0.0138386
0.0152246
0.0167788
0.0184849
0.00949753
0.0103108
0.0107687
0.0112883
0.0119305
0.0127597
0.0138133
0.0150883
0.0165397
0.0181641
0.00996934
0.0107263
0.0111457
0.0116047
0.0121621
0.0128868
0.0138266
0.0149898
0.0163321
0.0178598
0.0104378
0.0111406
0.0115258
0.0119321
0.0124144
0.0130436
0.0138751
0.0149274
0.0161543
0.0175665
0.010901
0.0115517
0.0119063
0.0122669
0.0126833
0.0132264
0.0139566
0.0149008
0.0160076
0.017282
0.0113576
0.011958
0.0122851
0.0126062
0.0129655
0.013432
0.0140694
0.0149119
0.0158995
0.017012
0.011807
0.0123587
0.0126611
0.0129483
0.0132587
0.0136581
0.0142121
0.0149626
0.0158425
0.0167776
0.0122486
0.0127533
0.0130337
0.0132925
0.0135621
0.0139051
0.0143869
0.0150578
0.0158662
0.0166568
0.012683
0.0131418
0.0134026
0.0136378
0.0138754
0.0141759
0.0146089
0.0152533
0.0162016
0.0174164
0.0131122
0.0135237
0.013767
0.0139837
0.0141959
0.0144598
0.0148419
0.0154156
0.0162784
0.017386
0.0135347
0.0138991
0.014127
0.0143295
0.0145217
0.0147525
0.0150812
0.01557
0.016297
0.0172318
0.0139493
0.0142671
0.0144822
0.0146747
0.0148527
0.0150568
0.0153396
0.0157569
0.0163743
0.0171674
0.0143545
0.0146267
0.0148316
0.0150184
0.0151884
0.0153737
0.0156196
0.0159767
0.0165005
0.0171751
0.014748
0.0149763
0.0151738
0.0153594
0.0155273
0.0157011
0.0159186
0.0162238
0.0166637
0.0172351
0.0151265
0.015314
0.0155071
0.0156959
0.0158675
0.016037
0.0162343
0.0164965
0.0168624
0.0173428
0.0154858
0.015637
0.0158294
0.016026
0.016207
0.0163792
0.0165645
0.0167928
0.0170955
0.0174952
0.0158212
0.0159419
0.0161381
0.0163471
0.0165432
0.0167249
0.0169063
0.01711
0.0173602
0.0176879
0.0161231
0.0162255
0.0164302
0.0166569
0.0168736
0.0170714
0.0172566
0.0174447
0.0176529
0.0179162
)
;

boundaryField
{
    inlet
    {
        type            zeroGradient;
    }
    outlet
    {
        type            fixedValue;
        value           uniform 0;
    }
    cylinder
    {
        type            zeroGradient;
    }
    top
    {
        type            symmetryPlane;
    }
    bottom
    {
        type            symmetryPlane;
    }
    defaultFaces
    {
        type            empty;
    }
}


// ************************************************************************* //
