/*--------------------------------*- C++ -*----------------------------------*\
  =========                 |
  \\      /  F ield         | OpenFOAM: The Open Source CFD Toolbox
   \\    /   O peration     | Website:  https://openfoam.org
    \\  /    A nd           | Version:  7
     \\/     M anipulation  |
\*---------------------------------------------------------------------------*/
FoamFile
{
    version     2.0;
    format      ascii;
    class       volVectorField;
    location    "59";
    object      U;
}
// * * * * * * * * * * * * * * * * * * * * * * * * * * * * * * * * * * * * * //

dimensions      [0 1 -1 0 0 0 0];

internalField   nonuniform List<vector> 
2000
(
(-0.00029407 -0.00884115 -5.21956e-22)
(-0.000651342 -0.0163947 0)
(-0.000387835 -0.0177439 0)
(0.000949581 -0.014413 -2.60974e-21)
(0.00337589 -0.00720722 8.16537e-22)
(0.00683171 0.00339389 1.43872e-23)
(0.0111925 0.0170056 -1.40666e-21)
(0.0162592 0.0331982 0)
(0.0217097 0.0514182 0)
(0.0272203 0.070943 0)
(0.000235237 -0.00834879 0)
(0.000309261 -0.0161097 -2.02589e-21)
(0.000539724 -0.0181023 1.86828e-21)
(0.00148488 -0.0156884 3.47589e-21)
(0.00323176 -0.00960523 0)
(0.00579496 -0.000266939 3.08391e-21)
(0.00913024 0.0120329 -2.86778e-21)
(0.013119 0.026984 0)
(0.0174964 0.0441687 5.1569e-21)
(0.0219447 0.0630185 -9.94125e-21)
(0.00073854 -0.0077634 0)
(0.00143985 -0.0156597 1.64065e-20)
(0.00194435 -0.0182236 0)
(0.0028037 -0.0166706 1.43186e-20)
(0.00414791 -0.0116912 0)
(0.00604433 -0.00366139 -1.26029e-20)
(0.00851547 0.00719622 0)
(0.0115203 0.020688 1.11212e-20)
(0.0148673 0.036554 -1.04155e-20)
(0.0182215 0.0544218 -1.01754e-20)
(0.00123648 -0.00714725 -4.327e-21)
(0.00280479 -0.0151183 -8.14687e-21)
(0.00393562 -0.0181362 -3.8254e-21)
(0.00506186 -0.0173132 -7.05674e-21)
(0.00633174 -0.0133204 -6.70768e-21)
(0.00784452 -0.00652959 6.20895e-21)
(0.00967299 0.00287378 5.94544e-21)
(0.0118447 0.014791 5.23584e-23)
(0.0142566 0.029126 1.06132e-20)
(0.016537 0.0457317 1.01761e-20)
(0.00176963 -0.0065723 -4.33925e-21)
(0.0044887 -0.0145673 -8.3732e-21)
(0.00662757 -0.0178781 -1.57421e-20)
(0.008401 -0.0175851 7.22948e-21)
(0.00995972 -0.0143659 0)
(0.0114193 -0.00862176 0)
(0.0128862 -0.000543583 -1.22324e-20)
(0.0144435 0.00982395 -1.15366e-20)
(0.0160898 0.0225339 1.09357e-20)
(0.0174181 0.0376675 3.14182e-20)
(0.00239765 -0.00610811 4.37831e-21)
(0.00658838 -0.0140825 4.27799e-21)
(0.010122 -0.0174938 -2.36459e-20)
(0.0129211 -0.0174805 3.70147e-20)
(0.015136 -0.014747 -6.86538e-21)
(0.016892 -0.00975062 0)
(0.0183183 -0.00272939 0)
(0.0195393 0.00627365 5.84292e-20)
(0.0206674 0.0174208 -5.4962e-20)
(0.0212972 0.0309912 1.0454e-20)
(0.00319522 -0.00580893 3.482e-20)
(0.00920332 -0.0137232 0)
(0.0144908 -0.017028 3.14868e-20)
(0.0186548 -0.0170227 -2.95828e-20)
(0.0218537 -0.0144513 0)
(0.0242289 -0.00984197 1.33001e-20)
(0.0259312 -0.00350794 -3.7391e-20)
(0.0271175 0.00445596 -4.71399e-20)
(0.0280182 0.0142605 2.21959e-20)
(0.0283108 0.0263262 2.13261e-20)
(0.00424196 -0.00570346 -6.95953e-20)
(0.012422 -0.0135207 -8.53507e-21)
(0.0197608 -0.0165159 -1.59666e-20)
(0.0255472 -0.0162605 -3.73856e-20)
(0.0299694 -0.013545 -1.42164e-20)
(0.0332015 -0.00896586 -1.34716e-20)
(0.0354268 -0.00291948 -1.33171e-22)
(0.0368333 0.00440848 0)
(0.0377678 0.013208 0)
(0.0381035 0.0239706 2.35035e-22)
(0.00561365 -0.00579064 3.4776e-20)
(0.0163054 -0.0134661 -3.40249e-20)
(0.0258999 -0.0159725 2.37974e-20)
(0.0334468 -0.0152591 5.26041e-20)
(0.0391992 -0.0121646 -1.40211e-20)
(0.0433915 -0.00733722 1.33783e-20)
(0.0462551 -0.00123694 1.26509e-20)
(0.0480082 0.0058604 0)
(0.0490844 0.0140806 0)
(0.0496723 0.0238772 -2.07318e-22)
(0.00737261 -0.00603704 -4.33635e-21)
(0.0208715 -0.0135064 4.26398e-20)
(0.0328046 -0.0153872 -7.93922e-21)
(0.0421029 -0.014089 0)
(0.0491344 -0.0104987 0)
(0.0542355 -0.00529214 2.6718e-20)
(0.0577205 0.00105054 0)
(0.059852 0.00822572 -2.38686e-20)
(0.0610485 0.0163153 -2.19036e-22)
(0.0616885 0.0255675 2.15648e-20)
(0.0408782 0.115841 3.95877e-22)
(0.0568018 0.190047 -4.00628e-22)
(0.0594252 0.248642 -4.71597e-22)
(0.0563011 0.303282 -5.32451e-22)
(0.0486087 0.362282 -6.33028e-22)
(0.0429236 0.429257 -1.8168e-23)
(0.0295407 0.505592 3.33852e-22)
(0.0259479 0.595565 1.14744e-21)
(0.00359428 0.715408 0)
(0.00840963 0.856397 -8.33554e-22)
(0.0334319 0.107657 1.47441e-21)
(0.0509915 0.184979 -1.76232e-21)
(0.0552764 0.247108 3.17338e-21)
(0.0531583 0.303507 5.33364e-22)
(0.0461363 0.363321 1.14638e-21)
(0.0409478 0.430838 1.92408e-21)
(0.0281986 0.507681 -7.08788e-22)
(0.0248335 0.598167 -7.68239e-22)
(0.00342683 0.717848 1.52704e-21)
(0.00791865 0.857716 8.31575e-22)
(0.0268564 0.0982214 0)
(0.0454641 0.177997 -1.66267e-21)
(0.0514472 0.244081 -9.27961e-22)
(0.0503347 0.30255 0)
(0.0439355 0.363303 -3.51373e-21)
(0.0392161 0.431457 1.11404e-21)
(0.0270313 0.508908 1.23794e-21)
(0.0238508 0.600004 4.22993e-21)
(0.0033183 0.719883 -1.5221e-21)
(0.00747391 0.85883 3.05581e-21)
(0.0216085 0.0879821 0)
(0.0402185 0.169067 1.67676e-21)
(0.0479262 0.239497 0)
(0.0478077 0.300371 4.17391e-21)
(0.0419909 0.362207 -4.19544e-21)
(0.0377116 0.431061 -2.4809e-21)
(0.0260256 0.50913 -1.27303e-22)
(0.0230081 0.600844 -4.14374e-21)
(0.00327249 0.721098 -6.84083e-22)
(0.00705371 0.859557 -3.76645e-21)
(0.0183891 0.0775605 1.94673e-22)
(0.0353243 0.158286 -4.8008e-21)
(0.0447006 0.233304 2.53628e-22)
(0.0455506 0.296943 -3.74391e-21)
(0.0402835 0.360096 0)
(0.0364113 0.42981 -2.39574e-21)
(0.0251595 0.508663 -1.62373e-22)
(0.0222761 0.601202 5.28189e-21)
(0.00325478 0.72209 6.95789e-22)
(0.00666828 0.860177 -6.98286e-22)
(0.0180447 0.0676886 -1.32023e-20)
(0.0309833 0.145985 8.39586e-21)
(0.0417598 0.225477 3.6893e-21)
(0.0435441 0.292203 -3.6873e-21)
(0.0388026 0.356844 -2.03721e-21)
(0.0353072 0.427421 0)
(0.0244338 0.506994 -4.81107e-21)
(0.0216732 0.600279 2.38994e-21)
(0.00329454 0.72193 2.58331e-21)
(0.00629188 0.860331 2.66534e-21)
(0.0212611 0.0591058 -1.65242e-21)
(0.0275827 0.132801 0)
(0.0390974 0.216026 0)
(0.0417583 0.286254 0)
(0.0375301 0.352829 -2.15437e-21)
(0.0343745 0.424601 4.18505e-21)
(0.0238165 0.505208 4.71732e-21)
(0.0211314 0.599547 -7.26945e-21)
(0.00331516 0.72216 1.27425e-21)
(0.00595389 0.86059 -3.90174e-21)
(0.0281402 0.0522897 1.0333e-20)
(0.0256833 0.119613 7.11991e-21)
(0.0367564 0.205025 -7.05575e-21)
(0.0401952 0.27869 7.69584e-21)
(0.0364458 0.347144 -9.57074e-21)
(0.0336165 0.419926 0)
(0.0233373 0.501337 -2.17965e-21)
(0.0207445 0.596569 8.06016e-23)
(0.00343046 0.720449 -2.35353e-21)
(0.00560715 0.860198 -2.42598e-21)
(0.0378206 0.0470301 -8.909e-21)
(0.0259013 0.106775 0)
(0.0347662 0.192956 -8.18647e-21)
(0.0388465 0.270983 1.48084e-20)
(0.0355802 0.342249 -5.54308e-21)
(0.0329913 0.416684 -1.00806e-21)
(0.0229084 0.499321 2.17503e-21)
(0.0203102 0.59571 7.50217e-24)
(0.00342522 0.720565 3.41884e-21)
(0.00531094 0.860285 3.54012e-21)
(0.0481865 0.04365 -7.40552e-21)
(0.0286958 0.0941678 7.22837e-21)
(0.0335032 0.176975 8.98566e-22)
(0.0375672 0.257828 0)
(0.034759 0.33166 0)
(0.032575 0.407754 9.77027e-22)
(0.0227065 0.491686 4.07808e-21)
(0.0201995 0.58957 -3.95965e-21)
(0.00366224 0.716704 -1.03995e-21)
(0.00497935 0.859333 1.00772e-21)
(0.0631638 0.0513287 0)
(0.0367137 0.0891852 0)
(0.0344173 0.166012 0)
(0.0372405 0.252654 0)
(0.0338575 0.330901 0)
(0.0312478 0.409191 0)
(0.0216703 0.493884 0)
(0.0188658 0.59276 0)
(0.00325306 0.719464 0)
(0.00438061 0.859805 0)
(0.0766932 0.0813851 0)
(0.0516285 0.11542 0)
(0.0375763 0.173378 0)
(0.0369272 0.255107 0)
(0.0326319 0.335511 0)
(0.0287941 0.416077 0)
(0.0197855 0.502731 0)
(0.0169766 0.603552 0)
(0.00298083 0.729982 0)
(0.00377221 0.86586 0)
(0.0813398 0.094392 0)
(0.0643361 0.135816 0)
(0.0449652 0.185306 0)
(0.0388989 0.259719 0)
(0.0343003 0.339882 0)
(0.0296472 0.420487 0)
(0.0201657 0.506985 0)
(0.0163117 0.607828 0)
(0.00306009 0.733628 0)
(0.00336961 0.866079 0)
(0.0796981 0.100753 0)
(0.0708886 0.151894 0)
(0.0524992 0.199897 0)
(0.041023 0.268131 0)
(0.0339064 0.347663 0)
(0.0285735 0.4295 0)
(0.0197326 0.517414 0)
(0.0157533 0.619466 0)
(0.00350377 0.744542 0)
(0.00315712 0.872502 0)
(0.074707 0.102511 0)
(0.0719632 0.163014 0)
(0.0580921 0.213271 0)
(0.0458705 0.276647 0)
(0.0374481 0.353666 0)
(0.0305289 0.43434 0)
(0.0207155 0.52106 0)
(0.0156945 0.622529 0)
(0.00378444 0.746962 0)
(0.00294513 0.872165 0)
(0.0665787 0.101171 0)
(0.0682506 0.169872 0)
(0.0589615 0.225772 0)
(0.0465117 0.287607 0)
(0.0371814 0.363364 0)
(0.0303224 0.445251 0)
(0.0211836 0.533302 0)
(0.015994 0.635371 0)
(0.00465559 0.758534 0)
(0.00294683 0.879343 0)
(0.0561876 0.0968518 0)
(0.0616527 0.171324 0)
(0.0590519 0.234163 0)
(0.0503727 0.297469 0)
(0.0406369 0.370907 0)
(0.0320428 0.450112 0)
(0.0218191 0.536285 0)
(0.0158918 0.637515 0)
(0.00484391 0.760062 0)
(0.00282911 0.878866 0)
(0.0443491 0.0900973 0)
(0.0520764 0.168436 0)
(0.0529033 0.23719 0)
(0.0476279 0.304782 0)
(0.0402209 0.381273 0)
(0.0328657 0.463319 0)
(0.0232449 0.550894 0)
(0.0167719 0.652269 0)
(0.00589958 0.773079 0)
(0.00291799 0.88733 0)
(0.0341302 0.0820487 0)
(0.0456436 0.164349 0)
(0.0518424 0.240505 0)
(0.04965 0.311851 0)
(0.0420591 0.387099 0)
(0.0335213 0.466567 0)
(0.0233518 0.552568 0)
(0.0166507 0.653245 0)
(0.00599449 0.773832 0)
(0.00286263 0.88705 0)
(0.0208507 0.0636475 0)
(0.0331255 0.145948 0)
(0.0433186 0.229518 0)
(0.0469807 0.312584 0)
(0.0435015 0.397482 0)
(0.0362561 0.48249 0)
(0.0259386 0.570065 0)
(0.0180683 0.670331 0)
(0.00728273 0.788544 0)
(0.00302435 0.896827 0)
(0.0819182 0.0414214 6.64982e-21)
(0.0878421 0.0569094 -6.53654e-21)
(0.0868085 0.0613816 6.03049e-22)
(0.082126 0.0620009 0)
(0.0749714 0.0595506 0)
(0.0648103 0.0552732 1.99695e-22)
(0.0524526 0.0491157 -2.70707e-22)
(0.0389413 0.0411495 2.66279e-22)
(0.0271457 0.0331556 -2.15334e-23)
(0.0147413 0.0166547 2.12377e-23)
(0.0872446 0.0372682 -8.45168e-21)
(0.0889552 0.0467322 0)
(0.0857375 0.0475379 3.46412e-21)
(0.0799688 0.0457772 -6.97376e-21)
(0.0722122 0.0415817 3.53439e-21)
(0.0617339 0.0360809 -1.96075e-22)
(0.0492811 0.0291103 1.72661e-22)
(0.0358818 0.0207045 5.56642e-23)
(0.0238617 0.0126814 -5.50983e-23)
(0.0119197 -0.00279 -4.77715e-23)
(0.0902467 0.0319814 9.5437e-21)
(0.0889315 0.0361575 -4.76204e-21)
(0.0844157 0.0338761 4.71616e-21)
(0.0778801 0.0299087 -2.77166e-21)
(0.0696018 0.0239434 2.15915e-21)
(0.0587861 0.0171336 0)
(0.0462015 0.00924383 -1.73055e-22)
(0.0329337 0.000431245 -7.1738e-24)
(0.0206997 -0.00764067 1.80615e-23)
(0.00972419 -0.0216343 7.13187e-23)
(0.0916804 0.0246864 -1.47834e-21)
(0.0879031 0.0242857 0)
(0.0825241 0.0195128 0)
(0.0754217 0.0136935 0)
(0.0667791 0.00619067 1.37879e-21)
(0.0557622 -0.00174151 -8.52936e-22)
(0.0431568 -0.0104234 5.64346e-23)
(0.0300784 -0.0194747 2.4948e-23)
(0.0178376 -0.0275105 1.97284e-23)
(0.00775882 -0.0397496 3.41774e-23)
(0.0915651 0.0154293 -7.67932e-22)
(0.0858738 0.0112267 -3.93455e-21)
(0.0799798 0.00442177 -1.6834e-21)
(0.0724707 -0.00291711 1.68216e-21)
(0.0635919 -0.0116991 -5.19222e-22)
(0.0525292 -0.020506 0)
(0.0400275 -0.0297621 -1.48664e-22)
(0.0272261 -0.0388505 4.05016e-23)
(0.0152891 -0.0466832 -7.99661e-24)
(0.00604327 -0.057044 -5.44659e-23)
(0.0901098 0.00455809 -1.04771e-20)
(0.0830508 -0.00266124 1.70224e-21)
(0.0769111 -0.0111693 4.29763e-22)
(0.0691516 -0.019734 1.61887e-21)
(0.060149 -0.0295599 0)
(0.0491445 -0.0389902 0)
(0.0368619 -0.0485873 0)
(0.0244475 -0.0575187 4.12135e-23)
(0.0130172 -0.0649516 0)
(0.00461596 -0.0734498 0)
(0.0875313 -0.00750505 0)
(0.0796032 -0.016992 3.05869e-21)
(0.0734364 -0.0269789 -1.98542e-21)
(0.0655313 -0.0364992 -1.15736e-21)
(0.0565293 -0.0471455 1.16328e-21)
(0.0456674 -0.0569704 2.21896e-22)
(0.0337292 -0.0666969 -2.79142e-22)
(0.0218089 -0.0752917 -2.00349e-22)
(0.0110224 -0.08215 1.459e-23)
(0.00347355 -0.0889074 1.97964e-23)
(0.0840221 -0.0203634 0)
(0.0756773 -0.0314194 -1.07414e-21)
(0.0696272 -0.0427137 -4.35711e-22)
(0.0616607 -0.0529314 0)
(0.0527853 -0.0642019 1.47458e-22)
(0.0421798 -0.0742167 -5.41252e-22)
(0.0306851 -0.083883 2.06592e-22)
(0.0193546 -0.0919946 -2.66295e-24)
(0.00930474 -0.0981548 -5.99505e-24)
(0.00258676 -0.103362 -2.395e-23)
(0.0797045 -0.0336965 1.33084e-21)
(0.0713764 -0.0456326 9.56897e-22)
(0.0655322 -0.058099 -3.13999e-22)
(0.057625 -0.0687747 1.67431e-22)
(0.0489836 -0.0804861 2.3882e-22)
(0.0387433 -0.0905122 2.30275e-22)
(0.0277753 -0.0999566 -4.43216e-23)
(0.0171145 -0.107483 -1.95554e-23)
(0.007851 -0.112882 6.01465e-24)
(0.00191471 -0.116767 -1.36577e-24)
(0.0747319 -0.0471303 -2.84518e-22)
(0.0667783 -0.0593881 2.87172e-22)
(0.0612355 -0.0728968 -2.16405e-22)
(0.0535029 -0.0838055 -1.67174e-22)
(0.0451861 -0.0957856 1.00736e-22)
(0.0354105 -0.105676 -1.8017e-22)
(0.025037 -0.114767 6.12183e-23)
(0.0151047 -0.121655 2.54028e-24)
(0.00663783 -0.126288 0)
(0.00141498 -0.12909 1.3685e-24)
(0.0693509 -0.0603991 2.87264e-22)
(0.0620171 -0.0724964 -2.89756e-22)
(0.0568474 -0.0869118 -2.20698e-22)
(0.0493979 -0.0978501 -1.722e-22)
(0.0414697 -0.109935 -1.04407e-22)
(0.0322402 -0.119579 1.8845e-23)
(0.0225038 -0.128218 3.39948e-23)
(0.0133308 -0.134461 4.71128e-23)
(0.00563661 -0.138366 0)
(0.00104832 -0.140319 -2.51698e-24)
(0.0638097 -0.0733126 0)
(0.0572578 -0.084828 -9.79626e-22)
(0.0524961 -0.0999947 1.65888e-21)
(0.045427 -0.110794 1.72451e-22)
(0.037916 -0.122824 2.644e-22)
(0.0292881 -0.132152 2.69418e-22)
(0.0202015 -0.140267 -5.29893e-23)
(0.011788 -0.145901 -2.78952e-23)
(0.00481697 -0.149148 3.04837e-23)
(0.000781022 -0.150464 2.51073e-24)
(0.0583018 -0.0857416 0)
(0.0526285 -0.0963202 -1.10766e-21)
(0.048271 -0.112044 -4.51953e-22)
(0.0416711 -0.122588 0)
(0.0345779 -0.134402 -7.21273e-22)
(0.0265854 -0.143389 2.76687e-22)
(0.0181392 -0.150932 1.57442e-22)
(0.0104611 -0.156028 2.42514e-22)
(0.00414909 -0.158698 -3.03843e-23)
(0.000585801 -0.159561 2.27138e-23)
(0.0529689 -0.097604 0)
(0.0482192 -0.106984 1.11682e-21)
(0.0442257 -0.123012 0)
(0.0381754 -0.133256 1.30074e-21)
(0.0314823 -0.14468 -1.3075e-21)
(0.0241397 -0.153345 -3.29738e-22)
(0.0163115 -0.160288 7.96881e-23)
(0.00932725 -0.164934 -2.5293e-22)
(0.00360575 -0.167109 -4.58646e-23)
(0.000441459 -0.167674 -3.56369e-23)
(0.0479254 -0.108855 1.10767e-20)
(0.0441096 -0.116907 -4.16197e-21)
(0.0404067 -0.132897 -3.98345e-22)
(0.0349702 -0.14288 -1.74312e-21)
(0.028648 -0.153731 0)
(0.0219468 -0.162127 -3.52345e-22)
(0.0147065 -0.16845 1.25503e-22)
(0.0083614 -0.172746 3.92638e-22)
(0.00316391 -0.174499 1.51537e-23)
(0.000332135 -0.174892 -1.51276e-23)
(0.0432496 -0.119461 8.59141e-22)
(0.0403724 -0.126247 6.50281e-21)
(0.0368629 -0.141742 1.80957e-21)
(0.0320763 -0.151594 -1.8085e-21)
(0.0260921 -0.161673 -6.28012e-22)
(0.0199972 -0.169876 0)
(0.01331 -0.175568 -5.61671e-22)
(0.00753954 -0.179611 2.99656e-22)
(0.00280533 -0.181005 1.45888e-22)
(0.000246383 -0.181324 3.70076e-23)
(0.0390109 -0.129367 -1.53699e-21)
(0.037101 -0.135228 0)
(0.0336697 -0.149629 0)
(0.0295186 -0.159557 0)
(0.0238407 -0.168662 -4.86908e-22)
(0.0182844 -0.176754 1.11372e-21)
(0.0121112 -0.181809 5.79904e-22)
(0.00684233 -0.185685 -6.76978e-22)
(0.00251677 -0.186769 3.78531e-23)
(0.000175966 -0.187092 -7.40795e-23)
(0.0352302 -0.138457 -3.52239e-21)
(0.034341 -0.144102 4.84267e-21)
(0.0308735 -0.15667 -4.79712e-21)
(0.0272842 -0.166933 3.1143e-21)
(0.0218982 -0.174878 -3.77663e-21)
(0.0167882 -0.182929 0)
(0.0110924 -0.187343 -3.56122e-22)
(0.00625015 -0.191123 -1.69266e-23)
(0.00228698 -0.191937 -1.27732e-22)
(0.000113594 -0.192325 -4.40888e-23)
(0.0314385 -0.146465 -1.66402e-21)
(0.0316738 -0.153113 0)
(0.0282321 -0.163017 -4.7554e-21)
(0.0251318 -0.173878 7.39406e-21)
(0.0201126 -0.180517 -2.5417e-21)
(0.0153897 -0.188572 -2.69251e-22)
(0.0101798 -0.192342 3.55312e-22)
(0.00571799 -0.196076 4.33396e-23)
(0.00209546 -0.196648 2.64819e-22)
(5.36485e-05 -0.197153 8.71386e-23)
(0.0276728 -0.152773 -6.76095e-21)
(0.0289356 -0.162481 6.60099e-21)
(0.0258077 -0.168914 6.13693e-22)
(0.0230437 -0.180562 0)
(0.0184704 -0.185808 0)
(0.0140806 -0.193876 2.77463e-22)
(0.00935897 -0.196992 6.59367e-22)
(0.00523724 -0.200695 -6.4692e-22)
(0.00193459 -0.201042 -4.85253e-23)
(1.73147e-05 -0.201707 4.74331e-23)
(0.0289349 -0.161298 0)
(0.0291263 -0.184433 0)
(0.0255137 -0.18207 0)
(0.0220404 -0.195933 0)
(0.0174994 -0.198061 0)
(0.012962 -0.206247 0)
(0.0086238 -0.207802 0)
(0.00475583 -0.211391 0)
(0.00184772 -0.211133 0)
(6.38319e-05 -0.212128 0)
(0.0220855 -0.195735 0)
(0.0182489 -0.218442 0)
(0.016577 -0.211216 0)
(0.0133724 -0.224066 0)
(0.0109843 -0.222346 0)
(0.00794512 -0.229528 0)
(0.00549985 -0.228725 0)
(0.00305999 -0.23187 0)
(0.00132809 -0.2306 0)
(0.000100965 -0.23182 0)
(0.0211009 -0.232183 0)
(0.0165127 -0.25426 0)
(0.014303 -0.243541 0)
(0.0108813 -0.256099 0)
(0.00884417 -0.251494 0)
(0.0061353 -0.258537 0)
(0.00438047 -0.255929 0)
(0.00243706 -0.259161 0)
(0.00120789 -0.256969 0)
(0.000110537 -0.258542 0)
(0.019278 -0.27462 0)
(0.0143329 -0.296999 0)
(0.0122171 -0.28364 0)
(0.00887718 -0.296673 0)
(0.00729821 -0.289739 0)
(0.00490676 -0.297285 0)
(0.00370033 -0.293121 0)
(0.00206151 -0.296857 0)
(0.00117211 -0.293729 0)
(0.000104871 -0.295845 0)
(0.0178569 -0.326489 0)
(0.0129639 -0.349215 0)
(0.01075 -0.334515 0)
(0.00755805 -0.348289 0)
(0.00620735 -0.339837 0)
(0.00406128 -0.348212 0)
(0.00319568 -0.342865 0)
(0.00174323 -0.347352 0)
(0.00109439 -0.343393 0)
(6.50328e-05 -0.346244 0)
(0.0162236 -0.388505 0)
(0.0114942 -0.409822 0)
(0.00940878 -0.396133 0)
(0.00637163 -0.409755 0)
(0.0052393 -0.401244 0)
(0.00326223 -0.409972 0)
(0.00261942 -0.404232 0)
(0.00127684 -0.409249 0)
(0.000846068 -0.404893 0)
(-3.56582e-05 -0.408382 0)
(0.0136351 -0.455043 0)
(0.00944725 -0.472363 0)
(0.00770347 -0.462407 0)
(0.00503358 -0.474052 0)
(0.00411667 -0.467338 0)
(0.00234763 -0.475105 0)
(0.00183335 -0.470152 0)
(0.00062954 -0.474834 0)
(0.000419097 -0.47088 0)
(-0.000157862 -0.474422 0)
(0.010282 -0.514663 0)
(0.00705425 -0.526701 0)
(0.00563916 -0.521794 0)
(0.00356177 -0.529969 0)
(0.00282231 -0.526143 0)
(0.0014026 -0.531634 0)
(0.000971726 -0.52835 0)
(1.77731e-05 -0.531675 0)
(5.83065e-06 -0.52883 0)
(-0.000224706 -0.531531 0)
(0.00630535 -0.55732 0)
(0.00422566 -0.564449 0)
(0.00335592 -0.563919 0)
(0.0020515 -0.568669 0)
(0.00159177 -0.567606 0)
(0.000663672 -0.570547 0)
(0.000369856 -0.569024 0)
(-0.000246646 -0.570622 0)
(-0.000166485 -0.569062 0)
(-0.000192428 -0.570456 0)
(0.00205302 -0.578705 0)
(0.00129721 -0.583589 0)
(0.00108756 -0.585445 0)
(0.000642872 -0.588206 0)
(0.000522563 -0.588631 0)
(0.000187023 -0.590036 0)
(9.37825e-05 -0.589529 0)
(-0.000130381 -0.59007 0)
(-8.20269e-05 -0.589302 0)
(-7.54777e-05 -0.589853 0)
(0.0269961 -0.173349 7.81268e-21)
(0.0230608 -0.208736 -7.66329e-21)
(0.0231826 -0.246792 9.76289e-22)
(0.0216019 -0.290673 0)
(0.0204082 -0.342718 0)
(0.0185522 -0.402735 1.09104e-21)
(0.0156816 -0.464878 -4.64027e-21)
(0.0118999 -0.519059 4.58574e-21)
(0.00747749 -0.557249 1.2395e-21)
(0.00254979 -0.576173 -1.22064e-21)
(0.0267089 -0.179293 -9.22066e-21)
(0.0238256 -0.214221 0)
(0.024182 -0.252166 6.53342e-21)
(0.0226696 -0.296098 -1.4993e-20)
(0.021541 -0.347915 9.55003e-21)
(0.0195783 -0.407065 -9.98159e-22)
(0.0165894 -0.467603 2.19915e-21)
(0.0126308 -0.520005 4.60913e-21)
(0.0080024 -0.556748 1.28783e-21)
(0.00276053 -0.575104 1.25293e-21)
(0.0268538 -0.185433 1.07833e-20)
(0.0250704 -0.220158 -7.29209e-21)
(0.0255112 -0.257667 7.22305e-21)
(0.0240165 -0.301249 -7.88367e-21)
(0.0228831 -0.352568 5.84323e-21)
(0.0207553 -0.410678 0)
(0.0175817 -0.469596 -2.20456e-21)
(0.013386 -0.520353 1.10965e-22)
(0.00848246 -0.555846 -2.41072e-21)
(0.00292024 -0.573805 -2.46133e-21)
(0.0274526 -0.190742 -1.74208e-21)
(0.0266867 -0.225569 0)
(0.0271486 -0.26284 0)
(0.0256503 -0.306124 0)
(0.024451 -0.356952 6.42638e-21)
(0.0221135 -0.414019 -4.29084e-21)
(0.0187006 -0.471364 -2.30099e-23)
(0.0142066 -0.520496 -2.57607e-21)
(0.00896144 -0.554755 -1.31793e-21)
(0.00305518 -0.572178 -1.4046e-21)
(0.0286064 -0.195412 8.20529e-23)
(0.0286346 -0.230149 -5.23901e-21)
(0.0290459 -0.267244 -3.88715e-21)
(0.0275292 -0.310345 3.88477e-21)
(0.0262179 -0.360772 -2.10681e-21)
(0.0236456 -0.416905 0)
(0.0199646 -0.47283 -2.4231e-21)
(0.0151325 -0.520445 5.2628e-21)
(0.00949929 -0.553523 -2.68954e-21)
(0.0032045 -0.570308 2.75469e-21)
(0.0303738 -0.199604 -1.40086e-20)
(0.0309474 -0.234001 1.57293e-21)
(0.0312154 -0.2708 -2.33079e-22)
(0.0296411 -0.313712 3.98414e-21)
(0.028169 -0.36377 0)
(0.0253405 -0.419075 0)
(0.0213721 -0.473767 0)
(0.0161769 -0.520063 2.81376e-21)
(0.0101245 -0.552099 0)
(0.00338954 -0.568278 0)
(0.0327665 -0.203205 0)
(0.0336518 -0.237146 5.65905e-21)
(0.0336966 -0.27354 -3.816e-21)
(0.032006 -0.316204 -4.40778e-21)
(0.0303178 -0.365875 4.43075e-21)
(0.0272042 -0.420423 2.5862e-21)
(0.0229224 -0.474051 -2.57137e-21)
(0.0173374 -0.519246 -1.0046e-20)
(0.0108371 -0.550425 7.15785e-22)
(0.00361334 -0.566112 -2.42986e-21)
(0.0357891 -0.206041 0)
(0.0367529 -0.239491 -1.84737e-21)
(0.0365175 -0.275433 -1.02639e-21)
(0.034647 -0.317824 0)
(0.0326886 -0.367097 1.26498e-21)
(0.029256 -0.420953 -3.82614e-21)
(0.0246248 -0.47367 4.20952e-21)
(0.0186141 -0.517963 1.49268e-21)
(0.0116301 -0.548471 -1.62786e-21)
(0.00387243 -0.563794 3.2255e-21)
(0.0394518 -0.207986 1.71682e-21)
(0.0402516 -0.240944 1.98557e-21)
(0.039693 -0.276408 -4.51257e-22)
(0.0375766 -0.318545 5.77304e-22)
(0.0353012 -0.367438 1.21562e-21)
(0.0315148 -0.420694 2.01637e-21)
(0.0264924 -0.472656 -7.51145e-22)
(0.0200113 -0.516234 -8.07224e-22)
(0.0124991 -0.546234 1.63323e-21)
(0.00416386 -0.561301 8.82362e-22)
(0.0437647 -0.208939 -4.66549e-22)
(0.0441514 -0.24146 4.7065e-22)
(0.0432342 -0.276404 -5.27291e-22)
(0.0408007 -0.318333 -5.76578e-22)
(0.0381691 -0.36688 6.71815e-22)
(0.0339944 -0.419651 -1.36875e-21)
(0.0285395 -0.471024 1.14796e-21)
(0.0215402 -0.514071 4.08069e-22)
(0.0134487 -0.543716 0)
(0.00448891 -0.558619 -8.84324e-22)
(0.0487333 -0.208817 4.77659e-22)
(0.0484546 -0.241039 -4.8205e-22)
(0.0471533 -0.275385 -5.63981e-22)
(0.0443231 -0.317179 -6.20372e-22)
(0.0413029 -0.365412 -6.99592e-22)
(0.0367029 -0.417835 -4.43031e-23)
(0.0307731 -0.468795 4.0425e-22)
(0.023205 -0.511496 1.29768e-21)
(0.0144805 -0.540924 0)
(0.00484795 -0.555745 -9.6235e-22)
(0.0543584 -0.207593 0)
(0.053159 -0.239691 -2.17345e-21)
(0.0514609 -0.273361 3.92548e-21)
(0.0481441 -0.315087 6.21441e-22)
(0.0447131 -0.36303 1.4234e-21)
(0.0396489 -0.415232 2.31319e-21)
(0.0332079 -0.465942 -8.17749e-22)
(0.0250215 -0.508486 -8.79416e-22)
(0.0156061 -0.537846 1.93691e-21)
(0.00524514 -0.552669 9.60097e-22)
(0.0606364 -0.205326 0)
(0.0582582 -0.237409 -2.15638e-21)
(0.0561645 -0.27038 -1.17416e-21)
(0.0522694 -0.312077 0)
(0.0484072 -0.359787 -4.46346e-21)
(0.0428343 -0.411886 1.49494e-21)
(0.0358397 -0.462527 1.75243e-21)
(0.0269808 -0.50508 5.62818e-21)
(0.0168175 -0.534491 -1.93063e-21)
(0.00567583 -0.549388 4.15632e-21)
(0.067563 -0.202127 0)
(0.06375 -0.234182 2.17484e-21)
(0.061251 -0.266615 0)
(0.0566965 -0.30814 5.74312e-21)
(0.0523943 -0.355685 -5.77255e-21)
(0.0462752 -0.40775 -3.46024e-21)
(0.0386929 -0.458472 -6.85714e-23)
(0.0291159 -0.501202 -5.78474e-21)
(0.0181383 -0.530808 -9.64446e-22)
(0.00614818 -0.545863 -5.16965e-21)
(0.0751175 -0.198268 1.62058e-20)
(0.0696146 -0.229915 -6.17072e-21)
(0.066729 -0.262058 5.51672e-22)
(0.0614679 -0.30328 -5.42599e-21)
(0.0566648 -0.350775 0)
(0.0499656 -0.402928 -3.6029e-21)
(0.041746 -0.453908 -2.79336e-22)
(0.0313966 -0.496975 7.85358e-21)
(0.0195423 -0.526882 1.07185e-21)
(0.00664754 -0.542142 -1.0759e-21)
(0.0832763 -0.193747 -1.28365e-21)
(0.0759207 -0.224614 1.13585e-20)
(0.0725347 -0.256659 5.6366e-21)
(0.066576 -0.297593 -5.63276e-21)
(0.0612302 -0.345022 -3.32867e-21)
(0.0539364 -0.397293 0)
(0.0450512 -0.448635 -8.02161e-21)
(0.0338883 -0.492219 4.02196e-21)
(0.0210866 -0.522602 4.27815e-21)
(0.00720063 -0.538151 4.57948e-21)
(0.0919102 -0.188555 -2.22073e-21)
(0.0826589 -0.21861 0)
(0.0786302 -0.250649 0)
(0.0719905 -0.291353 0)
(0.0660575 -0.338805 -3.79802e-21)
(0.0581249 -0.391333 7.11443e-21)
(0.0485077 -0.443171 8.16593e-21)
(0.0364694 -0.487331 -1.2821e-20)
(0.0226707 -0.518184 2.28646e-21)
(0.00775463 -0.534016 -6.80135e-21)
(0.100867 -0.182772 -3.60762e-21)
(0.0898252 -0.211764 1.09619e-20)
(0.0850259 -0.243797 -1.08574e-20)
(0.0777601 -0.284096 1.35136e-20)
(0.0712423 -0.331418 -1.69723e-20)
(0.062694 -0.384119 0)
(0.052346 -0.436558 -4.26345e-21)
(0.0393947 -0.481589 -1.68874e-22)
(0.0244982 -0.51323 -4.7455e-21)
(0.0084076 -0.529481 -4.83069e-21)
(0.109904 -0.177296 -2.36307e-21)
(0.0972482 -0.205061 0)
(0.0914922 -0.237406 -1.4249e-20)
(0.0836167 -0.277522 2.66162e-20)
(0.0764602 -0.324997 -1.02532e-20)
(0.0672262 -0.378035 -2.0283e-21)
(0.0560647 -0.430975 4.25431e-21)
(0.0421586 -0.476495 -2.05822e-22)
(0.0261863 -0.508506 6.9314e-21)
(0.0089668 -0.524985 7.14852e-21)
(0.119442 -0.169395 -1.04444e-20)
(0.10611 -0.19515 1.02233e-20)
(0.0990204 -0.227585 1.5218e-21)
(0.0904909 -0.267206 0)
(0.0826518 -0.314584 0)
(0.0727686 -0.368078 1.97665e-21)
(0.0607899 -0.422224 8.95355e-21)
(0.0458164 -0.469325 -8.74922e-21)
(0.0285061 -0.502657 -2.3832e-21)
(0.00980719 -0.519694 2.34273e-21)
(0.130752 -0.170282 0)
(0.125175 -0.19174 0)
(0.114236 -0.225463 0)
(0.104144 -0.264401 0)
(0.0947092 -0.310835 0)
(0.0829949 -0.362604 0)
(0.0689881 -0.41462 0)
(0.0517927 -0.459676 0)
(0.0320813 -0.491751 0)
(0.0107452 -0.508585 0)
(0.153379 -0.154835 0)
(0.158152 -0.181283 0)
(0.140928 -0.218054 0)
(0.130455 -0.256448 0)
(0.118204 -0.302059 0)
(0.103269 -0.351362 0)
(0.0855706 -0.399782 0)
(0.0641696 -0.440836 0)
(0.0399201 -0.469165 0)
(0.0139671 -0.482867 0)
(0.184355 -0.139712 0)
(0.193651 -0.167685 0)
(0.169709 -0.204001 0)
(0.160145 -0.240862 0)
(0.143796 -0.285058 0)
(0.125069 -0.331108 0)
(0.102889 -0.375913 0)
(0.0766131 -0.414057 0)
(0.0471543 -0.441276 0)
(0.0154816 -0.456203 0)
(0.223332 -0.129174 0)
(0.234213 -0.156251 0)
(0.203956 -0.191185 0)
(0.196178 -0.226886 0)
(0.174019 -0.269366 0)
(0.151339 -0.311275 0)
(0.123832 -0.351879 0)
(0.0919023 -0.385485 0)
(0.0568218 -0.408191 0)
(0.0200624 -0.418302 0)
(0.269509 -0.115517 0)
(0.278561 -0.140213 0)
(0.242936 -0.172588 0)
(0.235558 -0.205478 0)
(0.204628 -0.243365 0)
(0.177547 -0.279321 0)
(0.143102 -0.315388 0)
(0.105038 -0.345478 0)
(0.0637557 -0.367861 0)
(0.020033 -0.381928 0)
(0.324381 -0.106148 0)
(0.329236 -0.127791 0)
(0.289591 -0.157738 0)
(0.280011 -0.186367 0)
(0.239256 -0.219247 0)
(0.209251 -0.250224 0)
(0.166892 -0.282292 0)
(0.122323 -0.307272 0)
(0.0749403 -0.32453 0)
(0.0277054 -0.329786 0)
(0.381503 -0.0867079 0)
(0.37787 -0.103745 0)
(0.335322 -0.128707 0)
(0.319368 -0.150572 0)
(0.269326 -0.177249 0)
(0.235827 -0.201904 0)
(0.181476 -0.227488 0)
(0.130769 -0.247721 0)
(0.0762125 -0.26751 0)
(0.0198595 -0.286748 0)
(0.441157 -0.0733896 0)
(0.428668 -0.0856354 0)
(0.386971 -0.105943 0)
(0.362349 -0.121881 0)
(0.30896 -0.144123 0)
(0.269807 -0.163024 0)
(0.20664 -0.184517 0)
(0.152339 -0.203066 0)
(0.0912916 -0.221572 0)
(0.0419339 -0.220224 0)
(0.484737 -0.0397054 0)
(0.465238 -0.0455862 0)
(0.414981 -0.0578044 0)
(0.381096 -0.065579 0)
(0.318446 -0.0789883 0)
(0.269112 -0.0878045 0)
(0.192673 -0.100397 0)
(0.128793 -0.111054 0)
(0.0540939 -0.132516 0)
(-0.0238607 -0.181333 0)
(0.701681 -0.0200783 0)
(0.677343 -0.0234314 0)
(0.633207 -0.0285392 0)
(0.594877 -0.0330652 0)
(0.536994 -0.0399692 0)
(0.482614 -0.0466469 0)
(0.406733 -0.0572082 0)
(0.32859 -0.0714688 0)
(0.224279 -0.10012 0)
(0.15741 -0.156796 0)
(0.156802 -0.150384 1.089e-20)
(0.182203 -0.133978 -1.07289e-20)
(0.214252 -0.119649 1.68075e-21)
(0.252869 -0.109768 0)
(0.298673 -0.0976835 0)
(0.351173 -0.0893666 2.44666e-21)
(0.406421 -0.072398 -1.15556e-20)
(0.462235 -0.0618055 1.14235e-20)
(0.511669 -0.0326461 3.25003e-21)
(0.723068 -0.0173068 -3.27656e-21)
(0.16496 -0.141964 -1.05952e-20)
(0.189724 -0.125211 0)
(0.221486 -0.111571 1.18034e-20)
(0.260133 -0.10207 -2.83048e-20)
(0.306045 -0.0906261 1.89128e-20)
(0.358364 -0.0827376 -2.25886e-21)
(0.413514 -0.0666965 4.91925e-21)
(0.468879 -0.0571956 1.09798e-20)
(0.521347 -0.0298419 3.01685e-21)
(0.731204 -0.0161259 2.95798e-21)
(0.172023 -0.132605 1.23095e-20)
(0.196009 -0.116007 -1.14379e-20)
(0.226882 -0.103326 1.13297e-20)
(0.265314 -0.0943234 -1.4988e-20)
(0.311104 -0.0836084 1.09029e-20)
(0.363365 -0.0762652 0)
(0.418571 -0.061252 -4.93125e-21)
(0.4741 -0.0529391 -7.57971e-23)
(0.529594 -0.0273417 -5.68886e-21)
(0.73858 -0.0150054 -5.92609e-21)
(0.179171 -0.122665 -2.10041e-21)
(0.203055 -0.106541 0)
(0.2331 -0.0949126 0)
(0.271262 -0.0865144 0)
(0.316805 -0.0765907 1.223e-20)
(0.368835 -0.0699077 -8.30757e-21)
(0.423934 -0.0560219 -2.86543e-22)
(0.479456 -0.0489408 -5.59021e-21)
(0.537333 -0.025099 -2.85796e-21)
(0.745573 -0.0139688 -2.90755e-21)
(0.185782 -0.112374 1.68509e-21)
(0.209748 -0.0969985 -6.58833e-21)
(0.239313 -0.0864424 -6.32523e-21)
(0.277245 -0.0787263 6.32131e-21)
(0.322685 -0.0696256 -3.86757e-21)
(0.374579 -0.063681 0)
(0.429556 -0.0509631 -4.84314e-21)
(0.484987 -0.0450942 1.07379e-20)
(0.544786 -0.0230222 -5.40757e-21)
(0.752227 -0.0130048 5.8213e-21)
(0.191616 -0.101765 -1.59542e-20)
(0.21549 -0.0874428 1.09273e-21)
(0.244703 -0.0779625 -8.64619e-22)
(0.282457 -0.0710033 6.21391e-21)
(0.327824 -0.0627897 0)
(0.37977 -0.0576306 0)
(0.434732 -0.0460834 0)
(0.4902 -0.0413766 5.16668e-21)
(0.551744 -0.0210616 0)
(0.758428 -0.0120977 0)
(0.196633 -0.0908513 0)
(0.220276 -0.077848 7.60807e-21)
(0.249091 -0.0694852 -5.24263e-21)
(0.286738 -0.0633381 -6.99802e-21)
(0.331944 -0.0560718 7.03444e-21)
(0.384056 -0.0517733 4.43834e-21)
(0.439006 -0.0413891 -4.21529e-21)
(0.494772 -0.0377948 -1.78453e-20)
(0.557972 -0.0192063 1.26582e-21)
(0.764082 -0.0112437 -4.21441e-21)
(0.200741 -0.079663 0)
(0.224129 -0.0681921 -2.37271e-21)
(0.252546 -0.0609927 -1.3892e-21)
(0.290048 -0.0557186 0)
(0.335142 -0.0494518 2.08255e-21)
(0.387387 -0.0460593 -6.03351e-21)
(0.442312 -0.0368662 7.07166e-21)
(0.498589 -0.0343595 2.68506e-21)
(0.56329 -0.0174446 -2.66528e-21)