/*--------------------------------*- C++ -*----------------------------------*\
  =========                 |
  \\      /  F ield         | OpenFOAM: The Open Source CFD Toolbox
   \\    /   O peration     | Website:  https://openfoam.org
    \\  /    A nd           | Version:  7
     \\/     M anipulation  |
\*---------------------------------------------------------------------------*/
FoamFile
{
    version     2.0;
    format      ascii;
    class       volScalarField;
    location    "7.7";
    object      p;
}
// * * * * * * * * * * * * * * * * * * * * * * * * * * * * * * * * * * * * * //

dimensions      [0 2 -2 0 0 0 0];

internalField   nonuniform List<scalar> 
32000
(
0.315113
0.315699
0.315992
0.316258
0.316497
0.316725
0.316935
0.317133
0.317346
0.317605
0.317931
0.318331
0.318812
0.319384
0.320056
0.32084
0.321744
0.322779
0.323953
0.325275
0.326751
0.328385
0.330172
0.332106
0.334179
0.336384
0.338712
0.341153
0.343696
0.346328
0.349036
0.351809
0.354634
0.357497
0.360385
0.363286
0.366187
0.369085
0.371952
0.37473
0.315282
0.315836
0.316103
0.316338
0.316547
0.316747
0.316929
0.317101
0.317292
0.317528
0.317826
0.318196
0.318646
0.319186
0.319825
0.320573
0.321439
0.322431
0.323557
0.324828
0.32625
0.327825
0.32955
0.331416
0.333416
0.335543
0.337792
0.340152
0.342614
0.345166
0.347795
0.350489
0.353234
0.356018
0.358829
0.361654
0.364482
0.367307
0.370098
0.372812
0.315458
0.315978
0.316218
0.316423
0.316603
0.316774
0.31693
0.317078
0.317249
0.317465
0.317739
0.318082
0.318503
0.319013
0.319622
0.320338
0.321169
0.322122
0.323206
0.324432
0.325804
0.327326
0.328991
0.330791
0.332721
0.334774
0.336945
0.339227
0.34161
0.344083
0.346632
0.349245
0.35191
0.354615
0.357346
0.360092
0.362844
0.365594
0.368307
0.370954
0.315632
0.316109
0.316328
0.316507
0.31666
0.316804
0.316936
0.317065
0.317219
0.317418
0.317672
0.317991
0.318387
0.31887
0.319451
0.320139
0.320938
0.321857
0.322904
0.324089
0.325417
0.326888
0.328496
0.330234
0.332095
0.334076
0.336173
0.338379
0.340685
0.343078
0.345548
0.348081
0.350665
0.353287
0.355937
0.358602
0.361276
0.363948
0.366579
0.369157
0.315815
0.316249
0.316446
0.316602
0.316729
0.316846
0.316956
0.317069
0.317209
0.317392
0.317628
0.317926
0.318299
0.318758
0.319315
0.319976
0.320748
0.321637
0.322651
0.3238
0.325087
0.326511
0.328064
0.329741
0.331537
0.33345
0.335476
0.337608
0.339838
0.342153
0.344543
0.346995
0.349497
0.352037
0.354603
0.357186
0.359779
0.362371
0.364917
0.367422
0.316001
0.31639
0.316565
0.316698
0.316802
0.316895
0.316985
0.317085
0.317213
0.317383
0.317604
0.317884
0.318238
0.318678
0.319212
0.31985
0.320598
0.321462
0.322448
0.323565
0.324815
0.326194
0.327695
0.329314
0.331048
0.332896
0.334854
0.336915
0.33907
0.341308
0.343618
0.345989
0.348409
0.350865
0.353347
0.355846
0.358355
0.360864
0.363322
0.365751
0.316194
0.316536
0.31669
0.316801
0.316883
0.316956
0.31703
0.317117
0.317235
0.317394
0.317603
0.317869
0.318208
0.318631
0.319146
0.319765
0.320492
0.321335
0.322298
0.323387
0.324602
0.325938
0.32739
0.328954
0.330631
0.332417
0.334309
0.336301
0.338382
0.340544
0.342775
0.345065
0.347402
0.349774
0.352171
0.354583
0.357006
0.359428
0.361796
0.364145
0.316392
0.316686
0.316819
0.31691
0.316973
0.317029
0.317088
0.317165
0.317274
0.317425
0.317624
0.317881
0.318208
0.318617
0.319117
0.319719
0.320431
0.321256
0.3222
0.323265
0.324447
0.325742
0.327148
0.328663
0.330285
0.332013
0.333842
0.335766
0.337776
0.339862
0.342014
0.344224
0.346478
0.348764
0.351074
0.353399
0.355733
0.358066
0.36034
0.362605
0.316592
0.316837
0.316951
0.317023
0.31707
0.317112
0.31716
0.317228
0.31733
0.317474
0.317667
0.317919
0.318238
0.318636
0.319124
0.319714
0.320414
0.321227
0.322155
0.323197
0.32435
0.325608
0.326972
0.32844
0.330011
0.331683
0.333453
0.335311
0.33725
0.339262
0.341337
0.343466
0.345637
0.347837
0.350059
0.352294
0.354538
0.356779
0.358956
0.361135
0.316795
0.31699
0.317085
0.317141
0.317175
0.317205
0.317244
0.317304
0.317401
0.317541
0.317733
0.317982
0.318296
0.318687
0.319167
0.31975
0.320441
0.321246
0.322161
0.323184
0.32431
0.325535
0.32686
0.328285
0.329808
0.331428
0.33314
0.334935
0.336806
0.338745
0.340744
0.342793
0.344879
0.346993
0.349126
0.351269
0.353421
0.355567
0.357646
0.359734
0.316998
0.317142
0.317219
0.317262
0.317285
0.317307
0.317338
0.317393
0.317487
0.317627
0.317819
0.318069
0.318383
0.318771
0.319247
0.319826
0.320514
0.321312
0.322218
0.323224
0.324326
0.325522
0.326813
0.328198
0.329677
0.331248
0.332904
0.334638
0.336442
0.33831
0.340234
0.342203
0.344206
0.346233
0.348276
0.350326
0.352383
0.354433
0.356411
0.358406
0.3172
0.317294
0.317354
0.317384
0.3174
0.317415
0.317441
0.317494
0.317587
0.31773
0.317926
0.31818
0.318496
0.318885
0.319362
0.319942
0.32063
0.321425
0.322323
0.323315
0.324398
0.325568
0.326828
0.328178
0.329617
0.331141
0.332744
0.334419
0.336158
0.337957
0.339806
0.341697
0.343617
0.345557
0.347508
0.349465
0.351425
0.353378
0.355253
0.357151
0.317402
0.317444
0.317488
0.317507
0.317517
0.317528
0.317552
0.317605
0.317701
0.317849
0.318052
0.318312
0.318634
0.319029
0.319513
0.320097
0.320788
0.321582
0.322474
0.323455
0.324522
0.325672
0.326905
0.328223
0.329625
0.331105
0.332657
0.334275
0.335952
0.337683
0.33946
0.341273
0.343111
0.344963
0.346823
0.348686
0.350549
0.352401
0.354173
0.355971
0.317602
0.317592
0.317621
0.317631
0.317635
0.317644
0.317669
0.317725
0.317827
0.317982
0.318194
0.318464
0.318796
0.319202
0.319696
0.320289
0.320985
0.321781
0.322668
0.323642
0.324697
0.32583
0.327041
0.328332
0.329699
0.331138
0.332642
0.334205
0.335822
0.337489
0.339195
0.340931
0.342687
0.344453
0.346222
0.347989
0.349754
0.351506
0.353173
0.354868
0.3178
0.317738
0.317752
0.317752
0.317753
0.317763
0.317791
0.317853
0.317962
0.318127
0.31835
0.318633
0.318979
0.319401
0.31991
0.320515
0.321219
0.322017
0.322904
0.323874
0.324921
0.326041
0.327234
0.328501
0.329837
0.331237
0.332696
0.334207
0.335768
0.337371
0.339009
0.34067
0.342345
0.344024
0.345702
0.347375
0.349041
0.350692
0.352255
0.353845
0.317996
0.317882
0.31788
0.317871
0.31787
0.317881
0.317916
0.317986
0.318105
0.318283
0.31852
0.318818
0.319183
0.319624
0.320152
0.320772
0.321486
0.32229
0.323179
0.324148
0.32519
0.326301
0.32748
0.328726
0.330035
0.3314
0.332816
0.334279
0.335786
0.337329
0.3389
0.340488
0.342083
0.343677
0.345265
0.346843
0.348412
0.349962
0.35142
0.352903
0.318188
0.318022
0.318005
0.317986
0.317983
0.317999
0.318042
0.318123
0.318256
0.318447
0.3187
0.319018
0.319406
0.31987
0.320419
0.321057
0.321783
0.322595
0.32349
0.324461
0.325502
0.326608
0.327777
0.329006
0.330289
0.331622
0.333
0.334418
0.335874
0.33736
0.338866
0.340382
0.341899
0.34341
0.34491
0.346395
0.347866
0.349316
0.35067
0.352044
0.318376
0.318158
0.318125
0.318096
0.318091
0.318113
0.318167
0.318263
0.318411
0.318619
0.318891
0.319232
0.319644
0.320135
0.320708
0.321366
0.322107
0.322931
0.323834
0.324811
0.325855
0.326959
0.328121
0.329335
0.330597
0.331902
0.333244
0.334621
0.336029
0.33746
0.338904
0.340351
0.341792
0.343222
0.344635
0.346029
0.347404
0.348755
0.350007
0.35127
0.318559
0.31829
0.31824
0.318199
0.318194
0.318224
0.318292
0.318404
0.318569
0.318797
0.319091
0.319457
0.319898
0.320417
0.321016
0.321696
0.322456
0.323295
0.32421
0.325196
0.326245
0.327351
0.328507
0.32971
0.330954
0.332234
0.333545
0.334884
0.336247
0.337625
0.33901
0.34039
0.341759
0.343111
0.34444
0.345744
0.347026
0.348278
0.34943
0.350582
0.318734
0.318414
0.318347
0.318295
0.318291
0.31833
0.318413
0.318544
0.31873
0.318979
0.319298
0.319692
0.320163
0.320713
0.32134
0.322046
0.322827
0.323684
0.324614
0.325612
0.326669
0.327778
0.328933
0.330128
0.331357
0.332615
0.333898
0.335202
0.336523
0.337852
0.33918
0.340498
0.341798
0.343074
0.344322
0.34554
0.34673
0.347887
0.348941
0.349981
0.3189
0.318529
0.318445
0.318382
0.318379
0.318429
0.318529
0.318681
0.31889
0.319164
0.31951
0.319934
0.320438
0.32102
0.321677
0.32241
0.323216
0.324094
0.325042
0.326054
0.327122
0.328237
0.329393
0.330582
0.3318
0.33304
0.334298
0.335571
0.336853
0.338136
0.339411
0.34067
0.341904
0.343108
0.344279
0.345415
0.346516
0.34758
0.348539
0.349468
0.319053
0.318633
0.318531
0.318458
0.318457
0.31852
0.318639
0.318814
0.319047
0.319348
0.319724
0.320181
0.320718
0.321334
0.322024
0.322786
0.323619
0.324521
0.32549
0.326518
0.327599
0.328722
0.329882
0.33107
0.332278
0.333503
0.334739
0.335984
0.337231
0.338472
0.339698
0.340902
0.342074
0.343211
0.344309
0.345366
0.346382
0.347356
0.348225
0.349043
0.31919
0.318721
0.318602
0.318521
0.318524
0.3186
0.31874
0.318939
0.3192
0.31953
0.319938
0.320429
0.321002
0.321652
0.322376
0.323169
0.324031
0.32496
0.325951
0.326999
0.328095
0.32923
0.330396
0.331584
0.332787
0.333999
0.335217
0.336436
0.337651
0.338854
0.340036
0.341188
0.342304
0.343378
0.344407
0.345389
0.346324
0.347212
0.347996
0.348706
0.319308
0.318791
0.318657
0.318569
0.318577
0.318668
0.31883
0.319055
0.319345
0.319706
0.320148
0.320674
0.321284
0.321971
0.322729
0.323557
0.32445
0.325407
0.326423
0.327492
0.328605
0.329754
0.330928
0.332119
0.333318
0.334521
0.335723
0.33692
0.338107
0.339276
0.340417
0.341523
0.342586
0.343602
0.344567
0.34548
0.346339
0.347147
0.347851
0.348455
0.319403
0.31884
0.318693
0.318599
0.318614
0.318722
0.318906
0.319159
0.319479
0.319873
0.320351
0.320915
0.321562
0.322286
0.323082
0.323944
0.32487
0.325857
0.3269
0.327991
0.329124
0.330288
0.331473
0.332669
0.333868
0.335063
0.336252
0.337431
0.338592
0.33973
0.340835
0.341898
0.342913
0.343876
0.344783
0.345632
0.346422
0.347154
0.347784
0.348286
0.319472
0.318867
0.318707
0.318611
0.318634
0.318759
0.318968
0.319249
0.319601
0.32003
0.320544
0.321147
0.321833
0.322595
0.323428
0.324327
0.325287
0.326306
0.327376
0.328492
0.329646
0.330827
0.332025
0.333228
0.334427
0.335618
0.336796
0.337959
0.339099
0.340209
0.34128
0.342305
0.343277
0.344192
0.345047
0.345839
0.346564
0.347228
0.347793
0.348198
0.319514
0.318868
0.318699
0.318602
0.318635
0.318779
0.319012
0.319322
0.319707
0.320173
0.320726
0.321367
0.322093
0.322895
0.323766
0.324702
0.325698
0.326748
0.327848
0.328989
0.330165
0.331365
0.332577
0.333788
0.33499
0.336178
0.337348
0.338497
0.339618
0.340703
0.341744
0.342734
0.343668
0.34454
0.34535
0.34609
0.346759
0.347362
0.347869
0.348182
0.319526
0.318843
0.318666
0.31857
0.318616
0.318778
0.319035
0.319375
0.319795
0.320299
0.320892
0.321574
0.322339
0.323181
0.324091
0.325065
0.326096
0.32718
0.328309
0.329477
0.330676
0.331895
0.333121
0.334342
0.335548
0.336735
0.337899
0.339036
0.34014
0.341203
0.342218
0.343177
0.344076
0.344912
0.345681
0.346377
0.346996
0.347546
0.348004
0.348234
0.319506
0.318788
0.318607
0.318515
0.318574
0.318756
0.319038
0.319407
0.319863
0.320406
0.32104
0.321763
0.322569
0.323449
0.324399
0.325411
0.326479
0.327596
0.328755
0.32995
0.331172
0.332411
0.333652
0.334883
0.336095
0.337282
0.338441
0.339568
0.340657
0.3417
0.34269
0.343622
0.344491
0.345295
0.346029
0.346687
0.347264
0.347769
0.348189
0.348344
0.31945
0.318703
0.318519
0.318434
0.318508
0.318709
0.319016
0.319416
0.319907
0.32049
0.321166
0.32193
0.322777
0.323697
0.324686
0.325736
0.326841
0.327991
0.32918
0.330401
0.331648
0.332906
0.334163
0.335404
0.336621
0.33781
0.338966
0.340084
0.341158
0.342183
0.34315
0.344058
0.3449
0.345676
0.346381
0.347008
0.34755
0.34802
0.348411
0.348502
0.319358
0.318584
0.318401
0.318326
0.318415
0.318637
0.318969
0.3194
0.319926
0.320549
0.321267
0.322073
0.32296
0.32392
0.324948
0.326036
0.327176
0.32836
0.329578
0.330826
0.332096
0.333373
0.334645
0.335897
0.33712
0.338311
0.339463
0.340573
0.341634
0.342641
0.343588
0.344472
0.345291
0.346043
0.346722
0.347324
0.34784
0.348284
0.348658
0.348697
0.319226
0.31843
0.318251
0.318188
0.318295
0.318538
0.318895
0.319355
0.319917
0.32058
0.321339
0.322187
0.323115
0.324114
0.325181
0.326306
0.327482
0.328697
0.329945
0.331219
0.332511
0.333807
0.335092
0.336354
0.337583
0.338775
0.339924
0.341025
0.342073
0.343062
0.34399
0.344853
0.34565
0.346379
0.347038
0.34762
0.348117
0.348544
0.348914
0.348915
0.319052
0.31824
0.318067
0.318017
0.318143
0.318408
0.31879
0.319281
0.319878
0.320579
0.32138
0.32227
0.323237
0.324276
0.32538
0.326543
0.327752
0.328999
0.330275
0.331574
0.332886
0.334199
0.335498
0.336768
0.338002
0.339195
0.340339
0.341431
0.342464
0.343437
0.344344
0.345186
0.345962
0.34667
0.34731
0.347877
0.348361
0.348782
0.349161
0.349141
0.318835
0.31801
0.317847
0.317813
0.317959
0.318246
0.318654
0.319175
0.319806
0.320546
0.321388
0.322317
0.323324
0.324401
0.325543
0.326741
0.327983
0.32926
0.330563
0.331885
0.333217
0.334545
0.335854
0.337132
0.33837
0.33956
0.340699
0.341779
0.342797
0.343751
0.344638
0.345458
0.346211
0.346898
0.34752
0.348074
0.348552
0.348976
0.349378
0.349359
0.318573
0.31774
0.317588
0.317572
0.317739
0.318051
0.318485
0.319034
0.3197
0.320478
0.321359
0.322328
0.323373
0.324487
0.325665
0.326897
0.328171
0.329475
0.330803
0.332147
0.333497
0.334838
0.336156
0.337438
0.338677
0.339864
0.340993
0.34206
0.343061
0.343993
0.344857
0.345653
0.346381
0.347044
0.347647
0.348188
0.348663
0.3491
0.349541
0.349549
0.318264
0.317428
0.31729
0.317293
0.317483
0.317819
0.31828
0.318859
0.319558
0.320373
0.321291
0.322298
0.32338
0.324531
0.325743
0.327007
0.32831
0.329641
0.330992
0.332355
0.33372
0.335071
0.336395
0.337679
0.338915
0.340095
0.341213
0.342263
0.343243
0.344152
0.34499
0.345756
0.346455
0.34709
0.347668
0.348192
0.348665
0.34912
0.349618
0.349688
0.317906
0.317072
0.316949
0.316974
0.317189
0.317551
0.318038
0.318647
0.319378
0.320228
0.321183
0.322226
0.323344
0.324529
0.325774
0.327068
0.328398
0.329753
0.331124
0.332504
0.33388
0.335238
0.336565
0.337848
0.339078
0.340248
0.34135
0.34238
0.343335
0.344216
0.345022
0.345754
0.346416
0.347014
0.347558
0.348058
0.348521
0.348993
0.349562
0.349742
0.317498
0.316671
0.316566
0.316615
0.316856
0.317244
0.317758
0.318396
0.319159
0.320043
0.321032
0.32211
0.323261
0.324479
0.325754
0.327075
0.32843
0.329805
0.331194
0.332586
0.333971
0.335333
0.336659
0.337937
0.339157
0.340312
0.341395
0.3424
0.343327
0.344174
0.344942
0.345631
0.346247
0.346796
0.347291
0.347749
0.348185
0.348664
0.349318
0.349692
0.31704
0.316225
0.316139
0.316213
0.316481
0.316896
0.317438
0.318104
0.318898
0.319814
0.320837
0.321946
0.323129
0.324377
0.325679
0.327025
0.328401
0.329794
0.331197
0.332598
0.333987
0.335349
0.33667
0.337939
0.339145
0.340281
0.341339
0.342315
0.343207
0.344014
0.344737
0.345374
0.345931
0.346415
0.346839
0.347224
0.347601
0.348066
0.348856
0.349635
0.316531
0.315733
0.315669
0.315769
0.316064
0.316506
0.317075
0.317771
0.318595
0.319542
0.320595
0.321734
0.322946
0.32422
0.325547
0.326915
0.328308
0.329715
0.331128
0.332534
0.333923
0.33528
0.336592
0.337847
0.339035
0.340146
0.341175
0.342117
0.342968
0.343729
0.344397
0.344972
0.345455
0.34585
0.346166
0.34642
0.346644
0.346963
0.347681
0.348738
0.38423
0.397494
0.408647
0.417749
0.424732
0.430325
0.434656
0.438187
0.44108
0.443563
0.445717
0.447606
0.449278
0.450788
0.452132
0.453325
0.454376
0.45531
0.456114
0.456797
0.457367
0.457838
0.458198
0.458458
0.458614
0.458661
0.458622
0.458486
0.458249
0.457918
0.45748
0.456953
0.456324
0.455594
0.454761
0.453829
0.45282
0.451697
0.45068
0.449314
0.38237
0.395439
0.406702
0.415833
0.422884
0.428517
0.432897
0.436474
0.439413
0.441928
0.444113
0.446045
0.447763
0.4493
0.450672
0.451906
0.452995
0.453948
0.454773
0.455487
0.456087
0.456575
0.456959
0.45723
0.457402
0.457473
0.457448
0.457322
0.457099
0.456775
0.456356
0.455835
0.455218
0.454501
0.453681
0.452758
0.451758
0.450646
0.449638
0.44828
0.380551
0.393401
0.404762
0.413914
0.421031
0.426702
0.43113
0.434755
0.437741
0.440289
0.442507
0.444483
0.446247
0.447812
0.449212
0.450486
0.451611
0.452585
0.453433
0.454177
0.454804
0.45531
0.455716
0.456001
0.456188
0.456284
0.456272
0.456158
0.455952
0.455636
0.455237
0.454722
0.454118
0.453413
0.452606
0.451693
0.450704
0.449604
0.448605
0.447258
0.378775
0.391386
0.402826
0.411991
0.419167
0.424882
0.429357
0.433027
0.436057
0.438648
0.440905
0.44292
0.444724
0.446325
0.44776
0.449064
0.45022
0.451224
0.452099
0.452866
0.453517
0.454043
0.454469
0.454774
0.454978
0.455091
0.455095
0.454996
0.454804
0.454504
0.454119
0.453618
0.453027
0.452332
0.451537
0.450636
0.449659
0.448571
0.447583
0.446249
0.377041
0.389394
0.400895
0.410065
0.417293
0.423054
0.427577
0.431291
0.434366
0.437004
0.439305
0.441357
0.443198
0.444839
0.446311
0.447643
0.448827
0.449863
0.450769
0.451557
0.452229
0.452776
0.453221
0.453549
0.45377
0.453898
0.453917
0.453836
0.453659
0.453376
0.453003
0.45252
0.451942
0.451258
0.450474
0.449585
0.448623
0.447547
0.446571
0.445251
0.375346
0.387425
0.398967
0.408134
0.415409
0.421217
0.425788
0.42955
0.432671
0.435357
0.437703
0.439794
0.441673
0.443354
0.444862
0.446224
0.447437
0.448505
0.449439
0.450249
0.450943
0.451511
0.451975
0.452325
0.452564
0.452707
0.452743
0.452679
0.452517
0.452252
0.451893
0.451427
0.450863
0.450191
0.44942
0.448544
0.447597
0.446533
0.445568
0.444262
0.373691
0.385482
0.397043
0.406198
0.413515
0.419368
0.42399
0.427803
0.430972
0.433707
0.436099
0.438232
0.44015
0.44187
0.443414
0.444807
0.446051
0.447148
0.448111
0.448943
0.449659
0.450249
0.45073
0.451101
0.451359
0.451518
0.451572
0.451525
0.45138
0.451132
0.450788
0.450338
0.449789
0.449131
0.448374
0.44751
0.446579
0.445529
0.444575
0.443282
0.372075
0.383565
0.395121
0.404256
0.411609
0.417508
0.422182
0.426048
0.429269
0.432054
0.434494
0.436671
0.438628
0.440387
0.441968
0.443392
0.444667
0.445793
0.446784
0.44764
0.448377
0.448989
0.449489
0.44988
0.450156
0.450333
0.450404
0.450375
0.450247
0.450016
0.449689
0.449255
0.448721
0.448078
0.447336
0.446486
0.44557
0.444534
0.443592
0.442311
0.370499
0.381678
0.393203
0.40231
0.409692
0.415635
0.420362
0.424286
0.42756
0.4304
0.432888
0.43511
0.437108
0.438907
0.440524
0.441981
0.443286
0.44444
0.445459
0.446338
0.447097
0.447732
0.44825
0.448661
0.448956
0.449151
0.449241
0.449229
0.449119
0.448906
0.448594
0.448178
0.447659
0.447032
0.446307
0.445472
0.444571
0.443549
0.442618
0.441349
0.368963
0.379821
0.391289
0.400358
0.407761
0.413749
0.418531
0.422514
0.425847
0.428742
0.431282
0.433551
0.435591
0.437428
0.439083
0.440572
0.441909
0.44309
0.444136
0.44504
0.44582
0.446477
0.447014
0.447445
0.44776
0.447972
0.448081
0.448087
0.447995
0.4478
0.447505
0.447107
0.446604
0.445993
0.445285
0.444466
0.443581
0.442574
0.441654
0.440396
0.367467
0.377998
0.389378
0.398401
0.405817
0.411848
0.416688
0.420734
0.424128
0.427082
0.429676
0.431993
0.434076
0.435954
0.437646
0.439167
0.440534
0.441744
0.442816
0.443744
0.444545
0.445226
0.445781
0.446233
0.446567
0.446798
0.446926
0.44695
0.446876
0.446699
0.446421
0.446041
0.445555
0.444962
0.444271
0.443469
0.4426
0.441608
0.440699
0.439452
0.366011
0.376211
0.387471
0.396439
0.403858
0.409931
0.41483
0.418943
0.422403
0.425419
0.42807
0.430437
0.432566
0.434483
0.436213
0.437766
0.439164
0.440401
0.441498
0.442452
0.443274
0.443977
0.444552
0.445023
0.445378
0.445627
0.445774
0.445817
0.445762
0.445603
0.445342
0.44498
0.444512
0.443938
0.443265
0.442481
0.441628
0.440651
0.439754
0.438517
0.364597
0.374463
0.38557
0.394472
0.401885
0.407998
0.412957
0.417141
0.420671
0.423753
0.426464
0.428883
0.431059
0.433017
0.434784
0.43637
0.437797
0.439063
0.440185
0.441163
0.442006
0.442731
0.443326
0.443818
0.444193
0.44446
0.444627
0.444688
0.444652
0.444512
0.444269
0.443926
0.443476
0.442921
0.442267
0.441502
0.440664
0.439702
0.438817
0.43759
0.363224
0.372757
0.383676
0.392501
0.399895
0.406048
0.411067
0.415327
0.418931
0.422084
0.424857
0.427332
0.429556
0.431556
0.43336
0.434979
0.436436
0.437728
0.438875
0.439877
0.440741
0.441488
0.442104
0.442615
0.443011
0.443297
0.443483
0.443564
0.443546
0.443424
0.4432
0.442878
0.442445
0.441911
0.441277
0.440531
0.43971
0.438763
0.437889
0.436673
0.361895
0.371095
0.38179
0.390527
0.397888
0.404079
0.40916
0.4135
0.417182
0.420411
0.423251
0.425784
0.428058
0.430099
0.431941
0.433592
0.435078
0.436399
0.437569
0.438596
0.43948
0.440248
0.440886
0.441415
0.441833
0.442138
0.442343
0.442443
0.442444
0.442341
0.442136
0.441835
0.441421
0.440908
0.440294
0.439569
0.438763
0.437832
0.436971
0.435765
0.360611
0.369482
0.379915
0.38855
0.395865
0.40209
0.407234
0.411659
0.415425
0.418733
0.421644
0.424239
0.426563
0.428648
0.430527
0.432211
0.433726
0.435073
0.436268
0.437318
0.438223
0.439012
0.439671
0.440218
0.440657
0.440982
0.441206
0.441325
0.441346
0.441262
0.441076
0.440796
0.440404
0.439912
0.439318
0.438614
0.437825
0.436909
0.436061
0.434865
0.359372
0.36792
0.378052
0.386571
0.393826
0.400081
0.405288
0.409801
0.413657
0.417052
0.420037
0.422697
0.425073
0.427202
0.429118
0.430835
0.432379
0.433753
0.434971
0.436044
0.436971
0.437779
0.43846
0.439025
0.439484
0.43983
0.440072
0.44021
0.440252
0.440186
0.440021
0.439763
0.439392
0.438922
0.43835
0.437666
0.436896
0.435996
0.43516
0.433975
0.358181
0.366414
0.376205
0.384592
0.39177
0.398051
0.403322
0.407927
0.411878
0.415364
0.41843
0.421158
0.423588
0.425761
0.427715
0.429465
0.431038
0.432438
0.43368
0.434775
0.435723
0.43655
0.437253
0.437836
0.438315
0.43868
0.438941
0.439099
0.43916
0.439115
0.43897
0.438734
0.438385
0.437938
0.437387
0.436725
0.435974
0.435091
0.434268
0.433093
0.35704
0.364965
0.374377
0.382614
0.389699
0.395999
0.401334
0.406034
0.410088
0.413671
0.416822
0.41962
0.422107
0.424326
0.426319
0.428101
0.429703
0.43113
0.432394
0.433511
0.434481
0.435326
0.43605
0.436651
0.437148
0.437534
0.437814
0.43799
0.438071
0.438047
0.437923
0.437709
0.437383
0.436959
0.436431
0.435792
0.43506
0.434194
0.433384
0.432221
0.355951
0.363577
0.372572
0.380639
0.387613
0.393926
0.399324
0.404123
0.408285
0.411972
0.415212
0.418085
0.42063
0.422897
0.424929
0.426745
0.428375
0.429828
0.431114
0.432252
0.433244
0.434106
0.43485
0.435471
0.435985
0.436391
0.43669
0.436884
0.436986
0.436981
0.436879
0.436688
0.436386
0.435986
0.435481
0.434865
0.434155
0.433307
0.432509
0.431358
0.354916
0.362254
0.370794
0.378669
0.385516
0.39183
0.39729
0.402192
0.406469
0.410265
0.4136
0.416551
0.419158
0.421473
0.423546
0.425395
0.427053
0.428532
0.42984
0.430999
0.432013
0.432892
0.433655
0.434296
0.434826
0.435251
0.435568
0.435781
0.435902
0.435919
0.435839
0.435671
0.435394
0.435018
0.434538
0.433946
0.433257
0.432429
0.431644
0.430505
0.353937
0.360997
0.369048
0.376708
0.383407
0.389714
0.395234
0.400241
0.404638
0.408551
0.411986
0.415019
0.41769
0.420057
0.42217
0.424053
0.425739
0.427243
0.428573
0.429752
0.430787
0.431683
0.432464
0.433125
0.43367
0.434114
0.434449
0.434681
0.434822
0.43486
0.434803
0.434658
0.434406
0.434055
0.4336
0.433034
0.432368
0.43156
0.430789
0.429662
0.353016
0.35981
0.367339
0.374758
0.38129
0.387578
0.393155
0.398269
0.402793
0.406828
0.41037
0.413489
0.416227
0.418647
0.420802
0.422718
0.424432
0.425962
0.427313
0.428511
0.429565
0.430479
0.431278
0.431958
0.432518
0.43298
0.433334
0.433583
0.433745
0.433805
0.43377
0.433649
0.433423
0.433096
0.432668
0.432129
0.431487
0.430701
0.429945
0.42883
0.352155
0.358695
0.365671
0.372823
0.379169
0.385425
0.391053
0.396277
0.400933
0.405096
0.40875
0.411961
0.41477
0.417244
0.419441
0.421391
0.423132
0.424687
0.426059
0.427276
0.428349
0.429281
0.430095
0.430794
0.43137
0.43185
0.432221
0.432489
0.43267
0.432752
0.432741
0.432642
0.432443
0.432142
0.431742
0.43123
0.430614
0.429852
0.429113
0.428009
0.351357
0.357653
0.36405
0.370908
0.377046
0.383255
0.38893
0.394263
0.399057
0.403354
0.407127
0.410435
0.413317
0.415848
0.418088
0.420072
0.42184
0.423419
0.424812
0.426047
0.427138
0.428088
0.428918
0.429635
0.430226
0.430723
0.431112
0.431397
0.431599
0.431702
0.431714
0.431638
0.431466
0.431192
0.43082
0.430338
0.429748
0.429012
0.428293
0.427201
0.350623
0.356685
0.362481
0.369015
0.374927
0.381072
0.386788
0.392229
0.397164
0.401601
0.4055
0.40891
0.41187
0.41446
0.416743
0.418761
0.420556
0.422158
0.423571
0.424825
0.425933
0.4269
0.427745
0.42848
0.429086
0.429599
0.430006
0.430309
0.43053
0.430655
0.43069
0.430637
0.430492
0.430246
0.429903
0.429451
0.428891
0.428181
0.427485
0.426405
0.349953
0.35579
0.360969
0.36715
0.372817
0.378879
0.384628
0.390174
0.395255
0.399838
0.403869
0.407385
0.410427
0.413079
0.415406
0.417458
0.41928
0.420905
0.422337
0.423608
0.424733
0.425717
0.426577
0.427328
0.427951
0.428478
0.428903
0.429224
0.429463
0.42961
0.429668
0.429638
0.429519
0.429301
0.428988
0.428568
0.42804
0.427361
0.426689
0.425624
0.349351
0.354967
0.359518
0.365316
0.370719
0.37668
0.382452
0.3881
0.393328
0.398063
0.402233
0.405861
0.408989
0.411705
0.414077
0.416165
0.418012
0.419659
0.421109
0.422397
0.423538
0.424538
0.425413
0.42618
0.426818
0.42736
0.427803
0.428141
0.428399
0.428567
0.428647
0.42864
0.428548
0.428359
0.428077
0.42769
0.427197
0.42655
0.425907
0.424858
0.348816
0.354214
0.358132
0.36352
0.368641
0.374481
0.380263
0.386009
0.391386
0.396278
0.400591
0.404338
0.407556
0.410337
0.412757
0.41488
0.416753
0.41842
0.419888
0.421193
0.422349
0.423365
0.424253
0.425035
0.42569
0.426244
0.426705
0.42706
0.427335
0.427525
0.427626
0.427643
0.427577
0.427417
0.427167
0.426815
0.42636
0.42575
0.425139
0.424109
0.348349
0.353527
0.356813
0.361767
0.366589
0.372286
0.378065
0.383903
0.389428
0.394482
0.398945
0.402815
0.406127
0.408977
0.411446
0.413604
0.415502
0.417188
0.418674
0.419994
0.421165
0.422196
0.423098
0.423893
0.424564
0.425132
0.425608
0.425982
0.426273
0.426483
0.426605
0.426645
0.426606
0.426476
0.426258
0.425943
0.425529
0.42496
0.424385
0.423378
0.347952
0.352901
0.355564
0.360063
0.364571
0.370102
0.375864
0.381784
0.387458
0.392676
0.397293
0.401292
0.404702
0.407625
0.410144
0.412336
0.414259
0.415964
0.417467
0.418801
0.419986
0.421032
0.421947
0.422755
0.423441
0.424021
0.424513
0.424904
0.425212
0.425441
0.425585
0.425648
0.425635
0.425535
0.42535
0.425073
0.424703
0.42418
0.423648
0.422668
0.347625
0.352331
0.354388
0.358414
0.362593
0.367936
0.373664
0.379657
0.385477
0.390861
0.395637
0.39977
0.403283
0.40628
0.40885
0.411078
0.413026
0.414749
0.416268
0.417615
0.418813
0.419872
0.4208
0.421619
0.42232
0.422913
0.423419
0.423828
0.42415
0.4244
0.424564
0.42465
0.424662
0.424592
0.424441
0.424203
0.42388
0.423409
0.422926
0.42198
0.347369
0.351811
0.353286
0.356825
0.360665
0.365795
0.371472
0.377526
0.383486
0.389038
0.393976
0.398248
0.401867
0.404943
0.407565
0.409828
0.411801
0.413541
0.415075
0.416436
0.417645
0.418716
0.419657
0.420486
0.421201
0.421807
0.422326
0.422752
0.42309
0.423358
0.423542
0.42365
0.423688
0.423647
0.423531
0.423334
0.42306
0.422648
0.422222
0.421318
0.347185
0.351331
0.352259
0.355303
0.358793
0.363689
0.369294
0.375396
0.381489
0.387207
0.39231
0.396725
0.400456
0.403612
0.406289
0.408587
0.410586
0.412342
0.41389
0.415263
0.416483
0.417566
0.418518
0.419357
0.420084
0.420704
0.421235
0.421677
0.42203
0.422316
0.42252
0.422649
0.422711
0.4227
0.422618
0.422463
0.422241
0.421893
0.421536
0.420687
0.347079
0.350885
0.351307
0.353855
0.356987
0.361626
0.367138
0.373273
0.379489
0.38537
0.390642
0.395203
0.399049
0.402288
0.405022
0.407356
0.409379
0.411152
0.412713
0.414098
0.415328
0.41642
0.417383
0.418232
0.418971
0.419602
0.420145
0.420603
0.420971
0.421274
0.421496
0.421646
0.421732
0.421749
0.421702
0.421589
0.421422
0.421145
0.420868
0.42009
0.347054
0.350465
0.35043
0.352489
0.355255
0.359616
0.365013
0.371162
0.37749
0.383531
0.388971
0.393682
0.397647
0.400972
0.403764
0.406135
0.408183
0.409972
0.411545
0.412941
0.414179
0.41528
0.416252
0.41711
0.41786
0.418504
0.419058
0.419531
0.419913
0.420231
0.420471
0.420642
0.42075
0.420795
0.420781
0.420712
0.420601
0.420401
0.420218
0.419534
0.347116
0.350067
0.349631
0.351211
0.353607
0.35767
0.36293
0.369075
0.375503
0.381698
0.387305
0.392166
0.396253
0.399665
0.402516
0.404926
0.406998
0.408802
0.410386
0.411791
0.413037
0.414146
0.415127
0.415993
0.416752
0.417408
0.417973
0.418459
0.418856
0.419188
0.419445
0.419635
0.419764
0.419836
0.419856
0.419829
0.419777
0.419659
0.419586
0.419029
0.347248
0.349683
0.34891
0.35003
0.352058
0.355804
0.360903
0.367019
0.373526
0.379862
0.385628
0.390637
0.394847
0.398349
0.401262
0.403712
0.40581
0.407629
0.409225
0.410639
0.411892
0.413009
0.413998
0.414872
0.41564
0.416307
0.416883
0.417383
0.417794
0.418139
0.418413
0.41862
0.418771
0.418869
0.418921
0.418937
0.418944
0.418914
0.418967
0.418583
0.347477
0.34928
0.348228
0.348911
0.350571
0.353979
0.358881
0.364931
0.371486
0.377946
0.383867
0.389027
0.393368
0.396969
0.399954
0.402453
0.404583
0.406424
0.408035
0.409461
0.410725
0.411851
0.412849
0.413733
0.414511
0.415191
0.415779
0.416291
0.416717
0.417076
0.417366
0.417592
0.417764
0.417887
0.417972
0.418031
0.418096
0.418159
0.418355
0.41821
0.348376
0.349024
0.347598
0.347797
0.349033
0.352049
0.356713
0.362686
0.369304
0.37592
0.382035
0.387383
0.391886
0.395609
0.398679
0.401234
0.403398
0.405259
0.406884
0.408318
0.409589
0.41072
0.411725
0.412615
0.413401
0.41409
0.414689
0.41521
0.415648
0.416019
0.416322
0.416564
0.416754
0.4169
0.417013
0.417111
0.41723
0.417383
0.417731
0.417908
0.353514
0.349739
0.346431
0.344638
0.344138
0.345788
0.349789
0.35578
0.362926
0.37033
0.377275
0.383351
0.388417
0.392516
0.395795
0.39843
0.400589
0.402404
0.40397
0.405346
0.406571
0.407666
0.408645
0.409518
0.410294
0.41098
0.411583
0.412109
0.412562
0.412948
0.413275
0.413547
0.413775
0.413969
0.414147
0.41433
0.414569
0.414932
0.41568
0.416956
0.343968
0.340773
0.337686
0.336008
0.335466
0.336997
0.341045
0.347263
0.354759
0.362548
0.369858
0.376245
0.381556
0.385842
0.389259
0.391996
0.39423
0.396102
0.39771
0.399121
0.400375
0.401497
0.402503
0.403406
0.404213
0.404932
0.405569
0.40613
0.406619
0.407042
0.407406
0.407718
0.407987
0.408225
0.408454
0.408701
0.409025
0.40954
0.410566
0.412342
0.331427
0.32969
0.327573
0.326945
0.327241
0.329255
0.333576
0.339962
0.34758
0.355474
0.362887
0.369375
0.374785
0.379162
0.382659
0.385465
0.387757
0.389675
0.391322
0.392764
0.394045