/*--------------------------------*- C++ -*----------------------------------*\
  =========                 |
  \\      /  F ield         | OpenFOAM: The Open Source CFD Toolbox
   \\    /   O peration     | Website:  https://openfoam.org
    \\  /    A nd           | Version:  7
     \\/     M anipulation  |
\*---------------------------------------------------------------------------*/
FoamFile
{
    version     2.0;
    format      ascii;
    class       surfaceScalarField;
    location    "7.7";
    object      phi;
}
// * * * * * * * * * * * * * * * * * * * * * * * * * * * * * * * * * * * * * //

dimensions      [0 3 -1 0 0 0 0];

internalField   nonuniform List<scalar> 
63520
(
5.92765e-06
-0.000102084
9.61566e-05
2.1692e-05
-0.000190111
0.000174346
4.61613e-05
-0.000176328
0.000151859
7.87304e-05
-8.36494e-05
5.10802e-05
0.000119117
7.16697e-05
-0.000112057
0.000167214
0.00027751
-0.000325607
0.000223012
0.000524278
-0.000580076
0.000286547
0.000804203
-0.000867738
0.000357868
0.00111106
-0.00118239
0.000436998
0.00143971
-0.00151884
0.000523928
0.00178589
-0.00187282
0.000618602
0.002146
-0.00224068
0.000720905
0.00251694
-0.00261924
0.000830657
0.00289593
-0.00300568
0.00094762
0.00328046
-0.00339743
0.00107149
0.00366822
-0.00379209
0.00120189
0.00405704
-0.00418744
0.00133838
0.00444486
-0.00458135
0.00148047
0.00482972
-0.0049718
0.00162759
0.00520976
-0.00535688
0.00177915
0.0055832
-0.00573477
0.00193452
0.00594836
-0.00610373
0.00209302
0.00630366
-0.00646216
0.00225397
0.00664763
-0.00680858
0.00241668
0.00697894
-0.00714164
0.00258044
0.00729638
-0.00746015
0.00274458
0.00759891
-0.00776305
0.00290844
0.00788563
-0.00804948
0.00307138
0.00815579
-0.00831874
0.00323284
0.00840881
-0.00857027
0.00339227
0.00864427
-0.0088037
0.0035492
0.00886188
-0.00901881
0.00370322
0.00906147
-0.0092155
0.00385401
0.009243
-0.00939379
0.00400131
0.00940647
-0.00955377
0.00414496
0.00955186
-0.00969552
0.00428491
0.00967907
-0.00981901
0.00442116
0.00978769
-0.00992394
0.00455379
0.00987742
-0.0100101
0.00994746
0.00468287
-0.0100765
5.47821e-06
-0.000107563
2.01347e-05
-0.000204767
4.28561e-05
-0.00019905
7.3073e-05
-0.000113867
0.000110567
3.41754e-05
0.000155289
0.000232787
0.00020728
0.000472287
0.00026661
0.000744872
0.00033337
0.0010443
0.000407619
0.00136546
0.000489384
0.00170412
0.00057864
0.00205675
0.000675307
0.00242027
0.000779247
0.00279199
0.000890254
0.00316946
0.00100806
0.00355042
0.00113233
0.00393277
0.00126267
0.00431452
0.00139861
0.00469377
0.00153967
0.0050687
0.00168528
0.00543759
0.00183485
0.00579879
0.00198775
0.00615076
0.00214335
0.00649204
0.00230098
0.00682131
0.00245998
0.00713738
0.00261971
0.00743918
0.00277953
0.00772581
0.00293883
0.00799649
0.00309704
0.0082506
0.00325364
0.00848767
0.00340817
0.00870735
0.00356021
0.00890943
0.00370943
0.00909379
0.00385556
0.00926033
0.00399844
0.00940899
0.00413796
0.00953955
0.00427412
0.00965153
0.00440692
0.00974462
0.00981802
0.00453635
5.02889e-06
-0.000112591
1.8533e-05
-0.000218272
3.94396e-05
-0.000219957
6.72467e-05
-0.000141674
0.000101799
-3.77122e-07
0.0001431
0.000191487
0.000191248
0.000424138
0.000246357
0.000689764
0.000308559
0.000982102
0.000377946
0.00129607
0.000454576
0.00162749
0.00053846
0.00197286
0.00062955
0.00232918
0.000727737
0.0026938
0.000832855
0.00306434
0.000944672
0.0034386
0.00106289
0.00381456
0.00118714
0.00419027
0.00131703
0.00456388
0.00145207
0.00493366
0.00159176
0.0052979
0.00173556
0.005655
0.00188287
0.00600344
0.0020331
0.00634181
0.00218562
0.00666879
0.0023398
0.00698319
0.00249503
0.00728396
0.00265069
0.00757015
0.00280621
0.00784098
0.00296102
0.00809579
0.00311461
0.00833407
0.00326653
0.00855543
0.00341636
0.0087596
0.00356377
0.00894638
0.00370848
0.00911562
0.0038503
0.00926717
0.00398912
0.00940074
0.00412487
0.00951578
0.00425751
0.00961198
0.00968859
0.00438693
4.58885e-06
-0.00011718
1.68734e-05
-0.000230556
3.58884e-05
-0.000238972
6.12077e-05
-0.000166994
9.27481e-05
-3.19176e-05
0.000130578
0.000153656
0.000174848
0.000379868
0.000225715
0.000638897
0.000283352
0.000924465
0.000347891
0.00123153
0.000419421
0.00155596
0.00049798
0.00189431
0.000583554
0.00224361
0.000676071
0.00260129
0.00077539
0.00296502
0.000881309
0.00333268
0.000993567
0.0037023
0.00111184
0.00407199
0.00123575
0.00443998
0.00136487
0.00480454
0.00149873
0.00516404
0.00163682
0.00551691
0.00177859
0.00586167
0.00192348
0.00619692
0.00207089
0.00652137
0.00222024
0.00683384
0.00237093
0.00713327
0.00252238
0.0074187
0.00267402
0.00768933
0.00282532
0.00794449
0.00297578
0.00818361
0.00312493
0.00840628
0.00327238
0.00861215
0.00341778
0.00880098
0.00356085
0.00897255
0.00370139
0.00912663
0.00383923
0.00926289
0.00397429
0.00938073
0.00410646
0.00947982
0.00955951
0.00423554
4.12966e-06
-0.00012131
1.51466e-05
-0.000241573
3.22021e-05
-0.000256027
5.49722e-05
-0.000189764
8.3446e-05
-6.03915e-05
0.000117757
0.000119345
0.000158111
0.000339514
0.000204724
0.000592284
0.000257799
0.00087139
0.000317506
0.00117183
0.000383969
0.0014895
0.000457258
0.00182102
0.000537386
0.00216348
0.000624307
0.00251437
0.000717915
0.00287141
0.000818036
0.00323256
0.000924438
0.0035959
0.00103683
0.0039596
0.00115488
0.00432193
0.00127818
0.00468124
0.0014063
0.00503592
0.00153876
0.00538445
0.00167507
0.00572536
0.00181467
0.00605731
0.00195702
0.00637902
0.00210156
0.00668931
0.00224772
0.00698711
0.00239494
0.00727148
0.00254267
0.0075416
0.0026904
0.00779676
0.00283763
0.00803638
0.00298392
0.00825999
0.00312887
0.00846721
0.00327212
0.00865773
0.00341338
0.00883129
0.00355243
0.00898758
0.00368909
0.00912623
0.00382322
0.0092466
0.00395465
0.00934838
0.00943104
0.00408312
3.65779e-06
-0.000124968
1.3356e-05
-0.000251272
2.83893e-05
-0.000271061
4.85431e-05
-0.000209918
7.38915e-05
-8.57401e-05
0.00010464
8.85967e-05
0.000141051
0.000303103
0.000183391
0.000549943
0.000231905
0.000822875
0.000286802
0.00111693
0.000348236
0.00142807
0.000416306
0.00175295
0.000491055
0.00208873
0.000572467
0.00243295
0.000660458
0.00278342
0.000754883
0.00313814
0.000855543
0.00349524
0.000962178
0.00385296
0.00107447
0.00420964
0.00119207
0.00456364
0.00131457
0.00491342
0.00144152
0.00525749
0.00157246
0.00559443
0.00170687
0.0059229
0.00184424
0.00624165
0.00198404
0.00654951
0.00212571
0.00684544
0.00226872
0.00712847
0.00241256
0.00739776
0.0025567
0.00765261
0.00270069
0.0078924
0.00284406
0.00811662
0.00298643
0.00832484
0.00312743
0.00851672
0.00326678
0.00869194
0.00340421
0.00885015
0.00353952
0.00899092
0.00367253
0.00911359
0.003803
0.00921791
0.00930344
0.0039306
3.16501e-06
-0.000128133
1.14975e-05
-0.000259604
2.44498e-05
-0.000284013
4.19309e-05
-0.000227399
6.41049e-05
-0.000107914
9.12517e-05
6.14497e-05
0.000123695
0.000270659
0.000161757
0.000511882
0.000205723
0.000778909
0.000255836
0.00106681
0.000312285
0.00137162
0.000375199
0.00169003
0.000444648
0.00201928
0.000520639
0.00235696
0.000603115
0.00270094
0.000691961
0.00304929
0.000787002
0.0034002
0.000888005
0.00375196
0.000994687
0.00410295
0.00110672
0.00445161
0.00122373
0.00479641
0.00134531
0.00513591
0.00147101
0.00546873
0.00160035
0.00579356
0.00173285
0.00610915
0.00186799
0.00641437
0.00200526
0.00670817
0.00214414
0.00698958
0.00228413
0.00725777
0.00242473
0.00751201
0.00256549
0.00775165
0.00270595
0.00797615
0.00284572
0.00818507
0.00298445
0.008378
0.0031218
0.00855458
0.00325753
0.00871443
0.00339138
0.00885707
0.00352313
0.00898184
0.00365248
0.00908855
0.0091769
0.00377903
2.64758e-06
-0.000130781
9.57063e-06
-0.000266528
2.03908e-05
-0.000294833
3.51476e-05
-0.000242156
5.41044e-05
-0.000126871
7.76219e-05
3.79321e-05
0.000106086
0.000242195
0.000139872
0.000478096
0.000179309
0.000739472
0.000224678
0.00102144
0.000276197
0.0013201
0.000334026
0.00163221
0.00039826
0.00195505
0.000468932
0.00228629
0.000546009
0.00262387
0.0006294
0.0029659
0.000718956
0.00331064
0.000814472
0.00365644
0.000915691
0.00400174
0.00102231
0.00434499
0.001134
0.00468473
0.00125035
0.00501956
0.00137096
0.00534812
0.00149538
0.00566913
0.00162315
0.00598139
0.00175377
0.00628375
0.00188676
0.00657518
0.00202163
0.00685472
0.00215787
0.00712153
0.00229502
0.00737486
0.00243261
0.00761405
0.00257021
0.00783855
0.00270743
0.00804786
0.00284388
0.00824154
0.00297925
0.00841921
0.00311324
0.00858044
0.00324558
0.00872473
0.00337598
0.00885144
0.0035041
0.00896043
0.00905155
0.00362944
2.10546e-06
-0.000132886
7.57748e-06
-0.000272
1.62191e-05
-0.000303475
2.8209e-05
-0.000254146
4.39156e-05
-0.000142578
6.37849e-05
1.80627e-05
8.82683e-05
0.000217711
0.000117794
0.00044857
0.000152735
0.00070453
0.000193409
0.000980771
0.000240066
0.00127344
0.000292893
0.00157938
0.000352011
0.00189593
0.000417476
0.00222083
0.00048928
0.00255206
0.000567355
0.00288782
0.000651576
0.00322642
0.000741762
0.00356626
0.000837685
0.00390581
0.00093907
0.0042436
0.0010456
0.0045782
0.00115691
0.00490825
0.00127261
0.00523242
0.00139229
0.00554946
0.00151549
0.00585818
0.00164177
0.00615748
0.00177064
0.00644631
0.00190163
0.00672373
0.00203427
0.00698889
0.00216809
0.00724104
0.00230264
0.0074795
0.00243749
0.0077037
0.00257223
0.00791311
0.00270649
0.00810728
0.00283993
0.00828578
0.00297221
0.00844815
0.00310304
0.00859391
0.00323207
0.00872241
0.0033589
0.0088336
0.00892749
0.00348296
1.54037e-06
-0.000134426
5.52295e-06
-0.000275982
1.19447e-05
-0.000309897
2.1133e-05
-0.000263334
3.35677e-05
-0.000155013
4.97819e-05
1.84832e-06
7.02942e-05
0.000197199
9.55872e-05
0.000423277
0.00012608
0.000674037
0.000162122
0.000944729
0.000203996
0.00123157
0.000251919
0.00153146
0.000306034
0.00184181
0.000366419
0.00216044
0.00043309
0.00248539
0.000506002
0.00281491
0.000585051
0.00314737
0.000670084
0.00348123
0.000760893
0.003815
0.00085723
0.00414726
0.000958798
0.00447664
0.00106526
0.00480178
0.00117626
0.00512142
0.00129139
0.00543432
0.00141024
0.00573933
0.00153237
0.00603535
0.00165732
0.00632136
0.00178463
0.00659641
0.00191385
0.00685967
0.00204452
0.00711037
0.0021762
0.00734783
0.00230845
0.00757145
0.00244086
0.0077807
0.00257306
0.00797509
0.00270466
0.00815417
0.00283533
0.00831749
0.0029647
0.00846454
0.0030924
0.00859471
0.00321796
0.00870805
0.00880472
0.00334072
9.52905e-07
-0.000135379
3.41166e-06
-0.000278441
7.58041e-06
-0.000314065
1.3942e-05
-0.000269696
2.3093e-05
-0.000164164
3.56572e-05
-1.0716e-05
5.22231e-05
0.000180633
7.33264e-05
0.000402174
9.94291e-05
0.000647934
0.000130918
0.00091324
0.000168108
0.00119438
0.000211238
0.00148833
0.000260476
0.00179258
0.000315924
0.00210499
0.000377618
0.0024237
0.000445535
0.00274699
0.000519594
0.00307331
0.000599663
0.00340116
0.000685561
0.0037291
0.000777059
0.00405577
0.000873883
0.00437981
0.000975726
0.00469994
0.00108224
0.0050149
0.00119306
0.00532351
0.00130778
0.00562461
0.00142599
0.00591715
0.00154725
0.0062001
0.00167111
0.00647254
0.00179714
0.00673364
0.00192488
0.00698263
0.00205389
0.00721882
0.00218375
0.00744159
0.00231404
0.00765041
0.00244435
0.00784478
0.00257429
0.00802422
0.00270349
0.00818829
0.00283155
0.00833648
0.00295802
0.00846823
0.00308238
0.00858369
0.0086832
0.0032039
3.45957e-07
-0.000135725
1.25164e-06
-0.000279347
3.14058e-06
-0.000315955
6.65997e-06
-0.000273215
1.25286e-05
-0.000170032
2.14619e-05
-1.96494e-05
3.41187e-05
0.000167976
5.10894e-05
0.000385203
7.28797e-05
0.000626144
9.99112e-05
0.000886208
0.000132527
0.00116176
0.000170993
0.00144986
0.0002155
0.00174807
0.00026617
0.00205432
0.000323059
0.00236681
0.000386167
0.00268389
0.000455434
0.00300404
0.00053075
0.00332584
0.000611955
0.0036479
0.000698842
0.00396888
0.00079116
0.00428749
0.000888625
0.00460247
0.000990912
0.00491261
0.00109767
0.00521675
0.00120853
0.00551376
0.00132308
0.0058026
0.00144091
0.00608227
0.00156159
0.00635186
0.00168468
0.00661055
0.00180976
0.00685756
0.00193637
0.0070922
0.00206409
0.00731387
0.00219249
0.00752201
0.00232116
0.00771611
0.00244968
0.00789571
0.00257762
0.00806034
0.00270456
0.00820955
0.00282998
0.00834281
0.00295329
0.00846038
0.00856279
0.0030737
-2.78997e-07
-0.000135446
-9.50059e-07
-0.000278676
-1.35833e-06
-0.000315546
-6.84974e-07
-0.000273889
1.91412e-06
-0.000172632
7.24861e-06
-2.49839e-05
1.60502e-05
0.000159174
2.89623e-05
0.000372291
4.65327e-05
0.000608574
6.92183e-05
0.000863523
9.7391e-05
0.00113359
0.00013134
0.00141591
0.000171277
0.00170813
0.000217345
0.00200826
0.000269622
0.00231453
0.000328125
0.00262538
0.000392817
0.00293935
0.000463609
0.00325505
0.00054036
0.00357115
0.000622884
0.00388636
0.000710955
0.00419942
0.000804307
0.00450912
0.000902639
0.00481428
0.00100562
0.00511377
0.00111289
0.00540649
0.00122408
0.00569141
0.00133877
0.00596757
0.00145657
0.00623407
0.00157704
0.00649008
0.00169975
0.00673485
0.00182426
0.00696769
0.00195015
0.00718799
0.00207697
0.00739519
0.00220429
0.00758879
0.00233167
0.00776833
0.00245865
0.00793337
0.00258472
0.00808347
0.00270935
0.00821818
0.00283185
0.00833788
0.00844327
0.00295137
-9.1831e-07
-0.000134528
-3.18396e-06
-0.000276411
-5.89809e-06
-0.000312832
-8.06401e-06
-0.000271723
-8.70805e-06
-0.000171988
-6.9249e-06
-2.67671e-05
-1.90994e-06
0.000154159
7.03328e-06
0.000363348
2.04947e-05
0.000595112
3.89649e-05
0.000845052
6.28423e-05
0.00110971
9.24389e-05
0.00138631
0.000127988
0.00167258
0.000169651
0.00196659
0.000217526
0.00226666
0.000271649
0.00257126
0.000332004
0.002879
0.000398519
0.00318853
0.000471076
0.00349859
0.000549509
0.00380792
0.000633612
0.00411532
0.00072314
0.00441959
0.000817812
0.00471961
0.000917319
0.00501426
0.00102132
0.00530248
0.00112946
0.00558327
0.00124135
0.00585568
0.00135659
0.00611883
0.00147477
0.0063719
0.00159546
0.00661416
0.00171822
0.00684492
0.00184263
0.00706358
0.00196823
0.00726959
0.00209455
0.00746246
0.00222114
0.00764174
0.00234749
0.00780702
0.00247305
0.00795791
0.00259721
0.00809403
0.00271922
0.00821587
0.00832434
0.00283815
-1.56976e-06
-0.000132958
-5.44066e-06
-0.00027254
-1.04593e-05
-0.000307814
-1.5446e-05
-0.000266736
-1.92936e-05
-0.00016814
-2.09997e-05
-2.50611e-05
-1.96866e-05
0.000152846
-1.4605e-05
0.000358266
-5.1242e-06
0.000585631
9.27909e-06
0.000830649
2.90287e-05
0.00108996
5.44581e-05
0.00136088
8.58201e-05
0.00164122
0.000123296
0.00192912
0.000167
0.00222295
0.00021699
0.00252127
0.000273265
0.00282272
0.000335774
0.00312602
0.000404417
0.00342995
0.00047905
0.00373329
0.000559488
0.00403488
0.000645503
0.00433358
0.000736838
0.00462827
0.0008332
0.0049179
0.000934274
0.00520141
0.00103971
0.00547783
0.00114915
0.00574624
0.0012622
0.00600578
0.00137846
0.00625564
0.0014975
0.00649511
0.00161891
0.00672352
0.00174222
0.00694026
0.00186699
0.00714482
0.00199274
0.00733672
0.00211895
0.00751553
0.00224508
0.00768088
0.00237054
0.00783245
0.00249465
0.00796992
0.00261658
0.00809394
0.00820561
0.00273531
-2.23024e-06
-0.000130728
-7.70993e-06
-0.00026706
-1.50219e-05
-0.000300502
-2.27988e-05
-0.000258959
-2.97968e-05
-0.000161142
-3.49147e-05
-1.99431e-05
-3.72026e-05
0.000155134
-3.58585e-05
0.000356922
-3.02114e-05
0.000579984
-1.97076e-05
0.000820145
-3.89893e-06
0.00107415
1.75683e-05
0.00133942
4.49658e-05
0.00161382
7.8492e-05
0.00189559
0.00011828
0.00218317
0.000164403
0.00247515
0.000216878
0.00277025
0.000275674
0.00306723
0.000340708
0.00336491
0.000411857
0.00366214
0.000488953
0.00395778
0.000571792
0.00425074
0.000660132
0.00453993
0.000753705
0.00482432
0.000852211
0.0051029
0.000955324
0.00537472
0.00106269
0.00563887
0.00117394
0.00589453
0.00128868
0.0061409
0.0014065
0.00637729
0.00152697
0.00660305
0.00164963
0.0068176
0.00177402
0.00702043
0.00189964
0.0072111
0.00202594
0.00738922
0.00215235
0.00755448
0.0022782
0.0077066
0.00240274
0.00784538
0.00252509
0.00797159
0.00808655
0.00264415
-2.89645e-06
-0.000127832
-9.98101e-06
-0.000259976
-1.95651e-05
-0.000290918
-3.00897e-05
-0.000248435
-4.01709e-05
-0.000151061
-4.86083e-05
-1.15057e-05
-5.438e-05
0.000160905
-5.66318e-05
0.000359173
-5.46536e-05
0.000578006
-4.78629e-05
0.000813354
-3.57886e-05
0.00106208
-1.80577e-05
0.00132169
5.61897e-06
0.00159015
3.54562e-05
0.00186575
7.16036e-05
0.00214702
0.00011415
0.0024326
0.00016313
0.00272127
0.000218527
0.00301183
0.00028028
0.00330316
0.000348283
0.00359414
0.000422387
0.00388368
0.000502407
0.00417072
0.000588124
0.00445422
0.000679286
0.00473316
0.000775613
0.00500657
0.000876797
0.00527354
0.000982503
0.00553317
0.00109237
0.00578466
0.00120603
0.00602725
0.00132306
0.00626026
0.00144305
0.00648306
0.00156554
0.00669511
0.00169004
0.00689593
0.00181604
0.0070851
0.00194297
0.0072623
0.00207019
0.00742725
0.002197
0.00757979
0.00232257
0.0077198
0.00244594
0.00784822
0.00796658
0.00256591
-3.56498e-06
-0.000124267
-1.22429e-05
-0.000251298
-2.4068e-05
-0.000279093
-3.72852e-05
-0.000235218
-5.03688e-05
-0.000137977
-6.20184e-05
1.43877e-07
-7.11406e-05
0.000170028
-7.68297e-05
0.000364862
-7.83377e-05
0.000579514
-7.5055e-05
0.000810072
-6.64888e-05
0.00105351
-5.22478e-05
0.00130745
-3.20268e-05
0.00156993
-5.59579e-06
0.00183932
2.72095e-05
0.00211421
6.64932e-05
0.00239332
0.000112305
0.00267546
0.000164645
0.00295949
0.000223469
0.00324434
0.000288689
0.00352892
0.000360175
0.00381219
0.000437761
0.00409313
0.000521246
0.00437073
0.0006104
0.00464401
0.000704961
0.00491201
0.000804639
0.00517386
0.000909117
0.00542869
0.00101805
0.00567572
0.00113108
0.00591422
0.00124781
0.00614353
0.00136781
0.00636306
0.00149063
0.00657229
0.00161578
0.00677078
0.00174272
0.00695816
0.00187086
0.00713416
0.00199951
0.0072986
0.00212791
0.00745139
0.00225518
0.00759253
0.00238026
0.00772314
0.00784497
0.00250187
-4.23224e-06
-0.000120035
-1.44846e-05
-0.000241046
-2.85093e-05
-0.000265068
-4.4352e-05
-0.000219375
-6.03436e-05
-0.000121986
-7.50835e-05
1.48837e-05
-8.74073e-05
0.000182351
-9.63585e-05
0.000373814
-0.000101153
0.000584308
-0.000101154
0.000810073
-9.58503e-05
0.00104821
-8.48323e-05
0.00129643
-6.77803e-05
0.00155287
-4.44504e-05
0.00181599
-1.46652e-05
0.00208443
2.16932e-05
0.00235696
6.46886e-05
0.00263246
0.000114337
0.00290984
0.00017061
0.00318806
0.000233436
0.00346609
0.000302703
0.00374293
0.000378264
0.00401757
0.000459937
0.00428906
0.000547512
0.00455643
0.000640744
0.00481878
0.000739364
0.00507524
0.000843074
0.00532498
0.000951547
0.00556725
0.00106443
0.00580134
0.00118135
0.00602661
0.00130189
0.00624253
0.00142558
0.00644859
0.00155195
0.00664441
0.00168043
0.00682968
0.00181041
0.00700419
0.00194116
0.00716784
0.00207188
0.00732068
0.0022016
0.00746281
0.00232918
0.00759556
0.00772091
0.00245325
-4.8946e-06
-0.00011514
-1.66949e-05
-0.000229246
-3.28681e-05
-0.000248895
-5.1257e-05
-0.000200986
-7.00489e-05
-0.000103194
-8.77428e-05
3.25775e-05
-0.000103104
0.000197713
-0.000115126
0.000385836
-0.00012299
0.000592172
-0.000126034
0.000813118
-0.000123728
0.0010459
-0.000115646
0.00128835
-0.000101455
0.00153868
-8.08988e-05
0.00179544
-5.37887e-05
0.00205732
-1.9994e-05
0.00232317
2.05624e-05
0.0025919
6.79101e-05
0.0028625
0.000122035
0.00313394
0.000182883
0.00340525
0.000250358
0.00367545
0.00032433
0.0039436
0.000404637
0.00420875
0.000491086
0.00446998
0.000583454
0.00472641
0.000681489
0.0049772
0.000784912
0.00522156
0.000893418
0.00545874
0.00100667
0.00568808
0.00112431
0.00590898
0.00124592
0.00612091
0.00137107
0.00632344
0.00149925
0.00651623
0.00162991
0.00669902
0.00176241
0.0068717
0.00189599
0.00703426
0.00202979
0.00718687
0.00216279
0.00732981
0.00229377
0.00746458
0.00759346
0.00242122
-5.54839e-06
-0.000109592
-1.8863e-05
-0.000215932
-3.71235e-05
-0.000230635
-5.79676e-05
-0.000180142
-7.94391e-05
-8.17224e-05
-9.9937e-05
5.30754e-05
-0.000118157
0.000215933
-0.000133044
0.000400722
-0.000143744
0.000602873
-0.000149573
0.000818946
-0.00014998
0.00104631
-0.000144528
0.00128289
-0.00013287
0.00152703
-0.000114739
0.00177731
-8.9936e-05
0.00203252
-5.83196e-05
0.00229155
-1.98005e-05
0.00255339
2.56635e-05
0.00281703
7.80719e-05
0.00308153
0.000137384
0.00334593
0.00020352
0.00360932
0.000276367
0.00387075
0.000355782
0.00412934
0.000441587
0.00438418
0.00053358
0.00463442
0.000631528
0.00487925
0.000735174
0.00511791
0.00084423
0.00534969
0.000958383
0.00557393
0.00107728
0.00579008
0.00120055
0.00599765
0.00132774
0.00619625
0.00145837
0.0063856
0.00159188
0.00656551
0.00172761
0.00673597
0.00186479
0.00689708
0.00200252
0.00704915
0.0021397
0.00719263
0.00227503
0.00732925
0.0074616
0.0024069
-6.19001e-06
-0.000103402
-2.09783e-05
-0.000201143
-4.12551e-05
-0.000210358
-6.44518e-05
-0.000156946
-8.84696e-05
-5.77047e-05
-0.000111608
7.62139e-05
-0.000132494
0.000236819
-0.000150024
0.000418252
-0.000163313
0.000616162
-0.000171652
0.000827285
-0.000174473
0.00104913
-0.000171326
0.00127975
-0.000161853
0.00151755
-0.000145778
0.00176123
-0.000122892
0.00200963
-9.30452e-05
0.0022617
-5.61368e-05
0.00251648
-1.21136e-05
0.00277301
3.90354e-05
0.00303038
9.72821e-05
0.00328769
0.000162562
0.00354404
0.000234778
0.00379854
0.0003138
0.00405031
0.000399472
0.0042985
0.000491608
0.00454228
0.000589995
0.00478087
0.000694395
0.00501351
0.000804544
0.00523954
0.00092015
0.00545832
0.00104088
0.00566934
0.00116638
0.00587215
0.00129623
0.0060664
0.00142996
0.00625187
0.001567
0.00642847
0.00170672
0.00659625
0.00184831
0.00675548
0.00199084
0.00690661
0.00213317
0.0070503
0.0022739
0.00718852
0.0073242
0.0024113
-6.81602e-06
-9.65861e-05
-2.30305e-05
-0.000184929
-4.52427e-05
-0.000188146
-7.06782e-05
-0.00013151
-9.70971e-05
-3.12858e-05
-0.0001227
0.000101817
-0.000146047
0.000260166
-0.000165986
0.000438191
-0.0001816
0.000631776
-0.000192159
0.000837843
-0.000197078
0.00105405
-0.000195894
0.00127856
-0.000188241
0.0015099
-0.000173834
0.00174682
-0.000152454
0.00198825
-0.000123944
0.00223319
-8.81959e-05
0.00248073
-4.51453e-05
0.00272996
5.22867e-06
0.00298001
6.2909e-05
0.00323001
0.000127844
0.0034791
0.00019995
0.00372643
0.000279113
0.00397115
0.000365191
0.00421243
0.000458016
0.00444946
0.000557394
0.00468149
0.000663108
0.0049078
0.000774917
0.00512773
0.000892551
0.00534069
0.00101571
0.00554619
0.00114405
0.00574381
0.00127719
0.00593327
0.00141467
0.00611439
0.00155596
0.00628718
0.00170041
0.0064518
0.00184725
0.00660865
0.0019955
0.00675836
0.00214398
0.00690182
0.00229121
0.00704129
0.0071801
0.00243532
-7.4232e-06
-8.9163e-05
-2.50094e-05
-0.000167343
-4.90665e-05
-0.000164089
-7.66163e-05
-0.000103961
-0.000105279
-2.62287e-06
-0.000133159
0.000129696
-0.000158747
0.000285754
-0.000180847
0.000460291
-0.000198512
0.000649441
-0.000210987
0.000850318
-0.000217674
0.00106074
-0.000218097
0.00127898
-0.000211881
0.00150368
-0.000198733
0.00173368
-0.00017843
0.00196795
-0.000150805
0.00220557
-0.000115743
0.00244567
-7.31718e-05
0.00268739
-2.30625e-05
0.0029299
3.45779e-05
0.00317237
9.97081e-05
0.00341397
0.000172256
0.00365388
0.000252121
0.00389128
0.000339176
0.00412537
0.000433267
0.00435537
0.00053422
0.00458054
0.000641836
0.00480018
0.000755897
0.00501367
0.000876156
0.00522043
0.00100234
0.00542
0.00113414
0.00561201
0.00127121
0.0057962
0.00141312
0.00597248
0.00155936
0.00614093
0.00170933
0.00630183
0.00186224
0.00645573
0.00201715
0.00660346
0.0021728
0.00674616
0.00232767
0.00688642
0.00702803
0.00247973
-8.00856e-06
-8.11545e-05
-2.69049e-05
-0.000148447
-5.27072e-05
-0.000138287
-8.22363e-05
-7.44316e-05
-0.000112975
2.81158e-05
-0.000142931
0.000159652
-0.000170531
0.000313354
-0.000194533
0.000484294
-0.00021396
0.000668867
-0.000228035
0.000864394
-0.000236146
0.00106885
-0.000237805
0.00128064
-0.000232629
0.00149851
-0.000220318
0.00172137
-0.000200642
0.00194827
-0.00017343
0.00217836
-0.000138559
0.00241079
-9.59519e-05
0.00264478
-4.5572e-05
0.00287952
1.25812e-05
0.00311421
7.84752e-05
0.00334808
0.000152048
0.00358031
0.000233209
0.00381012
0.000321843
0.00403674
0.00041781
0.0042594
0.00052095
0.0044774
0.000631085
0.00469005
0.000748015
0.00489674
0.000871521
0.00509693
0.00100136
0.00529016
0.00113726
0.00547611
0.0012789
0.00565456
0.0014259
0.00582548
0.0015778
0.00598902
0.00173404
0.0061456
0.00189387
0.0062959
0.00205633
0.00644099
0.00222019
0.0065823
0.00238383
0.00672278
0.00686675
0.00254512
-8.5692e-06
-7.25854e-05
-2.87071e-05
-0.000128309
-5.6146e-05
-0.000110848
-8.7509e-05
-4.30687e-05
-0.000120144
6.07505e-05
-0.000151964
0.000191472
-0.000181335
0.000342725
-0.00020697
0.000509929
-0.000227859
0.000689757
-0.000243207
0.000879743
-0.000252386
0.00107802
-0.000254897
0.00128315
-0.00025035
0.00149396
-0.000238439
0.00170945
-0.000218927
0.00192876
-0.000191638
0.00215107
-0.000156445
0.0023756
-0.000113265
0.0026016
-6.20559e-05
0.00282831
-2.81175e-06
0.00305497
6.44421e-05
0.00328082
0.000139651
0.0035051
0.000222732
0.00372704
0.000313579
0.00394589
0.000412063
0.00416092
0.000518038
0.00437142
0.000631339
0.00457674
0.000751787
0.00477629
0.000879186
0.00496953
0.00101332
0.00515603
0.00115396
0.00533547
0.00130082
0.0055077
0.00145359
0.00567272
0.00161184
0.00583077
0.00177508
0.00598236
0.00194261
0.00612837
0.00211352
0.00627008
0.00228657
0.00640925
0.00246011
0.00654925
0.00669499
0.00263187
-9.10225e-06
-6.34832e-05
-3.04064e-05
-0.000107005
-5.93643e-05
-8.18902e-05
-9.24057e-05
-1.00275e-05
-0.000126746
9.5091e-05
-0.000160209
0.000224935
-0.000191098
0.000373614
-0.000218084
0.000536915
-0.000240127
0.000711799
-0.00025641
0.000896026
-0.00026629
0.0010879
-0.00026926
0.00128612
-0.000264921
0.00148962
-0.000252959
0.00169749
-0.000233134
0.00190894
-0.000205264
0.0021232
-0.000169218
0.00233956
-0.00012491
0.00255729
-7.2293e-05
0.00277569
-1.13566e-05
0.00299403
5.7878e-05
0.00321159
0.000135361
0.00342762
0.000221016
0.00364139
0.000314743
0.00385216
0.000416419
0.00405924
0.000525907
0.00426193
0.000643055
0.0044596
0.000767699
0.00465164
0.000899665
0.00483756
0.00103877
0.00501693
0.0011848
0.00518944
0.00133754
0.00535496
0.00149671
0.00551354
0.00166199
0.00566549
0.00183291
0.00581143
0.00200889
0.00595239
0.00218907
0.00608991
0.00237224
0.00622608
0.00255673
0.00636476
0.00651156
0.00274016
-9.60472e-06
-5.38785e-05
-3.19932e-05
-8.46168e-05
-6.23439e-05
-5.15396e-05
-9.68977e-05
2.45263e-05
-0.000132743
0.000130936
-0.000167616
0.000259809
-0.000199761
0.000405758
-0.000227806
0.00056496
-0.000250682
0.000734675
-0.000267553
0.000912896
-0.00027776
0.00109811
-0.000280785
0.00128915
-0.000276221
0.00148506
-0.000263749
0.00168502
-0.000243122
0.00188831
-0.000214155
0.00209423
-0.000176713
0.00230211
-0.000130706
0.00251128
-7.60845e-05
0.00272107
-1.28353e-05
0.00293078
5.90236e-05
0.00313973
0.000139445
0.0033472
0.000228356
0.00355248
0.000325657
0.00375486
0.000431232
0.00395367
0.000544947
0.00414822
0.000666656
0.00433789
0.000796207
0.00452209
0.00093344
0.00470033
0.00107819
0.00487217
0.00123029
0.00503734
0.00138956
0.00519569
0.00155578
0.00534732
0.0017287
0.00549258
0.00190796
0.00563217
0.00209305
0.0057673
0.00228321
0.00589974
0.00247732
0.00603197
0.00267371
0.00616837
0.00631535
0.00286993
-1.00736e-05
-4.38048e-05
-3.34583e-05
-6.12323e-05
-6.50664e-05
-1.99316e-05
-0.000100957
6.04165e-05
-0.000138095
0.000168074
-0.000174135
0.000295849
-0.000207262
0.000438885
-0.000236065
0.000593764
-0.000259446
0.000758056
-0.000276547
0.000929997
-0.000286697
0.00110826
-0.000289365
0.00129182
-0.000284137
0.00147983
-0.000270686
0.00167157
-0.00024876
0.00186638
-0.00021817
0.00206364
-0.000178777
0.00226272
-0.000130488
0.002463
-7.32519e-05
0.00266383
-7.05302e-06
0.00286458
6.80923e-05
0.00306458
0.000152138
0.00326315
0.000245009
0.0034596
0.000346608
0.00365326
0.000456818
0.00384346
0.000575504
0.00402953
0.000702522
0.00421087
0.000837723
0.00438689
0.000980956
0.00455709
0.00113207
0.00472106
0.00129092
0.00487849
0.00145737
0.00502925
0.00163126
0.00517343
0.00181241
0.00531143
0.00200056
0.00544402
0.00219533
0.00557253
0.00239609
0.00569898
0.00260181
0.00582625
0.00281089
0.00595928
0.0061054
0.00302084
-1.05061e-05
-3.32988e-05
-3.4792e-05
-3.69464e-05
-6.75134e-05
1.27898e-05
-0.000104554
9.74571e-05
-0.000142763
0.000206283
-0.000179715
0.000332802
-0.00021354
0.00047271
-0.000242789
0.000623012
-0.000266336
0.000781603
-0.000283302
0.000946964
-0.000293002
0.00111796
-0.000294894
0.00129371
-0.000288554
0.00147349
-0.000273648
0.00165666
-0.000249919
0.00184266
-0.000217172
0.00203089
-0.000175266
0.00222081
-0.000124103
0.00241183
-6.36318e-05
0.00260336
6.1657e-06
0.00279479
8.52734e-05
0.00298547
0.000173644
0.00317478
0.000271202
0.00336205
0.000377845
0.00354662
0.000493452
0.00372785
0.000617884
0.0039051
0.000750991
0.00407776
0.000892619
0.00424526
0.00104261
0.0044071
0.00120083
0.00456284
0.00136714
0.00471218
0.00154143
0.00485496
0.00172359
0.00499128
0.0019135
0.00512151
0.00211104
0.00524649
0.00231593
0.00536764
0.00252771
0.0054872
0.00274553
0.00560843
0.00296789
0.00573692
0.00588099
0.0031923
-1.08991e-05
-2.23998e-05
-3.5985e-05
-1.18607e-05
-6.96663e-05
4.6471e-05
-0.000107661
0.000135451
-0.000146706
0.000245328
-0.000184306
0.000370401
-0.000218533
0.000506938
-0.000247905
0.000652384
-0.000271268
0.000804966
-0.000287725
0.000963421
-0.000296573
0.00112681
-0.000297261
0.0012944
-0.000289353
0.00146558
-0.000272511
0.00163982
-0.000246468
0.00181661
-0.000211026
0.00199545
-0.000166037
0.00217582
-0.000111404
0.0023572
-4.70695e-05
0.00253903
2.69836e-05
0.00272073
0.00011074
0.00290172
0.00020415
0.00308137
0.000307134
0.00325906
0.000419586
0.00343417
0.000541375
0.00360606
0.000672353
0.00377412
0.000812358
0.00393776
0.000961222
0.0040964
0.00111878
0.00424954
0.00128487
0.00439674
0.00145937
0.00453768
0.00164216
0.00467217
0.00183317
0.00480027
0.00203236
0.00492233
0.00223966
0.00503918
0.00245498
0.00515232
0.00267804
0.00526414
0.00290819
0.00537829
0.00314413
0.00550098
0.00564163
0.00338349
-1.125e-05
-1.11499e-05
-3.70275e-05
1.39167e-05
-7.1506e-05
8.09493e-05
-0.000110247
0.000174192
-0.000149885
0.000284966
-0.000187853
0.000408369
-0.000222176
0.000541261
-0.000251336
0.000681544
-0.000274155
0.000827785
-0.000289716
0.000978982
-0.000297301
0.00113439
-0.000296348
0.00129344
-0.000286411
0.00145564
-0.000267142