/*--------------------------------*- C++ -*----------------------------------*\
  =========                 |
  \\      /  F ield         | OpenFOAM: The Open Source CFD Toolbox
   \\    /   O peration     | Website:  https://openfoam.org
    \\  /    A nd           | Version:  7
     \\/     M anipulation  |
\*---------------------------------------------------------------------------*/
FoamFile
{
    version     2.0;
    format      ascii;
    class       volVectorField;
    location    "7.7";
    object      U;
}
// * * * * * * * * * * * * * * * * * * * * * * * * * * * * * * * * * * * * * //

dimensions      [0 1 -1 0 0 0 0];

internalField   nonuniform List<vector> 
32000
(
(0.000200088 -0.00397252 -2.73451e-22)
(0.00117252 -0.00730092 0)
(0.00299485 -0.00656264 -2.44748e-21)
(0.00530745 -0.00267502 0)
(0.00806317 0.00371787 2.55144e-21)
(0.0111904 0.0121341 0)
(0.0146466 0.022191 2.63725e-21)
(0.0184018 0.0335787 -2.00509e-21)
(0.0224304 0.0460479 5.03543e-25)
(0.0267084 0.0593917 6.2891e-25)
(0.0312123 0.0734394 -6.90443e-22)
(0.0359195 0.0880457 2.78668e-21)
(0.0408071 0.103085 0)
(0.0458509 0.118444 -7.07871e-22)
(0.0510261 0.134022 7.10809e-22)
(0.0563068 0.149724 0)
(0.0616659 0.165462 3.59628e-21)
(0.0670761 0.181152 -7.21563e-22)
(0.0725096 0.196715 0)
(0.077938 0.212074 1.46127e-21)
(0.0833336 0.227157 1.46491e-21)
(0.0886691 0.241896 0)
(0.0939179 0.256226 0)
(0.099055 0.270089 0)
(0.104057 0.28343 0)
(0.108904 0.296202 0)
(0.113574 0.308361 0)
(0.118052 0.319874 0)
(0.122321 0.330709 -3.00758e-21)
(0.126372 0.340845 0)
(0.130194 0.350266 3.02552e-21)
(0.133782 0.35896 0)
(0.137132 0.366924 0)
(0.140243 0.374156 0)
(0.143119 0.380657 -3.05591e-21)
(0.145764 0.386431 -1.54056e-21)
(0.148188 0.391472 4.61784e-21)
(0.150409 0.395768 4.70705e-24)
(0.15243 0.399307 3.09498e-21)
(0.154143 0.402056 4.04826e-24)
(0.000272368 -0.00418575 0)
(0.00125335 -0.00786454 4.7769e-21)
(0.00294219 -0.00743195 1.22271e-21)
(0.0050185 -0.00381848 -8.78129e-25)
(0.00745414 0.00231778 -1.27573e-21)
(0.0101971 0.0104865 0)
(0.0132191 0.020301 2.63666e-21)
(0.0165014 0.031449 -2.67283e-21)
(0.0200274 0.0436815 0)
(0.0237797 0.0567915 -5.47019e-21)
(0.0277419 0.070609 0)
(0.0318968 0.0849908 -8.3567e-21)
(0.0362252 0.0998128 0)
(0.0407076 0.114965 0)
(0.045323 0.130347 2.84719e-21)
(0.0500481 0.145867 -2.85637e-21)
(0.0548594 0.16144 -2.87556e-21)
(0.059733 0.176982 0)
(0.0646437 0.192417 8.70247e-21)
(0.0695661 0.20767 -2.90602e-21)
(0.0744754 0.22267 4.7813e-24)
(0.0793466 0.237349 -8.79005e-21)
(0.0841549 0.251645 -5.88391e-21)
(0.0888777 0.265499 -2.96364e-21)
(0.0934939 0.278856 8.87933e-21)
(0.0979832 0.291667 -8.92702e-21)
(0.102327 0.303891 8.96355e-21)
(0.106509 0.31549 -1.19455e-20)
(0.110514 0.326434 -2.98922e-21)
(0.114332 0.336698 3.23142e-23)
(0.117953 0.346264 -9.00928e-21)
(0.12137 0.355118 -6.03293e-21)
(0.12458 0.363254 1.21554e-20)
(0.12758 0.370667 -1.21353e-20)
(0.130373 0.377357 -3.03006e-21)
(0.132962 0.38332 -1.2231e-20)
(0.135355 0.388552 -1.00657e-23)
(0.137571 0.393033 3.08045e-21)
(0.1396 0.396753 -1.22345e-20)
(0.141333 0.399676 -1.74377e-20)
(0.000353543 -0.0043988 -1.09552e-21)
(0.00135519 -0.00842315 -2.38841e-21)
(0.0029158 -0.00827112 -1.10174e-20)
(0.00476056 -0.00491164 0)
(0.00688224 0.000982603 1.27606e-21)
(0.00924752 0.00891456 -1.29776e-21)
(0.0118425 0.018494 -1.582e-20)
(0.0146609 0.0294076 5.34605e-21)
(0.0176947 0.0414045 -2.70643e-21)
(0.0209333 0.0542801 1.64064e-20)
(0.0243663 0.0678659 5.52246e-21)
(0.0279818 0.0820196 2.78719e-21)
(0.0317651 0.096619 -1.12214e-20)
(0.0356998 0.111557 0)
(0.0397684 0.126734 0)
(0.0439516 0.142063 5.7226e-21)
(0.048228 0.157458 1.59471e-23)
(0.0525765 0.17284 -5.76097e-21)
(0.0569753 0.188133 -5.79681e-21)
(0.0614015 0.203264 -1.16266e-20)
(0.065832 0.218163 1.75206e-20)
(0.0702446 0.232766 1.81399e-23)
(0.0746169 0.247008 -1.10318e-23)
(0.0789278 0.260832 5.88227e-21)
(0.0831579 0.274183 -1.18589e-20)
(0.0872885 0.287014 2.37187e-20)
(0.0913021 0.299281 0)
(0.095183 0.310945 5.97913e-21)
(0.0989173 0.321975 5.99674e-21)
(0.102494 0.332346 1.20402e-20)
(0.105903 0.342035 3.23103e-23)
(0.109138 0.35103 0)
(0.112195 0.359319 6.0837e-21)
(0.11507 0.366895 -6.00326e-21)
(0.117766 0.373755 -6.03681e-21)
(0.120284 0.379893 1.8311e-20)
(0.122632 0.3853 -1.81924e-20)
(0.124828 0.389957 1.22466e-20)
(0.126848 0.393848 -1.82312e-20)
(0.128585 0.396939 6.86991e-21)
(0.000442279 -0.00457881 8.76422e-21)
(0.00147272 -0.00890514 -9.56172e-21)
(0.00290785 -0.00901476 1.9591e-20)
(0.0045238 -0.00589625 0)
(0.00633453 -0.000235731 7.6561e-21)
(0.00832743 0.00746401 1.29823e-20)
(0.0105032 0.0168092 2.63677e-21)
(0.012866 0.0274871 1.19419e-24)
(0.0154172 0.0392458 8.11618e-21)
(0.0181535 0.0518822 -2.7367e-21)
(0.0210701 0.0652293 1.38006e-20)
(0.0241596 0.079147 -1.67055e-20)
(0.0274117 0.0935154 1.68274e-20)
(0.0308136 0.108229 -5.65233e-21)
(0.0343508 0.123191 5.67585e-21)
(0.0380063 0.138316 -1.14203e-20)
(0.0417621 0.153521 -1.7223e-20)
(0.0455993 0.168729 5.75651e-21)
(0.0494985 0.183865 -5.79881e-21)
(0.0534394 0.198859 1.74261e-20)
(0.0574013 0.213642 -1.1669e-20)
(0.0613638 0.228149 -1.16952e-20)
(0.0653065 0.242319 0)
(0.0692104 0.256094 0)
(0.0730575 0.269421 -1.18024e-20)
(0.0768306 0.282251 -1.18589e-20)
(0.0805132 0.294539 -1.18675e-20)
(0.0840903 0.306248 0)
(0.087549 0.317344 0)
(0.0908781 0.3278 -2.3974e-20)
(0.0940683 0.337594 -8.68749e-23)
(0.0971126 0.346709 1.20488e-20)
(0.100006 0.355131 -1.20101e-20)
(0.102746 0.362853 -1.21231e-20)
(0.105331 0.369867 1.21003e-20)
(0.107766 0.376164 0)
(0.110055 0.381734 1.21596e-20)
(0.112216 0.386554 -2.43106e-20)
(0.114213 0.390608 2.42968e-20)
(0.115939 0.393861 -2.76624e-20)
(0.000536706 -0.00474591 -4.37929e-21)
(0.00160303 -0.00935083 7.17231e-21)
(0.00291519 -0.00970002 -9.7971e-21)
(0.00430487 -0.00680644 0)
(0.00580875 -0.00136779 -1.27612e-20)
(0.00743399 0.00610736 -7.79004e-21)
(0.00919657 0.0152229 1.05469e-20)
(0.0111122 0.0256661 0)
(0.0131908 0.0371858 -1.62324e-20)
(0.0154358 0.0495805 -5.47028e-21)
(0.0178481 0.0626849 -5.51835e-21)
(0.0204254 0.0763613 1.11401e-20)
(0.0231607 0.0904921 -1.12168e-20)
(0.0260443 0.104973 5.64111e-21)
(0.0290645 0.119712 0)
(0.0322075 0.134624 1.71359e-20)
(0.0354571 0.149628 5.74631e-21)
(0.0387968 0.164649 -1.15397e-20)
(0.0422097 0.179615 2.3137e-20)
(0.0456778 0.194457 -2.32223e-20)
(0.0491821 0.209108 2.32724e-20)
(0.052704 0.223505 1.16952e-20)
(0.0562253 0.237585 0)
(0.0597289 0.251294 1.17912e-20)
(0.0631982 0.264577 4.19826e-23)
(0.0666169 0.277386 0)
(0.0699699 0.289677 1.18675e-20)
(0.0732433 0.30141 -1.19242e-20)
(0.0764244 0.312552 1.18746e-20)
(0.0795025 0.323074 2.39404e-20)
(0.0824686 0.332953 -2.39357e-20)
(0.0853156 0.342168 2.39601e-20)
(0.0880382 0.350707 0)
(0.0906332 0.358556 0)
(0.0930999 0.365707 2.41085e-20)
(0.0954395 0.372149 0)
(0.097659 0.377868 0)
(0.0997723 0.38284 -2.42212e-20)
(0.101733 0.387048 2.41171e-20)
(0.103434 0.390459 1.38144e-20)
(0.000635369 -0.00488974 2.19293e-21)
(0.00174196 -0.00973801 0)
(0.00293267 -0.0103041 1.96088e-20)
(0.00409754 -0.00761985 2.50461e-21)
(0.00529683 -0.00239354 2.5541e-21)
(0.00655898 0.00486245 1.55855e-20)
(0.0079149 0.0137508 2.10976e-20)
(0.00939114 0.023959 0)
(0.0110064 0.0352372 5.41171e-21)
(0.0127713 0.047386 1.6406e-20)
(0.0146921 0.0602423 2.20788e-20)
(0.0167704 0.073671 -5.56887e-21)
(0.0190032 0.0875562 -1.68229e-20)
(0.0213834 0.101797 0)
(0.0239021 0.116302 2.27046e-20)
(0.0265476 0.130989 0)
(0.029306 0.145781 3.44113e-20)
(0.0321632 0.160604 -1.14998e-20)
(0.0351042 0.175387 0)
(0.0381127 0.190064 -1.16239e-20)
(0.0411716 0.204568 -2.7361e-23)
(0.0442642 0.218837 -1.16411e-20)
(0.0473743 0.232812 -1.16846e-20)
(0.0504862 0.246436 1.17749e-20)
(0.0535845 0.259658 -1.17442e-20)
(0.0566545 0.272428 0)
(0.0596819 0.284703 -1.18696e-20)
(0.0626536 0.296442 1.18243e-20)
(0.0655576 0.307611 0)
(0.0683839 0.318179 0)
(0.0711238 0.328123 0)
(0.0737697 0.337422 -2.39978e-20)
(0.0763164 0.346058 2.38711e-20)
(0.0787604 0.354019 0)
(0.0811004 0.361292 -1.20323e-20)
(0.0833368 0.367863 0)
(0.0854762 0.373718 2.41547e-20)
(0.0875314 0.378832 -1.19346e-20)
(0.0894436 0.383187 -2.41765e-20)
(0.0911079 0.386751 2.73796e-20)
(0.000736834 -0.00501345 1.53652e-20)
(0.00188621 -0.0100716 -2.15423e-20)
(0.00295567 -0.0108319 -3.67741e-20)
(0.00389671 -0.00834205 -2.00433e-20)
(0.00479411 -0.00331807 -5.1077e-21)
(0.00569727 0.00372464 -1.03884e-20)
(0.0066524 0.0123879 -4.74724e-20)
(0.00769744 0.0223605 -1.60395e-20)
(0.00885933 0.0333951 -2.70533e-20)
(0.0101555 0.0452939 -2.73424e-20)
(0.0115974 0.0578969 -3.86401e-20)
(0.0131908 0.0710712 -2.22624e-20)
(0.0149356 0.0847035 1.05235e-24)
(0.0168276 0.098695 -2.25711e-20)
(0.0188604 0.112958 -2.27046e-20)
(0.0210243 0.127411 -3.42407e-20)
(0.0233076 0.14198 2.29214e-20)
(0.0256978 0.156592 -1.14956e-20)
(0.0281817 0.17118 0)
(0.0307449 0.185678 2.31861e-20)
(0.0333719 0.200021 0)
(0.0360479 0.214148 4.66738e-20)
(0.0387582 0.228002 0)
(0.0414885 0.241526 -1.17611e-20)
(0.0442248 0.25467 1.1806e-20)
(0.0469533 0.267384 -2.35121e-20)
(0.049661 0.279624 0)
(0.0523354 0.291351 -2.37513e-20)
(0.0549654 0.302528 2.36525e-20)
(0.0575414 0.313126 0)
(0.0600549 0.323118 0)
(0.0624984 0.332482 0)
(0.0648665 0.3412 -2.38536e-20)
(0.0671555 0.349255 0)
(0.0693635 0.356635 -2.40238e-20)
(0.0714903 0.363323 4.79268e-20)
(0.073542 0.369302 -4.79598e-20)
(0.0755299 0.374548 2.37864e-20)
(0.0773841 0.379042 4.7989e-20)
(0.0790002 0.382755 -2.72943e-20)
(0.000839403 -0.00511493 -1.97548e-20)
(0.00203191 -0.010349 -9.11966e-24)
(0.00297958 -0.0112807 1.96162e-20)
(0.00369717 -0.00896967 4.00933e-20)
(0.00429472 -0.00413859 -5.10896e-21)
(0.0048432 0.00269557 -2.0789e-20)
(0.005404 0.0111356 2.10996e-20)
(0.00602615 0.0208722 3.20811e-20)
(0.00674484 0.0316601 1.08208e-20)
(0.00758425 0.0433047 2.73438e-20)
(0.00856059 0.0556489 2.20792e-20)
(0.00968327 0.0685623 3.33892e-20)
(0.0109552 0.0819341 6.72788e-20)
(0.0123749 0.0956682 3.38642e-20)
(0.013938 0.109679 0)
(0.0156368 0.123889 1.13971e-20)
(0.0174613 0.138224 1.14449e-20)
(0.0194008 0.152615 1.14901e-20)
(0.0214436 0.166996 2.31044e-20)
(0.0235767 0.181302 -1.15785e-20)
(0.0257865 0.19547 0)
(0.0280598 0.209442 -1.17862e-23)
(0.0303832 0.22316 -2.33778e-20)
(0.0327436 0.236569 2.3434e-20)
(0.0351283 0.249618 4.69947e-20)
(0.0375247 0.26226 4.71471e-20)
(0.0399204 0.274449 5.11129e-23)
(0.0423039 0.286146 2.36247e-20)
(0.044665 0.297315 2.36649e-20)
(0.0469944 0.307925 -2.37021e-20)
(0.0492838 0.317948 2.3736e-20)
(0.0515259 0.327361 2.37665e-20)
(0.053715 0.336144 4.76468e-20)
(0.0558473 0.344279 -1.10414e-22)
(0.0579203 0.351751 7.15684e-20)
(0.0599331 0.358543 4.14549e-23)
(0.0618912 0.364636 -2.38546e-20)
(0.0638046 0.370006 -2.39464e-20)
(0.0655924 0.374632 2.38527e-20)
(0.0671507 0.378492 2.72437e-20)
(0.000941682 -0.00519371 1.75813e-20)
(0.00217556 -0.0105687 2.39488e-20)
(0.00299975 -0.0116487 1.47262e-20)
(0.0034938 -0.00950176 -1.50362e-20)
(0.00379349 -0.00485457 -2.55532e-20)
(0.00399164 0.00177589 2.07879e-20)
(0.00416476 0.00999414 0)
(0.00437291 0.0194933 2.1395e-20)
(0.00465924 0.0300316 0)
(0.0050543 0.0414177 -4.37567e-20)
(0.00557892 0.0534974 1.10458e-20)
(0.00624578 0.0661431 -5.56596e-20)
(0.00706067 0.0792469 -2.24264e-20)
(0.00802438 0.0927156 1.1297e-20)
(0.00913472 0.106466 1.9167e-23)
(0.0103856 0.120423 -1.13974e-20)
(0.0117686 0.134514 -2.29205e-20)
(0.0132744 0.148673 -4.60294e-20)
(0.0148929 0.162835 0)
(0.0166123 0.176938 3.87321e-23)
(0.0184206 0.190919 -2.32062e-20)
(0.0203061 0.204722 -2.33172e-20)
(0.0222568 0.218289 2.33779e-20)
(0.0242607 0.231569 -2.34954e-20)
(0.0263058 0.244509 2.34701e-20)
(0.0283808 0.257062 -4.69997e-20)
(0.0304743 0.269184 5.16708e-23)
(0.0325755 0.280836 -4.71678e-20)
(0.0346747 0.291981 -2.3665e-20)
(0.0367634 0.302586 -5.12696e-23)
(0.0388332 0.312625 -9.58472e-23)
(0.040877 0.322071 -2.37666e-20)
(0.0428889 0.330904 -2.37932e-20)
(0.0448649 0.339105 -6.05413e-23)
(0.0468021 0.346657 -2.38332e-20)
(0.0486985 0.353541 -7.19467e-23)
(0.0505592 0.359738 -2.39246e-20)
(0.0523927 0.365223 7.1255e-20)
(0.0541074 0.369978 -2.38528e-20)
(0.0555997 0.373981 -2.7275e-20)
(0.00104229 -0.00524886 -1.75825e-20)
(0.0023139 -0.0107295 4.79128e-21)
(0.0030117 -0.0119351 -1.47227e-20)
(0.00328154 -0.00993761 -5.01476e-21)
(0.00328542 -0.00546557 2.04434e-20)
(0.00313795 0.000965339 -5.19947e-21)
(0.00293048 0.00896265 5.27785e-21)
(0.00273399 0.018223 -3.20952e-20)
(0.00259949 0.0285086 1.0825e-20)
(0.00256345 0.0396315 2.18803e-20)
(0.00265083 0.0514409 0)
(0.00287741 0.0638125 4.45401e-20)
(0.00325175 0.0766411 0)
(0.00377682 0.0898365 -4.5152e-20)
(0.00445198 0.103318 -2.27065e-20)
(0.00527275 0.117012 0)
(0.00623221 0.13085 0)
(0.00732242 0.144767 4.60321e-20)
(0.00853417 0.1587 2.31362e-20)
(0.00985716 0.172587 -4.63553e-20)
(0.0112809 0.186369 2.32044e-20)
(0.0127949 0.19999 0)
(0.0143882 0.213394 -2.34143e-20)
(0.0160499 0.22653 4.68247e-20)
(0.0177692 0.239346 -2.34079e-20)
(0.0195354 0.251797 -2.35663e-20)
(0.021338 0.263838 2.34851e-20)
(0.0231671 0.275429 0)
(0.0250137 0.286534 4.72861e-20)
(0.0268693 0.29712 -2.35774e-20)
(0.0287262 0.307159 -2.37424e-20)
(0.0305769 0.316624 -1.42921e-22)
(0.0324156 0.325493 9.48991e-20)
(0.0342381 0.333747 -7.10624e-20)
(0.0360406 0.341366 0)
(0.0378204 0.348332 -2.37745e-20)
(0.0395818 0.354625 -4.76232e-20)
(0.0413317 0.36022 2.35503e-20)
(0.0429686 0.365098 2.36792e-20)
(0.044388 0.369244 0)
(0.00113974 -0.00527958 -3.52061e-20)
(0.00244344 -0.0108307 -4.79393e-21)
(0.00301101 -0.0121392 3.92973e-20)
(0.0030558 -0.0102768 -4.01444e-20)
(0.00276589 -0.00597184 0)
(0.00227772 0.00026316 0)
(0.00169744 0.00804023 -1.05603e-20)
(0.00110655 0.0170602 -2.50749e-24)
(0.000563436 0.0270897 1.08279e-20)
(0.000110112 0.0379448 0)
(-0.000224405 0.0494783 0)
(-0.000421536 0.0615691 -1.11293e-20)
(-0.000470426 0.0741155 1.23516e-23)
(-0.000366116 0.0870298 1.12946e-20)
(-0.000107625 0.100234 2.27065e-20)
(0.00030187 0.113657 0)
(0.00085661 0.127233 2.29555e-20)
(0.00154981 0.140898 -2.29566e-20)
(0.00237345 0.15459 -4.62108e-20)
(0.00331845 0.168251 4.63609e-20)
(0.00437547 0.181823 8.23554e-23)
(0.00553523 0.19525 -2.32633e-20)
(0.00678783 0.208479 2.34096e-20)
(0.00812324 0.221457 -4.67715e-20)
(0.0095316 0.234137 0)
(0.011003 0.246471 2.35516e-20)
(0.0125279 0.258417 -4.70608e-20)
(0.014097 0.269933 2.35003e-20)
(0.0157017 0.280984 -2.36029e-20)
(0.0173342 0.291536 -2.3682e-20)
(0.0189866 0.301561 -2.38396e-20)
(0.0206516 0.311032 9.46148e-20)
(0.0223233 0.319925 -7.08834e-20)
(0.0239969 0.32822 -4.74879e-20)
(0.0256681 0.335896 4.72162e-20)
(0.027333 0.342934 0)
(0.0289951 0.349314 4.74776e-20)
(0.0306595 0.355014 -4.71805e-20)
(0.0322154 0.360014 -2.36794e-20)
(0.0335568 0.364302 0)
(0.00123257 -0.00528544 7.4839e-20)
(0.00256095 -0.0108716 3.35908e-20)
(0.00299356 -0.0122608 -3.92971e-20)
(0.00281197 -0.0105198 3.5125e-20)
(0.00223051 -0.00637422 -5.11562e-21)
(0.00140725 -0.000331676 1.04048e-20)
(0.000462564 0.0072255 0)
(-0.000511903 0.0160032 -1.07066e-20)
(-0.0014505 0.025773 1.08313e-20)
(-0.00230618 0.0363556 1.09511e-20)
(-0.00304643 0.0476077 -1.10469e-20)
(-0.00365002 0.0594115 -1.11472e-20)
(-0.00410383 0.0716688 1.12172e-20)
(-0.00440127 0.0842947 0)
(-0.00454018 0.0972142 0)
(-0.00452245 0.110358 -2.28567e-20)
(-0.00435268 0.123663 2.29107e-20)
(-0.00403678 0.137066 -2.30601e-20)
(-0.00358173 0.150508 2.3079e-20)
(-0.0029954 0.163933 2.32241e-20)
(-0.00228609 0.177283 -4.65055e-20)
(-0.00146218 0.190505 4.66222e-20)
(-0.000532579 0.203547 9.32476e-23)
(0.000493682 0.216356 -2.33593e-20)
(0.00160747 0.228887 0)
(0.00279964 0.241092 2.35422e-20)
(0.0040613 0.252928 1.15829e-22)
(0.00538401 0.264356 -2.34871e-20)
(0.00675966 0.275339 0)
(0.0081805 0.285845 4.73097e-20)
(0.00963888 0.295843 -4.70843e-20)
(0.0111275 0.305307 0)
(0.0126402 0.314212 4.73845e-20)
(0.0141717 0.322537 -4.71233e-20)
(0.0157168 0.33026 0)
(0.0172707 0.337363 0)
(0.0188354 0.343825 0)
(0.0204143 0.349626 -4.73019e-20)
(0.0218881 0.354745 4.69987e-20)
(0.0231479 0.359176 5.422e-20)
(0.0013193 -0.00526591 -3.52291e-20)
(0.00266305 -0.0108519 -3.83871e-20)
(0.00295516 -0.0122999 -4.91538e-21)
(0.0025459 -0.0106671 1.50627e-20)
(0.0016754 -0.00667376 -2.04685e-20)
(0.000523081 -0.000820718 2.08177e-20)
(-0.00077679 0.00651647 -2.11334e-20)
(-0.00212296 0.0150498 -3.21352e-20)
(-0.00344307 0.0245565 0)
(-0.00468539 0.0348621 -1.09553e-20)
(-0.00581414 0.0458272 1.10511e-20)
(-0.00680576 0.0573381 0)
(-0.00764531 0.0692997 2.24691e-20)
(-0.00832471 0.0816304 -2.25856e-20)
(-0.00884069 0.0942575 -6.82183e-20)
(-0.00919416 0.107115 -4.54976e-23)
(-0.00938882 0.120139 4.58969e-20)
(-0.0094296 0.133272 -2.30109e-20)
(-0.00932251 0.146455 0)
(-0.00907449 0.159634 0)
(-0.00869298 0.172753 4.65332e-20)
(-0.00818547 0.18576 2.33612e-20)
(-0.00755989 0.198602 -2.33228e-20)
(-0.00682446 0.211232 -2.34608e-20)
(-0.00598766 0.223601 4.69015e-20)
(-0.00505793 0.235664 -2.34305e-20)
(-0.00404339 0.247379 4.71379e-20)
(-0.00295182 0.258707 -9.41482e-20)
(-0.00179096 0.26961 9.4227e-20)
(-0.000568436 0.280057 -9.42885e-20)
(0.00070816 0.290017 9.43324e-20)
(0.00203156 0.299462 -9.43581e-20)
(0.00339527 0.308368 4.70554e-20)
(0.00479338 0.316713 4.73023e-20)
(0.00621969 0.324475 2.531e-22)
(0.00766816 0.331635 2.5178e-22)
(0.00913946 0.338175 -4.69688e-20)
(0.0106348 0.344074 1.77708e-22)
(0.0120272 0.349313 -4.68626e-20)
(0.0132038 0.35389 0)
(0.00139845 -0.00522081 4.40779e-21)
(0.0027466 -0.0107718 -4.80196e-21)
(0.00289194 -0.0122573 1.47517e-20)
(0.00225353 -0.01072 -2.00913e-20)
(0.00109696 -0.00687222 1.02379e-20)
(-0.000377636 -0.00120608 0)
(-0.00202267 0.00591091 0)
(-0.00372783 0.0141977 4.28429e-20)
(-0.00541444 0.0234377 5.42172e-20)
(-0.00702656 0.0334616 -1.09537e-20)
(-0.00852559 0.0441347 5.53137e-20)
(-0.00988587 0.055347 -1.11469e-20)
(-0.0110908 0.067007 0)
(-0.0121313 0.0790359 0)
(-0.0130031 0.0913639 4.54695e-20)
(-0.0137064 0.103927 0)
(-0.0142438 0.116664 2.29493e-20)
(-0.0146196 0.129518 -2.30993e-20)
(-0.0148389 0.142434 0)
(-0.0149078 0.155358 -4.64348e-20)
(-0.0148331 0.168236 -2.322e-20)
(-0.0146215 0.181017 -6.99602e-20)
(-0.0142798 0.193652 -2.34229e-20)
(-0.0138158 0.20609 2.33727e-20)
(-0.0132372 0.218287 4.69197e-20)
(-0.0125517 0.230198 0)
(-0.0117668 0.24178 4.70259e-20)
(-0.0108897 0.252995 9.42393e-20)
(-0.00992785 0.263807 2.30231e-22)
(-0.00888875 0.274183 -4.69994e-20)
(-0.00777997 0.284093 -4.7249e-20)
(-0.00660888 0.293509 4.70112e-20)
(-0.00538237 0.302406 4.72451e-20)
(-0.00410709 0.310762 -9.42113e-20)
(-0.00279031 0.318556 9.4153e-20)
(-0.00143952 0.325768 -4.7078e-20)
(-5.57913e-05 0.332382 4.68689e-20)
(0.00135985 0.338378 9.38607e-20)
(0.00267369 0.343738 4.67871e-20)
(0.00376729 0.348465 5.36902e-20)
(0.00146852 -0.00514998 -3.52946e-20)
(0.0028084 -0.0106316 3.36365e-20)
(0.00280017 -0.012134 -2.95238e-20)
(0.00193123 -0.0106801 3.0156e-20)
(0.000491982 -0.00697173 5.12164e-20)
(-0.0012974 -0.00149028 -4.16733e-20)
(-0.00327665 0.00540594 5.28812e-20)
(-0.00532704 0.0134439 3.21612e-20)
(-0.00736411 0.0224138 -7.59175e-20)
(-0.00932816 0.0321519 2.19325e-20)
(-0.0111781 0.042528 1.10838e-20)
(-0.0128865 0.0534364 2.23272e-20)
(-0.0144356 0.0647892 2.25063e-20)
(-0.0158153 0.0765105 -4.52679e-20)
(-0.0170206 0.088533 4.55303e-20)
(-0.018051 0.100795 6.86632e-20)
(-0.0189086 0.113238 -6.8891e-20)
(-0.0195966 0.125806 9.22855e-20)
(-0.0201197 0.138447 4.63261e-20)
(-0.0204833 0.151108 6.96981e-20)
(-0.0206934 0.163736 2.3346e-20)
(-0.0207559 0.176283 4.66725e-20)
(-0.0206772 0.188699 -4.67992e-20)
(-0.0204639 0.200938 0)
(-0.0201235 0.212952 -1.40893e-19)
(-0.0196628 0.224699 9.39745e-20)
(-0.0190888 0.236138 -4.68162e-20)
(-0.0184081 0.24723 -4.68469e-20)
(-0.017628 0.25794 1.11069e-22)
(-0.0167559 0.268235 0)
(-0.0157994 0.278084 0)
(-0.0147661 0.287461 4.70832e-20)
(-0.0136632 0.296341 -4.71924e-20)
(-0.0124983 0.304701 4.69324e-20)
(-0.0112799 0.31252 -4.71199e-20)
(-0.0100171 0.319779 -4.70735e-20)
(-0.00871311 0.326464 0)
(-0.00737125 0.332557 -4.67208e-20)
(-0.00613107 0.338041 -4.65782e-20)
(-0.00511812 0.342923 -1.61117e-19)
(0.00152804 -0.00505352 3.52958e-20)
(0.00284543 -0.0104321 -3.36331e-20)
(0.00267629 -0.0119316 3.9362e-20)
(0.00157558 -0.0105497 -7.03724e-20)
(-0.000142346 -0.006975 -5.12201e-20)
(-0.00223825 -0.00167639 4.16732e-20)
(-0.00453982 0.00499839 -8.46282e-20)
(-0.00692063 0.0127853 -4.28772e-20)
(-0.00929102 0.0214817 5.42461e-20)
(-0.011588 0.0309298 -9.86983e-20)
(-0.0137684 0.0410046 -6.64244e-20)
(-0.0158033 0.0516044 -2.23527e-20)
(-0.017674 0.062645 -6.74834e-20)
(-0.0193699 0.0740534 6.78942e-20)
(-0.0208854 0.0857647 -4.55304e-20)
(-0.0222194 0.0977196 -4.5765e-20)
(-0.0233733 0.109862 0)
(-0.0243499 0.122138 -4.61612e-20)
(-0.0251531 0.134497 -6.95339e-20)
(-0.025788 0.146887 2.32106e-20)
(-0.0262598 0.159259 -4.65976e-20)
(-0.0265738 0.171563 0)
(-0.0267356 0.183753 4.67995e-20)
(-0.0267515 0.195781 4.69874e-20)
(-0.026628 0.207604 -4.68968e-20)
(-0.0263715 0.219178 0)
(-0.0259883 0.230463 0)
(-0.0254848 0.241422 0)
(-0.0248679 0.25202 7.46513e-24)
(-0.024145 0.262224 0)
(-0.0233237 0.272004 -9.42841e-20)
(-0.0224119 0.281333 -1.22707e-22)
(-0.0214173 0.290186 -9.41797e-20)
(-0.0203486 0.298543 9.39995e-20)
(-0.0192156 0.306382 -4.6839e-20)
(-0.0180293 0.313685 4.69188e-20)
(-0.016795 0.320439 0)
(-0.0155189 0.32663 9.35896e-20)
(-0.0143452 0.332242 -4.65189e-20)
(-0.0134084 0.337285 0)
(0.00157558 -0.00493168 4.41589e-21)
(0.00285479 -0.0101745 0)
(0.00251703 -0.011652 -4.92389e-20)
(0.0011835 -0.0103312 6.03341e-20)
(-0.000808505 -0.00688515 3.07544e-20)
(-0.00320177 -0.00176787 -4.17039e-20)
(-0.00581278 0.00468467 4.23225e-20)
(-0.00850811 0.0122183 -4.29141e-20)
(-0.0111936 0.020638 0)
(-0.0138033 0.0297925 4.38784e-20)
(-0.0162925 0.0395619 -4.43224e-20)
(-0.0186312 0.049849 -2.89682e-23)
(-0.0208 0.0605729 0)
(-0.0227879 0.0716636 4.53375e-20)
(-0.024589 0.083059 -2.27909e-20)
(-0.0262018 0.0947019 4.58949e-20)
(-0.0276272 0.106538 2.30675e-20)
(-0.0288675 0.118517 -4.62487e-20)
(-0.0299262 0.130588 0)
(-0.0308078 0.142701 6.98666e-20)
(-0.0315172 0.154808 2.33937e-20)
(-0.0320589 0.166863 0)
(-0.032438 0.178818 0)
(-0.0326602 0.190629 0)
(-0.0327314 0.202251 4.69764e-20)
(-0.0326574 0.213643 0)
(-0.0324439 0.224766 -4.71732e-20)
(-0.032097 0.235583 9.41891e-20)
(-0.0316234 0.24606 -9.40955e-20)
(-0.0310305 0.256163 0)
(-0.030326 0.265864 4.70861e-20)
(-0.0295179 0.275137 -4.70542e-20)
(-0.0286148 0.283958 4.70291e-20)
(-0.0276264 0.292304 0)
(-0.0265639 0.300158 0)
(-0.0254404 0.307502 4.69216e-20)
(-0.0242639 0.314325 -4.66357e-20)
(-0.0230433 0.320615 9.3452e-20)
(-0.0219266 0.326361 -9.2853e-20)
(-0.021059 0.331573 0)
(0.00160973 -0.00478486 3.09426e-20)
(0.00283369 -0.0098604 9.62385e-21)
(0.00231933 -0.0112977 3.93929e-20)
(0.000752246 -0.010028 4.02479e-20)
(-0.00150858 -0.00670576 -4.10037e-20)
(-0.00418914 -0.00176859 4.1704e-20)
(-0.00709567 0.00446081 4.23559e-20)
(-0.0100885 0.0117389 4.29142e-20)
(-0.0130696 0.019879 0)
(-0.0159709 0.0287366 4.39258e-20)
(-0.018746 0.0381971 4.43225e-20)
(-0.0213645 0.0481678 4.46995e-20)
(-0.0238067 0.0585712 0)
(-0.0260614 0.0693405 3.87437e-23)
(-0.0281224 0.0804159 4.56065e-20)
(-0.0299882 0.0917427 -2.28858e-20)
(-0.0316591 0.103269 -2.29667e-20)
(-0.0331371 0.114945 6.94176e-20)
(-0.0344254 0.126722 6.74033e-23)
(-0.0355283 0.138553 -2.32054e-20)
(-0.03645 0.150391 -4.66875e-20)
(-0.0371947 0.162189 0)
(-0.0377667 0.173904 0)
(-0.0381713 0.185489 0)
(-0.0384138 0.196904 0)
(-0.0384994 0.208106 0)
(-0.0384332 0.219059 0)
(-0.0382213 0.229725 4.72212e-20)
(-0.0378701 0.240072 -4.7025e-20)
(-0.0373868 0.250066 0)
(-0.0367792 0.259681 0)
(-0.0360556 0.26889 4.70544e-20)
(-0.0352256 0.27767 0)
(-0.0342998 0.286001 4.70348e-20)
(-0.0332911 0.293865 -4.67657e-20)
(-0.0322148 0.301248 0)
(-0.0310821 0.308139 9.35267e-20)
(-0.0299045 0.314532 -9.29413e-20)
(-0.0288327 0.320416 0)
(-0.0280251 0.325805 0)
(0.00162916 -0.00461366 -3.53581e-20)
(0.00277958 -0.00949157 -9.62377e-21)
(0.00208042 -0.0108714 9.85441e-21)
(0.000279407 -0.00964337 -4.02479e-20)
(-0.00224424 -0.00644087 0)
(-0.00520111 -0.00168285 0)
(-0.00838816 0.00432244 -3.17631e-20)
(-0.0116604 0.0113429 -1.07338e-20)
(-0.0149166 0.0192008 -2.17406e-20)
(-0.0180868 0.0277585 -2.19647e-20)
(-0.021124 0.0369072 -2.21945e-20)
(-0.0239973 0.0465584 2.23602e-20)
(-0.0266871 0.0566384 2.25452e-20)
(-0.0291821 0.0670832 -2.26968e-20)
(-0.0314763 0.0778356 0)
(-0.0335678 0.0888429 0)
(-0.0354571 0.100055 -4.61082e-20)
(-0.0371458 0.111425 0)
(-0.038637 0.122906 0)
(-0.0399344 0.13445 4.67744e-20)
(-0.0410422 0.146013 1.54414e-22)
(-0.0419638 0.15755 1.10054e-22)
(-0.0427033 0.169017 -4.70502e-20)
(-0.0432653 0.180372 4.69493e-20)
(-0.0436546 0.191572 4.71183e-20)
(-0.0438758 0.202579 -4.71548e-20)
(-0.0439338 0.213353 0)
(-0.0438341 0.223862 4.72553e-20)
(-0.043583 0.23407 1.922e-22)
(-0.0431877 0.243948 -4.70398e-20)
(-0.0426558 0.253468 0)
(-0.0419964 0.262606 0)
(-0.0412195 0.27134 4.70902e-20)
(-0.0403371 0.27965 -4.68307e-20)
(-0.0393638 0.287521 -4.69241e-20)
(-0.0383171 0.29494 4.66465e-20)
(-0.0372118 0.301899 0)
(-0.0360624 0.308397 0)
(-0.035021 0.314427 0)
(-0.0342615 0.320002 -5.32366e-20)
(0.00163262 -0.00441887 4.42396e-20)
(0.00269006 -0.00907031 -1.92605e-20)
(0.00179783 -0.0103765 9.85802e-21)
(-0.000237061 -0.00918145 0)
(-0.00301678 -0.00609493 5.1302e-20)
(-0.00623797 -0.00151533 1.99888e-24)
(-0.0096895 0.00426486 4.23919e-20)
(-0.0132219 0.0110257 -3.22253e-20)
(-0.0167315 0.018599 4.349e-20)
(-0.0201471 0.0268545 -2.19731e-20)
(-0.0234212 0.0356889 0)
(-0.0265231 0.0450184 2.24061e-20)
(-0.0294334 0.0547727 -6.76551e-20)
(-0.0321412 0.0648908 0)
(-0.0346406 0.075318 6.86252e-20)
(-0.0369298 0.0860038 -4.59388e-20)
(-0.0390092 0.0969003 -4.61888e-20)
(-0.0408804 0.107961 2.31598e-20)
(-0.0425464 0.119142 0)
(-0.0440107 0.130396 -4.66721e-20)
(-0.045277 0.141681 -4.69091e-20)
(-0.0463485 0.152953 -4.91335e-23)
(-0.0472289 0.164169 4.70585e-20)
(-0.0479224 0.175288 4.71826e-20)
(-0.048433 0.186268 -9.41779e-20)
(-0.0487649 0.197072 4.71551e-20)
(-0.0489226 0.207663 0)
(-0.0489113 0.218006 -4.72306e-20)
(-0.0487371 0.22807 4.72168e-20)
(-0.0484069 0.237825 4.7188e-20)
(-0.0479286 0.247244 -4.71441e-20)
(-0.0473115 0.256304 4.70849e-20)
(-0.0465665 0.264985 0)
(-0.0457067 0.273269 4.70036e-20)
(-0.0447485 0.281142 9.3887e-20)
(-0.043712 0.288595 -9.32497e-20)
(-0.0426155 0.295623 9.33202e-20)
(-0.0414771 0.302229 2.95192e-22)
(-0.0404489 0.30841 -4.6174e-20)
(-0.0397231 0.314182 1.06417e-19)
(0.00161892 -0.00420149 -2.65506e-20)
(0.002563 -0.00859922 -5.78015e-20)
(0.00146938 -0.00981663 3.94477e-20)
(-0.000798809 -0.00864661 -3.02122e-20)
(-0.00382705 -0.00567281 -1.02521e-20)
(-0.00729959 -0.00127106 1.04375e-20)
(-0.0109985 0.00428305 -2.11854e-20)
(-0.0147707 0.0107827 -2.14851e-20)
(-0.0185108 0.0180694 2.17643e-20)
(-0.022147 0.0260206 -4.39915e-20)
(-0.0256318 0.034539 -2.67745e-23)
(-0.0289351 0.0435452 2.23918e-20)
(-0.0320379 0.0529724 0)
(-0.0349298 0.0627625 -2.27644e-20)
(-0.0376053 0.0728633 -2.28824e-20)
(-0.0400628 0.0832264 4.59921e-20)
(-0.0423028 0.0938057 0)
(-0.0443273 0.104557 0)
(-0.046139 0.115435 4.66866e-20)
(-0.0477412 0.126398 -4.66927e-20)
(-0.0491375 0.137402 0)
(-0.0503309 0.148406 4.70859e-20)
(-0.0513246 0.159368 -4.68911e-20)
(-0.0521223 0.170247 -9.43221e-20)
(-0.0527276 0.181004 -1.74809e-22)
(-0.0531442 0.191601 4.72104e-20)
(-0.0533763 0.202003 -9.44574e-20)
(-0.0534286 0.212176 4.72308e-20)
(-0.0533071 0.222089 -4.7217e-20)
(-0.0530182 0.231714 1.08535e-22)
(-0.0525701 0.241025 7.28426e-23)
(-0.0519724 0.250001 -4.7085e-20)
(-0.0512367 0.258623 -4.70296e-20)
(-0.0503773 0.266876 -4.69305e-20)
(-0.0494122 0.274747 -8.7171e-25)
(-0.0483644 0.282231 0)
(-0.0472562 0.289328 -4.65449e-20)
(-0.0461091 0.296043 9.29368e-20)
(-0.0450745 0.302383 -1.38602e-19)
(-0.0443651 0.308363 2.59541e-22)
(0.001587 -0.0039627 -8.85586e-21)
(0.00239649 -0.00808121 7.70789e-20)
(0.00109327 -0.00919575 -3.94456e-20)
(-0.00140709 -0.00804366 3.02109e-20)
(-0.00467543 -0.00517969 -8.2117e-20)
(-0.00838536 -0.000955388 1.04403e-20)
(-0.0123133 0.00437178 -4.24177e-20)
(-0.0163039 0.0106086 0)
(-0.0202506 0.0176072 0)
(-0.0240816 0.0252528 -4.40273e-20)
(-0.0277499 0.0334541 2.2242e-20)
(-0.0312262 0.042136 1.47104e-23)
(-0.0344923 0.0512355 2.25838e-20)
(-0.0375385 0.0606973 0)
(-0.0403599 0.0704716 -6.87748e-20)
(-0.0429553 0.0805119 2.30087e-20)
(-0.0453255 0.0907738 -4.63297e-20)
(-0.0474728 0.101214 0)
(-0.0493999 0.111791 0)
(-0.0511101 0.122461 4.26681e-23)
(-0.0526068 0.133184 -4.68859e-20)
(-0.0538927 0.143919 4.71096e-20)
(-0.0549709 0.154625 -4.72464e-20)
(-0.0558447 0.165262 4.71451e-20)
(-0.0565171 0.175792 5.06413e-23)
(-0.0569915 0.186179 5.43164e-23)
(-0.0572715 0.196388 4.72892e-20)
(-0.0573617 0.206386 -4.7347e-20)
(-0.0572675 0.216143 0)
(-0.0569952 0.225633 -4.73404e-20)
(-0.056553 0.234831 4.71149e-20)
(-0.0559507 0.243717 0)
(-0.0552005 0.252275 4.70297e-20)
(-0.0543179 0.26049 -4.70943e-20)
(-0.0533225 0.268356 4.66706e-20)
(-0.0522402 0.275868 0)
(-0.0510976 0.283031 1.39747e-19)
(-0.0499199 0.289858 -9.2619e-20)
(-0.0488566 0.296362 0)
(-0.0481437 0.302559 5.31016e-20)
(0.0015359 -0.00370378 7.08907e-20)
(0.00218885 -0.00751943 -3.85454e-20)
(0.000668026 -0.00851826 -9.86376e-21)
(-0.00206272 -0.00737772 1.00753e-20)
(-0.00556187 -0.00462108 4.10629e-20)
(-0.00949418 -0.000573866 0)
(-0.013632 0.00452561 4.2418e-20)
(-0.0178184 0.0104986 6.45305e-20)
(-0.0219467 0.0172079 2.17674e-20)
(-0.0259455 0.0245469 2.19936e-20)
(-0.0297691 0.0324305 2.22269e-20)
(-0.0333889 0.0407882 -6.73275e-20)
(-0.0367881 0.0495603 2.26027e-20)
(-0.0399578 0.0586944 9.11903e-20)
(-0.0428939 0.068143 2.28796e-20)
(-0.0455957 0.0778615 2.30351e-20)
(-0.0480647 0.0878072 4.63299e-20)
(-0.0503032 0.0979383 0)
(-0.0523144 0.108214 0)
(-0.0541015 0.118593 9.38471e-20)
(-0.0556677 0.129035 -1.88216e-19)
(-0.0570158 0.1395 -4.52671e-23)