/*--------------------------------*- C++ -*----------------------------------*\
  =========                 |
  \\      /  F ield         | OpenFOAM: The Open Source CFD Toolbox
   \\    /   O peration     | Website:  https://openfoam.org
    \\  /    A nd           | Version:  7
     \\/     M anipulation  |
\*---------------------------------------------------------------------------*/
FoamFile
{
    version     2.0;
    format      ascii;
    class       volScalarField;
    location    "3.8";
    object      p;
}
// * * * * * * * * * * * * * * * * * * * * * * * * * * * * * * * * * * * * * //

dimensions      [0 2 -2 0 0 0 0];

internalField   nonuniform List<scalar> 
18000
(
1.14683
1.14556
1.14563
1.14599
1.14674
1.14781
1.14914
1.15075
1.15264
1.15479
1.15718
1.1598
1.16263
1.16566
1.16886
1.17221
1.17567
1.17921
1.1828
1.18642
1.19005
1.19368
1.19726
1.20079
1.20423
1.20759
1.21085
1.21403
1.2171
1.21991
1.14382
1.14267
1.14279
1.1432
1.14397
1.14502
1.14631
1.14784
1.1496
1.15158
1.15376
1.15613
1.15869
1.16143
1.16432
1.16735
1.17049
1.17371
1.17699
1.18032
1.18368
1.18706
1.19043
1.19376
1.19704
1.20026
1.20341
1.20648
1.20947
1.21223
1.14066
1.13965
1.13982
1.14028
1.14108
1.14211
1.14336
1.14481
1.14645
1.14825
1.15022
1.15234
1.15461
1.15704
1.15961
1.16231
1.16511
1.16799
1.17096
1.17398
1.17707
1.18019
1.18333
1.18646
1.18958
1.19266
1.1957
1.1987
1.20162
1.20433
1.13736
1.1365
1.13673
1.13724
1.13807
1.13911
1.14032
1.14169
1.14319
1.14482
1.14657
1.14843
1.15041
1.15252
1.15475
1.1571
1.15955
1.16209
1.16472
1.16744
1.17023
1.17308
1.17599
1.17893
1.18188
1.18483
1.18777
1.19069
1.19356
1.19624
1.13397
1.13326
1.13355
1.13412
1.13498
1.13602
1.13719
1.13848
1.13985
1.14129
1.14281
1.14441
1.14609
1.14787
1.14976
1.15174
1.15384
1.15603
1.15832
1.16071
1.16319
1.16578
1.16845
1.17119
1.17397
1.1768
1.17964
1.18249
1.18532
1.18798
1.13046
1.12992
1.13028
1.13091
1.1318
1.13284
1.13398
1.13518
1.13642
1.13768
1.13897
1.1403
1.14168
1.14313
1.14466
1.14628
1.14801
1.14984
1.15178
1.15383
1.15601
1.15832
1.16075
1.16328
1.1659
1.1686
1.17135
1.17414
1.17693
1.17958
1.12688
1.12652
1.12695
1.12764
1.12856
1.12961
1.13071
1.13182
1.13292
1.13401
1.13507
1.13613
1.1372
1.13831
1.13948
1.14074
1.1421
1.14356
1.14514
1.14685
1.14872
1.15075
1.15294
1.15526
1.15772
1.16029
1.16294
1.16567
1.16845
1.17109
1.12323
1.12306
1.12356
1.12432
1.12528
1.12632
1.12738
1.12841
1.12938
1.13028
1.13112
1.13191
1.13268
1.13345
1.13427
1.13516
1.13615
1.13724
1.13846
1.13983
1.14139
1.14314
1.14508
1.1472
1.14949
1.15192
1.15448
1.15715
1.1599
1.16255
1.11952
1.11955
1.12012
1.12095
1.12195
1.12299
1.12401
1.12496
1.1258
1.12653
1.12715
1.12767
1.12814
1.12858
1.12906
1.12959
1.1302
1.13092
1.13178
1.13282
1.13407
1.13553
1.13723
1.13914
1.14126
1.14357
1.14603
1.14864
1.15137
1.15401
1.11578
1.11601
1.11665
1.11755
1.11858
1.11963
1.12061
1.12148
1.12221
1.12277
1.12317
1.12343
1.12361
1.12374
1.12388
1.12405
1.1243
1.12465
1.12517
1.12587
1.12681
1.12801
1.12946
1.13117
1.13312
1.13528
1.13765
1.14019
1.14289
1.14553
1.11202
1.11245
1.11316
1.11412
1.11518
1.11624
1.1172
1.118
1.11861
1.11901
1.11921
1.11923
1.11912
1.11895
1.11876
1.11859
1.11848
1.11849
1.11866
1.11905
1.11969
1.12062
1.12184
1.12334
1.12511
1.12714
1.1294
1.13186
1.13453
1.13717
1.10825
1.10887
1.10965
1.11067
1.11177
1.11284
1.11377
1.11452
1.11502
1.11527
1.11528
1.11507
1.11471
1.11425
1.11375
1.11325
1.11281
1.11248
1.11232
1.1124
1.11276
1.11342
1.11441
1.1157
1.1173
1.11919
1.12134
1.12372
1.12634
1.12896
1.1045
1.10529
1.10613
1.10721
1.10835
1.10943
1.11036
1.11105
1.11146
1.11158
1.1114
1.11099
1.11038
1.10965
1.10886
1.10805
1.1073
1.10665
1.10619
1.10597
1.10605
1.10647
1.10722
1.10832
1.10975
1.11149
1.11352
1.11581
1.11836
1.12095
1.10076
1.10172
1.10261
1.10375
1.10493
1.10603
1.10695
1.1076
1.10794
1.10793
1.1076
1.10699
1.10617
1.10519
1.10412
1.10303
1.10198
1.10104
1.10028
1.09979
1.09961
1.09978
1.10032
1.10122
1.10248
1.10408
1.10598
1.10816
1.11063
1.11318
1.09705
1.09815
1.0991
1.10029
1.10152
1.10265
1.10357
1.10419
1.10445
1.10434
1.10388
1.1031
1.10207
1.10087
1.09955
1.0982
1.09688
1.09566
1.09463
1.09388
1.09345
1.0934
1.09372
1.09444
1.09552
1.09697
1.09874
1.10079
1.10316
1.10565
1.09337
1.0946
1.0956
1.09684
1.09811
1.09928
1.1002
1.1008
1.10102
1.10082
1.10024
1.09931
1.0981
1.09669
1.09515
1.09356
1.09199
1.09052
1.08924
1.08824
1.08759
1.08731
1.08744
1.08797
1.08888
1.09017
1.0918
1.09372
1.09596
1.09837
1.08973
1.09106
1.09211
1.0934
1.09472
1.09592
1.09687
1.09746
1.09763
1.09737
1.09668
1.09562
1.09425
1.09266
1.09092
1.08911
1.08731
1.08561
1.0841
1.08288
1.08201
1.08153
1.08146
1.08181
1.08255
1.08368
1.08516
1.08693
1.08904
1.09135
1.08612
1.08754
1.08863
1.08997
1.09133
1.09257
1.09355
1.09414
1.09429
1.09396
1.09319
1.09202
1.09051
1.08876
1.08684
1.08483
1.08282
1.08091
1.07919
1.07776
1.07669
1.07602
1.07576
1.07593
1.07651
1.07748
1.0788
1.08042
1.08237
1.08455
1.08255
1.08402
1.08515
1.08654
1.08795
1.08924
1.09024
1.09084
1.09097
1.09061
1.08976
1.08849
1.08686
1.08497
1.08288
1.08069
1.0785
1.07639
1.07448
1.07286
1.07161
1.07075
1.07032
1.07032
1.07073
1.07154
1.0727
1.07416
1.07593
1.07798
1.079
1.08051
1.08167
1.08311
1.08458
1.08591
1.08694
1.08756
1.08768
1.08727
1.08637
1.08502
1.08328
1.08126
1.07902
1.07667
1.0743
1.07202
1.06993
1.06814
1.06671
1.06568
1.06508
1.06492
1.06517
1.06582
1.06682
1.06812
1.06971
1.0716
1.07548
1.077
1.0782
1.07968
1.08119
1.08257
1.08364
1.08427
1.08438
1.08395
1.083
1.08157
1.07974
1.07759
1.07522
1.07272
1.07019
1.06775
1.0655
1.06355
1.06196
1.06077
1.06001
1.05969
1.05979
1.06028
1.06112
1.06225
1.06366
1.0654
1.07197
1.07349
1.07471
1.07624
1.0778
1.07922
1.08032
1.08096
1.08107
1.08061
1.07961
1.07811
1.07619
1.07393
1.07143
1.06879
1.06611
1.06353
1.06114
1.05904
1.0573
1.05596
1.05505
1.05459
1.05454
1.05488
1.05557
1.05654
1.05777
1.05934
1.06846
1.06996
1.07121
1.07278
1.07438
1.07584
1.07696
1.07762
1.07772
1.07723
1.07618
1.07461
1.0726
1.07024
1.06762
1.06485
1.06204
1.05932
1.0568
1.05457
1.05269
1.05122
1.05017
1.04956
1.04937
1.04957
1.05012
1.05093
1.05199
1.05342
1.06493
1.06641
1.06768
1.06929
1.07094
1.07242
1.07357
1.07422
1.07431
1.07379
1.07269
1.07104
1.06895
1.06648
1.06374
1.06085
1.05792
1.05508
1.05244
1.05009
1.04809
1.04649
1.04532
1.04457
1.04425
1.04431
1.04471
1.04539
1.0463
1.04758
1.06138
1.06282
1.06413
1.06577
1.06745
1.06896
1.07011
1.07076
1.07082
1.07026
1.06909
1.06737
1.06518
1.06261
1.05977
1.05676
1.05372
1.05078
1.04803
1.04557
1.04346
1.04174
1.04044
1.03957
1.03912
1.03904
1.03931
1.03985
1.04064
1.04182
1.05779
1.0592
1.06053
1.0622
1.0639
1.06543
1.06658
1.06721
1.06724
1.06662
1.06538
1.06358
1.06129
1.05862
1.05566
1.05255
1.04942
1.04638
1.04354
1.04098
1.03877
1.03694
1.03552
1.03452
1.03393
1.03371
1.03385
1.03427
1.03495
1.03607
1.05415
1.05553
1.05687
1.05857
1.06029
1.06182
1.06296
1.06356
1.06354
1.06285
1.06153
1.05963
1.05725
1.05447
1.05142
1.04821
1.04499
1.04187
1.03895
1.0363
1.03399
1.03206
1.03052
1.02938
1.02864
1.02827
1.02827
1.02858
1.02918
1.03028
1.05043
1.05179
1.05316
1.05487
1.0566
1.05812
1.05923
1.05979
1.0597
1.05894
1.05752
1.05553
1.05304
1.05017
1.04702
1.04373
1.04043
1.03724
1.03425
1.03153
1.02912
1.02708
1.02541
1.02412
1.0232
1.02266
1.02248
1.02266
1.0232
1.02435
1.04662
1.04797
1.04936
1.0511
1.05283
1.05432
1.05539
1.05589
1.05572
1.05487
1.05335
1.05125
1.04866
1.04569
1.04246
1.0391
1.03575
1.0325
1.02944
1.02665
1.02415
1.02199
1.02018
1.01871
1.01758
1.0168
1.01638
1.01637
1.01687
1.01819
1.04272
1.04407
1.04549
1.04724
1.04896
1.05042
1.05143
1.05185
1.05159
1.05064
1.04901
1.04681
1.04412
1.04106
1.03776
1.03434
1.03094
1.02764
1.02454
1.02167
1.01909
1.01681
1.01483
1.01316
1.01178
1.01068
1.00986
1.00936
1.00934
1.01068
1.22876
1.2427
1.25092
1.25825
1.26302
1.26656
1.26888
1.27037
1.27116
1.27136
1.27109
1.27043
1.26949
1.26832
1.26695
1.26544
1.26381
1.26209
1.2603
1.25845
1.25649
1.25446
1.25229
1.25008
1.24771
1.24539
1.24288
1.24079
1.23876
1.23835
1.22107
1.2359
1.24468
1.25241
1.2574
1.26111
1.26357
1.26517
1.26604
1.26633
1.26615
1.26556
1.26468
1.26355
1.26225
1.26078
1.25918
1.25749
1.25572
1.25389
1.25193
1.24991
1.24774
1.24552
1.24315
1.24081
1.23829
1.23618
1.23413
1.23369
1.21313
1.22899
1.23834
1.24649
1.25174
1.25564
1.25825
1.25995
1.26091
1.26128
1.26119
1.26068
1.25986
1.25877
1.25754
1.25612
1.25454
1.2529
1.25115
1.24933
1.24739
1.24537
1.24322
1.24101
1.23863
1.23629
1.23377
1.23164
1.22957
1.2291
1.20498
1.22196
1.2319
1.24051
1.24605
1.25013
1.25289
1.25471
1.25576
1.25622
1.25621
1.25577
1.25502
1.254
1.25281
1.25144
1.24991
1.24829
1.24658
1.24479
1.24286
1.24087
1.23873
1.23653
1.23417
1.23182
1.22931
1.22716
1.22507
1.22458
1.19663
1.21482
1.22537
1.23448
1.24033
1.24461
1.24751
1.24945
1.2506
1.25116
1.25122
1.25086
1.25018
1.24922
1.24808
1.24676
1.24528
1.2437
1.24202
1.24025
1.23835
1.23638
1.23427
1.23209
1.22974
1.22741
1.2249
1.22276
1.22065
1.22014
1.18809
1.20758
1.21878
1.22839
1.23456
1.23905
1.24211
1.24417
1.24543
1.24608
1.24622
1.24594
1.24533
1.24444
1.24335
1.24208
1.24065
1.2391
1.23746
1.23573
1.23386
1.23192
1.22984
1.22769
1.22536
1.22306
1.22056
1.21842
1.2163
1.21577
1.17939
1.20025
1.21212
1.22226
1.22877
1.23347
1.23669
1.23888
1.24025
1.24099
1.24121
1.24101
1.24047
1.23966
1.23862
1.2374
1.23602
1.23452
1.23292
1.23122
1.22939
1.22749
1.22544
1.22333
1.22103
1.21875
1.21628
1.21414
1.21201
1.21147
1.17057
1.19283
1.20541
1.21608
1.22295
1.22788
1.23127
1.23358
1.23506
1.2359
1.2362
1.23608
1.23561
1.23486
1.23389
1.23273
1.2314
1.22995
1.22838
1.22673
1.22494
1.22308
1.22108
1.219
1.21675
1.2145
1.21206
1.20994
1.20779
1.20723
1.16168
1.18535
1.19865
1.20987
1.21711
1.22226
1.22583
1.22827
1.22986
1.2308
1.23119
1.23114
1.23074
1.23007
1.22916
1.22805
1.22679
1.22538
1.22386
1.22226
1.22052
1.2187
1.21674
1.21472
1.21251
1.2103
1.20789
1.20579
1.20364
1.20307
1.15275
1.17782
1.19185
1.20364
1.21124
1.21664
1.22038
1.22296
1.22467
1.2257
1.22617
1.22621
1.22588
1.22528
1.22444
1.22339
1.22218
1.22083
1.21935
1.2178
1.21611
1.21435
1.21244
1.21047
1.20832
1.20616
1.20378
1.20171
1.19957
1.19898
1.14386
1.17025
1.18504
1.19737
1.20536
1.211
1.21493
1.21765
1.21947
1.22061
1.22117
1.22128
1.22103
1.2205
1.21972
1.21873
1.21758
1.21629
1.21486
1.21337
1.21173
1.21002
1.20817
1.20626
1.20416
1.20206
1.19973
1.1977
1.19556
1.19496
1.13503
1.16268
1.17821
1.19109
1.19947
1.20536
1.20949
1.21235
1.21428
1.21552
1.21616
1.21636
1.21618
1.21572
1.21501
1.21408
1.21298
1.21176
1.21038
1.20895
1.20737
1.20572
1.20393
1.20209
1.20005
1.19801
1.19574
1.19375
1.19163
1.19101
1.12634
1.1551
1.17138
1.1848
1.19357
1.19972
1.20404
1.20705
1.2091
1.21043
1.21117
1.21145
1.21135
1.21096
1.21031
1.20944
1.2084
1.20724
1.20592
1.20455
1.20303
1.20145
1.19972
1.19795
1.19598
1.19401
1.19181
1.18987
1.18777
1.18714
1.11782
1.14755
1.16457
1.17851
1.18767
1.19409
1.1986
1.20176
1.20393
1.20537
1.20619
1.20656
1.20653
1.20621
1.20562
1.20482
1.20384
1.20274
1.20148
1.20017
1.19871
1.1972
1.19554
1.19384
1.19195
1.19006
1.18793
1.18605
1.18399
1.18335
1.10953
1.14005
1.15779
1.17222
1.18177
1.18846
1.19318
1.19649
1.19878
1.20031
1.20122
1.20168
1.20172
1.20147
1.20095
1.2002
1.19929
1.19825
1.19705
1.1958
1.19441
1.19297
1.19139
1.18977
1.18796
1.18616
1.18411
1.18231
1.18028
1.17965
1.10147
1.13259
1.15104
1.16594
1.17589
1.18285
1.18777
1.19123
1.19364
1.19528
1.19627
1.19681
1.19692
1.19674
1.19628
1.1956
1.19475
1.19378
1.19263
1.19145
1.19013
1.18876
1.18726
1.18572
1.18401
1.1823
1.18035
1.17863
1.17666
1.17603
1.09365
1.12521
1.14434
1.15968
1.17001
1.17725
1.18238
1.186
1.18852
1.19027
1.19135
1.19196
1.19215
1.19203
1.19163
1.19102
1.19022
1.18932
1.18823
1.18711
1.18587
1.18458
1.18316
1.18171
1.18009
1.17849
1.17664
1.17503
1.17312
1.1725
1.08608
1.11791
1.1377
1.15345
1.16415
1.17168
1.17701
1.18079
1.18344
1.18528
1.18644
1.18714
1.18739
1.18733
1.187
1.18646
1.18572
1.18487
1.18385
1.18279
1.18162
1.18041
1.17908
1.17772
1.17621
1.17472
1.17299
1.17149
1.16967
1.16907
1.07877
1.11074
1.13113
1.14724
1.15832
1.16613
1.17168
1.17562
1.17838
1.18033
1.18157
1.18234
1.18266
1.18266
1.18239
1.18191
1.18123
1.18044
1.17948
1.17849
1.1774
1.17626
1.17502
1.17375
1.17236
1.17099
1.16939
1.16803
1.16631
1.16575
1.07174
1.1037
1.12463
1.14108
1.15251
1.16061
1.16638
1.17048
1.17337
1.17541
1.17673
1.17756
1.17795
1.17801
1.1778
1.17738
1.17675
1.17602
1.17513
1.1742
1.17318
1.17213
1.17098
1.16981
1.16854
1.1673
1.16584
1.16464
1.16305
1.16253
1.06499
1.09683
1.11822
1.13497
1.14674
1.15514
1.16111
1.16538
1.16839
1.17052
1.17192
1.17282
1.17327
1.17339
1.17324
1.17286
1.1723
1.17162
1.1708
1.16993
1.16899
1.16801
1.16696
1.16589
1.16474
1.16364
1.16234
1.16131
1.15989
1.15943
1.05852
1.09012
1.11191
1.12892
1.14102
1.14971
1.1559
1.16033
1.16345
1.16567
1.16715
1.1681
1.16861
1.16879
1.16869
1.16837
1.16786
1.16723
1.16648
1.16567
1.1648
1.1639
1.16295
1.16199
1.16096
1.16001
1.15889
1.15806
1.15683
1.15646
1.05234
1.08361
1.1057
1.12295
1.13536
1.14434
1.15074
1.15533
1.15857
1.16087
1.16241
1.16343
1.16399
1.16421
1.16416
1.16389
1.16344
1.16286
1.16217
1.16142
1.16062
1.15981
1.15895
1.1581
1.1572
1.15641
1.15547
1.15487
1.15388
1.15364
1.04644
1.07731
1.09963
1.11705
1.12978
1.13903
1.14565
1.15039
1.15374
1.15612
1.15772
1.15878
1.1594
1.15967
1.15965
1.15943
1.15903
1.1585
1.15787
1.15719
1.15645
1.15572
1.15496
1.15422
1.15345
1.15283
1.1521
1.15175
1.15104
1.15097
1.04085
1.07123
1.09368
1.11126
1.12427
1.1338
1.14063
1.14551
1.14897
1.15142
1.15308
1.15418
1.15484
1.15515
1.15517
1.155
1.15464
1.15415
1.15358
1.15296
1.1523
1.15164
1.15097
1.15034
1.1497
1.14925
1.14875
1.14869
1.14832
1.14848
1.03559
1.06538
1.08788
1.10559
1.11887
1.12866
1.13569
1.14071
1.14427
1.14677
1.14849
1.14963
1.15031
1.15066
1.15072
1.15058
1.15026
1.14983
1.1493
1.14875
1.14814
1.14757
1.14698
1.14647
1.14596
1.14569
1.14542
1.14567
1.14571
1.1462
1.03068
1.05978
1.08225
1.10006
1.11358
1.12362
1.13084
1.13599
1.13963
1.1422
1.14395
1.14512
1.14583
1.1462
1.14629
1.14619
1.1459
1.14551
1.14503
1.14454
1.144
1.1435
1.14299
1.14259
1.14222
1.14213
1.1421
1.1427
1.14323
1.14416
1.02614
1.05435
1.07669
1.0946
1.10835
1.11862
1.12603
1.13131
1.13504
1.13765
1.13943
1.14063
1.14136
1.14176
1.14187
1.1418
1.14155
1.1412
1.14077
1.14033
1.13984
1.13942
1.139
1.1387
1.13846
1.13855
1.13878
1.13976
1.14085
1.1424
1.02182
1.04883
1.07097
1.08899
1.10298
1.1135
1.12111
1.12654
1.13037
1.13304
1.13486
1.13608
1.13684
1.13726
1.13741
1.13736
1.13715
1.13684
1.13646
1.13608
1.13566
1.1353
1.13497
1.13477
1.13467
1.13493
1.13543
1.13681
1.13857
1.14098
1.0178
1.0436
1.06557
1.08363
1.09778
1.10846
1.11624
1.12178
1.12569
1.12842
1.13029
1.13153
1.13232
1.13277
1.13294
1.13292
1.13275
1.13249
1.13215
1.13182
1.13146
1.13116
1.13091
1.13081
1.13084
1.13126
1.13201
1.13381
1.13632
1.1399
1.00525
1.03062
1.05267
1.07082
1.08502
1.0958
1.10367
1.10923
1.11312
1.11581
1.11765
1.11889
1.11966
1.1201
1.12027
1.12026
1.12011
1.1199
1.11963
1.11938
1.11913
1.11897
1.11889
1.11902
1.11935
1.12019
1.1216
1.1245
1.12926
1.13714
0.979231
1.00391
1.02508
1.0423
1.05603
1.06682
1.07499
1.08099
1.08536
1.08853
1.09082
1.09246
1.09361
1.09441
1.09493
1.09526
1.09545
1.09556
1.09562
1.09568
1.09576
1.09594
1.09622
1.09675
1.09754
1.09894
1.10108
1.10508
1.11159
1.12172
0.95263
0.976245
0.996311
1.0128
1.02623
1.03708
1.04552
1.05193
1.05677
1.0604
1.06314
1.06521
1.06678
1.06798
1.06889
1.06961
1.07017
1.07065
1.07107
1.0715
1.07193
1.07247
1.07312
1.07403
1.07524
1.07709
1.07973
1.08429
1.09142
1.10225
0.925034
0.947607
0.966731
0.982688
0.995926
1.00682
1.01549
1.02225
1.02749
1.03156
1.03473
1.03723
1.03922
1.04083
1.04215
1.04327
1.04422
1.04509
1.04588
1.04669
1.04749
1.0484
1.04942
1.05071
1.05228
1.05449
1.05747
1.0623
1.06948
1.08034
0.896587
0.918246
0.936586
0.952082
0.965126
0.976037
0.9849
0.991975
0.997606
1.0021
1.00571
1.00864
1.01107
1.0131
1.01483
1.01635
1.01771
1.01896
1.02014
1.02132
1.0225
1.02377
1.02514
1.02676
1.02866
1.03115
1.03435
1.03925
1.0462
1.05677
0.867242
0.888143
0.905824
0.920908
0.933763
0.944674
0.953704
0.961066
0.96706
0.971962
0.976003
0.979381
0.982242
0.984711
0.986867
0.988802
0.990556
0.992207
0.993768
0.995315
0.996847
0.998462
1.00015
1.00208
1.00423
1.00695
1.01027
1.01514
1.02177
1.03195
0.836971
0.857246
0.874376
0.889104
0.901793
0.912709
0.921894
0.929523
0.935863
0.941161
0.945626
0.949439
0.952739
0.955641
0.958225
0.960576
0.962735
0.964776
0.966712
0.968618
0.970491
0.972425
0.974411
0.976595
0.978974
0.981846
0.985239
0.990013
0.996311
1.00611
0.805761
0.825518
0.842192
0.856627
0.869188
0.880124
0.88946
0.897345
0.904018
0.909699
0.914574
0.918813
0.922544
0.925876
0.928884
0.931648
0.934208
0.936633
0.938935
0.941188
0.943386
0.94562
0.947877
0.950294
0.95286
0.955856
0.95928
0.963944
0.969917
0.979339
0.773616
0.792939
0.809244
0.823451
0.83592
0.84689
0.856378
0.86451
0.871501
0.877549
0.882822
0.887476
0.89163
0.895386
0.898812
0.901985
0.904938
0.90774
0.910399
0.912989
0.915498
0.918016
0.920525
0.923154
0.925885
0.928981
0.932417
0.936961
0.942621
0.951659
0.740543
0.759503
0.775513
0.789544
0.801952
0.812969
0.822611
0.830983
0.83828
0.844682
0.85034
0.855398
0.859966
0.864138
0.867975
0.871549
0.874889
0.878059
0.881069
0.883984
0.886795
0.889584
0.892332
0.895158
0.898038
0.901218
0.904654
0.909076
0.914431
0.923075
0.706561
0.72521
0.740982
0.754878
0.767251
0.77833
0.788129
0.796736
0.80433
0.811073
0.817104
0.822553
0.827522
0.832098
0.836337
0.840303
0.844022
0.847555
0.850906
0.854138
0.857239
0.86029
0.863267
0.866278
0.869296
0.872547
0.875976
0.880273
0.88533
0.893566
0.671691
0.690061
0.705634
0.719431
0.731792
0.742947
0.752907
0.761744
0.769624
0.776698
0.783087
0.788914
0.794271
0.799239
0.803867
0.808214
0.812302
0.816187
0.819869
0.823409
0.826793
0.830097
0.833292
0.836481
0.83963
0.842951
0.846374
0.85055
0.855318
0.863132
0.63594
0.654057
0.669463
0.683186
0.695555
0.706796
0.716919
0.725982
0.734138
0.741529
0.748264
0.754453
0.760183
0.765528
0.770531
0.775246
0.779689
0.783914
0.787917
0.791754
0.795412
0.798959
0.802363
0.80572
0.80899
0.812372
0.815784
0.819839
0.824332
0.83171
0.599331
0.617205
0.632461
0.646131
0.658523
0.669855
0.68014
0.689424
0.697848
0.705543
0.712608
0.719144
0.72523
0.730934
0.736295
0.74136
0.746143
0.750693
0.755004
0.759127
0.763049
0.76683
0.770437
0.77396
0.777355
0.780804
0.784215
0.788159
0.792383
0.799329
0.561873
0.579506
0.594623
0.608253
0.620678
0.632105
0.642551
0.652049
0.660729
0.668715
0.676095
0.682959
0.689379
0.695422
0.70112
0.706516
0.711622
0.71648
0.721082
0.725478
0.729648
0.733649
0.737444
0.741113
0.74461
0.748105
0.751501
0.755342
0.759335
0.76582
0.523583
0.540966
0.555947
0.569544
0.582007
0.593529
0.604132
0.613837
0.62276
0.631021
0.638698
0.64587
0.652602
0.658959
0.66497
0.670673
0.676077
0.681223
0.686099
0.69075
0.695155
0.699367
0.703349
0.707174
0.71079
0.714349
0.717743
0.72147
0.725216
0.731304
0.484478
0.501591
0.516433
0.529998
0.5425
0.554113
0.564866
0.574768
0.58392
0.592438
0.600391
0.607846
0.614865
0.621509
0.627803
0.633785
0.63946
0.644867
0.649991
0.654872
0.659484
0.663875
0.668006
0.671941
0.675631
0.679222
0.682613
0.686267
0.68983
0.695399
0.444565
0.461381
0.476078
0.489608
0.502147
0.513846
0.524739
0.534824
0.54419
0.552945
0.561149
0.568859
0.576135
0.583033
0.589576
0.595802
0.601714
0.60735
0.612694
0.617784
0.622594
0.627169
0.631466
0.635535
0.639313
0.642921
0.646255
0.649764
0.653141
0.658425
0.403848
0.420332
0.434881
0.448375
0.460944
0.472716
0.483736
0.493991
0.503552
0.51252
0.520948
0.528884
0.536381
0.543493
0.550244
0.556673
0.56278
0.568599
0.574116
0.579362
0.584309
0.588996
0.593382
0.597527
0.601383
0.605068
0.60846
0.611909
0.615013
0.619591
0.362344
0.378448
0.392851
0.406305
0.418889
0.430717
0.441847
0.452257
0.461993
0.471148
0.479769
0.487896
0.495571
0.50285
0.50976
0.516339
0.522591
0.528552
0.534212
0.539605
0.5447
0.549519
0.554005
0.558184
0.56199
0.565537
0.568753
0.572062
0.575213
0.579693
0.320093
0.335754
0.350016
0.363415
0.375984
0.387842
0.399064
0.409614
0.419506
0.42882
0.437599
0.445875
0.45368
0.461071
0.46808
0.474744
0.481067
0.487085
0.49279
0.498216
0.503341
0.508203
0.512768
0.517074
0.521045
0.524728
0.527952
0.530991
0.533525
0.537098
0.277228
0.292349
0.30645
0.319746
0.332243
0.344093
0.355389
0.366066
0.376091
0.385529
0.394424
0.402796
0.410672
0.418111
0.425147
0.431825
0.438162
0.444203
0.449943
0.455406
0.460546
0.465367
0.469811
0.473916
0.477661
0.481163
0.484333
0.487449
0.490254
0.493676
0.234118
0.24851
0.262326
0.275392
0.287709
0.299492
0.310839
0.321624
0.331754
0.341277
0.350241
0.358658
0.366542
0.373949
0.380915
0.387489
0.393695
0.39959
0.405193
0.410561
0.415691
0.4206
0.4252
0.429432
0.433151
0.436367
0.439008
0.441447
0.443623
0.446362
0.191564
0.204851
0.218026
0.230563
0.242503
0.25412
0.265469
0.276321
0.286509
0.296063
0.305036
0.313425
0.321234
0.328523
0.33534
0.34175
0.347785
0.353497
0.358887
0.363986
0.368782
0.373319
0.377592
0.381638
0.385407
0.388887
0.391849
0.394348
0.396171
0.398048
0.150857
0.162442
0.174294
0.185737
0.196931
0.208177
0.219406
0.230242
0.240425
0.249959
0.258879
0.26716
0.274789
0.281818
0.288302
0.294325
0.299964
0.305331
0.31049
0.31549
0.320268
0.324736
0.328738
0.332244
0.335276
0.338013
0.340409
0.342529
0.34411
0.345212
0.113564
0.12274
0.132373
0.141927
0.151782
0.162222
0.172991
0.183554
0.193559
0.202945
0.211699
0.21977
0.227131
0.233828
0.239912
0.245455
0.250518
0.255209
0.259635
0.263937
0.268187
0.272408
0.276476
0.280224
0.283433
0.286052
0.287998
0.289342
0.28995
0.290018
0.0809674
0.0872216
0.093852
0.100714
0.108508
0.117448
0.127097
0.13687
0.146366
0.155395
0.163809
0.171466
0.178311
0.184409
0.189861
0.194804
0.199339
0.203555
0.207471
0.211108
0.214484
0.217686
0.220762
0.223734
0.22651
0.22901
0.231004
0.23221
0.23205
0.230521
0.0533583
0.0566665
0.0601146
0.0638637
0.0689928
0.0755066
0.0829326
0.0909032
0.0991091
0.107245
0.114987
0.122047
0.128236
0.13352
0.137973
0.141775
0.145141
0.148302
0.151434
0.154634
0.157843
0.160897
0.163581
0.165799
0.167584
0.169135
0.170522
0.171459
0.170883
0.168303
0.0299295
0.0307234
0.03143
0.0324476
0.0352432
0.0390067
0.0434376
0.0485909
0.0543334
0.0603818
0.0664172
0.0721471
0.0773167
0.0817377
0.0852885
0.087972
0.0899136
0.0913995
0.0928026
0.0944773
0.096558
0.0989022
0.101165
0.103024
0.104317
0.105157
0.105747
0.106083
0.104987
0.101324
0.00924993
0.00819479
0.00417372
0.00317708
0.00538539
0.00703046
0.0085014
0.0104056
0.0128031
0.0155562
0.0184995
0.0214777
0.0243306
0.026915
0.0290928
0.0307855
0.0319691
0.0327337
0.0332478
0.0337293
0.0343404
0.0351426
0.036052
0.0369257
0.0376129
0.0380559
0.0382594
0.0383774
0.0378397
0.0347
0.986624
0.960105
0.933503
0.905927
0.87768
0.848527
0.818428
0.787392
0.755435
0.722558
0.688777
0.654138
0.618635
0.582286
0.545132
0.507184
0.468481
0.429048
0.388922
0.348162
0.306893
0.265337
0.223905
0.183378
0.144825
0.109535
0.0785598
0.0522153
0.0296829
0.00966928
0.980233
0.953465
0.92693
0.899444
0.871337
0.842319
0.812343
0.78142
0.749578
0.716817
0.683153
0.648632
0.613251
0.577024
0.540003
0.502193
0.463642
0.424373
0.384432
0.343877
0.302844
0.261571
0.220483
0.180396
0.142379
0.107702
0.0773639
0.0516105
0.0295004
0.00974031
0.973708
0.947017
0.920543
0.893143
0.865159
0.836269
0.806419
0.77561
0.743883
0.711241
0.677699
0.643298
0.608041
0.571939
0.535054
0.497385
0.458987
0.419884
0.380127
0.339777
0.29898
0.257988
0.217235
0.177558
0.140017
0.105861
0.0760841
0.0509024
0.0292503
0.00975838
0.967093
0.940654
0.91427
0.886961
0.859092
0.830323
0.800592
0.769893
0.738277
0.705748
0.672323
0.638034
0.602897
0.566918
0.530166
0.492635
0.454386
0.415446
0.375871
0.335724
0.295156
0.254442
0.214025
0.174764
0.137718
0.104112
0.0749051
0.0502598
0.0290224
0.00975651
0.960492
0.934405
0.908146
0.880927
0.853163
0.824506
0.794882
0.764285
0.732776
0.700353
0.667035
0.632854
0.597833
0.561973
0.525348
0.487952
0.449849
0.411067
0.371669
0.331723
0.291383
0.250946
0.210869
0.172031
0.135488
0.102444
0.0738154
0.0496874
0.0288267
0.00974295
0.953939
0.928253
0.902161
0.875041
0.847365
0.81881
0.78929
0.758789
0.727378
0.695053
0.661837
0.627758
0.592849
0.557104
0.520601
0.483338
0.445376
0.406749
0.367522
0.327773
0.287659
0.247497
0.207763
0.169353
0.133325
0.100852
0.0728016
0.0491718
0.028659
0.00971984
0.947464
0.922199
0.896304
0.869297
0.841703
0.813237
0.783816
0.753407
0.722084
0.68985
0.65673
0.62275
0.587946
0.552312
0.515927
0.478794
0.44097
0.402492
0.36343
0.323877
0.283989
0.2441
0.204712
0.166736
0.13123
0.0993355
0.07186
0.0487089
0.0285155
0.00969165
0.941086
0.916247
0.890567
0.863687
0.836176
0.807792
0.77846
0.748137
0.716894
0.684747
0.651717
0.617829
0.583124
0.547599
0.511328
0.474321
0.43663
0.398299
0.359399
0.320039
0.280374
0.24076
0.201724
0.164188
0.129211
0.0978978
0.0709896
0.0482968
0.0283949
0.00965394
0.934819
0.910403
0.884951
0.85821
0.830783
0.802475
0.773222
0.74298
0.711813
0.679745
0.646799
0.612998
0.578386
0.542967
0.506805
0.46992
0.432357
0.39417
0.35543
0.316259
0.276817
0.237482
0.198805
0.161714
0.127273
0.0965407
0.070189
0.0479331
0.0282951
0.00961182
0.928678
0.904671
0.879457
0.852864
0.825524
0.797287
0.768105
0.737937
0.706841
0.674849
0.641979
0.608259
0.573735
0.538417
0.50236
0.465592
0.428152
0.390106
0.351523
0.312538
0.27332
0.234267
0.195956
0.159318
0.125417
0.0952619
0.0694565
0.0476137
0.0282135
0.00956674
0.922673
0.899062
0.874087
0.847649
0.820396
0.792227
0.763111
0.733012
0.701983
0.670058
0.637258
0.603615
0.569174
0.533952
0.497994
0.461337
0.424017
0.386108
0.34768
0.308875
0.269881
0.231113
0.193176
0.156997
0.123639
0.094059
0.0687868
0.047334
0.0281468
0.0095198
0.916817
0.893583
0.868843
0.842565
0.8154
0.787296
0.758241
0.728206
0.697236
0.665373
0.632639
0.599069
0.564707
0.529574
0.493709
0.457157
0.419954
0.382177
0.343898
0.30527
0.266499
0.228019
0.190461
0.154749
0.121936
0.0929279
0.0681751
0.0470895
0.0280919
0.0094723
0.911117
0.888242
0.863729
0.83761
0.810536
0.782493
0.753494
0.723517
0.692602
0.660795
0.628123
0.594623
0.560335
0.525283
0.489506
0.453056
0.415966
0.378315
0.34018
0.301724
0.263176
0.224986
0.187811
0.152571
0.120307
0.0918657
0.0676175
0.0468767
0.0280477
0.00942565
0.905582
0.883045
0.858747
0.832786
0.805803
0.777819
0.748871
0.718944
0.688081
0.656324
0.623713
0.590277
0.556058
0.521083
0.485391
0.449036
0.412055
0.374523
0.336528
0.298242
0.259916
0.222017
0.185227
0.150466
0.118752
0.0908708
0.067111
0.0466931
0.0280206
0.00938115
0.90022
0.877999
0.853904
0.828096
0.801204
0.773274
0.744373
0.714489
0.683674
0.651963
0.619408
0.586033
0.551877
0.516976
0.481366
0.445101
0.408223
0.370806
0.332947
0.294829
0.256724
0.219117
0.182717
0.148438
0.117274
0.0899428
0.0666535
0.0465361
0.0279903
0.00933926
0.895043
0.873112
0.849206
0.823542
0.796739
0.768859
0.740001
0.710155
0.679383
0.647715
0.615211
0.581891
0.547796
0.512964
0.477433
0.441252
0.404471
0.367166
0.32944
0.291489
0.253605
0.216292
0.180283
0.146489
0.115871
0.0890806
0.0662425
0.0464034
0.027965
0.00930074
0.890059
0.868391
0.84466
0.81913
0.792413
0.764579
0.735759
0.705944
0.675212
0.643582
0.611123
0.577854
0.543817
0.50905
0.473593
0.437491
0.4008
0.363604
0.326009
0.288223
0.25056
0.213542
0.177928
0.144618
0.114543
0.0882816
0.0658748
0.0462923
0.0279436
0.00926604
0.885276
0.863842
0.840272
0.814864
0.788227
0.760434
0.73165
0.701862
0.671164
0.639566
0.607147
0.573924
0.539941
0.505234
0.469845
0.433816
0.397211
0.360119
0.322651
0.285028
0.247587
0.210867
0.17565
0.142825
0.113287
0.0875427
0.0655468
0.0461998
0.0279245
0.0092355
0.880702
0.859472
0.836046
0.810746
0.784185
0.75643
0.727676
0.697911
0.667241
0.635671
0.603285
0.570105
0.53617
0.501516
0.466189
0.430227
0.393701
0.35671
0.319365
0.281902
0.244683
0.208262
0.173445
0.141107
0.112099
0.0868602
0.065255
0.0461233
0.0279069
0.00920941
0.876343
0.855286
0.831987
0.806782
0.78029
0.752567
0.72384
0.694093
0.663446
0.631899
0.599541
0.566397
0.532504
0.497898
0.462625
0.426726
0.390274
0.353376
0.316149
0.278844
0.241846
0.205727
0.171313
0.139462
0.110977
0.0862315
0.0649969
0.0460608
0.0278906
0.00918802
0.872205
0.851288
0.828099
0.802975
0.776545
0.748849
0.720144
0.69041
0.65978
0.628253
0.595917
0.562804
0.528946
0.494379
0.459154
0.423313
0.38693
0.350118
0.313005
0.275854
0.239079
0.203262
0.169252
0.137886
0.109921
0.0856545
0.0647705
0.0460113
0.0278756
0.00917146
0.868294
0.847484
0.82439
0.799331
0.772953
0.745279
0.71659
0.686866
0.656246
0.624735
0.592416
0.559327
0.525496
0.490964
0.45578
0.419993
0.383672
0.346941
0.309938
0.272938
0.236384
0.200871
0.167265
0.136383
0.108929
0.0851281
0.0645746
0.0459766
0.0278621
0.00915955
0.864617
0.843881
0.820864
0.795853
0.769519
0.74186
0.713181
0.683461
0.652847
0.621348
0.58904
0.555967
0.522158
0.487654
0.452508
0.416769
0.380506
0.343849
0.306952
0.270101
0.233767
0.198558
0.165354
0.134954
0.108002
0.0846511
0.0644076
0.0459492
0.0278497
0.00915195
0.861178
0.840485
0.817526
0.792548
0.766245
0.738593
0.709918
0.680199
0.649586
0.618093
0.58579
0.552727
0.518934
0.484454
0.449339
0.413642
0.377432
0.340846
0.304051
0.267346
0.23123
0.196325
0.163521
0.133599
0.107139
0.084222
0.0642675
0.0459299
0.0278379
0.00914779
0.85798
0.8373
0.814381
0.789417
0.763136
0.735482
0.706806
0.677081
0.646462
0.61497
0.582667
0.549608
0.515826
0.481364
0.446275
0.410614
0.374453
0.337932
0.301237
0.264676
0.228774
0.194171
0.161766
0.132317
0.10634
0.0838381
0.0641517
0.0459173
0.027826
0.0091467
0.855028
0.834329
0.811433
0.786466
0.760195
0.732531
0.703846
0.67411
0.643479
0.611979
0.579671
0.546611
0.512835
0.478385
0.443317
0.407686
0.371568
0.335109
0.298509
0.262089
0.226397
0.192096
0.160087
0.131108
0.1056
0.0834963
0.0640575
0.0459096
0.0278136
0.00915857
0.852324
0.831578
0.808686
0.783698
0.757427
0.729743
0.701041