/*--------------------------------*- C++ -*----------------------------------*\
  =========                 |
  \\      /  F ield         | OpenFOAM: The Open Source CFD Toolbox
   \\    /   O peration     | Website:  https://openfoam.org
    \\  /    A nd           | Version:  7
     \\/     M anipulation  |
\*---------------------------------------------------------------------------*/
FoamFile
{
    version     2.0;
    format      ascii;
    class       surfaceScalarField;
    location    "3.8";
    object      phi;
}
// * * * * * * * * * * * * * * * * * * * * * * * * * * * * * * * * * * * * * //

dimensions      [0 3 -1 0 0 0 0];

internalField   nonuniform List<scalar> 
35640
(
-4.50019e-05
0.000789073
-0.000744071
-0.00014624
0.00215403
-0.00205279
-0.000286504
0.00338349
-0.00324322
-0.00045166
0.00444535
-0.00428019
-0.000630133
0.00534821
-0.00516974
-0.000812224
0.0061127
-0.00593061
-0.000989897
0.00675925
-0.00658158
-0.00115663
0.00730402
-0.00713729
-0.00130709
0.00775808
-0.00760762
-0.00143703
0.0081285
-0.00799856
-0.00154309
0.00841943
-0.00831336
-0.00162258
0.00863358
-0.0085541
-0.00167329
0.00877332
-0.00872261
-0.00169347
0.00884137
-0.00882119
-0.00168165
0.00884112
-0.00885294
-0.00163665
0.00877691
-0.00882191
-0.00155749
0.00865383
-0.00873299
-0.0014434
0.00847768
-0.00859176
-0.00129387
0.00825489
-0.00840442
-0.00110862
0.00799226
-0.00817751
-0.000887619
0.00769682
-0.00791781
-0.000631211
0.00737574
-0.00763215
-0.000340106
0.00703616
-0.00732727
-1.54629e-05
0.00668517
-0.00700981
0.000341011
0.00632975
-0.00668623
0.000726918
0.00597678
-0.00636269
0.00113899
0.00563314
-0.00604522
0.00157277
0.00530563
-0.0057394
0.00202229
0.00500402
-0.00545355
0.00474058
0.0024794
-0.00519768
-4.2163e-05
0.000831233
-0.000137247
0.00224911
-0.000269604
0.00351584
-0.000426243
0.00460198
-0.000596318
0.00551829
-0.000770588
0.00628698
-0.000941161
0.00692983
-0.0011015
0.00746436
-0.0012463
0.00790288
-0.00137125
0.00825345
-0.00147292
0.00852109
-0.00154849
0.00870915
-0.00159567
0.00882051
-0.00161256
0.00885826
-0.00159753
0.0088261
-0.00154922
0.0087286
-0.00146648
0.00857108
-0.00134838
0.00835958
-0.00119422
0.00810073
-0.00100356
0.00780159
-0.000776264
0.00746952
-0.000512577
0.00711205
-0.000213142
0.00673673
0.000120945
0.00635108
0.000488035
0.00596266
0.000885771
0.00557905
0.00131097
0.00520795
0.00175925
0.00485735
0.00222456
0.00453871
0.00426685
0.00269828
-3.865e-05
0.000869883
-0.000126084
0.00233655
-0.000248532
0.00363829
-0.00039428
0.00474773
-0.000553334
0.00567734
-0.000716912
0.00645055
-0.000877368
0.00709028
-0.00102825
0.00761524
-0.00116424
0.00803887
-0.00128097
0.00837019
-0.00137492
0.00861505
-0.00144321
0.00877745
-0.00148344
0.00886073
-0.00149358
0.00886839
-0.00147189
0.00880441
-0.00141687
0.00867358
-0.00132724
0.00848144
-0.00120192
0.00823426
-0.00104012
0.00793892
-0.000841303
0.00760278
-0.000605293
0.00723351
-0.000332269
0.00683903
-2.28402e-05
0.0064273
0.000321912
0.00600633
0.000700373
0.0055842
0.00111032
0.0051691
0.00154866
0.0047696
0.00201118
0.00439483
0.00249194
0.00405796
0.00377672
0.00298207
-3.45083e-05
0.00090439
-0.000113082
0.00241512
-0.000223765
0.00374897
-0.000356333
0.0048803
-0.000501715
0.00582272
-0.000651713
0.00660055
-0.000798998
0.00723757
-0.000937184
0.00775343
-0.00106099
0.00816267
-0.00116604
0.00847524
-0.00124873
0.00869773
-0.00130608
0.0088348
-0.00133563
0.00889028
-0.00133528
0.00886803
-0.00130318
0.00877231
-0.00123773
0.00860814
-0.00113758
0.00838129
-0.00100159
0.00809827
-0.000828903
0.00776623
-0.000618968
0.00739284
-0.000371597
0.00698614
-8.69849e-05
0.00655441
0.000234234
0.00610608
0.000590966
0.0056496
0.00098163
0.00519354
0.00140408
0.00474666
0.00185541
0.00431826
0.00233169
0.00391856
0.00282726
0.00356238
0.00327075
0.00333323
-2.98488e-05
0.000934239
-9.83408e-05
0.00248362
-0.000195493
0.00384613
-0.000312664
0.00499747
-0.000441827
0.00595188
-0.00057539
0.00673412
-0.000706377
0.00736856
-0.000828596
0.00787565
-0.000936795
0.00827087
-0.00102657
0.00856501
-0.00109426
0.00876542
-0.00113686
0.0088774
-0.00115185
0.00890527
-0.00113703
0.00885322
-0.00109054
0.00872582
-0.00101074
0.00852834
-0.00089624
0.00826679
-0.0007459
0.00794793
-0.000558874
0.00757921
-0.000334654
0.00716862
-7.31067e-05
0.00672459
0.000225503
0.0062558
0.000560468
0.00577111
0.000930633
0.00527943
0.00133441
0.00478976
0.00176972
0.00431135
0.00223388
0.0038541
0.00272327
0.00342916
0.00323271
0.00305295
0.00274993
0.00375353
-2.4715e-05
0.000958954
-8.20593e-05
0.00254096
-0.000164127
0.00392819
-0.000263885
0.00509723
-0.000374383
0.00606238
-0.000488732
0.00684847
-0.00060038
0.00748021
-0.000703348
0.00797861
-0.00079244
0.00835996
-0.000863264
0.00863584
-0.000912155
0.00881432
-0.000936059
0.00890131
-0.000932413
0.00890162
-0.000899029
0.00881983
-0.000834027
0.00866082
-0.000735791
0.0084301
-0.000602954
0.00813395
-0.000434437
0.00777942
-0.000229481
0.00737425
1.23245e-05
0.00692681
0.000291001
0.00644591
0.000606156
0.00594065
0.000956958
0.00542031
0.00134215
0.00489424
0.00176009
0.00437182
0.00220873
0.00386271
0.00268557
0.00337725
0.00318739
0.00292735
0.00370958
0.00253076
0.00221551
0.004244
-1.92352e-05
0.000978189
-6.45521e-05
0.00258628
-0.000130162
0.0039938
-0.000210636
0.0051777
-0.000300193
0.00615194
-0.000392688
0.00694096
-0.00048202
0.00756954
-0.000562487
0.00805908
-0.00062901
0.00842649
-0.000677223
0.00868405
-0.000703466
0.00884056
-0.000704687
0.00890253
-0.00067833
0.00887526
-0.000622229
0.00876373
-0.000534548
0.00857314
-0.000413739
0.00830929
-0.000258538
0.00797875
-6.79852e-05
0.00758886
0.000158537
0.00714773
0.000421281
0.00666407
0.000720097
0.0061471
0.00105441
0.00560633
0.00142323
0.00505149
0.00182514
0.00449232
0.0022584
0.00393857
0.00272094
0.00340017
0.00321041
0.00288778
0.00372396
0.00241379
0.00425768
0.00199704
0.00166896
0.00480423
-1.35378e-05
0.000991727
-4.61424e-05
0.00261888
-9.41509e-05
0.00404181
-0.000153741
0.00523729
-0.000220287
0.00621849
-0.000288448
0.00700912
-0.000352648
0.00763374
-0.000407496
0.00811393
-0.000448066
0.00846706
-0.00047007
0.00870605
-0.000469894
0.00884038
-0.000444515
0.00887715
-0.000391415
0.00882216
-0.000308502
0.00868082
-0.000194037
0.00845867
-4.65952e-05
0.00816185
0.000134929
0.00779723
0.00035131
0.00737248
0.000602967
0.00689607
0.000889943
0.00637709
0.00121186
0.00582517
0.00156794
0.00525026
0.00195695
0.00466248
0.00237732
0.00407196
0.00282712
0.00348877
0.00330422
0.00292306
0.00380636
0.00238565
0.00433102
0.00188914
0.004875
0.00145306
0.00111194
0.00543202
-7.73352e-06
0.000999461
-2.71936e-05
0.00263834
-5.67471e-05
0.00407137
-9.41293e-05
0.00527468
-0.000135874
0.00626023
-0.000177481
0.00705073
-0.000213948
0.00767021
-0.000240244
0.00814023
-0.000251655
0.00847847
-0.000244022
0.00869842
-0.000213809
0.00881017
-0.000158066
0.00882141
-7.43629e-05
0.00873846
3.92822e-05
0.00856717
0.000184459
0.00831349
0.000362408
0.0079839
0.000574019
0.00758562
0.00081983
0.00712667
0.00110001
0.00661589
0.00141434
0.00606277
0.00176217
0.00547734
0.00214247
0.00486996
0.00255376
0.00425118
0.00299425
0.00363147
0.00346181
0.0030212
0.0039542
0.00243068
0.00446913
0.00187072
0.00500434
0.00135392
0.00555736
0.000900045
0.000546192
0.00612311
-1.99277e-06
0.00100145
-8.08869e-06
0.00264444
-1.86491e-05
0.00408193
-3.28456e-05
0.00528887
-4.83379e-05
0.00627573
-6.14888e-05
0.00706388
-6.79142e-05
0.00767663
-6.30016e-05
0.00813532
-4.23109e-05
0.00845778
-1.86386e-06
0.00865797
6.17457e-05
0.00874656
0.000151351
0.0087318
0.000269247
0.00862056
0.000417252
0.00841917
0.000596759
0.00813399
0.000808775
0.00777189
0.00105392
0.00734047
0.00133244
0.00684815
0.00164422
0.00630411
0.00198872
0.00571827
0.002365
0.00510105
0.00277173
0.00446323
0.00320719
0.00381572
0.00366931
0.00316936
0.00415576
0.00253475
0.0046641
0.00192233
0.005192
0.00134282
0.00573733
0.000808585
0.00629822
0.000339155
-2.65385e-05
0.00687095
3.67468e-06
0.000997779
1.07848e-05
0.00263733
1.94001e-05
0.00407331
2.89843e-05
0.00527929
4.08054e-05
0.0062639
5.76293e-05
0.00704706
8.31805e-05
0.00765108
0.000121597
0.0080969
0.00017698
0.0084024
0.000253066
0.00858189
0.000353075
0.00864655
0.000479666
0.00860521
0.000634953
0.00846527
0.000820543
0.00823358
0.00103758
0.00791695
0.00128678
0.00752268
0.00156846
0.00705879
0.00188255
0.00653406
0.00222856
0.0059581
0.00260564
0.00534119
0.00301252
0.00469417
0.00344755
0.0040282
0.00390873
0.00335454
0.00439374
0.00268435
0.0049
0.00202849
0.00542488
0.00139745
0.0059659
0.000801799
0.006521
0.000253493
0.00708874
-0.00022859
-0.000604537
0.00766674
9.02369e-06
0.000988756
2.90248e-05
0.00261733
5.66456e-05
0.00404569
9.01925e-05
0.00524574
0.000129946
0.00622415
0.000177813
0.00699919
0.000236831
0.00759206
0.000310605
0.00802313
0.000402828
0.00831017
0.000516928
0.00846779
0.000655878
0.0085076
0.000822108
0.00843898
0.00101749
0.00826989
0.00124337
0.0080077
0.0015006
0.00765972
0.00178957
0.00723371
0.00211025
0.00673811
0.00246219
0.00618212
0.00284456
0.00557573
0.00325612
0.00492963
0.00369526
0.00425502
0.00416003
0.00356343
0.00464812
0.00286645
0.00515694
0.00217554
0.00568368
0.00150174
0.0062255
0.000855635
0.00677973
0.000247569
0.00734425
-0.000311033
0.00791797
-0.000802303
-0.00118631
0.00849973
1.39839e-05
0.000974772
4.62497e-05
0.00258506
9.23379e-05
0.0039996
0.000149596
0.00518849
0.000217423
0.00615633
0.000296905
0.00691971
0.000390368
0.0074986
0.000500833
0.00791266
0.000631516
0.00817949
0.000785473
0.00831383
0.000965359
0.00832771
0.00117331
0.00823103
0.00141091
0.00803229
0.00167918
0.00773942
0.00197865
0.00736025
0.00230935
0.00690302
0.00267085
0.00637661
0.00306233
0.00579064
0.00348257
0.0051555
0.00392995
0.00448225
0.00440252
0.00378245
0.00489798
0.00306796
0.00541374
0.00235069
0.00594692
0.00164235
0.00649451
0.000954163
0.00705341
0.00029673
0.00762079
-0.00031981
0.00819441
-0.000884652
0.00877331
-0.0013812
-0.00177034
0.00935734
1.84444e-05
0.000956328
6.2102e-05
0.00254141
0.000125763
0.00393594
0.000206044
0.0051082
0.000301589
0.00606078
0.000412718
0.00680858
0.000541041
0.00737028
0.000688946
0.00776476
0.000859117
0.00800932
0.00105416
0.00811879
0.00127635
0.00810552
0.00152747
0.00797991
0.00180874
0.00775102
0.00212084
0.00742731
0.00246392
0.00701717
0.00283762
0.00652933
0.00324111
0.00597311
0.00367319
0.00535856
0.00413221
0.00469648
0.00461619
0.00399827
0.00512281
0.00327583
0.00564944
0.00254133
0.00619319
0.00180694
0.00675092
0.00108462
0.00731937
0.00038572
0.00789524
-0.000279147
0.00847552
-0.000900086
0.00905782
-0.00146695
0.00964122
-0.0019646
-0.00235557
0.0102264
2.23095e-05
0.000934019
7.62624e-05
0.00248745
0.000156269
0.00385593
0.00025846
0.00500601
0.00038087
0.00593837
0.000523123
0.00666633
0.000686124
0.00720728
0.000871596
0.00757929
0.00108164
0.00779928
0.00131834
0.00788208
0.00158353
0.00784033
0.00187857
0.00768488
0.00220428
0.00742531
0.00256094
0.00707065
0.00294831
0.00662981
0.0033656
0.00611203
0.00381162
0.0055271
0.0042847
0.00488548
0.00478284
0.00419834
0.00530366
0.00347745
0.00584449
0.00273501
0.00640234
0.00198347
0.00697402
0.00123527
0.0075561
0.000502536
0.00814508
-0.000203266
0.0087375
-0.000871561
0.00933013
-0.00149272
0.00992047
-0.00205729
0.0105076
-0.0025517
-0.00294084
0.0110928
2.55015e-05
0.000908518
8.84649e-05
0.00242449
0.000183295
0.0037611
0.00030589
0.00488342
0.000453834
0.00579043
0.000626144
0.00649402
0.000823041
0.00701038
0.00104557
0.00735676
0.00129519
0.00754965
0.00157345
0.00760382
0.00188164
0.00753215
0.00222064
0.00734587
0.00259087
0.00705509
0.00299215
0.00666937
0.00342382
0.00619814
0.00388469
0.00565115
0.00437314
0.00503864
0.00488713
0.00437149
0.00542423
0.00366124
0.00598168
0.00291999
0.00655645
0.00216025
0.00714518
0.00139473
0.00774435
0.000636109
0.00835024
-0.000103355
0.0089591
-0.000812133
0.00956727
-0.00147973
0.0101714
-0.00209683
0.0107688
-0.00265469
0.0113584
-0.00314135
-0.00352461
0.0119422
2.79646e-05
0.000880554
9.85096e-05
0.00235395
0.0002064
0.00365321
0.000347555
0.00474226
0.000519273
0.00561871
0.000720059
0.00629324
0.000949494
0.00678095
0.00120794
0.00709831
0.00149622
0.00726137
0.00181525
0.0072848
0.00216576
0.00718164
0.00254814
0.00696349
0.0029623
0.00664093
0.00340764
0.00622403
0.00388305
0.00572273
0.00438695
0.00514726
0.00491729
0.0045083
0.00547162
0.00381716
0.00604713
0.00308573
0.00664066
0.00232645
0.00724877
0.00155214
0.00786773
0.00077577
0.00849363
1.02081e-05
0.00912245
-0.000732175
0.00975017
-0.00143985
0.0103729
-0.00210248
0.0109872
-0.00271112
0.0115903
-0.00325777
0.012181
-0.0037321
-0.00410522
0.0127616
2.96683e-05
0.000850886
0.000106274
0.00227734
0.000225287
0.0035342
0.000382894
0.00458466
0.000576266
0.00542534
0.000803505
0.006066
0.00106361
0.00652084
0.00135629
0.00680563
0.0016817
0.00693596
0.00204012
0.00692638
0.00243169
0.00679006
0.00285626
0.00653892
0.00331324
0.00618395
0.00380158
0.00573568
0.00431974
0.00520457
0.0048657
0.00460129
0.00543703
0.00393697
0.00603086
0.00322332
0.00664396
0.00247263
0.00727275
0.00169766
0.00791333
0.000911554
0.00856156
0.000127541
0.00921311
-0.000641342
0.0098636
-0.00138267
0.0105087
-0.00208499
0.0111445
-0.00273821
0.0117672
-0.00333384
0.0123741
-0.00386472
0.0129642
-0.00432211
-0.00468056
0.0135395
3.06093e-05
0.000820276
0.000111721
0.00219623
0.000239827
0.00340609
0.000411603
0.00441288
0.00062425
0.00521269
0.000875578
0.00581467
0.00116408
0.00623235
0.00148884
0.00648087
0.00184937
0.00657543
0.0022453
0.00653045
0.00267619
0.00635918
0.00314133
0.00607378
0.00363963
0.00568565
0.00416957
0.00520574
0.00472918
0.00464496
0.00531603
0.00401444
0.00592726
0.00332575
0.00655956
0.00259102
0.00720926
0.00182294
0.00787227
0.00103465
0.00854421
0.000239614
0.00922043
-0.000548679
0.00989615
-0.00131706
0.0105666
-0.00205313
0.0112272
-0.00274561
0.0118738
-0.00338479
0.0125027
-0.00396277
0.0131113
-0.00447329
0.0136984
-0.00490924
-0.00524873
0.0142666
3.08137e-05
0.000789463
0.000114907
0.00211214
0.000250073
0.00327093
0.000433669
0.00422928
0.000663072
0.00498329
0.000935912
0.00554183
0.00125026
0.005918
0.00160464
0.00612648
0.00199794
0.00618213
0.00242919
0.0060992
0.00289735
0.00589101
0.00340117
0.00556996
0.00393907
0.00514775
0.00450906
0.00463575
0.00510872
0.0040453
0.0057352
0.00338796
0.00638516
0.00267578
0.00705482
0.00192136
0.00773996
0.0011378
0.00843594
0.000338671
0.00913779
-0.000462239
0.00984031
-0.0012512
0.0105382
-0.00201498
0.0112264
-0.00274128
0.0118999
-0.00341918
0.0125546
-0.0040395
0.013187
-0.0045951
0.0137944
-0.00508074
0.0143761
-0.00549097
-0.00580742
0.0149348
3.03371e-05
0.000759126
0.000115985
0.00202649
0.000256265
0.00313065
0.000449386
0.00403616
0.000693027
0.00473965
0.000984747
0.00525011
0.00132228
0.00558047
0.00170369
0.00574507
0.00212729
0.00575853
0.00259152
0.00563497
0.00309481
0.00538773
0.00363536
0.00502941
0.00421111
0.004572
0.00481961
0.00402726
0.00545797
0.00340694
0.00612283
0.00272309
0.00681035
0.00198827
0.00751615
0.00121556
0.00823538
0.000418572
0.00896275
-0.000388697
0.00969261
-0.00119211
0.0104192
-0.00197775
0.0111366
-0.00273244
0.0118395
-0.00344414
0.0125228
-0.00410245
0.0131822
-0.00469895
0.0138145
-0.00522743
0.0144176
-0.00568384
0.0149911
-0.00606441
-0.00635424
0.0155379
2.92646e-05
0.000729861
0.0001152
0.00194055
0.000258837
0.00298701
0.000459363
0.00383564
0.00071487
0.00448414
0.00102295
0.00494203
0.00138111
0.00522231
0.00178702
0.00533917
0.00223849
0.00530706
0.00273347
0.00513999
0.00326984
0.00485136
0.00384533
0.00445392
0.00445736
0.00395997
0.00510298
0.00338164
0.00577879
0.00273113
0.00648087
0.00202102
0.0072047
0.00126443
0.00794524
0.000475021
0.00869687
-0.00033306
0.00945354
-0.00114536
0.0102089
-0.00194744
0.0109564
-0.00272533
0.01169
-0.003466
0.0124038
-0.00415793
0.0130928
-0.00479145
0.0137529
-0.0053591
0.0143814
-0.00585587
0.0149765
-0.00627899
0.0155386
-0.00662644
-0.00688669
0.016071
2.77081e-05
0.000702153
0.000112886
0.00185537
0.000258399
0.0028415
0.000464505
0.00362953
0.000729802
0.00421885
0.00105201
0.00461982
0.00142851
0.00484581
0.00185666
0.00491102
0.00233388
0.00482983
0.00285766
0.00461621
0.00342539
0.00428362
0.0040343
0.00384501
0.0046813
0.00331297
0.0053629
0.00270004
0.00607506
0.00201897
0.00681315
0.00128293
0.00757189
0.000505685
0.00834538
-0.000298471
0.00912715
-0.00111482
0.00991028
-0.00192849
0.0106877
-0.00272485
0.0114523
-0.00348999
0.0121977
-0.00421133
0.0129178
-0.00487805
0.0136078
-0.00548148
0.0142641
-0.00601541
0.0148844
-0.00647614
0.0154678
-0.0068624
0.0160152
-0.00717387
-0.00740233
0.0165309
2.58028e-05
0.00067635
0.000109451
0.00177173
0.000255715
0.00269523
0.000465981
0.00341926
0.000739418
0.00394541
0.00107397
0.00428528
0.00146697
0.00445281
0.00191558
0.00446241
0.0024169
0.00432851
0.00296799
0.00406512
0.0035658
0.00368581
0.00420704
0.00320377
0.00488804
0.00263197
0.00560463
0.00198345
0.00635204
0.00127156
0.00712475
0.000510212
0.00791657
-0.000286131
0.00872059
-0.0011025
0.0095294
-0.00192362
0.0103352
-0.00273432
0.0111303
-0.00351991
0.0119071
-0.00426685
0.012659
-0.00496322
0.0133802
-0.00559921
0.0140661
-0.0061674
0.0147137
-0.00666304
0.0153215
-0.00708392
0.0158894
-0.00743031
0.0164192
-0.00770366
-0.00789894
0.0169158
2.37017e-05
0.000652649
0.000105362
0.00169007
0.000251672
0.00254892
0.000465165
0.00320577
0.00074564
0.00366493
0.00109132
0.0039396
0.0014996
0.00404453
0.0019675
0.00399451
0.00249185
0.00380416
0.00306935
0.00348763
0.00369646
0.0030587
0.00436932
0.00253091
0.00508358
0.00191772
0.00583424
0.00123278
0.0066156
0.00049021
0.0074211
-0.000295292
0.00824345
-0.00110848
0.00907469
-0.00193373
0.0099064
-0.00275533
0.01073
-0.00355796
0.0115373
-0.00432719
0.0123206
-0.00505009
0.0130731
-0.00571576
0.0137895
-0.00631565
0.014466
-0.00684388
0.0151002
-0.00729724
0.0156914
-0.00767515
0.0162405
-0.00797941
0.0167501
-0.00821318
-0.00837463
0.0172257
2.15689e-05
0.00063108
0.000101122
0.00161051
0.000247233
0.00240281
0.000463575
0.00298943
0.000750599
0.00337791
0.00110687
0.00358333
0.00152989
0.00362151
0.00201659
0.00350781
0.00256358
0.00325716
0.00316717
0.00288405
0.00382327
0.0024026
0.00452733
0.00182684
0.00527416
0.00117089
0.00605776
0.000449177
0.00687128
-0.00032331
0.00770699
-0.001131
0.00855638
-0.00195787
0.00941039
-0.00278774
0.0102597
-0.00360466
0.0110952
-0.00439346
0.0119083
-0.00514029
0.0126914
-0.00583321
0.0134383
-0.00646264
0.0141443
-0.00702159
0.0148062
-0.00750582
0.0154228
-0.00791378
0.0159941
-0.00824648
0.0165218
-0.00850711
0.0170091
-0.00870046
-0.00882778
0.0174622
1.95725e-05
0.000611507
9.72461e-05
0.00153284
0.00024339
0.00225667
0.000462779
0.00277004
0.000756517
0.00308417
0.00112353
0.00321632
0.00156146
0.00318357
0.00206719
0.00300208
0.00263704
0.00268731
0.00326687
0.00225422
0.00395196
0.00171751
0.00468688
0.00109192
0.00546539
0.000392379
0.0062803
-0.00036573
0.00712343
-0.00116645
0.00798575
-0.00199331
0.00885753
-0.00282965
0.0097287
-0.00365891
0.0105892
-0.00446522
0.0114297
-0.00523392
0.0122416
-0.00595216
0.0130178
-0.00660938
0.0137527
-0.0071976
0.0144427
-0.0077116
0.0150857
-0.00814885
0.0156814
-0.00850941
0.0162306
-0.00879566
0.0167354
-0.009012
0.0171995
-0.00916447
-0.00925684
0.0176285
1.78749e-05
0.000593632
9.42325e-05
0.00145648
0.000241109
0.00210979
0.000464308
0.00254684
0.000765559
0.00278292
0.00114414
0.00283773
0.00159783
0.00272988
0.00212339
0.00247653
0.00271682
0.00209388
0.00337337
0.00159766
0.0040875
0.00100339
0.00485272
0.000326703
0.00566151
-0.00041642
0.0065053
-0.00120952
0.00737449
-0.00203563
0.00825867
-0.0028775
0.00914701
-0.00371799
0.0100286
-0.00454052
0.0108931
-0.00532969
0.011731
-0.00607183
0.0125343
-0.00675549
0.0132968
-0.00737185
0.014014
-0.00791482
0.0146835
-0.00838107
0.0153044
-0.00876976
0.0158773
-0.00908231
0.0164037
-0.00932204
0.0168857
-0.00949406
0.0173267
-0.00960539
-0.00966025
0.0177301
1.66256e-05
0.000577006
9.25397e-05
0.00138057
0.000241278
0.00196105
0.000469565
0.00231855
0.000779699
0.00247279
0.00117126
0.00244617
0.00164209
0.00225906
0.00218873
0.00192988
0.00280671
0.0014759
0.00349052
0.000913859
0.00423353
0.000260375
0.00502798
-0.000467745
0.00586488
-0.00125333
0.00673413
-0.00207876
0.00762465
-0.00292615
0.0085248
-0.00377765
0.00942281
-0.00461599
0.0103073
-0.005425
0.0111678
-0.00619024
0.0119955
-0.00689947
0.0127831
-0.00754311
0.0135256
-0.00811437
0.0142201
-0.0086093
0.0148656
-0.00902653
0.0154626
-0.00936686
0.0160131
-0.00963276
0.0165188
-0.0098277
0.0169804
-0.00995574
0.0173966
-0.0100216
-0.0100369
0.0177733
1.59524e-05
0.000561054
9.25635e-05
0.00130396
0.00024466
0.00180895
0.000479746
0.00208347
0.00080059
0.00215195
0.00120698
0.00203978
0.00169668
0.00176936
0.00226589
0.00136067
0.00290942
0.000832363
0.00362076
0.000202525
0.00439198
-0.000510853
0.00521382
-0.00128958
0.00607567
-0.00211518
0.00696584
-0.00296893
0.00787188
-0.00383219
0.0087811
-0.00468687
0.00968112
-0.00551601
0.0105605
-0.00630435
0.0114091
-0.00703891
0.0122191
-0.0077094
0.0129844
-0.00830841
0.0137015
-0.00883149
0.0143691
-0.00927696
0.0149881
-0.0096455
0.0155609
-0.00993965
0.0160913
-0.0101632
0.0165836
-0.01032
0.0170409
-0.0104131
0.0174594
-0.01044
0.0177986
-0.0103761
0.00445892
0.0222792
-0.0242588
0.00614993
0.0187891
-0.0204801
0.00735295
0.0189319
-0.020135
0.0081561
0.0208118
-0.021615
0.00863598
0.0234012
-0.0238811
0.00887198
0.0260082
-0.0262442
0.00893101
0.0282824
-0.0283414
0.0088673
0.0301833
-0.0301196
0.0087207
0.0318236
-0.031677
0.00851732
0.0333362
-0.0331328
0.00827352
0.0347884
-0.0345446
0.00799881
0.0362057
-0.035931
0.00769922
0.0375792
-0.0372796
0.00737925
0.03889
-0.0385701
0.00704206
0.0401336
-0.0397965
0.0066906
0.0412962
-0.0409447
0.00632749
0.0423765
-0.0420134
0.00595457
0.0433785
-0.0430056
0.00557395
0.0442933
-0.0439127
0.00518683
0.0451317
-0.0447446
0.00479487
0.045879
-0.045487
0.00439881
0.0465521
-0.0461561
0.00399951
0.0471331
-0.0467338
0.0035977
0.0476367
-0.0472349
0.003193
0.0480479
-0.0476432
0.00278596
0.0483817
-0.0479746
0.00237465
0.0486215
-0.0482102
0.00196072
0.0487951
-0.0483812
0.00154363
0.0489148
-0.0484977
0.0490377
-0.0486265
0.00469961
0.0202779
0.00639083
0.0170979
0.00758937
0.0177334
0.00838498
0.0200162
0.008857
0.0229292
0.00908627
0.0257789
0.00913946
0.0282292
0.00907016
0.0302526
0.00891796
0.0319758
0.00870904
0.0335451
0.00845989
0.0350375
0.00817914
0.0364865
0.00787367
0.0378846
0.00754672
0.039217
0.00720272
0.0404777
0.00684369
0.0416552
0.00647217
0.0427481
0.00609058
0.0437601
0.00570056
0.0446834
0.00530375
0.0455285
0.00490125
0.0462815
0.00449451
0.0469589
0.00408398
0.0475436
0.00367051
0.0480502
0.00325401
0.0484644
0.00283473
0.048801
0.00241127
0.049045
0.00198493
0.0492215
0.00155545
0.0493443
0.0494619
0.00498094
0.018279
0.00665377
0.0154251
0.00783704
0.0165501
0.00861889
0.0192344
0.00907997
0.0224681
0.00930091
0.025558
0.00934749
0.0281826
0.00927239
0.0303276
0.00911471
0.0321335
0.00890034
0.0337595
0.00864583
0.035292
0.00835925
0.036773
0.0080481
0.0381958
0.00771441
0.0395507
0.00736361
0.0408285
0.00699709
0.0420217
0.00661734
0.0431278
0.00622715
0.0441503
0.00582781
0.0450827
0.00542131
0.045935
0.00500831
0.0466945
0.00459091
0.0473763
0.00416917
0.0479653
0.00374404
0.0484753
0.00331576
0.0488927
0.00288419
0.0492325
0.00244858
0.0494806
0.00200971
0.0496603
0.00156768
0.0497863
0.0498994
0.00530357
0.0163087
0.00693868
0.0137899
0.00809571
0.0153931
0.00885742
0.0184727
0.00930448
0.022021
0.0095155
0.025347
0.0095548
0.0281433
0.00947378
0.0304087
0.00931059
0.0322967
0.0090909
0.0339792
0.00883115
0.0355518
0.00853918
0.037065
0.00822223
0.0385127
0.00788221
0.0398907
0.00752455
0.0411861
0.00715071
0.0423956
0.00676304
0.0435155
0.00636411
0.0445492
0.0059557
0.0454911
0.0055394
0.0463513
0.00511612
0.0471177
0.00468794
0.0478045
0.00425502
0.0483983
0.00381831
0.048912
0.00337816
0.0493328
0.00293441
0.0496763
0.00248649
0.0499285
0.00203508
0.0501117
0.00158028
0.0502411
0.0503502
0.00566797
0.0143942
0.00724575
0.0122122
0.00836498
0.0142738
0.00909996
0.0177377
0.00952995
0.021591
0.00972972
0.0251472
0.00976103
0.028112
0.00967388
0.0304958
0.00950535
0.0324652
0.00928065
0.0342039
0.00901572
0.0358167
0.00871854
0.0373622
0.00839585
0.0388354
0.00804997
0.0402366
0.00768551
0.0415506
0.00730438
0.0427767
0.00690902
0.0439108
0.00650144
0.0449568
0.00608406
0.0459085
0.00565793
0.0467774
0.00522453
0.0475511
0.00478556
0.0482434
0.00434147
0.0488423
0.00389323
0.0493603
0.00344112
0.049785
0.00298529
0.0501321
0.00252495
0.0503888
0.00206097
0.0505757
0.00159326
0.0507088
0.0508146
0.00607409
0.0125642
0.0075747
0.0107116
0.00864434
0.0132042
0.00934622
0.0170358
0.00975592
0.0211813
0.00994307
0.02496
0.0099659
0.0280892
0.00987253
0.0305892
0.00969875
0.032639
0.00946924
0.0344334
0.00919936
0.0360866
0.00889715
0.0376644
0.00856894
0.0391636
0.00821736
0.0405882
0.00784635
0.0419216
0.00745807
0.043165
0.00705512
0.0443138
0.00663907
0.0453728
0.00621273
0.0463348
0.00577695
0.0472132
0.00533344
0.0479946
0.0048837
0.0486932
0.00442849
0.0492976
0.00396874
0.04982
0.00350467
0.050249
0.00303674
0.0506
0.00256398
0.0508616
0.00208734
0.0510524
0.00160662
0.0511895
0.0512927
0.00652137
0.010847
0.0079252
0.00930771
0.0089333
0.0121961
0.00959573
0.0163734
0.00998197
0.0207951
0.0101551
0.0247869
0.0101691
0.0280753
0.0100694
0.0306888
0.00989054
0.0328179
0.0096564
0.0346675
0.00938182
0.0363612
0.00907483
0.0379714
0.00874135
0.0394971
0.00838421
0.0409453
0.00800691
0.0422989
0.00761165
0.0435602
0.00720123
0.0447242
0.00677692
0.0457971
0.00634164
0.0467701
0.00589636
0.0476585
0.00544275
0.0484483
0.00498235
0.0491536
0.00451602
0.0497639
0.00404478
0.0502912
0.00356878
0.050725
0.00308872
0.0510801
0.00260354
0.0513468
0.0021142
0.0515417
0.00162033
0.0516834
0.0517847
0.00700845
0.00927059
0.00829661
0.00801955
0.00923135
0.0112614
0.00984802
0.0157567
0.0102077
0.0204354
0.0103656
0.024629
0.0103703
0.0280706
0.0102643
0.0307947
0.0100805
0.0330018
0.00984191
0.0349061
0.0095629
0.0366402
0.00925137
0.0382829
0.00891289
0.0398356
0.00855037
0.0413078
0.00816701
0.0426822
0.007765
0.0439622
0.00734721
0.045142
0.00691485
0.0462295
0.00647072
0.0472142
0.00601606
0.0481132
0.00555242
0.0489119
0.00508142
0.0496246
0.004604
0.0502413
0.00412131
0.0507739
0.00363341
0.0512129
0.0031412
0.0515723
0.00264359
0.0518444
0.00214153
0.0520438
0.00163442
0.0521905
0.0522906
0.00753299
0.0078607
0.00868788
0.00686466
0.00953787
0.0104114
0.0101026
0.0151919
0.0104327
0.0201054
0.010574
0.0244876
0.0105692
0.0280754
0.010457
0.0309069
0.0102684
0.0331904
0.0100255
0.0351489
0.00974239
0.0369233
0.00942658
0.0385987
0.00908335
0.0401788
0.00871568
0.0416755
0.00832651
0.0430714
0.00791797
0.0443708
0.00749296
0.045567
0.00705275
0.0466697
0.00659988
0.0476671
0.00613597
0.0485771
0.00566238
0.0493855
0.00518087
0.0501061
0.00469237
0.0507298
0.00419825
0.0512681
0.00369852
0.0517127
0.00319416
0.0520767
0.00268411
0.0523544
0.0021693
0.0525586
0.00164889
0.0527109
0.0528106
0.00809156
0.0066401
0.00909747
0.00585875
0.00985204
0.00965682
0.010359
0.0146849
0.0106566
0.0198078
0.0107803
0.024364
0.0107655
0.0280902
0.0106471
0.0310254
0.0104539
0.0333836
0.0102071
0.0353958
0.00992007
0.0372103
0.00960025
0.0389185
0.00925256
0.0405265
0.00887999
0.0420481
0.00848525
0.0434661
0.00807043
0.0447856
0.00763835
0.0459991
0.0071905
0.0471176
0.00672904
0.0481286
0.00625598
0.0490501
0.00577254
0.0498689
0.00528061
0.050598
0.00478109
0.0512293
0.00427557
0.0517736
0.00376403
0.0522242
0.00324757
0.0525931
0.00272505
0.052877
0.00219749
0.0530861
0.00166375
0.0532446
0.0533449
0.00867959
0.00562724
0.00952316
0.00501518
0.0101729
0.00900712
0.0106168
0.014241
0.0108791
0.0195454
0.010984
0.0242592
0.0109591
0.028115
0.0108345
0.0311501
0.0106369
0.0335811
0.0103863
0.0356464
0.0100957
0.0375009
0.0097722
0.0392421
0.00942033
0.0408784
0.00904312
0.0424253
0.00864306
0.0438662
0.00822223
0.0452064
0.00778326
0.0464381
0.00732796
0.0475729
0.00685809
0.0485984
0.00637602
0.0495322
0.00588282
0.0503621
0.00538057
0.0511003
0.0048701
0.0517398
0.00435322
0.0522905
0.00382991
0.0527475
0.00330138
0.0531217
0.00276642
0.0534119
0.00222609
0.0536265
0.00167901
0.0537917
0.0538935
0.00929102
0.00483595
0.00996227
0.00434393
0.010499
0.00847037
0.0108752
0.0138649
0.0110999
0.0193207
0.0111849
0.0241741
0.0111497
0.0281502
0.0110189
0.0312809
0.0108172
0.0337828
0.0105631
0.0359005
0.0102692
0.0377949
0.00994221
0.039569
0.00958646
0.0412341
0.00920491
0.0428068
0.00879978
0.0442714
0.00837322
0.045633
0.00792758
0.0468837
0.00746502
0.0480354
0.00698694
0.0490765
0.00649601
0.0500231
0.00599316
0.050865
0.00548068
0.0516127
0.00495934
0.0522611
0.00443117
0.0528186
0.00389609
0.0532826
0.00335553
0.0536622
0.00280819
0.0539592
0.00225508
0.0541796
0.00169464
0.0543522
0.0544567
0.00991963
0.00427367
0.0104112
0.00385233
0.010829
0.00805261
0.0111336
0.0135603
0.0113186
0.0191357
0.0113829
0.0241098
0.0113372
0.0281959
0.0112004
0.0314177
0.0109946
0.0339885
0.0107373
0.0361579
0.0104402
0.0380919
0.0101101
0.0398991
0.00975077
0.0415935
0.00936516
0.0431924
0.00895524
0.0446813
0.00852322
0.046065
0.00807118
0.0473357
0.00760156
0.048505
0.00711546
0.0495626
0.00661583
0.0505227
0.00610347
0.0513774
0.00558086
0.0521353
0.00504875
0.0527933
0.00450934
0.053358
0.00396254
0.0538294
0.00340998
0.0542148
0.00285032
0.0545189
0.00228446
0.0547454
0.00171065
0.054926
0.0550345
0.0105573
0.00394284
0.010866
0.00354359
0.0111609
0.00775776
0.0113911
0.0133301
0.0115347
0.0189921
0.0115777
0.0240667
0.0115212
0.0282524
0.0113786
0.0315604
0.0111689
0.0341981
0.0109086
0.0364183
0.0106086
0.0383919
0.0102757
0.040232
0.00991305
0.0419561
0.00952369
0.0435818
0.00910928
0.0450957
0.00867208
0.0465022
0.00821391
0.0477939
0.00773746
0.0489815
0.00724355
0.0500565
0.00673539
0.0510309
0.00621368
0.0518991
0.00568105