0.365783 	0.365783 	0.5 	-0.0431294 	0.0415759 	4.71196e-18
0.38935 	0.38935 	0.5 	0.139027 	-0.156724 	3.6013e-17
0.412917 	0.412917 	0.5 	0.143991 	-0.178522 	0
0.436483 	0.436483 	0.5 	0.0792948 	-0.128939 	4.29752e-17
0.46005 	0.46005 	0.5 	-0.0126241 	-0.0486071 	0
0.483617 	0.483617 	0.5 	-0.118302 	0.050389 	0
0.507183 	0.507183 	0.5 	-0.231341 	0.160894 	3.35594e-17
0.53075 	0.53075 	0.5 	-0.347119 	0.277523 	3.93873e-21
0.554317 	0.554317 	0.5 	-0.462478 	0.395712 	1.12914e-17
0.577883 	0.577883 	0.5 	-0.574684 	0.511766 	1.13261e-17
0.60145 	0.60145 	0.5 	-0.682162 	0.622257 	-3.40379e-17
0.625017 	0.625017 	0.5 	-0.783821 	0.724531 	2.26986e-17
0.648583 	0.648583 	0.5 	-0.878991 	0.816881 	0
0.67215 	0.67215 	0.5 	-0.9674 	0.898351 	0
0.695717 	0.695717 	0.5 	-1.0491 	0.968641 	-4.51752e-17
0.719283 	0.719283 	0.5 	-1.12458 	1.02762 	0
0.74285 	0.74285 	0.5 	-1.19442 	1.07562 	-2.22765e-17
0.766417 	0.766417 	0.5 	-1.25933 	1.1134 	2.21419e-17
0.789983 	0.789983 	0.5 	-1.32009 	1.14184 	2.19766e-17
0.81355 	0.81355 	0.5 	-1.37762 	1.1618 	-6.89655e-21
0.837117 	0.837117 	0.5 	-1.43286 	1.17415 	-2.16353e-17
0.860683 	0.860683 	0.5 	-1.4867 	1.17978 	0
0.88425 	0.88425 	0.5 	-1.5401 	1.17956 	-4.24968e-17
0.907817 	0.907817 	0.5 	-1.59414 	1.17418 	4.2105e-17
0.931383 	0.931383 	0.5 	-1.65019 	1.16422 	0
0.95495 	0.95495 	0.5 	-1.71003 	1.15018 	0
0.978517 	0.978517 	0.5 	-1.77753 	1.13163 	0
1.00208 	1.00208 	0.5 	-1.85626 	1.11227 	0
1.02565 	1.02565 	0.5 	-2.0486 	1.10161 	-4.01522e-17
1.04922 	1.04922 	0.5 	-2.17031 	1.05894 	9.38716e-17
1.061 	1.061 	0.5 	-2.13288 	0.7297 	-1.02938
1.14332 	1.14332 	0.5 	-2.37321 	0.84725 	-1.58694
1.2423 	1.2423 	0.5 	-2.21375 	1.00344 	-1.55111
1.32462 	1.32462 	0.5 	-1.92562 	0.736769 	-1.6122
1.4236 	1.4236 	0.5 	-1.85193 	0.794903 	-1.55543
1.50592 	1.50592 	0.5 	-1.89752 	0.332061 	-1.60884
1.6049 	1.6049 	0.5 	-1.83912 	0.344661 	-1.55066
1.68722 	1.68722 	0.5 	-1.80958 	-0.0732831 	-1.5824
