/*--------------------------------*- C++ -*----------------------------------*\
  =========                 |
  \\      /  F ield         | OpenFOAM: The Open Source CFD Toolbox
   \\    /   O peration     | Website:  https://openfoam.org
    \\  /    A nd           | Version:  7
     \\/     M anipulation  |
\*---------------------------------------------------------------------------*/
FoamFile
{
    version     2.0;
    format      ascii;
    class       volScalarField;
    location    "0.2";
    object      p;
}
// * * * * * * * * * * * * * * * * * * * * * * * * * * * * * * * * * * * * * //

dimensions      [0 2 -2 0 0 0 0];

internalField   nonuniform List<scalar> 
32000
(
3.76159
3.61318
3.52582
3.54854
3.6113
3.66074
3.68858
3.70565
3.71945
3.73162
3.74302
3.75408
3.76482
3.77476
3.78377
3.79258
3.80184
3.81123
3.82012
3.82806
3.83517
3.84166
3.84771
3.85349
3.85932
3.86535
3.87159
3.87804
3.88477
3.89177
3.89874
3.90566
3.91246
3.91912
3.92598
3.93283
3.93941
3.9459
3.95224
3.9582
3.73496
3.58704
3.5004
3.52357
3.58674
3.63728
3.66641
3.68436
3.69891
3.71173
3.72352
3.73495
3.74594
3.75602
3.76509
3.77377
3.78266
3.79157
3.80003
3.80773
3.81466
3.82092
3.82666
3.83203
3.8373
3.84264
3.84826
3.85426
3.8606
3.86732
3.87408
3.88068
3.88727
3.89371
3.90003
3.90634
3.91248
3.91848
3.92445
3.93018
3.70736
3.55997
3.47438
3.49814
3.56178
3.61324
3.64375
3.66289
3.67828
3.69166
3.70393
3.7158
3.72703
3.73717
3.74629
3.75483
3.76329
3.77161
3.77958
3.78703
3.79382
3.79986
3.80531
3.81033
3.81507
3.81972
3.82463
3.83015
3.83606
3.8423
3.84885
3.85529
3.86157
3.86778
3.87369
3.87933
3.88492
3.89055
3.89628
3.90169
3.67952
3.53229
3.44769
3.47234
3.53656
3.58872
3.62058
3.64105
3.65724
3.67131
3.68426
3.69654
3.70794
3.71818
3.72727
3.73552
3.74346
3.75124
3.75883
3.76603
3.77263
3.77848
3.78366
3.78826
3.79244
3.79655
3.80082
3.80566
3.81114
3.81693
3.82306
3.82942
3.83558
3.84137
3.84682
3.85195
3.85696
3.8622
3.86762
3.87275
3.65156
3.50429
3.42071
3.44618
3.51105
3.564
3.5971
3.61874
3.63579
3.65071
3.66436
3.67708
3.68869
3.69894
3.70791
3.71582
3.72321
3.73046
3.73771
3.7447
3.75112
3.75675
3.76166
3.76588
3.76944
3.77296
3.77682
3.78098
3.78574
3.79116
3.79702
3.80312
3.80913
3.81462
3.81954
3.82412
3.82868
3.83352
3.8385
3.84327
3.62349
3.4762
3.39337
3.41964
3.48538
3.53918
3.5733
3.59607
3.61415
3.62994
3.64426
3.65738
3.66915
3.67938
3.68815
3.69568
3.70263
3.70949
3.71633
3.72295
3.72921
3.73476
3.73928
3.74304
3.74621
3.74912
3.75235
3.75599
3.7601
3.76502
3.77068
3.77658
3.78224
3.78738
3.79191
3.79599
3.80004
3.80436
3.80889
3.81327
3.59531
3.44811
3.36583
3.39296
3.45952
3.51406
3.54922
3.57323
3.5923
3.60898
3.62406
3.63752
3.64926
3.65938
3.66801
3.67522
3.68174
3.68822
3.69476
3.70102
3.70688
3.71232
3.71668
3.71986
3.72254
3.72503
3.72755
3.73053
3.73424
3.7388
3.74406
3.74962
3.75499
3.75978
3.76388
3.7675
3.77103
3.77481
3.77885
3.78283
3.56701
3.41986
3.33839
3.36638
3.43348
3.48871
3.52492
3.55002
3.57017
3.58787
3.60362
3.61733
3.62916
3.63917
3.64744
3.65434
3.66062
3.66676
3.67285
3.67889
3.68449
3.68949
3.69361
3.69648
3.69854
3.70042
3.70244
3.70492
3.70819
3.71238
3.71724
3.72237
3.72732
3.73173
3.73546
3.73864
3.74164
3.74491
3.7485
3.75209
3.53846
3.39165
3.31099
3.33962
3.40731
3.4634
3.50041
3.52638
3.54771
3.56646
3.58274
3.59674
3.60874
3.6187
3.62666
3.63317
3.63913
3.64506
3.65078
3.65646
3.66197
3.66666
3.6702
3.67262
3.67424
3.67556
3.67705
3.67915
3.6821
3.68585
3.69016
3.69474
3.69924
3.70326
3.70659
3.70935
3.71193
3.71479
3.71795
3.72109
3.51
3.36364
3.28347
3.31277
3.38115
3.43783
3.4756
3.50274
3.52512
3.54444
3.56125
3.57587
3.588
3.59767
3.60551
3.61205
3.61753
3.62287
3.62849
3.6341
3.63932
3.64358
3.64661
3.64852
3.64962
3.65043
3.65156
3.6534
3.65597
3.65913
3.6628
3.6668
3.67078
3.67434
3.67726
3.67968
3.68196
3.68444
3.68711
3.68974
3.48146
3.33573
3.25625
3.28611
3.35483
3.41206
3.45082
3.47893
3.50208
3.52216
3.53953
3.55434
3.56654
3.57637
3.58417
3.59054
3.5958
3.60074
3.60611
3.6116
3.61654
3.62041
3.62293
3.62422
3.62475
3.62521
3.62612
3.62765
3.6297
3.63222
3.63525
3.63863
3.64202
3.64503
3.64756
3.64969
3.65168
3.65376
3.65588
3.65793
3.453
3.308
3.22913
3.25959
3.32877
3.38652
3.42602
3.45489
3.47878
3.4996
3.51742
3.53234
3.54461
3.55468
3.56252
3.56872
3.57398
3.57877
3.58376
3.58896
3.5937
3.59718
3.59909
3.59976
3.59988
3.60008
3.60072
3.6018
3.60325
3.60514
3.60755
3.61029
3.61302
3.61548
3.61761
3.61943
3.62106
3.62262
3.62412
3.62558
3.42469
3.28048
3.20205
3.23312
3.30303
3.36136
3.40138
3.43085
3.45534
3.47664
3.49477
3.51
3.52243
3.53255
3.54055
3.54682
3.55208
3.55678
3.56149
3.56638
3.57076
3.57375
3.57512
3.57536
3.57516
3.57506
3.57527
3.57579
3.57663
3.57791
3.57971
3.58182
3.58393
3.58587
3.58756
3.58894
3.59003
3.59097
3.59184
3.59276
3.39635
3.25301
3.17518
3.20685
3.27743
3.33639
3.37706
3.40708
3.43187
3.45341
3.47176
3.48723
3.49992
3.51022
3.51846
3.52487
3.53008
3.53472
3.53929
3.54382
3.54768
3.55017
3.55117
3.55113
3.55062
3.55008
3.54974
3.54964
3.54986
3.55055
3.55178
3.55334
3.55492
3.55632
3.55742
3.55813
3.55854
3.55886
3.55919
3.55958
3.36795
3.22548
3.14844
3.18088
3.2521
3.31157
3.3529
3.38351
3.40851
3.43012
3.44858
3.4641
3.47706
3.48776
3.49635
3.50289
3.50801
3.5126
3.51706
3.52119
3.52449
3.52656
3.52736
3.52713
3.52623
3.52513
3.52415
3.5234
3.52296
3.52308
3.52382
3.52494
3.52602
3.52676
3.52705
3.52695
3.52667
3.52643
3.52622
3.52603
3.33943
3.19795
3.12183
3.15511
3.22706
3.28711
3.32888
3.35993
3.38524
3.40691
3.4254
3.44086
3.45398
3.46513
3.47417
3.4809
3.48598
3.49046
3.49472
3.49846
3.50132
3.50312
3.50378
3.50328
3.50192
3.50022
3.49857
3.4971
3.49598
3.49556
3.49591
3.49662
3.4971
3.49702
3.49639
3.49545
3.49449
3.49363
3.49278
3.4919
3.31083
3.1705
3.09543
3.12948
3.20222
3.263
3.30513
3.3364
3.36198
3.38373
3.40224
3.41771
3.43095
3.44244
3.45188
3.4589
3.46403
3.46834
3.47231
3.47572
3.47831
3.47993
3.48039
3.47955
3.47772
3.47543
3.47308
3.47085
3.46906
3.46815
3.46811
3.46832
3.46805
3.46704
3.46547
3.46368
3.46194
3.46031
3.45866
3.45704
3.28231
3.14325
3.06929
3.10411
3.17754
3.23906
3.28163
3.31306
3.33881
3.36057
3.37907
3.39474
3.40821
3.4199
3.42959
3.4369
3.44216
3.4463
3.44998
3.45314
3.45555
3.45696
3.45714
3.45595
3.45369
3.45087
3.44784
3.44486
3.44244
3.44103
3.44049
3.44003
3.43891
3.43693
3.4344
3.43169
3.42904
3.42645
3.42389
3.42151
3.254
3.11626
3.04346
3.07908
3.1531
3.2152
3.25828
3.28996
3.31586
3.33756
3.35601
3.37199
3.38584
3.3977
3.40744
3.41491
3.42032
3.42442
3.42791
3.43087
3.43305
3.43417
3.434
3.43249
3.4299
3.42664
3.42299
3.41934
3.41631
3.41432
3.41312
3.41184
3.40979
3.40685
3.40333
3.39962
3.39593
3.39229
3.38875
3.38552
3.22595
3.08958
3.01794
3.05443
3.12902
3.19155
3.2351
3.26705
3.29309
3.31484
3.3333
3.34952
3.36379
3.37585
3.38556
3.39302
3.39856
3.40276
3.40619
3.40896
3.41082
3.41154
3.411
3.40924
3.40642
3.4028
3.39864
3.3944
3.39076
3.3881
3.38611
3.38394
3.38093
3.37699
3.37245
3.36768
3.36287
3.35809
3.35347
3.34926
3.1982
3.06323
2.99273
3.0301
3.10533
3.16828
3.2122
3.24432
3.27046
3.29245
3.31107
3.32746
3.34201
3.35429
3.36396
3.37133
3.37698
3.38139
3.38487
3.38741
3.38885
3.38912
3.38825
3.38629
3.38332
3.37943
3.37486
3.37013
3.36588
3.36248
3.35962
3.35652
3.35252
3.34755
3.34193
3.336
3.32998
3.32397
3.31814
3.31281
3.17073
3.03721
2.96784
3.00611
3.08206
3.14548
3.18966
3.22183
3.24795
3.27029
3.28932
3.30586
3.32051
3.33292
3.34261
3.34994
3.35569
3.36032
3.36387
3.36617
3.36718
3.36702
3.36588
3.36379
3.3607
3.35662
3.35176
3.34659
3.34174
3.33757
3.33382
3.32976
3.32474
3.31867
3.31185
3.30465
3.2973
3.28996
3.2828
3.27619
3.14353
3.01147
2.94327
2.98251
3.05925
3.12309
3.16742
3.19962
3.22569
3.24831
3.26788
3.2847
3.29935
3.31177
3.32153
3.3289
3.33476
3.33954
3.34311
3.3452
3.34586
3.34538
3.34405
3.34186
3.33868
3.33446
3.32936
3.32381
3.31837
3.31344
3.30881
3.30379
3.29771
3.29046
3.28235
3.27377
3.26499
3.2562
3.24758
3.23954
3.11655
2.98594
2.91901
2.95933
3.03689
3.10105
3.14541
3.1777
3.20379
3.22658
3.24665
3.26387
3.27856
3.29094
3.30078
3.30828
3.31419
3.319
3.32254
3.32449
3.32494
3.32428
3.32284
3.32058
3.31732
3.31299
3.30767
3.30174
3.29575
3.29013
3.28471
3.27875
3.27161
3.26316
3.2537
3.24365
3.23332
3.22293
3.21269
3.20307
3.08981
2.96057
2.89506
2.93657
3.01495
3.07935
3.12362
3.15606
3.18233
3.20522
3.22562
3.24329
3.25816
3.27054
3.28046
3.28807
3.29397
3.2987
3.30218
3.30408
3.30447
3.30378
3.30232
3.30003
3.2967
3.29222
3.28667
3.2804
3.27396
3.26779
3.26165
3.25481
3.24665
3.23701
3.22619
3.2146
3.2026
3.19046
3.1784
3.16699
3.06334
2.93541
2.87147
2.91422
2.99335
3.05801
3.10218
3.13471
3.16129
3.18432
3.20489
3.22293
3.23813
3.25064
3.26064
3.26828
3.2741
3.27871
3.28213
3.28406
3.28453
3.28395
3.28258
3.28031
3.27687
3.27221
3.26643
3.2599
3.25316
3.24654
3.23975
3.23211
3.22299
3.21223
3.20005
3.18688
3.17312
3.15906
3.14496
3.13155
3.03722
2.91056
2.84833
2.8923
2.97205
3.03706
3.08121
3.11373
3.14062
3.1639
3.18457
3.20287
3.21847
3.23125
3.24132
3.24891
3.25461
3.2591
3.2625
3.26452
3.26521
3.26489
3.26373
3.26149
3.25795
3.25311
3.24715
3.24046
3.2335
3.22649
3.2191
3.2107
3.20071
3.18889
3.17542
3.16069
3.14509
3.129
3.11269
3.09707
3.01159
2.88617
2.82573
2.87086
2.95109
3.0165
3.06077
3.09321
3.1203
3.14392
3.16475
3.18323
3.19922
3.21233
3.22248
3.22997
3.23554
3.23994
3.24334
3.24554
3.24656
3.24665
3.24578
3.24363
3.24003
3.23508
3.22902
3.22225
3.21512
3.20774
3.1998
3.19072
3.17993
3.16717
3.15252
3.13629
3.11888
3.1007
3.08202
3.06403
2.98657
2.86237
2.80371
2.84997
2.93057
2.99631
3.0408
3.07315
3.10033
3.12434
3.14546
3.16411
3.18041
3.19386
3.2041
3.21148
3.21692
3.22126
3.2247
3.22714
3.2286
3.22918
3.22865
3.22669
3.22317
3.21824
3.2122
3.20542
3.19818
3.1905
3.18208
3.1724
3.16095
3.1474
3.13174
3.11415
3.09503
3.07479
3.05364
3.03318
2.96224
2.83924
2.78225
2.82966
2.91061
2.97651
3.02121
3.05354
3.08077
3.10516
3.12667
3.14554
3.1621
3.17585
3.18619
3.19349
3.19883
3.20311
3.20664
3.20938
3.21132
3.21238
3.21228
3.21066
3.2074
3.20264
3.19675
3.1901
3.18287
3.175
3.16623
3.15612
3.14419
3.13008
3.11362
3.09492
3.07431
3.05212
3.02849
3.00558
2.93858
2.81677
2.76135
2.80993
2.8913
2.95717
3.00191
3.03433
3.06168
3.08638
3.10832
3.12748
3.14428
3.15829
3.16877
3.17604
3.18133
3.18562
3.1893
3.19235
3.19469
3.19621
3.19661
3.1955
3.19266
3.18823
3.18266
3.17631
3.16926
3.16138
3.15246
3.14216
3.13002
3.11564
3.09874
3.07933
3.05761
3.03378
3.00785
2.98273
2.91549
2.7949
2.74099
2.7908
2.87269
2.93836
2.98292
3.01551
3.0431
3.06804
3.09033
3.10984
3.12692
3.14119
3.15183
3.15918
3.16452
3.16895
3.17282
3.17611
3.17874
3.18066
3.18162
3.18111
3.17878
3.17482
3.16975
3.16389
3.1572
3.14955
3.14079
3.1306
3.11859
3.10435
3.08753
3.06802
3.04583
3.021
2.9933
2.96663
2.89281
2.77352
2.72123
2.77232
2.85473
2.92012
2.96435
2.99712
3.02506
3.05016
3.07266
3.09257
3.11
3.12451
3.13535
3.14289
3.14846
3.15316
3.15726
3.16069
3.16347
3.16575
3.16726
3.16734
3.16554
3.16215
3.15771
3.15248
3.14637
3.13926
3.13096
3.12125
3.10984
3.09631
3.08026
3.06148
3.03987
3.01514
2.98674
2.95983
2.87041
2.75256
2.70213
2.75452
2.83738
2.90245
2.94633
2.97928
3.00758
3.03275
3.05535
3.07565
3.09348
3.10821
3.11926
3.12712
3.13313
3.13822
3.14255
3.14604
3.14892
3.1515
3.1535
3.15409
3.15281
3.15002
3.14626
3.14176
3.13647
3.13017
3.12268
3.11389
3.10361
3.09141
3.07693
3.06002
3.04039
3.01745
2.99016
2.96533
2.84823
2.732
2.68375
2.73743
2.82055
2.88534
2.92901
2.96211
2.99065
3.01585
3.03852
3.05919
3.07736
3.09225
3.10352
3.11185
3.11842
3.12399
3.12857
3.13212
3.1351
3.13796
3.14036
3.14138
3.14061
3.13838
3.13529
3.13162
3.1273
3.12202
3.11566
3.10824
3.09958
3.08934
3.07735
3.06353
3.04758
3.0287
3.00528
2.98611
2.8263
2.71189
2.66612
2.72105
2.80419
2.86876
2.91246
2.94567
2.9743
2.99955
3.02235
3.0433
3.06168
3.07666
3.08818
3.09703
3.10424
3.11033
3.1152
3.1189
3.12205
3.1252
3.12795
3.12938
3.12906
3.12736
3.12492
3.12211
3.11881
3.11469
3.10974
3.104
3.09733
3.08962
3.08091
3.07132
3.06082
3.04867
3.03286
3.02489
2.80472
2.69234
2.64924
2.70532
2.78832
2.85274
2.89667
2.92995
2.95854
2.98392
3.00694
3.02807
3.04652
3.06155
3.07333
3.0827
3.09051
3.09713
3.10237
3.10632
3.10976
3.11325
3.11637
3.11818
3.11829
3.11709
3.1153
3.1133
3.11098
3.1081
3.10467
3.10074
3.09632
3.09152
3.08656
3.08196
3.07835
3.07539
3.07184
3.08175
2.78363
2.67349
2.63312
2.6902
2.773
2.83732
2.88155
2.9149
2.94339
2.969
2.99231
3.01352
3.03193
3.04702
3.05907
3.06886
3.0772
3.08432
3.08996
3.09428
3.09813
3.10204
3.10553
3.10772
3.10827
3.10759
3.10642
3.10517
3.10378
3.10209
3.1001
3.09797
3.09589
3.09404
3.09289
3.09344
3.09718
3.10479
3.11716
3.15114
2.76312
2.65542
2.61775
2.67569
2.75832
2.82255
2.86699
2.90039
2.92885
2.95476
2.97839
2.9996
3.01797
3.03318
3.04545
3.05555
3.0643
3.07183
3.07785
3.08263
3.08701
3.09137
3.09522
3.0978
3.09885
3.09872
3.09814
3.0976
3.09708
3.09642
3.09573
3.09529
3.09532
3.09615
3.09841
3.1035
3.11366
3.13068
3.1599
3.21643
2.74311
2.63807
2.6031
2.66183
2.74436
2.80844
2.85289
2.88636
2.91492
2.94115
2.96504
2.98628
3.00471
3.02007
3.03251
3.04284
3.05187
3.05965
3.06598
3.07128
3.07625
3.08105
3.08523
3.08827
3.08985
3.09028
3.09033
3.09049
3.09071
3.09093
3.09138
3.09233
3.09407
3.09703
3.10187
3.11019
3.12468
3.14818
3.19237
3.27058
3.97627
4.00263
4.04174
4.08487
4.13352
4.18651
4.24115
4.2938
4.34282
4.38846
4.42871
4.46296
4.49204
4.5156
4.53416
4.55115
4.56713
4.58164
4.59447
4.60493
4.61252
4.61914
4.62629
4.63446
4.64337
4.65136
4.65972
4.66945
4.68107
4.69627
4.71494
4.74062
4.77257
4.81262
4.85727
4.9159
4.96523
5.06432
5.10209
5.21801
3.9472
3.97467
4.0163
4.06208
4.11322
4.16932
4.22703
4.28225
4.33328
4.38063
4.42227
4.45761
4.48767
4.51257
4.53224
4.55023
4.56736
4.58278
4.59634
4.6079
4.61667
4.62431
4.63251
4.64153
4.65154
4.66064
4.67009
4.68091
4.69331
4.70983
4.7294
4.7564
4.78926
4.83034
4.87596
4.9359
4.9864
5.08669
5.12575
5.24287
3.91775
3.94622
3.99008
4.03861
4.09266
4.15213
4.21292
4.27081
4.32401
4.37288
4.41577
4.45224
4.48326
4.50931
4.53043
4.54951
4.56764
4.58395
4.59834
4.61082
4.62084
4.62973
4.63899
4.64892
4.65975
4.66985
4.68045
4.69237
4.70579
4.72341
4.74411
4.77219
4.80602
4.84807
4.89479
4.95606
5.00781
5.10928
5.14943
5.26777
3.8878
3.91728
3.96329
4.01462
4.07197
4.13503
4.19904
4.25967
4.31508
4.3654
4.4095
4.44705
4.47902
4.5061
4.52872
4.54889
4.56792
4.5851
4.60037
4.61381
4.62508
4.63535
4.64578
4.65655
4.66799
4.67909
4.69083
4.70386
4.71852
4.73705
4.75894
4.78801
4.82286
4.86585
4.91377
4.97631
5.02928
5.13198
5.17325
5.29272
3.85731
3.88778
3.93597
3.99026
4.05127
4.11812
4.18551
4.24895
4.30655
4.35826
4.40351
4.44208
4.47502
4.50308
4.52713
4.54828
4.56821
4.58628
4.6024
4.61693
4.62954
4.64114
4.65273
4.6643
4.67629
4.68846
4.7014
4.71544
4.73127
4.75077
4.77396
4.80391
4.83973
4.88369
4.93289
4.99664
5.05081
5.1547
5.19718
5.31776
3.82627
3.85775
3.9082
3.96558
4.03062
4.10151
4.17242
4.23869
4.29842
4.35151
4.39782
4.43731
4.47123
4.50028
4.52559
4.54772
4.56857
4.58758
4.60461
4.62022
4.63416
4.64703
4.65965
4.67212
4.68487
4.69799
4.71205
4.72713
4.74404
4.76457
4.7891
4.81993
4.85666
4.90162
4.95203
5.01699
5.07241
5.17738
5.22111
5.34288
3.79472
3.82719
3.87998
3.94065
4.01004
4.08523
4.1598
4.22891
4.29066
4.34505
4.39234
4.43274
4.46757
4.49765
4.52413
4.54732
4.56912
4.58906
4.6071
4.62368
4.6388
4.65299
4.66654
4.67997
4.69373
4.70774
4.72274
4.73889
4.75693
4.7785
4.80425
4.83601
4.87372
4.91965
4.97113
5.03728
5.09398
5.20006
5.245
5.368
3.76268
3.7961
3.85133
3.91552
3.9896
4.06935
4.14769
4.21963
4.28325
4.33884
4.38701
4.42833
4.46403
4.4952
4.52276
4.54715
4.56998
4.59072
4.6098
4.62732
4.64343
4.65896
4.67355
4.68791
4.70275
4.71771
4.73357
4.7507
4.76989
4.79259
4.81946
4.85211
4.89085
4.93779
4.99025
5.0575
5.11548
5.2227
5.26881
5.39311
3.73017
3.76449
3.82222
3.89022
3.96937
4.054
4.13618
4.21087
4.27622
4.33289
4.38188
4.42412
4.46063
4.49296
4.52158
4.54721
4.57109
4.59254
4.61258
4.63111
4.64819
4.66495
4.68068
4.69601
4.71184
4.72777
4.74457
4.76267
4.78294
4.80678
4.83472
4.86824
4.90804
4.95599
5.00941
5.07768
5.13687
5.24524
5.29258
5.41826
3.69716
3.73235
3.79266
3.86485
3.94951
4.03936
4.12544
4.20273
4.26967
4.3273
4.37708
4.42016
4.45749
4.49096
4.52064
4.54742
4.57231
4.59449
4.61541
4.63505
4.65323
4.67107
4.68791
4.70426
4.72098
4.73788
4.75575
4.77487
4.79611
4.82101
4.85
4.88443
4.9253
4.97421
5.02861
5.09784
5.15821
5.2677
5.31632
5.44345
3.66364
3.69967
3.76268
3.83955
3.93026
4.02563
4.11566
4.19535
4.26375
4.32221
4.37275
4.41654
4.45471
4.48921
4.51994
4.54775
4.57346
4.59653
4.61836
4.63915
4.6586
4.67741
4.69519
4.71258
4.73023
4.74811
4.76709
4.78727
4.80942
4.83528
4.8653
4.90069
4.94259
4.99243
5.04784
5.11797
5.17951
5.29011
5.34
5.46863
3.62958
3.66644
3.73237
3.81452
3.91192
4.01307
4.10704
4.18888
4.25859
4.31772
4.36899
4.41333
4.45232
4.48769
4.51943
4.54816
4.57454
4.59865
4.62153
4.64345
4.66419
4.68392
4.70255
4.72096
4.73961
4.75851
4.77853
4.79979
4.8229
4.84964
4.88062
4.91699
4.95989
5.01063
5.06704
5.13805
5.20073
5.31245
5.36358
5.49373
3.59501
3.63268
3.70185
3.79001
3.8948
4.00191
4.09968
4.18341
4.25424
4.31389
4.36576
4.41053
4.45031
4.48644
4.51912
4.54867
4.57567
4.60087
4.62492
4.64796
4.66986
4.69055
4.71009
4.72946
4.74912
4.76908
4.79006
4.81238
4.83653
4.86413
4.89599
4.9333
4.97718
5.0288
5.08619
5.15807
5.22184
5.33469
5.38703
5.51872
3.5599
3.59838
3.67125
3.7663
3.87917
3.99233
4.09363
4.17898
4.25064
4.31069
4.36294
4.40812
4.44861
4.48545
4.51902
4.54933
4.57702
4.60325
4.62847
4.65262
4.67554
4.69722
4.71785
4.73814
4.75872
4.77978
4.80168
4.82504
4.8503
4.87874
4.91145
4.94966
4.99443
5.04691
5.10527
5.17803
5.2428
5.35679
5.41037
5.54361
3.52417
3.56355
3.64075
3.74366
3.86524
3.98446
4.08886
4.17555
4.24769
4.30806
4.36041
4.40606
4.44714
4.48476
4.5192
4.55017
4.57869
4.60584
4.6321
4.65737
4.68126
4.70397
4.72582
4.74701
4.76841
4.79057
4.81341
4.8378
4.86417
4.89344
4.92702
4.96608
5.01167
5.06497
5.12429
5.19794
5.26364
5.37873
5.43363
5.56844
3.48776
3.52823
3.6105
3.72241
3.85321
3.97837
4.08536
4.17305
4.24531
4.30591
4.35812
4.40431
4.44589
4.48435
4.51964
4.55121
4.58063
4.60865
4.63579
4.66218
4.68709
4.71084
4.73392
4.75604
4.77821
4.80146
4.82528
4.85067
4.87812
4.90822
4.94269
4.98259
5.0289
5.08297
5.14324
5.21784
5.28441
5.40056
5.45683
5.59324
3.45062
3.49247
3.58072
3.7029
3.84331
3.97416
4.08317
4.17145
4.24353
4.3042
4.35613
4.40288
4.44489
4.4842
4.5203
4.55244
4.58276
4.61164
4.6396
4.66709
4.69311
4.71788
4.74207
4.76516
4.78816
4.81247
4.83728
4.86365
4.8921
4.92304
4.95843
4.99915
5.04615
5.10093
5.16214
5.23771
5.30512
5.42231
5.47997
5.618
3.41274
3.45637
3.55174
3.68557
3.83588
3.97192
4.08241
4.17075
4.24248
4.30297
4.3546
4.4018
4.44421
4.48426
4.52105
4.55379
4.58495
4.61477
4.64361
4.67213
4.69933
4.72512
4.75023
4.77432
4.79828
4.82363
4.84943
4.87671
4.90613
4.93791
4.9742
5.01572
5.06338
5.11885
5.18097
5.25753
5.32579
5.44401
5.50304
5.64271
3.37415
3.42011
3.52402
3.67093
3.83128
3.97178
4.08318
4.171
4.24227
4.30227
4.35369
4.40111
4.44391
4.48449
4.52182
4.55523
4.58714
4.618
4.64787
4.67736
4.70573
4.73253
4.7584
4.78352
4.80857
4.83495
4.86172
4.88986
4.92018
4.95284
4.98997
5.03226
5.08058
5.13675
5.19973
5.27727
5.34637
5.46565
5.52602
5.66731
3.33487
3.38395
3.49815
3.65954
3.82987
3.97383
4.08553
4.17228
4.24292
4.30218
4.35345
4.40081
4.44399
4.48488
4.52258
4.55673
4.58935
4.62132
4.65236
4.68278
4.71228
4.74005
4.76663
4.7928
4.81901
4.84641
4.87415
4.90311
4.93428
4.96783
5.00571
5.04873
5.0977
5.15461
5.21841
5.29691
5.36684
5.4872
5.54891
5.69179
3.29496
3.34822
3.47484
3.65198
3.83186
3.97816
4.08934
4.17461
4.24435
4.30271
4.35381
4.40088
4.44438
4.4854
4.52337
4.55832
4.59166
4.62475
4.65702
4.68837
4.71894
4.74767
4.77498
4.80221
4.82957
4.85797
4.88672
4.91648
4.94844
4.98286
5.02141
5.0651
5.11476
5.17245
5.23701
5.31642
5.3872
5.50864
5.5717
5.71613
3.25453
3.31336
3.45486
3.64885
3.83734
3.98477
4.09444
4.17797
4.2464
4.30382
4.35457
4.40127
4.44499
4.48608
4.52431
4.56005
4.59416
4.62833
4.66178
4.69409
4.7257
4.75536
4.7835
4.81178
4.84023
4.86961
4.89941
4.92998
4.96265
4.99791
5.03708
5.0814
5.13175
5.19026
5.25555
5.33582
5.40747
5.52995
5.59439
5.74036
3.21372
3.27989
3.439
3.65066
3.84631
3.99361
4.10072
4.18229
4.24898
4.30541
4.35557
4.40191
4.44569
4.4869
4.52545
4.56195
4.59691
4.6321
4.66658
4.69991
4.73255
4.76314
4.79221
4.82154
4.85098
4.8813
4.91219
4.9436
4.97694
5.01295
5.0527
5.09762
5.1487
5.20804
5.27406
5.35514
5.42769
5.55112
5.61699
5.7645
3.17273
3.24848
3.42815
3.65794
3.8588
4.00454
4.10818
4.18744
4.25207
4.30739
4.3567
4.4027
4.44645
4.48786
4.52684
4.56404
4.59991
4.63605
4.67143
4.70581
4.7395
4.77102
4.8011
4.83147
4.86183
4.89308
4.92505
4.9573
4.99128
5.02795
5.06828
5.1138
5.16563
5.22577
5.29253
5.37437
5.44788
5.57219
5.63947
5.78855
3.13177
3.21996
3.4234
3.67113
3.87494
4.01741
4.11689
4.1933
4.25571
4.30965
4.35796
4.40363
4.44727
4.48898
4.52842
4.56629
4.60311
4.64014
4.67637
4.71182
4.74656
4.77902
4.81017
4.84156
4.87281
4.90497
4.93796
4.97105
5.00566
5.04292
5.08381
5.12992
5.18251
5.24343
5.31095
5.39353
5.46804
5.59316
5.66182
5.8125
3.09118
3.19547
3.4261
3.69061
3.89479
4.03201
4.12682
4.19972
4.25986
4.31212
4.3594
4.40469
4.44823
4.49027
4.53014
4.56868
4.60645
4.64436
4.68145
4.71797
4.7537
4.78714
4.81939
4.85178
4.88393
4.91699
4.95091
4.98479
5.02006
5.05785
5.09928
5.14598
5.19933
5.26099
5.32931
5.41263
5.48816
5.61407
5.68403
5.83633
3.05151
3.17655
3.4378
3.71665
3.91816
4.04806
4.13766
4.20652
4.26432
4.3147
4.36104
4.40589
4.4494
4.49174
4.53195
4.57119
4.60988
4.64868
4.68673
4.72427
4.76092
4.79538
4.82873
4.86211
4.89522
4.92914
4.96387
4.99851
5.03445
5.07276
5.11467
5.16195
5.21603
5.27843
5.34757
5.43167
5.50823
5.63494
5.7061
5.86001
3.01365
3.16528
3.46003
3.74926
3.94441
4.06521
4.14885
4.21348
4.26874
4.31729
4.36281
4.40724
4.45083
4.49338
4.53385
4.57384
4.6134
4.65313
4.69225
4.73072
4.7682
4.80373
4.83819
4.87255
4.90667
4.9414
4.97685
5.0122
5.04881
5.08764
5.12999
5.1778
5.23257
5.29572
5.3657
5.45063
5.52824
5.65577
5.72807
5.88349
2.97902
3.16438
3.494
3.78804
3.97251
4.08289
4.15978
4.22028
4.27281
4.31977
4.36458
4.40872
4.45247
4.49516
4.53589
4.57667
4.61707
4.65774
4.698
4.73733
4.77554
4.8122
4.84776
4.88309
4.91827
4.95376
4.98984
5.0259
5.06316
5.1025
5.14523
5.1935
5.24891
5.31283
5.38368
5.4695
5.54818
5.67656
5.74996
5.90673
2.9498
3.17718
3.54024
3.83195
4.00124
4.10034
4.16997
4.22654
4.27638
4.32203
4.36626
4.41027
4.45424
4.49705
4.53812
4.57973
4.62096
4.66254
4.70394
4.74405
4.78295
4.82077
4.85745
4.89372
4.92999
4.96618
5.00285
5.0396
5.0775
5.11732
5.16036
5.20906
5.26503
5.32976
5.40152
5.48826
5.56806
5.6973
5.77184
5.92971
2.92912
3.20729
3.59832
3.87903
4.02934
4.1166
4.17915
4.23191
4.27945
4.32402
4.36785
4.41189
4.45606
4.49904
4.54061
4.58307
4.62512
4.66758
4.71
4.75088
4.79046
4.82947
4.86727
4.90445
4.94178
4.97864
5.01588
5.05334
5.09181
5.13208
5.1754
5.22444
5.28095
5.3465
5.4192
5.50689
5.58788
5.71801
5.79375
5.95242
2.92136
3.25779
3.66633
3.92632
4.05534
4.13065
4.18695
4.23614
4.28203
4.32576
4.36938
4.41358
4.45792
4.50118
4.54342
4.58671
4.62959
4.67285
4.71615
4.7578
4.79813
4.83827
4.8772
4.91528
4.95361
4.99113
5.02894
5.06711
5.10609
5.14676
5.19032
5.23966
5.29666
5.36302
5.43672
5.52538
5.60767
5.73867
5.81573
5.97488
2.93207
3.32976
3.74006
3.96996
4.07721
4.14148
4.19269
4.23903
4.28397
4.32723
4.37089
4.41533
4.45981
4.50354
4.54657
4.59061
4.63434
4.67831
4.72231
4.76478
4.80596
4.84716
4.88719
4.92617
4.96541
5.00359
5.04201
5.08086
5.12029
5.16129
5.20509
5.25469
5.31216
5.37929
5.45406
5.54369
5.62743
5.7593
5.83783
5.99711
2.96718
3.42042
3.81269
4.00597
4.09303
4.14853
4.19602
4.24071
4.28529
4.32859
4.37254
4.4173
4.46193
4.5063
4.55016
4.59481
4.63936
4.68397
4.72856
4.77189
4.81401
4.85616
4.89723
4.93713
4.97722
5.01607
5.0551
5.09459
5.1344
5.17567
5.21971
5.26954
5.32745
5.39529
5.47118
5.56181
5.64717
5.77993
5.86009
6.01919
3.03306
3.52357
3.87724
4.03241
4.1028
4.15253
4.19779
4.24204
4.28666
4.33042
4.37484
4.41993
4.46477
4.50983
4.55446
4.59957
4.64479
4.69001
4.73512
4.77931
4.82238
4.86537
4.90742
4.94826
4.98911
5.02865
5.06828
5.10834
5.14849
5.18998
5.23426
5.28427
5.34259
5.41109
5.48814
5.57981
5.66699
5.80071
5.88271
6.04138
3.13175
3.628
3.92787
4.04914
4.10823
4.15495
4.19957
4.24414
4.28908
4.33343
4.3783
4.42364
4.46875
4.51436
4.55958
4.60498
4.65069
4.69644
4.74207
4.78705
4.83103
4.87476
4.91771
4.95952
5.00106
5.0413
5.08151
5.12208
5.16252
5.2042
5.24869
5.29882
5.35753
5.42666
5.50492
5.59768
5.68687
5.82172
5.90578
6.06399
3.26113
3.71843
3.95938
4.05528
4.10916
4.15555
4.20107
4.24656
4.29215
4.33714
4.38236
4.42789
4.47336
4.51929
4.56491
4.61051
4.65659
4.70283
4.749
4.79466
4.83948
4.88393
4.92774
4.97053
5.01275
5.05368
5.09448
5.13547
5.17619
5.218
5.26266
5.31286
5.37189
5.44163
5.52104
5.61495
5.70626
5.84248
5.92856
6.08623
3.39674
3.77392
3.96742
4.04914
4.10244
4.15049
4.19766
4.2444
4.29079
4.3365
4.38211
4.42798
4.47397
4.52019
4.56627
4.61228
4.65888
4.7058
4.7527
4.79915
4.845
4.89042
4.93524
4.97915
5.02225
5.06412
5.10564
5.14713
5.18822
5.23025
5.2751
5.3254
5.3847
5.4551
5.53564
5.63074
5.7243
5.86248
5.9504
6.10735
3.58641
3.80818
3.95579
4.02986
4.0861
4.13803
4.18818
4.2371
4.28495
4.33195
4.37846
4.42509
4.47181
4.51847
4.56527
4.61209
4.65943
4.70715
4.75498
4.80239
4.84942
4.89602
4.942
4.98716
5.03127
5.07427
5.1166
5.15857
5.20009
5.24234
5.28734
5.33772
5.3972
5.46831
5.55001
5.64633
5.74247
5.88253
5.97372
6.12883
3.6878
3.81035
3.93733
4.00962
4.06898
4.12417
4.17686
4.22758
4.27679
4.32496
4.37238
4.4197
4.46702
4.51417
4.56164
4.60922
4.65722
4.70559
4.75415
4.80236
4.85032
4.89783
4.94468
4.99076
5.03565
5.07943
5.12225
5.16434
5.20592
5.24801
5.29268
5.34272
5.402
5.4736
5.5564
5.6534
5.75234
5.89143
5.99029
6.14065
3.68279
3.81172
3.90885
3.97491
4.03479
4.09181
4.14588
4.19757
4.24761
4.29659
4.3448
4.39263
4.44055
4.48851
4.53696
4.58579
4.63501
4.68462
4.73447
4.78426
4.83391
4.88312
4.93166
4.97931
5.0256
5.07052
5.11379
5.15547
5.1961
5.23657
5.2789
5.32645
5.38399
5.45641
5.54216
5.64059
5.74611
5.87999
6.00362
6.14657
3.57887
3.70943
3.80246
3.86286
3.92023
3.97658
4.03068
4.08287
4.13384
4.18405
4.23391
4.28362
4.33354
4.38388
4.43476
4.48624
4.5383
4.59078
4.64355
4.69635
4.74892
4.80098
4.85224
4.90227
4.9506
4.99689
5.04082
5.08218
5.12133
5.1592
5.19786
5.24122
5.29519
5.36617
5.4533
5.55448
5.66474
5.80458
5.94015
6.09336
3.50921
3.61512
3.69779
3.75424
3.80895
3.86407
3.91772
3.96991
4.02133
4.07233
4.12325
4.17436
4.22588
4.27807
4.33101
4.38467
4.43906
4.49403
4.54933
4.60473
4.65992
4.71453
4.7682
4.82044
4.87063
4.91829
4.96299
5.00445
5.0428
5.07888
5.11465
5.1541
5.20348
5.27047
5.35789
5.46338
5.58021
5.72691
5.86945
6.03354
3.4418
3.52738
3.59947
3.65198
3.7033
3.75616
3.80858
3.86018
3.91144
3.96271
4.01419
4.06614
4.11876
4.17227
4.22676
4.28214
4.33836
4.39531
4.45266
4.51014
4.56748
4.6242
4.67983
4.73387
4.78564
4.83452
4.88002
4.92179
4.95983
4.99475
5.02833
5.06431
5.10901
5.17078
5.25634
5.36576
5.48934
5.64211
5.79079
5.96212
3.37069
3.44078
3.50332
3.55204
3.59995
3.65004
3.70059
3.75103
3.80166
3.85271
3.90435
3.95674
4.01008
4.06451
4.12011
4.1768
4.23446
4.29296
4.35197
4.41117
4.47022
4.52866
4.5859
4.64142
4.69454
4.74456
4.79092
4.83325
4.87142
4.90587
4.93813
4.97156
5.01213
5.06855
5.15012
5.2606
5.38976
5.54741
5.70122
5.87682
3.29668
3.35588
3.41051
3.45517
3.49952
3.54663
3.59483
3.64356
3.69303
3.74336
3.79468
3.84711
3.90074
3.95565
4.01192
4.06949
4.12815
4.18775
4.248
4.30848
4.36881
4.42851
4.48701
4.54368
4.59787
4.6489
4.69618
4.73925
4.77794
4.81258
4.84448
4.87653
4.91404
4.9655
5.04118
5.14952
5.28017
5.44055
5.59926
5.7772
3.22114
3.27224
3.32002
3.36031
3.4009
3.44483
3.49047
3.53718
3.58505
3.63428
3.68491
3.73696
3.79047
3.84549
3.90206
3.96007
4.01933
4.07963
4.14067
4.202
4.2632
4.32379
4.38318
4.44073
4.49576
4.54767
4.59586
4.63984
4.6794
4.71485
4.74728
4.77914
4.81491
4.86223
4.93108
5.03362
5.16102
5.31983
5.48255
5.66124
3.14511
3.18954
3.23125
3.26712
3.30383
3.34441
3.38727
3.43172
3.47775
3.52554
3.57512
3.62643
3.67945
3.73422
3.79069
3.84874
3.90819
3.96879
4.03018
4.09196
4.15365
4.21477
4.27472
4.33286
4.38857
4.44124
4.4903
4.5353
4.57605
4.61278
4.64644
4.67907
4.71444
4.75889
4.82118
4.91421
5.03338
5.18496
5.3491
5.52631
3.06915
3.10729
3.14345
3.17502
3.20789
3.24508
3.28499
3.32696
3.37099
3.41708
3.4653
3.51555
3.56775
3.62189
3.6779
3.73563
3.79488
3.85538
3.91677
3.9786
4.04044
4.10175
4.16195
4.22046
4.27667
4.32999
4.37989
4.42599
4.46811
4.50644
4.54178
4.57589
4.61184
4.65471
4.71139
4.79338
4.89894
5.03698
5.19784
5.36927
2.99221
3.02481
3.05598
3.08351
3.11269
3.1465
3.18347
3.22285
3.26466
3.30886
3.35546
3.40436
3.45543
3.5086
3.56382
3.62088
3.67957
3.73962
3.80065
3.86222
3.92386
3.98506
4.04528
4.10394
4.16048
4.21434
4.26504
4.31225
4.3558
4.39586
4.43313
4.46907
4.50614
4.54825
4.60044
4.67211
4.76042
4.87879
5.02926
5.188
2.91381
2.94159
2.96834
2.99217
3.01785
3.04841
3.08245
3.11923
3.15868
3.20083
3.24559
3.29287
3.34253
3.39446
3.44856
3.50464
3.56246
3.62175
3.68211
3.74309
3.80424
3.86509
3.92511
3.98374
4.04045
4.09473
4.14615
4.19441
4.23935
4.28111
4.32032
4.35814
4.39642
4.43803
4.48643
4.54867
4.62007
4.71651
4.84751
4.98568
2.83355
2.8574
2.88027
2.90071
2.9231
2.95059
2.98175
3.01591
3.05296
3.09289
3.13564
3.18109
3.22911
3.27955
3.33227
3.38709
3.44378
3.50202
3.56142
3.62154
3.68196
3.74223
3.80184
3.86026
3.91699
3.97157
4.02359
4.07276
4.11895
4.16229
4.20326
4.24274
4.28199
4.32299
4.36787
4.42168
4.47815
4.55433
4.65661
4.77036
2.75098
2.77185
2.79151
2.80895
2.8283
2.85283
2.88122
2.91274
2.94734
2.98498
3.02561
3.06908
3.11526
3.16398
3.2151
3.26842
3.32371
3.38065
3.43885
3.4979
3.55738
3.61687
3.67586
3.73389
3.7905
3.84522
3.89768
3.94759
3.99484
4.03951
4.08193
4.12265
4.16245
4.20255
4.244