/*--------------------------------*- C++ -*----------------------------------*\
  =========                 |
  \\      /  F ield         | OpenFOAM: The Open Source CFD Toolbox
   \\    /   O peration     | Website:  https://openfoam.org
    \\  /    A nd           | Version:  7
     \\/     M anipulation  |
\*---------------------------------------------------------------------------*/
FoamFile
{
    version     2.0;
    format      ascii;
    class       volScalarField;
    location    "21.8";
    object      p;
}
// * * * * * * * * * * * * * * * * * * * * * * * * * * * * * * * * * * * * * //

dimensions      [0 2 -2 0 0 0 0];

internalField   nonuniform List<scalar> 
2000
(
-0.0133908
-0.00944799
-0.00684857
-0.00383619
-0.000500949
0.00303991
0.00670413
0.0104117
0.0141108
0.0177913
-0.0121644
-0.00858192
-0.00627313
-0.00367568
-0.000830822
0.00221473
0.00542449
0.00874137
0.0121108
0.0155256
-0.0109144
-0.00773925
-0.00569031
-0.00345281
-0.00105707
0.00149485
0.00420962
0.0070672
0.0100312
0.0131094
-0.00968078
-0.00694242
-0.00512972
-0.0031972
-0.00119028
0.000902234
0.0031124
0.00545652
0.00793086
0.0105731
-0.00850276
-0.00621005
-0.00461348
-0.00293504
-0.00124719
0.000448685
0.00218425
0.00399375
0.00590542
0.00796857
-0.00741154
-0.00555209
-0.00415279
-0.0026849
-0.00124791
0.000130834
0.00146031
0.00276288
0.00408371
0.00537468
-0.0064328
-0.00497279
-0.00375094
-0.00245822
-0.00121406
-7.18681e-05
0.000944845
0.00182215
0.00259889
0.00289877
-0.00558914
-0.00447659
-0.00340908
-0.0022628
-0.00116756
-0.000194542
0.000604603
0.0011819
0.00153457
0.000700539
-0.00489744
-0.00407516
-0.00313
-0.00210626
-0.00112959
-0.000279579
0.000378108
0.000790868
0.000853023
-0.00115207
-0.00438641
-0.00377321
-0.00291755
-0.00199766
-0.00111844
-0.000361521
0.000213344
0.000583891
0.000534002
-0.00209244
0.0255394
0.0367875
0.0458912
0.0526364
0.0574658
0.0609026
0.0624503
0.0638746
0.0634313
0.0647961
0.0228216
0.0341863
0.0432573
0.0498198
0.0545459
0.0578771
0.0592844
0.0605766
0.0602043
0.0614532
0.0198125
0.0315229
0.0405845
0.0469961
0.0516853
0.0549391
0.0562231
0.0573983
0.0570333
0.0582443
0.016557
0.0288406
0.0378568
0.0441775
0.0489021
0.0520954
0.0532765
0.0543312
0.0539541
0.0551852
0.0131853
0.0262262
0.0350855
0.0413978
0.0462125
0.0493552
0.0504518
0.0513781
0.0509995
0.0522763
0.00989597
0.0236557
0.0322156
0.038667
0.0436183
0.0467282
0.0477578
0.0485381
0.0481689
0.0495132
0.00705563
0.0211953
0.0293194
0.0360446
0.0411256
0.0442187
0.0452005
0.0458245
0.0454871
0.0468942
0.00485731
0.0185028
0.0262969
0.0334863
0.0387163
0.0418398
0.0427912
0.0432214
0.0429165
0.0444238
0.00377497
0.0158827
0.0234606
0.0310558
0.036389
0.0395769
0.0405303
0.0407756
0.0405268
0.0420998
0.00222279
0.0123723
0.0204056
0.0285056
0.0341098
0.0374736
0.0384436
0.0384154
0.0382023
0.0399083
0.00664014
0.00826789
0.0150361
0.0228619
0.0287125
0.0323547
0.0336665
0.0335025
0.0334401
0.0349043
0.00128792
0.00207602
0.00896413
0.0163179
0.0220258
0.0257747
0.027409
0.0269314
0.0269174
0.0282436
-0.00348671
-0.0015419
0.00546597
0.0120677
0.0171035
0.0205684
0.0222107
0.0221847
0.0221343
0.0238783
-0.00591902
-0.00320308
0.00325421
0.00900063
0.013495
0.0167696
0.0186473
0.01929
0.019725
0.0222063
-0.00588241
-0.00281195
0.00247348
0.00687315
0.0107908
0.0138387
0.0159292
0.0172933
0.0185358
0.0214554
-0.00484842
-0.00159077
0.00206544
0.00548323
0.00876391
0.0114511
0.0135838
0.0153468
0.0169328
0.0194389
-0.00206014
0.000425233
0.00207009
0.00437529
0.00684588
0.00904445
0.0109643
0.0127101
0.0142145
0.0160173
0.000412984
0.00216486
0.00258108
0.00384982
0.00525512
0.00662745
0.00798299
0.00932537
0.0104439
0.0115696
0.00222092
0.00241254
0.00216866
0.00271623
0.00343992
0.00419784
0.00497014
0.00574846
0.00635561
0.00693263
0.00215138
0.00230101
0.00166278
0.00116673
0.00120848
0.00146839
0.00175066
0.00201892
0.0021436
0.00225065
0.000490917
-0.000387929
-0.00357194
-0.0056831
-0.00552094
-0.00407525
-0.00141839
0.000524422
0.00267397
0.001682
0.000272148
-0.000822871
-0.00399984
-0.00609438
-0.00599881
-0.00461428
-0.0019045
0.000214084
0.00247681
0.00136466
0.000354504
-0.00146934
-0.00479448
-0.00688889
-0.00676477
-0.00525858
-0.00244885
-0.000178329
0.00217368
0.00107472
7.06928e-05
-0.00250624
-0.00594886
-0.00797461
-0.0077017
-0.00597276
-0.00300659
-0.000585753
0.0018856
0.000830091
-0.000715108
-0.00399099
-0.00751588
-0.00935558
-0.00880819
-0.0067828
-0.00360021
-0.00100731
0.00160193
0.000622115
-0.00212009
-0.00595737
-0.00944048
-0.0109586
-0.0100229
-0.00764199
-0.00421464
-0.00143749
0.00130688
0.000448385
-0.00409053
-0.00832241
-0.0115541
-0.0126396
-0.0112502
-0.00849618
-0.00483001
-0.00186755
0.000994982
0.000300897
-0.00638295
-0.010844
-0.0136247
-0.0142339
-0.0123955
-0.0092984
-0.00542405
-0.00228655
0.000667336
0.000164076
-0.00861383
-0.013187
-0.0154235
-0.0155962
-0.0133792
-0.0100051
-0.00596791
-0.00267879
0.000334798
3.45811e-05
-0.0104116
-0.0150474
-0.0167782
-0.0166264
-0.0141396
-0.0105728
-0.00641782
-0.0030362
1.27961e-05
-3.71304e-05
-0.01155
-0.0162627
-0.0175955
-0.0172743
-0.0146328
-0.0109639
-0.00677941
-0.00333574
-0.000322283
-3.53455e-05
-0.0119517
-0.01681
-0.0178729
-0.0175318
-0.0148494
-0.0111837
-0.00703262
-0.00357054
-0.000634325
-5.97083e-05
-0.0116469
-0.0167266
-0.0176931
-0.0174199
-0.014819
-0.0112174
-0.00717827
-0.00375495
-0.000910096
-0.000118587
-0.0107848
-0.0161141
-0.0171302
-0.0170026
-0.0145717
-0.0111128
-0.00723368
-0.00389619
-0.00115297
-0.000195145
-0.00950319
-0.0151261
-0.0162815
-0.0163483
-0.0141625
-0.0109012
-0.00722114
-0.00400174
-0.0013652
-0.000276296
-0.00794107
-0.0138832
-0.0152506
-0.0155257
-0.0136447
-0.0106189
-0.00716175
-0.00407932
-0.00154814
-0.000354803
-0.00622946
-0.012482
-0.0141284
-0.0146009
-0.0130606
-0.0102967
-0.00707198
-0.00413465
-0.0017038
-0.000426757
-0.00442852
-0.0109766
-0.0129729
-0.0136342
-0.0124444
-0.00996163
-0.00696282
-0.0041721
-0.00183491
-0.000490685
-0.00249658
-0.00932295
-0.0117909
-0.0126561
-0.0118244
-0.00969317
-0.00685163
-0.0042005
-0.00194657
-0.000546303
-0.000874978
-0.00757678
-0.0105709
-0.0116054
-0.0111514
-0.00932677
-0.00674246
-0.00421102
-0.00203966
-0.000588574
0.00029205
-0.00401649
-0.00758863
-0.00894271
-0.00910936
-0.00785239
-0.00606914
-0.00404567
-0.00215184
-0.000641664
0.00179425
-0.00173471
-0.0045383
-0.00586655
-0.00640583
-0.00580093
-0.00469822
-0.00321151
-0.00181296
-0.00052268
0.00444907
0.00106816
-0.00171938
-0.00321573
-0.00410878
-0.0040127
-0.00347436
-0.00246764
-0.00136286
-0.000287157
0.00696507
0.00373053
0.000904885
-0.000840688
-0.00207507
-0.00241924
-0.00230438
-0.00163982
-0.000789503
3.16886e-05
0.00961779
0.00621461
0.00328473
0.00129075
-0.000278391
-0.000998745
-0.00122519
-0.000805193
-8.78659e-05
0.000480135
0.012434
0.00874182
0.00551017
0.00317013
0.0012873
0.000228402
-0.000254496
7.48645e-05
0.000751173
0.0010486
0.0151963
0.011106
0.00753158
0.00483146
0.00263307
0.00128433
0.000662788
0.000981278
0.00164377
0.00164816
0.0177374
0.0130973
0.00928104
0.00626473
0.00380999
0.00225618
0.00157808
0.00188121
0.00244771
0.00208635
0.0200164
0.0154949
0.0110712
0.00748033
0.00477333
0.00312277
0.00242762
0.00254615
0.00273625
0.00194629
0.0224691
0.0158483
0.0111835
0.00775217
0.005263
0.00371531
0.00299946
0.0028153
0.00252688
0.00146196
0.00362688
0.00535489
0.00740712
0.00952283
0.0123332
0.0152053
0.0181068
0.021383
0.0227457
0.0280202
0.00511323
0.00700115
0.00891214
0.0109995
0.0139662
0.0168801
0.0199158
0.0232469
0.0248372
0.0292613
0.00646312
0.00836289
0.0103369
0.0126874
0.0159378
0.0190341
0.0223148
0.0256594
0.027784
0.0299579
0.00758016
0.00938786
0.0114622
0.0141312
0.0176585
0.0210063
0.0245536
0.0280272
0.0305476
0.0314498
0.00852709
0.0103165
0.0125158
0.0154554
0.0192035
0.0227799
0.0265579
0.030198
0.0329989
0.0337751
0.00932207
0.0112386
0.013651
0.0168494
0.0207946
0.0245648
0.0285331
0.0323132
0.0353408
0.0365293
0.00995795
0.0121325
0.0148655
0.0183582
0.0225267
0.0264958
0.0306489
0.0345514
0.0377694
0.0394059
0.0104376
0.0129806
0.01612
0.0199457
0.024384
0.0285863
0.0329523
0.0369957
0.040379
0.0423122
0.010773
0.0137915
0.0174029
0.0215801
0.0263324
0.0308009
0.0354185
0.0396418
0.0431858
0.0452846
0.0109779
0.0145805
0.018723
0.0232508
0.0283601
0.0331086
0.0380138
0.0424514
0.0461721
0.0483827
0.0110656
0.0153566
0.020089
0.0249515
0.0304725
0.0354955
0.0407252
0.0453976
0.0493228
0.0516434
0.0110446
0.0161149
0.0214941
0.0266699
0.0326646
0.0379586
0.0435495
0.048467
0.0526284
0.0550736
0.0109147
0.0168359
0.0229024
0.0284053
0.0349059
0.0405157
0.0464832
0.0516806
0.056095
0.0586735
0.0106616
0.017489
0.024265
0.0301674
0.0371485
0.0431708
0.0495251
0.055042
0.059721
0.0624375
0.010248
0.018039
0.0255329
0.0319657
0.0394096
0.0459055
0.0526597
0.0585447
0.0635147
0.0663762
0.0096204
0.018457
0.0267296
0.0337244
0.0416541
0.0486523
0.0558456
0.0621488
0.0674575
0.0704857
0.00876094
0.0187713
0.0278278
0.0354011
0.0438695
0.0514098
0.0591032
0.0658814
0.0715707
0.0747903
0.00759277
0.0189052
0.0287324
0.0369233
0.0459611
0.0540858
0.0623323
0.0696573
0.0758079
0.0792752
0.00619325
0.0189759
0.0295113
0.0383813
0.0480009
0.0567649
0.0656125
0.073547
0.080209
0.0839845
0.0039995
0.0183682
0.0297139
0.0393041
0.0495068
0.058969
0.0685002
0.0772195
0.0846139
0.0888719
0.00338753
0.0196556
0.0321142
0.0433764
0.054756
0.0658032
0.0768447
0.0872717
0.0961407
0.101466
0.0134362
0.0293165
0.0419126
0.054631
0.0679466
0.0814124
0.0951511
0.108371
0.119727
0.126379
0.0258434
0.0419171
0.0548981
0.0691163
0.0844131
0.100836
0.117694
0.134156
0.148382
0.156853
0.038786
0.0551277
0.0692057
0.0854531
0.103477
0.123625
0.144239
0.164602
0.182188
0.192546
0.0513061
0.0682762
0.0841027
0.102944
0.124733
0.149474
0.174784
0.199734
0.221044
0.233789
0.0637307
0.0817752
0.100055
0.122194
0.148578
0.178706
0.209606
0.239758
0.265083
0.279704
0.076356
0.0958624
0.117195
0.143348
0.174853
0.210831
0.247758
0.283423
0.312615
0.32998
0.090152
0.110864
0.13553
0.166244
0.20306
0.24485
0.287929
0.329503
0.36217
0.378666
0.101733
0.123708
0.151398
0.18595
0.227099
0.273563
0.322002
0.369264
0.405154
0.424254
0.109949
0.13295
0.162833
0.200082
0.244128
0.293792
0.346852
0.400633
0.441739
0.446856
-0.0024477
0.00705345
0.0173372
0.0290577
0.0404226
0.0525427
0.0645753
0.079056
0.0908223
0.0994561
-0.00406936
0.00595344
0.0158795
0.0272182
0.0382284
0.0502081
0.0621187
0.0766378
0.088211
0.0966809
-0.00457491
0.00615416
0.0162844
0.0276767
0.0387221
0.0507857
0.0628488
0.0772697
0.0880751
0.0960023
-0.00471395
0.00609867
0.0162876
0.0278744
0.0391515
0.0514823
0.0638804
0.078197
0.0883833
0.0957239
-0.00442998
0.00607634
0.0161368
0.0278011
0.0392466
0.0518196
0.0645022
0.0786984
0.0884698
0.0952948
-0.00364671
0.00648395
0.0164709
0.0281536
0.0396865
0.0524165
0.0652234
0.0792139
0.0885869
0.0949128
-0.00235767
0.00741563
0.0175175
0.029259
0.0409189
0.0537953
0.0666379
0.0803276
0.0892103
0.0949835
-0.000545689
0.00890858
0.019269
0.0311179
0.0430021
0.0560695
0.0689522
0.0822924
0.0906039
0.0957607
0.00181428
0.0110144
0.0217033
0.0336695
0.0458451
0.0591291
0.0720647
0.0850441
0.0927473
0.0972585
0.0047277
0.013754
0.0248049
0.0368714
0.0493545
0.0628358
0.0757856
0.0883967
0.0954722
0.0993387
0.00816903
0.0170816
0.0285246
0.0406653
0.0534415
0.0670757
0.0799519
0.0921842
0.0986113
0.101837
0.0120682
0.0208617
0.0327464
0.0449315
0.0579877
0.0717316
0.0844339
0.0962893
0.102053
0.104634
0.0162555
0.024922
0.0372842
0.0495085
0.062854
0.0766616
0.0891289
0.100621
0.105719
0.107682
0.0205246
0.0291215
0.0419587
0.0542518
0.0678956
0.0817329
0.0939501
0.105081
0.109533
0.110966
0.024683
0.0333426
0.0466122
0.0590399
0.072977
0.0868308
0.0988226
0.109568
0.113437
0.114463
0.0285516
0.037462
0.0510905
0.0637473
0.0779609
0.0918397
0.103653
0.113973
0.117405
0.11807
0.0319899
0.0413784
0.0552776
0.0682776
0.0827492
0.0966783
0.10837
0.118228
0.121449
0.121716
0.0348194
0.0449387
0.059021
0.0724717
0.0871972
0.101219
0.112862
0.122204
0.125499
0.125351
0.0370916
0.048185
0.0623752
0.0763547
0.0913263
0.105469
0.117128
0.12606
0.129402
0.128978
0.0382286
0.0505122
0.0647868
0.0793303
0.0946215
0.108996
0.120816
0.129585
0.132935
0.132581
0.0434598
0.0583021
0.0725777
0.0880445
0.103576
0.118114
0.130066
0.138412
0.141579
0.141313
0.0601585
0.0747225
0.088769
0.104251
0.119026
0.132779
0.143881
0.151393
0.154332
0.154278
0.0744639
0.0891556
0.103442
0.118651
0.132563
0.145541
0.155787
0.162844
0.165998
0.16646
0.085603
0.100268
0.114883
0.129723
0.143274
0.155902
0.165924
0.173396
0.177722
0.17949
0.0939166
0.108616
0.123338
0.137857
0.151541
0.164246
0.174881
0.183921
0.190812
0.195418
0.100347
0.114958
0.129688
0.144088
0.158184
0.171438
0.183678
0.195978
0.208151
0.219066
0.104462
0.119365
0.13411
0.148544
0.163256
0.177713
0.192737
0.210567
0.232071
0.255743
0.108267
0.123323
0.138312
0.153367
0.168975
0.185478
0.204969
0.232231
0.270595
0.318613
0.109006
0.124008
0.139041
0.154501
0.171421
0.191381
0.218751
0.260883
0.326203
0.416378
0.111484
0.127512
0.144225
0.162282
0.18345
0.210693
0.249974
0.311825
0.412515
0.556444
0.0365388
0.0512465
0.0648912
0.0759656
0.0842858
0.0914621
0.0951256
0.099104
0.0994308
0.10164
0.0363329
0.0502982
0.0630917
0.0735198
0.0813876
0.0883606
0.0916426
0.0954859
0.0955297
0.0979008
0.0377709
0.0516077
0.0633264
0.0726837
0.0797031
0.0858825
0.088623
0.0920776
0.0917803
0.0944052
0.0375753
0.051308
0.062429
0.0711509
0.0776367
0.0831772
0.0855349
0.0886384
0.0880608
0.0906821
0.0364781
0.0497261
0.0604228
0.0687624
0.0750132
0.0801342
0.0822761
0.0851136
0.0843294
0.0867647
0.0352006
0.0478471
0.0580929
0.0661396
0.0721525
0.076928
0.078953
0.0815429
0.0806137
0.0828336
0.0337987
0.0459538
0.0557887
0.0635003
0.0692326
0.0736566
0.0756573
0.0779667
0.0769619
0.0790139
0.0321391
0.0439285
0.0534572
0.0608662
0.066303
0.070393
0.0723451
0.0743969
0.0734129
0.0753327
0.0301911
0.0417005
0.0510215
0.0581804
0.0633651
0.0671748
0.0690149
0.0708255
0.0699929
0.0717561
0.0279862
0.0393005
0.0484854
0.0554295
0.060415
0.0640077
0.065703
0.0672973
0.0666854
0.0682429
-0.00407176
-0.0035637
-0.00279168
-0.00194758
-0.00114996
-0.000466483
6.80586e-05
0.000503554
0.000998092
0.00114774
-0.00395682
-0.00346069
-0.00274095
-0.00195992
-0.00123857
-0.000638601
-0.000189542
0.000122215
0.000311715
0.000233162
-0.00403377
-0.00345112
-0.00275665
-0.00202475
-0.0013741
-0.000862854
-0.00051902
-0.000351746
-0.000432334
-0.000816465
-0.00427791
-0.00351069
-0.00281739
-0.00211853
-0.00152939
-0.00110165
-0.000857116
-0.000805536
-0.00103123
-0.00157888
-0.00463171
-0.00362154
-0.00289714
-0.00221524
-0.00168029
-0.0013341
-0.00118801
-0.00124133
-0.00154136
-0.00211982
-0.00505757
-0.0037493
-0.00297399
-0.00229947
-0.00181984
-0.00156585
-0.00153359
-0.00170542
-0.00207628
-0.00264146
-0.00550461
-0.00387297
-0.00303784
-0.00237192
-0.00196178
-0.00182658
-0.00194303
-0.00227319
-0.00277211
-0.00337792
-0.00592253
-0.00397811
-0.0030872
-0.00244321
-0.00212778
-0.00214769
-0.00245721
-0.00299612
-0.00369321
-0.00443975
-0.00626461
-0.00405118
-0.00312039
-0.00251883
-0.00232467
-0.00253028
-0.00306491
-0.0038448
-0.00477619
-0.00573892
-0.0064945
-0.00408004
-0.00312916
-0.00258672
-0.00252733
-0.00292603
-0.00368488
-0.00469631
-0.00584782
-0.00703685
-0.00659348
-0.0040557
-0.00309481
-0.00261151
-0.00267575
-0.00324242
-0.00418567
-0.00537632
-0.00669354
-0.00805439
-0.00646674
-0.00391106
-0.00295125
-0.00251789
-0.00267782
-0.00336567
-0.00442976
-0.00572573
-0.00713613
-0.00858153
-0.00608162
-0.00361232
-0.00265072
-0.00224207
-0.00245496
-0.00320642
-0.00432225
-0.00565116
-0.00708453
-0.00852978
-0.00540995
-0.00311958
-0.00214268
-0.00172743
-0.00195052
-0.00271608
-0.00382852
-0.0051367
-0.0065389
-0.0079266
-0.00443352
-0.00239789
-0.00139057
-0.000942455
-0.00114236
-0.00189793
-0.00297291
-0.00423042
-0.00556683
-0.00686406
-0.00315467
-0.00142996
-0.000383466
0.000111415
-3.93187e-05
-0.000804367
-0.00182074
-0.00301857
-0.00427541
-0.00547219
-0.00159984
-0.000223587
0.000862765
0.0013957
0.00125533
0.000554504
-0.000446097
-0.00160107
-0.00278589
-0.00388987
0.000181173
0.00118698
0.00231013
0.00286255
0.00273003
0.00204815
0.00105519
-8.02162e-05
-0.00122293
-0.00225589
0.00211873
0.0027615
0.00388204
0.00444596
0.00431049
0.00362026
0.00260962
0.00144727
0.000272813
-0.000726002
0.0041219
0.00441661
0.00551531
0.0060775
0.00593953
0.00524237
0.00420721
0.00297069
0.00164974
0.000607201
0.00610007
0.00606999
0.00712707
0.00768061
0.00755819
0.00690003
0.00592563
0.00477262
0.00360054
0.00301744
0.00798303
0.00764288
0.0086318
0.00916678
0.00906763
0.00846675
0.00757458
0.00653157
0.00550332
0.00499081
0.00966002
0.00904796
0.00995016
0.0104548
0.0103732
0.0098242
0.00900487
0.00805035
0.00711005
0.0065748
0.0110512
0.0102186
0.0110216
0.0114843
0.0114095
0.0109007
0.0101428
0.00926986
0.00840986
0.00786522
0.0121042
0.011109
0.0118066
0.0122188
0.0121415
0.0116643
0.0109633
0.010174
0.00940756
0.00889167
0.0127906
0.0116937
0.0122864
0.0126438
0.0125582
0.0121087
0.0114656
0.0107662
0.010109
0.00965881
0.0131052
0.0119673
0.0124605
0.0127619
0.0126653
0.0122429
0.0116611
0.011059
0.0105253
0.0101723
0.0130641
0.0119413
0.0123426
0.0125881
0.0124786
0.0120833
0.0115665
0.0110679
0.0106692
0.0104418
0.0127002
0.0116409
0.0119573
0.0121453
0.0120195
0.01165
0.0111999
0.0108089
0.0105539
0.010478
0.0120557
0.0110999
0.0113376
0.0114638
0.0113148
0.0109657
0.0105807
0.0102979
0.0101917
0.0102902
0.0111783
0.0103577
0.0105245
0.0105834
0.0104002
0.0100616
0.00973459
0.00955574
0.00959738
0.00988698
0.0101447
0.00946218
0.00954681
0.0095217
0.00928888
0.00894906
0.00867296
0.00859378
0.00877911
0.00927012
0.00900576
0.00845461
0.00844448
0.00831598
0.00801437
0.0076576
0.00742084
0.00743329
0.00775161
0.00843745
0.00781588
0.00737646
0.00725523
0.00700091
0.00660889
0.00621678
0.00600435
0.00609755
0.00653579
0.00738232
0.00662964
0.00626845
0.00601537
0.0056101
0.00510449
0.00465727
0.0044517
0.00461131
0.00515938
0.00612505
0.00549389
0.00517368
0.00476163
0.00417912
0.00353668
0.00301324
0.00279797
0.0030024
0.00362629
0.00472513
0.00446308
0.00412492
0.00353026
0.00274505
0.00194319
0.00132695
0.00108194
0.00131172
0.00198266
0.00314154
0.00357952
0.00315905
0.00236074
0.00135045
0.000370198
-0.000359555
-0.000655064
-0.0004174
0.000279954
0.00142082
0.00288016
0.00231208
0.00129575
4.14083e-05
-0.00113116
-0.00199284
-0.00236053
-0.00213207
-0.00140261
-0.000299233
0.00239598
0.00161603
0.000382122
-0.00113417
-0.00250057
-0.00350945
-0.00397566
-0.00379737
-0.00302866
-0.00180337
0.0021506
0.00109379
-0.000369726
-0.00209564
-0.00366313
-0.00482094
-0.00539413
-0.00526145
-0.00431282
-0.00211204
0.00215701
0.000765313
-0.000897832
-0.00281556
-0.00455404
-0.00585555
-0.00656876
-0.00660047
-0.00582233
-0.00416322
0.00238347
0.000661343
-0.00117766
-0.00324774
-0.00511377
-0.00652926
-0.00736536
-0.00754696
-0.00697759
-0.0057886
0.00282089
0.000761106
-0.00120357
-0.00336866
-0.00530436
-0.00678027
-0.00768322
-0.00794838
-0.00751115
-0.00653745
0.00342382
0.00104198
-0.000987873
-0.00318128
-0.00512015
-0.00659307
-0.00750154
-0.00779516
-0.00744245
-0.00658607
0.00413163
0.00146475
-0.000562872
-0.00271313
-0.00458645
-0.00599318
-0.00685176
-0.00713338
-0.00683734
-0.006051
0.00486054
0.00197382
2.24236e-05
-0.00201073
-0.00375021
-0.00502988
-0.00578646
-0.00601508
-0.00574038
-0.00498612
0.00552831
0.00250293
0.00070737
-0.00113283
-0.00267077
-0.00376365
-0.00436548
-0.00449252
-0.00418761
-0.00341787
0.00604779
0.00298012
0.0014249
-0.000144765
-0.00141346
-0.00225952
-0.00265058
-0.00261758
-0.00221409
-0.0013652
0.00634766
0.00333822
0.00210852
0.000886752
-4.56673e-05
-0.000584507
-0.000705332
-0.000445132
0.000138699
0.00114345
0.00639056
0.00352901
0.00270188
0.00190081
0.00136839
0.00119533
0.0014046
0.00196234
0.00281274
0.00405521
0.006061
0.00346803
0.0031302
0.00282454
0.00275451
0.00300382
0.0036011
0.00452372
0.00572041
0.00727769
0.00533597
0.00312235
0.00334896
0.00360407
0.00405036
0.00477014
0.00580386
0.00714586
0.00874983
0.0106788
0.00421511
0.00247731
0.00332666
0.00419441
0.00519895
0.00642514
0.00792961
0.00972702
0.0117753
0.0141088
0.00271665
0.00153399
0.0030446
0.00456068
0.00615123
0.00790555
0.00989898
0.0121676
0.0146731
0.0174208
0.00088405
0.000314431
0.00250101
0.00468194
0.0068701
0.00915848
0.0116413
0.0143746
0.017323
0.0204723
-0.00121451
-0.00113759
0.00171244
0.00455315
0.007333
0.0101451
0.0131012
0.0162735
0.0196288
0.0231474
-0.00349079
-0.00275916
0.000712714
0.00418543
0.00753316
0.0108426
0.0142402
0.0178061
0.0214991
0.0253202
-0.00584247
-0.00447236
-0.000449575
0.00360462
0.00747848
0.0112429
0.0150366
0.0189444
0.0228982
0.0269417
-0.00815968
-0.00618931
-0.00171515
0.00285041
0.00719236
0.0113573
0.0154909
0.0196914
0.0238277
0.0278597
-0.0103419
-0.00781885
-0.00302441
0.0019726
0.00670655
0.0112071
0.0156065
0.0200309
0.0243639
0.0282624
-0.0123296
-0.00927661
-0.00432837
0.00103448
0.00606021
0.0108298
0.015429
0.019995
0.0245186
0.0286626
-0.0140024
-0.0104819
-0.00546027
1.75754e-05
0.00528977
0.0102685
0.0150248
0.0196881
0.0243217
0.0287598
-0.0152847
-0.0113823
-0.00643683
-0.000939835
0.00445204
0.00956152
0.014427
0.0191508
0.0238151
0.0283129
-0.0161405
-0.0119414
-0.00720195
-0.00180737
0.00358718
0.00873957
0.013648
0.0183834
0.023014
0.0274569
-0.0165621
-0.0121531
-0.00771946
-0.00255239
0.0027296
0.00783299
0.0127127
0.0174068
0.0219689
0.026323
-0.0165665
-0.012042
-0.00797626
-0.00314479
0.00191157
0.00687356
0.0116559
0.0162638
0.0207414
0.0250322
-0.0161941
-0.0116564
-0.00798161
-0.00356663
0.00116057
0.00588937
0.0105052
0.014978
0.0193333
0.0235347
-0.0155033
-0.0110594
-0.00776731
-0.00381506
0.000498179
0.00490527
0.00928034
0.0135614
0.017746
0.0218135
-0.0145533
-0.0103119
-0.0073793
-0.00390306
-6.30381e-05
0.00394332
0.00800118
0.0120296
0.015997
0.0198913
)
;

boundaryField
{
    inlet
    {
        type            zeroGradient;
    }
    outlet
    {
        type            fixedValue;
        value           uniform 0;
    }
    cylinder
    {
        type            zeroGradient;
    }
    top
    {
        type            symmetryPlane;
    }
    bottom
    {
        type            symmetryPlane;
    }
    defaultFaces
    {
        type            empty;
    }
}


// ************************************************************************* //
