/*--------------------------------*- C++ -*----------------------------------*\
  =========                 |
  \\      /  F ield         | OpenFOAM: The Open Source CFD Toolbox
   \\    /   O peration     | Website:  https://openfoam.org
    \\  /    A nd           | Version:  7
     \\/     M anipulation  |
\*---------------------------------------------------------------------------*/
FoamFile
{
    version     2.0;
    format      ascii;
    class       volVectorField;
    location    "1";
    object      U;
}
// * * * * * * * * * * * * * * * * * * * * * * * * * * * * * * * * * * * * * //

dimensions      [0 1 -1 0 0 0 0];

internalField   nonuniform List<vector> 
8000
(
(-7.23411e-05 0.0125151 7.56032e-22)
(0.00337564 0.0315676 1.27893e-24)
(0.0106893 0.0467138 5.98898e-24)
(0.0198737 0.0589556 9.38214e-22)
(0.0304867 0.0690246 5.75514e-21)
(0.0419823 0.0774102 0)
(0.0538652 0.084469 2.0255e-21)
(0.06574 0.0904633 -2.04923e-21)
(0.0773127 0.0956041 2.0889e-21)
(0.0883807 0.100065 -2.09876e-21)
(0.0988056 0.103994 8.46599e-21)
(0.108494 0.107517 0)
(0.117391 0.110744 0)
(0.125474 0.11377 0)
(0.132745 0.116677 0)
(0.139223 0.119537 0)
(0.144943 0.122409 0)
(0.149948 0.125344 -4.17555e-21)
(0.154288 0.128385 4.13264e-21)
(0.157995 0.131559 0)
(-0.000487874 0.0115756 0)
(0.00244162 0.0288493 0)
(0.00948575 0.0424715 1.40863e-20)
(0.0185728 0.0534125 0)
(0.0292242 0.0624356 7.62823e-21)
(0.0408632 0.07002 0)
(0.0529627 0.0765086 1.61078e-20)
(0.0651032 0.0821439 -1.63963e-20)
(0.0769818 0.0871198 1.66215e-20)
(0.0883851 0.0915818 -1.6788e-20)
(0.0991556 0.0956544 1.69107e-20)
(0.10919 0.0994396 -8.47169e-21)
(0.118435 0.103022 -8.46941e-21)
(0.126859 0.106475 -8.52125e-21)
(0.134456 0.109862 1.69524e-20)
(0.141242 0.113238 -1.68782e-20)
(0.14725 0.116647 5.02687e-20)
(0.152521 0.120132 -3.32488e-20)
(0.157103 0.123728 -1.64892e-20)
(0.161022 0.127461 -3.69634e-20)
(-0.000829193 0.0106042 0)
(0.00173449 0.0260375 0)
(0.00865474 0.0380744 -4.92507e-20)
(0.0177849 0.0476747 3.66911e-20)
(0.0285978 0.0556118 -1.52892e-20)
(0.0404694 0.0623647 -3.14237e-20)
(0.0528558 0.0682602 -1.61075e-20)
(0.0653243 0.0735221 1.6396e-20)
(0.0775486 0.0783207 -1.66211e-20)
(0.0893005 0.0827757 -1.67244e-20)
(0.100425 0.0869864 -1.69e-20)
(0.110811 0.0910318 0)
(0.120391 0.0949719 -1.69177e-20)
(0.129135 0.0988573 -1.6968e-20)
(0.137037 0.102731 1.69202e-20)
(0.144108 0.106632 -1.68442e-20)
(0.150378 0.110591 -1.67439e-20)
(0.155886 0.114639 1.66239e-20)
(0.160683 0.118808 -1.6405e-20)
(0.164784 0.123121 -1.84292e-20)
(-0.00109042 0.00959281 2.99329e-21)
(0.00127356 0.0231255 6.71286e-21)
(0.00823714 0.0335356 2.10943e-20)
(0.017546 0.0417647 -2.93769e-20)
(0.0286325 0.0485874 0)
(0.0408411 0.054488 1.56747e-20)
(0.0535951 0.0597759 3.21098e-20)
(0.066441 0.0646533 -1.62966e-20)
(0.0790466 0.069262 0)
(0.0911752 0.0737051 6.6956e-20)
(0.102661 0.0780536 0)
(0.113388 0.0823573 0)
(0.123292 0.086655 6.7733e-20)
(0.132339 0.0909759 -3.38822e-20)
(0.140521 0.0953422 6.74577e-20)
(0.147848 0.0997743 -3.35308e-20)
(0.15435 0.104292 6.6732e-20)
(0.160064 0.108915 -3.30897e-20)
(0.165046 0.11367 6.57733e-20)
(0.169295 0.118579 -3.67045e-20)
(-0.00126427 0.00853858 1.18799e-20)
(0.00107072 0.0201297 2.66433e-20)
(0.00823766 0.0288802 -1.39138e-20)
(0.0178765 0.0357064 -7.27228e-21)
(0.0293657 0.0414025 0)
(0.0420085 0.0464399 -3.12762e-20)
(0.0552069 0.0511088 0)
(0.068492 0.055594 -1.63595e-20)
(0.0815176 0.0600132 1.649e-20)
(0.0940399 0.0644401 -3.3444e-20)
(0.105892 0.0689216 0)
(0.116957 0.073484 0)
(0.127169 0.0781405 -3.38313e-20)
(0.136495 0.0828967 -3.38067e-20)
(0.144928 0.0877562 -8.55604e-24)
(0.152482 0.0927235 0)
(0.159183 0.097805 -3.33273e-20)
(0.165069 0.10301 6.61397e-20)
(0.1702 0.108362 -6.54603e-20)
(0.174563 0.113879 -3.65618e-20)
(-0.00134776 0.00745663 -1.78709e-20)
(0.00114062 0.0170571 1.98025e-20)
(0.00868377 0.024125 -2.07849e-20)
(0.0188012 0.0295386 0)
(0.0308194 0.0340977 -1.52247e-20)
(0.044003 0.0382672 4.68237e-20)
(0.0577271 0.0423193 0)
(0.0715066 0.0464127 -9.76668e-20)
(0.084988 0.0506396 6.59956e-20)
(0.0979239 0.0550509 -3.32466e-20)
(0.110146 0.0596671 0)
(0.121539 0.0644868 6.72894e-20)
(0.13204 0.0694991 0)
(0.141619 0.0746889 0)
(0.150274 0.0800406 1.00843e-19)
(0.158019 0.0855426 -1.33631e-19)
(0.164883 0.0911882 6.6327e-20)
(0.170904 0.0969779 0)
(0.176149 0.102932 0)
(0.180587 0.109066 1.09542e-19)
(-0.0013341 0.00634513 -5.92269e-21)
(0.00149497 0.0139227 -8.61526e-20)
(0.00958903 0.0192925 2.78269e-20)
(0.0203418 0.0232879 -4.36182e-20)
(0.0330203 0.0267167 1.51824e-20)
(0.0468488 0.0300267 -7.77213e-20)
(0.0611779 0.0334671 0)
(0.0755083 0.0371745 3.24547e-20)
(0.0894807 0.0412161 -3.29384e-20)
(0.102847 0.0456161 -6.6432e-20)
(0.11544 0.0503675 -3.35506e-20)
(0.127148 0.055443 -3.37541e-20)
(0.137915 0.0608085 6.71964e-20)
(0.147718 0.0664276 0)
(0.15656 0.0722663 -6.70541e-20)
(0.16446 0.0782975 1.33119e-19)
(0.171448 0.0845024 0)
(0.177566 0.0908738 -6.56103e-20)
(0.182886 0.097431 6.50466e-20)
(0.187358 0.104184 7.2723e-20)
(-0.00121826 0.0052061 5.89076e-21)
(0.00214735 0.0107337 5.2934e-20)
(0.0109711 0.0144055 1.39269e-20)
(0.0225169 0.016993 4.3667e-20)
(0.035988 0.0193052 0)
(0.0505659 0.0217714 3.10372e-20)
(0.0655781 0.0246167 3.16815e-20)
(0.0805138 0.0279526 0)
(0.0950095 0.0318201 6.57638e-20)
(0.108818 0.0362155 6.64314e-20)
(0.121778 0.0411048 0)
(0.133786 0.0464354 2.06971e-22)
(0.144793 0.0521497 -1.34377e-19)
(0.154787 0.0581908 1.33849e-19)
(0.163779 0.0645068 6.68707e-20)
(0.171794 0.0710562 -1.99457e-19)
(0.178866 0.0778097 1.97963e-19)
(0.185038 0.0847537 1.53384e-22)
(0.190394 0.0919085 -1.94865e-19)
(0.194859 0.0992771 -1.11504e-23)
(-0.000995236 0.00404279 -4.67927e-20)
(0.00310967 0.00750391 5.25147e-20)
(0.0128464 0.00948809 0)
(0.0253437 0.0106894 5.76722e-20)
(0.0397386 0.011911 0)
(0.055169 0.0135603 -3.10864e-20)
(0.0709403 0.0158356 6.34018e-20)
(0.0865322 0.0188216 -6.45811e-20)
(0.10158 0.022531 6.54921e-20)
(0.11584 0.0269323 3.30855e-20)
(0.129159 0.0319646 6.67597e-20)
(0.141446 0.0375497 -6.67568e-20)
(0.152663 0.043607 6.66286e-20)
(0.162811 0.0500592 -6.69291e-20)
(0.171911 0.0568377 0)
(0.179998 0.0638884 0)
(0.187111 0.0711727 -2.03319e-22)
(0.193296 0.078673 0)
(0.198646 0.086413 6.48396e-20)
(0.203063 0.0943872 -7.22374e-20)
(-0.000659462 0.00285797 4.67927e-20)
(0.00439351 0.00424768 -1.04807e-19)
(0.0152293 0.00456617 -6.86708e-20)
(0.0288365 0.00441513 -1.29795e-19)
(0.0442845 0.00458418 -3.00157e-20)
(0.0606677 0.00545397 0)
(0.0772703 0.00719358 -6.31226e-20)
(0.093565 0.00985788 3.22997e-20)
(0.109188 0.0134307 -9.77762e-20)
(0.123904 0.0178524 -1.98121e-19)
(0.13757 0.0230346 6.62756e-20)
(0.15011 0.0288738 -6.67966e-20)
(0.161502 0.0352664 -1.33693e-19)
(0.171763 0.0421154 3.22709e-24)
(0.180927 0.0493365 6.64781e-20)
(0.18904 0.0568646 -6.59951e-20)
(0.196148 0.0646543 -6.57193e-20)
(0.202303 0.0726861 -6.49791e-20)
(0.207605 0.0809903 0)
(0.211932 0.0895522 -7.20537e-20)
(-0.00020509 0.00165493 -3.46769e-20)
(0.00601018 0.000980055 -1.27824e-20)
(0.0181327 -0.000332439 4.10723e-20)
(0.0330072 -0.00178969 7.17054e-20)
(0.049634 -0.00262316 2.97894e-20)
(0.0670657 -0.00248494 3.06123e-20)
(0.0845666 -0.00123851 6.31226e-20)
(0.101605 0.00113944 0)
(0.117822 0.00460271 -8.26306e-23)
(0.132991 0.00906276 1.31502e-19)
(0.146987 0.0144039 0)
(0.15975 0.0204969 -6.65989e-20)
(0.171278 0.0272155 6.66309e-20)
(0.181605 0.0344434 6.6543e-20)
(0.190784 0.0420817 0)
(0.198875 0.0500563 -6.5742e-20)
(0.205931 0.058317 -1.30881e-19)
(0.212012 0.0668456 6.31249e-23)
(0.217225 0.0756833 -9.79475e-23)
(0.221419 0.0848061 1.64658e-22)
(0.000373823 0.000437795 -4.58061e-20)
(0.00797049 -0.00228276 5.20628e-20)
(0.0215673 -0.00517818 0)
(0.0378638 -0.00788282 0)
(0.0557906 -0.00965728 2.98672e-20)
(0.0743603 -0.0101927 2.78458e-22)
(0.09282 -0.0093887 -6.27899e-20)
(0.110637 -0.00725523 9.60808e-20)
(0.127458 -0.00386965 -6.47087e-20)
(0.143074 0.000650261 0)
(0.157376 0.00616115 1.31862e-19)
(0.170326 0.0125082 1.32343e-19)
(0.181946 0.0195422 1.98893e-19)
(0.19229 0.0271281 0)
(0.201431 0.0351535 0)
(0.209447 0.0435362 6.57417e-20)
(0.216404 0.0522237 0)
(0.222366 0.0612031 6.47494e-20)
(0.227448 0.0705318 -1.27827e-19)
(0.231471 0.0801783 1.42454e-19)
(0.00108317 -0.000788444 8.06014e-20)
(0.0102846 -0.00552311 1.28822e-20)
(0.0255422 -0.00993972 0)
(0.0434107 -0.0138203 0)
(0.0627521 -0.0164631 1.47932e-19)
(0.0825417 -0.017605 9.15511e-20)
(0.102013 -0.0171849 0)
(0.120634 -0.0152482 0)
(0.138066 -0.0119039 6.48833e-20)
(0.154114 -0.0072996 1.30874e-19)
(0.168693 -0.00160636 -3.94907e-19)
(0.18179 0.00499536 -6.64162e-20)
(0.193452 0.0123335 -1.32454e-19)
(0.203758 0.0202544 -1.31798e-19)
(0.212807 0.0286325 1.31307e-19)
(0.220694 0.0373783 3.18882e-22)
(0.227499 0.0464388 -2.59428e-19)
(0.233299 0.0558104 0)
(0.238211 0.0655736 2.55147e-19)
(0.242026 0.0756938 -1.41782e-19)
(0.00192869 -0.00201788 0)
(0.0129615 -0.00872168 1.29104e-20)
(0.0300633 -0.014584 -1.34595e-20)
(0.0496478 -0.0195566 0)
(0.0705103 -0.0229848 -1.1818e-19)
(0.0915928 -0.0246572 -1.52492e-19)
(0.112119 -0.024556 3.10457e-20)
(0.131563 -0.0227631 0)
(0.149601 -0.0194203 -1.28717e-19)
(0.16606 -0.0147047 -1.30529e-19)
(0.180882 -0.0088152 1.31424e-19)
(0.194081 -0.00195753 -6.59501e-20)
(0.205732 0.00567375 6.57805e-20)
(0.215945 0.0139062 1.31798e-19)
(0.224841 0.0226004 -1.31307e-19)
(0.232542 0.0316592 1.30575e-19)
(0.239145 0.0410297 4.83888e-22)
(0.244739 0.0507219 -2.56373e-19)
(0.249444 0.0608468 -3.03867e-22)
(0.253023 0.071375 2.82969e-19)
(0.00291593 -0.0032437 1.13959e-20)
(0.0160088 -0.0118574 -1.27426e-20)
(0.0351339 -0.0190763 1.07332e-19)
(0.0565701 -0.0250451 0)
(0.0790503 -0.029166 1.17201e-19)
(0.101488 -0.0312856 1.20969e-19)
(0.123102 -0.0314325 -6.23466e-20)
(0.143377 -0.0297268 6.30782e-20)
(0.16201 -0.0263432 1.28718e-19)
(0.178853 -0.0214883 6.5078e-20)
(0.193878 -0.0153878 -6.52035e-20)
(0.20713 -0.00827218 6.57157e-20)
(0.218717 -0.000357876 2.00742e-22)
(0.228776 0.00816367 -1.96699e-19)
(0.237461 0.0171379 2.61167e-19)
(0.244918 0.0264578 -2.59373e-19)
(0.251266 0.0360697 4.89367e-22)
(0.256611 0.0459986 1.28038e-19)
(0.261079 0.0563945 1.85673e-22)
(0.264401 0.0672458 -1.40986e-19)
(0.00405015 -0.00445814 5.58756e-23)
(0.0194326 -0.0149073 -3.8242e-20)
(0.0407535 -0.0233803 -8.0675e-20)
(0.0641669 -0.0302384 -2.82716e-20)
(0.0883496 -0.0349505 2.85317e-20)
(0.112192 -0.0374279 -1.20971e-19)
(0.134916 -0.0377483 6.13849e-20)
(0.15602 -0.0360709 6.28314e-20)
(0.175228 -0.0326034 -6.41834e-20)
(0.192422 -0.027581 6.44866e-20)
(0.207605 -0.0212552 0)
(0.22086 -0.0138793 0)
(0.232327 -0.00569055 6.55039e-20)
(0.242176 0.00310069 -6.52174e-20)
(0.250591 0.0123228 0)
(0.257747 0.0218557 1.29617e-19)
(0.263788 0.0316401 2.02315e-22)
(0.268844 0.0417137 1.98123e-22)
(0.273051 0.0522709 2.52271e-19)
(0.27611 0.0633383 -5.0973e-22)
(0.00533621 -0.00565246 1.12024e-20)
(0.0232366 -0.0178467 -2.54446e-20)
(0.0469174 -0.0274583 5.33619e-20)
(0.0724215 -0.0350883 -2.77535e-20)
(0.0983781 -0.0402832 -1.16697e-19)
(0.123662 -0.0430243 -3.01853e-20)
(0.147504 -0.043441 -9.28184e-20)
(0.169425 -0.0417326 0)
(0.189178 -0.038139 -6.33038e-20)
(0.206682 -0.032923 -6.42354e-20)
(0.221978 -0.0263594 -1.94496e-19)
(0.235185 -0.0187219 -2.46174e-22)
(0.24648 -0.0102661 1.9556e-19)
(0.256066 -0.00122042 -1.29935e-19)
(0.264158 0.00822529 -1.2936e-19)
(0.27096 0.0179333 1.28946e-19)
(0.276647 0.0278305 -3.83517e-19)
(0.281377 0.0379552 1.2724e-19)
(0.28531 0.0485461 -1.2537e-19)
(0.288126 0.0596978 -1.39441e-19)
(0.00677826 -0.00681666 0)
(0.0274219 -0.020649 0)
(0.053616 -0.0312711 2.67093e-20)
(0.0813102 -0.0395468 8.34346e-20)
(0.109097 -0.0451102 0)
(0.135845 -0.048018 -1.1943e-19)
(0.1608 -0.0484536 1.22457e-19)
(0.183514 -0.0466564 1.24862e-19)
(0.203775 -0.0428978 1.90917e-19)
(0.221543 -0.0374658 1.28426e-19)
(0.236901 -0.030656 6.50374e-20)
(0.250012 -0.0227584 -1.94408e-19)
(0.261087 -0.0140437 3.24335e-19)
(0.270366 -0.0047553 -8.81924e-23)
(0.278092 0.00490017 1.29361e-19)
(0.2845 0.0147645 0)
(0.289791 0.0247385 4.90192e-22)
(0.294159 0.0348377 1.26305e-19)
(0.297821 0.0453338 2.50475e-19)
(0.300456 0.056426 0)
(0.00837968 -0.00793955 0)
(0.0319866 -0.0232853 1.00016e-19)
(0.0608346 -0.0347784 -2.65839e-20)
(0.0908024 -0.0435661 5.4872e-20)
(0.120459 -0.0493798 -1.14781e-19)
(0.148677 -0.0523565 8.98074e-20)
(0.174727 -0.052735 -1.2246e-19)
(0.198197 -0.0507949 -5.26307e-22)
(0.218919 -0.0468374 0)
(0.236901 -0.0411735 6.35387e-20)
(0.252271 -0.0341157 2.96603e-22)
(0.265237 -0.0259663 6.49909e-20)
(0.276053 -0.0170055 -5.37221e-22)
(0.284993 -0.00748593 -5.39103e-22)
(0.292331 0.00237507 1.28688e-19)
(0.298324 0.0124027 -1.28111e-19)
(0.303195 0.0224666 1.27033e-19)
(0.307159 0.0325391 -2.98618e-22)
(0.310519 0.0429173 0)
(0.313037 0.0538471 -5.34734e-22)
(0.0101451 -0.00901054 0)
(0.0369273 -0.025727 -1.00047e-19)
(0.0685536 -0.0379403 0)
(0.100861 -0.0471 -1.38344e-19)
(0.13241 -0.0530435 1.14802e-19)
(0.162087 -0.0559921 2.9498e-20)
(0.189198 -0.056241 -6.10827e-20)
(0.213376 -0.0541092 -6.25555e-20)
(0.234504 -0.0499262 0)
(0.252641 -0.044023 -6.37529e-20)
(0.26797 -0.0367253 -6.3928e-20)
(0.280747 -0.0283431 -6.44321e-20)
(0.291273 -0.0191604 -1.93673e-19)
(0.299861 -0.00943153 -4.46663e-22)
(0.306819 0.000626435 1.28139e-19)
(0.312432 0.0108365 -2.54795e-19)
(0.316943 0.0210569 1.26515e-19)
(0.320577 0.0312442 -1.25322e-19)
(0.323659 0.0416898 0)
(0.326116 0.0525258 5.60442e-22)
(0.164732 0.138925 -5.86698e-21)
(0.170197 0.149142 1.99645e-21)
(0.172582 0.159819 -2.02106e-21)
(0.171401 0.170318 2.03479e-21)
(0.167859 0.180626 0)
(0.162321 0.190624 0)
(0.15538 0.20024 -2.08357e-21)
(0.147337 0.209459 2.08204e-21)
(0.138448 0.21821 0)
(0.128885 0.226454 4.22213e-21)
(0.118728 0.234143 -2.11335e-21)
(0.108176 0.241224 1.0649e-21)
(0.0970817 0.247673 1.06509e-21)
(0.0859387 0.253436 -1.06456e-21)
(0.0740246 0.258529 -1.06901e-21)
(0.0625956 0.26306 0)
(0.049678 0.267393 -5.37051e-22)
(0.037673 0.272343 -1.60917e-21)
(0.0227367 0.278176 -2.14523e-21)
(0.00855972 0.283276 -2.16469e-21)
(0.168078 0.136084 1.75179e-20)
(0.173504 0.147574 -5.97863e-21)
(0.175988 0.159479 1.01232e-20)
(0.174782 0.170936 -1.97611e-21)
(0.171198 0.181993 -8.14944e-21)
(0.165576 0.192551 -8.25842e-21)
(0.15852 0.202585 1.65603e-20)
(0.150336 0.212122 -8.30161e-21)
(0.141283 0.221122 0)
(0.13154 0.229565 -6.30668e-21)
(0.121186 0.237418 0)
(0.110425 0.244629 8.47907e-21)
(0.0991084 0.251189 -6.37044e-21)
(0.0877289 0.257039 2.1334e-21)
(0.0755617 0.262214 0)
(0.0638552 0.266835 0)
(0.050643 0.271305 -4.27426e-21)
(0.0383206 0.276489 3.21577e-21)
(0.0230975 0.282676 -3.20432e-21)
(0.00866668 0.288052 2.16336e-21)
(0.172053 0.133046 3.10455e-20)
(0.177237 0.14583 -1.59257e-20)
(0.179715 0.158997 0)
(0.178398 0.171427 0)
(0.174718 0.18326 -2.44981e-20)
(0.168979 0.194397 8.1155e-21)
(0.161786 0.204872 8.22342e-21)
(0.153447 0.214744 0)
(0.144217 0.224011 8.36632e-21)
(0.134286 0.23267 -4.16179e-21)
(0.123724 0.240697 0)
(0.112747 0.248057 -1.26901e-20)
(0.101197 0.254733 4.21107e-21)
(0.0895728 0.260689 4.23822e-21)
(0.0771451 0.265954 -4.25928e-21)
(0.0651585 0.270678 4.25492e-21)
(0.051649 0.275294 4.26913e-21)
(0.0390149 0.280709 0)
(0.023493 0.287248 4.27282e-21)
(0.00879565 0.292894 0)
(0.176666 0.129843 7.71002e-21)
(0.181403 0.143927 -7.96466e-21)
(0.183767 0.158376 0)
(0.182255 0.171794 0)
(0.178427 0.184423 8.1335e-21)
(0.172535 0.196158 -8.15946e-21)
(0.165184 0.207095 0)
(0.156674 0.21732 8.32976e-21)
(0.147259 0.226871 8.39475e-21)
(0.137127 0.23576 -2.50161e-20)
(0.126351 0.243977 -8.4086e-21)
(0.115146 0.251499 1.67889e-20)
(0.103356 0.258304 0)
(0.0914793 0.26438 -2.28874e-23)
(0.0787826 0.269745 -9.78897e-25)
(0.0665157 0.274582 0)
(0.052704 0.279352 4.25072e-21)
(0.0397644 0.285 -2.11978e-21)
(0.0239309 0.291892 -2.12414e-21)
(0.00894809 0.297809 0)
(0.181918 0.126504 2.32366e-20)
(0.186006 0.141885 -5.55773e-20)
(0.188145 0.157624 3.18655e-20)
(0.186354 0.17204 0)
(0.182326 0.185476 0)
(0.176248 0.197829 1.62775e-20)
(0.168718 0.209246 -1.64271e-20)
(0.160023 0.219845 2.46503e-20)
(0.150411 0.229697 -8.28387e-21)
(0.140071 0.238833 -1.66596e-20)
(0.129071 0.247256 3.33215e-20)
(0.117631 0.254951 5.03318e-24)
(0.105589 0.261902 3.22294e-23)
(0.0934534 0.268106 -8.39791e-21)
(0.0804809 0.273585 8.4645e-21)
(0.0679317 0.278544 -8.43228e-21)
(0.0538156 0.283472 0)
(0.0405753 0.289363 -2.11629e-21)
(0.0244147 0.296604 2.11405e-21)
(0.00912669 0.302802 0)
(0.187807 0.123064 -3.06416e-20)
(0.191047 0.139721 1.58232e-20)
(0.192849 0.156748 -3.19642e-20)
(0.190693 0.172164 4.79092e-20)
(0.186413 0.186417 1.60861e-20)
(0.180117 0.199406 -8.11593e-21)
(0.172387 0.21132 1.62738e-20)
(0.163495 0.222312 0)
(0.153677 0.232481 1.64381e-20)
(0.143119 0.241882 1.65087e-20)
(0.131888 0.250526 -2.48797e-20)
(0.120203 0.258411 1.66835e-20)
(0.107902 0.26552 1.0223e-23)
(0.0954991 0.271865 0)
(0.0822439 0.277468 -2.51396e-20)
(0.0694112 0.28256 8.38591e-21)
(0.0549882 0.287649 1.67896e-20)
(0.0414523 0.29379 0)
(0.0249484 0.30139 -1.68108e-20)
(0.00933307 0.307882 0)
(0.194324 0.119552 -3.05368e-20)
(0.196521 0.137455 -1.58205e-20)
(0.197871 0.155757 0)
(0.195268 0.172166 -3.19033e-20)
(0.190685 0.187243 1.21379e-22)
(0.184139 0.200882 -6.45235e-20)
(0.176191 0.21331 -1.14996e-22)
(0.167089 0.224713 1.6276e-20)
(0.157056 0.235219 2.25699e-23)
(0.146273 0.244901 -1.64428e-20)
(0.134801 0.253783 4.80994e-23)
(0.122863 0.261872 -1.6586e-20)
(0.110295 0.269154 3.31431e-20)
(0.0976177 0.275653 -3.32184e-20)
(0.0840732 0.281389 4.42691e-23)
(0.0709555 0.286623 0)
(0.0562235 0.291878 -2.92351e-20)
(0.042398 0.298279 -4.17743e-21)
(0.0255346 0.306249 1.67509e-20)
(0.00956894 0.313056 0)
(0.201451 0.115997 -1.63908e-22)
(0.202421 0.135105 3.12637e-20)
(0.203201 0.154658 0)
(0.20007 0.172047 1.59077e-20)
(0.195133 0.187949 -1.60615e-20)
(0.188309 0.20225 3.19825e-20)
(0.180125 0.21521 1.61589e-20)
(0.170802 0.227042 -1.6235e-20)
(0.160546 0.237904 0)
(0.14953 0.247885 -1.63655e-20)
(0.137811 0.257022 3.28551e-20)
(0.125612 0.265332 -1.64066e-20)
(0.112768 0.272801 -1.65099e-20)
(0.099808 0.279465 1.65491e-20)
(0.0859675 0.285344 1.65748e-20)
(0.0725631 0.290729 0)
(0.0575209 0.296153 2.49269e-20)
(0.0434127 0.302824 -8.29935e-21)
(0.0261743 0.311181 0)
(0.00983566 0.318333 0)
(0.209164 0.112427 1.21556e-19)
(0.208737 0.132692 -7.7892e-20)
(0.208828 0.153458 0)
(0.205089 0.171809 1.57778e-20)
(0.199749 0.188532 -3.18958e-20)
(0.192618 0.203505 3.18126e-20)
(0.184182 0.217013 0)
(0.17463 0.229292 0)
(0.164143 0.240527 0)
(0.152888 0.250827 0)
(0.140913 0.260237 1.63238e-20)
(0.128445 0.268784 -1.62914e-20)
(0.115316 0.276454 0)
(0.102066 0.283298 0)
(0.0879226 0.289328 1.64093e-20)
(0.0742296 0.294872 -8.24002e-21)
(0.0588765 0.300467 8.22948e-21)
(0.0444941 0.307423 -2.06053e-20)
(0.0268668 0.316187 4.12336e-21)
(0.0101342 0.323719 0)
(0.217434 0.108863 6.06626e-20)
(0.215454 0.130234 -4.63196e-20)
(0.214739 0.152164 0)
(0.210317 0.171453 -1.57562e-20)
(0.204523 0.18899 0)
(0.197058 0.204642 0)
(0.188357 0.218711 0)
(0.178565 0.231456 -1.59865e-20)
(0.167842 0.243084 0)
(0.15634 0.25372 3.2323e-20)
(0.144103 0.263422 -1.59753e-20)
(0.131357 0.272224 -4.85777e-20)
(0.117933 0.280111 1.62082e-20)
(0.104385 0.287149 4.97282e-23)
(0.0899315 0.293336 -4.89313e-20)
(0.075947 0.299049 1.63049e-20)
(0.0602831 0.304813 -8.1839e-21)
(0.0456368 0.312069 2.04705e-20)
(0.0276094 0.321267 -1.02169e-20)
(0.0104651 0.329224 -2.06493e-21)
(0.22622 0.105324 -1.5173e-20)
(0.222555 0.127745 6.16529e-20)
(0.220919 0.150783 -1.55335e-20)
(0.215745 0.170982 -6.28532e-20)
(0.209448 0.189319 9.41787e-20)
(0.201625 0.205655 -1.56864e-20)
(0.192642 0.220298 0)
(0.182602 0.233525 1.59285e-20)
(0.171635 0.245565 3.1996e-20)
(0.159879 0.256559 -1.59307e-20)
(0.147371 0.266571 1.6062e-20)
(0.134339 0.275647 -1.60504e-20)
(0.120612 0.283766 0)
(0.106754 0.291011 1.61143e-20)
(0.091984 0.297365 1.61376e-20)
(0.0777041 0.303253 0)
(0.0617299 0.309184 -2.4302e-20)
(0.0468322 0.316757 1.62283e-20)
(0.0283968 0.326418 8.14707e-21)
(0.0108281 0.334852 0)
(0.23548 0.101818 2.9723e-22)
(0.230024 0.125238 -6.13368e-20)
(0.22736 0.14932 1.5518e-20)
(0.221371 0.1704 6.25341e-20)
(0.214523 0.18952 -1.25033e-19)
(0.206314 0.20654 4.67929e-20)
(0.197034 0.221767 0)
(0.186736 0.235493 1.59129e-20)
(0.175515 0.247964 -3.15592e-20)
(0.163497 0.259336 -4.77103e-20)
(0.150709 0.269679 -1.604e-20)
(0.137381 0.279049 7.96934e-20)
(0.123341 0.287416 -3.18585e-20)
(0.109164 0.294883 3.38224e-24)
(0.0940676 0.301409 3.68315e-24)
(0.0794867 0.307481 0)
(0.0632031 0.313573 3.21243e-20)
(0.0480677 0.321482 -2.41169e-20)
(0.0292205 0.331636 1.2071e-20)
(0.0112218 0.340611 -2.02892e-20)
(0.245166 0.0983497 2.96276e-20)
(0.237845 0.12272 -6.17884e-20)
(0.234058 0.147779 6.14491e-20)
(0.227201 0.169712 0)
(0.219753 0.189595 6.24111e-20)
(0.211129 0.207294 -4.6542e-20)
(0.201533 0.223113 -1.56033e-20)
(0.190963 0.237354 1.56923e-20)
(0.179479 0.250274 0)
(0.167187 0.262044 4.72441e-20)
(0.15411 0.272739 -3.13781e-20)
(0.140474 0.282423 0)
(0.126109 0.291056 -3.16955e-20)
(0.111601 0.298762 3.16148e-20)
(0.0961682 0.305466 -3.17772e-20)
(0.0812783 0.311728 1.58624e-20)
(0.0646858 0.317974 -3.18159e-20)
(0.0493276 0.326235 7.98263e-21)
(0.0300688 0.336918 1.99072e-20)
(0.0116437 0.346502 2.01419e-20)
(0.255229 0.0949099 -2.93003e-20)
(0.246005 0.120191 -1.22204e-19)
(0.241014 0.146164 6.11285e-20)
(0.233248 0.168925 -1.53755e-20)
(0.225152 0.189547 0)
(0.216081 0.207916 4.6648e-20)
(0.206145 0.22433 -4.62864e-20)
(0.195285 0.239099 0)
(0.183523 0.252488 0)
(0.170945 0.264679 -1.56103e-20)
(0.157566 0.275748 1.56329e-20)
(0.143609 0.285767 3.13355e-20)
(0.128907 0.294682 1.42524e-22)
(0.114051 0.302643 -3.12909e-20)
(0.0982714 0.309533 -1.57294e-20)
(0.0830611 0.315991 3.14048e-20)
(0.0661594 0.322378 1.57684e-20)
(0.0505927 0.331009 1.5754e-20)
(0.0309266 0.342254 3.90896e-21)
(0.0120897 0.352527 1.1938e-20)
(0.265622 0.0914839 7.3983e-20)
(0.254496 0.117649 -1.06395e-19)
(0.24824 0.144477 6.08123e-20)
(0.239534 0.168046 1.53428e-20)
(0.230744 0.189378 -7.69564e-20)
(0.221188 0.208403 4.58984e-20)
(0.210883 0.225413 -1.53579e-20)
(0.19971 0.240724 4.62688e-20)
(0.18765 0.254602 -1.51982e-20)
(0.174769 0.267235 -7.71189e-20)
(0.161071 0.278699 4.63671e-20)
(0.146778 0.289075 -1.54128e-20)
(0.131723 0.298293 0)
(0.116504 0.306525 1.55945e-20)
(0.100364 0.313608 -3.10032e-20)
(0.0848176 0.320268 -1.55814e-20)
(0.067605 0.326781 4.50896e-23)
(0.0518415 0.335797 -3.12161e-20)
(0.0317753 0.347637 -1.17397e-20)
(0.0125543 0.358682 -1.97408e-20)
(0.276297 0.0880602 -5.88958e-20)
(0.26331 0.115109 -7.62282e-20)
(0.255745 0.142737 6.05054e-20)
(0.246085 0.167095 6.11843e-20)
(0.236556 0.189103 3.09889e-20)
(0.226476 0.208765 -4.54948e-20)
(0.215765 0.226369 1.52843e-20)
(0.204249 0.242232 -9.17356e-20)
(0.191864 0.256616 9.13806e-20)
(0.178657 0.269713 3.05398e-20)
(0.164623 0.281594 -1.53374e-20)
(0.149974 0.292348 6.11272e-20)
(0.134551 0.301886 -3.05518e-20)
(0.118948 0.310408 3.06706e-20)
(0.102433 0.317691 0)
(0.0865315 0.324557 -1.5359e-20)
(0.0690049 0.331178 1.54252e-20)
(0.0530517 0.340591 -1.54141e-20)
(0.0325938 0.353054 -1.54379e-20)
(0.0130301 0.364963 0)
(0.287199 0.0846562 1.1752e-19)
(0.272435 0.112618 9.85411e-22)
(0.263537 0.140979 -6.02064e-20)
(0.252919 0.166095 0)
(0.242612 0.18874 -1.5165e-20)
(0.231965 0.209014 -1.50944e-20)
(0.220808 0.227204 0)
(0.20891 0.243627 6.27083e-23)
(0.19617 0.258533 -1.51318e-20)
(0.18261 0.272112 -3.02046e-20)
(0.168216 0.28443 0)
(0.15319 0.295584 -3.02375e-20)
(0.137382 0.305461 0)
(0.121374 0.314291 -3.03048e-20)
(0.104469 0.321782 0)
(0.0881878 0.328859 4.56204e-20)
(0.0703431 0.335566 -1.51998e-20)
(0.0542006 0.345387 3.05141e-20)
(0.0333588 0.358493 1.53051e-20)
(0.0135081 0.371357 1.54127e-20)
(0.298252 0.0811976 0)
(0.281843 0.110072 0)
(0.2716 0.139086 6.79562e-20)
(0.260033 0.164941 -6.73489e-20)
(0.248921 0.188201 0)
(0.23767 0.209076 1.50253e-20)
(0.226021 0.227858 6.00714e-20)
(0.213699 0.244857 -1.04597e-19)
(0.200564 0.260307 1.19467e-19)
(0.186619 0.274395 -4.45657e-20)
(0.17184 0.287176 7.44837e-21)
(0.156415 0.298756 7.50865e-21)
(0.140202 0.308996 0)
(0.123769 0.318157 2.24568e-20)
(0.106459 0.325869 -2.2491e-20)
(0.0897715 0.333166 -1.50877e-20)
(0.0716053 0.339934 3.00719e-20)
(0.0552655 0.350173 -3.76883e-20)
(0.0340458 0.363933 3.76588e-21)
(0.0139779 0.377846 -1.14646e-20)
(0.309274 0.0776391 -5.84913e-20)
(0.291498 0.10723 -3.74188e-21)
(0.27992 0.136803 -6.75624e-20)
(0.267419 0.163384 6.68807e-20)
(0.255483 0.187272 0)
(0.243592 0.208774 3.70421e-21)
(0.231406 0.228185 6.31343e-20)
(0.218609 0.245802 4.01098e-22)
(0.205037 0.261838 -5.51488e-20)
(0.19067 0.276474 -2.95788e-20)
(0.175476 0.289758 -3.88382e-21)
(0.159627 0.301804 4.04582e-20)
(0.142994 0.312443 0)
(0.126113 0.32197 -3.7102e-21)
(0.10839 0.329926 1.1096e-20)
(0.0912655 0.337458 -1.48399e-20)
(0.0727773 0.344266 1.482e-20)
(0.0562244 0.354934 7.44966e-21)
(0.0346311 0.369349 -7.45186e-21)
(0.0144293 0.384406 0)
(0.319628 0.0747377 6.90093e-20)
(0.301179 0.104603 -6.66522e-20)
(0.28839 0.134597 1.40942e-19)
(0.275003 0.161877 -6.99123e-20)
(0.262261 0.186407 7.02529e-20)
(0.249714 0.20854 -7.38616e-20)
(0.236946 0.22858 -4.35472e-21)
(0.223621 0.246814 0)
(0.20956 0.263438 -7.37962e-20)
(0.194728 0.278623 6.89011e-20)
(0.179089 0.29241 3.03058e-20)
(0.16279 0.30492 -3.87169e-20)
(0.145722 0.315961 3.45754e-20)
(0.128376 0.325848 -3.87102e-20)
(0.110234 0.334051 -4.31676e-21)
(0.0926436 0.3418 -1.72753e-20)
(0.0738397 0.348623 1.72189e-20)
(0.0570522 0.359709 0)
(0.0350936 0.374765 4.30934e-21)
(0.0148535 0.391038 -4.33321e-21)
(0.338692 0.0762419 0)
(0.320884 0.104948 0)
(0.306342 0.135101 0)
(0.291481 0.163495 0)
(0.277333 0.189032 0)
(0.263543 0.212114 0)
(0.249568 0.233135 0)
(0.235075 0.25238 0)
(0.219898 0.270007 0)
(0.203985 0.286145 0)
(0.187304 0.300825 0)
(0.169941 0.314138 0)
(0.151854 0.32588 0)
(0.133397 0.33634 0)
(0.114284 0.34493 0)
(0.0955277 0.352919 0)
(0.0760161 0.35966 0)
(0.0586152 0.371554 0)
(0.0358381 0.387989 0)
(0.0157615 0.407022 0)
(0.364258 0.107191 0)
(0.348002 0.131418 0)
(0.332997 0.157348 0)
(0.317444 0.183052 0)
(0.302259 0.207261 0)
(0.287242 0.229747 0)
(0.271914 0.250643 0)
(0.256005 0.270066 0)
(0.239395 0.288054 0)
(0.222031 0.304638 0)
(0.203882 0.319811 0)
(0.18498 0.333563 0)
(0.165341 0.345748 0)
(0.145174 0.356419 0)
(0.124405 0.365228 0)
(0.103544 0.372906 0)
(0.0824451 0.379713 0)
(0.0627339 0.391815 0)
(0.0375629 0.410571 0)
(0.0168344 0.433034 0)
(0.38778 0.126565 0)
(0.372445 0.149657 0)
(0.357459 0.174321 0)
(0.341707 0.199255 0)
(0.325988 0.223289 0)
(0.310201 0.245971 0)
(0.293965 0.26729 0)
(0.277058 0.287286 0)
(0.259385 0.305955 0)
(0.240899 0.323273 0)
(0.221569 0.339198 0)
(0.201409 0.353661 0)
(0.180442 0.366527 0)
(0.158803 0.377713 0)
(0.136472 0.386998 0)
(0.113634 0.394792 0)
(0.0906275 0.402092 0)
(0.0680846 0.414528 0)
(0.0399076 0.435604 0)
(0.0176724 0.460505 0)
(0.40972 0.143194 0)
(0.395491 0.1657 0)
(0.380873 0.189891 0)
(0.365045 0.214691 0)
(0.348895 0.238969 0)
(0.332452 0.262158 0)
(0.315427 0.284135 0)
(0.29763 0.304891 0)
(0.278985 0.324395 0)
(0.259449 0.342594 0)
(0.238995 0.359411 0)
(0.217622 0.374741 0)
(0.19535 0.388438 0)
(0.172265 0.400361 0)
(0.148342 0.410342 0)
(0.123581 0.41869 0)
(0.0985426 0.426813 0)
(0.0733081 0.440036 0)
(0.0423585 0.463134 0)
(0.0184229 0.489828 0)
(0.432124 0.15889 0)
(0.418651 0.181481 0)
(0.404353 0.205642 0)
(0.388427 0.230633 0)
(0.371856 0.255378 0)
(0.354771 0.279231 0)
(0.336953 0.301986 0)
(0.318241 0.323596 0)
(0.298573 0.344011 0)
(0.277919 0.363162 0)
(0.256248 0.380946 0)
(0.233551 0.397228 0)
(0.20984 0.41185 0)
(0.185171 0.42465 0)
(0.159508 0.435488 0)
(0.132765 0.444658 0)
(0.105645 0.453783 0)
(0.0779795 0.468007 0)
(0.0447197 0.49266 0)
(0.0191785 0.520592 0)
(0.455622 0.173891 0)
(0.442593 0.196948 0)
(0.428485 0.221432 0)
(0.412418 0.246913 0)
(0.395435 0.272358 0)
(0.377734 0.297051 0)
(0.359138 0.320724 0)
(0.339502 0.343307 0)
(0.318777 0.364747 0)
(0.296941 0.384959 0)
(0.273961 0.403824 0)
(0.249822 0.421186 0)
(0.224527 0.436871 0)
(0.198118 0.450704 0)
(0.170561 0.462563 0)
(0.14175 0.472743 0)
(0.112498 0.482956 0)
(0.0825389 0.498214 0)
(0.0472021 0.52406 0)
(0.0200205 0.552853 0)
(0.480318 0.188396 0)
(0.467512 0.212173 0)
(0.453487 0.237248 0)
(0.437255 0.263465 0)
(0.419889 0.28982 0)
(0.401626 0.315533 0)
(0.382302 0.340283 0)
(0.361778 0.363986 0)
(0.340011 0.386591 0)
(0.31698 0.408007 0)
(0.292651 0.428098 0)
(0.266999 0.446693 0)
(0.240026 0.463603 0)
(0.211768 0.478638 0)
(0.182202 0.491672 0)
(0.15124 0.50299 0)
(0.119783 0.514322 0)
(0.0875326 0.530579 0)
(0.0500987 0.557415 0)
(0.0210332 0.586926 0)
(0.506203 0.202603 0)
(0.493476 0.227285 0)
(0.479462 0.253151 0)
(0.463065 0.280286 0)
(0.445364 0.307726 0)
(0.426606 0.33463 0)
(0.406625 0.360624 0)
(0.385279 0.385612 0)
(0.362517 0.409547 0)
(0.338315 0.432333 0)
(0.312633 0.453823 0)
(0.285441 0.473828 0)
(0.256737 0.492139 0)
(0.226555 0.508547 0)
(0.194886 0.522907 0)
(0.161681 0.535474 0)
(0.127906 0.547945 0)
(0.0932552 0.565166 0)
(0.0535488 0.592909 0)
(0.0222521 0.623136 0)
(0.533291 0.216623 0)
(0.520552 0.242355 0)
(0.50651 0.26916 0)
(0.489969 0.297349 0)
(0.47199 0.326015 0)
(0.452814 0.354262 0)
(0.432259 0.381668 0)
(0.41017 0.408119 0)
(0.386478 0.433568 0)
(0.361149 0.457915 0)
(0.334136 0.481001 0)
(0.305397 0.50262 0)
(0.274925 0.522536 0)
(0.242755 0.540511 0)
(0.208892 0.556368 0)
(0.173323 0.570311 0)
(0.137066 0.583979 0)
(0.0998157 0.602177 0)
(0.0575718 0.630832 0)
(0.0236729 0.661847 0)
(0.561607 0.230514 0)
(0.548809 0.257406 0)
(0.534726 0.285264 0)
(0.518083 0.314606 0)
(0.499897 0.344611 0)
(0.480392 0.374343 0)
(0.459361 0.403326 0)
(0.436619 0.431423 0)
(0.412079 0.458583 0)
(0.385684 0.484704 0)
(0.357374 0.509613 0)
(0.327095 0.53308 0)
(0.294826 0.554839 0)
(0.260601 0.574611 0)
(0.224436 0.592174 0)