/*--------------------------------*- C++ -*----------------------------------*\
  =========                 |
  \\      /  F ield         | OpenFOAM: The Open Source CFD Toolbox
   \\    /   O peration     | Website:  https://openfoam.org
    \\  /    A nd           | Version:  7
     \\/     M anipulation  |
\*---------------------------------------------------------------------------*/
FoamFile
{
    version     2.0;
    format      ascii;
    class       volVectorField;
    location    "1";
    object      U;
}
// * * * * * * * * * * * * * * * * * * * * * * * * * * * * * * * * * * * * * //

dimensions      [0 1 -1 0 0 0 0];

internalField   nonuniform List<vector> 
2000
(
(0.000454736 0.0339642 -1.5462e-20)
(0.00982965 0.0643429 0)
(0.0528899 0.077541 0)
(0.0869364 0.0835689 -7.65892e-20)
(0.116931 0.0876475 2.3796e-20)
(0.140791 0.0918264 6.75637e-23)
(0.158187 0.0966036 -4.09552e-20)
(0.171401 0.101876 0)
(0.180408 0.107679 0)
(0.188448 0.112894 0)
(-0.00208913 0.0313652 0)
(0.00702554 0.0482251 -5.94644e-20)
(0.0521837 0.0552449 5.4823e-20)
(0.0885158 0.0603865 1.02196e-19)
(0.120314 0.0668158 0)
(0.145569 0.0744226 8.78381e-20)
(0.163985 0.0824689 -8.16805e-20)
(0.177854 0.0905131 0)
(0.18734 0.0984573 1.43008e-19)
(0.195161 0.104907 -2.67987e-19)
(-0.00387119 0.0285479 0)
(0.00802532 0.0314415 4.71604e-19)
(0.0568309 0.0321963 0)
(0.0957158 0.0365132 4.06516e-19)
(0.128763 0.0453809 0)
(0.154588 0.0565374 -3.49457e-19)
(0.173235 0.068001 0)
(0.186948 0.0789452 3.03907e-19)
(0.196574 0.0892615 -2.84634e-19)
(0.203423 0.0968704 -2.65395e-19)
(-0.00471962 0.0253297 -1.23066e-19)
(0.013245 0.0142826 -2.36595e-19)
(0.0672474 0.00917188 -1.08864e-19)
(0.108864 0.012986 -2.03275e-19)
(0.142518 0.0244135 -1.87679e-19)
(0.168016 0.0391524 1.75046e-19)
(0.186071 0.0540725 1.62155e-19)
(0.198764 0.0678936 -6.89866e-22)
(0.208162 0.0807007 2.8322e-19)
(0.21311 0.089043 2.65066e-19)
(-0.00436294 0.0215354 -1.21525e-19)
(0.0231299 -0.00288722 -2.3488e-19)
(0.0837063 -0.0129675 -4.35157e-19)
(0.128031 -0.00910512 2.01117e-19)
(0.161542 0.00500215 0)
(0.185782 0.0232374 0)
(0.202429 0.0415272 -3.2257e-19)
(0.213232 0.0580367 -3.00659e-19)
(0.222004 0.0733992 2.80622e-19)
(0.22373 0.0820195 7.85853e-19)
(-0.00241975 0.0170015 1.21396e-19)
(0.0380982 -0.0196127 1.17988e-19)
(0.106247 -0.0333032 -6.42433e-19)
(0.152949 -0.0286705 1.00102e-18)
(0.185454 -0.0118041 -1.85722e-19)
(0.207529 0.00970573 0)
(0.222024 0.0311661 0)
(0.230194 0.0500612 1.49422e-18)
(0.238015 0.0681494 -1.39933e-18)
(0.234934 0.077001 2.61654e-19)
(0.0015904 0.0116196 9.50192e-19)
(0.0584486 -0.0353355 0)
(0.134577 -0.0509115 8.60773e-19)
(0.182951 -0.0447219 -7.999e-19)
(0.213508 -0.0251238 0)
(0.232627 -0.000699766 3.43104e-19)
(0.244337 0.023653 -9.54869e-19)
(0.249496 0.0446547 -1.19035e-18)
(0.256182 0.0658134 5.5632e-19)
(0.247062 0.0757715 5.18886e-19)
(0.00821549 0.0053827 -1.88977e-18)
(0.0842403 -0.0494165 -2.29339e-19)
(0.167981 -0.0649717 -4.21165e-19)
(0.216941 -0.0565274 -9.84106e-19)
(0.244636 -0.0344226 -3.67445e-19)
(0.260278 -0.00761456 -3.38377e-19)
(0.268764 0.0191602 4.67185e-21)
(0.27114 0.0423158 0)
(0.276115 0.0667877 0)
(0.261299 0.0811814 -1.07119e-21)
(0.0180058 -0.0015637 9.39589e-19)
(0.11517 -0.0611905 -8.98304e-19)
(0.205281 -0.0748912 6.34515e-19)
(0.253422 -0.0637443 1.37538e-18)
(0.277481 -0.039631 -3.6304e-19)
(0.289538 -0.0112234 3.43757e-19)
(0.294949 0.0169521 3.168e-19)
(0.29604 0.0428006 0)
(0.298089 0.0687508 0)
(0.280002 0.0957898 -2.60231e-21)
(0.0314221 -0.00889191 -1.1532e-19)
(0.150495 -0.0700451 1.12312e-18)
(0.244902 -0.0803971 -2.07132e-19)
(0.290618 -0.0664677 0)
(0.310446 -0.0411066 0)
(0.31905 -0.0121808 6.73207e-19)
(0.322242 0.0158608 0)
(0.324499 0.044644 -5.7971e-19)
(0.324472 0.0665895 1.23878e-21)
(0.311248 0.113655 5.04307e-19)
(0.199041 0.130983 1.01165e-20)
(0.186651 0.154336 -1.03003e-20)
(0.182112 0.174575 -1.04568e-20)
(0.168492 0.193767 -1.06311e-20)
(0.142177 0.21063 -1.09158e-20)
(0.148889 0.226756 -9.52512e-23)
(0.0424634 0.227764 5.31056e-21)
(0.16373 0.251508 1.72693e-20)
(-0.0799491 0.23613 0)
(0.1401 0.292185 -1.16944e-20)
(0.207412 0.129571 4.0134e-20)
(0.193455 0.151501 -4.13982e-20)
(0.188377 0.174729 7.30656e-20)
(0.174299 0.195344 1.06485e-20)
(0.14732 0.213696 2.14794e-20)
(0.151994 0.231285 3.32394e-20)
(0.0460686 0.232738 -1.09218e-20)
(0.16588 0.258289 -1.15923e-20)
(-0.0796526 0.245141 2.23431e-20)
(0.141018 0.296985 1.16674e-20)
(0.217533 0.129839 0)
(0.201003 0.15174 -4.11471e-20)
(0.19555 0.177882 -2.09396e-20)
(0.180832 0.199871 0)
(0.153058 0.219135 -6.49106e-20)
(0.155741 0.237979 2.1557e-20)
(0.0501371 0.239929 2.1055e-20)
(0.168576 0.266536 6.83281e-20)
(-0.0790112 0.255402 -2.22704e-20)
(0.142668 0.302472 4.61279e-20)
(0.229393 0.129662 0)
(0.209458 0.152284 4.14958e-20)
(0.203715 0.180815 0)
(0.188175 0.204622 8.48762e-20)
(0.159479 0.224973 -8.53099e-20)
(0.16026 0.24532 -4.3452e-20)
(0.0546639 0.247928 3.87542e-22)
(0.171753 0.275456 -6.89206e-20)
(-0.0780565 0.266456 -1.12977e-20)
(0.144973 0.308582 -5.70735e-20)
(0.242504 0.128308 6.17909e-22)
(0.218794 0.152542 -1.2336e-19)
(0.212661 0.18377 5.422e-22)
(0.196441 0.208713 -8.41986e-20)
(0.166649 0.230231 0)
(0.165611 0.252336 -4.32553e-20)
(0.0597258 0.255874 -6.45803e-22)
(0.175481 0.284523 8.94874e-20)
(-0.0767226 0.277857 1.1062e-20)
(0.14789 0.315326 -1.11055e-20)
(0.256288 0.125734 -3.285e-19)
(0.229459 0.152212 2.08313e-19)
(0.222311 0.187179 8.43124e-20)
(0.205273 0.213138 -8.42553e-20)
(0.174562 0.235166 -4.24111e-20)
(0.171837 0.258839 0)
(0.0653563 0.263159 -8.61852e-20)
(0.179765 0.293063 4.4458e-20)
(-0.0749671 0.289109 4.38821e-20)
(0.1514 0.322474 4.43056e-20)
(0.270032 0.122685 -4.12534e-20)
(0.24147 0.15132 0)
(0.232901 0.189243 0)
(0.21461 0.218843 0)
(0.182974 0.24074 -4.33003e-20)
(0.178787 0.266494 8.55762e-20)
(0.0715088 0.271778 8.57774e-20)
(0.184779 0.302754 -1.31789e-19)
(-0.0726088 0.30126 2.153e-20)
(0.155501 0.330957 -6.5217e-20)
(0.28351 0.119318 2.53535e-19)
(0.254438 0.150293 1.71569e-19)
(0.244542 0.18873 -1.69953e-19)
(0.22473 0.222186 1.70908e-19)
(0.191787 0.244662 -2.11673e-19)
(0.186569 0.270811 0)
(0.0780821 0.276344 -4.17616e-20)
(0.190115 0.309097 2.57771e-22)
(-0.0700163 0.311343 -4.15614e-20)
(0.16012 0.33878 -4.26525e-20)
(0.297438 0.116114 -2.16344e-19)
(0.268797 0.150004 0)
(0.25674 0.19185 -1.94614e-19)
(0.235998 0.2297 3.42589e-19)
(0.201047 0.256696 -1.26846e-19)
(0.194579 0.284443 -2.13297e-20)
(0.0851268 0.289926 4.16705e-20)
(0.196383 0.322595 9.87378e-22)
(-0.066421 0.326137 6.20777e-20)
(0.164971 0.351308 6.25664e-20)
(0.318107 0.117319 -1.78215e-19)
(0.288017 0.134869 1.76133e-19)
(0.269919 0.172982 2.17736e-20)
(0.248029 0.212491 0)
(0.21196 0.243612 0)
(0.20477 0.278293 2.10111e-20)
(0.0934652 0.284769 8.29438e-20)
(0.204944 0.32201 -8.11312e-20)
(-0.0613535 0.331964 -1.99884e-20)
(0.17159 0.358386 1.96053e-20)
(0.394311 0.12831 0)
(0.34512 0.212679 0)
(0.298334 0.263843 0)
(0.260987 0.298717 0)
(0.219416 0.322266 0)
(0.203526 0.346099 0)
(0.0975721 0.348955 0)
(0.201644 0.376046 0)
(-0.0635198 0.374422 0)
(0.184389 0.405324 0)
(0.394756 0.142845 0)
(0.35774 0.177456 0)
(0.33318 0.218977 0)
(0.305147 0.262761 0)
(0.265025 0.304208 0)
(0.239712 0.344653 0)
(0.132066 0.367613 0)
(0.224155 0.408646 0)
(-0.0515234 0.407171 0)
(0.192179 0.45814 0)
(0.441179 0.177266 0)
(0.404056 0.225083 0)
(0.37565 0.272215 0)
(0.343688 0.315172 0)
(0.301358 0.354056 0)
(0.271041 0.390678 0)
(0.163225 0.416117 0)
(0.247111 0.455716 0)
(-0.0389484 0.453918 0)
(0.198767 0.514878 0)
(0.490915 0.20912 0)
(0.453888 0.258493 0)
(0.424183 0.310508 0)
(0.388338 0.360095 0)
(0.341315 0.405327 0)
(0.304712 0.446233 0)
(0.194519 0.477009 0)
(0.268761 0.518516 0)
(-0.0281137 0.517555 0)
(0.204119 0.594816 0)
(0.544536 0.236093 0)
(0.507488 0.28968 0)
(0.477481 0.346515 0)
(0.439127 0.402327 0)
(0.387792 0.454787 0)
(0.345258 0.502805 0)
(0.231671 0.541862 0)
(0.294306 0.587901 0)
(-0.00895831 0.589524 0)
(0.216235 0.653292 0)
(0.603798 0.262785 0)
(0.566806 0.322375 0)
(0.536589 0.385174 0)
(0.496667 0.447907 0)
(0.44157 0.508187 0)
(0.394567 0.565038 0)
(0.275614 0.612499 0)
(0.327027 0.670254 0)
(0.00356768 0.674842 0)
(0.218574 0.820512 0)
(0.669595 0.290319 0)
(0.633297 0.355819 0)
(0.602939 0.425363 0)
(0.562017 0.496056 0)
(0.503808 0.566457 0)
(0.450771 0.63342 0)
(0.326723 0.695989 0)
(0.355681 0.756871 0)
(0.0327949 0.770552 0)
(0.23021 0.765885 0)
(0.738152 0.309585 0)
(0.706257 0.385143 0)
(0.677981 0.463642 0)
(0.640045 0.544105 0)
(0.582686 0.625129 0)
(0.535796 0.708429 0)
(0.411288 0.780226 0)
(0.453094 0.879059 0)
(0.122989 0.901671 0)
(0.291402 1.19807 0)
(0.82094 0.342368 0)
(0.788264 0.418825 0)
(0.755871 0.503071 0)
(0.713346 0.591472 0)
(0.64784 0.686394 0)
(0.583396 0.776906 0)
(0.429664 0.877546 0)
(0.409167 0.945833 0)
(0.00695971 0.982078 0)
(0.193734 0.977637 0)
(0.898817 0.335669 0)
(0.896492 0.438169 0)
(0.883822 0.539741 0)
(0.864042 0.646729 0)
(0.820473 0.759261 0)
(0.793155 0.892456 0)
(0.667744 1.01395 0)
(0.679373 1.19982 0)
(0.325653 1.28091 0)
(0.344232 1.5225 0)
(0.390209 0.0880322 1.5906e-19)
(0.430885 0.124569 -1.57422e-19)
(0.474496 0.147915 1.75029e-20)
(0.530097 0.177472 0)
(0.58454 0.202123 0)
(0.642961 0.225494 1.1481e-20)
(0.705665 0.251259 -3.24408e-20)
(0.768026 0.26436 3.16487e-20)
(0.84451 0.304264 2.72191e-21)
(0.892045 0.272219 -2.62975e-21)
(0.400481 0.0711132 -2.0631e-19)
(0.44917 0.118684 0)
(0.488409 0.140522 1.18692e-19)
(0.543769 0.168267 -2.5644e-19)
(0.596794 0.191596 1.48122e-19)
(0.653959 0.213259 -1.21997e-20)
(0.715005 0.237461 1.91689e-20)
(0.776297 0.248145 2.54102e-20)
(0.850776 0.291046 2.17661e-22)
(0.883274 0.245472 -7.89656e-22)
(0.403461 0.0674147 2.37343e-19)
(0.466006 0.113118 -1.44158e-19)
(0.501917 0.131766 1.42739e-19)
(0.556806 0.157109 -1.18227e-19)
(0.609433 0.179328 8.92557e-20)
(0.66558 0.199312 0)
(0.725189 0.222137 -1.9209e-20)
(0.784919 0.230775 -4.13534e-22)
(0.857396 0.277258 -8.9679e-21)
(0.872699 0.217805 -1.97558e-21)
(0.410882 0.0620879 -3.78886e-20)
(0.479492 0.10456 0)
(0.511664 0.122805 0)
(0.56471 0.145323 0)
(0.616847 0.166524 7.69504e-20)
(0.671974 0.185026 -4.99021e-20)
(0.730222 0.206563 2.40042e-21)
(0.789441 0.213735 -1.08457e-20)
(0.860176 0.264145 -2.53907e-21)
(0.856768 0.189507 1.13467e-21)
(0.418718 0.0595681 -6.701e-21)
(0.492275 0.0944504 -1.09303e-19)
(0.523275 0.113007 -6.26673e-20)
(0.574307 0.132189 6.2614e-20)
(0.625977 0.152581 -2.6656e-20)
(0.680279 0.169904 0)
(0.737275 0.190296 -1.84586e-20)
(0.795934 0.196538 2.40636e-20)
(0.863634 0.250389 -1.07628e-20)
(0.837727 0.160166 1.39261e-21)
(0.427104 0.0569571 -2.85471e-19)
(0.500764 0.0826002 4.05055e-20)
(0.5308 0.103052 5.07234e-21)
(0.579891 0.118704 6.15474e-20)
(0.631085 0.138284 0)
(0.684948 0.15454 0)
(0.741145 0.173762 0)
(0.799922 0.179635 1.27593e-20)
(0.864155 0.236109 0)
(0.813827 0.130233 0)
(0.435508 0.0543881 0)
(0.508467 0.0691832 9.88862e-20)
(0.53833 0.0924324 -6.54984e-20)
(0.58619 0.104311 -5.46329e-20)
(0.636841 0.123067 5.49064e-20)
(0.690419 0.138357 1.98775e-20)
(0.746113 0.156478 -2.24772e-20)
(0.805015 0.162552 -4.58181e-20)
(0.8649 0.220139 4.13603e-21)
(0.788078 0.0997898 9.88161e-22)
(0.44282 0.0518208 0)
(0.513321 0.0547689 -3.34146e-20)
(0.542793 0.0813609 -1.56064e-20)
(0.589961 0.0894401 0)
(0.640034 0.107402 1.08778e-20)
(0.693492 0.121786 -3.47371e-20)
(0.749088 0.138869 2.52254e-20)
(0.808213 0.145431 5.04918e-21)
(0.863753 0.202131 -3.80411e-21)
(0.760568 0.0699189 6.26093e-23)
(0.448592 0.0491518 3.5091e-20)
(0.516591 0.0396377 3.1971e-20)
(0.546095 0.0696889 -8.93339e-21)
(0.593026 0.0740195 7.14635e-21)
(0.642753 0.0911649 1.27419e-20)
(0.696198 0.104608 1.63645e-20)
(0.751965 0.120687 -4.37169e-21)
(0.811148 0.127637 -3.08119e-21)
(0.861802 0.181174 3.81643e-21)
(0.730706 0.0412822 -3.4553e-22)
(0.452094 0.0464343 -8.40758e-21)
(0.517136 0.0242221 8.51061e-21)
(0.547953 0.0573612 -7.74472e-21)
(0.594065 0.0582477 -7.13263e-21)
(0.643867 0.0744747 5.87724e-21)
(0.697368 0.0869845 -1.13752e-20)
(0.753484 0.102111 6.22364e-21)
(0.812707 0.109171 1.21559e-21)
(0.85735 0.157692 0)
(0.694241 0.0144752 3.46995e-22)
(0.453014 0.0439924 8.44423e-21)
(0.514969 0.00877229 -8.53506e-21)
(0.549119 0.0441982 -7.78967e-21)
(0.593597 0.0423577 -7.1661e-21)
(0.644148 0.0572892 -5.88933e-21)
(0.697905 0.0689307 4.77904e-22)
(0.754535 0.0830886 2.51839e-21)
(0.813858 0.0899968 4.90514e-21)
(0.850612 0.132271 0)
(0.647432 -0.0108508 5.42078e-22)
(0.45221 0.0428322 0)
(0.510091 -0.00640126 -3.22103e-20)
(0.549143 0.0299916 5.59836e-20)
(0.591798 0.0265074 7.17363e-21)
(0.643721 0.0396367 1.28513e-20)
(0.697776 0.0505589 1.64401e-20)
(0.755095 0.0637142 -4.36104e-21)
(0.814524 0.070444 -3.03914e-21)
(0.841159 0.106018 3.55076e-21)
(0.626049 -0.0354049 -5.40591e-22)
(0.450513 0.0409983 0)
(0.501863 -0.0202351 -3.39045e-20)
(0.548224 0.014576 -1.57647e-20)
(0.588994 0.0107427 0)
(0.642815 0.0216285 -3.66993e-20)
(0.697285 0.0320401 1.30264e-20)
(0.755378 0.0440774 1.01729e-20)
(0.814665 0.0509426 1.95016e-20)
(0.829571 0.0793186 -3.53902e-21)
(0.590187 -0.059436 -2.3787e-21)
(0.447795 0.0371785 0)
(0.489739 -0.0318699 3.41689e-20)
(0.546752 -0.00243147 0)
(0.58542 -0.00464557 5.52768e-20)
(0.640985 0.00354923 -5.55715e-20)
(0.695873 0.0136181 -1.9817e-20)
(0.754721 0.0244516 2.41501e-21)
(0.813149 0.0319088 -1.94022e-20)
(0.817714 0.0524331 -4.22314e-21)
(0.565215 -0.0832263 1.76394e-21)
(0.444403 0.027794 2.94964e-19)
(0.474632 -0.0401718 -1.11841e-19)
(0.544455 -0.020904 -5.40418e-21)
(0.580636 -0.0192315 -6.25809e-20)
(0.63737 -0.014044 0)
(0.69277 -0.0043956 -2.00356e-20)
(0.752627 0.00513838 5.18671e-21)
(0.80971 0.0129952 2.70607e-20)
(0.806684 0.0250524 5.92452e-22)
(0.534216 -0.107432 -5.92371e-22)
(0.442444 0.00756172 6.55305e-21)
(0.458807 -0.0438111 1.83353e-19)
(0.540289 -0.0399673 6.38021e-20)
(0.574376 -0.0325569 -6.37795e-20)
(0.632115 -0.0307834 -2.71365e-20)
(0.688923 -0.0220003 0)
(0.750334 -0.0139237 -3.30176e-20)
(0.806287 -0.00620416 1.78903e-20)
(0.797914 -0.00249858 9.53285e-21)
(0.507018 -0.131843 -2.0467e-21)
(0.444325 -0.0268459 -3.96102e-20)
(0.444452 -0.0415551 0)
(0.533106 -0.0584168 0)
(0.567939 -0.0450395 0)
(0.626941 -0.0470218 -2.33994e-20)
(0.68597 -0.0396912 5.04829e-20)
(0.749018 -0.0330498 3.3124e-20)
(0.803954 -0.0258054 -3.99145e-20)
(0.79081 -0.029605 1.13091e-21)
(0.479684 -0.156223 8.97515e-22)
(0.444245 -0.070194 -8.57747e-20)
(0.431075 -0.0346172 1.48184e-19)
(0.521139 -0.0756666 -1.46765e-19)
(0.560382 -0.0579245 1.20899e-19)
(0.619871 -0.0632757 -1.48451e-19)
(0.680724 -0.0576588 0)
(0.744942 -0.0521362 -1.86157e-20)
(0.799416 -0.0455045 -2.93138e-22)
(0.783199 -0.0559083 -6.17318e-21)
(0.454636 -0.179802 1.69808e-21)
(0.428839 -0.107893 -4.25484e-20)
(0.415894 -0.0289751 0)
(0.50146 -0.0913788 -1.60321e-19)
(0.546432 -0.0716944 2.65236e-19)
(0.605634 -0.0791795 -9.51052e-20)
(0.668314 -0.0753216 -1.22238e-20)
(0.734463 -0.0707708 1.85682e-20)
(0.790377 -0.0652859 3.15075e-21)
(0.77319 -0.0817151 1.43336e-20)
(0.429678 -0.202825 -5.79116e-22)
(0.405072 -0.128852 -1.9565e-19)
(0.407707 -0.0306375 1.8924e-19)
(0.483429 -0.104568 2.13165e-20)
(0.534206 -0.0855654 0)
(0.59451 -0.0941604 0)
(0.660021 -0.0923058 1.39913e-20)
(0.728894 -0.089017 3.6394e-20)
(0.786489 -0.0854566 -3.59431e-20)
(0.76572 -0.107749 -1.19246e-21)
(0.406392 -0.226163 1.10149e-21)
(0.392078 -0.160943 0)
(0.425528 -0.0515905 0)
(0.470214 -0.129605 0)
(0.535688 -0.120253 0)
(0.599393 -0.130121 0)
(0.669777 -0.13342 0)
(0.741946 -0.132952 0)
(0.799818 -0.13299 0)
(0.758046 -0.167942 0)
(0.356736 -0.281681 0)
(0.365359 -0.191429 0)
(0.437259 -0.122131 0)
(0.486968 -0.192857 0)
(0.550822 -0.186741 0)
(0.617978 -0.200478 0)
(0.688163 -0.205778 0)
(0.756338 -0.207773 0)
(0.794287 -0.215649 0)
(0.694068 -0.272106 0)
(0.255573 -0.381366 0)
(0.338405 -0.245462 0)
(0.410051 -0.173625 0)
(0.458787 -0.249945 0)
(0.525373 -0.251457 0)
(0.596433 -0.27073 0)
(0.672236 -0.280828 0)
(0.742506 -0.287462 0)
(0.76577 -0.306248 0)
(0.622116 -0.381354 0)
(0.173049 -0.480282 0)
(0.314248 -0.295419 0)
(0.389414 -0.236444 0)
(0.440138 -0.310537 0)
(0.510006 -0.321883 0)
(0.585697 -0.347276 0)
(0.665902 -0.362498 0)
(0.733013 -0.374718 0)
(0.729824 -0.408129 0)
(0.535735 -0.502556 0)
(0.097038 -0.590976 0)
(0.285139 -0.336866 0)
(0.355307 -0.298982 0)
(0.407224 -0.372087 0)
(0.478593 -0.39553 0)
(0.558732 -0.4297 0)
(0.644124 -0.452897 0)
(0.707306 -0.475082 0)
(0.675201 -0.529615 0)
(0.43974 -0.640589 0)
(0.0336203 -0.713725 0)
(0.247259 -0.375339 0)
(0.308324 -0.359145 0)
(0.361455 -0.434441 0)
(0.435396 -0.472627 0)
(0.523023 -0.51977 0)
(0.61707 -0.556586 0)
(0.675504 -0.596863 0)
(0.608943 -0.678806 0)
(0.338756 -0.798458 0)
(-0.0158019 -0.849369 0)
(0.18751 -0.406665 0)
(0.247649 -0.414713 0)
(0.3068 -0.497177 0)
(0.388509 -0.55546 0)
(0.487306 -0.623867 0)
(0.588644 -0.683715 0)
(0.63096 -0.750563 0)
(0.520122 -0.861307 0)
(0.23259 -0.976345 0)
(-0.047469 -0.997152 0)
(0.224909 -0.443826 0)
(0.260473 -0.477107 0)
(0.301427 -0.568109 0)
(0.360601 -0.64981 0)
(0.437155 -0.742061 0)
(0.514192 -0.82519 0)
(0.523932 -0.92347 0)
(0.38752 -1.07668 0)
(0.129382 -1.19063 0)
(-0.0558387 -1.1779 0)
(-0.0217188 -0.446114 0)
(-0.003205 -0.493026 0)
(0.0277984 -0.587433 0)
(0.0840166 -0.684883 0)
(0.174311 -0.800553 0)
(0.284885 -0.926966 0)
(0.338115 -1.11307 0)
(0.251645 -1.36738 0)
(0.0615314 -1.49737 0)
(-0.0482281 -1.45766 0)
(0.177277 -0.397954 0)
(0.192366 -0.457123 0)
(0.213282 -0.548676 0)
(0.25158 -0.664948 0)
(0.308153 -0.831232 0)
(0.351899 -1.07448 0)
(0.294988 -1.42524 0)
(0.117074 -1.74092 0)
(-0.0292877 -1.77763 0)
(-0.0236607 -1.69947 0)
(0.381484 -0.0551532 2.03307e-19)
(0.306412 -0.124779 -1.99337e-19)
(0.314801 -0.181771 2.52368e-20)
(0.283517 -0.233113 0)
(0.259664 -0.278489 0)
(0.223063 -0.316524 2.54054e-20)
(0.161493 -0.338772 -1.01234e-19)
(0.198055 -0.388828 9.99026e-20)
(-0.0359045 -0.389574 2.5566e-20)
(0.177135 -0.343889 -2.49748e-20)
(0.368031 -0.0795743 -2.39237e-19)
(0.292401 -0.12577 0)
(0.307867 -0.178444 1.66179e-19)
(0.274803 -0.22351 -3.7603e-19)
(0.252678 -0.266797 2.33655e-19)
(0.216895 -0.303541 -2.35373e-20)
(0.15414 -0.324434 4.78808e-20)
(0.191505 -0.374352 9.34547e-20)
(-0.0378863 -0.373573 2.55463e-20)
(0.176316 -0.328512 2.27539e-20)
(0.349209 -0.0953972 2.81043e-19)
(0.28023 -0.135812 -1.86551e-19)
(0.299197 -0.18845 1.84744e-19)
(0.26582 -0.228881 -1.87727e-19)
(0.245808 -0.267846 1.39324e-19)
(0.211332 -0.301384 0)
(0.148165 -0.321678 -4.7997e-20)
(0.187977 -0.368037 -6.53717e-23)
(-0.0384089 -0.365565 -4.92198e-20)
(0.173169 -0.316782 -4.71818e-20)
(0.330225 -0.101103 -4.57229e-20)
(0.267355 -0.135417 0)
(0.287684 -0.1905 0)
(0.2552 -0.226996 0)
(0.237354 -0.262167 1.4084e-19)
(0.204253 -0.294491 -9.36569e-20)
(0.140784 -0.313701 8.14608e-22)
(0.184418 -0.358003 -4.56645e-20)
(-0.0400891 -0.35477 -2.43284e-20)
(0.167104 -0.302739 -2.33697e-20)
(0.311199 -0.107866 -1.13771e-22)
(0.255615 -0.134002 -1.34878e-19)
(0.275276 -0.188803 -9.19706e-20)
(0.244289 -0.219306 9.19125e-20)
(0.22751 -0.253049 -4.65491e-20)
(0.195594 -0.284541 0)
(0.131677 -0.302085 -4.8249e-20)
(0.179668 -0.34436 9.497e-20)
(-0.0435576 -0.340595 -4.83046e-20)
(0.159002 -0.288419 4.82541e-20)
(0.291403 -0.113368 -3.60166e-19)
(0.245746 -0.133908 4.3818e-20)
(0.263127 -0.186449 -8.59229e-22)
(0.233616 -0.212938 9.16523e-20)
(0.216997 -0.246499 0)
(0.186606 -0.27593 0)
(0.121983 -0.291488 0)
(0.174351 -0.331251 4.69574e-20)
(-0.0476344 -0.326438 0)
(0.15043 -0.276091 0)
(0.271778 -0.116492 0)
(0.237275 -0.133593 1.34436e-19)
(0.250965 -0.183563 -9.01817e-20)
(0.223211 -0.20848 -9.21002e-20)
(0.206599 -0.240697 9.25795e-20)
(0.17813 -0.267949 4.77387e-20)
(0.112528 -0.281679 -4.88715e-20)
(0.169156 -0.31908 -1.6662e-19)
(-0.05123 -0.312983 1.20689e-20)
(0.14243 -0.265726 -3.65449e-20)
(0.253324 -0.118612 0)
(0.229462 -0.13411 -4.43382e-20)
(0.238899 -0.180847 -2.26189e-20)
(0.213409 -0.2042 0)
(0.196724 -0.234277 2.33799e-20)
(0.170437 -0.259746 -7.05123e-20)
(0.103644 -0.271853 7.25828e-20)
(0.164381 -0.307117 2.32046e-20)
(-0.0540401 -0.299775 -2.52648e-20)
(0.135313 -0.256815 4.93541e-20)
(0.236721 -0.119096 4.42222e-20)
(0.221942 -0.135009 4.45271e-20)
(0.227386 -0.177225 -1.10776e-20)
(0.204377 -0.199322 1.14316e-20)
(0.187485 -0.227321 2.32009e-20)
(0.163597 -0.251379 3.53245e-20)
(0.095449 -0.262092 -1.21993e-20)
(0.160125 -0.295402 -1.18408e-20)
(-0.0561389 -0.286851 2.53479e-20)
(0.129088 -0.249166 1.23665e-20)
(0.222619 -0.119731 -1.10359e-20)
(0.214358 -0.137079 1.10614e-20)
(0.216581 -0.173604 -1.1264e-20)
(0.195879 -0.195177 -1.14163e-20)
(0.178785 -0.221073 1.16372e-20)
(0.157504 -0.243836 -2.35142e-20)
(0.0878843 -0.253386 1.81931e-20)
(0.156367 -0.28463 5.81054e-21)
(-0.0576938 -0.27478 0)
(0.123698 -0.242815 -1.23944e-20)
(0.210614 -0.1229 1.10571e-20)
(0.206708 -0.142133 -1.10899e-20)
(0.206651 -0.172205 -1.13072e-20)
(0.187819 -0.193436 -1.14548e-20)
(0.170674 -0.217011 -1.16425e-20)
(0.15212 -0.23815 -2.18913e-23)
(0.0810109 -0.246693 6.23431e-21)
(0.153162 -0.275332 1.78908e-20)
(-0.0587496 -0.263921 0)
(0.119202 -0.237596 -1.23735e-20)
(0.200489 -0.123317 0)
(0.199323 -0.144829 -4.48254e-20)
(0.198184 -0.169922 7.92461e-20)
(0.18052 -0.190924 1.14735e-20)
(0.163495 -0.21214 2.33279e-20)
(0.147651 -0.231894 3.53323e-20)
(0.0750246 -0.239941 -1.22198e-20)
(0.150615 -0.266136 -1.18355e-20)
(-0.0593364 -0.253267 2.51857e-20)
(0.115671 -0.232726 1.2345e-20)
(0.193813 -0.119892 0)
(0.19215 -0.143131 -4.50512e-20)
(0.191003 -0.162888 -2.28203e-20)
(0.174268 -0.184883 0)
(0.157379 -0.204837 -7.01874e-20)
(0.144016 -0.223209 2.35741e-20)
(0.0698104 -0.231468 2.50178e-20)
(0.148551 -0.255747 7.14377e-20)
(-0.0597007 -0.241947 -2.51038e-20)
(0.113008 -0.22759 4.91293e-20)
(0.190538 -0.116459 0)
(0.186024 -0.141844 4.54328e-20)
(0.18534 -0.153703 0)
(0.168513 -0.176057 9.33361e-20)
(0.152153 -0.195888 -9.38145e-20)
(0.141247 -0.214112 -4.79896e-20)
(0.0652804 -0.222615 -6.98025e-22)
(0.146878 -0.244829 -7.01413e-20)
(-0.0600151 -0.230508 -1.20383e-20)
(0.111154 -0.222255 -6.11796e-20)
(0.189948 -0.112953 3.68e-19)
(0.180906 -0.141113 -1.37559e-19)
(0.18161 -0.146477 6.18615e-22)
(0.1636 -0.167533 -9.36166e-20)
(0.147214 -0.185753 0)
(0.138901 -0.204607 -4.80973e-20)
(0.0615365 -0.214387 2.83387e-22)
(0.145585 -0.234162 9.50866e-20)
(-0.0602874 -0.219606 1.22213e-20)
(0.110171 -0.216865 -1.22702e-20)
(0.191532 -0.1091 -2.46118e-22)
(0.176434 -0.139032 2.3356e-19)
(0.178987 -0.141107 9.44828e-20)
(0.159833 -0.161244 -9.44188e-20)
(0.14305 -0.177235 -4.75903e-20)
(0.136664 -0.193877 0)
(0.0581753 -0.207013 -9.6885e-20)
(0.14462 -0.223823 4.67181e-20)
(-0.0604543 -0.209405 4.80058e-20)
(0.11019 -0.211374 4.78516e-20)
(0.194307 -0.105508 -4.78184e-20)
(0.17276 -0.136358 0)
(0.176797 -0.136151 0)
(0.156639 -0.155765 0)
(0.139803 -0.170823 -4.77352e-20)
(0.134655 -0.184066 9.51785e-20)
(0.0549227 -0.199358 9.67344e-20)
(0.143952 -0.213719 -1.40849e-19)
(-0.060435 -0.199892 2.40212e-20)
(0.111368 -0.205633 -7.12064e-20)
(0.196359 -0.104684 -9.80823e-20)
(0.17014 -0.134908 1.9542e-19)
(0.175169 -0.131736 -1.9353e-19)
(0.154069 -0.149935 1.93871e-19)
(0.137197 -0.164509 -2.40288e-19)
(0.133278 -0.175832 0)
(0.0521027 -0.191428 -4.88318e-20)
(0.143309 -0.203993 -1.28058e-23)
(-0.0600445 -0.191367 -4.81653e-20)
(0.113884 -0.199592 -4.65665e-20)
(0.196203 -0.101658 -5.05384e-20)
(0.168863 -0.128771 0)
(0.174116 -0.125539 -2.23209e-19)
(0.152134 -0.142716 3.91934e-19)
(0.134874 -0.157447 -1.45046e-19)
(0.132206 -0.167222 -2.38272e-20)
(0.0496401 -0.18392 4.87228e-20)
(0.142427 -0.192871 -1.09507e-21)
(-0.0593351 -0.182739 7.06444e-20)
(0.117859 -0.192388 6.9056e-20)
(0.198855 -0.123887 -2.10089e-19)
(0.166345 -0.137761 2.05469e-19)
(0.171298 -0.132711 2.53867e-20)
(0.148991 -0.147771 0)
(0.131508 -0.16238 0)
(0.130421 -0.168346 2.3927e-20)
(0.0471185 -0.188097 9.50488e-20)
(0.141039 -0.189052 -9.33569e-20)
(-0.0585369 -0.179769 -2.3182e-20)
(0.123308 -0.187271 2.28093e-20)
(0.246561 0.00658589 0)
(0.146439 -0.0480004 0)
(0.15452 -0.0578435 0)
(0.12603 -0.0761902 0)
(0.108313 -0.0965309 0)
(0.10647 -0.111897 0)
(0.0231629 -0.135014 0)
(0.120345 -0.146247 0)
(-0.0678328 -0.154215 0)
(0.127441 -0.156159 0)
(0.188703 -0.115306 0)
(0.14631 -0.120757 0)
(0.151728 -0.135833 0)
(0.132868 -0.141961 0)
(0.116974 -0.148033 0)
(0.113296 -0.151438 0)
(0.0324658 -0.155731 0)
(0.128625 -0.154918 0)
(-0.0674505 -0.151967 0)
(0.127736 -0.142407 0)
(0.172241 -0.0474358 0)
(0.133718 -0.0546603 0)
(0.131178 -0.0712981 0)
(0.114103 -0.0850571 0)
(0.0997683 -0.0990316 0)
(0.100339 -0.111838 0)
(0.0218223 -0.120307 0)
(0.123446 -0.131218 0)
(-0.0711224 -0.130139 0)
(0.123858 -0.122399 0)
(0.156775 -0.0560937 0)
(0.126326 -0.0627229 0)
(0.122142 -0.0734866 0)
(0.106398 -0.0813726 0)
(0.0912928 -0.0892944 0)
(0.0936577 -0.0976808 0)
(0.0136719 -0.101575 0)
(0.118294 -0.112051 0)
(-0.0745057 -0.110276 0)
(0.11985 -0.104111 0)
(0.141533 -0.0426918 0)
(0.117745 -0.0496555 0)
(0.11214 -0.0599014 0)
(0.0981503 -0.0679943 0)
(0.0833263 -0.0754389 0)
(0.0884625 -0.0831577 0)
(0.00694661 -0.0856319 0)
(0.113886 -0.0956061 0)
(-0.0768908 -0.0934749 0)
(0.116412 -0.0890812 0)
(0.129532 -0.0334709 0)
(0.110268 -0.0396528 0)
(0.103737 -0.047809 0)
(0.0908397 -0.0547114 0)
(0.0760385 -0.061121 0)
(0.0837733 -0.0681554 0)
(0.000711578 -0.0704351 0)
(0.109675 -0.0797963 0)
(-0.0792097 -0.0783626 0)
(0.113036 -0.076482 0)
(0.120216 -0.0255148 0)
(0.104125 -0.0305148 0)
(0.0970445 -0.0367415 0)
(0.0848215 -0.042214 0)
(0.0698043 -0.0473844 0)
(0.0794449 -0.0532547 0)
(-0.00512105 -0.0564119 0)
(0.105485 -0.064205 0)
(-0.0824819 -0.0649807 0)
(0.109176 -0.0664443 0)
(0.113488 -0.0182372 0)
(0.0994805 -0.021698 0)
(0.092049 -0.0260312 0)
(0.0802063 -0.0299606 0)
(0.0649442 -0.033884 0)
(0.0750534 -0.0378552 0)
(-0.0105592 -0.0438501 0)
(0.101189 -0.0477045 0)
(-0.0881928 -0.0533381 0)
(0.10413 -0.0587851 0)
(0.111212 -0.0115468 0)
(0.0988901 -0.0129126 0)
(0.0910548 -0.0152823 0)
(0.0791611 -0.0177238 0)
(0.0639872 -0.0202962 0)
(0.0718489 -0.0200439 0)
(-0.0135333 -0.034401 0)
(0.0989808 -0.0238866 0)
(-0.0973096 -0.0474065 0)
(0.097595 -0.0659716 0)
(0.20191 -0.00405144 0)
(0.190993 -0.00430541 0)
(0.183148 -0.0049958 0)
(0.171971 -0.00587447 0)
(0.160552 -0.00675158 0)
(0.157791 -0.00544204 0)
(0.0900475 -0.0154227 0)
(0.1786 -0.00491387 0)
(-0.0200822 -0.0246542 0)
(0.172907 -0.0385818 0)
(0.251152 -0.031078 2.20472e-19)
(0.143091 -0.0863042 -2.11646e-19)
(0.173339 -0.0375489 2.62895e-20)
(0.14604 -0.0452068 0)
(0.135151 -0.0331999 0)
(0.124976 -0.0262335 2.4603e-20)
(0.117407 -0.020118 -9.64539e-20)
(0.112107 -0.014444 9.45768e-20)
(0.111721 -0.00986309 2.31827e-20)
(0.206122 -0.00429217 -2.29813e-20)
(0.251022 -0.0628912 -2.49071e-19)
(0.134045 -0.0706189 0)
(0.173238 -0.0353071 1.70886e-19)
(0.143932 -0.040057 -3.85135e-19)
(0.134483 -0.0293306 2.37432e-19)
(0.12472 -0.0231561 -2.34771e-20)
(0.117468 -0.0177035 4.63385e-20)
(0.112292 -0.0126598 9.15508e-20)
(0.112483 -0.00904708 2.25896e-20)
(0.208186 -0.00467952 2.21967e-20)
(0.246349 -0.100738 2.89108e-19)
(0.140654 -0.0547348 -1.92535e-19)
(0.176225 -0.0330885 1.90697e-19)
(0.146419 -0.0336783 -1.89956e-19)
(0.137437 -0.0250757 1.41132e-19)
(0.127542 -0.0196906 0)
(0.12025 -0.0150484 -4.64471e-20)
(0.115023 -0.0107936 -1.86597e-23)
(0.115673 -0.00815182 -4.57595e-20)
(0.212516 -0.00533503 -4.51707e-20)
(0.231603 -0.120185 -4.72559e-20)
(0.148336 -0.0401432 0)
(0.173915 -0.031113 0)
(0.14656 -0.0271197 0)
(0.137956 -0.0210767 1.40444e-19)
(0.128301 -0.0163881 -9.32743e-20)
(0.121163 -0.0126309 -1.42885e-23)
(0.115978 -0.00920918 -4.63719e-20)
(0.116837 -0.0073184 -2.30795e-20)
(0.215455 -0.0060336 -2.28752e-20)
(0.210972 -0.116016 2.23377e-21)
(0.156688 -0.0277946 -1.38866e-19)
(0.169762 -0.0293773 -9.29996e-20)
(0.146303 -0.0213463 9.29612e-20)
(0.137815 -0.0177223 -4.65345e-20)
(0.128586 -0.0134739 0)
(0.121644 -0.0105047 -4.66011e-20)
(0.11649 -0.00781698 9.32466e-20)
(0.117328 -0.006423 -4.66307e-20)
(0.217695 -0.00645313 4.63887e-20)
(0.195427 -0.0985894 -3.612e-19)
(0.167148 -0.0177258 4.55991e-20)
(0.167756 -0.0271062 -3.91418e-22)
(0.147629 -0.0160868 9.21595e-20)
(0.138354 -0.0146846 0)
(0.129282 -0.0107959 0)
(0.122401 -0.00854715 0)
(0.117272 -0.0065152 4.68358e-20)
(0.118087 -0.00546189 0)
(0.220304 -0.00646369 0)
(0.185936 -0.077603 0)
(0.177459 -0.00952185 1.3495e-19)
(0.166265 -0.0236342 -9.05894e-20)
(0.149386 -0.0111493 -9.16245e-20)
(0.138991 -0.0116526 9.21066e-20)
(0.129938 -0.00820202 4.64599e-20)
(0.123006 -0.00665401 -4.66922e-20)
(0.117856 -0.00523895 -1.64564e-19)
(0.118583 -0.00445266 1.18297e-20)
(0.222716 -0.0060663 -3.5503e-20)
(0.179521 -0.0570633 0)
(0.186021 -0.00309802 -4.44654e-20)
(0.164579 -0.0187618 -2.25518e-20)
(0.150978 -0.00660184 0)
(0.139525 -0.00850173 2.30358e-20)
(0.130492 -0.00562393 -6.95433e-20)
(0.123442 -0.004754 7.01903e-20)
(0.118219 -0.00392482 2.35907e-20)
(0.118747 -0.00337603 -2.37693e-20)
(0.224626 -0.00529477 4.76627e-20)
(0.175686 -0.0377644 4.33264e-20)
(0.192489 0.00173372 4.4329e-20)
(0.163139 -0.0126519 -1.10175e-20)
(0.152359 -0.00246197 1.13471e-20)
(0.139948 -0.00518052 2.29408e-20)
(0.130935 -0.00303639 3.47827e-20)
(0.123747 -0.00281511 -1.17084e-20)
(0.118441 -0.00254273 -1.18195e-20)
(0.11873 -0.002237 2.38473e-20)
(0.226087 -0.00421506 1.19834e-20)
(0.173768 -0.0196388 -1.08804e-20)
(0.196704 0.0054243 1.09955e-20)
(0.161934 -0.00566824 -1.11959e-20)
(0.153287 0.00133082 -1.13314e-20)
(0.140087 -0.00168597 1.14745e-20)
(0.131139 -0.000438811 -2.31705e-20)
(0.123845 -0.000835368 1.75735e-20)
(0.118497 -0.00109484 5.91796e-21)
(0.118581 -0.00105679 0)
(0.227059 -0.00290541 -1.20102e-20)
(0.171979 -0.00247489 1.08577e-20)
(0.198486 0.00843785 -1.09751e-20)
(0.160698 0.00176641 -1.11835e-20)
(0.153447 0.00485569 -1.13273e-20)
(0.139752 0.00191993 -1.14772e-20)
(0.130981 0.00214268 -1.67985e-23)
(0.123667 0.00116489 5.8581e-21)