/*--------------------------------*- C++ -*----------------------------------*\
  =========                 |
  \\      /  F ield         | OpenFOAM: The Open Source CFD Toolbox
   \\    /   O peration     | Website:  https://openfoam.org
    \\  /    A nd           | Version:  7
     \\/     M anipulation  |
\*---------------------------------------------------------------------------*/
FoamFile
{
    version     2.0;
    format      ascii;
    class       volScalarField;
    location    "9.9";
    object      p;
}
// * * * * * * * * * * * * * * * * * * * * * * * * * * * * * * * * * * * * * //

dimensions      [0 2 -2 0 0 0 0];

internalField   nonuniform List<scalar> 
2000
(
0.109265
0.113267
0.116169
0.119392
0.122733
0.126093
0.129419
0.132663
0.135784
0.138788
0.108158
0.112402
0.11541
0.11867
0.121971
0.125224
0.12839
0.131427
0.134281
0.137061
0.107065
0.111586
0.114735
0.118067
0.12136
0.124534
0.127561
0.130407
0.133001
0.135527
0.106012
0.110827
0.114145
0.11758
0.120898
0.12402
0.126935
0.12961
0.131959
0.1342
0.10497
0.110104
0.11362
0.117191
0.120565
0.12367
0.126502
0.129038
0.131168
0.133095
0.103894
0.109386
0.113132
0.116872
0.120337
0.123458
0.126243
0.128683
0.130641
0.132238
0.102734
0.108642
0.112651
0.116592
0.120178
0.123349
0.126125
0.128517
0.130379
0.131667
0.101438
0.10784
0.112142
0.116309
0.120042
0.123289
0.12609
0.128495
0.130391
0.131475
0.099957
0.106945
0.111567
0.115979
0.119869
0.123206
0.126061
0.128564
0.130767
0.132008
0.09825
0.105931
0.110891
0.115548
0.119582
0.122982
0.125858
0.128455
0.131113
0.133043
0.145499
0.154384
0.160258
0.165365
0.16901
0.171962
0.17422
0.17602
0.177356
0.17826
0.143977
0.151988
0.157809
0.162774
0.166402
0.169339
0.171589
0.173352
0.174631
0.175481
0.142505
0.149697
0.155399
0.160203
0.163795
0.166713
0.168951
0.170683
0.171916
0.172723
0.141067
0.147532
0.153042
0.157668
0.161208
0.1641
0.166324
0.168029
0.169217
0.169991
0.139636
0.145505
0.15075
0.155183
0.158658
0.161513
0.163719
0.165396
0.166549
0.167287
0.138186
0.143619
0.148534
0.152763
0.156155
0.158964
0.161146
0.162794
0.163913
0.164616
0.136692
0.141858
0.146401
0.150417
0.153712
0.156463
0.158614
0.160229
0.161312
0.161977
0.135038
0.140109
0.144299
0.148117
0.151313
0.154002
0.156119
0.1577
0.158747
0.15937
0.133124
0.138174
0.142108
0.145789
0.148918
0.151561
0.153649
0.155201
0.156214
0.156792
0.132644
0.136823
0.140306
0.143772
0.146777
0.14932
0.151327
0.152803
0.153747
0.154254
0.143081
0.140179
0.140501
0.142028
0.143735
0.145379
0.146731
0.147666
0.148182
0.148405
0.13201
0.131846
0.132777
0.134278
0.135668
0.136894
0.137871
0.138524
0.138865
0.138998
0.117634
0.1204
0.122636
0.124807
0.126469
0.127697
0.128568
0.129108
0.129376
0.129476
0.101629
0.106889
0.11069
0.113897
0.116221
0.117785
0.118784
0.119354
0.119621
0.119711
0.0842032
0.0913271
0.0967632
0.101221
0.104483
0.106647
0.107961
0.10866
0.108964
0.109066
0.0659277
0.074182
0.0809526
0.0866027
0.0909058
0.0938843
0.095761
0.0968136
0.0973169
0.0974924
0.0480747
0.056507
0.0640259
0.0704496
0.075473
0.0790212
0.0812611
0.0824913
0.0830565
0.0832768
0.0298981
0.03805
0.0456038
0.0523536
0.0579168
0.0621086
0.064963
0.0666804
0.0675608
0.0678713
0.0148231
0.0211945
0.0277381
0.033394
0.0379435
0.0412875
0.0434798
0.0447218
0.0453161
0.0456013
-0.00556808
0.00159909
0.00725541
0.0120651
0.0160915
0.0192606
0.0214896
0.0228425
0.0235006
0.0236514
0.130199
0.120802
0.108235
0.0928601
0.0763365
0.0587928
0.0425299
0.0240877
0.0137217
-0.0126034
0.129494
0.118279
0.105239
0.0892879
0.0726069
0.055181
0.0395081
0.0212665
0.012813
-0.0153132
0.128502
0.115129
0.101573
0.085277
0.0686262
0.0514927
0.0364035
0.0185939
0.0115962
-0.0176095
0.126348
0.111489
0.0976412
0.0812578
0.0647944
0.0480609
0.0335439
0.016235
0.0103966
-0.0196863
0.123394
0.107678
0.0936289
0.0773056
0.0611145
0.0448467
0.0308882
0.0141473
0.00921617
-0.0217567
0.119829
0.103823
0.0896163
0.0734618
0.0576051
0.0418512
0.0284352
0.0123404
0.00803029
-0.0241207
0.11582
0.0999976
0.0856867
0.0697846
0.0543094
0.0391016
0.0262146
0.0108577
0.00694737
-0.0262314
0.111614
0.0962775
0.0819265
0.0663314
0.0512654
0.0366188
0.0242491
0.00972349
0.00624149
-0.0248075
0.107495
0.0927427
0.0784127
0.0631518
0.0485023
0.034415
0.0225472
0.00890458
0.00577142
-0.0199994
0.103734
0.0894776
0.0752095
0.060286
0.0460415
0.0324963
0.0211081
0.00834077
0.00503556
-0.0152769
0.10055
0.0865689
0.0723671
0.057764
0.0438971
0.0308625
0.0199273
0.00805329
0.0044692
-0.0116504
0.0980905
0.0841011
0.069923
0.0556057
0.0420751
0.0295033
0.0189944
0.00794922
0.00413586
-0.00878289
0.0964245
0.0821504
0.067905
0.0538234
0.0405775
0.0284071
0.0182913
0.00798431
0.00398494
-0.00644441
0.0955497
0.0807771
0.0663301
0.0524204
0.0394048
0.0275994
0.0177843
0.00812985
0.00396967
-0.00454968
0.0954007
0.0800111
0.0651983
0.0513918
0.0385529
0.0270374
0.0174885
0.00837575
0.00406351
-0.00303424
0.0958479
0.0798285
0.064482
0.0507275
0.0379857
0.0267073
0.0173798
0.00870966
0.00424658
-0.00183162
0.0967365
0.0801981
0.0641557
0.0503584
0.0376805
0.0265822
0.0174293
0.00911687
0.00450182
-0.000879763
0.0980571
0.0812912
0.0643228
0.0503341
0.0376427
0.0266549
0.017626
0.00959242
0.00482048
-0.000121574
0.0998695
0.0833894
0.0653587
0.0509193
0.0380577
0.0270452
0.0180321
0.0101716
0.00520603
0.000492429
0.100251
0.0855178
0.0669797
0.0521073
0.0390441
0.0278823
0.0187147
0.0108889
0.00563451
0.00097401
0.0948092
0.0875733
0.0699195
0.0550458
0.0419971
0.0305676
0.0208517
0.0128188
0.00668915
0.00179469
0.0904918
0.0793704
0.0640791
0.0509071
0.039516
0.0296347
0.0210909
0.0137948
0.00768896
0.00238979
0.0888877
0.076453
0.0625232
0.050582
0.0399407
0.0305615
0.0222844
0.0150227
0.00862564
0.00278226
0.0892495
0.0763401
0.0629954
0.0516876
0.0413758
0.0321493
0.0238296
0.0163431
0.00951844
0.00310787
0.0914769
0.0781627
0.0648783
0.0536324
0.0432722
0.033945
0.0254209
0.0176171
0.0103453
0.00339776
0.0950905
0.0812103
0.0676954
0.0561657
0.0455098
0.0358911
0.0270355
0.018846
0.0111179
0.00366411
0.099505
0.0848975
0.0709937
0.0589924
0.0479133
0.0378932
0.0286322
0.0200196
0.0118381
0.00390959
0.10404
0.0886634
0.0743186
0.0617689
0.0502288
0.0397742
0.0300983
0.0210752
0.012477
0.00412646
0.10785
0.0918251
0.0770969
0.0640527
0.0521138
0.0412815
0.0312575
0.0218998
0.012972
0.00429421
0.110049
0.0936407
0.0786973
0.0653554
0.0531864
0.0421307
0.0319071
0.0223582
0.0132447
0.00438466
0.124193
0.117715
0.111671
0.107928
0.107244
0.109055
0.11241
0.116314
0.119751
0.1218
0.128851
0.122323
0.116282
0.112667
0.112102
0.113995
0.117398
0.121336
0.1248
0.126907
0.131455
0.123687
0.117689
0.114925
0.115274
0.117892
0.121801
0.126084
0.129772
0.132026
0.134902
0.126123
0.119895
0.117613
0.118596
0.121804
0.126182
0.130826
0.134767
0.137179
0.138624
0.129438
0.123122
0.121152
0.122519
0.126116
0.130831
0.135753
0.139893
0.142427
0.142665
0.133056
0.126775
0.12512
0.126812
0.130731
0.135725
0.140873
0.145168
0.147785
0.146758
0.1369
0.130693
0.129325
0.131316
0.135536
0.14079
0.146143
0.15057
0.153246
0.150966
0.141002
0.134902
0.133766
0.136007
0.140498
0.145992
0.151536
0.156083
0.158798
0.15533
0.145359
0.139392
0.138442
0.140884
0.145607
0.151318
0.157038
0.161695
0.164435
0.159814
0.149934
0.144125
0.143323
0.145924
0.150843
0.15675
0.162634
0.167393
0.170147
0.164359
0.154676
0.149052
0.148369
0.151093
0.156178
0.162263
0.168301
0.173161
0.175923
0.168894
0.159521
0.154112
0.153531
0.15635
0.161575
0.167826
0.174016
0.178979
0.181749
0.173348
0.164396
0.159245
0.158759
0.161655
0.167
0.173409
0.179751
0.184826
0.18761
0.177641
0.169222
0.164379
0.163995
0.166961
0.172413
0.178977
0.185477
0.190675
0.193486
0.181697
0.173917
0.169439
0.169176
0.172217
0.177774
0.184497
0.191165
0.196501
0.199355
0.185455
0.178409
0.174352
0.174239
0.177372
0.183041
0.189932
0.196782
0.202274
0.205194
0.188859
0.182625
0.179038
0.179113
0.182368
0.188168
0.195245
0.202297
0.207964
0.210977
0.191848
0.186466
0.183356
0.183646
0.18707
0.193056
0.200369
0.207663
0.213536
0.216672
0.194414
0.189936
0.187237
0.187706
0.191323
0.197566
0.2052
0.212812
0.218944
0.222249
0.196788
0.193609
0.19154
0.192241
0.195962
0.202307
0.210107
0.217917
0.224236
0.227694
0.202121
0.20423
0.206142
0.20905
0.213384
0.219125
0.225714
0.23219
0.237401
0.240287
0.20891
0.213084
0.217556
0.222891
0.229132
0.235996
0.242909
0.249116
0.253818
0.256337
0.216315
0.221619
0.227636
0.234337
0.241576
0.248959
0.255873
0.261646
0.265732
0.267816
0.222887
0.229218
0.23632
0.243885
0.251613
0.25901
0.265448
0.270353
0.273437
0.274831
0.227993
0.235233
0.243103
0.251246
0.259242
0.266499
0.272348
0.276253
0.278119
0.278558
0.231661
0.239876
0.248359
0.256955
0.265164
0.272311
0.277646
0.280578
0.281038
0.280012
0.234456
0.243703
0.252686
0.261723
0.270202
0.277381
0.282388
0.284447
0.28325
0.279475
0.237251
0.247315
0.256666
0.266169
0.274975
0.282312
0.287136
0.28839
0.28509
0.275123
0.240947
0.2514
0.261112
0.271171
0.280349
0.287838
0.292431
0.293138
0.288763
0.268953
0.248491
0.259161
0.27021
0.282117
0.293552
0.304028
0.313502
0.320728
0.308383
0.222591
0.202084
0.205878
0.212432
0.218562
0.223838
0.227902
0.231601
0.235318
0.238183
0.24422
0.201295
0.205327
0.211825
0.217618
0.222597
0.226563
0.230127
0.233887
0.236507
0.242099
0.200119
0.205168
0.211736
0.217149
0.221675
0.225274
0.228431
0.231885
0.234304
0.239466
0.198853
0.204778
0.211331
0.216396
0.220589
0.223842
0.226648
0.229799
0.232014
0.236751
0.197642
0.204238
0.210697
0.215399
0.219333
0.222295
0.224822
0.227743
0.229781
0.234148
0.196498
0.203616
0.209866
0.214403
0.217993
0.220685
0.222971
0.225687
0.227585
0.231649
0.195434
0.202899
0.209005
0.213324
0.216606
0.219038
0.221102
0.223626
0.22541
0.229221
0.194472
0.202088
0.208105
0.212186
0.215189
0.217374
0.219231
0.221571
0.223271
0.22686
0.193628
0.20119
0.207174
0.211019
0.213764
0.215711
0.217375
0.219544
0.221178
0.224574
0.192894
0.20022
0.206241
0.209852
0.212354
0.214072
0.215552
0.217566
0.21915
0.222364
0.192256
0.199199
0.205329
0.208711
0.210984
0.212477
0.213777
0.215649
0.217195
0.220256
0.191686
0.198151
0.204456
0.207619
0.209676
0.210944
0.212064
0.2138
0.215318
0.218268
0.191135
0.1971
0.203636
0.206598
0.20845
0.209492
0.210426
0.212029
0.213534
0.216409
0.190537
0.196072
0.202871
0.205666
0.207322
0.208134
0.208872
0.210344
0.211854
0.214693
0.189804
0.195088
0.202161
0.204837
0.206308
0.206885
0.207412
0.208749
0.210288
0.213136
0.188839
0.194167
0.201498
0.204122
0.205418
0.205757
0.206054
0.207249
0.208844
0.211759
0.187554
0.193329
0.200883
0.20353
0.204664
0.204758
0.204799
0.205846
0.207531
0.210587
0.185804
0.19255
0.200308
0.203069
0.204045
0.203867
0.203603
0.204489
0.206335
0.20965
0.18307
0.191585
0.199644
0.202664
0.203519
0.203053
0.202419
0.203112
0.205205
0.208972
0.179305
0.190261
0.198688
0.202146
0.203108
0.202629
0.201841
0.202381
0.204539
0.208623
0.175432
0.188672
0.196963
0.201279
0.203291
0.204268
0.204902
0.206498
0.208394
0.210306
0.183201
0.192807
0.198764
0.201648
0.202653
0.202971
0.203658
0.205497
0.208151
0.210129
0.188593
0.196028
0.200201
0.201831
0.202051
0.202122
0.203161
0.205746
0.209405
0.211991
0.191797
0.197633
0.200463
0.201186
0.20112
0.201738
0.204252
0.209079
0.215167
0.218892
0.193809
0.198263
0.199761
0.199636
0.199579
0.201489
0.206857
0.216021
0.227023
0.233275
0.195156
0.198304
0.198403
0.197526
0.197942
0.202198
0.212378
0.228939
0.248781
0.260345
0.196606
0.198672
0.197667
0.196444
0.198253
0.206418
0.22397
0.251984
0.286461
0.30902
0.199288
0.2011
0.200122
0.19993
0.204513
0.218548
0.246371
0.291029
0.349429
0.398046
0.203647
0.206434
0.20683
0.208834
0.217374
0.238653
0.279039
0.345286
0.440305
0.546036
0.208299
0.212822
0.215616
0.221252
0.236497
0.268276
0.324375
0.419384
0.575846
0.795156
0.165692
0.176892
0.182416
0.186959
0.190349
0.19305
0.195426
0.19807
0.201134
0.20441
0.161306
0.174329
0.179943
0.184961
0.188668
0.191665
0.194236
0.196855
0.199541
0.202334
0.15891
0.172826
0.178276
0.183425
0.187097
0.190066
0.192582
0.195079
0.197519
0.199915
0.157041
0.171164
0.176504
0.181749
0.185375
0.188302
0.19074
0.193095
0.195322
0.197381
0.155227
0.169129
0.174452
0.179801
0.183427
0.186356
0.188748
0.190982
0.193012
0.194785
0.153583
0.166882
0.172241
0.17766
0.181293
0.184236
0.186598
0.18873
0.190587
0.192122
0.151916
0.16452
0.169937
0.175381
0.179019
0.181969
0.184304
0.186346
0.188058
0.189399
0.150313
0.161991
0.167557
0.172987
0.17663
0.179584
0.181894
0.183858
0.185447
0.186635
0.148686
0.159406
0.165167
0.170501
0.174148
0.177105
0.179394
0.181292
0.182781
0.183848
0.147072
0.156861
0.162723
0.167951
0.1716
0.174556
0.176828
0.178672
0.180077
0.181053
0.096288
0.104773
0.11008
0.114967
0.119106
0.122484
0.125203
0.127415
0.128994
0.128851
0.0940371
0.103454
0.109113
0.114213
0.11842
0.121729
0.124243
0.126055
0.126853
0.126006
0.0915592
0.101997
0.107994
0.113276
0.117519
0.120733
0.123045
0.124541
0.124925
0.123985
0.08892
0.100429
0.106734
0.112158
0.116395
0.119487
0.121589
0.122805
0.122922
0.122002
0.0862044
0.0987916
0.105358
0.110873
0.11506
0.117997
0.119879
0.120839
0.120765
0.119889
0.0835245
0.0971431
0.103911
0.109457
0.113546
0.116298
0.117949
0.118669
0.118444
0.117592
0.081017
0.0955612
0.102454
0.107967
0.111909
0.114447
0.115857
0.116342
0.115975
0.115099
0.0788425
0.094144
0.101073
0.106484
0.110235
0.112532
0.11369
0.113937
0.113412
0.112449
0.0771732
0.0930081
0.0998744
0.105115
0.108633
0.110668
0.111562
0.111564
0.110856
0.10974
0.0761183
0.0922429
0.0989536
0.103966
0.107221
0.108981
0.109607
0.109356
0.108435
0.107109
0.0756538
0.0918556
0.0983602
0.103117
0.106103
0.107593
0.107955
0.10745
0.106289
0.104718
0.0763072
0.0922007
0.0983789
0.102812
0.105496
0.1067
0.106787
0.106012
0.104579
0.102738
0.0781528
0.0933452
0.0990958
0.103154
0.105514
0.106423
0.106224
0.105162
0.103425
0.101306
0.0812671
0.0953747
0.100615
0.104259
0.106276
0.106876
0.106375
0.104999
0.102922
0.100523
0.085735
0.0983867
0.103043
0.106232
0.107882
0.108151
0.107318
0.105588
0.103124
0.100436
0.0915996
0.10245
0.106454
0.109147
0.110399
0.110306
0.109104
0.106967
0.104056
0.101043
0.098849
0.107593
0.110885
0.11304
0.113858
0.113368
0.111754
0.109157
0.105719
0.102289
0.107414
0.1138
0.116326
0.117903
0.118253
0.117333
0.11527
0.112147
0.108036
0.104003
0.117165
0.121003
0.122722
0.123686
0.123548
0.122194
0.119675
0.11595
0.110905
0.105841
0.127906
0.129084
0.129967
0.130292
0.129672
0.127951
0.125124
0.121012
0.115255
0.109136
0.139433
0.137898
0.137918
0.137573
0.136474
0.134475
0.131615
0.127842
0.123277
0.120686
0.15169
0.147325
0.146401
0.14532
0.143687
0.141355
0.138362
0.134739
0.130816
0.128693
0.1642
0.157055
0.155162
0.153297
0.151071
0.148321
0.145059
0.141341
0.137475
0.134823
0.176593
0.166829
0.163968
0.161293
0.158429
0.155201
0.15159
0.147647
0.143616
0.140427
0.188555
0.176399
0.172598
0.16911
0.165593
0.16186
0.157861
0.153636
0.149367
0.1457
0.199793
0.185528
0.180841
0.176572
0.172421
0.168194
0.163815
0.159306
0.154793
0.150742
0.210042
0.193996
0.188508
0.183525
0.178796
0.174124
0.169409
0.164658
0.15995
0.155601
0.219079
0.201615
0.195439
0.189839
0.184619
0.179582
0.174608
0.169692
0.164873
0.160339
0.226723
0.208227
0.2015
0.195409
0.189812
0.184514
0.179379
0.174391
0.169563
0.16497
0.232802
0.213692
0.206583
0.200153
0.194313
0.188874
0.183689
0.178733
0.174003
0.169473
0.237166
0.217897
0.210611
0.204016
0.198083
0.192633
0.187513
0.182694
0.178163
0.173812
0.240067
0.220912
0.213582
0.206967
0.201079
0.195744
0.190802
0.186223
0.181992
0.177932
0.241454
0.222706
0.215483
0.209003
0.203298
0.198199
0.193543
0.189297
0.185453
0.18178
0.241352
0.223302
0.21634
0.210141
0.204748
0.199998
0.195723
0.191889
0.188503
0.1853
0.239854
0.222764
0.2162
0.210414
0.205451
0.201147
0.197335
0.193981
0.191107
0.188438
0.237087
0.221183
0.215135
0.209877
0.205442
0.201667
0.198386
0.195562
0.193238
0.191146
0.233202
0.218665
0.213232
0.208597
0.204771
0.201591
0.198894
0.196639
0.194883
0.193392
0.228363
0.215336
0.210594
0.206653
0.203498
0.200964
0.198889
0.197229
0.196044
0.195147
0.22275
0.211328
0.207329
0.204133
0.201693
0.199837
0.198411
0.19736
0.196728
0.196378
0.216549
0.206782
0.203554
0.20113
0.199427
0.198269
0.197511
0.197087
0.196998
0.197179
0.209923
0.201825
0.199374
0.197729
0.196768
0.196314
0.196236
0.196484
0.197064
0.198204
0.202912
0.196537
0.19488
0.194013
0.193784
0.19401
0.194569
0.195427
0.196608
0.198125
0.195773
0.191083
0.190196
0.190078
0.190548
0.191414
0.192551
0.193929
0.195573
0.197309
0.188684
0.185589
0.185424
0.186009
0.187133
0.188594
0.190263
0.192106
0.194148
0.196109
0.181777
0.18015
0.18065
0.181881
0.183609
0.185621
0.187782
0.190052
0.192453
0.194665
0.175155
0.174851
0.175946
0.177762
0.180039
0.182556
0.185172
0.187835
0.190565
0.193044
0.168907
0.169757
0.171374
0.173707
0.176476
0.17945
0.182482
0.185509
0.188541
0.191298
0.16309
0.16491
0.166978
0.169758
0.172959
0.176341
0.179753
0.183114
0.186419
0.189452
0.157739
0.160338
0.162785
0.165946
0.169519
0.173261
0.177013
0.180679
0.184229
0.187525
0.152966
0.156106
0.158838
0.162302
0.166183
0.170232
0.174283
0.178221
0.181987
0.185548
0.149015
0.152363
0.155233
0.158892
0.162998
0.167289
0.171588
0.175758
0.179704
0.183515
0.145295
0.148808
0.151807
0.155628
0.159919
0.16441
0.168919
0.173288
0.177377
0.181415
0.141906
0.145506
0.148596
0.152534
0.156963
0.161608
0.166285
0.170814
0.175006
0.179235
0.138887
0.142481
0.145612
0.149617
0.154135
0.15889
0.16369
0.168338
0.172587
0.176959
0.136198
0.139707
0.142839
0.146869
0.151436
0.156257
0.16114
0.165866
0.17012
0.174571
0.133794
0.137159
0.14026
0.144282
0.148863
0.153716
0.158644
0.163409
0.167616
0.17206
0.131631
0.134811
0.13786
0.141848
0.146416
0.151273
0.156219
0.160996
0.165111
0.169445
0.129666
0.132641
0.135622
0.139559
0.144094
0.148937
0.153887
0.158667
0.162663
0.166747
0.127858
0.130625
0.133531
0.137405
0.141897
0.146719
0.151664
0.156438
0.160275
0.163852
0.126174
0.128745
0.131575
0.135381
0.139828
0.144642
0.149611
0.154442
0.15836
0.161558
0.124565
0.126972
0.129726
0.133462
0.137867
0.142707
0.147811
0.15314
0.159044
0.165559
0.122894
0.125243
0.127952
0.131619
0.135954
0.140742
0.1458
0.151067
0.156948
0.162992
0.121225
0.123586
0.126261
0.12985
0.134078
0.138734
0.143627
0.148649
0.154078
0.159361
0.119571
0.122005
0.124654
0.12816
0.13226
0.136753
0.141457
0.146246
0.151271
0.1563
0.117929
0.120495
0.123131
0.126558
0.130524
0.134843
0.139347
0.143935
0.148757
0.15336
0.116302
0.119057
0.121698
0.125053
0.128886
0.133025
0.137317
0.141676
0.146171
0.150188
0.114705
0.117696
0.12036
0.123657
0.127365
0.131327
0.135411
0.139543
0.143747
0.147484
0.113153
0.116415
0.119123
0.122379
0.125974
0.129768
0.133653
0.137562
0.141497
0.145056
0.111662
0.115214
0.117989
0.121224
0.124723
0.128363
0.132056
0.135741
0.139406
0.142794
0.110312
0.114132
0.11698
0.120211
0.123628
0.127125
0.130634
0.134099
0.137493
0.1407
)
;

boundaryField
{
    inlet
    {
        type            zeroGradient;
    }
    outlet
    {
        type            fixedValue;
        value           uniform 0;
    }
    cylinder
    {
        type            zeroGradient;
    }
    top
    {
        type            symmetryPlane;
    }
    bottom
    {
        type            symmetryPlane;
    }
    defaultFaces
    {
        type            empty;
    }
}


// ************************************************************************* //
