/*--------------------------------*- C++ -*----------------------------------*\
  =========                 |
  \\      /  F ield         | OpenFOAM: The Open Source CFD Toolbox
   \\    /   O peration     | Website:  https://openfoam.org
    \\  /    A nd           | Version:  7
     \\/     M anipulation  |
\*---------------------------------------------------------------------------*/
FoamFile
{
    version     2.0;
    format      ascii;
    class       volScalarField;
    location    "0.4";
    object      p;
}
// * * * * * * * * * * * * * * * * * * * * * * * * * * * * * * * * * * * * * //

dimensions      [0 2 -2 0 0 0 0];

internalField   nonuniform List<scalar> 
400
(
3.50739e-06
-0.00590047
-0.0130507
-0.0184956
-0.020518
-0.0183258
-0.0118555
-0.00155352
0.0117839
0.0271147
0.0432301
0.0588282
0.0726007
0.0833431
0.0900939
0.0923072
0.0900629
0.0842903
0.0768978
0.0710251
0.0058279
-0.000243749
-0.00577763
-0.00949032
-0.0105384
-0.0083714
-0.00291595
0.00551317
0.0163211
0.0287053
0.0417171
0.0543277
0.0655059
0.074313
0.0800152
0.0822114
0.0809826
0.0769876
0.071257
0.0652408
0.0133949
0.00496234
-0.00101116
-0.00442766
-0.00528032
-0.00327224
0.00159281
0.00901549
0.0184865
0.0293298
0.0407416
0.0518415
0.0617364
0.0696012
0.0747704
0.0768407
0.0758022
0.0720587
0.065833
0.0574359
0.0202055
0.0085931
0.00120223
-0.00267926
-0.00373846
-0.00190292
0.00271338
0.00976579
0.0187604
0.0290738
0.0399695
0.0506301
0.0602075
0.0678891
0.0729757
0.0749727
0.073732
0.0694364
0.0616632
0.0499979
0.024592
0.009646
0.000569815
-0.00398899
-0.0053112
-0.00351787
0.00116343
0.00832124
0.0174459
0.0279298
0.0390622
0.0500437
0.0600192
0.0681325
0.0735923
0.0757616
0.0743262
0.0692666
0.0596132
0.0444092
0.025297
0.00699824
-0.00381929
-0.00905229
-0.0105162
-0.00850624
-0.00336419
0.00441953
0.0143
0.0256617
0.0377921
0.049877
0.0610172
0.0702682
0.0766972
0.0794761
0.0780887
0.0723079
0.0606563
0.0417316
0.021245
-0.000438604
-0.0129477
-0.0186961
-0.020028
-0.0174153
-0.0113214
-0.00232578
0.00898044
0.0219617
0.03589
0.0499191
0.0630811
0.0743087
0.0824813
0.0865235
0.0856613
0.0794171
0.0657688
0.042877
0.0113325
-0.0138181
-0.0278809
-0.0338295
-0.0345933
-0.0308518
-0.0232097
-0.0123459
0.00109949
0.0164733
0.0330361
0.0499103
0.0660526
0.0802515
0.0911559
0.0973766
0.0977978
0.0915977
0.0760779
0.0488759
-0.00572985
-0.0344894
-0.0498644
-0.0555085
-0.055069
-0.0494999
-0.0395825
-0.0261073
-0.00975659
0.0088176
0.0288889
0.0495734
0.069768
0.0881148
0.102998
0.112638
0.11546
0.110139
0.0930505
0.0611094
-0.0315573
-0.064121
-0.0803938
-0.0849471
-0.0823854
-0.074053
-0.0609609
-0.0440228
-0.0239441
-0.00133596
0.0231392
0.0486456
0.074069
0.0979324
0.118342
0.133051
0.139874
0.136743
0.118691
0.0815455
-0.0682811
-0.104868
-0.121296
-0.123505
-0.117465
-0.10509
-0.087689
-0.0663036
-0.0416221
-0.0141474
0.0156063
0.0469445
0.0788344
0.109756
0.137567
0.159499
0.172582
0.173668
0.155801
0.113058
-0.118893
-0.159636
-0.174831
-0.172641
-0.161081
-0.142882
-0.119722
-0.0927481
-0.0625555
-0.0294318
0.00638233
0.0444737
0.0840422
0.123671
0.16108
0.192989
0.215487
0.223919
0.208349
0.159936
-0.187946
-0.232522
-0.243809
-0.233801
-0.213614
-0.1871
-0.15633
-0.122468
-0.0858709
-0.0464495
-0.00399616
0.0415502
0.0898416
0.139809
0.189271
0.234587
0.270859
0.291445
0.282029
0.228817
-0.283064
-0.329541
-0.331642
-0.30811
-0.274627
-0.236388
-0.195725
-0.153579
-0.109812
-0.063718
-0.0144108
0.0388883
0.096572
0.158278
0.222347
0.2852
0.341164
0.381278
0.38511
0.330525
-0.418187
-0.459747
-0.442072
-0.395627
-0.342072
-0.287709
-0.234594
-0.18291
-0.131588
-0.0789576
-0.0231795
0.0375166
0.104597
0.178876
0.259879
0.34493
0.428405
0.499308
0.529618
0.483716
-0.619425
-0.636581
-0.578332
-0.494082
-0.411226
-0.335654
-0.267777
-0.205969
-0.147524
-0.0893568
-0.0283862
0.0384038
0.113875
0.200549
0.300048
0.412061
0.532933
0.651423
0.732443
0.720595
-0.935598
-0.878179
-0.741681
-0.598055
-0.474389
-0.372624
-0.288843
-0.217738
-0.153925
-0.0924285
-0.0286763
0.041752
0.123335
0.220801
0.339001
0.482243
0.652265
0.841649
1.01496
1.09628
-1.48059
-1.20196
-0.920999
-0.692545
-0.517675
-0.3877
-0.290193
-0.213424
-0.148161
-0.0872088
-0.0245275
0.0455593
0.129101
0.233298
0.367362
0.543122
0.77263
1.06029
1.39819
1.73407
-2.57157
-1.60192
-1.04347
-0.714827
-0.497797
-0.353385
-0.255528
-0.184282
-0.126594
-0.0737828
-0.019209
0.0430653
0.119763
0.219652
0.356004
0.549822
0.829812
1.23507
1.88111
2.95926
-4.4451
-2.01727
-0.969795
-0.564337
-0.357043
-0.239032
-0.169355
-0.123295
-0.0871832
-0.0533683
-0.0166765
0.0275142
0.0842987
0.161194
0.271578
0.441362
0.718804
1.2215
2.38402
4.92939
)
;

boundaryField
{
    movingWall
    {
        type            zeroGradient;
    }
    fixedWalls
    {
        type            zeroGradient;
    }
    frontAndBack
    {
        type            empty;
    }
}


// ************************************************************************* //
