0 	0.516667 	0.5 	0.0393861 	0.000459083 	-9.10914e-22
0 	0.55 	0.5 	0.107104 	0.00392481 	-6.40164e-23
0 	0.583333 	0.5 	0.16642 	0.0104567 	-9.8513e-22
0 	0.616667 	0.5 	0.218577 	0.0179836 	-1.08353e-21
0 	0.65 	0.5 	0.264555 	0.0259497 	-9.71752e-22
0 	0.683333 	0.5 	0.305119 	0.0338243 	-1.41868e-22
0 	0.716667 	0.5 	0.340888 	0.0412804 	-1.15651e-21
0 	0.75 	0.5 	0.372384 	0.0481181 	-1.02607e-21
0 	0.783333 	0.5 	0.40006 	0.0542236 	-1.48431e-22
0 	0.816667 	0.5 	0.424317 	0.0595456 	-1.19857e-21
0 	0.85 	0.5 	0.445514 	0.064076 	0
0 	0.883333 	0.5 	0.463979 	0.0678367 	-1.21235e-21
0 	0.916667 	0.5 	0.480011 	0.0708699 	-3.05151e-22
0 	0.95 	0.5 	0.493884 	0.0732305 	-9.12032e-22
0 	0.983333 	0.5 	0.505848 	0.0749811 	-1.2154e-21
0 	1.01667 	0.5 	0.51613 	0.0761877 	-1.21244e-21
0 	1.05 	0.5 	0.524936 	0.0769169 	6.05634e-22
0 	1.08333 	0.5 	0.532453 	0.0772335 	-1.80352e-21
0 	1.11667 	0.5 	0.538849 	0.0771996 	5.98358e-22
0 	1.15 	0.5 	0.544274 	0.076873 	-1.18771e-21
0 	1.18333 	0.5 	0.54886 	0.0763067 	5.89057e-22
0 	1.21667 	0.5 	0.552726 	0.075549 	-1.16421e-21
0 	1.25 	0.5 	0.555976 	0.0746429 	0
0 	1.28333 	0.5 	0.5587 	0.0736267 	0
0 	1.31667 	0.5 	0.560977 	0.0725335 	-1.12672e-21
0 	1.35 	0.5 	0.562877 	0.0713924 	0
0 	1.38333 	0.5 	0.564459 	0.0702279 	-1.0988e-21
0 	1.41667 	0.5 	0.565772 	0.0690607 	0
0 	1.45 	0.5 	0.566861 	0.0679077 	-1.06932e-21
0 	1.48333 	0.5 	0.56776 	0.06679 	1.18889e-21
0 	1.575 	0.5 	0.569805 	0.0638792 	0
0 	1.725 	0.5 	0.572941 	0.0594065 	-3.39467e-22
0 	1.875 	0.5 	0.577251 	0.0556987 	-3.31202e-22
0 	2.025 	0.5 	0.583306 	0.0534949 	0
0 	2.175 	0.5 	0.590777 	0.0523361 	-3.11185e-22
0 	2.325 	0.5 	0.599418 	0.0522898 	0
