/*--------------------------------*- C++ -*----------------------------------*\
  =========                 |
  \\      /  F ield         | OpenFOAM: The Open Source CFD Toolbox
   \\    /   O peration     | Website:  https://openfoam.org
    \\  /    A nd           | Version:  7
     \\/     M anipulation  |
\*---------------------------------------------------------------------------*/
FoamFile
{
    version     2.0;
    format      ascii;
    class       volScalarField;
    location    "8.3";
    object      p;
}
// * * * * * * * * * * * * * * * * * * * * * * * * * * * * * * * * * * * * * //

dimensions      [0 2 -2 0 0 0 0];

internalField   nonuniform List<scalar> 
32000
(
0.268478
0.269129
0.269483
0.269828
0.270146
0.270448
0.27072
0.270968
0.271215
0.27149
0.27181
0.272184
0.272621
0.273131
0.273728
0.274423
0.275229
0.276157
0.27722
0.278431
0.279798
0.281324
0.28301
0.284852
0.286846
0.288986
0.291266
0.293677
0.296206
0.298842
0.301575
0.304393
0.307282
0.310229
0.313219
0.316239
0.319276
0.322324
0.325356
0.328311
0.268677
0.269303
0.269632
0.269945
0.270232
0.270503
0.270746
0.270965
0.271187
0.271434
0.271723
0.272064
0.272466
0.27294
0.2735
0.274156
0.274917
0.275797
0.276807
0.277961
0.279267
0.280729
0.282346
0.284112
0.286025
0.288081
0.290275
0.292598
0.295041
0.297592
0.300239
0.302971
0.305777
0.308642
0.311553
0.314496
0.31746
0.320436
0.323394
0.326286
0.268884
0.26948
0.269783
0.270066
0.270322
0.270561
0.270775
0.270968
0.271166
0.271389
0.271649
0.271959
0.272328
0.272769
0.273294
0.273913
0.274636
0.275472
0.276436
0.277538
0.278789
0.280192
0.281742
0.283438
0.285274
0.287249
0.28936
0.2916
0.293958
0.296424
0.298987
0.301635
0.304357
0.307139
0.309969
0.312833
0.315722
0.318625
0.321506
0.324333
0.269088
0.269647
0.269928
0.270185
0.270411
0.27062
0.270806
0.270977
0.271154
0.271355
0.271591
0.271872
0.272211
0.272622
0.273116
0.273702
0.274389
0.275187
0.276109
0.277166
0.278367
0.279714
0.281203
0.28283
0.284593
0.286492
0.288524
0.290682
0.292958
0.295342
0.297821
0.300386
0.303023
0.305722
0.30847
0.311254
0.314065
0.316893
0.319695
0.322454
0.269298
0.269821
0.270081
0.270312
0.27051
0.270689
0.270849
0.270998
0.271157
0.271338
0.271551
0.271806
0.272118
0.272501
0.272966
0.273522
0.274178
0.274943
0.275828
0.276845
0.278
0.279295
0.280725
0.282288
0.283982
0.285809
0.287765
0.289846
0.292042
0.294345
0.296742
0.299224
0.301778
0.304393
0.307058
0.309761
0.312493
0.315243
0.317963
0.320652
0.269514
0.269995
0.270233
0.27044
0.270611
0.270762
0.270899
0.27103
0.271171
0.271334
0.271527
0.27176
0.272049
0.272407
0.272846
0.273376
0.274005
0.274741
0.275594
0.276575
0.277689
0.278935
0.28031
0.281812
0.283442
0.285201
0.287086
0.289092
0.291212
0.293435
0.295752
0.298151
0.300623
0.303155
0.305736
0.308357
0.311008
0.313679
0.316314
0.31893
0.269736
0.270174
0.270391
0.270574
0.27072
0.270846
0.27096
0.271074
0.2712
0.271347
0.271521
0.271736
0.272005
0.272342
0.272759
0.273266
0.273872
0.274583
0.275409
0.276359
0.277435
0.278635
0.279959
0.281405
0.282975
0.28467
0.286487
0.288423
0.290468
0.292614
0.294851
0.29717
0.29956
0.302009
0.304507
0.307044
0.309613
0.312202
0.314751
0.317291
0.269963
0.270357
0.270552
0.270713
0.270836
0.27094
0.271034
0.271131
0.271243
0.271375
0.271535
0.271735
0.271988
0.272307
0.272705
0.273193
0.27378
0.274471
0.275275
0.276197
0.277238
0.278396
0.279673
0.281067
0.282582
0.284217
0.285971
0.287838
0.289811
0.291882
0.294042
0.296282
0.29859
0.300957
0.303371
0.305824
0.30831
0.310815
0.313275
0.315737
0.270195
0.270543
0.270717
0.270856
0.270959
0.271043
0.27112
0.271202
0.2713
0.27142
0.271569
0.271758
0.271998
0.272302
0.272685
0.273158
0.27373
0.274406
0.275191
0.276089
0.277098
0.278219
0.279452
0.2808
0.282263
0.283843
0.285537
0.287339
0.289243
0.291241
0.293326
0.295488
0.297716
0.300001
0.302331
0.3047
0.307101
0.30952
0.31189
0.314271
0.270432
0.270732
0.270885
0.271004
0.271088
0.271155
0.271216
0.271285
0.271371
0.271482
0.271623
0.271804
0.272034
0.272328
0.272699
0.273162
0.273723
0.274388
0.275158
0.276034
0.277016
0.278103
0.279298
0.280603
0.28202
0.283548
0.285185
0.286926
0.288764
0.290692
0.292704
0.294789
0.296939
0.299141
0.301388
0.303672
0.305987
0.308319
0.310598
0.312895
0.270671
0.270922
0.271055
0.271156
0.271224
0.271276
0.271323
0.27138
0.271457
0.271561
0.271697
0.271872
0.272097
0.272384
0.272748
0.273204
0.27376
0.274417
0.275175
0.276033
0.276991
0.278049
0.27921
0.280477
0.281851
0.283332
0.284917
0.286599
0.288374
0.290235
0.292175
0.294186
0.296258
0.29838
0.300543
0.302741
0.30497
0.307215
0.3094
0.311611
0.270914
0.271113
0.271226
0.27131
0.271365
0.271404
0.271439
0.271487
0.271557
0.271657
0.27179
0.271964
0.272186
0.27247
0.272833
0.273287
0.27384
0.274492
0.275241
0.276085
0.277023
0.278056
0.279188
0.280422
0.281758
0.283196
0.28473
0.286357
0.288072
0.289868
0.29174
0.293679
0.295674
0.297716
0.299797
0.301909
0.304051
0.306207
0.308298
0.310422
0.271159
0.271305
0.271399
0.271467
0.271509
0.271537
0.271564
0.271604
0.27167
0.271768
0.271902
0.272077
0.2723
0.272587
0.272952
0.273408
0.273962
0.274611
0.275354
0.276187
0.27711
0.278124
0.279232
0.280437
0.281739
0.283137
0.284625
0.2862
0.287857
0.289593
0.291399
0.293267
0.295188
0.297151
0.299149
0.301177
0.30323
0.305297
0.307295
0.309329
0.271407
0.271499
0.271573
0.271626
0.271656
0.271676
0.271696
0.271732
0.271796
0.271894
0.272031
0.27221
0.27244
0.272733
0.273105
0.273568
0.274125
0.274774
0.275514
0.27634
0.277252
0.278251
0.27934
0.28052
0.281792
0.283154
0.284599
0.286126
0.28773
0.289407
0.291151
0.292951
0.294798
0.296684
0.298601
0.300543
0.30251
0.304487
0.30639
0.308333
0.271658
0.271694
0.271748
0.271785
0.271805
0.271818
0.271835
0.271869
0.271933
0.272035
0.272177
0.272363
0.272602
0.272907
0.273291
0.273763
0.274326
0.274979
0.275718
0.276541
0.277447
0.278436
0.27951
0.28067
0.281916
0.283245
0.284652
0.286133
0.287688
0.28931
0.290994
0.292728
0.294504
0.296314
0.298151
0.30001
0.301889
0.303778
0.305587
0.307437
0.27191
0.271889
0.271923
0.271944
0.271955
0.271963
0.271978
0.272013
0.272081
0.272187
0.272337
0.272535
0.272788
0.273108
0.273508
0.273992
0.274565
0.275223
0.275965
0.276789
0.277693
0.278676
0.27974
0.280884
0.282109
0.283409
0.28478
0.286221
0.28773
0.289301
0.290927
0.292598
0.294305
0.296041
0.2978
0.299576
0.30137
0.30317
0.304886
0.306642
0.272164
0.272085
0.272098
0.272101
0.272104
0.27211
0.272126
0.272165
0.272238
0.272352
0.272512
0.272724
0.272995
0.273335
0.273753
0.274253
0.274837
0.275504
0.276253
0.277082
0.277988
0.27897
0.280028
0.281161
0.282367
0.283642
0.284983
0.286388
0.287854
0.289377
0.290949
0.292559
0.2942
0.295864
0.297546
0.299241
0.300951
0.302664
0.304288
0.30595
0.272419
0.27228
0.272271
0.272257
0.272252
0.272257
0.272277
0.272322
0.272403
0.272527
0.272701
0.272931
0.273223
0.273586
0.274025
0.274544
0.275143
0.275822
0.276582
0.277419
0.278331
0.279315
0.280371
0.281496
0.282688
0.283943
0.285257
0.28663
0.288058
0.289536
0.291056
0.292609
0.294186
0.295782
0.297389
0.299006
0.300633
0.30226
0.303794
0.30536
0.272673
0.272473
0.272441
0.27241
0.272397
0.272403
0.272429
0.272483
0.272575
0.272712
0.272902
0.273153
0.27347
0.273858
0.274321
0.274861
0.275479
0.276174
0.276948
0.277798
0.278719
0.27971
0.280767
0.281888
0.28307
0.284308
0.2856
0.286944
0.288338
0.289774
0.291246
0.292745
0.294262
0.295791
0.297328
0.298869
0.300416
0.301958
0.303404
0.304874
0.272924
0.272664
0.272607
0.272558
0.272539
0.272547
0.272582
0.272648
0.272752
0.272905
0.273115
0.273389
0.273733
0.274149
0.274639
0.275203
0.275842
0.276558
0.27735
0.278215
0.27915
0.28015
0.281212
0.282333
0.283508
0.284734
0.286008
0.287328
0.28869
0.290089
0.291516
0.292964
0.294424
0.295891
0.29736
0.298828
0.300297
0.301758
0.303118
0.304492
0.27317
0.272848
0.272768
0.2727
0.272676
0.272688
0.272733
0.272813
0.272933
0.273105
0.273337
0.273638
0.274011
0.274457
0.274975
0.275567
0.276231
0.27697
0.277783
0.278668
0.279618
0.280631
0.281702
0.282826
0.283999
0.285216
0.286476
0.287775
0.28911
0.290475
0.291862
0.293263
0.294671
0.296079
0.297484
0.298882
0.300276
0.301658
0.302935
0.304214
0.273407
0.273024
0.27292
0.272835
0.272806
0.272824
0.272881
0.272977
0.273116
0.273309
0.273567
0.273896
0.2743
0.274778
0.275328
0.275949
0.276642
0.277408
0.278245
0.279152
0.280122
0.28115
0.282233
0.283363
0.284537
0.28575
0.286999
0.288282
0.289593
0.290929
0.292279
0.293638
0.294997
0.296351
0.297696
0.299028
0.300351
0.301656
0.302854
0.304039
0.273633
0.273188
0.27306
0.27296
0.272928
0.272952
0.273023
0.273137
0.273298
0.273515
0.273801
0.274161
0.274599
0.27511
0.275693
0.276347
0.277071
0.277866
0.278731
0.279663
0.280655
0.281703
0.2828
0.283941
0.285119
0.28633
0.287573
0.288842
0.290135
0.291445
0.292764
0.294085
0.2954
0.296704
0.297992
0.299263
0.300518
0.301752
0.302875
0.303966
0.273844
0.273338
0.273188
0.273073
0.273039
0.273072
0.273159
0.273293
0.273476
0.27372
0.274036
0.27443
0.274902
0.275449
0.276068
0.276756
0.277514
0.278342
0.279237
0.280196
0.281213
0.282283
0.283398
0.284552
0.285738
0.286952
0.288191
0.289452
0.290729
0.292018
0.29331
0.294597
0.295872
0.297131
0.298369
0.299583
0.300775
0.30194
0.302994
0.303995
0.274035
0.27347
0.273299
0.273172
0.273138
0.273181
0.273284
0.27344
0.273649
0.273922
0.27427
0.274699
0.275208
0.275792
0.276448
0.277173
0.277967
0.278829
0.279757
0.280746
0.281792
0.282886
0.284022
0.285192
0.286388
0.287608
0.288847
0.290103
0.29137
0.292641
0.29391
0.295168
0.296408
0.297627
0.298819
0.299981
0.301115
0.302218
0.303207
0.30412
0.274205
0.273583
0.273393
0.273255
0.273223
0.273277
0.273398
0.273577
0.273813
0.274118
0.2745
0.274965
0.275512
0.276135
0.27683
0.277594
0.278426
0.279325
0.280287
0.281309
0.282385
0.283506
0.284666
0.285853
0.287064
0.288292
0.289534
0.290788
0.292048
0.293307
0.294556
0.29579
0.297
0.298184
0.299336
0.300452
0.301534
0.30258
0.303511
0.30434
0.27435
0.273673
0.273466
0.273319
0.273291
0.273357
0.273497
0.2737
0.273966
0.274304
0.274722
0.275226
0.275812
0.276475
0.27721
0.278015
0.278887
0.279824
0.280823
0.281879
0.282986
0.284138
0.285322
0.286531
0.287757
0.288996
0.290246
0.291501
0.292757
0.294006
0.295241
0.296454
0.29764
0.298793
0.299911
0.300988
0.302024
0.303019
0.3039
0.30465
0.274468
0.273739
0.273517
0.273364
0.273341
0.27342
0.273579
0.273808
0.274105
0.274478
0.274935
0.275478
0.276104
0.276808
0.277584
0.278431
0.279344
0.280321
0.281358
0.28245
0.283591
0.284773
0.285985
0.287216
0.288461
0.289714
0.290973
0.292233
0.293488
0.294731
0.295955
0.297152
0.298317
0.299447
0.300536
0.30158
0.302577
0.303529
0.304367
0.305043
0.274556
0.273778
0.273544
0.273388
0.273371
0.273464
0.273643
0.273897
0.274227
0.274637
0.275133
0.275717
0.276385
0.27713
0.277949
0.278838
0.279794
0.280812
0.281887
0.283016
0.284193
0.285407
0.286647
0.287903
0.289168
0.290437
0.291708
0.292975
0.294232
0.295472
0.296687
0.297873
0.299023
0.300134
0.301201
0.302218
0.303183
0.304099
0.304904
0.305513
0.274609
0.273787
0.273544
0.273387
0.273379
0.273486
0.273685
0.273967
0.274329
0.274778
0.275315
0.27594
0.27665
0.277437
0.278299
0.279232
0.280231
0.28129
0.282406
0.283573
0.284784
0.286031
0.287301
0.288582
0.289869
0.291157
0.292441
0.293717
0.294978
0.296218
0.297429
0.298606
0.299746
0.300843
0.301893
0.30289
0.30383
0.30472
0.305501
0.306051
0.274627
0.273764
0.273515
0.27336
0.273362
0.273484
0.273704
0.274013
0.274409
0.274896
0.275475
0.276143
0.276895
0.277725
0.278631
0.279607
0.280649
0.281751
0.282907
0.284112
0.28536
0.28664
0.287939
0.289247
0.290557
0.291864
0.293164
0.29445
0.295717
0.296958
0.298168
0.29934
0.300473
0.301561
0.3026
0.303584
0.304507
0.305379
0.306147
0.306647
0.274605
0.273706
0.273454
0.273304
0.273317
0.273456
0.273697
0.274034
0.274464
0.27499
0.275611
0.276321
0.277115
0.277989
0.278938
0.279959
0.281045
0.282189
0.283385
0.284628
0.285912
0.287225
0.288554
0.28989
0.291223
0.29255
0.293866
0.295164
0.296438
0.297682
0.298892
0.300062
0.301191
0.302274
0.303307
0.304283
0.305198
0.306061
0.306827
0.30729
0.274542
0.273612
0.27336
0.273217
0.273243
0.273398
0.273662
0.274026
0.27449
0.275055
0.275718
0.276471
0.277308
0.278224
0.279218
0.280283
0.281412
0.282598
0.283834
0.285115
0.286435
0.28778
0.28914
0.290502
0.291859
0.293206
0.294537
0.295847
0.297128
0.298377
0.299588
0.300758
0.301885
0.302966
0.303997
0.304972
0.305886
0.306751
0.307528
0.307966
0.274435
0.273479
0.27323
0.273096
0.273136
0.27331
0.273596
0.273989
0.274487
0.27509
0.275794
0.276589
0.277469
0.278428
0.279465
0.280574
0.281746
0.282973
0.284248
0.285567
0.286921
0.288299
0.289687
0.291075
0.292456
0.293822
0.295168
0.296489
0.297778
0.29903
0.300243
0.301414
0.30254
0.30362
0.304652
0.305631
0.306551
0.307428
0.30823
0.30866
0.274281
0.273305
0.273061
0.272938
0.272995
0.273188
0.273498
0.273919
0.27445
0.275092
0.275836
0.276673
0.277594
0.278596
0.279676
0.280828
0.282042
0.283309
0.284623
0.285978
0.287366
0.288774
0.290189
0.291602
0.293004
0.294388
0.295749
0.297079
0.298373
0.299629
0.300844
0.302013
0.303138
0.304218
0.305252
0.306237
0.307169
0.308068
0.308913
0.309357
0.274078
0.273088
0.272851
0.272742
0.272817
0.273031
0.273365
0.273814
0.274379
0.275058
0.275841
0.276719
0.277681
0.278725
0.279847
0.281041
0.282295
0.283601
0.284952
0.286342
0.287761
0.289198
0.290639
0.292074
0.293496
0.294896
0.296268
0.297605
0.298904
0.300161
0.301375
0.302542
0.303663
0.304739
0.305774
0.306765
0.307713
0.308645
0.30955
0.310036
0.273826
0.272826
0.272599
0.272506
0.2726
0.272837
0.273196
0.273673
0.274271
0.274986
0.275808
0.276724
0.277727
0.278811
0.279974
0.281208
0.282501
0.283844
0.28523
0.286653
0.288101
0.289564
0.291028
0.292484
0.293922
0.295335
0.296716
0.298058
0.299358
0.300614
0.301822
0.302983
0.304096
0.305164
0.306193
0.307187
0.30815
0.309119
0.310104
0.310673
0.273521
0.272518
0.272303
0.272228
0.272343
0.272603
0.272987
0.273493
0.274123
0.274873
0.275732
0.276687
0.277728
0.278851
0.280053
0.281325
0.282655
0.284033
0.285452
0.286904
0.288379
0.289865
0.291349
0.292822
0.294274
0.295697
0.297083
0.298426
0.299724
0.300973
0.302173
0.30332
0.304417
0.305469
0.306483
0.307469
0.308437
0.309441
0.31053
0.311259
0.273164
0.272164
0.271963
0.271907
0.272045
0.272328
0.272738
0.273273
0.273935
0.274719
0.275613
0.276604
0.277682
0.278842
0.280081
0.281388
0.282752
0.284162
0.285611
0.28709
0.288588
0.290094
0.291596
0.293082
0.294544
0.295973
0.29736
0.2987
0.299991
0.301229
0.302412
0.303538
0.30461
0.305632
0.306614
0.307571
0.308526
0.309561
0.310819
0.311906
0.272754
0.271762
0.271577
0.271542
0.271703
0.272011
0.272447
0.273011
0.273703
0.27452
0.275448
0.276473
0.277585
0.278781
0.280054
0.281394
0.282789
0.284228
0.285703
0.287205
0.288724
0.290246
0.291761
0.293256
0.294724
0.296153
0.297537
0.29887
0.300148
0.301367
0.302526
0.303622
0.304655
0.305627
0.306548
0.307431
0.308309
0.309297
0.310619
0.312076
0.338465
0.352901
0.365419
0.375697
0.383803
0.390296
0.395395
0.39952
0.402888
0.405736
0.408177
0.410294
0.412158
0.413835
0.415338
0.416685
0.41789
0.418978
0.41994
0.420786
0.421521
0.42216
0.422692
0.423124
0.423455
0.423679
0.423814
0.423853
0.423791
0.423635
0.423373
0.423024
0.422571
0.42202
0.421364
0.42061
0.419777
0.418827
0.417973
0.416752
0.336525
0.350784
0.363448
0.373778
0.381972
0.388517
0.393668
0.397839
0.40125
0.404127
0.406594
0.408749
0.410654
0.412357
0.413886
0.415273
0.416516
0.417625
0.41861
0.419487
0.420252
0.420911
0.421467
0.421914
0.422261
0.422509
0.42266
0.42271
0.422664
0.422517
0.422274
0.421931
0.421492
0.420952
0.42031
0.419565
0.418741
0.417802
0.416956
0.415743
0.334642
0.348694
0.361492
0.371863
0.380142
0.386735
0.391937
0.396155
0.399609
0.402515
0.405008
0.407202
0.409149
0.410878
0.412435
0.41386
0.415139
0.416272
0.417281
0.418187
0.418982
0.41966
0.420239
0.420702
0.421066
0.421338
0.421505
0.421568
0.421538
0.421401
0.421179
0.420843
0.420418
0.41989
0.419261
0.418526
0.417713
0.416786
0.415949
0.414744
0.33282
0.346636
0.359553
0.369953
0.378309
0.384952
0.390205
0.394464
0.397958
0.400899
0.403427
0.405654
0.407637
0.4094
0.410989
0.412446
0.413756
0.414919
0.415957
0.416888
0.417709
0.418407
0.419008
0.419492
0.419874
0.420164
0.420347
0.420426
0.420413
0.420292
0.420084
0.419762
0.41935
0.418833
0.418217
0.417493
0.416692
0.415776
0.41495
0.413757
0.331059
0.344612
0.357631
0.368047
0.376473
0.383167
0.388469
0.39277
0.396301
0.399281
0.401846
0.404105
0.406122
0.407922
0.409547
0.411031
0.41237
0.413566
0.414636
0.41559
0.416434
0.417155
0.417776
0.418284
0.418684
0.418991
0.41919
0.419288
0.41929
0.419187
0.418992
0.418688
0.418289
0.417783
0.417178
0.416466
0.415679
0.414775
0.41396
0.412779
0.329357
0.342623
0.355726
0.366147
0.374637
0.381379
0.386729
0.391072
0.394642
0.397661
0.400263
0.402555
0.404606
0.406443
0.408103
0.409617
0.410986
0.412215
0.413315
0.414294
0.41516
0.415905
0.416546
0.417077
0.417496
0.41782
0.418036
0.418152
0.41817
0.418085
0.417905
0.417618
0.417232
0.416739
0.416146
0.415447
0.414675
0.413782
0.412978
0.411809
0.327718
0.340674
0.353839
0.364253
0.372799
0.379586
0.384985
0.38937
0.39298
0.396038
0.398677
0.401005
0.40309
0.404964
0.40666
0.408205
0.409606
0.410865
0.411996
0.412998
0.413889
0.414658
0.415318
0.415871
0.41631
0.416651
0.416886
0.417019
0.417054
0.416987
0.416822
0.416552
0.416181
0.415701
0.415123
0.414436
0.413679
0.412799
0.412005
0.410847
0.326142
0.338766
0.351972
0.362364
0.37096
0.377789
0.383235
0.387665
0.391314
0.394412
0.39709
0.399455
0.401575
0.403486
0.405218
0.406794
0.408227
0.409516
0.410677
0.411705
0.412619
0.413412
0.414093
0.414667
0.415126
0.415486
0.415739
0.41589
0.415943
0.415893
0.415745
0.415491
0.415135
0.41467
0.414106
0.413433
0.41269
0.411824
0.411041
0.409893
0.32463
0.336903
0.350125
0.360483
0.369119
0.375987
0.38148
0.385955
0.389646
0.392785
0.395502
0.397905
0.400061
0.402009
0.403777
0.405386
0.40685
0.408169
0.409359
0.410414
0.411352
0.412169
0.41287
0.413466
0.413946
0.414323
0.414596
0.414765
0.414836
0.414803
0.414672
0.414435
0.414095
0.413645
0.413097
0.412439
0.41171
0.410857
0.410085
0.408948
0.323182
0.335087
0.3483
0.358609
0.367277
0.37418
0.37972
0.384239
0.387974
0.391155
0.393912
0.396354
0.398548
0.400533
0.402337
0.403979
0.405476
0.406824
0.408044
0.409125
0.410087
0.410929
0.411651
0.412268
0.412768
0.413165
0.413456
0.413644
0.413734
0.413719
0.413604
0.413384
0.41306
0.412627
0.412095
0.411452
0.410738
0.409899
0.409138
0.40801
0.321801
0.333321
0.346496
0.356744
0.365433
0.372367
0.377952
0.382519
0.386298
0.389524
0.392322
0.394804
0.397037
0.399059
0.400901
0.402576
0.404105
0.405483
0.40673
0.407839
0.408824
0.409691
0.410434
0.411073
0.411594
0.41201
0.412321
0.412527
0.412636
0.412639
0.412541
0.412339
0.412031
0.411615
0.4111
0.410473
0.409775
0.408949
0.408199
0.40708
0.320486
0.33161
0.344717
0.354888
0.363588
0.370548
0.376178
0.380792
0.384619
0.387889
0.390732
0.393255
0.395528
0.397588
0.399467
0.401176
0.402737
0.404145
0.40542
0.406555
0.407564
0.408456
0.40922
0.409881
0.410423
0.410858
0.41119
0.411415
0.411541
0.411564
0.411482
0.411299
0.411008
0.41061
0.410112
0.409502
0.408819
0.408008
0.407269
0.406158
0.319239
0.329956
0.342962
0.353043
0.36174
0.368723
0.374396
0.379059
0.382934
0.386253
0.389141
0.391707
0.394022
0.39612
0.398037
0.399779
0.401372
0.40281
0.404112
0.405275
0.406307
0.407223
0.40801
0.408692
0.409256
0.40971
0.410062
0.410306
0.410451
0.410492
0.410428
0.410264
0.40999
0.409611
0.409131
0.408539
0.407871
0.407074
0.406346
0.405245
0.318061
0.328362
0.341234
0.35121
0.359891
0.366891
0.372606
0.37732
0.381245
0.384614
0.387549
0.390161
0.392519
0.394656
0.396611
0.398387
0.400012
0.40148
0.402809
0.403999
0.405053
0.405993
0.406803
0.407505
0.408092
0.408565
0.408937
0.409201
0.409365
0.409424
0.409379
0.409234
0.408978
0.408618
0.408158
0.407584
0.406931
0.406148
0.405432
0.404339
0.316952
0.326831
0.339535
0.349389
0.358039
0.365052
0.370806
0.375572
0.37955
0.382972
0.385958
0.388617
0.391018
0.393196
0.395188
0.396999
0.398655
0.400154
0.401509
0.402726
0.403804
0.404767
0.405599
0.406322
0.406931
0.407424
0.407816
0.4081
0.408283
0.40836
0.408334
0.408209
0.407971
0.407632
0.40719
0.406636
0.405998
0.40523
0.404525
0.403442
0.315914
0.325369
0.337866
0.347583
0.356186
0.363206
0.368997
0.373816
0.37785
0.381327
0.384366
0.387075
0.389521
0.39174
0.39377
0.395615
0.397303
0.398832
0.400214
0.401457
0.402559
0.403545
0.4044
0.405142
0.405773
0.406287
0.406698
0.407001
0.407204
0.4073
0.407293
0.407189
0.40697
0.406651
0.406229
0.405694
0.405073
0.404319
0.403627
0.402553
0.314948
0.323977
0.336229
0.345793
0.354332
0.361353
0.367178
0.372051
0.376143
0.37968
0.382773
0.385535
0.388027
0.390288
0.392355
0.394235
0.395956
0.397515
0.398924
0.400193
0.401318
0.402326
0.403204
0.403965
0.404618
0.405153
0.405583
0.405905
0.406129
0.406243
0.406256
0.406172
0.405975
0.405677
0.405275
0.404759
0.404155
0.403417
0.402737
0.401671
0.314054
0.322659
0.334627
0.344021
0.352477
0.359492
0.365348
0.370276
0.374429
0.378028
0.381181
0.383997
0.386536
0.388839
0.390946
0.392862
0.394615
0.396204
0.397639
0.398933
0.400083
0.401111
0.402013
0.402794
0.403466
0.404023
0.404472
0.404813
0.405057
0.40519
0.405222
0.405161
0.404984
0.404707
0.404326
0.403831
0.403245
0.402522
0.401854
0.400798
0.313233
0.321418
0.333063
0.342267
0.350623
0.357623
0.363507
0.36849
0.372707
0.376373
0.379587
0.382461
0.385048
0.387396
0.389542
0.391494
0.393279
0.394898
0.39636
0.397679
0.398853
0.399901
0.400826
0.401627
0.402318
0.402896
0.403364
0.403724
0.403988
0.404141
0.404193
0.404153
0.403998
0.403743
0.403383
0.402909
0.402341
0.401634
0.400978
0.399933
0.312487
0.320258
0.33154
0.340536
0.348771
0.355747
0.361655
0.366693
0.370977
0.374713
0.377992
0.380925
0.383564
0.385957
0.388143
0.390132
0.391949
0.393598
0.395086
0.39643
0.397629
0.398697
0.399644
0.400465
0.401175
0.401773
0.40226
0.402639
0.402922
0.403095
0.403168
0.403149
0.403017
0.402784
0.402445
0.401993
0.401445
0.400755
0.400111
0.399076
0.311816
0.31918
0.330061
0.338828
0.346923
0.353864
0.359792
0.364884
0.369239
0.373047
0.376396
0.379391
0.382083
0.384523
0.386751
0.388776
0.390626
0.392305
0.393819
0.395187
0.39641
0.397498
0.398466
0.399309
0.400035
0.400654
0.40116
0.401556
0.401859
0.402053
0.402146
0.402149
0.40204
0.40183
0.401514
0.401084
0.400556
0.399884
0.399252
0.398229
0.311221
0.318188
0.328631
0.337146
0.345081
0.351975
0.357917
0.363063
0.36749
0.371376
0.374797
0.377857
0.380606
0.383094
0.385365
0.387427
0.389309
0.391018
0.392558
0.39395
0.395197
0.396305
0.397293
0.398157
0.3989
0.399538
0.400063
0.400478
0.4008
0.401014
0.401129
0.401153
0.401067
0.40088
0.400588
0.400182
0.399675
0.399022
0.398403
0.39739
0.310703
0.317285
0.327252
0.335495
0.343246
0.350081
0.35603
0.36123
0.365732
0.369698
0.373196
0.376325
0.379132
0.381671
0.383985
0.386085
0.387999
0.389738
0.391304
0.39272
0.393989
0.395118
0.396125
0.39701
0.39777
0.398426
0.398969
0.399402
0.399743
0.399978
0.400115
0.400161
0.400099
0.399935
0.399667
0.399286
0.3988
0.398168
0.397563
0.396561
0.310262
0.316471
0.325928
0.333876
0.341421
0.348184
0.354132
0.359384
0.363963
0.368013
0.371592
0.374794
0.377662
0.380255
0.382612
0.384749
0.386696
0.388465
0.390056
0.391495
0.392787
0.393936
0.394962
0.395867
0.396644
0.397318
0.397879
0.39833
0.398691
0.398946
0.399104
0.399172
0.399134
0.398994
0.398752
0.398396
0.397933
0.397322
0.396733
0.395742
0.309899
0.315748
0.324665
0.332294
0.33961
0.346286
0.352225
0.357525
0.362184
0.36632
0.369985
0.373263
0.376197
0.378844
0.381246
0.383422
0.3854
0.387198
0.388815
0.390277
0.39159
0.39276
0.393804
0.394729
0.395522
0.396214
0.396793
0.397261
0.397641
0.397917
0.398097
0.398186
0.398173
0.398057
0.397841
0.397511
0.397073
0.396485
0.395914
0.394935
0.309613
0.315117
0.323464
0.33075
0.337816
0.344387
0.350309
0.355653
0.360392
0.364619
0.368374
0.371733
0.374735
0.377439
0.379887
0.382101
0.384112
0.385939
0.387581
0.389065
0.390399
0.391589
0.39265
0.393595
0.394404
0.395113
0.39571
0.396196
0.396594
0.396891
0.397092
0.397202
0.397214
0.397123
0.396933
0.396631
0.39622
0.395656
0.395106
0.394138
0.309405
0.314576
0.322331
0.329249
0.336043
0.342491
0.348385
0.353768
0.358588
0.362909
0.366759
0.370204
0.373277
0.376041
0.378536
0.38079
0.382832
0.384687
0.386353
0.387859
0.389214
0.390424
0.391502
0.392465
0.393291
0.394015
0.394631
0.395134
0.39555
0.395867
0.396089
0.39622
0.396258
0.396192
0.396029
0.395756
0.395373
0.394837
0.394309
0.393355
0.309273
0.314125
0.321268
0.327793
0.334295
0.340601
0.346455
0.351871
0.356771
0.361189
0.365139
0.368673
0.371823
0.374648
0.377192
0.379486
0.38156
0.383442
0.385132
0.386659
0.388034
0.389263
0.390358
0.391339
0.392182
0.392921
0.393555
0.394074
0.394508
0.394845
0.395088
0.395241
0.395302
0.395263
0.395127
0.394884
0.394533
0.394026
0.393523
0.392585
0.309217
0.313761
0.320277
0.326388
0.332576
0.338721
0.34452
0.349963
0.354941
0.359459
0.363513
0.367143
0.370371
0.373262
0.375856
0.37819
0.380296
0.382205
0.383918
0.385466
0.38686
0.388108
0.38922
0.390216
0.391077
0.39183
0.392481
0.393018
0.393468
0.393825
0.394088
0.394262
0.394348
0.394335
0.394228
0.394016
0.393699
0.393224
0.39275
0.39183
0.309236
0.313478
0.31936
0.325036
0.330891
0.336854
0.342583
0.348045
0.3531
0.35772
0.361882
0.365611
0.368923
0.371882
0.374527
0.376903
0.37904
0.380976
0.382712
0.384279
0.385692
0.386958
0.388086
0.389097
0.389975
0.390742
0.391409
0.391963
0.392429
0.392805
0.393089
0.393284
0.393394
0.393408
0.39333
0.393151
0.392871
0.392432
0.39199
0.391092
0.309328
0.313272
0.318518
0.323743
0.329246
0.335005
0.340649
0.346119
0.351248
0.355972
0.360246
0.364079
0.367478
0.370508
0.373207
0.375625
0.377794
0.379754
0.381513
0.383099
0.38453
0.385813
0.386956
0.387982
0.388877
0.389657
0.390339
0.390911
0.391392
0.391787
0.39209
0.392306
0.39244
0.392482
0.392434
0.392288
0.392047
0.391649
0.391244
0.390372
0.309491
0.313137
0.317752
0.322511
0.327646
0.333178
0.338721
0.344187
0.349386
0.354214
0.358603
0.362545
0.366037
0.36914
0.371896
0.374355
0.376555
0.37854
0.380321
0.381926
0.383374
0.384673
0.385832
0.386871
0.387781
0.388575
0.389271
0.38986
0.390356
0.390769
0.391091
0.391329
0.391486
0.391554
0.391537
0.391426
0.391226
0.390875
0.390513
0.389672
0.309723
0.313065
0.317061
0.321346
0.326098
0.331379
0.336802
0.342252
0.347516
0.352448
0.356955
0.36101
0.364598
0.367778
0.370591
0.373093
0.375326
0.377335
0.379137
0.380761
0.382224
0.383539
0.384712
0.385763
0.386688
0.387496
0.388205
0.388811
0.389322
0.389753
0.390093
0.390351
0.390531
0.390626
0.390639
0.390565
0.390409
0.390109
0.389797
0.388996
0.310023
0.313046
0.316447
0.320251
0.324607
0.329615
0.334898
0.340319
0.345638
0.350673
0.355301
0.359473
0.363162
0.366422
0.369295
0.371839
0.374106
0.376139
0.377961
0.379602
0.381081
0.38241
0.383597
0.38466
0.385599
0.38642
0.387142
0.387764
0.388289
0.388737
0.389095
0.389373
0.389574
0.389696
0.38974
0.389703
0.389593
0.389349
0.389098
0.388346
0.310389
0.31307
0.315906
0.319231
0.323179
0.327892
0.333015
0.338392
0.343756
0.348891
0.353641
0.357934
0.361728
0.365071
0.368006
0.370595
0.372895
0.374951
0.376794
0.378452
0.379944
0.381288
0.382487
0.383562
0.384514
0.385347
0.386081
0.386719
0.387258
0.387722
0.388097
0.388394
0.388616
0.388764
0.388838
0.388839
0.388777
0.388596
0.388414
0.387727
0.310822
0.31313
0.315439
0.318291
0.321822
0.326219
0.331158
0.336474
0.341873
0.347103
0.351977
0.356393
0.360296
0.363725
0.366725
0.369359
0.371693
0.373774
0.375635
0.37731
0.378815
0.380171
0.381383
0.382469
0.383432
0.384279
0.385024
0.385676
0.386229
0.386707
0.387099
0.387414
0.387657
0.387829
0.387934
0.387973
0.38796
0.387846
0.387747
0.387144
0.311319
0.313217
0.315046
0.317438
0.320543
0.324603
0.329338
0.334572
0.339994
0.345315
0.350313
0.354854
0.35887
0.362387
0.365453
0.368135
0.370502
0.372607
0.374486
0.376176
0.377694
0.379062
0.380285
0.381381
0.382355
0.383214
0.38397
0.384636
0.385202
0.385693
0.386101
0.386433
0.386695
0.386891
0.387025
0.387102
0.387141
0.3871
0.387095
0.386606
0.311843
0.313309
0.314715
0.31667
0.319348
0.323053
0.327563
0.332697
0.338126
0.343529
0.348644
0.353309
0.357437
0.361044
0.364178
0.366909
0.36931
0.371438
0.373337
0.375042
0.376572
0.377951
0.379185
0.380291
0.381275
0.382146
0.382913
0.383591
0.384171
0.384675
0.385098
0.385446
0.385727
0.385946
0.386109
0.386224
0.386314
0.38635
0.386455
0.38612
0.312391
0.313362
0.314393
0.315941
0.318196
0.321531
0.325792
0.330801
0.336216
0.341686
0.34691
0.351698
0.355944
0.359646
0.362856
0.365642
0.368083
0.370241
0.372162
0.373885
0.37543
0.376822
0.378068
0.379185
0.380181
0.381065
0.381845
0.382535
0.383129
0.383646
0.384083
0.384448
0.384748
0.384989
0.385181
0.385334
0.385475
0.385592
0.385821
0.385699
0.313648
0.313667
0.31424
0.315315
0.317076
0.319972
0.323918
0.328756
0.334135
0.339679
0.345041
0.349988
0.354388
0.35822
0.361529
0.364388
0.36688
0.369072
0.371018
0.372757
0.374317
0.375719
0.376975
0.378101
0.379106
0.38
0.38079
0.38149
0.382096
0.382623
0.383073
0.383451
0.383768
0.384029
0.384246
0.384433
0.384622
0.384818
0.385177
0.385341
0.320824
0.317162
0.315894
0.314904
0.314487
0.315497
0.318127
0.322314
0.327662
0.333626
0.339648
0.345303
0.350338
0.354664
0.358311
0.36137
0.363958
0.36618
0.368122
0.369842
0.371381
0.372763
0.374005
0.37512
0.37612
0.377013
0.377807
0.378511
0.379129
0.379669
0.380138
0.380542
0.38089
0.381193
0.381466
0.381728
0.382022
0.382402
0.383106
0.384243
0.314694
0.311932
0.310248
0.308705
0.307442
0.307531
0.309521
0.313468
0.318959
0.325325
0.331863
0.33803
0.343504
0.348169
0.352059
0.355284
0.357981
0.360274
0.362262
0.364013
0.365574
0.366975
0.368236
0.36937
0.370391
0.371305
0.372123
0.372851
0.373495
0.374061
0.374556
0.374988
0.375366
0.375702
0.376012
0.376323
0.376685
0.377192
0.378132
0.379721
0.304857
0.303324
0.301845
0.300622
0.29943
0.29936
0.301216
0.305181
0.310869
0.317565
0.324495
0.331045
0.336849
0.341776
0.345856
0.349213
0.351995
0.354342
0.356363