/*--------------------------------*- C++ -*----------------------------------*\
  =========                 |
  \\      /  F ield         | OpenFOAM: The Open Source CFD Toolbox
   \\    /   O peration     | Website:  https://openfoam.org
    \\  /    A nd           | Version:  7
     \\/     M anipulation  |
\*---------------------------------------------------------------------------*/
FoamFile
{
    version     2.0;
    format      ascii;
    class       surfaceScalarField;
    location    "8.3";
    object      phi;
}
// * * * * * * * * * * * * * * * * * * * * * * * * * * * * * * * * * * * * * //

dimensions      [0 3 -1 0 0 0 0];

internalField   nonuniform List<scalar> 
63520
(
6.5777e-06
-0.000117479
0.000110901
2.4519e-05
-0.000237425
0.000219483
5.28684e-05
-0.000255754
0.000227405
9.10962e-05
-0.000193502
0.000155274
0.000138943
-6.58729e-05
1.80263e-05
0.000196297
0.000115568
-0.000172923
0.000263138
0.000341526
-0.000408367
0.000339487
0.000604375
-0.000680724
0.000425377
0.000897934
-0.000983824
0.00052082
0.00121703
-0.00131247
0.000625797
0.00155734
-0.00166232
0.00074024
0.0019152
-0.00202964
0.000864019
0.00228737
-0.00241115
0.000996934
0.002671
-0.00280391
0.00113871
0.00306344
-0.00320522
0.001289
0.00346225
-0.00361254
0.00144737
0.00386512
-0.00402349
0.00161329
0.00426984
-0.00443576
0.00178616
0.00467427
-0.00484714
0.00196532
0.00507635
-0.00525551
0.00215001
0.00547411
-0.0056588
0.00233944
0.0058656
-0.00605504
0.00253277
0.00624903
-0.00644235
0.00272911
0.00662264
-0.00681898
0.00292756
0.00698484
-0.00718328
0.0031272
0.00733414
-0.00753379
0.00332713
0.00766923
-0.00786917
0.00352647
0.00798894
-0.00818828
0.00372437
0.00829227
-0.00849017
0.00392003
0.0085784
-0.00877405
0.0041127
0.00884668
-0.00903935
0.00430171
0.00909664
-0.00928565
0.00448646
0.00932798
-0.00951274
0.00466646
0.00954055
-0.00972055
0.00484129
0.00973428
-0.00990911
0.00501067
0.00990915
-0.0100785
0.00517441
0.0100651
-0.0102288
0.0053325
0.0102016
-0.0103597
0.005485
0.0103183
-0.0104708
0.0104135
0.0056321
-0.0105606
6.21584e-06
-0.000123695
2.32256e-05
-0.000254434
5.00385e-05
-0.000282568
8.61265e-05
-0.000229591
0.000131269
-0.000111016
0.000185398
6.14393e-05
0.000248528
0.000278395
0.000320708
0.000532195
0.000402009
0.000816633
0.000492476
0.00112656
0.000592121
0.00145769
0.000700911
0.00180641
0.000818752
0.00216953
0.000945487
0.00254426
0.00108088
0.00292804
0.00122464
0.0033185
0.00137636
0.0037134
0.00153559
0.00411061
0.00170179
0.00450807
0.00187433
0.00490381
0.00205255
0.00529589
0.0022357
0.00568245
0.002423
0.00606172
0.00261363
0.00643201
0.00280673
0.00679174
0.00300143
0.00713944
0.00319688
0.00747378
0.00339223
0.00779359
0.00358666
0.00809785
0.00377937
0.00838568
0.00396965
0.0086564
0.00415681
0.00890948
0.00434026
0.00914453
0.00451949
0.00936132
0.00469406
0.0095597
0.00486367
0.00973954
0.00502812
0.00990062
0.00518731
0.0100424
0.00534129
0.0101643
0.0102647
0.00549012
5.85181e-06
-0.000129546
2.18819e-05
-0.000270465
4.70878e-05
-0.000307773
8.09712e-05
-0.000263474
0.00012335
-0.000153395
0.000174195
1.05949e-05
0.000233568
0.000219021
0.000301554
0.000464209
0.00037826
0.000739926
0.00046376
0.00104106
0.000558099
0.00136336
0.000661277
0.00170323
0.000773232
0.00205758
0.000893843
0.00242365
0.00102292
0.00279896
0.00116021
0.00318121
0.00130535
0.00356825
0.00145794
0.00395802
0.00161749
0.00434852
0.00178344
0.00473786
0.00195517
0.00512416
0.00213199
0.00550562
0.00231319
0.00588052
0.002498
0.00624721
0.0026856
0.00660414
0.00287518
0.00694985
0.00306593
0.00728303
0.00325703
0.00760249
0.00344769
0.00790719
0.00363714
0.00819623
0.00382467
0.00846887
0.00400961
0.00872454
0.00419136
0.00896278
0.00436941
0.00918328
0.00454331
0.0093858
0.00471273
0.00957011
0.00487745
0.0097359
0.00503733
0.00988253
0.00519234
0.0100093
0.0101146
0.00534245
5.49495e-06
-0.000135041
2.0476e-05
-0.000285446
4.39903e-05
-0.000331288
7.558e-05
-0.000295064
0.000115112
-0.000192928
0.000162607
-3.69001e-05
0.00021817
0.000163459
0.000281923
0.000400456
0.00035401
0.000667839
0.000434543
0.000960526
0.000523594
0.0012743
0.000621192
0.00160563
0.000727311
0.00195146
0.000841867
0.0023091
0.000964701
0.00267613
0.00109559
0.00305033
0.00123423
0.00342961
0.00138025
0.003812
0.00153321
0.00419556
0.00169261
0.00457846
0.00185788
0.00495889
0.00202838
0.00533512
0.00220345
0.00570545
0.00238237
0.0060683
0.00256438
0.00642212
0.00274872
0.00676551
0.0029346
0.00709715
0.00312125
0.00741584
0.0033079
0.00772053
0.00349383
0.00801031
0.00367831
0.00828439
0.00386071
0.00854214
0.00404042
0.00878307
0.00421692
0.00900678
0.00438977
0.00921295
0.00455861
0.00940127
0.0047232
0.00957132
0.00488335
0.00972238
0.00503897
0.00985368
0.00996361
0.00518994
5.11665e-06
-0.000140158
1.89914e-05
-0.000299321
4.07329e-05
-0.000353029
6.99484e-05
-0.000324279
0.000106556
-0.000229536
0.000150628
-8.09722e-05
0.000202318
0.000111769
0.0002618
0.000340974
0.000329245
0.000600393
0.000404801
0.000884969
0.000488576
0.00119053
0.000580628
0.00151358
0.00068096
0.00185113
0.000789515
0.00220054
0.000906173
0.00255947
0.00103074
0.00292576
0.00116295
0.0032974
0.00130248
0.00367247
0.00144893
0.00404911
0.00160184
0.00442555
0.00176069
0.00480005
0.00192489
0.00517091
0.00209384
0.00553651
0.00226684
0.00589529
0.00244321
0.00624576
0.00262221
0.00658651
0.00280311
0.00691625
0.00298516
0.00723379
0.00316763
0.00753806
0.00334981
0.00782813
0.00353101
0.00810319
0.00371059
0.00836256
0.00388797
0.00860569
0.00406261
0.00883213
0.00423408
0.00904148
0.004402
0.00923335
0.00456608
0.00940723
0.00472613
0.00956233
0.00488198
0.00969783
0.00981218
0.00503342
4.72146e-06
-0.00014488
1.74271e-05
-0.000312026
3.73139e-05
-0.000372916
6.40639e-05
-0.000351029
9.76606e-05
-0.000263133
0.000138235
-0.000121547
0.00018599
6.40136e-05
0.000241148
0.000285816
0.00030392
0.000537621
0.00037449
0.000814399
0.000452995
0.00111202
0.000539522
0.00142705
0.000634106
0.00175654
0.00073672
0.00209793
0.000847268
0.00244892
0.000965589
0.00280744
0.00109146
0.00317153
0.00122458
0.00353934
0.0013646
0.00390909
0.00151109
0.00427906
0.00166358
0.00464756
0.00182154
0.00501295
0.00198439
0.00537367
0.00215149
0.00572819
0.0023222
0.00607505
0.00249582
0.00641289
0.00267166
0.00674041
0.00284901
0.00705644
0.00302717
0.00735991
0.00320544
0.00764985
0.00338317
0.00792546
0.00355973
0.008186
0.00373454
0.00843089
0.00390707
0.0086596
0.00407687
0.00887168
0.00424357
0.00906666
0.00440684
0.00924396
0.00456646
0.00940271
0.00472219
0.0095421
0.00966063
0.00487373
4.30022e-06
-0.00014918
1.57739e-05
-0.0003235
3.37231e-05
-0.000390865
5.792e-05
-0.000375226
8.84201e-05
-0.000293633
0.000125418
-0.000158545
0.000169174
2.02577e-05
0.000219961
0.000235029
0.000278029
0.000479553
0.000343598
0.00074883
0.000416837
0.00103878
0.000497865
0.00134602
0.000586743
0.00166766
0.000683469
0.0020012
0.000787976
0.00234442
0.000900133
0.00269528
0.00101975
0.00305192
0.00114655
0.00341254
0.00128023
0.00377542
0.0014204
0.00413889
0.00156662
0.00450133
0.00171841
0.00486117
0.00187521
0.00521686
0.00203645
0.00556694
0.00220152
0.00590999
0.00236976
0.00624465
0.00254052
0.00656966
0.00271311
0.00688385
0.00288687
0.00718614
0.00306114
0.00747559
0.00323527
0.00775133
0.00340864
0.00801263
0.0035807
0.00825883
0.00375091
0.00848938
0.00391882
0.00870377
0.00408404
0.00890144
0.00424624
0.00908176
0.00440514
0.00924382
0.00456044
0.00938679
0.0095093
0.00471177
3.84778e-06
-0.000153028
1.40261e-05
-0.000333678
2.99567e-05
-0.000406796
5.15122e-05
-0.000396782
7.88304e-05
-0.000320951
0.000112178
-0.000191893
0.000151873
-1.94377e-05
0.000198241
0.000188662
0.000251576
0.000426218
0.000312132
0.000688273
0.000380113
0.000970804
0.000455666
0.00127047
0.000538878
0.00158445
0.000629773
0.00191031
0.000728311
0.00224588
0.000834388
0.00258921
0.000947837
0.00293847
0.00106843
0.00329195
0.00119587
0.00364797
0.00132982
0.00400494
0.00146987
0.00436128
0.00161557
0.00471546
0.00176642
0.00506601
0.00192188
0.00541149
0.00208136
0.00575051
0.00224425
0.00608175
0.00240994
0.00640397
0.00257777
0.00671601
0.0027471
0.00701681
0.0029173
0.00730539
0.00308775
0.00758089
0.00325783
0.00784254
0.00342701
0.00808966
0.00359476
0.00832164
0.00376061
0.00853791
0.00392417
0.00873789
0.00408507
0.00892086
0.00424301
0.00908588
0.00439763
0.00923217
0.00935846
0.00454847
3.36235e-06
-0.00015639
1.21807e-05
-0.000342497
2.60119e-05
-0.000420627
4.48404e-05
-0.000415611
6.88946e-05
-0.000345005
9.85196e-05
-0.000221518
0.000134096
-5.50145e-05
0.000176002
0.000146756
0.000224577
0.000377642
0.000280114
0.000632736
0.000342846
0.000908071
0.000412952
0.00120037
0.000490543
0.00150686
0.000575668
0.00182518
0.000668313
0.00215323
0.000768397
0.00248912
0.000875781
0.00283109
0.000990262
0.00317746
0.00111158
0.00352665
0.00123943
0.0038771
0.00137343
0.00422728
0.00151316
0.00457573
0.00165816
0.00492101
0.00180793
0.00526173
0.0019619
0.00559653
0.00211952
0.00592413
0.00228019
0.00624331
0.0024433
0.00655291
0.00260822
0.00685189
0.00277435
0.00713926
0.00294108
0.00741416
0.00310783
0.00767578
0.00327406
0.00792343
0.00343925
0.00815645
0.00360293
0.00837423
0.00376468
0.00857613
0.00392413
0.00876141
0.00408093
0.00892908
0.00423466
0.00907844
0.00920833
0.00438479
2.84379e-06
-0.000159234
1.02375e-05
-0.000349891
2.18893e-05
-0.000432279
3.79079e-05
-0.000431629
5.86213e-05
-0.000365719
8.44569e-05
-0.000247354
0.000115862
-8.64192e-05
0.000153269
0.000109349
0.000197065
0.000333846
0.000247579
0.000582223
0.000305078
0.000850571
0.000369769
0.00113568
0.00044179
0.00143484
0.000521212
0.00174576
0.000608043
0.0020664
0.000702229
0.00239494
0.000803655
0.00272966
0.000912145
0.00306897
0.00102747
0.00341133
0.00114934
0.00375523
0.00127742
0.0040992
0.00141132
0.00444183
0.0015506
0.00478173
0.00169479
0.00511753
0.00184338
0.00544794
0.00199583
0.00577168
0.00215157
0.00608756
0.00231003
0.00639446
0.0024706
0.00669131
0.0026327
0.00697716
0.00279574
0.00725111
0.00295917
0.00751236
0.00312243
0.00776017
0.00328502
0.00799386
0.00344647
0.00821278
0.00360635
0.00841626
0.00376424
0.00860351
0.00391977
0.00877356
0.00407246
0.00892574
0.00905909
0.0042217
2.29127e-06
-0.000161525
8.19676e-06
-0.000355796
1.75931e-05
-0.000441676
3.07241e-05
-0.000444761
4.80249e-05
-0.00038302
7.00106e-05
-0.00026934
9.71988e-05
-0.000113608
0.000130079
7.64685e-05
0.000169083
0.000294842
0.000214579
0.000536726
0.000266869
0.000798281
0.000326186
0.00107636
0.000392692
0.00136833
0.000466483
0.00167197
0.00054759
0.0019853
0.00063598
0.00230654
0.000731563
0.00263408
0.000834187
0.00296635
0.00094365
0.00330187
0.00105969
0.00363919
0.00118199
0.0039769
0.0013102
0.00431362
0.00144392
0.00464801
0.00158269
0.00497876
0.00172604
0.00530459
0.00187345
0.00562427
0.00202439
0.00593662
0.00217831
0.00624054
0.00233463
0.00653499
0.00249279
0.006819
0.00265223
0.00709168
0.00281238
0.0073522
0.00297272
0.00759983
0.00313274
0.00783384
0.00329196
0.00805356
0.00344993
0.00825828
0.00360623
0.00844721
0.00376041
0.00861937
0.00391197
0.00877419
0.00891086
0.0040602
1.70611e-06
-0.000163231
6.06225e-06
-0.000360153
1.31303e-05
-0.000448744
2.33014e-05
-0.000454932
3.71262e-05
-0.000396845
5.52108e-05
-0.000287424
7.81455e-05
-0.000136542
0.000106478
4.81362e-05
0.000140688
0.000260632
0.000181182
0.000496232
0.000228295
0.000751168
0.000282287
0.00102237
0.000343345
0.00130727
0.000411586
0.00160373
0.000487065
0.00190982
0.00056977
0.00222384
0.000659634
0.00254422
0.00075653
0.00286945
0.000860277
0.00319812
0.000970639
0.00352882
0.00108733
0.0038602
0.00121002
0.00419093
0.00133834
0.0045197
0.00147185
0.00484524
0.00161013
0.00516632
0.00175267
0.00548173
0.00189897
0.00579032
0.0020485
0.00609101
0.00220072
0.00638277
0.00235507
0.00666464
0.00251102
0.00693573
0.00266801
0.00719521
0.00282552
0.00744232
0.00298304
0.00767632
0.00314009
0.00789651
0.00329621
0.00810217
0.00345092
0.00829249
0.00360376
0.00846654
0.00375415
0.0086238
0.00876369
0.00390132
1.08923e-06
-0.000164321
3.83776e-06
-0.000362901
8.51104e-06
-0.000453417
1.56582e-05
-0.000462079
2.59517e-05
-0.000407138
4.00932e-05
-0.000301566
5.87495e-05
-0.000155199
8.25261e-05
2.43594e-05
0.00011195
0.000231208
0.000147469
0.000460714
0.000189448
0.000709188
0.000238176
0.000973638
0.000293861
0.00125159
0.000356646
0.00154094
0.000426604
0.00183986
0.000503746
0.0021467
0.000588026
0.00245994
0.00067934
0.00277814
0.00077753
0.00309993
0.000882383
0.00342397
0.00099364
0.00374895
0.00111099
0.00407358
0.0012341
0.0043966
0.00136255
0.00471678
0.00149594
0.00503293
0.0016338
0.00534386
0.00177565
0.00564847
0.00192099
0.00594568
0.00206928
0.00623448
0.00222001
0.00651392
0.00237263
0.00678311
0.00252662
0.00704123
0.00268144
0.00728749
0.0028366
0.00752116
0.0029916
0.00774151
0.00314595
0.00794782
0.00329917
0.00813928
0.00345071
0.00831499
0.00359996
0.00847456
0.00861756
0.00374608
4.4248e-07
-0.000164763
1.52988e-06
-0.000363989
3.74841e-06
-0.000455636
7.81596e-06
-0.000466146
1.45336e-05
-0.000413856
2.47022e-05
-0.000311735
3.90665e-05
-0.000169563
5.82914e-05
5.13437e-06
8.29524e-05
0.000206547
0.000113535
0.000430131
0.000150437
0.000672286
0.000193972
0.000930103
0.000244375
0.00120119
0.000301807
0.00148351
0.000366364
0.0017753
0.000438077
0.00207498
0.000516921
0.00238109
0.000602814
0.00269225
0.000695617
0.00300713
0.000795143
0.00332444
0.000901155
0.00364293
0.00101337
0.00396136
0.00113147
0.00427851
0.00125507
0.00459318
0.00138379
0.00490421
0.00151719
0.00521046
0.00165481
0.00551085
0.00179617
0.00580432
0.00194076
0.00608989
0.00208807
0.00636661
0.00223758
0.0066336
0.00238876
0.00689004
0.0025411
0.00713515
0.00269409
0.00736817
0.00284721
0.00758839
0.00299996
0.00779507
0.00315181
0.00798743
0.00330218
0.00816462
0.00345039
0.00832634
0.00847241
0.00359554
-2.32439e-07
-0.000164531
-8.53996e-07
-0.000363367
-1.14181e-06
-0.000455348
-1.99484e-07
-0.000467089
2.90914e-06
-0.000416965
9.08772e-06
-0.000317913
1.91604e-05
-0.000179636
3.38523e-05
-9.55757e-06
5.37866e-05
0.000186612
7.94875e-05
0.00040443
0.000111384
0.00064039
0.000149814
0.000891673
0.000195037
0.00115596
0.000247235
0.00143131
0.000306524
0.00171601
0.000372956
0.00200855
0.000446525
0.00230752
0.000527169
0.0026116
0.000614771
0.00291952
0.000709167
0.00323005
0.000810141
0.00354196
0.000917434
0.00385407
0.00103074
0.0041652
0.00114973
0.00447419
0.00127402
0.00477992
0.0014032
0.00508128
0.00153684
0.00537721
0.00167446
0.00566669
0.0018156
0.00594875
0.00195974
0.00622246
0.00210639
0.00648696
0.00225502
0.00674141
0.00240512
0.00698505
0.00255617
0.00721713
0.00270764
0.00743692
0.002859
0.00764371
0.00300969
0.00783675
0.00315908
0.00801523
0.00330642
0.008179
0.00832808
0.00345075
-9.32416e-07
-0.000163598
-3.30488e-06
-0.000360995
-6.14158e-06
-0.000452511
-8.35889e-06
-0.000464871
-8.87941e-06
-0.000416444
-6.69379e-06
-0.000320099
-8.97372e-07
-0.000185432
9.29548e-06
-1.97506e-05
2.45558e-05
0.000171352
4.54453e-05
0.00038354
7.24227e-05
0.000613412
0.000105852
0.000858243
0.000146014
0.0011158
0.000193113
0.00138421
0.000247283
0.00166184
0.000308597
0.00194724
0.000377067
0.00223905
0.00045265
0.00253602
0.000535253
0.00283692
0.000624729
0.00314057
0.000720887
0.0034458
0.000823489
0.00375146
0.000932257
0.00405643
0.00104687
0.00435957
0.00116699
0.0046598
0.00129222
0.00495606
0.00142214
0.00524729
0.00155631
0.00553252
0.00169427
0.00581079
0.00183553
0.0060812
0.0019796
0.00634289
0.00212597
0.00659504
0.00227412
0.0068369
0.00242351
0.00706773
0.00257362
0.00728681
0.00272387
0.00749346
0.00287366
0.00768696
0.00302232
0.00786657
0.00316903
0.00803229
0.00818435
0.00331277
-1.65472e-06
-0.000161944
-5.8125e-06
-0.000356837
-1.12306e-05
-0.000447093
-1.66298e-05
-0.000459472
-2.07855e-05
-0.000412288
-2.25805e-05
-0.000318304
-2.1029e-05
-0.000186984
-1.52842e-05
-2.54954e-05
-4.62795e-06
0.000160696
1.15377e-05
0.000367375
3.37008e-05
0.000591249
6.22503e-05
0.000829693
9.74884e-05
0.00108056
0.000139639
0.00134206
0.000188857
0.00161263
0.000245232
0.00189086
0.000308796
0.00217549
0.000379524
0.00246529
0.000457343
0.0027591
0.000542128
0.00305579
0.000633708
0.00335422
0.000731868
0.0036533
0.000836353
0.00395194
0.000946869
0.00424906
0.00106309
0.00454359
0.00118464
0.0048345
0.00131114
0.00512079
0.00144216
0.0054015
0.00157725
0.0056757
0.00171595
0.0059425
0.00185777
0.00620107
0.0020022
0.00645061
0.00214872
0.00669038
0.0022968
0.00691965
0.00244587
0.00713774
0.00259534
0.00734398
0.00274456
0.00753773
0.00289281
0.00771832
0.0030392
0.0078859
0.00804091
0.00318264
-2.39587e-06
-0.000159548
-8.36557e-06
-0.000350868
-1.63868e-05
-0.000439072
-2.49765e-05
-0.000450883
-3.27585e-05
-0.000404506
-3.85056e-05
-0.000312557
-4.11504e-05
-0.000184339
-3.97851e-05
-2.68608e-05
-3.3645e-05
0.000154556
-2.20974e-05
0.000355827
-4.62537e-06
0.000573777
1.91839e-05
0.000805884
4.96535e-05
0.00105009
8.7027e-05
0.00130469
0.000131477
0.00156818
0.000183111
0.00183923
0.000241979
0.00211662
0.000308075
0.00239919
0.000381345
0.00268583
0.000461684
0.00297545
0.000548943
0.00326696
0.000642928
0.00355932
0.000743406
0.00385146
0.000850107
0.00414236
0.000962723
0.00443097
0.00108091
0.00471631
0.00120431
0.0049974
0.0013325
0.00527331
0.00146505
0.00554314
0.00160153
0.00580603
0.00174144
0.00606116
0.00188429
0.00630776
0.00202956
0.00654512
0.00217669
0.00677252
0.00232511
0.00698932
0.00247418
0.00719491
0.00262322
0.00738869
0.00277144
0.0075701
0.0029179
0.00773944
0.00789738
0.00306143
-3.15202e-06
-0.000156396
-1.09518e-05
-0.000343068
-2.15862e-05
-0.000428438
-3.33608e-05
-0.000439108
-4.47444e-05
-0.000393123
-5.4398e-05
-0.000302903
-6.11726e-05
-0.000177565
-6.40995e-05
-2.39339e-05
-6.2369e-05
0.000152825
-5.5314e-05
0.000348772
-4.23903e-05
0.000560854
-2.31618e-05
0.000786656
2.7147e-06
0.00102422
3.55011e-05
0.0012719
7.53872e-05
0.00152829
0.000122498
0.00179212
0.0001769
0.00206222
0.000238607
0.00233749
0.000307581
0.00261686
0.00038374
0.00289929
0.000466952
0.00318375
0.000557046
0.00346922
0.000653812
0.0037547
0.000757002
0.00403917
0.000866332
0.00432164
0.000981481
0.00460116
0.0011021
0.00487678
0.0012278
0.00514761
0.00135818
0.00541276
0.0014928
0.00567141
0.00163118
0.00592277
0.00177285
0.0061661
0.00191726
0.0064007
0.00206386
0.00662592
0.00221205
0.00684113
0.00236116
0.0070458
0.00251046
0.00723939
0.0026591
0.00742146
0.00280608
0.00759247
0.00775331
0.00295015
-3.919e-06
-0.000152477
-1.3558e-05
-0.000333429
-2.68034e-05
-0.000415192
-4.17423e-05
-0.00042417
-5.6686e-05
-0.000378179
-7.01828e-05
-0.000289407
-8.10019e-05
-0.000166745
-8.81148e-05
-1.6821e-05
-9.06676e-05
0.000155378
-8.79598e-05
0.000346064
-7.94212e-05
0.000552315
-6.45933e-05
0.000771828
-4.31137e-05
0.00100274
-1.47031e-05
0.00124349
2.08444e-05
0.00149274
6.36705e-05
0.00174929
0.000113858
0.00201203
0.000171438
0.00227991
0.000236391
0.00255191
0.000308653
0.00282703
0.000388113
0.00310429
0.000474621
0.00338272
0.000567989
0.00366133
0.000667991
0.00393916
0.000774365
0.00421527
0.000886815
0.00448871
0.00100501
0.00475859
0.00112859
0.00502403
0.00125717
0.00528419
0.00139031
0.00553827
0.00152757
0.00578551
0.00166846
0.00602522
0.00181244
0.00625672
0.00195896
0.0064794
0.00210738
0.00669271
0.00225702
0.00689616
0.00240708
0.00708933
0.00255666
0.00727188
0.00270469
0.00744444
0.00760815
0.00284984
-4.69239e-06
-0.000147785
-1.61706e-05
-0.000321951
-3.20115e-05
-0.000399352
-5.00785e-05
-0.000406103
-6.85235e-05
-0.000359734
-8.57817e-05
-0.000272149
-0.000100541
-0.000151986
-0.000111714
-5.64828e-06
-0.000118403
0.000162068
-0.000119877
0.000347538
-0.000115539
0.000547977
-0.00010491
0.000761199
-8.76097e-05
0.000985438
-6.33421e-05
0.00121922
-3.1886e-05
0.00146129
6.91568e-06
0.00171049
5.31619e-05
0.00196579
0.0001069
0.00222617
0.000168127
0.00249068
0.000236798
0.00275836
0.000312821
0.00302827
0.000396069
0.00329947
0.000486372
0.00357103
0.000583528
0.00384201
0.000687298
0.0041115
0.000797408
0.0043786
0.000913551
0.00464245
0.00103539
0.00490219
0.00116255
0.00515703
0.00129462
0.00540619
0.00143118
0.00564896
0.00157172
0.00588467
0.00171574
0.0061127
0.00186265
0.00633249
0.0020118
0.00654356
0.00216248
0.00674548
0.00231385
0.00693797
0.00246495
0.00712078
0.00261462
0.00729476
0.00746129
0.00276148
-5.46758e-06
-0.000142317
-1.87752e-05
-0.000308644
-3.71827e-05
-0.000380944
-5.83251e-05
-0.00038496
-8.0195e-05
-0.000337864
-0.000101114
-0.00025123
-0.000119689
-0.000133411
-0.000134775
9.43792e-06
-0.000145435
0.000172727
-0.000150903
0.000353006
-0.00015056
0.000547634
-0.000143907
0.000754546
-0.000130546
0.000972077
-0.000110166
0.00119884
-8.25311e-05
0.00143365
-4.74705e-05
0.00167543
-4.86953e-06
0.00192318
4.53341e-05
0.00217597
0.000103155
0.00243286
0.000168564
0.00269295
0.000241489
0.00295534
0.000321822
0.00321914
0.000409415
0.00348343
0.000504088
0.00374733
0.000605623
0.00400996
0.00071377
0.00427045
0.000828245
0.00452797
0.000948734
0.0047817
0.00107488
0.00503088
0.00120631
0.00527476
0.00134259
0.00551268
0.00148325
0.00574401
0.00162777
0.00596818
0.00177556
0.00618469
0.00192598
0.00639314
0.00207826
0.0065932
0.00223153
0.00678469
0.00238477
0.00696754
0.00253677
0.00714277
0.00731203
0.00268603
-6.23988e-06
-0.000136077
-2.13571e-05
-0.000293527
-4.22877e-05
-0.000360014
-6.64365e-05
-0.000360812
-9.16363e-05
-0.000312664
-0.000116096
-0.000226771
-0.000138343
-0.000111163
-0.000157176
2.82708e-05
-0.000171617
0.000187168
-0.000180871
0.00036226
-0.000184296
0.000551058
-0.000181373
0.000751623
-0.000171689
0.000962393
-0.000154919
0.00118207
-0.000130812
0.00140955
-9.91853e-05
0.0016438
-5.99094e-05
0.00188391
-1.29076e-05
0.00212897
4.18499e-05
0.0023781
0.00010435
0.00263045
0.000174539
0.00288515
0.000252327
0.00314135
0.000337588
0.00339817
0.00043016
0.00365476
0.00052985
0.00391027
0.00063643
0.00416387
0.00074964
0.00441476
0.000869189
0.00466215
0.000994748
0.00490532
0.00112595
0.00514356
0.0012624
0.00537624
0.00140363
0.00560278
0.00154914
0.00582267
0.00169834
0.00603549
0.00185057
0.00624091
0.00200504
0.00643873
0.00216085
0.00662889
0.00231691
0.00681148
0.00247194
0.00698774
0.00715961
0.00262437
-7.0046e-06
-0.000129073
-2.3901e-05
-0.000276631
-4.72967e-05
-0.000336618
-7.43656e-05
-0.000333743
-0.000102782
-0.000284248
-0.000130642
-0.000198911
-0.000156397
-8.5408e-05
-0.000178789
5.06632e-05
-0.000196803
0.000205181
-0.000209613
0.000375071
-0.000216556
0.000558001
-0.000217096
0.000752162
-0.000210804
0.000956101
-0.000197342
0.00116861
-0.000176446
0.00138865
-0.000147921
0.00161528
-0.000111625
0.00184761
-6.74676e-05
0.00208481
-1.54049e-05
0.00232604
4.4565e-05
0.00257048
0.000112405
0.00281731
0.000188044
0.00306571
0.000271372
0.00331484
0.000362251
0.00356388
0.000460506
0.00381202
0.000565934
0.00405845
0.000678298
0.0043024
0.000797331
0.00454312
0.00092273
0.00477992
0.00105415
0.00501213
0.00119122
0.00523917
0.0013335
0.0054605
0.00148049
0.00567568
0.00163162
0.00588437
0.00178621
0.00608632
0.00194348
0.00628147
0.00210248
0.00646989
0.00226208
0.00665187
0.00242093
0.00682889
0.00700318
0.00257735
-7.75702e-06
-0.000121316
-2.6391e-05
-0.000257997
-5.2179e-05
-0.00031083
-8.20647e-05
-0.000303857
-0.000113565
-0.000252748
-0.000144666
-0.000167809
-0.000173744
-5.63301e-05
-0.000199487
7.64069e-05
-0.000220842
0.000226536
-0.000236958
0.000391186
-0.000247148
0.000568191
-0.00025086
0.000755874
-0.000247652
0.000952893
-0.000237172
0.00115813
-0.000219147
0.00137063
-0.000193367
0.0015895
-0.00015968
0.00181393
-0.000117984
0.00204311
-6.82207e-05
0.00227627
-1.03755e-05
0.00251263
5.55301e-05
0.00275141
0.00012944
0.0029918
0.000211264
0.00323302
0.00030088
0.00347427
0.000398135
0.00371476
0.000502847
0.00395373
0.000614803
0.00419044
0.000733759
0.00442416
0.000859439
0.00465424
0.000991531
0.00488004
0.00112968
0.00510102
0.00127347
0.00531671
0.00142243
0.00552672
0.00157601
0.00573079
0.00173353
0.0059288
0.00189421
0.00612079
0.00205707
0.00630702
0.00222096
0.00648799
0.00238443
0.00666542
0.00684188
0.00254573
-8.4924e-06
-0.000112824
-2.88113e-05
-0.000237678
-5.69035e-05
-0.000282738
-8.9485e-05
-0.000271276
-0.000123917
-0.000218316
-0.000158079
-0.000133647
-0.000190274
-2.41351e-05
-0.00021914
0.000105273
-0.000243585
0.000250981
-0.000262732
0.000410334
-0.000275876
0.000581335
-0.000282448
0.000762445
-0.000281992
0.000952437
-0.000274147
0.00115029
-0.000258626
0.00135511
-0.000235209
0.00156608
-0.000203735
0.00178245
-0.00016409
0.00200347
-0.000116204
0.00222839
-6.00505e-05
0.00245648
4.36276e-06
0.00268699
7.69935e-05
0.00291917
0.000157768
0.00315224
0.000246579
0.00338545
0.000343294
0.00361805
0.00044775
0.00384928
0.000559756
0.00407843
0.000679092
0.00430483
0.000805509
0.00452782
0.000938723
0.00474683
0.00107841
0.00496134
0.00122418
0.00517093
0.0013756
0.0053753
0.00153214
0.00557425
0.00169315
0.00576779
0.00185784
0.00595609
0.00202525
0.00613962
0.00219416
0.00631907
0.0023631
0.00649648
0.00667479
0.00253019
-9.20582e-06
-0.000103618
-3.11455e-05
-0.000215739
-6.14389e-05
-0.000252445
-9.65773e-05
-0.000236138
-0.00013377
-0.000181124
-0.000170793
-9.66239e-05
-0.000205879
1.09507e-05
-0.000237616
0.00013701
-0.000264877
0.000278243
-0.000286762
0.000432218
-0.000302544
0.000597117
-0.00031164
0.000771542
-0.000313583
0.00095438
-0.000307999
0.0011447
-0.000294592
0.0013417
-0.000273133
0.00154462
-0.000243449
0.00175277
-0.000205417
0.00196543
-0.000158958
0.00218193
-0.000104034
0.00240156
-4.06416e-05
0.0026236
3.11899e-05
0.00284734
0.000111399
0.00307203
0.000199895
0.00329696
0.000296558
0.00352138
0.000401243
0.00374459
0.000513781
0.0039659
0.000633974
0.00418463
0.000761598
0.0044002
0.000896399
0.00461203
0.00103808
0.00481966
0.00118631
0.00502271
0.00134066
0.00522094
0.00150065
0.00541426
0.00166568
0.00560276
0.00183497
0.0057868
0.00200756
0.00596702
0.00218224
0.00614439
0.00235747
0.00632125
0.00650096
0.0025313
-9.89222e-06
-9.37255e-05
-3.33774e-05
-0.000192254
-6.57535e-05
-0.000220069
-0.000103292
-0.000198599
-0.000143054
-0.000141361
-0.000182718
-5.696e-05
-0.000220447
4.86799e-05
-0.000254784
0.000171346
-0.000284567
0.000308026
-0.00030887
0.000456522
-0.000326953
0.000615199
-0.000338216
0.000782805
-0.00034218
0.000958344
-0.000338461
0.00114098
-0.000326754
0.00132999
-0.00030682
0.00152469
-0.000278477
0.00172442
-0.000241594
0.00192855
-0.000196084
0.00213642
-0.000141898
0.00234737
-7.90226e-05
0.00256072
-7.47892e-06
0.00277579
7.26824e-05
0.00299187
0.000161382
0.00320826
0.000258513
0.00342425
0.000363945
0.00363916
0.000477525
0.00385232
0.000599076
0.00406308
0.000728396
0.00427087
0.00086526
0.00447516
0.00100941
0.00467551
0.00116053
0.00487159
0.00131828
0.0050632
0.0014822
0.00525034
0.00165173
0.00543323
0.00182615
0.00561238
0.00200455
0.00578863
0.00218569
0.00596325
0.00236803
0.00613892
0.00631948
0.00254951
-1.05464e-05
-8.31791e-05
-3.54905e-05
-0.00016731
-6.98155e-05
-0.000185744
-0.000109579
-0.000158836
-0.000151701
-9.92394e-05
-0.000193765
-1.48963e-05
-0.000233868
8.87836e-05
-0.00027051
0.000207988
-0.000302497
0.000340013
-0.000328882
0.000482906
-0.000348904
0.000635222
-0.000361954
0.000795855
-0.000367538
0.000963929
-0.000365264
0.00113871
-0.000354817
0.00131954
-0.00033595
0.00150582
-0.000308473
0.00169695
-0.000272247
0.00189232
-0.000227177
0.00209135
-0.000173206
0.0022934
-0.000110315
0.00249783
-3.85148e-05
0.00270399
4.21502e-05
0.00291121
0.000131609
0.0031188
0.000229763
0.0033261
0.000336494
0.00353243
0.000451659
0.00373715
0.000575097
0.00393965
0.000706626
0.00413934
0.000846046
0.00433574
0.000993128
0.00452843
0.00114761
0.0047171
0.00130918
0.00490163
0.00147745
0.00508207
0.00165193
0.00525875
0.00183197
0.00543234
0.0020167
0.0056039
0.00220494
0.00577501
0.00239511
0.00594874
0.00612946
0.00258513
-1.11633e-05
-7.20158e-05
-3.74686e-05
-0.000141004
-7.35931e-05
-0.000149619
-0.000115389
-0.000117041
-0.00015964
-5.49878e-05
-0.000203842
2.93054e-05
-0.00024603
0.000130972
-0.000284661
0.000246619
-0.000318514
0.000373865
-0.000346617
0.00051101
-0.000368196
0.000656801
-0.000382627
0.000810286
-0.000389408
0.000970709
-0.000388134
0.00113744
-0.000378483
0.00130989
-0.000360199
0.00148754
-0.000333086
0.00166983
-0.000296996
0.00185623
-0.000251828
0.00204618
-0.00019752
0.00223909
-0.000134046
0.00243436
-6.14109e-05
0.00263136
2.03451e-05
0.00282945
0.000111156
0.00302799
0.000210928
0.00322632
0.000319548
0.00342381
0.000436879
0.00361982
0.00056277
0.00381376
0.000697053
0.00400506
0.000839544
0.00419325
0.000990044
0.00437793
0.00114833
0.00455882
0.00131413
0.00473583
0.00148714
0.00490906
0.00166695
0.00507895
0.00185299
0.00524629
0.00204449
0.00541241
0.00224034
0.00557916
0.002439
0.00575008
0.00593014
0.00263833
-1.1738e-05
-6.02779e-05
-3.92953e-05
-0.000113447
-7.70546e-05
-0.00011186
-0.000120671
-7.34237e-05
-0.000166803
-8.85595e-06
-0.00021286
7.53625e-05
-0.000256821
0.000174933
-0.000297103
0.000286901
-0.000332458
0.000409221
-0.000361896
0.000540447
-0.000384624
0.000679529
-0.000400008
0.00082567
-0.000407535
0.000978236
-0.000406791
0.00113669
-0.000397446
0.00130055
-0.000379236
0.00146933
-0.000351957
0.00164255
-0.000315454
0.00181973
-0.000269622
0.00200035
-0.000214392
0.00218386
-0.000149734
0.0023697
-7.56507e-05
0.00255728
7.82165e-06
0.00274598
0.000100617
0.00293519
0.000202644
0.0031243
0.000313787
0.00331267
0.000433911
0.0034997
0.000562866
0.0036848
0.000700487
0.00386744
0.0008466
0.00404714
0.00100102
0.00422351
0.00116356
0.00439628
0.001334
0.00456538
0.00151209
0.00473097
0.00169752
0.00489352
0.00188984
0.00505397
0.0020884
0.00521385
0.00229222
0.00537534
0.00249985
0.00554246
0.00572084
0.00270914
-1.22654e-05
-4.80125e-05
-4.09546e-05
-8.47582e-05
-8.01686e-05
-7.2646e-05
-0.000125379
-2.82139e-05
-0.000173122
3.88874e-05
-0.00022073
0.000122971
-0.00026613
0.000220332
-0.000307702
0.000328473
-0.000344174
0.000445692
-0.000374535
0.000570809
-0.000397981
0.000702975