/*--------------------------------*- C++ -*----------------------------------*\
  =========                 |
  \\      /  F ield         | OpenFOAM: The Open Source CFD Toolbox
   \\    /   O peration     | Website:  https://openfoam.org
    \\  /    A nd           | Version:  7
     \\/     M anipulation  |
\*---------------------------------------------------------------------------*/
FoamFile
{
    version     2.0;
    format      ascii;
    class       volScalarField;
    location    "1.9";
    object      p;
}
// * * * * * * * * * * * * * * * * * * * * * * * * * * * * * * * * * * * * * //

dimensions      [0 2 -2 0 0 0 0];

internalField   nonuniform List<scalar> 
18000
(
2.26571
2.26569
2.26738
2.26948
2.27165
2.27377
2.276
2.27858
2.28169
2.28545
2.28992
2.29511
2.30095
2.30733
2.31409
2.32104
2.32804
2.33498
2.34176
2.34831
2.35459
2.36057
2.36625
2.37164
2.37677
2.38166
2.38635
2.39087
2.39526
2.39939
2.25571
2.25602
2.25779
2.25991
2.26202
2.26398
2.26595
2.2682
2.27094
2.27433
2.27846
2.28335
2.28895
2.29513
2.30172
2.30856
2.31548
2.32236
2.32908
2.33558
2.34181
2.34774
2.35335
2.35867
2.36372
2.36852
2.3731
2.37751
2.38178
2.38581
2.24554
2.24623
2.24808
2.25025
2.2523
2.25412
2.25585
2.25778
2.26015
2.26317
2.26696
2.27155
2.27689
2.28286
2.28928
2.29599
2.30282
2.30963
2.31629
2.32273
2.32889
2.33475
2.34029
2.34553
2.35049
2.35519
2.35967
2.36396
2.3681
2.37201
2.23526
2.23635
2.2383
2.24052
2.24253
2.24422
2.24573
2.24735
2.24937
2.25202
2.25546
2.25974
2.26482
2.27056
2.27681
2.28338
2.29011
2.29683
2.30342
2.30978
2.31587
2.32165
2.32711
2.33225
2.33711
2.34171
2.34607
2.35023
2.35423
2.35801
2.22499
2.22647
2.22852
2.23078
2.23277
2.23433
2.23563
2.23696
2.23862
2.24091
2.244
2.24797
2.25277
2.25828
2.26435
2.27078
2.27739
2.28401
2.2905
2.29677
2.30277
2.30846
2.31382
2.31886
2.32361
2.32809
2.33232
2.33635
2.3402
2.34384
2.21475
2.21659
2.21873
2.22105
2.22302
2.22448
2.22558
2.22662
2.22796
2.22989
2.23263
2.23627
2.24079
2.24606
2.25194
2.25822
2.26469
2.27119
2.27757
2.28374
2.28963
2.29521
2.30045
2.30538
2.31
2.31435
2.31844
2.32232
2.32602
2.32951
2.20459
2.20676
2.20899
2.21138
2.21333
2.21469
2.2156
2.21638
2.2174
2.21897
2.22137
2.22468
2.2289
2.23394
2.23962
2.24573
2.25205
2.25841
2.26466
2.27071
2.27647
2.28192
2.28703
2.29183
2.29631
2.30051
2.30445
2.30817
2.3117
2.31504
2.19452
2.19699
2.19932
2.20177
2.20371
2.20498
2.20572
2.20625
2.20696
2.20819
2.21024
2.21322
2.21716
2.22194
2.22741
2.23333
2.23949
2.24569
2.25179
2.25769
2.26332
2.26862
2.27359
2.27822
2.28255
2.28659
2.29037
2.29392
2.29728
2.30046
2.18456
2.1873
2.18971
2.19223
2.19418
2.19537
2.19594
2.19624
2.19665
2.19756
2.19926
2.20192
2.20557
2.2101
2.21534
2.22106
2.22703
2.23305
2.23899
2.24472
2.25018
2.25532
2.26012
2.26459
2.26875
2.27262
2.27622
2.2796
2.28277
2.28577
2.17471
2.17769
2.18019
2.18278
2.18472
2.18584
2.18628
2.18635
2.18648
2.18707
2.18844
2.19079
2.19415
2.19842
2.20342
2.20892
2.21469
2.22052
2.22626
2.23181
2.23708
2.24203
2.24665
2.25094
2.25492
2.2586
2.26202
2.26521
2.26818
2.271
2.16498
2.16816
2.17075
2.1734
2.17536
2.17642
2.17671
2.17657
2.17643
2.17672
2.17779
2.17983
2.1829
2.18691
2.19167
2.19693
2.20248
2.20809
2.21363
2.21896
2.22403
2.22878
2.2332
2.23729
2.24107
2.24456
2.24779
2.25077
2.25355
2.25617
2.15536
2.15872
2.1614
2.16411
2.16607
2.16707
2.16724
2.1669
2.16651
2.16652
2.16729
2.16904
2.17183
2.17557
2.18007
2.1851
2.1904
2.19578
2.20108
2.20619
2.21104
2.21557
2.21977
2.22366
2.22723
2.23052
2.23354
2.23631
2.23888
2.2413
2.14585
2.14936
2.15211
2.15488
2.15685
2.15779
2.15784
2.15732
2.1567
2.15644
2.15692
2.15839
2.16091
2.16439
2.16864
2.17341
2.17846
2.18358
2.18864
2.1935
2.19811
2.20241
2.20638
2.21004
2.2134
2.21647
2.21928
2.22184
2.22419
2.22641
2.13643
2.14007
2.14288
2.1457
2.14767
2.14857
2.1485
2.14781
2.14696
2.14645
2.14668
2.14789
2.15015
2.15337
2.15735
2.16185
2.16663
2.17149
2.17628
2.18089
2.18524
2.1893
2.19304
2.19646
2.19959
2.20245
2.20504
2.20738
2.20952
2.21153
2.12709
2.13082
2.1337
2.13656
2.13853
2.13937
2.13918
2.13833
2.13729
2.13655
2.13653
2.13749
2.13951
2.14248
2.1462
2.15042
2.15493
2.15951
2.16402
2.16836
2.17245
2.17625
2.17974
2.18292
2.18582
2.18845
2.19082
2.19295
2.19487
2.19667
2.11781
2.12162
2.12455
2.12744
2.12939
2.13017
2.12988
2.12888
2.12765
2.1267
2.12646
2.1272
2.12898
2.1317
2.13516
2.1391
2.14332
2.14761
2.15184
2.1559
2.15972
2.16326
2.16649
2.16943
2.17209
2.17449
2.17664
2.17856
2.18027
2.18186
2.10857
2.11243
2.1154
2.11831
2.12025
2.12096
2.12056
2.11941
2.11801
2.11687
2.11644
2.11697
2.11854
2.12102
2.12421
2.12788
2.1318
2.1358
2.13974
2.14352
2.14706
2.15032
2.15329
2.15598
2.15841
2.16058
2.16252
2.16423
2.16573
2.16712
2.09934
2.10325
2.10625
2.10917
2.11107
2.1117
2.11119
2.10991
2.10835
2.10705
2.10645
2.1068
2.10817
2.11042
2.11335
2.11673
2.12036
2.12406
2.1277
2.13119
2.13445
2.13744
2.14015
2.14258
2.14478
2.14673
2.14846
2.14997
2.15127
2.15245
2.09012
2.09406
2.09708
2.09998
2.10183
2.10239
2.10176
2.10034
2.09865
2.09721
2.09647
2.09667
2.09784
2.09987
2.10254
2.10564
2.10897
2.11238
2.11572
2.11892
2.12189
2.1246
2.12705
2.12924
2.1312
2.13295
2.13448
2.1358
2.13691
2.1379
2.08086
2.08483
2.08786
2.09074
2.09253
2.09299
2.09225
2.0907
2.08889
2.08734
2.08649
2.08655
2.08755
2.08936
2.09178
2.0946
2.09763
2.10074
2.10379
2.10668
2.10937
2.11181
2.11399
2.11595
2.11769
2.11924
2.12059
2.12173
2.12266
2.12348
2.07156
2.07554
2.07857
2.08142
2.08313
2.08349
2.08263
2.08097
2.07906
2.07743
2.07648
2.07643
2.07727
2.07887
2.08104
2.08358
2.08633
2.08913
2.09188
2.09448
2.09688
2.09904
2.10098
2.10271
2.10424
2.1056
2.10678
2.10776
2.10854
2.10921
2.06217
2.06618
2.0692
2.072
2.07363
2.07387
2.0729
2.07114
2.06915
2.06746
2.06644
2.06629
2.06698
2.06838
2.07031
2.07259
2.07504
2.07754
2.07998
2.08229
2.08441
2.08631
2.088
2.08951
2.09085
2.09204
2.09307
2.09391
2.09457
2.09512
2.05269
2.05673
2.05973
2.06247
2.064
2.06413
2.06304
2.0612
2.05915
2.05742
2.05636
2.05612
2.05667
2.05789
2.05959
2.06159
2.06376
2.06595
2.06809
2.07011
2.07194
2.07358
2.07504
2.07634
2.0775
2.07854
2.07943
2.08018
2.08076
2.08124
2.04311
2.04718
2.05016
2.05282
2.05424
2.05425
2.05306
2.05114
2.04906
2.04731
2.04622
2.04591
2.04634
2.04738
2.04885
2.0506
2.05247
2.05436
2.0562
2.05792
2.05948
2.06086
2.06208
2.06318
2.06418
2.06507
2.06587
2.06655
2.06709
2.06759
2.0334
2.03753
2.04047
2.04305
2.04434
2.04423
2.04295
2.04098
2.03888
2.03714
2.03603
2.03567
2.03598
2.03685
2.0381
2.03959
2.04118
2.04277
2.0443
2.04573
2.047
2.04813
2.04912
2.05001
2.05084
2.05161
2.05233
2.05298
2.05356
2.05414
2.02357
2.02775
2.03065
2.03314
2.03431
2.03408
2.03271
2.03071
2.02862
2.0269
2.0258
2.02539
2.0256
2.0263
2.02734
2.02857
2.02988
2.03117
2.0324
2.03352
2.03452
2.03537
2.03612
2.03681
2.03746
2.03811
2.03876
2.03942
2.04009
2.04087
2.0136
2.01786
2.02071
2.02311
2.02415
2.02381
2.02237
2.02035
2.01829
2.01662
2.01553
2.01508
2.01519
2.01574
2.01657
2.01755
2.01857
2.01957
2.02049
2.02132
2.02201
2.02258
2.02307
2.02352
2.02399
2.0245
2.02508
2.02577
2.02659
2.0277
2.0035
2.00785
2.01065
2.01296
2.01388
2.01343
2.01193
2.00992
2.00791
2.00629
2.00523
2.00475
2.00477
2.00517
2.0058
2.00653
2.00727
2.00797
2.00859
2.00911
2.00949
2.00976
2.00996
2.01014
2.01036
2.01068
2.01115
2.01185
2.01287
2.01443
1.99327
1.99773
2.00049
2.0027
2.00351
2.00296
2.00142
1.99943
1.9975
1.99595
1.99492
1.99441
1.99435
1.9946
1.99503
1.99551
1.99598
1.99639
1.99671
1.9969
1.99697
1.99692
1.99678
1.99664
1.99653
1.99654
1.99675
1.99733
1.99858
2.00091
1.98294
1.98752
1.99023
1.99235
1.99305
1.99241
1.99085
1.98892
1.98707
1.9856
1.98461
1.98409
1.98394
1.98405
1.98427
1.98452
1.98472
1.98484
1.98485
1.98472
1.98446
1.98406
1.98357
1.98304
1.98251
1.98203
1.98167
1.98157
1.98205
1.9849
2.41186
2.43039
2.44513
2.45906
2.471
2.4814
2.49039
2.49815
2.50483
2.51066
2.51588
2.52063
2.52507
2.52933
2.53349
2.53773
2.54202
2.54665
2.55131
2.55656
2.56153
2.56754
2.57277
2.57975
2.58515
2.59336
2.59883
2.60926
2.61419
2.62967
2.39806
2.41746
2.4327
2.44717
2.45955
2.47027
2.47949
2.48742
2.49431
2.50033
2.50566
2.51049
2.51503
2.51942
2.52366
2.52795
2.5323
2.53698
2.54168
2.54699
2.55203
2.55808
2.56332
2.57033
2.57575
2.58401
2.58953
2.60002
2.60499
2.62059
2.38402
2.40434
2.42014
2.43516
2.44798
2.45904
2.46849
2.47662
2.48373
2.48993
2.49538
2.5003
2.50494
2.50945
2.51377
2.51814
2.52256
2.5273
2.53205
2.53742
2.54253
2.54863
2.55391
2.56096
2.56644
2.57475
2.58033
2.5909
2.59592
2.61163
2.36973
2.39104
2.40749
2.42306
2.43628
2.44769
2.45742
2.46579
2.47309
2.47945
2.48503
2.49009
2.49482
2.49941
2.50384
2.50829
2.5128
2.51761
2.52243
2.52786
2.53303
2.53919
2.54455
2.55165
2.55721
2.56559
2.57125
2.58189
2.58699
2.60279
2.35525
2.37758
2.39475
2.41086
2.4245
2.43626
2.44629
2.4549
2.46239
2.4689
2.47463
2.47982
2.48466
2.48933
2.49386
2.49841
2.50301
2.5079
2.5128
2.51829
2.52353
2.52978
2.53522
2.54241
2.54806
2.55652
2.56227
2.57301
2.57818
2.59407
2.34059
2.36398
2.38189
2.39858
2.41265
2.42477
2.4351
2.44396
2.45164
2.45831
2.46419
2.46951
2.47446
2.47921
2.48385
2.4885
2.49319
2.49818
2.50316
2.50873
2.51405
2.52039
2.52593
2.53322
2.53898
2.54755
2.55339
2.56424
2.5695
2.58548
2.32577
2.35027
2.36894
2.38623
2.40074
2.41323
2.42385
2.43296
2.44084
2.44767
2.4537
2.45916
2.46422
2.46906
2.47381
2.47856
2.48334
2.48843
2.49351
2.49917
2.50458
2.51103
2.51667
2.52409
2.52996
2.53867
2.54462
2.55558
2.56095
2.57703
2.31082
2.33644
2.35591
2.37382
2.38879
2.40164
2.41257
2.42192
2.43
2.437
2.44318
2.44876
2.45395
2.45889
2.46374
2.46861
2.47349
2.47867
2.48386
2.48962
2.49513
2.50169
2.50746
2.51501
2.52102
2.52988
2.53595
2.54705
2.55251
2.56872
2.29574
2.32252
2.34282
2.36137
2.3768
2.39002
2.40125
2.41084
2.41913
2.4263
2.43262
2.43834
2.44365
2.4487
2.45365
2.45864
2.46362
2.4689
2.4742
2.48007
2.48569
2.49238
2.4983
2.50599
2.51215
2.52117
2.52739
2.53863
2.54421
2.56053
2.28056
2.30853
2.32968
2.34889
2.36479
2.37838
2.3899
2.39975
2.40824
2.41558
2.42205
2.4279
2.43333
2.43849
2.44355
2.44865
2.45374
2.45913
2.46454
2.47052
2.47627
2.4831
2.48916
2.49702
2.50335
2.51254
2.51893
2.53033
2.53602
2.55248
2.2653
2.29448
2.31646
2.3364
2.35278
2.36674
2.37855
2.38864
2.39733
2.40485
2.41147
2.41745
2.423
2.42827
2.43344
2.43865
2.44385
2.44935
2.45487
2.46099
2.46687
2.47385
2.48007
2.48811
2.49461
2.504
2.51057
2.52215
2.52797
2.54456
2.24998
2.28039
2.3031
2.32391
2.34077
2.3551
2.3672
2.37753
2.38642
2.39412
2.40089
2.40699
2.41266
2.41805
2.42332
2.42865
2.43396
2.43957
2.44521
2.45145
2.45748
2.46462
2.47102
2.47925
2.48595
2.49555
2.50231
2.5141
2.52005
2.53679
2.23463
2.2663
2.28979
2.31144
2.32878
2.34347
2.35586
2.36644
2.37551
2.38339
2.39031
2.39654
2.40232
2.40782
2.4132
2.41864
2.42406
2.42979
2.43555
2.44193
2.44812
2.45542
2.462
2.47044
2.47735
2.48718
2.49416
2.50616
2.51227
2.52915
2.21928
2.25222
2.27654
2.299
2.31682
2.33186
2.34454
2.35536
2.36463
2.37268
2.37974
2.38609
2.39199
2.39761
2.40309
2.40864
2.41417
2.42001
2.42591
2.43243
2.43877
2.44624
2.45302
2.46168
2.46881
2.4789
2.48611
2.49836
2.50462
2.52167
2.20394
2.2382
2.26335
2.28661
2.30491
2.3203
2.33326
2.34431
2.35378
2.36199
2.36919
2.37565
2.38167
2.3874
2.39299
2.39864
2.40428
2.41024
2.41627
2.42294
2.42944
2.4371
2.44407
2.45297
2.46034
2.4707
2.47817
2.49068
2.49713
2.51433
2.18866
2.22424
2.25024
2.27429
2.29305
2.30879
2.32203
2.33331
2.34296
2.35132
2.35866
2.36524
2.37137
2.37721
2.3829
2.38865
2.3944
2.40047
2.40664
2.41346
2.42013
2.42798
2.43516
2.4443
2.45192
2.46258
2.47032
2.48313
2.48979
2.50716
2.17345
2.2104
2.23739
2.26205
2.28127
2.29734
2.31085
2.32235
2.33219
2.34069
2.34816
2.35485
2.36109
2.36705
2.37283
2.37867
2.38453
2.39072
2.39702
2.404
2.41083
2.41888
2.42627
2.43567
2.44356
2.45453
2.46258
2.4757
2.48261
2.50016
2.15835
2.1967
2.22472
2.24991
2.26957
2.28598
2.29975
2.31147
2.32147
2.33011
2.3377
2.3445
2.35085
2.3569
2.36278
2.36871
2.37468
2.38099
2.38742
2.39455
2.40155
2.4098
2.41741
2.42707
2.43524
2.44655
2.45494
2.46841
2.47559
2.49335
2.14341
2.18316
2.21221
2.23789
2.25798
2.27471
2.28874
2.30066
2.31082
2.31959
2.32729
2.3342
2.34064
2.34679
2.35275
2.35877
2.36483
2.37127
2.37782
2.38511
2.39228
2.40074
2.40856
2.4185
2.42696
2.43863
2.44739
2.46126
2.46875
2.48673
2.12865
2.16982
2.19988
2.22601
2.24651
2.26355
2.27783
2.28994
2.30025
2.30914
2.31695
2.32395
2.33048
2.3367
2.34274
2.34885
2.35501
2.36156
2.36824
2.37569
2.38301
2.39168
2.39972
2.40994
2.41872
2.43077
2.43993
2.45424
2.4621
2.48033
2.11414
2.15672
2.18774
2.21428
2.23519
2.25252
2.26704
2.27933
2.28977
2.29878
2.30667
2.31376
2.32036
2.32666
2.33277
2.33895
2.3452
2.35187
2.35866
2.36627
2.37375
2.38262
2.39089
2.4014
2.41051
2.42296
2.43257
2.44736
2.45566
2.47417
2.09993
2.14389
2.17582
2.20272
2.22402
2.24163
2.25638
2.26882
2.27939
2.28849
2.29646
2.30363
2.31029
2.31665
2.32283
2.32908
2.33542
2.34219
2.3491
2.35685
2.36449
2.37357
2.38207
2.39287
2.40232
2.41519
2.42529
2.44063
2.44942
2.46827
2.08609
2.13136
2.16413
2.19136
2.21303
2.23091
2.24586
2.25845
2.26912
2.27831
2.28634
2.29357
2.30028
2.30669
2.31293
2.31925
2.32565
2.33253
2.33955
2.34743
2.35524
2.3645
2.37324
2.38433
2.39414
2.40746
2.41808
2.43403
2.44342
2.46266
2.0727
2.11918
2.15269
2.18022
2.20224
2.22037
2.23551
2.24822
2.25898
2.26823
2.27631
2.28359
2.29033
2.29679
2.30307
2.30944
2.31592
2.32289
2.33001
2.33802
2.34598
2.35543
2.3644
2.3758
2.38598
2.39975
2.41095
2.42756
2.43766
2.45739
2.05985
2.10737
2.14152
2.16933
2.19167
2.21003
2.22534
2.23816
2.24898
2.25827
2.26639
2.2737
2.28047
2.28694
2.29326
2.29968
2.30622
2.31327
2.32048
2.3286
2.33671
2.34635
2.35556
2.36725
2.37781
2.39206
2.40386
2.42121
2.43215
2.45248
2.04766
2.09598
2.13065
2.15872
2.18137
2.19994
2.21538
2.22828
2.23913
2.24845
2.25658
2.26391
2.27069
2.27717
2.28351
2.28995
2.29655
2.30366
2.31095
2.31919
2.32744
2.33726
2.3467
2.35868
2.36962
2.38436
2.39681
2.41498
2.42691
2.44801
2.03628
2.08506
2.12012
2.14844
2.17137
2.19011
2.20566
2.21861
2.22948
2.2388
2.24692
2.25423
2.261
2.26747
2.27382
2.28028
2.28691
2.29408
2.30144
2.30977
2.31816
2.32815
2.33781
2.35008
2.36141
2.37665
2.38979
2.40883
2.42195
2.44403
2.02571
2.07441
2.10979
2.13834
2.16152
2.18041
2.19604
2.20902
2.21988
2.22918
2.23728
2.24457
2.25131
2.25776
2.2641
2.27058
2.27724
2.28444
2.29188
2.30029
2.30881
2.31896
2.32887
2.34142
2.35314
2.36886
2.38273
2.4027
2.41724
2.44064
2.01542
2.06343
2.09917
2.12797
2.1514
2.17047
2.18619
2.19921
2.21008
2.21938
2.22746
2.23472
2.24145
2.24788
2.25423
2.26072
2.26742
2.27466
2.28218
2.29068
2.29934
2.30966
2.3198
2.33262
2.34474
2.36095
2.37559
2.39655
2.41277
2.43793
2.00564
2.05253
2.08861
2.11757
2.1412
2.16043
2.17624
2.18931
2.20021
2.20951
2.2176
2.22485
2.23157
2.23801
2.24436
2.25088
2.25761
2.2649
2.27248
2.28107
2.28986
2.30033
2.31069
2.32376
2.33627
2.35291
2.36832
2.39022
2.40838
2.43591
1.97857
2.0259
2.0623
2.09145
2.115
2.13412
2.14978
2.16272
2.1735
2.18265
2.19059
2.19768
2.20426
2.21057
2.21683
2.22329
2.23001
2.2373
2.24499
2.25369
2.26276
2.27351
2.2844
2.298
2.31146
2.3291
2.34655
2.37082
2.39478
2.43036
1.92262
1.96972
2.00548
2.03446
2.05812
2.07741
2.09327
2.10644
2.11751
2.12697
2.13524
2.14272
2.14969
2.15644
2.16319
2.17015
2.17741
2.18527
2.19359
2.20295
2.21273
2.22427
2.23605
2.25064
2.26531
2.28441
2.30388
2.33065
2.35833
2.39743
1.86856
1.91355
1.94828
1.97672
2.00025
2.01957
2.03555
2.04894
2.06032
2.0701
2.07874
2.08663
2.09404
2.10129
2.10858
2.11609
2.12395
2.13243
2.14141
2.15146
2.16198
2.17431
2.18692
2.20242
2.21809
2.2383
2.25899
2.28702
2.31599
2.35592
1.81404
1.85706
1.89049
1.91824
1.94152
1.96075
1.97681
1.99041
2.00201
2.01209
2.0211
2.0294
2.03728
2.04503
2.05283
2.06091
2.06937
2.07847
2.08809
2.09881
2.11005
2.1231
2.13645
2.15271
2.16916
2.19011
2.21149
2.24009
2.26941
2.3095
1.75939
1.80017
1.83225
1.85924
1.88212
1.90115
1.91719
1.93089
1.9427
1.95311
1.9625
1.97124
1.97961
1.98788
1.99622
2.00489
2.01394
2.02365
2.03391
2.04527
2.05715
2.07083
2.08482
2.10167
2.11868
2.14006
2.16176
2.1905
2.21973
2.25965
1.70366
1.74252
1.77324
1.79934
1.82173
1.84053
1.8565
1.87028
1.88231
1.89304
1.90282
1.91201
1.92087
1.92966
1.93858
1.94782
1.95747
1.96778
1.97865
1.99061
2.00309
2.01732
2.03184
2.04914
2.06652
2.08813
2.10993
2.13856
2.16745
2.20705
1.64659
1.68376
1.71318
1.73841
1.76034
1.77889
1.79474
1.80859
1.82083
1.83185
1.84201
1.85164
1.86099
1.87031
1.87978
1.88959
1.89982
1.91072
1.92217
1.93469
1.9477
1.96242
1.97738
1.99503
2.01267
2.0344
2.05614
2.08453
2.11294
2.15213
1.58801
1.62369
1.65194
1.67636
1.69783
1.7161
1.73183
1.74572
1.75815
1.76945
1.77999
1.79004
1.79988
1.80972
1.81973
1.8301
1.8409
1.85235
1.86435
1.87739
1.89089
1.90604
1.92137
1.93931
1.95713
1.9789
2.00051
2.0286
2.05643
2.09516
1.52782
1.5622
1.58939
1.61305
1.63407
1.65208
1.66768
1.6816
1.69419
1.70577
1.71666
1.72715
1.73745
1.7478
1.75834
1.76925
1.78058
1.79257
1.80508
1.81861
1.83256
1.8481
1.86376
1.88194
1.8999
1.92168
1.94311
1.97087
1.99806
2.03629
1.466
1.4992
1.52544
1.54838
1.56898
1.58675
1.60223
1.61616
1.6289
1.64074
1.65197
1.66286
1.67362
1.68445
1.6955
1.70693
1.71878
1.73128
1.74428
1.75826
1.77263
1.78854
1.80451
1.8229
1.84097
1.86274
1.88399
1.9114
1.93794
1.97564
1.40249
1.43462
1.46
1.48227
1.50249
1.52004
1.53539
1.54933
1.56221
1.57428
1.58584
1.59711
1.6083
1.6196
1.63113
1.64305
1.65541
1.66839
1.68186
1.69627
1.71104
1.7273
1.74355
1.76215
1.78033
1.80209
1.82316
1.85023
1.87609
1.91327
1.3373
1.36843
1.39302
1.41468
1.43452
1.45188
1.46711
1.48104
1.49404
1.50633
1.51818
1.52981
1.54142
1.55316
1.56515
1.57755
1.59037
1.60382
1.61773
1.63257
1.64772
1.6643
1.68083
1.69964
1.71793
1.7397
1.7606
1.78734
1.81255
1.84918
1.27042
1.30061
1.32447
1.34553
1.36504
1.38221
1.39733
1.41124
1.42433
1.43682
1.44894
1.46091
1.47289
1.48505
1.49748
1.51033
1.5236
1.53748
1.55182
1.56706
1.58258
1.59949
1.61629
1.6353
1.65371
1.67549
1.69627
1.7227
1.74728
1.78337
1.20186
1.23113
1.2543
1.27481
1.29398
1.31098
1.32599
1.33987
1.35304
1.36569
1.37806
1.39033
1.40267
1.41521
1.42805
1.44131
1.45501
1.46931
1.48405
1.49967
1.51554
1.53277
1.54983
1.56905
1.58759
1.60941
1.63008
1.65624
1.68024
1.71579
1.13165
1.16001
1.18252
1.20247
1.22131
1.23815
1.25305
1.26688
1.2801
1.29289
1.30547
1.31801
1.33067
1.34356
1.35678
1.37043
1.38452
1.39921
1.41433
1.43031
1.44651
1.46403
1.48136
1.50078
1.51946
1.54132
1.56192
1.58785
1.61131
1.64634
1.05982
1.08725
1.1091
1.1285
1.14699
1.16368
1.17846
1.19223
1.20547
1.21837
1.23112
1.24389
1.25682
1.27003
1.28359
1.29759
1.31204
1.32708
1.34255
1.35886
1.37537
1.39318
1.41076
1.43037
1.44919
1.47111
1.49168
1.51739
1.54039
1.57489
0.986389
1.01287
1.03404
1.05289
1.07102
1.08754
1.1022
1.11588
1.12912
1.14208
1.15495
1.16791
1.18108
1.19455
1.2084
1.22271
1.23747
1.25283
1.26861
1.28521
1.30201
1.32007
1.33788
1.35767
1.37663
1.3986
1.41915
1.44467
1.46727
1.50125
0.911398
0.93687
0.95735
0.975629
0.993378
1.00971
1.02423
1.0378
1.05099
1.06398
1.07693
1.09002
1.10337
1.11705
1.13113
1.1457
1.16072
1.17635
1.19239
1.20925
1.22629
1.24457
1.26257
1.28251
1.3016
1.32359
1.34415
1.36948
1.39177
1.42523
0.834892
0.859297
0.879049
0.896731
0.914055
0.930165
0.94454
0.957973
0.971073
0.984037
0.997017
1.01018
1.02363
1.03746
1.05171
1.06647
1.08169
1.09753
1.11378
1.13083
1.14806
1.1665
1.18465
1.20468
1.22385
1.24583
1.26637
1.29148
1.31351
1.34641
0.756902
0.780172
0.799159
0.816208
0.833061
0.848913
0.863111
0.876375
0.889347
0.902233
0.915169
0.928323
0.941809
0.955711
0.970064
0.984936
1.00029
1.01626
1.03263
1.04981
1.06715
1.08567
1.1039
1.12395
1.14316
1.16507
1.18561
1.21051
1.23234
1.26465
0.677474
0.699527
0.717709
0.734093
0.750418
0.765961
0.779945
0.793
0.805791
0.818532
0.831354
0.844425
0.857863
0.871747
0.886105
0.901004
0.916393
0.932408
0.948819
0.966018
0.983367
1.00186
1.02006
1.04001
1.05913
1.08082
1.10117
1.12568
1.14732
1.17901
0.596675
0.617416
0.634751
0.650432
0.666165
0.68133
0.695046
0.707842
0.720393
0.732922
0.745554
0.758454
0.771744
0.785506
0.799766
0.814588
0.829907
0.84585
0.862178
0.879279
0.896518
0.914866
0.932927
0.952667
0.971645
0.993083
1.01334
1.03753
1.05888
1.08964
0.51461
0.533943
0.550381
0.565303
0.580369
0.595063
0.60844
0.620919
0.633164
0.645403
0.657751
0.670379
0.683415
0.696943
0.710985
0.7256
0.740716
0.756451
0.772553
0.789402
0.806354
0.824353
0.84203
0.861265
0.879717
0.900428
0.920031
0.943379
0.964665
0.994761
0.431623
0.449385
0.464816
0.478879
0.493163
0.507261
0.520206
0.532292
0.544141
0.555986
0.567947
0.580196
0.592859
0.606019
0.6197
0.633961
0.648721
0.664086
0.679799
0.696225
0.712741
0.730254
0.747479
0.766185
0.784218
0.804346
0.823479
0.845903
0.86594
0.894253
0.348663
0.364459
0.378577
0.39159
0.404911
0.418212
0.430572
0.44213
0.453443
0.464756
0.476197
0.487934
0.500083
0.512729
0.525893
0.539635
0.553849
0.568636
0.583715
0.599433
0.615136
0.631699
0.647861
0.665309
0.682078
0.700762
0.718752
0.739913
0.760125
0.786902
0.267888
0.280919
0.29299
0.304528
0.316538
0.328676
0.34013
0.350902
0.361434
0.371972
0.382678
0.393708
0.405165
0.417122
0.429587
0.442604
0.456074
0.470097
0.484401
0.499297
0.514175
0.529814
0.545018
0.561253
0.576622
0.593363
0.609066
0.627345
0.644712
0.669389
0.192661
0.20188
0.210833
0.220101
0.230166
0.240511
0.25045
0.259907
0.269139
0.278416
0.287994
0.29801
0.308502
0.319511
0.331018
0.343031
0.35539
0.368194
0.381121
0.394489
0.407684
0.421508
0.434958
0.4494
0.463457
0.478908
0.493877
0.510343
0.524313
0.541307
0.12635
0.131136
0.136179
0.142301
0.149538
0.15725
0.164769
0.171966
0.17898
0.186134
0.193756
0.201992
0.210875
0.220412
0.230576
0.241332
0.252471
0.264007
0.275566
0.287316
0.298562
0.309949
0.320405
0.331263
0.34122
0.352189
0.362898
0.37532
0.388105
0.402637
0.0704993
0.071603
0.0729365
0.0753376
0.0791123
0.0836279
0.0880395
0.0921944
0.0961953
0.100355
0.104962
0.110164
0.116027
0.122603
0.129881
0.137859
0.146395
0.155549
0.164994
0.174833
0.184453
0.194101
0.202795
0.211079
0.217679
0.223771
0.228331
0.233477
0.237387
0.243125
0.0227053
0.0219833
0.0209985
0.0197815
0.0201701
0.0216998
0.022917
0.0239625
0.0249192
0.0259534
0.027199
0.0287433
0.030641
0.0329415
0.0356549
0.0388085
0.0423445
0.0464058
0.0507376
0.0556032
0.0604933
0.0658206
0.0707762
0.0757773
0.079926
0.0835935
0.0860128
0.0878281
0.0873176
0.0850082
1.93681
1.88144
1.829
1.77578
1.72233
1.66756
1.61132
1.55355
1.4941
1.43301
1.37026
1.30583
1.23975
1.17204
1.10274
1.03188
0.959505
0.885659
0.810393
0.73377
0.655855
0.576772
0.496769
0.416335
0.336527
0.25939
0.187655
0.12423
0.0698784
0.0235948
1.92247
1.86763
1.81584
1.76313
1.71016
1.65578
1.5999
1.54247
1.48334
1.42257
1.36013
1.29602
1.23025
1.16287
1.0939
1.0234
0.951391
0.87793
0.803069
0.726882
0.649429
0.570837
0.491378
0.411554
0.332452
0.25616
0.185369
0.122938
0.0693415
0.0237043
1.90815
1.85432
1.80316
1.75092
1.69842
1.64447
1.58895
1.53187
1.47308
1.41264
1.35051
1.28672
1.22128
1.15424
1.0856
1.01545
0.943807
0.870726
0.79626
0.720493
0.643484
0.56536
0.486412
0.407154
0.328696
0.253139
0.183121
0.121519
0.0686573
0.0236788
1.89385
1.84123
1.79074
1.73896
1.68691
1.63337
1.57821
1.52147
1.463
1.40288
1.34106
1.27759
1.21246
1.14576
1.07746
1.00766
0.936367
0.863662
0.789586
0.714229
0.637658
0.559993
0.481532
0.402807
0.324964
0.250123
0.1809
0.120155
0.0680147
0.023628
1.87974
1.82843
1.77864
1.72733
1.67569
1.62253
1.56773
1.51132
1.45316
1.39334
1.33183
1.26866
1.20384
1.13746
1.06949
1.00002
0.929086
0.856748
0.783054
0.708097
0.631953
0.554735
0.476745
0.398534
0.321283
0.247139
0.178713
0.118837
0.0674191
0.0235704
1.86586
1.8159
1.76685
1.71599
1.66475
1.61197
1.5575
1.50141
1.44355
1.38402
1.3228
1.25993
1.19541
1.12934
1.06168
0.992547
0.921951
0.849971
0.776654
0.702086
0.626359
0.549577
0.472046
0.394333
0.317655
0.244195
0.176573
0.117557
0.0668528
0.0234963
1.85223
1.80363
1.75534
1.70496
1.65409
1.60167
1.54752
1.49174
1.43417
1.37493
1.31398
1.2514
1.18717
1.12139
1.05405
0.985229
0.914966
0.843334
0.770387
0.696199
0.620877
0.544523
0.467445
0.390225
0.314102
0.241314
0.174489
0.116318
0.0663149
0.0234054
1.83889
1.79162
1.7441
1.69422
1.64371
1.59164
1.53781
1.48232
1.42503
1.36607
1.30538
1.24307
1.17912
1.11362
1.04658
0.978071
0.908132
0.836839
0.764252
0.690434
0.615507
0.539573
0.462942
0.386209
0.310629
0.238504
0.172462
0.115122
0.0658055
0.0233001
1.82586
1.77988
1.73313
1.68377
1.6336
1.58187
1.52834
1.47314
1.41612
1.35742
1.297
1.23495
1.17127
1.10605
1.03929
0.971076
0.901454
0.83049
0.758249
0.684789
0.610246
0.534721
0.458529
0.382273
0.307227
0.235762
0.170483
0.113966
0.0653225
0.0231824
1.81316
1.76842
1.72242
1.6736
1.62378
1.57236
1.51913
1.4642
1.40745
1.34901
1.28883
1.22704
1.16362
1.09866
1.03218
0.964251
0.894936
0.824289
0.752378
0.679264
0.60509
0.529962
0.454194
0.378406
0.303888
0.233079
0.168559
0.11285
0.0648639
0.0230543
1.8008
1.75725
1.71198
1.66371
1.61423
1.56312
1.51017
1.45551
1.39901
1.34082
1.28089
1.21935
1.15618
1.09147
1.02526
0.957602
0.888581
0.818238
0.746643
0.673863
0.600044
0.525298
0.449941
0.374608
0.300614
0.230454
0.166689
0.111774
0.0644296
0.022918
1.7888
1.74638
1.70181
1.65408
1.60495
1.55414
1.50146
1.44706
1.39081
1.33285
1.27316
1.21186
1.14893
1.08447
1.01852
0.951132
0.882392
0.812341
0.741051
0.668595
0.595117
0.520739
0.44578
0.370891
0.297418
0.227894
0.164879
0.110742
0.0640207
0.0227761
1.77716
1.73581
1.69191
1.64472
1.59595
1.54542
1.49301
1.43885
1.38283
1.32511
1.26565
1.20458
1.14189
1.07767
1.01197
0.944844
0.876371
0.806602
0.735609
0.663469
0.590321
0.5163
0.44173
0.367276
0.294314
0.225415
0.163137
0.109757
0.0636377
0.0226307
1.76591
1.72555
1.68229
1.63564
1.58722
1.53698
1.48482
1.43088
1.3751
1.3176
1.25836
1.19751
1.13505
1.07107
1.00561
0.938738
0.870521
0.801024
0.730322
0.65849
0.585663
0.51199
0.437799
0.363773
0.291313
0.22302
0.161466
0.10882
0.0632821
0.0224834
1.75505
1.71562
1.67297
1.62684
1.57877
1.52879
1.47688
1.42317
1.3676
1.31032
1.25129
1.19065
1.12842
1.06467
0.99944
0.932811
0.864841
0.795607
0.725188
0.653656
0.581142
0.507809
0.433989
0.360383
0.288423
0.220705
0.159866
0.107934
0.0629575
0.0223357
1.7446
1.70603
1.66394
1.61832
1.57059
1.52089
1.46921
1.41572
1.36035
1.30328
1.24444
1.18401
1.12199
1.05847
0.99346
0.927064
0.859332
0.790351
0.720204
0.648959
0.576749
0.503747
0.43029
0.357099
0.285631
0.218476
0.158336
0.107097
0.0626646
0.0221889
1.73456
1.69677
1.65523
1.61008
1.56269
1.51325
1.4618
1.40852
1.35335
1.29647
1.23783
1.17759
1.11578
1.05246
0.987669
0.921494
0.853993
0.785253
0.715364
0.644392
0.572475
0.499796
0.426692
0.353912
0.282927
0.21633
0.156877
0.10631
0.0624031
0.0220443
1.72494
1.68787
1.64682
1.60212
1.55508
1.50589
1.45466
1.40158
1.3466
1.2899
1.23145
1.1714
1.10978
1.04666
0.982071
0.916108
0.848827
0.780314
0.710669
0.639956
0.56832
0.495952
0.423193
0.35082
0.280308
0.214273
0.15549
0.105572
0.0621622
0.0219009
1.71575
1.67932
1.63874
1.59446
1.54774
1.4988
1.44779
1.39491
1.3401
1.28358
1.22531
1.16544
1.104
1.04107
0.976672
0.91091
0.843841
0.775542
0.706125
0.635656
0.564288
0.492218
0.419796
0.347832
0.277783
0.212309
0.154178
0.104884
0.0619412
0.0217602
1.707
1.67114
1.63098
1.5871
1.54069
1.49199
1.44118
1.38849
1.33386
1.27751
1.21941
1.15971
1.09844
1.03569
0.971481
0.905909
0.83904
0.770944
0.701741
0.631505
0.560389
0.488605
0.41651
0.34495
0.275362
0.210442
0.152945
0.104245
0.0617388
0.0216228
1.6987
1.66333
1.62356
1.58005
1.53393
1.48546
1.43485
1.38233
1.32788
1.27169
1.21375
1.15421
1.09311
1.03053
0.966502
0.901111
0.834431
0.766529
0.697528
0.627513
0.556633
0.48512
0.413343
0.342174
0.273055
0.208675
0.151791
0.103656
0.0615574
0.0214894
1.69084
1.6559
1.61649
1.57331
1.52746
1.47921
1.42879
1.37645
1.32215
1.26612
1.20835
1.14896
1.08802
1.0256
0.96174
0.896518
0.830017
0.762301
0.693491
0.623685
0.553023
0.481767
0.410299
0.339506
0.27086
0.207006
0.150714
0.103116
0.0613977
0.021361
1.68344
1.64886
1.60976
1.56688
1.52129
1.47325
1.42302
1.37083
1.3167
1.26081
1.20319
1.14395
1.08316
1.02089
0.957193
0.892132
0.825798
0.758258
0.689628
0.620016
0.549556
0.478542
0.407371
0.336947
0.268771
0.205434
0.149711
0.102622
0.061258
0.0212381
1.6765
1.64221
1.60339
1.56077
1.51543
1.46758
1.41752
1.36548
1.3115
1.25575
1.19827
1.13917
1.07853
1.01641
0.95286
0.887948
0.821769
0.754393
0.685929
0.616497
0.546225
0.475436
0.404549
0.334492
0.266781
0.203953
0.148781
0.102174
0.061137
0.0211214
1.67001
1.63595
1.59737
1.555
1.50987
1.4622
1.41232
1.36041
1.30658
1.25095
1.19361
1.13465
1.07414
1.01216
0.94874
0.883964
0.817928
0.7507
0.682386
0.613119
0.543015
0.47244
0.401829
0.332132
0.264884
0.202559
0.147921
0.101768
0.0610336
0.0210116
1.66398
1.6301
1.59173
1.54955
1.50464
1.45712
1.4074
1.35563
1.30192
1.24642
1.18921
1.13037
1.07
1.00813
0.944833
0.88018
0.81427
0.747172
0.678992
0.609878
0.539917
0.46955
0.399207
0.329862
0.263074
0.201251
0.147129
0.101406
0.060947
0.020909
1.6584
1.62465
1.58645
1.54445
1.49972
1.45235
1.40278
1.35113
1.29755
1.24216
1.18507
1.12635
1.06609
1.00433
0.941141
0.876597
0.810796
0.743811
0.675745
0.606755
0.536951
0.466766
0.396681
0.327681
0.261351
0.200026
0.146405
0.101084
0.060876
0.020814
1.65328
1.6196
1.58155
1.5397
1.49514
1.4479
1.39847
1.34692
1.29347
1.23818
1.1812
1.12259
1.06243
1.00076
0.937669
0.873219
0.807509
0.740617
0.672649
0.603768
0.534109
0.464095
0.394254
0.32559
0.259713
0.198886
0.145749
0.100802
0.0608192
0.0207266
1.64862
1.61497
1.57703
1.5353
1.49089
1.44376
1.39447
1.34302
1.28968
1.23448
1.17761
1.11909
1.05901
0.997435
0.934419
0.870049
0.804413
0.737597
0.669711
0.600926
0.531399
0.461542
0.39193
0.323591
0.258162
0.197828
0.145157
0.100559
0.0607749
0.0206469
1.64442
1.61075
1.5729
1.53126
1.48698
1.43995
1.39078
1.33942
1.28618
1.23108
1.17429
1.11585
1.05585
0.994342
0.931395
0.867089
0.801512
0.734757
0.66694
0.598237
0.528827
0.459112
0.389713
0.321686
0.256695
0.196851
0.144628
0.100352
0.0607413
0.0205752
1.64067
1.60695
1.56916