/*--------------------------------*- C++ -*----------------------------------*\
  =========                 |
  \\      /  F ield         | OpenFOAM: The Open Source CFD Toolbox
   \\    /   O peration     | Website:  https://openfoam.org
    \\  /    A nd           | Version:  7
     \\/     M anipulation  |
\*---------------------------------------------------------------------------*/
FoamFile
{
    version     2.0;
    format      ascii;
    class       surfaceScalarField;
    location    "1.9";
    object      phi;
}
// * * * * * * * * * * * * * * * * * * * * * * * * * * * * * * * * * * * * * //

dimensions      [0 3 -1 0 0 0 0];

internalField   nonuniform List<scalar> 
35640
(
-3.17311e-05
0.0024309
-0.00239916
-0.000106328
0.0056136
-0.005539
-0.000209592
0.00763703
-0.00753377
-0.000321085
0.00869401
-0.00858252
-0.000418737
0.00901309
-0.00891543
-0.000482302
0.00879547
-0.0087319
-0.00049519
0.00819979
-0.0081869
-0.000445188
0.00734658
-0.00739658
-0.000324566
0.00632808
-0.0064487
-0.000129726
0.005217
-0.00541184
0.000139168
0.00407247
-0.00434137
0.000478641
0.0029431
-0.00328258
0.000882565
0.00186822
-0.00227214
0.00134285
0.000878255
-0.00133854
0.0018501
-5.0476e-06
-0.000502201
0.00239434
-0.000768359
0.000224119
0.00296566
-0.00140591
0.000834585
0.00355477
-0.00191848
0.00132937
0.00415332
-0.00231198
0.00171343
0.00475419
-0.00259607
0.00199519
0.00535159
-0.00278274
0.00218534
0.00594101
-0.00288516
0.00229575
0.00651916
-0.00291671
0.00233856
0.0070838
-0.0028902
0.00232555
0.00763359
-0.00281744
0.00226765
0.0081679
-0.00270889
0.00217458
0.00868664
-0.00257352
0.00205478
0.00919006
-0.00241872
0.0019153
0.00967862
-0.00224811
0.00175956
-0.0020549
0.0101526
0.00158095
-1.90858e-05
0.00244998
-6.86373e-05
0.00566315
-0.000140049
0.00770845
-0.000216776
0.00877074
-0.000279112
0.00907542
-0.000308168
0.00882453
-0.000288091
0.00817971
-0.000207029
0.00726551
-5.74421e-05
0.00617849
0.000164047
0.00499551
0.000457058
0.00377946
0.000817952
0.00258221
0.00124042
0.00144575
0.00171619
0.000402488
0.00223572
-0.000524584
0.00278898
-0.00132162
0.00336611
-0.00198304
0.00395798
-0.00251034
0.00455649
-0.0029105
0.00515487
-0.00319445
0.00574769
-0.00337556
0.00633087
-0.00346834
0.00690154
-0.00348738
0.00745786
-0.00344652
0.00799886
-0.00335844
0.00852425
-0.00323428
0.0090342
-0.00308347
0.00952921
-0.00291373
0.01001
-0.00272894
-0.00252218
0.0104773
-6.97227e-06
0.00245695
-3.12874e-05
0.00568747
-7.00517e-05
0.00774721
-0.000110734
0.00881142
-0.000136056
0.00910075
-0.000128588
0.00881706
-7.33517e-05
0.00812447
4.09357e-05
0.00715123
0.000221448
0.00599798
0.000471309
0.00474565
0.000789892
0.00346088
0.00117328
0.00219882
0.00161491
0.00100412
0.00210628
-8.88772e-05
0.0026377
-0.00105601
0.00319916
-0.00188308
0.00378092
-0.0025648
0.00437406
-0.00310349
0.00497084
-0.00350728
0.00556489
-0.0037885
0.00615128
-0.00396195
0.00672641
-0.00404348
0.00728788
-0.00404885
0.00783431
-0.00399295
0.00836511
-0.00388924
0.00888031
-0.00374947
0.00938037
-0.00358353
0.00986606
-0.00339942
0.0103383
-0.00320122
-0.00298207
0.0107982
4.78956e-06
0.00245217
5.29031e-06
0.00568697
-6.99327e-07
0.0077532
-4.4427e-06
0.00881517
8.67786e-06
0.00908763
5.43845e-05
0.00877136
0.000146642
0.00803222
0.000296051
0.00700182
0.000509326
0.0057847
0.000789201
0.00446578
0.00113467
0.00311541
0.00154147
0.00179202
0.00200271
0.000542885
0.00250963
-0.000595804
0.00305248
-0.00159886
0.00362123
-0.00245184
0.00420635
-0.00314992
0.00479922
-0.00369636
0.00539255
-0.00410061
0.0059805
-0.00437645
0.00655868
-0.00454013
0.00712405
-0.00460885
0.00767475
-0.00459955
0.00820986
-0.00452806
0.00872921
-0.00440859
0.00923316
-0.00425342
0.00972245
-0.00407283
0.0101981
-0.00387503
0.0106612
-0.00366434
-0.00343402
0.0111131
1.5655e-05
0.00243651
4.0365e-05
0.00566226
6.69947e-05
0.00772657
0.00010057
0.00878159
0.000153048
0.00903515
0.000238362
0.00868604
0.000369245
0.00790134
0.000555477
0.00681559
0.000803172
0.00553701
0.00111453
0.00415442
0.00148805
0.00274189
0.00191903
0.00136104
0.00240021
6.17038e-05
0.00292257
-0.00111816
0.00347623
-0.00215252
0.00405129
-0.00302689
0.00463845
-0.00373708
0.00522952
-0.00428743
0.00581774
-0.00468883
0.00639788
-0.0049566
0.0069662
-0.00510845
0.00752027
-0.00516293
0.00805879
-0.00513807
0.00858135
-0.00505062
0.00908819
-0.00491543
0.00958003
-0.00474525
0.0100578
-0.00455064
0.0105228
-0.00434001
0.0109763
-0.00411785
-0.0038777
0.01142
2.57777e-05
0.00241073
7.35824e-05
0.00561445
0.000132115
0.00766804
0.000202952
0.00871076
0.000295331
0.00894277
0.000421217
0.00856016
0.000592009
0.00773054
0.000816515
0.00659108
0.00110004
0.00525348
0.00144412
0.00381034
0.00184667
0.00233934
0.00230244
0.000905275
0.00280371
-0.000439572
0.00334121
-0.00165566
0.003905
-0.00271631
0.0044853
-0.0036072
0.00507317
-0.00432495
0.00566093
-0.00487519
0.00624246
-0.00527037
0.00681323
-0.00552737
0.0073702
-0.00566542
0.00791161
-0.00570434
0.00843676
-0.00566322
0.00894575
-0.00555962
0.00943926
-0.00540894
0.00991832
-0.00522431
0.0103841
-0.00501647
0.0108381
-0.00479398
0.0112817
-0.00456146
-0.00431286
0.0117169
3.49148e-05
0.00237582
0.000104474
0.00554489
0.000193886
0.00757863
0.000301471
0.00860317
0.00043383
0.00881042
0.000600903
0.00839309
0.000812545
0.0075189
0.00107642
0.00632721
0.00139692
0.00493299
0.00177475
0.00343251
0.00220707
0.00190702
0.00268801
0.000424335
0.00320938
-0.000960937
0.00376161
-0.00220789
0.00433473
-0.00328944
0.00491919
-0.00419166
0.00550644
-0.0049122
0.00608946
-0.0054582
0.00666283
-0.00584374
0.00722282
-0.00608736
0.00776713
-0.00620974
0.00829473
-0.00623194
0.00880555
-0.00617404
0.00930021
-0.00605428
0.0097798
-0.00588853
0.0102456
-0.00569015
0.0106992
-0.00547004
0.011142
-0.00523675
0.0115756
-0.00499507
-0.00473939
0.0120021
4.29865e-05
0.00233283
0.000132699
0.00545518
0.000251565
0.00745976
0.000395012
0.00845972
0.000567041
0.00863839
0.000775479
0.00818465
0.00102854
0.00726584
0.0013326
0.00602315
0.00169092
0.00457467
0.00210323
0.00302019
0.00256586
0.00144439
0.00307218
-8.19842e-05
0.00361347
-0.00150222
0.00417989
-0.00277431
0.00476148
-0.00387103
0.00534894
-0.00477912
0.00593429
-0.00549755
0.00651119
-0.0060351
0.00707508
-0.00640763
0.00762303
-0.00663531
0.0081536
-0.00674031
0.00866649
-0.00674483
0.00916227
-0.00666982
0.00964208
-0.00653409
0.0101074
-0.00635384
0.0105598
-0.00614259
0.011001
-0.00591125
0.0114326
-0.00566833
0.0118563
-0.00541872
-0.00515736
0.0122742
4.99114e-05
0.00228292
0.000157984
0.00534711
0.000304596
0.00731315
0.000482633
0.00828169
0.000693615
0.00842741
0.000943232
0.00793503
0.00123794
0.00697113
0.00158264
0.00567845
0.00197934
0.00417797
0.00242665
0.00257289
0.00291987
0.000951167
0.00345156
-0.000613673
0.00401242
-0.00206308
0.00459235
-0.00335424
0.00518143
-0.00446011
0.00577073
-0.00536843
0.0063529
-0.00607972
0.00692241
-0.00660462
0.0074756
-0.00696081
0.00801047
-0.00717018
0.00852643
-0.00725627
0.00902395
-0.00724235
0.00950423
-0.00715011
0.00996892
-0.00699877
0.0104199
-0.00680478
0.0108589
-0.00658165
0.0112879
-0.00634024
0.0117085
-0.00608893
0.0121224
-0.00583264
-0.00556698
0.0125321
5.56611e-05
0.00222726
0.000180164
0.0052226
0.000352564
0.00714075
0.000563605
0.00807065
0.000812482
0.00817853
0.00110274
0.00764477
0.00143899
0.00663489
0.0018245
0.00529294
0.00225985
0.00374262
0.00274237
0.00209038
0.00326622
0.000427317
0.00382304
-0.0011705
0.00440293
-0.00264297
0.00499553
-0.00394684
0.00559102
-0.00505561
0.00618094
-0.00595835
0.00675867
-0.00665745
0.0073196
-0.00716554
0.00786104
-0.00750225
0.00838196
-0.00769111
0.00888267
-0.00775698
0.0093644
-0.00772409
0.00982898
-0.00761469
0.0102785
-0.00744833
0.0107152
-0.00724147
0.0111412
-0.00700759
0.0115583
-0.00675733
0.0119682
-0.00649892
0.0123728
-0.00623723
-0.00596862
0.0127745
6.02474e-05
0.00216701
0.000199175
0.00508368
0.000395236
0.00694469
0.000637454
0.00782843
0.000922879
0.00789311
0.00125294
0.00731471
0.00163031
0.00625752
0.0020565
0.00486675
0.0025305
0.00326862
0.00304818
0.0015727
0.00360243
-0.000126934
0.0041839
-0.00175197
0.00478205
-0.00324112
0.00538628
-0.00455107
0.00598697
-0.00565631
0.00657624
-0.00654762
0.00714829
-0.00722951
0.00769953
-0.00771677
0.0082283
-0.00803102
0.0087346
-0.00819741
0.00921964
-0.00824202
0.00968541
-0.00818986
0.0101343
-0.00806362
0.010569
-0.00788296
0.0109918
-0.00766429
0.0114051
-0.00742086
0.0118108
-0.00716306
0.0122107
-0.00689883
0.0126065
-0.00663302
-0.00636277
0.0130006
6.37142e-05
0.0021033
0.000215064
0.00493233
0.000432573
0.00672718
0.000703975
0.00755703
0.00102438
0.0075727
0.00139317
0.00694592
0.00181097
0.00583972
0.00227745
0.00440027
0.00278981
0.00275625
0.00334232
0.00102019
0.00392646
-0.000711075
0.00453181
-0.00235732
0.00514717
-0.00385648
0.00576179
-0.00516569
0.00636634
-0.00626085
0.0069536
-0.00713488
0.00751875
-0.00779465
0.00805926
-0.00825728
0.0085746
-0.00854636
0.00906581
-0.00868862
0.00953499
-0.0087112
0.00998487
-0.00863974
0.0104184
-0.00849717
0.0108386
-0.00830312
0.0112481
-0.00807379
0.0116493
-0.0078221
0.0120443
-0.00755807
0.0124348
-0.00728935
0.0128225
-0.00702068
-0.00675005
0.0132098
6.61394e-05
0.00203716
0.000227977
0.00477049
0.000464726
0.00649043
0.000763244
0.00725851
0.00111694
0.00721901
0.00152317
0.00653969
0.00198053
0.00538236
0.00248665
0.00389415
0.00303682
0.00220608
0.00362352
0.000433495
0.00423672
-0.00132427
0.00486485
-0.00298545
0.00549611
-0.00448774
0.00611964
-0.00578922
0.00672652
-0.00686774
0.00731035
-0.00771872
0.00786737
-0.00835167
0.00839622
-0.00878613
0.00889753
-0.00904767
0.00937336
-0.00916446
0.0098267
-0.00916454
0.010261
-0.009074
0.0106796
-0.00891582
0.0110859
-0.00870944
0.0114828
-0.0084707
0.0118728
-0.00821209
0.012258
-0.0079432
0.0126399
-0.00767128
0.0130202
-0.00740098
-0.00713119
0.0134013
6.76306e-05
0.00196953
0.000238159
0.00459996
0.000492027
0.00623657
0.000815609
0.00693493
0.00120083
0.00683379
0.00164313
0.0060974
0.00213898
0.0048865
0.00268389
0.00334925
0.00327105
0.00161892
0.00389098
-0.00018644
0.00453204
-0.00196533
0.00518152
-0.00363493
0.00582702
-0.00513324
0.00645771
-0.00641991
0.00706525
-0.00747527
0.00764417
-0.00829764
0.00819186
-0.00889937
0.00870821
-0.00930248
0.00919502
-0.00953447
0.00965538
-0.00962482
0.0100931
-0.00960227
0.0105122
-0.00949312
0.0109167
-0.00932025
0.0113099
-0.00910273
0.0116951
-0.0088559
0.0120748
-0.00859175
0.0124509
-0.00831933
0.0128251
-0.0080455
0.0131989
-0.00777476
-0.00750696
0.0135747
6.83224e-05
0.0019012
0.00024594
0.00442234
0.000514976
0.00596753
0.000861674
0.00658823
0.0012767
0.00641877
0.00175363
0.00562047
0.00228679
0.00435334
0.00286942
0.00276662
0.00349244
0.000995898
0.00414431
-0.0008383
0.00481165
-0.00263267
0.00548064
-0.00430392
0.0061384
-0.005791
0.00677428
-0.00705579
0.00738063
-0.00808162
0.00795308
-0.00887009
0.00849028
-0.00943657
0.0089934
-0.0098056
0.0094654
-0.0100065
0.00991038
-0.0100698
0.0103329
-0.0100248
0.0107375
-0.00989777
0.0111286
-0.00971129
0.0115098
-0.00948391
0.0118842
-0.00923038
0.0122545
-0.00896206
0.0126227
-0.00868744
0.0129901
-0.00841293
0.0133582
-0.0081429
-0.00787819
0.0137295
6.83703e-05
0.00183283
0.000251724
0.00423899
0.000534216
0.00568504
0.000902264
0.00622018
0.00134546
0.00597557
0.00185559
0.00511034
0.00242479
0.00378414
0.00304387
0.00214754
0.00370134
0.000338433
0.00438343
-0.00152039
0.00507507
-0.00332432
0.00576135
-0.0049902
0.00642905
-0.0064587
0.00706786
-0.0076946
0.00767105
-0.00868481
0.00823545
-0.00943449
0.00876106
-0.00996218
0.00925033
-0.0102949
0.00970739
-0.0104635
0.0101372
-0.0104996
0.0105451
-0.0104327
0.0109361
-0.0102887
0.0113147
-0.0100899
0.0116848
-0.00985404
0.0120496
-0.0095952
0.0124116
-0.00932405
0.0127727
-0.00904851
0.0131343
-0.0087745
0.0134976
-0.00850627
-0.00824567
0.0138651
6.79437e-05
0.00176489
0.000255964
0.00405097
0.0005505
0.0053905
0.000938375
0.00583231
0.00140828
0.00550567
0.00195023
0.00456838
0.0025541
0.00318027
0.00320814
0.0014935
0.0038983
-0.000351721
0.00460852
-0.00223062
0.00532204
-0.00403783
0.00602297
-0.00569113
0.00669796
-0.00713369
0.00733728
-0.00833392
0.00793523
-0.00928277
0.00849
-0.00998925
0.00900299
-0.0104752
0.00947794
-0.0107698
0.00992007
-0.0109057
0.0103352
-0.0109148
0.0107292
-0.0108266
0.0111074
-0.010667
0.0114747
-0.0104571
0.0118348
-0.0102142
0.0121911
-0.00995144
0.0125458
-0.00967877
0.0129008
-0.0094035
0.0132574
-0.0091311
0.0136168
-0.00886567
-0.00861015
0.0139812
6.72197e-05
0.00169767
0.000259148
0.00385904
0.00056465
0.005085
0.00097112
0.00542584
0.00146645
0.00501034
0.00203891
0.00399592
0.00267601
0.00254318
0.00336329
0.000806215
0.00408403
-0.00107246
0.00481987
-0.00296646
0.00555239
-0.00477035
0.00626497
-0.0064037
0.00694433
-0.00781306
0.00758154
-0.00897112
0.00817213
-0.00987337
0.00871575
-0.0105329
0.0092152
-0.0109746
0.00967552
-0.0112301
0.0101029
-0.011333
0.0105039
-0.0113158
0.0108848
-0.0112076
0.0112514
-0.0110335
0.0116083
-0.0108141
0.0119597
-0.0105655
0.0123084
-0.0103002
0.0126569
-0.0100272
0.0130067
-0.00975332
0.0133591
-0.00948352
0.0137153
-0.00922182
-0.00897225
0.0140774
6.63757e-05
0.0016313
0.000261774
0.00366365
0.000577518
0.00476926
0.00100166
0.00500169
0.00152135
0.00449065
0.00212308
0.00339419
0.00279185
0.0018744
0.00351041
8.76573e-05
0.00425925
-0.00182129
0.00501774
-0.00372495
0.005766
-0.00551861
0.00648688
-0.00712458
0.00716747
-0.00849365
0.00779985
-0.0096035
0.00838098
-0.0104545
0.008912
-0.0110639
0.00939718
-0.0114598
0.00984269
-0.0116757
0.0102557
-0.011746
0.0106432
-0.0117033
0.0110121
-0.0115764
0.011368
-0.0113895
0.0117159
-0.011162
0.0120595
-0.0109092
0.0124018
-0.0106425
0.0127449
-0.0103703
0.0130904
-0.0100988
0.0134394
-0.00983247
0.0137928
-0.00957529
-0.00933246
0.014153
6.55835e-05
0.00156571
0.000264324
0.0034649
0.000589944
0.00444364
0.00103116
0.00456048
0.00157434
0.00394746
0.00220412
0.00276441
0.00290291
0.00117562
0.00365048
-0.000659914
0.00442454
-0.00259536
0.00520231
-0.00450271
0.00596266
-0.00627897
0.00668823
-0.00785015
0.00736676
-0.00917218
0.00799158
-0.0102283
0.00856122
-0.0110241
0.00907837
-0.011581
0.00954867
-0.0119301
0.00997941
-0.0121064
0.0103784
-0.012145
0.0107534
-0.0120783
0.0111112
-0.0119342
0.0114577
-0.011736
0.0117976
-0.0115019
0.0121347
-0.0112462
0.0124715
-0.0109794
0.0128102
-0.010709
0.013152
-0.0104406
0.013498
-0.0101785
0.0138492
-0.00992648
-0.00969108
0.0142078
6.50018e-05
0.00150071
0.000267253
0.00326265
0.000602712
0.00410818
0.00106067
0.00410252
0.00162666
0.00338147
0.0022833
0.00210777
0.00301026
0.000448667
0.00378427
-0.00143393
0.00458031
-0.0033914
0.0053736
-0.005296
0.00614209
-0.00704746
0.00686855
-0.0085766
0.00754168
-0.00984531
0.00815629
-0.0108429
0.00871255
-0.0115804
0.00921473
-0.0120832
0.00966976
-0.0123851
0.0100859
-0.0125225
0.0104716
-0.0125308
0.0108349
-0.0124416
0.0111828
-0.0122821
0.011521
-0.0120742
0.0118541
-0.011835
0.0121856
-0.0115777
0.012518
-0.0113117
0.012853
-0.011044
0.0131918
-0.0107794
0.0135352
-0.010522
0.0138844
-0.0102756
-0.0100482
0.0142414
6.47697e-05
0.00143594
0.00027096
0.00305646
0.000616519
0.00376262
0.00109115
0.00362789
0.00167936
0.00279326
0.00236164
0.00142549
0.00311472
-0.000304416
0.00391229
-0.0022315
0.00472667
-0.00420578
0.0055314
-0.00610073
0.00630387
-0.00781993
0.00702734
-0.00930006
0.00769177
-0.0105097
0.00829365
-0.0114448
0.00883485
-0.0121216
0.00932118
-0.0125695
0.00976075
-0.0128247
0.0101626
-0.0129244
0.0105358
-0.012904
0.0108885
-0.0127942
0.0112275
-0.0126211
0.0115586
-0.0124052
0.011886
-0.0121625
0.012213
-0.0119047
0.0125418
-0.0116405
0.0128738
-0.011376
0.01321
-0.0111156
0.0135512
-0.0108631
0.0138982
-0.0106227
-0.0104036
0.0142537
6.50022e-05
0.00137094
0.00027578
0.00284568
0.000631936
0.00340646
0.00112333
0.00313649
0.00173326
0.00218333
0.00243983
0.000718922
0.00321677
-0.00108135
0.00403467
-0.00304941
0.00486346
-0.00503457
0.00567531
-0.00691258
0.00644748
-0.0085921
0.0071641
-0.0100167
0.00781669
-0.0111623
0.00840353
-0.0120317
0.00892825
-0.0126463
0.00939808
-0.0130394
0.0098222
-0.0132488
0.0102104
-0.0133126
0.0105718
-0.0132654
0.0109148
-0.0131372
0.0112462
-0.0129525
0.0115713
-0.0127304
0.0118942
-0.0124854
0.0122177
-0.0122282
0.0125437
-0.0119665
0.0128733
-0.0117057
0.0132074
-0.0114497
0.0135463
-0.0112021
0.0138912
-0.0109675
-0.010757
0.0142446
6.57879e-05
0.00130515
0.000281972
0.0026295
0.000649396
0.00303904
0.00115777
0.00262812
0.00178889
0.00155221
0.00251828
-1.04676e-05
0.00331651
-0.00187958
0.00415124
-0.00388414
0.00499022
-0.00587355
0.00580472
-0.00772708
0.00657231
-0.00935968
0.00727836
-0.0107227
0.00791619
-0.0118002
0.00848597
-0.0126014
0.00899305
-0.0131534
0.00944598
-0.0134923
0.00985485
-0.0136577
0.0102299
-0.0136876
0.0105806
-0.0136161
0.010915
-0.0134717
0.0112398
-0.0132773
0.0115601
-0.0130506
0.0118795
-0.0128047
0.0122004
-0.0125492
0.0125245
-0.0122906
0.0128525
-0.0120336
0.0131848
-0.011782
0.0135216
-0.011539
0.0138639
-0.0113098
-0.0111076
0.0142146
6.71878e-05
0.00123797
0.000289709
0.00240698
0.000669177
0.00265957
0.00119478
0.00210252
0.00184648
0.000900512
0.002597
-0.000760992
0.00341373
-0.00269631
0.00426149
-0.0047319
0.00510628
-0.00671834
0.00591891
-0.00853972
0.00667773
-0.0101185
0.00736971
-0.0114147
0.00799016
-0.0124206
0.00854118
-0.0131525
0.00902976
-0.013642
0.00946563
-0.0139282
0.00985961
-0.0140517
0.0102223
-0.0140503
0.0105631
-0.0139569
0.01089
-0.0137986
0.0112094
-0.0135967
0.0115259
-0.0133671
0.0118428
-0.0131217
0.0121623
-0.0128686
0.0124854
-0.0126136
0.0128125
-0.0123608
0.0131435
-0.012113
0.0134783
-0.0118738
0.0138175
-0.011649
-0.0114547
0.0141646
6.92366e-05
0.00116873
0.000299084
0.00217713
0.000691409
0.00226724
0.00123444
0.00155949
0.00190597
0.000228976
0.00267572
-0.00153073
0.00350784
-0.00352843
0.00436463
-0.00558869
0.00521075
-0.00756446
0.00601707
-0.00934604
0.00676314
-0.0108646
0.00743787
-0.0120894
0.00803866
-0.0130214
0.00856956
-0.0136834
0.00903906
-0.0141114
0.00945792
-0.014347
0.00983748
-0.0144312
0.0101885
-0.0144013
0.0105204
-0.0142888
0.0108408
-0.014119
0.0111557
-0.0139116
0.0114695
-0.0136809
0.0117851
-0.0134373
0.0121041
-0.0131876
0.0124273
-0.0129368
0.0127546
-0.012688
0.0130852
-0.0124437
0.0134184
-0.012207
0.0137542
-0.0119848
-0.0117964
0.014096
7.19433e-05
0.00109678
0.000310113
0.00193896
0.000716073
0.00186128
0.00127663
0.000998932
0.00196706
-0.00046145
0.00275384
-0.00231751
0.00359803
-0.00437262
0.00445969
-0.00645036
0.00530265
-0.00840742
0.00609837
-0.0101418
0.00682802
-0.0115942
0.00748267
-0.0127441
0.00806192
-0.0136007
0.00857168
-0.0141931
0.0090218
-0.0145616
0.00942386
-0.0147491
0.00978959
-0.014797
0.0101297
-0.0147414
0.0104535
-0.0146125
0.0107683
-0.0144338
0.0110797
-0.014223
0.0113917
-0.013993
0.0117069
-0.0137525
0.0120267
-0.0135074
0.0123514
-0.0132615
0.0126803
-0.0130169
0.0130121
-0.0127755
0.0133448
-0.0125397
0.0136771
-0.0123172
-0.0121305
0.0140112
7.52929e-05
0.00102149
0.00032274
0.00169151
0.000743024
0.001441
0.00132104
0.000420915
0.00202917
-0.00116958
0.00283055
-0.0031189
0.00368327
-0.00522534
0.00454557
-0.00731266
0.00538098
-0.00924283
0.00616205
-0.0109228
0.00687196
-0.0123041
0.00750412
-0.0133763
0.00806033
-0.0141569
0.00854827
-0.0146811
0.00897894
-0.0149922
0.00936456
-0.0151347
0.00971705
-0.0151495
0.0100471
-0.0150714
0.0103635
-0.0149289
0.0106733
-0.0147437
0.010982
-0.0145316
0.011293
-0.014304
0.0116089
-0.0140684
0.0119308
-0.0138293
0.0122587
-0.0135894
0.0125916
-0.0133498
0.0129269
-0.0131108
0.0132613
-0.0128741
0.0135915
-0.0126473
-0.0124537
0.0139146
7.92536e-05
0.000942238
0.000336852
0.00143391
0.000772007
0.00100584
0.0013672
-0.000174279
0.00209159
-0.00189397
0.00290488
-0.00393219
0.00376242
-0.00608288
0.00462112
-0.00817136
0.00544476
-0.0100665
0.00620746
-0.0116855
0.00689471
-0.0129914
0.0075024
-0.013984
0.00803448
-0.0146889
0.0085002
-0.0151468
0.00891156
-0.0154036
0.00928119
-0.0155044
0.00962105
-0.0154893
0.00994152
-0.0153919
0.0102512
-0.0152386
0.0105566
-0.0150492
0.0108629
-0.0148379
0.0111736
-0.0146147
0.0114909
-0.0143857
0.0118161
-0.0141546
0.0121496
-0.0139229
0.0124902
-0.0136904
0.0128345
-0.0134552
0.0131753
-0.0132149
0.013498
-0.01297
-0.0127635
0.0138079
8.3782e-05
0.000858455
0.000352296
0.0011654
0.000802683
0.000555457
0.00141452
-0.000786118
0.00215344
-0.00263288
0.00297572
-0.00475447
0.00383429
-0.00694145
0.00468523
-0.00902229
0.00549312
-0.0108744
0.0062341
-0.0124265
0.00689623
-0.0136535
0.0074779
-0.0145656
0.00798509
-0.0151961
0.00842848
-0.0155902
0.00882081
-0.0157959
0.00917496
-0.0158585
0.00950272
-0.0158171
0.00981416
-0.0157033
0.0101174
-0.0155418
0.0104187
-0.0153505
0.0107228
-0.015142
0.011033
-0.0149249
0.0113519
-0.0147046
0.0116812
-0.0144838
0.0120221
-0.0142638
0.0123754
-0.0140437
0.0127411
-0.0138209
0.0131161
-0.0135899
0.0134873
-0.0133412
0.0137697
-0.0130458
0.0110264
-0.00556903
0.00469515
0.0115463
-0.00057406
5.41686e-05
0.0118159
0.00436083
-0.00463041
0.0119299
0.00818725
-0.0083012
0.0119405
0.0110258
-0.0110364
0.0118787
0.0132166
-0.0131548
0.0117623
0.0151472
-0.0150308
0.0116037
0.0170138
-0.0168553
0.0114106
0.0188586
-0.0186654
0.0111891
0.0206627
-0.0204412
0.0109434
0.0223991
-0.0221534
0.0106767
0.0240506
-0.023784
0.0103919
0.0256129
-0.025328
0.0100908
0.0270822
-0.0267811
0.00977527
0.0284584
-0.0281429
0.00944689
0.0297412
-0.0294128
0.00910722
0.0309291
-0.0305894
0.00875713
0.0320231
-0.031673
0.00839853
0.0330172
-0.0326586
0.00803127
0.0339178
-0.0335505
0.00765754
0.034709
-0.0343353
0.00727623
0.0354136
-0.0350323
0.00688867
0.0359924
-0.0356048
0.00649499
0.0364941
-0.0361004
0.0060903
0.0368825
-0.0364778
0.00568094
0.0371318
-0.0367225
0.0052515
0.0374642
-0.0370348
0.00481502
0.0373082
-0.0368717
0.00435461
0.0376507
-0.0371903
0.0377166
-0.0372369
0.0112659
-0.00635764
0.0117393
-0.00104739
0.0119846
0.00411551
0.012086
0.00808585
0.0120909
0.0110209
0.0120267
0.0132808
0.0119093
0.0152646
0.0117499
0.0171733
0.011556
0.0190526
0.0113333
0.0208853
0.011086
0.0226464
0.0108169
0.0243197
0.0105288
0.0259008
0.010224
0.027387
0.009904
0.0287784
0.00957032
0.0300749
0.00922459
0.0312748
0.00886769
0.0323799
0.00850156
0.0333833
0.00812615
0.0342932
0.00774389
0.0350913
0.00735356
0.035804
0.00695634
0.0363896
0.00655263
0.0368978
0.00613778
0.0372973
0.00571812
0.0375515
0.00527846
0.0379039
0.00483228
0.0377544
0.00436175
0.0381212
0.0382054
0.0114991
-0.00705854
0.0119257
-0.001474
0.0121474
0.00389383
0.0122367
0.00799662
0.0122363
0.0110212
0.0121702
0.013347
0.0120523
0.0153824
0.0118926
0.017333
0.0116983
0.0192469
0.0114748
0.0211088
0.0112261
0.0228951
0.010955
0.0245909
0.0106641
0.0261917
0.0103558
0.0276953
0.0100315
0.0291027
0.00969273
0.0304136
0.00934121
0.0316263
0.00897774
0.0327434
0.00860425
0.0337568
0.00822087
0.0346766
0.00783017
0.035482
0.0074309
0.0362032
0.00702419
0.0367963
0.00661059
0.0373114
0.00618576
0.0377222
0.00575595
0.0379813
0.00530619
0.0383537
0.00485048
0.0382101
0.00436998
0.0386017
0.0387037
0.0117249
-0.0076703
0.0121052
-0.00185436
0.0123033
0.00369575
0.0123813
0.00791862
0.0123764
0.0110261
0.0123089
0.0134145
0.012191
0.0155003
0.0120314
0.0174926
0.0118372
0.0194411
0.0116133
0.0213326
0.0113636
0.0231448
0.0110908
0.0248637
0.0107975
0.026485
0.010486
0.0280068
0.0101577
0.029431
0.00981408
0.0307573
0.00945698
0.0319834
0.00908715
0.0331132
0.00870657
0.0341374
0.00831544
0.0350677
0.00791632
0.0358811
0.00750819
0.0366114
0.00709215
0.0372123
0.00666886
0.0377346
0.0062342
0.0381568
0.00579449
0.038421
0.00533475
0.0388134
0.00486953
0.0386753
0.0043794
0.0390918
0.0392114
0.0119421
-0.00819242
0.0122765
-0.00218869
0.0124524
0.00351977
0.0125198
0.00785129
0.0125109
0.011035
0.0124426
0.0134828
0.0123251
0.0156178
0.0121663
0.0176515
0.0119726
0.0196348
0.0117487
0.0215565
0.0114983
0.0233952
0.0112243
0.0251377
0.010929
0.0267804
0.0106144
0.0283214
0.0102825
0.0297629
0.00993427
0.0311054
0.00957181
0.0323459
0.00919588
0.0334892
0.00880845
0.0345248
0.00840977
0.0354664
0.00800234
0.0362886
0.00758543
0.0370283
0.00716022
0.0376376
0.00672741
0.0381675
0.00628307
0.0386012
0.00583366
0.0388704
0.00536405
0.039283
0.00488943
0.0391499
0.00438987
0.0395914
0.0397286
0.0121499
-0.00862546
0.012439
-0.00247777
0.0125942
0.00336458
0.0126518
0.00779373
0.0126397
0.011047
0.0125712
0.0135514
0.0124547
0.0157342
0.012297
0.0178091
0.0121042
0.0198276
0.0118807
0.02178
0.0116302
0.0236457
0.0113553
0.0254126
0.0110582
0.0270774
0.0107411
0.0286385
0.0104057
0.0300983
0.0100533
0.0314579
0.00968569
0.0327135
0.00930387
0.033871
0.00890978
0.0349189
0.00850372
0.0358724
0.00808819
0.0367041
0.00766267
0.0374538
0.00722842
0.0380718
0.0067862
0.0386097
0.00633233
0.0390551
0.00587339
0.0393294
0.00539409
0.0397623
0.00491024
0.0396338
0.00440128
0.0401004
0.0402553
0.0123476
-0.00897096
0.0125925
-0.00272265
0.0127283
0.00322874
0.0127772
0.00774491
0.0127627
0.0110615
0.0126945
0.0136196
0.0125794
0.0158493
0.0124233
0.0179652
0.0122319
0.020019
0.0120093
0.0220026
0.0117589
0.0238961
0.0114835
0.025688
0.0111852
0.0273758
0.0108658
0.0289579
0.0105273
0.0304368
0.0101709
0.0318142
0.00979852
0.0330859
0.00941103
0.0342585
0.00901052
0.0353194
0.00859727
0.0362857
0.00817384
0.0371275
0.00773985
0.0378878
0.00729672
0.0385149
0.00684523
0.0390612
0.00638197
0.0395183
0.00591367
0.0397977
0.00542488
0.0402511
0.00493188
0.0401268
0.00441361
0.0406187
0.0407915
0.0125346
-0.0092313
0.0127366
-0.0029247
0.0128547
0.00311066
0.012896
0.00770368
0.0128799
0.0110775
0.0128125
0.013687
0.0126993
0.0159625
0.0125452
0.0181193
0.0123555
0.0202087
0.0121342
0.0222239
0.0118845
0.0241458
0.011609
0.0259635
0.0113097
0.0276751
0.0109884
0.0292791
0.0106472
0.030778
0.0102872
0.0321742
0.00991023
0.0334628
0.00951733
0.0346514
0.00911062
0.0357261
0.00869037
0.0367059
0.00825922
0.0375587
0.00781691
0.0383301
0.00736508
0.0389668
0.00690447
0.0395218
0.00643198
0.0399908
0.00595443
0.0402752
0.00545636
0.0407492
0.00495435
0.0406288
0.00442684
0.0411462
0.0413371
0.0127104
-0.00940969
0.0128714
-0.00308564
0.0129734
0.00300861
0.0130083
0.00766879
0.0129913
0.0110945
0.0129252
0.0137531
0.0128141
0.0160736
0.0126625
0.0182709
0.012475
0.0203962
0.0122554
0.0224435
0.0120067
0.0243945
0.0117314
0.0262387
0.0114316
0.027975
0.0111088
0.0296019
0.0107652
0.0311217
0.0104019
0.0325375
0.0100207
0.033844
0.00962269
0.0350494
0.00921
0.0361388
0.00878294
0.037133
0.00834431
0.0379973
0.00789383
0.0387806
0.00743346
0.0394271
0.0069639
0.0399913
0.00648231
0.0404724
0.00599562
0.0407619
0.00548849
0.0412563
0.00497765
0.0411397
0.00444095
0.0416829
0.0418921
0.0128749
-0.00951012
0.0129968
-0.00320756
0.0130846
0.00292082
0.0131145
0.00763892
0.0130972
0.0111118
0.0130327
0.0138176
0.0129241
0.0161822
0.0127751
0.0184199
0.0125901
0.0205812
0.0123726
0.0226611
0.0121253
0.0246418
0.0118507
0.0265133
0.0115507
0.028275
0.0112269
0.0299257
0.0108812
0.0314674
0.010515
0.0329037
0.0101299
0.034229
0.00972702
0.0354524
0.00930858
0.0365572
0.00887494
0.0375666
0.00842904
0.0384432
0.00797056
0.0392391
0.00750182
0.0398958
0.00702344
0.0404697
0.00653294
0.0409629
0.00603721
0.0412576
0.00552122
0.0417723
0.00500174
0.0416591
0.00445593
0.0422287
0.0424564
0.0130279
-0.0095374
0.0131134
-0.00329307
0.0131883
0.00284595
0.0132148
0.00761238
0.0131979
0.0111287
0.0131353
0.0138802
0.0130291
0.0162884
0.0128831
0.0185659
0.0127008
0.0207635
0.0124857
0.0228761
0.0122403
0.0248872
0.0119668
0.0267868
0.011667
0.0285748
0.0113426
0.0302501
0.0109952
0.0318148
0.0106263
0.0332725
0.0102377
0.0346177
0.00983022
0.0358598
0.00940632
0.0369811
0.0089663
0.0380066
0.00851335
0.0388961
0.00804707
0.0397054
0.0075701
0.0403728
0.00708304
0.0409568
0.00658381
0.0414621
0.00607916
0.0417623
0.00555449
0.0422969
0.00502655
0.0421871
0.00447178
0.0427835
0.04303
0.0131694
-0.00949705
0.0132221
-0.00334574
0.0132844
0.00278366
0.0133098
0.00758696
0.0132937
0.0111448
0.013233
0.013941
0.0131294
0.0163919
0.0129864
0.018709
0.0128071
0.0209427
0.0125948
0.0230885
0.0123516
0.0251303
0.0120796
0.0270589
0.0117804
0.028874
0.0114556
0.0305749
0.0111069
0.0321635
0.0107359
0.0336436
0.0103439
0.0350096
0.00993221
0.0362715
0.00950312
0.0374102
0.00905696
0.0384528
0.00859718
0.0393559
0.00812329
0.0401793
0.00763827
0.0408578
0.00714263
0.0414524
0.00663485
0.0419699
0.00612142
0.0422757
0.00558825
0.0428301
0.00505204
0.0427233
0.00448846
0.043347
0.0436128
0.0132995
-0.00939528
0.0133221
-0.00336831
0.0133744
0.00273135
0.0133998
0.00756163
0.0133849
0.0111597
0.0133261
0.0139998
0.013225
0.016493
0.0130851
0.0188489
0.0129091
0.0211187
0.0126997
0.0232978
0.0124591
0.025371
0.0121889
0.0273291
0.0118907
0.0291722
0.011566
0.0308996
0.0112163
0.0325131
0.0108434
0.0340165
0.0104486
0.0354044
0.0100329
0.0366872
0.00959891
0.0378442
0.00914686
0.0389049
0.00868046
0.0398223
0.00819916
0.0406606
0.00770627
0.0413507
0.00720217
0.0419565
0.00668599
0.0424861
0.0061639
0.0427978
0.00562243
0.0433716
0.00507813
0.0432676
0.00450596
0.0439192
0.0442046
0.0134183
-0.0092389
0.0134139
-0.00336391
0.0134587
0.00268658
0.0134851
0.00753527
0.0134717
0.0111731
0.0134147
0.0140568
0.0133161
0.0165916
0.0131792
0.0189857
0.0130066
0.0212914
0.0128005
0.0235038
0.0125628
0.0256087
0.0122946
0.0275973
0.0119978
0.029469
0.0116735
0.0312239
0.0113234
0.0328633
0.0109489
0.034391
0.0105515
0.0358018
0.0101322
0.0371066
0.00969359
0.0382828
0.00923592
0.0393625
0.00876314
0.0402951
0.00827459
0.0411491
0.00777402
0.0418513
0.00726161
0.0424689
0.00673716
0.0430105
0.00620652
0.0433284
0.00565697
0.0439211
0.00510475
0.0438198
0.00452424
0.0444997
0.0448054
0.0135259
-0.00903532
0.013498
-0.003336
0.0135372
0.00264733
0.0135657
0.00750684
0.0135541
0.0111847
0.0134988
0.014112
0.0134025
0.0166879
0.0132688
0.0191194
0.0130998
0.0214604
0.0128972
0.0237064
0.0126626
0.0258433
0.0123969
0.027863