/*--------------------------------*- C++ -*----------------------------------*\
  =========                 |
  \\      /  F ield         | OpenFOAM: The Open Source CFD Toolbox
   \\    /   O peration     | Website:  https://openfoam.org
    \\  /    A nd           | Version:  7
     \\/     M anipulation  |
\*---------------------------------------------------------------------------*/
FoamFile
{
    version     2.0;
    format      ascii;
    class       volScalarField;
    location    "5.5";
    object      p;
}
// * * * * * * * * * * * * * * * * * * * * * * * * * * * * * * * * * * * * * //

dimensions      [0 2 -2 0 0 0 0];

internalField   nonuniform List<scalar> 
32000
(
0.510181
0.509972
0.5099
0.509807
0.509769
0.509833
0.510015
0.510303
0.510685
0.511172
0.511802
0.512605
0.513578
0.514697
0.515944
0.517312
0.518806
0.520433
0.522197
0.524089
0.526094
0.528198
0.530386
0.532648
0.534976
0.537359
0.539783
0.542231
0.544686
0.547133
0.549561
0.55196
0.554321
0.556636
0.558898
0.5611
0.563238
0.565317
0.567325
0.569167
0.510174
0.509926
0.509833
0.50972
0.509675
0.509738
0.509924
0.51021
0.510583
0.51106
0.51168
0.51247
0.513426
0.514525
0.515745
0.517079
0.518531
0.52011
0.521819
0.52365
0.525588
0.527619
0.529728
0.531905
0.534141
0.536427
0.53875
0.541095
0.543447
0.545791
0.548114
0.550407
0.552663
0.554872
0.557028
0.559125
0.561161
0.56314
0.565046
0.566805
0.51016
0.509876
0.509761
0.509629
0.509577
0.509643
0.509832
0.510118
0.510485
0.510956
0.511571
0.51235
0.513289
0.514365
0.515558
0.516859
0.518272
0.519805
0.52146
0.523229
0.525099
0.527056
0.529084
0.531175
0.533317
0.535503
0.537723
0.539962
0.542206
0.544441
0.546655
0.548839
0.550984
0.553083
0.555129
0.557117
0.559045
0.560918
0.562719
0.56439
0.510125
0.509801
0.509665
0.509519
0.509467
0.509539
0.509733
0.510022
0.510389
0.51086
0.51147
0.51224
0.513163
0.514217
0.515382
0.516652
0.518028
0.519517
0.521118
0.522824
0.524625
0.526505
0.528453
0.530454
0.532501
0.534586
0.536698
0.538828
0.54096
0.543083
0.545184
0.547254
0.549284
0.551268
0.553199
0.555074
0.556891
0.558653
0.560344
0.561919
0.510081
0.509724
0.509572
0.509413
0.509362
0.509442
0.50964
0.509932
0.510303
0.510775
0.511383
0.512143
0.513049
0.51408
0.515218
0.516458
0.517798
0.519241
0.520788
0.522431
0.524162
0.525966
0.52783
0.529741
0.531689
0.533669
0.535673
0.53769
0.539709
0.541715
0.543699
0.54565
0.547561
0.549426
0.551239
0.552996
0.554697
0.556346
0.557922
0.559396
0.510016
0.509627
0.509462
0.509296
0.509248
0.509336
0.509541
0.509839
0.510217
0.510694
0.5113
0.512052
0.512942
0.513951
0.515065
0.516274
0.517578
0.518976
0.520468
0.52205
0.52371
0.525437
0.527214
0.529032
0.53088
0.532753
0.534646
0.536549
0.538451
0.540338
0.5422
0.544029
0.545816
0.547558
0.549248
0.550884
0.552465
0.553995
0.555453
0.556821
0.509931
0.509517
0.509344
0.509176
0.509132
0.509229
0.509443
0.509749
0.510136
0.51062
0.511226
0.511971
0.512846
0.513835
0.514923
0.516103
0.51737
0.518723
0.520161
0.52168
0.52327
0.524917
0.526606
0.528327
0.530072
0.531837
0.533618
0.535405
0.537186
0.538951
0.540688
0.542389
0.54405
0.545664
0.547229
0.548739
0.550196
0.551603
0.55294
0.554195
0.509825
0.509393
0.509216
0.509049
0.509012
0.509118
0.509343
0.50966
0.510058
0.510549
0.511158
0.511896
0.512758
0.513728
0.514793
0.515942
0.517171
0.518479
0.519864
0.521322
0.52284
0.524404
0.526002
0.527624
0.529265
0.530922
0.532588
0.534256
0.535915
0.537552
0.539161
0.540732
0.542262
0.543747
0.545182
0.546564
0.547893
0.549173
0.550384
0.551522
0.509696
0.509251
0.509075
0.508913
0.508884
0.509001
0.509239
0.509569
0.509978
0.510479
0.511092
0.511826
0.512677
0.513629
0.514669
0.515788
0.51698
0.518243
0.519576
0.520971
0.522416
0.523897
0.525402
0.526924
0.528459
0.530006
0.531557
0.533104
0.534636
0.536144
0.53762
0.539059
0.540456
0.541807
0.54311
0.54436
0.545557
0.546707
0.54779
0.548805
0.509541
0.50909
0.508918
0.508766
0.508747
0.508878
0.50913
0.509473
0.509896
0.510407
0.511025
0.511759
0.5126
0.513535
0.51455
0.515638
0.516792
0.518012
0.519294
0.520627
0.521997
0.523392
0.524803
0.526224
0.527654
0.529089
0.530523
0.531946
0.53335
0.534726
0.536067
0.53737
0.538632
0.539848
0.541016
0.542131
0.543193
0.54421
0.545163
0.54605
0.509359
0.508908
0.508744
0.508604
0.508601
0.508747
0.509014
0.509371
0.509807
0.510331
0.510957
0.511691
0.512524
0.513442
0.514433
0.51549
0.516609
0.517786
0.519016
0.520286
0.521581
0.522889
0.524205
0.525526
0.52685
0.528172
0.529487
0.530785
0.532058
0.533299
0.534504
0.535669
0.536793
0.537873
0.538903
0.539881
0.540806
0.541687
0.542508
0.543264
0.509148
0.508703
0.50855
0.508427
0.508442
0.508606
0.508889
0.509261
0.509712
0.510249
0.510885
0.511621
0.512448
0.51335
0.514317
0.515343
0.516427
0.517563
0.518742
0.519948
0.521166
0.522387
0.523609
0.52483
0.526046
0.527255
0.528449
0.52962
0.53076
0.531864
0.532931
0.533958
0.534943
0.535883
0.536775
0.537614
0.5384
0.539145
0.539835
0.540455
0.508907
0.508472
0.508334
0.508232
0.508271
0.508454
0.508753
0.50914
0.509607
0.51016
0.510807
0.511548
0.512368
0.513255
0.514199
0.515197
0.516246
0.517341
0.518468
0.519609
0.52075
0.521886
0.523014
0.524134
0.525243
0.526337
0.527409
0.528451
0.529457
0.530424
0.531351
0.532238
0.533084
0.533884
0.534636
0.535335
0.535982
0.53659
0.537149
0.537631
0.508636
0.508215
0.508096
0.508019
0.508083
0.508287
0.508603
0.509007
0.509491
0.510062
0.510723
0.511469
0.512284
0.513157
0.514079
0.515048
0.516065
0.517119
0.518193
0.519269
0.520334
0.521385
0.52242
0.523439
0.524441
0.525419
0.526368
0.527281
0.528151
0.52898
0.529768
0.530515
0.53122
0.531879
0.53249
0.53305
0.533559
0.53403
0.534461
0.534804
0.508334
0.507932
0.507835
0.507787
0.507879
0.508105
0.508438
0.508859
0.509363
0.509953
0.510629
0.511381
0.512193
0.513052
0.513954
0.514898
0.515882
0.516894
0.517915
0.518926
0.519916
0.520882
0.521826
0.522746
0.52364
0.524503
0.525328
0.526109
0.526845
0.527536
0.528184
0.528791
0.529355
0.529874
0.530346
0.530767
0.531138
0.531475
0.53178
0.531984
0.508002
0.507623
0.507551
0.507535
0.507656
0.507904
0.508257
0.508696
0.509221
0.509831
0.510523
0.511282
0.512092
0.512941
0.513825
0.514744
0.515695
0.516664
0.517632
0.518579
0.519495
0.520379
0.521232
0.522053
0.52284
0.523587
0.524289
0.52494
0.525542
0.526095
0.526605
0.527072
0.527496
0.527876
0.528208
0.528492
0.528728
0.528933
0.529117
0.529183
0.507641
0.507288
0.507243
0.507262
0.507413
0.507685
0.508057
0.508517
0.509063
0.509695
0.510402
0.51117
0.51198
0.512821
0.513689
0.514585
0.515503
0.516429
0.517343
0.518227
0.519071
0.519874
0.520638
0.521362
0.522043
0.522675
0.523254
0.523777
0.524245
0.524663
0.525036
0.525364
0.525649
0.52589
0.526085
0.526234
0.526338
0.526414
0.526482
0.526415
0.507251
0.506929
0.506913
0.506967
0.507148
0.507445
0.507838
0.50832
0.508889
0.509542
0.510265
0.511042
0.511854
0.51269
0.513545
0.514418
0.515304
0.516187
0.517047
0.517869
0.518643
0.519368
0.520045
0.520674
0.52125
0.521768
0.522225
0.522622
0.52296
0.523245
0.523482
0.523674
0.523822
0.523926
0.523986
0.524003
0.523978
0.52393
0.523888
0.523691
0.506834
0.506544
0.506559
0.506649
0.506861
0.507184
0.5076
0.508104
0.508697
0.509371
0.510111
0.510899
0.511715
0.512547
0.513391
0.514244
0.515098
0.515937
0.516744
0.517505
0.518211
0.518861
0.519454
0.519989
0.520462
0.520868
0.521207
0.52148
0.521691
0.521845
0.521949
0.522007
0.52202
0.52199
0.521919
0.521808
0.521658
0.521491
0.521346
0.521026
0.506392
0.506137
0.506182
0.506307
0.506551
0.5069
0.507342
0.507871
0.508487
0.509182
0.509939
0.510738
0.51156
0.512392
0.513227
0.51406
0.514882
0.515678
0.516434
0.517135
0.517776
0.518353
0.518865
0.519308
0.51968
0.519977
0.520201
0.520354
0.520441
0.520469
0.520443
0.520369
0.520251
0.520091
0.519892
0.519658
0.519388
0.519107
0.518865
0.51843
0.505926
0.505706
0.505781
0.505942
0.506218
0.506595
0.507063
0.507618
0.508259
0.508975
0.509749
0.510561
0.51139
0.512224
0.513051
0.513865
0.514656
0.51541
0.516115
0.51676
0.517338
0.517845
0.518278
0.518632
0.518906
0.519098
0.519211
0.519248
0.519215
0.51912
0.518969
0.518768
0.518523
0.518237
0.517915
0.517562
0.517178
0.516789
0.516458
0.515916
0.505437
0.505254
0.505358
0.505553
0.505861
0.506268
0.506764
0.507346
0.508012
0.508749
0.509541
0.510366
0.511205
0.51204
0.512861
0.513658
0.514419
0.515133
0.515789
0.516379
0.516897
0.517336
0.517693
0.517961
0.51814
0.518231
0.518237
0.518163
0.518016
0.517802
0.517531
0.517209
0.516841
0.516435
0.515996
0.51553
0.515038
0.514547
0.514132
0.513493
0.504927
0.50478
0.504913
0.50514
0.50548
0.505917
0.506443
0.507055
0.507746
0.508505
0.509315
0.510154
0.511002
0.511841
0.512657
0.513437
0.51417
0.514845
0.515455
0.515992
0.516452
0.516827
0.51711
0.517296
0.517385
0.517379
0.517283
0.517103
0.516845
0.516519
0.516133
0.515696
0.515213
0.514692
0.514142
0.513569
0.512975
0.512389
0.511897
0.511171
0.504397
0.504284
0.504443
0.504703
0.505074
0.505543
0.5061
0.506742
0.507461
0.508242
0.50907
0.509924
0.510782
0.511625
0.512436
0.513201
0.513907
0.514545
0.51511
0.515597
0.516002
0.516315
0.516528
0.516636
0.516639
0.516541
0.516349
0.516067
0.515705
0.515273
0.51478
0.514234
0.513643
0.513015
0.512359
0.511687
0.510998
0.510322
0.509759
0.508956
0.503845
0.503765
0.50395
0.504241
0.504644
0.505145
0.505735
0.506409
0.507155
0.50796
0.508806
0.509675
0.510544
0.511391
0.512198
0.512949
0.513629
0.514232
0.514755
0.515194
0.515546
0.515801
0.515948
0.515982
0.515903
0.515719
0.515434
0.515057
0.514598
0.514066
0.513473
0.512826
0.512133
0.511405
0.510653
0.509888
0.509111
0.508352
0.507723
0.506853
0.503271
0.503223
0.503433
0.503754
0.504188
0.504722
0.505347
0.506053
0.506829
0.507658
0.508523
0.509406
0.510285
0.511138
0.511942
0.512679
0.513336
0.513905
0.514387
0.514782
0.515084
0.515283
0.515367
0.51533
0.515176
0.514909
0.514538
0.514072
0.513521
0.512897
0.512211
0.51147
0.510685
0.509864
0.509023
0.508173
0.507317
0.506481
0.505792
0.504864
0.502677
0.502657
0.502891
0.503241
0.503707
0.504274
0.504935
0.505676
0.506481
0.507334
0.508219
0.509116
0.510006
0.510864
0.511666
0.51239
0.513024
0.513563
0.514007
0.514359
0.514614
0.514759
0.514783
0.51468
0.514454
0.51411
0.513658
0.513109
0.512473
0.511764
0.510991
0.510165
0.509294
0.50839
0.507468
0.506543
0.505615
0.50471
0.503966
0.502988
0.502061
0.502067
0.502324
0.502702
0.503199
0.503802
0.504499
0.505274
0.506111
0.506989
0.507893
0.508805
0.509705
0.510568
0.511368
0.512081
0.512694
0.513203
0.513612
0.513923
0.514132
0.514226
0.514193
0.514028
0.513733
0.513318
0.51279
0.512163
0.511449
0.510661
0.50981
0.508905
0.507956
0.506977
0.505984
0.504992
0.504001
0.503036
0.502242
0.501225
0.501424
0.501454
0.501732
0.502137
0.502666
0.503303
0.504037
0.504849
0.505718
0.506622
0.507546
0.508472
0.509383
0.510251
0.511048
0.51175
0.512343
0.512824
0.513199
0.513472
0.513637
0.513681
0.513593
0.513368
0.51301
0.512526
0.511928
0.511229
0.510442
0.509581
0.508658
0.507682
0.506664
0.505618
0.504563
0.503513
0.502469
0.501452
0.500616
0.499569
0.500766
0.500816
0.501115
0.501546
0.502106
0.502779
0.503551
0.5044
0.505301
0.506231
0.507175
0.508116
0.509036
0.509908
0.510703
0.511394
0.511967
0.512421
0.512765
0.513
0.513122
0.513118
0.512977
0.512695
0.512276
0.511729
0.511065
0.510299
0.509445
0.508517
0.507527
0.506486
0.505407
0.504304
0.503195
0.502097
0.501009
0.499952
0.499082
0.498015
0.500084
0.500152
0.500471
0.500929
0.501521
0.50223
0.503038
0.503924
0.504858
0.505815
0.506778
0.507734
0.508664
0.509539
0.51033
0.511009
0.511563
0.511993
0.512305
0.512504
0.512583
0.512532
0.512338
0.512001
0.511524
0.510917
0.510192
0.509363
0.508446
0.507456
0.506406
0.505307
0.504173
0.50302
0.501867
0.50073
0.499609
0.498522
0.497631
0.496557
0.499378
0.499462
0.499801
0.500286
0.50091
0.501655
0.5025
0.503423
0.504389
0.505371
0.506355
0.507325
0.508262
0.50914
0.509926
0.510593
0.511128
0.511532
0.511814
0.511977
0.512014
0.511915
0.511671
0.51128
0.510747
0.510082
0.509299
0.508411
0.507436
0.506388
0.505281
0.50413
0.502947
0.501752
0.500563
0.499397
0.498254
0.497151
0.496251
0.495187
0.498646
0.498744
0.499102
0.499616
0.500272
0.501053
0.501936
0.502893
0.50389
0.504898
0.5059
0.506884
0.507829
0.508707
0.509486
0.51014
0.510655
0.511035
0.511286
0.511413
0.511408
0.511262
0.510967
0.510523
0.509935
0.509215
0.508376
0.507432
0.506401
0.505299
0.50414
0.50294
0.501715
0.500484
0.499267
0.49808
0.496927
0.495822
0.49493
0.493897
0.497884
0.497995
0.498375
0.498916
0.499606
0.500423
0.501342
0.502333
0.503359
0.504391
0.505412
0.506408
0.507359
0.508237
0.509008
0.509646
0.510141
0.510494
0.510715
0.510805
0.510757
0.510563
0.510218
0.50972
0.509079
0.508305
0.507411
0.506414
0.50533
0.504175
0.502967
0.501723
0.500459
0.499197
0.497956
0.496758
0.495606
0.494514
0.49365
0.492676
0.49709
0.497215
0.497615
0.498187
0.49891
0.499763
0.500718
0.501741
0.502794
0.503849
0.504887
0.505895
0.50685
0.507725
0.508485
0.509106
0.509579
0.509906
0.510094
0.510146
0.510055
0.509813
0.509415
0.508865
0.508169
0.507341
0.506394
0.505344
0.504208
0.503003
0.501748
0.50046
0.49916
0.497869
0.496611
0.495406
0.494265
0.493203
0.492389
0.49151
0.496262
0.496399
0.496822
0.497424
0.498183
0.499072
0.500062
0.501114
0.502192
0.503268
0.504323
0.50534
0.506298
0.507167
0.507914
0.508516
0.508964
0.509262
0.509417
0.509429
0.509293
0.509001
0.508551
0.507946
0.507196
0.506314
0.505313
0.50421
0.503023
0.501769
0.500467
0.499136
0.4978
0.49648
0.495204
0.493996
0.492873
0.491854
0.491113
0.490372
0.495395
0.495546
0.495992
0.496626
0.497421
0.498347
0.49937
0.50045
0.501552
0.502647
0.503716
0.50474
0.505698
0.506559
0.50729
0.50787
0.508291
0.508558
0.508677
0.508648
0.508464
0.508121
0.507616
0.506956
0.506151
0.505213
0.504158
0.503002
0.501763
0.500459
0.49911
0.497736
0.49636
0.495008
0.49371
0.492496
0.49139
0.49042
0.489771
0.489217
0.494486
0.494652
0.495123
0.495792
0.496626
0.497588
0.498641
0.499747
0.50087
0.501982
0.503063
0.504092
0.505047
0.505896
0.506608
0.507163
0.507555
0.507788
0.507868
0.507794
0.507561
0.507164
0.506603
0.505886
0.505024
0.50403
0.50292
0.501711
0.50042
0.499065
0.497666
0.496245
0.494824
0.493432
0.4921
0.490867
0.489767
0.488845
0.488311
0.488016
0.493532
0.493716
0.494214
0.494921
0.495793
0.49679
0.497872
0.499002
0.500144
0.501271
0.502361
0.503392
0.504341
0.505175
0.505864
0.50639
0.506748
0.506944
0.506982
0.506861
0.506575
0.506122
0.505504
0.504729
0.503809
0.502758
0.501592
0.500329
0.498986
0.497579
0.496128
0.494655
0.493181
0.491734
0.490346
0.489058
0.48792
0.487013
0.486631
0.486762
0.492534
0.492738
0.493267
0.494012
0.494924
0.495954
0.497062
0.498213
0.499373
0.500511
0.501607
0.502637
0.503575
0.50439
0.505052
0.505545
0.505867
0.506023
0.506015
0.505842
0.505501
0.50499
0.504314
0.50348
0.502501
0.501392
0.500172
0.498855
0.497458
0.495998
0.494494
0.492964
0.491429
0.48991
0.48843
0.487023
0.485724
0.484624
0.48406
0.484286
0.575072
0.583772
0.589542
0.595076
0.598878
0.602363
0.60506
0.607421
0.609343
0.61098
0.612335
0.613479
0.614419
0.615182
0.615782
0.616239
0.616575
0.616774
0.616856
0.61683
0.616706
0.616478
0.616169
0.61577
0.615278
0.614704
0.614027
0.613264
0.612407
0.611442
0.610387
0.609214
0.607946
0.606569
0.605088
0.60351
0.601861
0.600138
0.598539
0.596823
0.572614
0.581274
0.587168
0.592828
0.596793
0.600388
0.603205
0.605627
0.607623
0.609301
0.610708
0.611877
0.612837
0.613622
0.614257
0.614736
0.615082
0.615306
0.61542
0.615412
0.615301
0.615096
0.614801
0.614424
0.613949
0.613382
0.612726
0.611972
0.611125
0.610178
0.609127
0.607973
0.606711
0.605343
0.603869
0.602303
0.600664
0.598948
0.59736
0.595658
0.570074
0.578718
0.584733
0.590543
0.594679
0.598397
0.601338
0.60383
0.605901
0.607622
0.60908
0.610275
0.611256
0.612065
0.612731
0.613232
0.613587
0.613836
0.613979
0.613991
0.613893
0.613711
0.613431
0.613077
0.612619
0.61206
0.611426
0.610682
0.609845
0.608917
0.607872
0.606737
0.605483
0.604126
0.602663
0.60111
0.599484
0.597777
0.596202
0.594516
0.567441
0.576107
0.582227
0.588229
0.592525
0.596397
0.599452
0.602037
0.604175
0.605947
0.607445
0.60867
0.60968
0.610512
0.611198
0.611722
0.612097
0.612367
0.61253
0.612563
0.612486
0.612325
0.612063
0.611724
0.611286
0.610742
0.610123
0.609396
0.608571
0.607657
0.606625
0.605504
0.604262
0.60292
0.60147
0.59993
0.598319
0.596626
0.595065
0.593393
0.564715
0.573437
0.579656
0.585877
0.590336
0.594382
0.597553
0.600243
0.602447
0.604276
0.605806
0.607066
0.608104
0.608961
0.609663
0.610209
0.610608
0.610897
0.611075
0.611133
0.611079
0.610937
0.610696
0.61037
0.609952
0.609427
0.608822
0.608112
0.607303
0.606402
0.605386
0.604276
0.60305
0.601723
0.600289
0.598763
0.597171
0.595493
0.593946
0.592288
0.561898
0.570703
0.577021
0.583479
0.588118
0.592347
0.595646
0.598443
0.600719
0.602603
0.60417
0.605462
0.606529
0.607409
0.608128
0.608695
0.609117
0.609426
0.609621
0.609701
0.609671
0.609548
0.609328
0.609018
0.608619
0.608114
0.607523
0.606832
0.606039
0.605151
0.604153
0.603057
0.601848
0.600539
0.599122
0.597612
0.596037
0.594375
0.592841
0.591197
0.558987
0.567907
0.574322
0.581034
0.58587
0.590292
0.59373
0.596638
0.59899
0.60093
0.602536
0.60386
0.604954
0.605857
0.606594
0.607181
0.607624
0.607954
0.608167
0.60827
0.608262
0.608159
0.607961
0.607666
0.607287
0.606802
0.606227
0.605555
0.604779
0.603907
0.602927
0.601847
0.600655
0.599365
0.597968
0.596474
0.594918
0.593271
0.591751
0.59012
0.555982
0.565047
0.571557
0.578541
0.58359
0.588216
0.591803
0.594828
0.59726
0.599257
0.600903
0.602259
0.60338
0.604306
0.605061
0.605668
0.606132
0.606481
0.606715
0.606838
0.606853
0.606769
0.606592
0.606316
0.605956
0.605492
0.604934
0.60428
0.603523
0.602668
0.601707
0.600646
0.599473
0.598203
0.596826
0.595351
0.593812
0.592182
0.590675
0.589057
0.552884
0.562124
0.568726
0.576
0.581275
0.586119
0.589866
0.593013
0.595529
0.597585
0.599271
0.60066
0.601807
0.602755
0.603529
0.604156
0.60464
0.60501
0.605263
0.605407
0.605443
0.605379
0.605224
0.604967
0.604626
0.604183
0.603642
0.603009
0.602271
0.601435
0.600494
0.599454
0.598302
0.597052
0.595697
0.594241
0.592721
0.591107
0.589613
0.588008
0.549695
0.55914
0.565829
0.573411
0.578927
0.584001
0.587918
0.591193
0.593797
0.595914
0.597642
0.599063
0.600236
0.601206
0.601999
0.602646
0.603149
0.603539
0.603813
0.603977
0.604035
0.603989
0.603856
0.603619
0.603297
0.602875
0.602354
0.60174
0.601024
0.600208
0.599289
0.598271
0.597142
0.595913
0.594581
0.593145
0.591643
0.590047
0.588566
0.586973
0.546421
0.556099
0.562868
0.570773
0.576544
0.581861
0.585959
0.589368
0.592064
0.594243
0.596014
0.597467
0.598666
0.599659
0.60047
0.601136
0.60166
0.60207
0.602365
0.602548
0.602627
0.602601
0.602488
0.602273
0.601969
0.60157
0.601069
0.600475
0.599781
0.598987
0.598091
0.597096
0.595991
0.594785
0.593477
0.592063
0.590579
0.589002
0.587533
0.585952
0.543068
0.553004
0.559846
0.568087
0.574125
0.579699
0.583988
0.587536
0.590329
0.592572
0.594387
0.595873
0.597098
0.598112
0.598942
0.599627
0.600172
0.600602
0.600919
0.60112
0.60122
0.601214
0.601122
0.600929
0.600643
0.600266
0.599786
0.599214
0.598543
0.597773
0.5969
0.59593
0.594851
0.593669
0.592384
0.590993
0.589528
0.587971
0.586515
0.584944
0.539646
0.549862
0.556768
0.565355
0.571673
0.577513
0.582004
0.585699
0.588592
0.590902
0.592762
0.594281
0.595531
0.596566
0.597416
0.59812
0.598685
0.599136
0.599473
0.599694
0.599815
0.599829
0.599756
0.599586
0.599319
0.598964
0.598507
0.597956
0.59731
0.596564
0.595716
0.594771
0.59372
0.592562
0.591303
0.589936
0.588491
0.586953
0.585511
0.58395
0.536165
0.546679
0.553639
0.562578
0.569186
0.575305
0.580007
0.583854
0.586852
0.589232
0.591138
0.592691
0.593966
0.595021
0.59589
0.596614
0.597201
0.597671
0.598029
0.59827
0.59841
0.598445
0.598392
0.598244
0.597997
0.597665
0.59723
0.596702
0.596082
0.59536
0.594538
0.59362
0.592598
0.591465
0.590232
0.588892
0.587467
0.58595
0.584522
0.582971
0.532639
0.543466
0.550466
0.55976
0.566668
0.573073
0.577997
0.582003
0.58511
0.587562
0.589517
0.591103
0.592404
0.593479
0.594368
0.595111
0.595718
0.596208
0.596586
0.596847
0.597007
0.597063
0.597029
0.596903
0.596676
0.596366
0.595956
0.595452
0.594857
0.594162
0.593367
0.592476
0.591483
0.590378
0.589171
0.58786
0.586457
0.584961
0.583548
0.582005
0.529084
0.540232
0.547258
0.556905
0.56412
0.57082
0.575974
0.580145
0.583365
0.585893
0.587899
0.589518
0.590845
0.59194
0.592848
0.593611
0.594237
0.594747
0.595144
0.595425
0.595605
0.595683
0.595668
0.595563
0.595357
0.595069
0.594685
0.594205
0.593635
0.592968
0.592201
0.591338
0.590375
0.589299
0.58812
0.586838
0.585461
0.583985
0.58259
0.581055
0.525518
0.53699
0.544026
0.554017
0.561544
0.568545
0.573938
0.57828
0.581618
0.584225
0.586283
0.587937
0.58929
0.590404
0.591332
0.592113
0.592759
0.593288
0.593703
0.594005
0.594204
0.594304
0.594308
0.594224
0.594041
0.593774
0.593416
0.59296
0.592415
0.591777
0.59104
0.590205
0.589273
0.588228
0.587079
0.585828
0.584477
0.583023
0.581646
0.580118
0.521959
0.533754
0.540781
0.551104
0.558946
0.566251
0.571889
0.576408
0.579869
0.582558
0.584671
0.586359
0.587738
0.588872
0.589819
0.590619
0.591282
0.591831
0.592264
0.592587
0.592805
0.592926
0.592949
0.592886
0.592726
0.592481
0.592148
0.591718
0.5912
0.59059
0.589883
0.589078
0.588177
0.587165
0.586047
0.584827
0.583505
0.582074
0.580716
0.579196
0.518427
0.530536
0.537536
0.548171
0.556327
0.563939
0.569828
0.574529
0.578118
0.580892
0.58306
0.584785
0.586189
0.587344
0.588309
0.589127
0.589808
0.590375
0.590828
0.591171
0.591408
0.591549
0.591592
0.591549
0.591414
0.59119
0.590882
0.590479
0.589987
0.589406
0.58873
0.587955
0.587086
0.586108
0.585024
0.583836
0.582545
0.581138
0.5798
0.578287
0.514944
0.527353
0.534306
0.545228
0.553694
0.561611
0.567756
0.572644
0.576364
0.579227
0.581452
0.583213
0.584644
0.585819
0.586802
0.587638
0.588337
0.588923
0.589393
0.589756
0.590012
0.590174
0.590237
0.590213
0.590103
0.589901
0.589618
0.589242
0.588776
0.588225
0.58758
0.586835
0.586001
0.585057
0.584008
0.582854
0.581597
0.580216
0.578897
0.577393
0.511532
0.52422
0.531105
0.542282
0.551052
0.559269
0.565675
0.570752
0.574608
0.577562
0.579846
0.581645
0.583102
0.584297
0.585299
0.586152
0.586869
0.587473
0.587962
0.588343
0.588618
0.588799
0.588884
0.588879
0.588793
0.588614
0.588355
0.588007
0.587568
0.587046
0.586433
0.585719
0.584919
0.584012
0.582999
0.581881
0.580659
0.579306
0.578009
0.576513
0.508213
0.521152
0.527949
0.539343
0.548406
0.556917
0.563584
0.568854
0.572849
0.575898
0.578242
0.580081
0.581565
0.58278
0.5838
0.58467
0.585405
0.586026
0.586533
0.586932
0.587226
0.587427
0.587532
0.587547
0.587484
0.587328
0.587093
0.586773
0.586362
0.585869
0.585288
0.584606
0.583841
0.582971
0.581997
0.580917
0.579732
0.578409
0.577135
0.575648
0.505007
0.518164
0.524852
0.536422
0.545763
0.554559
0.561486
0.566952
0.571088
0.574234
0.576642
0.578522
0.580033
0.581269
0.582306
0.583193
0.583945
0.584583
0.585107
0.585524
0.585837
0.586056
0.586183
0.586216
0.586176
0.586043
0.585833
0.585541
0.585156
0.584692
0.584144
0.583496
0.582766
0.581935
0.581002
0.579961
0.578816
0.577525
0.576277
0.574799
0.501935
0.515269
0.521829
0.533528
0.54313
0.552199
0.559384
0.565045
0.569324
0.572572
0.575044
0.576967
0.578507
0.579763
0.580818
0.581722
0.58249
0.583144
0.583684
0.584119
0.584452
0.584688
0.584835
0.584887
0.584869
0.584759
0.584573
0.584308
0.583952
0.583517
0.583001
0.582387
0.581694
0.580904
0.580013
0.579014
0.577911
0.576656
0.575435
0.573968
0.499014
0.512479
0.518895
0.530674
0.540515
0.549842
0.557278
0.563135
0.567559
0.57091
0.573449
0.575417
0.576987
0.578264
0.579338
0.580256
0.581041
0.58171
0.582266
0.582717
0.583069
0.583321
0.583488
0.583559
0.583562
0.583476
0.583314
0.583076
0.582748
0.582342
0.581859
0.58128
0.580624
0.579876
0.57903
0.578075
0.577016
0.5758
0.574609
0.573155
0.496259
0.509806
0.516061
0.527868
0.537925
0.547492
0.555171
0.561223
0.565793
0.56925
0.571859
0.573873
0.575472
0.576771
0.577864
0.578797
0.579598
0.58028
0.580851
0.581318
0.581688
0.581958
0.582143
0.582233
0.582257
0.582195
0.582056
0.581845
0.581544
0.581167
0.580716
0.580174
0.579557
0.578851
0.578051
0.577143
0.576131
0.574959
0.573802
0.572362
0.493683
0.507257
0.513339
0.525123
0.535368
0.545153
0.553067
0.559309
0.564026
0.567591
0.570271
0.572333
0.573964
0.575285
0.576397
0.577345
0.57816
0.578855
0.579441
0.579923
0.58031
0.580596
0.580799
0.580909
0.580952
0.580914
0.580797
0.580612
0.580339
0.579993
0.579573
0.579068
0.57849
0.577828
0.577076
0.576218
0.575257
0.574133
0.573014
0.571589
0.491293
0.504839
0.510739
0.522447
0.532851
0.542832
0.550968
0.557396
0.56226
0.565934
0.568689
0.570799
0.572463
0.573808
0.574937
0.5759
0.576728
0.577435
0.578035
0.578531
0.578934
0.579236
0.579457
0.579586
0.579649
0.579633
0.579539
0.57938
0.579134
0.578817
0.578429
0.577962
0.577424
0.576807
0.576104
0.575298
0.574392
0.573322
0.572247
0.57084
0.489096
0.502556
0.508268
0.51985
0.530382
0.540534
0.548877
0.555485
0.560496
0.56428
0.567111
0.569272
0.57097
0.572338
0.573486
0.574462
0.575303
0.576021
0.576634
0.577143
0.577561
0.577879
0.578116
0.578265
0.578345
0.578352
0.57828
0.578146
0.577927
0.57764
0.577284
0.576854
0.576357
0.575786
0.575133
0.574382
0.573535
0.572525
0.571501
0.570116
0.487093
0.500408
0.505931
0.51734
0.527967
0.538261
0.546795
0.553578
0.558735
0.562629
0.565539
0.567752
0.569486
0.570878
0.572043
0.573033
0.573884
0.574613
0.575237
0.57576
0.57619
0.576525
0.576778
0.576945
0.577043
0.577072
0.577021
0.576911
0.576718
0.576461
0.576137
0.575745
0.575288
0.574763
0.574162
0.573469
0.572687
0.571743
0.570777
0.569419
0.485287
0.498395
0.503733
0.514924
0.525611
0.53602
0.544726
0.551676
0.556976
0.560983
0.563973
0.566241
0.568011
0.569428
0.570609
0.571611
0.572472
0.573212
0.573846
0.57438
0.574824
0.575173
0.57544
0.575626
0.575741
0.575791
0.575761
0.575674
0.575507
0.57528
0.574987
0.574633
0.574217
0.573739
0.57319
0.572558
0.571845
0.570975
0.570077
0.568754
0.483679
0.496514
0.501673
0.512609
0.52332
0.533812
0.542673
0.54978
0.555223
0.559341
0.562413
0.564739
0.566546
0.567988
0.569185
0.570198
0.571068
0.571817
0.572461
0.573005
0.57346
0.573823
0.574104
0.574308
0.57444
0.574508
0.5745
0.574435
0.574294
0.574095
0.573835
0.573517
0.573142
0.572711
0.572216
0.571647
0.571009
0.570221
0.569402
0.568123
0.48227
0.494762
0.499752
0.510399
0.521098
0.531643
0.540638
0.547893
0.553475
0.557706
0.560862
0.563247
0.565092
0.566558
0.567771
0.568795
0.569671
0.570429
0.571081
0.571634
0.5721
0.572475
0.57277
0.57299
0.573139
0.573225
0.573237
0.573193
0.573079
0.572908
0.572679
0.572397
0.572062
0.571679
0.571238
0.570735
0.570176
0.569479
0.568753
0.567532
0.481066
0.493132
0.497966
0.508296
0.518949
0.529515
0.538624
0.546018
0.551736
0.556079
0.559322
0.561767
0.563651
0.565141
0.566369
0.567401
0.568284
0.569048
0.569707
0.570268
0.570743
0.57113
0.571437
0.571672
0.571838
0.57194
0.571973
0.571949
0.57186
0.571716
0.571519
0.571273
0.570978
0.570641
0.570256
0.56982
0.569344
0.568749
0.568131
0.566987
0.480079
0.491621
0.496314
0.506303
0.516875
0.527433
0.536635
0.544158
0.550008
0.554464
0.557793
0.5603
0.562222
0.563737
0.564978
0.566019
0.566907
0.567675
0.56834
0.568907
0.569389
0.569786
0.570105
0.570354
0.570536
0.570653
0.570707
0.570703
0.570639
0.570521
0.570354
0.570144
0.569887
0.569597
0.569267
0.5689
0.568511
0.568028
0.567537
0.566495
0.479321
0.490222
0.494791
0.504422
0.514883
0.525405
0.53468
0.542322
0.5483
0.552866
0.556281
0.558848
0.560809
0.562347
0.563601
0.564648
0.56554
0.566311
0.566979
0.567551
0.56804
0.568445
0.568776
0.569037
0.569235
0.569366
0.569439
0.569454
0.569414
0.569322
0.569185
0.569009
0.56879
0.568545
0.568271
0.567974
0.567675
0.567314
0.56697
0.566066
0.478813
0.488934
0.493393
0.502658
0.512978
0.523439
0.532767
0.540516
0.546616
0.551288
0.554789
0.557416
0.559414
0.560975
0.56224
0.563292
0.564185
0.564957
0.565627
0.566201
0.566696
0.567108
0.56745
0.567722
0.567934
0.568079
0.568171
0.568203
0.568186
0.568119
0.568012
0.567869
0.567687
0.567486
0.567265
0.567039
0.566831
0.566601
0.566431
0.565713
0.4786
0.487761
0.492111
0.500982
0.511116
0.521481
0.530839
0.538684
0.544905
0.549686
0.553278
0.555967
0.558007
0.559593
0.560871
0.561928
0.562823
0.563595
0.564266
0.564843
0.565342
0.565761
0.566113
0.566396
0.566622
0.566781
0.56689
0.566941
0.566946
0.566905
0.566825
0.566714
0.566568
0.566411
0.566244
0.566087
0.565972
0.565882
0.565912
0.56545
0.478737
0.486657
0.490878
0.49931
0.509202
0.519432
0.528801
0.53674
0.54309
0.54799
0.551682
0.554446
0.556536
0.558156
0.559452
0.56052
0.56142
0.562195
0.562869
0.563451
0.563955
0.564383
0.564745
0.565041
0.565281
0.565457
0.565584
0.565655
0.565683
0.565668
0.565616
0.565536
0.565428
0.565313
0.565199
0.56511
0.565088
0.565144
0.565405
0.565298
0.479167
0.485556
0.489667
0.497769
0.507506
0.517645
0.527021
0.535025
0.541467
0.546453
0.550216
0.55303
0.555151
0.556787
0.558088
0.559156
0.560055
0.560828
0.561501
0.562085
0.562592
0.563027
0.563397
0.563703
0.563954
0.564145
0.564286
0.564376
0.564424
0.56443
0.564404
0.564351
0.564277
0.5642
0.564134
0.564107
0.564172
0.564368
0.564877
0.565248
0.478572
0.481482
0.485257
0.493185
0.503181
0.513576
0.523209
0.531445
0.538087
0.543229
0.547096
0.549939
0.552009
0.553535
0.554699
0.555637
0.556433
0.557131
0.557751
0.558304
0.558791
0.559217
0.559585
0.559897
0.560155
0.560365
0.560528
0.560648
0.560733
0.560784
0.56081
0.560818
0.56082
0.56083
0.560874
0.56099
0.56125
0.561783
0.562947
0.564956
0.469586
0.473497
0.478751
0.486919
0.49638
0.5059
0.514717
0.522368
0.528681
0.533703
0.537592
0.540549
0.542783
0.544494
0.545842
0.546949
0.547895
0.548725
0.549465
0.550128
0.550721
0.55125
0.551718
0.552128
0.552483
0.552788
0.553045
0.553258
0.553433
0.553575
0.553689
0.553787
0.55388
0.553987
0.554137
0.554378
0.554802
0.555602
0.557234
0.559992
0.45975
0.465474
0.471934
0.480028
0.488783
0.497469
0.50558
0.512755
0.518816
0.523763
0.5277
0.530785
0.533194
0.535097
0.536637
0.537923
0.53903