/*--------------------------------*- C++ -*----------------------------------*\
  =========                 |
  \\      /  F ield         | OpenFOAM: The Open Source CFD Toolbox
   \\    /   O peration     | Website:  https://openfoam.org
    \\  /    A nd           | Version:  7
     \\/     M anipulation  |
\*---------------------------------------------------------------------------*/
FoamFile
{
    version     2.0;
    format      ascii;
    class       volScalarField;
    location    "6.4";
    object      p;
}
// * * * * * * * * * * * * * * * * * * * * * * * * * * * * * * * * * * * * * //

dimensions      [0 2 -2 0 0 0 0];

internalField   nonuniform List<scalar> 
32000
(
0.422563
0.422782
0.422853
0.422882
0.422926
0.423011
0.42313
0.423285
0.423505
0.423826
0.424273
0.424856
0.42557
0.426411
0.427377
0.428472
0.4297
0.431068
0.432579
0.434235
0.436033
0.437966
0.440024
0.442194
0.444465
0.446824
0.449259
0.451758
0.454307
0.456893
0.459503
0.462125
0.464746
0.467355
0.469941
0.472493
0.475006
0.477479
0.479892
0.482173
0.422684
0.422861
0.422904
0.422902
0.422925
0.422996
0.423102
0.423245
0.423453
0.42376
0.42419
0.424752
0.425447
0.426268
0.427212
0.428281
0.429477
0.430807
0.432275
0.433883
0.435629
0.437507
0.439505
0.441609
0.443807
0.446087
0.448441
0.450856
0.453321
0.455822
0.458346
0.460881
0.463414
0.465933
0.468429
0.470892
0.473317
0.475701
0.478022
0.480225
0.422805
0.42294
0.422956
0.422928
0.422932
0.422989
0.423084
0.423216
0.423416
0.423714
0.42413
0.424676
0.425352
0.426154
0.427077
0.428121
0.42929
0.430585
0.432013
0.433576
0.435274
0.437098
0.439036
0.441073
0.443198
0.4454
0.447672
0.450002
0.452381
0.454794
0.45723
0.459674
0.462115
0.464542
0.466943
0.469312
0.471643
0.473935
0.476159
0.478282
0.422917
0.423002
0.422997
0.42295
0.422938
0.422982
0.42307
0.423198
0.423394
0.423687
0.424095
0.424627
0.425287
0.42607
0.426974
0.427996
0.429138
0.430403
0.431794
0.433316
0.434967
0.436739
0.438616
0.440586
0.442636
0.44476
0.446949
0.449195
0.451486
0.45381
0.456153
0.458504
0.460849
0.463178
0.465482
0.467752
0.469986
0.47218
0.474305
0.476342
0.423031
0.423069
0.423046
0.422982
0.422957
0.42299
0.423071
0.423197
0.423393
0.423684
0.424084
0.424606
0.425251
0.426018
0.426904
0.427905
0.429023
0.430259
0.431616
0.433099
0.434706
0.436425
0.438241
0.440142
0.442119
0.444164
0.446272
0.448432
0.450635
0.452866
0.455115
0.457368
0.459615
0.461843
0.464045
0.466213
0.468345
0.470437
0.472458
0.474403
0.423138
0.423129
0.423089
0.423012
0.422977
0.423001
0.423079
0.423207
0.423406
0.423696
0.424093
0.424607
0.425242
0.425995
0.426864
0.427846
0.428942
0.430152
0.431479
0.432926
0.434489
0.436155
0.43791
0.439742
0.441646
0.443614
0.44564
0.447715
0.449826
0.451964
0.454115
0.456268
0.458413
0.460538
0.462634
0.464695
0.466721
0.468707
0.470617
0.472466
0.423241
0.423188
0.423134
0.423047
0.423003
0.423023
0.423099
0.423232
0.423435
0.423728
0.424124
0.424634
0.425261
0.426003
0.426857
0.427821
0.428897
0.430084
0.431383
0.432796
0.434315
0.435928
0.437622
0.439387
0.441218
0.443109
0.445053
0.447041
0.449061
0.451101
0.453152
0.455204
0.457244
0.459261
0.461248
0.4632
0.465114
0.466988
0.468785
0.470531
0.423337
0.423242
0.423177
0.423082
0.423035
0.423053
0.423131
0.423268
0.423478
0.423776
0.424175
0.424685
0.425308
0.42604
0.42688
0.427829
0.428887
0.430053
0.431328
0.432707
0.434183
0.435743
0.437375
0.439074
0.440833
0.442648
0.444511
0.446411
0.448337
0.450279
0.452229
0.454176
0.456108
0.458015
0.459889
0.461726
0.463526
0.465283
0.466961
0.468599
0.423423
0.423288
0.423216
0.423118
0.42307
0.42309
0.423171
0.423315
0.423533
0.423838
0.424244
0.424758
0.425379
0.426103
0.426931
0.427867
0.428909
0.430058
0.43131
0.432657
0.43409
0.435597
0.43717
0.438803
0.440492
0.442231
0.444011
0.445822
0.447654
0.449498
0.451344
0.453184
0.455006
0.4568
0.458558
0.460277
0.461957
0.463594
0.465149
0.466673
0.423495
0.423325
0.423248
0.42315
0.423107
0.423131
0.423219
0.42337
0.423597
0.423914
0.42433
0.42485
0.425471
0.42619
0.427009
0.427933
0.428964
0.430097
0.431327
0.432643
0.434033
0.435489
0.437004
0.438573
0.440192
0.441855
0.443553
0.445275
0.447012
0.448755
0.450498
0.452229
0.453938
0.455616
0.457255
0.458853
0.460409
0.461921
0.463351
0.464756
0.423552
0.42335
0.423271
0.423178
0.423142
0.423174
0.423269
0.42343
0.42367
0.424
0.42443
0.424959
0.425582
0.426298
0.427111
0.428027
0.429048
0.430167
0.431376
0.432661
0.434011
0.435417
0.436875
0.438381
0.439932
0.441519
0.443135
0.444767
0.446409
0.448051
0.449688
0.45131
0.452904
0.454464
0.455982
0.457455
0.458885
0.460269
0.461569
0.462849
0.423594
0.423361
0.423284
0.4232
0.423174
0.423216
0.423321
0.423494
0.423748
0.424095
0.424541
0.425081
0.425709
0.426425
0.427235
0.428147
0.429159
0.430266
0.431454
0.432709
0.434019
0.435378
0.436782
0.438227
0.43971
0.441222
0.442755
0.444297
0.445843
0.447384
0.448915
0.450426
0.451905
0.453344
0.454739
0.456085
0.457386
0.458638
0.459807
0.460956
0.423618
0.423359
0.423285
0.423213
0.4232
0.423254
0.423371
0.423558
0.42383
0.424197
0.424661
0.425214
0.42585
0.426569
0.42738
0.428289
0.429295
0.430389
0.431556
0.432782
0.434056
0.43537
0.436721
0.438107
0.439523
0.440961
0.44241
0.443863
0.445312
0.446753
0.448178
0.449576
0.450939
0.452257
0.453526
0.454745
0.455913
0.457033
0.458068
0.459083
0.423625
0.423342
0.423275
0.423216
0.423218
0.423285
0.423417
0.423621
0.423913
0.424302
0.424785
0.425353
0.425999
0.426726
0.427541
0.42845
0.429451
0.430533
0.43168
0.432878
0.434117
0.435389
0.43669
0.438018
0.439368
0.440731
0.442098
0.443461
0.444816
0.446156
0.447475
0.448762
0.450007
0.451203
0.452346
0.453435
0.454471
0.455455
0.456356
0.457233
0.423615
0.42331
0.423251
0.423207
0.423225
0.423308
0.423456
0.42368
0.423995
0.424406
0.424911
0.425496
0.426156
0.426893
0.427716
0.428627
0.429623
0.430692
0.43182
0.432993
0.434199
0.43543
0.436684
0.437956
0.439242
0.440531
0.441816
0.443091
0.444351
0.445592
0.446805
0.44798
0.449108
0.450182
0.451199
0.452158
0.45306
0.45391
0.454677
0.455411
0.423588
0.423264
0.423214
0.423184
0.423219
0.423319
0.423488
0.423734
0.424072
0.424508
0.425034
0.425638
0.426315
0.427067
0.4279
0.428815
0.429807
0.430864
0.431974
0.433123
0.434298
0.435492
0.4367
0.437918
0.43914
0.440357
0.441561
0.442749
0.443917
0.44506
0.446168
0.447232
0.448243
0.449195
0.450087
0.450916
0.451686
0.452401
0.453035
0.453624
0.423544
0.423205
0.423162
0.423146
0.423199
0.423318
0.423509
0.42378
0.424144
0.424605
0.425154
0.425779
0.426475
0.427245
0.42809
0.42901
0.429998
0.431045
0.432138
0.433265
0.434412
0.43557
0.436734
0.437899
0.439059
0.440205
0.441331
0.442434
0.443511
0.444557
0.445561
0.446515
0.44741
0.448242
0.449009
0.449711
0.450349
0.450931
0.451435
0.451877
0.423483
0.42313
0.423095
0.423093
0.423163
0.423304
0.423519
0.423817
0.424209
0.424695
0.425267
0.425916
0.426634
0.427423
0.428282
0.429208
0.430195
0.431232
0.43231
0.433416
0.434536
0.435661
0.436783
0.437897
0.438996
0.440072
0.441122
0.442143
0.443131
0.44408
0.444982
0.445827
0.446609
0.447323
0.447968
0.448544
0.449053
0.449503
0.44988
0.450175
0.423405
0.423041
0.423012
0.423023
0.423111
0.423274
0.423516
0.423843
0.424264
0.424776
0.425374
0.426047
0.42679
0.427599
0.428473
0.429406
0.430392
0.431422
0.432487
0.433574
0.434669
0.435761
0.436843
0.437907
0.438947
0.439956
0.440932
0.441872
0.442772
0.443627
0.444429
0.445167
0.445838
0.446436
0.446962
0.447415
0.447799
0.448121
0.448374
0.448523
0.423309
0.422935
0.422913
0.422935
0.423041
0.423229
0.4235
0.423858
0.424308
0.424848
0.425472
0.426172
0.42694
0.42777
0.42866
0.429602
0.430589
0.431613
0.432666
0.433735
0.434806
0.435868
0.43691
0.437926
0.438909
0.439853
0.440756
0.441618
0.442433
0.443196
0.443898
0.444533
0.445095
0.445581
0.445991
0.446327
0.446588
0.446786
0.446921
0.446925
0.423195
0.422813
0.422795
0.422828
0.422953
0.423167
0.423468
0.423858
0.424339
0.424908
0.42556
0.426287
0.427081
0.427934
0.42884
0.429791
0.430781
0.431801
0.432843
0.433896
0.434944
0.435976
0.43698
0.43795
0.438877
0.439759
0.440592
0.441377
0.442108
0.442781
0.443388
0.443923
0.44438
0.444757
0.445056
0.445277
0.445421
0.4455
0.445521
0.445385
0.423061
0.422671
0.422657
0.422702
0.422847
0.423087
0.42342
0.423843
0.424356
0.424954
0.425635
0.42639
0.427211
0.428087
0.42901
0.429972
0.430965
0.431982
0.433015
0.434052
0.435079
0.436082
0.43705
0.437974
0.438849
0.43967
0.440436
0.441145
0.441796
0.442381
0.442896
0.443333
0.443689
0.443962
0.444154
0.444266
0.444297
0.444262
0.444178
0.443906
0.422903
0.422508
0.422498
0.422555
0.422719
0.422988
0.423353
0.423811
0.424356
0.424985
0.425695
0.426479
0.427327
0.428227
0.429167
0.43014
0.431138
0.432153
0.433178
0.4342
0.435206
0.436181
0.437114
0.437996
0.438819
0.439582
0.440282
0.440919
0.441491
0.441993
0.442418
0.442761
0.44302
0.443193
0.443283
0.443291
0.443216
0.443073
0.44289
0.442489
0.42272
0.42232
0.422315
0.422385
0.422571
0.422868
0.423267
0.42376
0.424337
0.424997
0.425738
0.426551
0.427426
0.42835
0.429308
0.430293
0.431296
0.43231
0.433327
0.434336
0.435321
0.436271
0.43717
0.438011
0.438785
0.43949
0.440127
0.440695
0.441191
0.441611
0.44195
0.442204
0.442369
0.442447
0.442441
0.442351
0.442175
0.441931
0.441658
0.441136
0.42251
0.422107
0.422107
0.422191
0.422399
0.422727
0.423161
0.423687
0.424298
0.42499
0.425761
0.426604
0.427507
0.428453
0.42943
0.430428
0.431437
0.43245
0.43346
0.434455
0.435422
0.436346
0.437214
0.438014
0.438741
0.439391
0.439967
0.440467
0.44089
0.441232
0.441489
0.441656
0.441733
0.44172
0.441623
0.441442
0.441172
0.440834
0.440478
0.439845
0.422273
0.421867
0.421874
0.421972
0.422204
0.422563
0.423031
0.423593
0.424238
0.424961
0.425763
0.426636
0.427566
0.428536
0.429531
0.430541
0.431557
0.432571
0.433574
0.434556
0.435504
0.436404
0.43724
0.438002
0.438682
0.43928
0.439797
0.440232
0.440584
0.440851
0.441028
0.441113
0.441106
0.441008
0.440825
0.440559
0.440203
0.439778
0.439349
0.438615
0.422006
0.4216
0.421614
0.421728
0.421986
0.422376
0.422878
0.423474
0.424153
0.42491
0.425743
0.426645
0.427602
0.428595
0.429609
0.430632
0.431654
0.432668
0.433664
0.434634
0.435564
0.43644
0.437246
0.43797
0.438606
0.439152
0.439612
0.439984
0.440268
0.440463
0.440564
0.44057
0.440482
0.440305
0.440043
0.439698
0.439263
0.438761
0.438267
0.437444
0.421709
0.421305
0.421327
0.421459
0.421743
0.422164
0.4227
0.423331
0.424044
0.424835
0.425699
0.426631
0.427613
0.428629
0.429661
0.430697
0.431726
0.432739
0.433728
0.434686
0.435598
0.43645
0.437226
0.437913
0.438505
0.439003
0.439406
0.439718
0.439937
0.440061
0.440089
0.44002
0.439858
0.439606
0.439271
0.438854
0.438348
0.437775
0.437226
0.436327
0.421382
0.42098
0.421013
0.421164
0.421475
0.421927
0.422496
0.423161
0.423909
0.424733
0.42563
0.426591
0.427599
0.428636
0.429685
0.430733
0.431768
0.43278
0.433763
0.434708
0.435602
0.43643
0.437176
0.437826
0.438376
0.438825
0.439176
0.439429
0.439584
0.439641
0.439599
0.439459
0.439225
0.438904
0.438501
0.438019
0.43745
0.436817
0.43622
0.435258
0.421024
0.420626
0.42067
0.420844
0.421182
0.421664
0.422266
0.422964
0.423746
0.424604
0.425533
0.426523
0.427556
0.428614
0.429679
0.430738
0.431778
0.432789
0.433765
0.434696
0.435572
0.436376
0.437091
0.437705
0.438213
0.438616
0.438914
0.43911
0.439203
0.439195
0.439085
0.438878
0.438578
0.438192
0.437728
0.437187
0.436563
0.435878
0.435244
0.434233
0.420632
0.42024
0.4203
0.420496
0.420863
0.421375
0.422008
0.422739
0.423554
0.424445
0.425407
0.426425
0.427482
0.428559
0.42964
0.430708
0.431753
0.432762
0.433729
0.434647
0.435503
0.436282
0.436966
0.437544
0.438011
0.438367
0.438615
0.438755
0.438788
0.438716
0.438542
0.43827
0.437907
0.437461
0.43694
0.436348
0.435677
0.434949
0.434289
0.433245
0.420207
0.419823
0.419899
0.420121
0.420516
0.421059
0.421722
0.422484
0.423331
0.424255
0.425248
0.426294
0.427375
0.42847
0.429564
0.430642
0.431689
0.432695
0.433653
0.434556
0.435392
0.436144
0.436796
0.437337
0.437763
0.438074
0.438271
0.438356
0.43833
0.438196
0.43796
0.437626
0.437203
0.436701
0.436128
0.43549
0.434781
0.434022
0.433347
0.432287
0.419746
0.419372
0.419467
0.419715
0.42014
0.420713
0.421407
0.422199
0.423076
0.424032
0.425056
0.426129
0.427231
0.428344
0.429451
0.430536
0.431584
0.432586
0.433533
0.434419
0.435233
0.435957
0.436576
0.43708
0.437464
0.437729
0.437876
0.437905
0.437821
0.437626
0.437328
0.436934
0.436454
0.435898
0.435278
0.434601
0.433861
0.433082
0.432405
0.431351
0.419247
0.418886
0.419002
0.419278
0.419734
0.420337
0.42106
0.421881
0.422788
0.423774
0.424827
0.425926
0.42705
0.428178
0.429296
0.430386
0.431434
0.432429
0.433364
0.434232
0.435022
0.435717
0.436301
0.436766
0.437107
0.437325
0.43742
0.437394
0.43725
0.436995
0.436637
0.436184
0.435647
0.435039
0.434374
0.433661
0.432899
0.432113
0.431451
0.430428
0.41871
0.418363
0.418502
0.418808
0.419295
0.419929
0.420681
0.421529
0.422465
0.423481
0.424561
0.425684
0.426827
0.42797
0.429096
0.43019
0.431236
0.432222
0.433143
0.433991
0.434754
0.435417
0.435965
0.436388
0.436685
0.436854
0.436896
0.436813
0.436609
0.436293
0.435874
0.435361
0.434766
0.434106
0.433396
0.432651
0.431873
0.431091
0.430465
0.429509
0.418133
0.417802
0.417965
0.418303
0.418822
0.419488
0.420267
0.421142
0.422106
0.423149
0.424256
0.425401
0.426561
0.427716
0.42885
0.429945
0.430985
0.431961
0.432865
0.43369
0.434424
0.435052
0.43556
0.435941
0.43619
0.436308
0.436295
0.436153
0.435888
0.435509
0.435027
0.434451
0.433797
0.433081
0.432323
0.431544
0.430753
0.429985
0.429415
0.428573
0.417514
0.417201
0.417391
0.417762
0.418316
0.419012
0.419819
0.42072
0.42171
0.422779
0.42391
0.425075
0.426249
0.427414
0.428552
0.429646
0.430679
0.431641
0.432525
0.433324
0.434026
0.434617
0.435082
0.435416
0.435616
0.43568
0.435609
0.435405
0.435077
0.434632
0.434084
0.433442
0.432722
0.431943
0.43113
0.430309
0.429499
0.428746
0.42825
0.427579
0.416851
0.416559
0.416778
0.417184
0.417772
0.418499
0.419333
0.420259
0.421274
0.422368
0.42352
0.424703
0.42589
0.427061
0.428201
0.42929
0.430312
0.431257
0.432119
0.432888
0.433554
0.434103
0.434524
0.434809
0.434955
0.434962
0.43483
0.434563
0.434167
0.433654
0.433034
0.432319
0.431525
0.430673
0.429789
0.428908
0.428062
0.427315
0.426911
0.426502
0.416144
0.415876
0.416125
0.416567
0.417191
0.417948
0.418808
0.419759
0.420798
0.421915
0.423086
0.424283
0.425478
0.426654
0.427791
0.428872
0.429881
0.430806
0.43164
0.432376
0.433003
0.433507
0.433878
0.434111
0.434201
0.434148
0.433952
0.433617
0.433151
0.432565
0.431868
0.431073
0.430194
0.42925
0.42827
0.427291
0.426363
0.425593
0.425321
0.425391
0.415394
0.415153
0.415432
0.415911
0.41657
0.417357
0.418242
0.419217
0.420279
0.421416
0.422604
0.423812
0.425013
0.426188
0.427319
0.428389
0.429379
0.43028
0.431084
0.431782
0.432366
0.432822
0.433141
0.433317
0.433348
0.433231
0.432968
0.432563
0.432023
0.43136
0.430582
0.429699
0.428721
0.427664
0.426547
0.425397
0.424257
0.42326
0.422779
0.423036
0.489775
0.500195
0.508005
0.514646
0.519421
0.523489
0.526643
0.529373
0.531671
0.533696
0.535473
0.537024
0.538368
0.539551
0.540568
0.541429
0.542145
0.542743
0.543217
0.543563
0.543799
0.543943
0.543975
0.543915
0.543754
0.54348
0.543128
0.542676
0.542126
0.541484
0.540727
0.539886
0.538932
0.537877
0.536715
0.53545
0.534113
0.532667
0.531342
0.529751
0.487789
0.498035
0.505898
0.512584
0.517433
0.521579
0.52481
0.527611
0.529973
0.53205
0.533866
0.535459
0.536847
0.538056
0.539093
0.539988
0.540739
0.54135
0.541836
0.542213
0.542474
0.54263
0.542686
0.542631
0.542481
0.542233
0.541887
0.541447
0.540908
0.54027
0.539534
0.538692
0.537753
0.536708
0.535559
0.534303
0.532975
0.531542
0.530224
0.528646
0.485779
0.49585
0.503757
0.510495
0.515423
0.519651
0.522964
0.525843
0.528272
0.530405
0.532261
0.533896
0.535326
0.536561
0.53762
0.538546
0.53933
0.539956
0.540454
0.54086
0.541146
0.541313
0.541392
0.541344
0.541206
0.540984
0.540646
0.540218
0.539693
0.53906
0.538347
0.537505
0.536582
0.535547
0.534412
0.533166
0.531848
0.53043
0.52912
0.527557
0.483743
0.493639
0.501579
0.508377
0.513387
0.517706
0.521106
0.524066
0.526566
0.528758
0.530662
0.532336
0.533802
0.535068
0.536153
0.537103
0.53791
0.53856
0.53908
0.539504
0.53981
0.539994
0.540089
0.54006
0.539936
0.539728
0.539404
0.53899
0.538478
0.537859
0.537158
0.536332
0.535419
0.534396
0.533271
0.532039
0.530734
0.529328
0.528031
0.526485
0.481676
0.491403
0.499363
0.506227
0.511323
0.515741
0.519235
0.522282
0.524856
0.52711
0.529065
0.530779
0.532278
0.533575
0.53469
0.53566
0.536487
0.537164
0.53771
0.538148
0.538472
0.538675
0.538784
0.538776
0.538668
0.538471
0.538164
0.537764
0.537266
0.536665
0.535973
0.535167
0.534265
0.533254
0.53214
0.530923
0.529632
0.528239
0.526956
0.525428
0.479578
0.489142
0.497104
0.504042
0.509228
0.513755
0.517351
0.520491
0.523144
0.525462
0.52747
0.529225
0.530756
0.532085
0.533228
0.53422
0.535067
0.535768
0.536339
0.536793
0.537135
0.537357
0.53748
0.537491
0.537399
0.537215
0.536926
0.536541
0.536058
0.535475
0.534796
0.534007
0.533119
0.53212
0.53102
0.529817
0.528542
0.527163
0.525892
0.524382
0.477444
0.486857
0.494802
0.50182
0.507099
0.511746
0.515452
0.518692
0.521429
0.523814
0.525876
0.527672
0.529237
0.530596
0.531767
0.532782
0.53365
0.534374
0.534968
0.53544
0.535799
0.536039
0.536176
0.536207
0.536132
0.535963
0.53569
0.535322
0.534855
0.534289
0.533625
0.532853
0.53198
0.530997
0.529911
0.528723
0.527463
0.526099
0.524841
0.523347
0.475274
0.484546
0.492454
0.499559
0.504936
0.509713
0.513538
0.516886
0.519711
0.522167
0.524284
0.526123
0.527721
0.52911
0.530309
0.531346
0.532236
0.532982
0.533598
0.534087
0.534463
0.534722
0.534875
0.534923
0.534866
0.534712
0.534458
0.534107
0.533657
0.533109
0.53246
0.531706
0.530849
0.529882
0.528812
0.52764
0.526396
0.525048
0.523802
0.522324
0.473067
0.48221
0.49006
0.497258
0.502737
0.507654
0.511607
0.515071
0.517989
0.52052
0.522693
0.524576
0.526208
0.527627
0.528853
0.529914
0.530825
0.531592
0.532229
0.532736
0.533129
0.533406
0.533575
0.533641
0.533601
0.533464
0.533229
0.532895
0.532464
0.531933
0.531302
0.530566
0.529726
0.528776
0.527724
0.526569
0.525341
0.524008
0.522775
0.521312
0.470822
0.47985
0.487617
0.494914
0.500499
0.505566
0.509658
0.513247
0.516265
0.518873
0.521105
0.523032
0.5247
0.526147
0.5274
0.528484
0.529416
0.530204
0.530861
0.531387
0.531797
0.532092
0.532277
0.532361
0.53234
0.53222
0.532003
0.531688
0.531275
0.530764
0.53015
0.529433
0.52861
0.52768
0.526645
0.525508
0.524298
0.522981
0.521761
0.520311
0.46854
0.477467
0.485125
0.492526
0.498221
0.503449
0.507689
0.511412
0.514536
0.517226
0.519519
0.521492
0.523195
0.524672
0.52595
0.527057
0.52801
0.528818
0.529495
0.53004
0.530466
0.53078
0.530981
0.531083
0.531081
0.530979
0.530781
0.530485
0.530091
0.5296
0.529004
0.528306
0.527503
0.526593
0.525577
0.524459
0.523267
0.521966
0.520759
0.519321
0.466223
0.475062
0.482586
0.490094
0.495902
0.5013
0.5057
0.509566
0.512804
0.515579
0.517936
0.519955
0.521695
0.5232
0.524505
0.525634
0.526608
0.527436
0.528131
0.528695
0.529138
0.52947
0.529687
0.529808
0.529825
0.529741
0.529563
0.529286
0.528912
0.52844
0.527864
0.527186
0.526403
0.525514
0.524519
0.523421
0.522247
0.520963
0.519768
0.518343
0.463872
0.472638
0.480001
0.487616
0.49354
0.499119
0.50369
0.507707
0.511066
0.513932
0.516355
0.518423
0.520199
0.521734
0.523063
0.524215
0.525209
0.526057
0.52677
0.527352
0.527812
0.528162
0.528397
0.528536
0.528572
0.528506
0.528348
0.528092
0.527736
0.527285
0.526729
0.526073
0.52531
0.524444
0.523471
0.522394
0.521239
0.519971
0.518789
0.517376
0.461492
0.470197
0.47737
0.485093
0.491134
0.496904
0.501656
0.505836
0.509322
0.512284
0.514777
0.516895
0.518709
0.520272
0.521626
0.522799
0.523813
0.524681
0.525412
0.526012
0.526488
0.526856
0.527109
0.527265
0.527321
0.527274
0.527136
0.526901
0.526565
0.526134
0.5256
0.524966
0.524225
0.523382
0.522432
0.521377
0.520241
0.51899
0.517822
0.516421
0.459087
0.467744
0.474698
0.482524
0.488685
0.494654
0.499598
0.50395
0.507572
0.510636
0.513202
0.515372
0.517223
0.518815
0.520193
0.521387
0.522421
0.523307
0.524056
0.524674
0.525166
0.525552
0.525823
0.525997
0.526073
0.526046
0.525927
0.525713
0.525399
0.524987
0.524476
0.523866
0.523148
0.522329
0.521403
0.520371
0.519255
0.518022
0.516867
0.515477
0.456662
0.465283
0.471988
0.479912
0.486191
0.492369
0.497516
0.502051
0.505816
0.508987
0.511629
0.513853
0.515742
0.517363
0.518764
0.519979
0.521032
0.521937
0.522702
0.523338
0.523847
0.52425
0.524541
0.52473
0.524828
0.52482
0.524721
0.524528
0.524236
0.523845
0.523357
0.522772
0.522078
0.521284
0.520383
0.519375
0.518279
0.517064
0.515924
0.514545
0.454225
0.46282
0.469246
0.477258
0.483656
0.490048
0.495408
0.500136
0.504053
0.507337
0.510059
0.512339
0.514266
0.515915
0.517338
0.518574
0.519646
0.520569
0.521352
0.522004
0.522531
0.52295
0.52326
0.523466
0.523584
0.523598
0.523518
0.523346
0.523076
0.522708
0.522243
0.521683
0.521015
0.520246
0.519372
0.518388
0.517314
0.516118
0.514993
0.513624
0.451782
0.46036
0.466478
0.474565
0.48108
0.487691
0.493276
0.498205
0.502283
0.505687
0.508492
0.51083
0.512796
0.514472
0.515918
0.517174
0.518264
0.519204
0.520004
0.520673
0.521217
0.521652
0.521983
0.522205
0.522342
0.522378
0.522318
0.522166
0.521919
0.521574
0.521133
0.520599
0.519958
0.519216
0.518368
0.51741
0.516359
0.515183
0.514072
0.512714
0.449344
0.457911
0.463692
0.471838
0.478465
0.485299
0.491118
0.496258
0.500506
0.504035
0.506928
0.509325
0.51133
0.513034
0.514502
0.515778
0.516886
0.517843
0.51866
0.519345
0.519907
0.520357
0.520707
0.520948
0.521103
0.52116
0.52112
0.520989
0.520765
0.520444
0.520028
0.51952
0.518907
0.518193
0.517372
0.51644
0.515414
0.514259
0.513163
0.511816
0.446918
0.455479
0.460898
0.469081
0.475817
0.482874
0.488936
0.494295
0.498721
0.502381
0.505366
0.507824
0.509869
0.511601
0.513092
0.514388
0.515513
0.516487
0.517319
0.51802
0.5186
0.519066
0.519434
0.519694
0.519867
0.519944
0.519925
0.519815
0.519614
0.519316
0.518926
0.518445
0.51786
0.517175
0.516383
0.515479
0.514479
0.513346
0.512265
0.510929
0.444516
0.453073
0.458104
0.466301
0.473139
0.480418
0.486729
0.492316
0.496929
0.500726
0.503805
0.506326
0.508413
0.510174
0.511689
0.513003
0.514145
0.515135
0.515983
0.516699
0.517297
0.517777
0.518164
0.518443
0.518632
0.51873
0.518731
0.518642
0.518464
0.518192
0.517827
0.517374
0.516819
0.516163
0.515401
0.514527
0.513554
0.512444
0.511379
0.510054
0.442147
0.450703
0.455323
0.463505
0.470438
0.477935
0.4845
0.490322
0.495128
0.499068
0.502246
0.504832
0.506962
0.508753
0.510291
0.511624
0.512783
0.513789
0.514651
0.515382
0.515996
0.516492
0.516895
0.517194
0.5174
0.517517
0.517539
0.517472
0.517317
0.517069
0.516732
0.516307
0.515782
0.515156
0.514425
0.513583
0.512639
0.511554
0.510506
0.509192
0.439824
0.448376
0.452566
0.460704
0.467719
0.475428
0.482251
0.488314
0.49332
0.497408
0.500688
0.503343
0.505517
0.507339
0.5089
0.51025
0.511425
0.512447
0.513323
0.514069
0.514699
0.515211
0.51563
0.515948
0.51617
0.516307
0.516349
0.516304
0.516171
0.51595
0.51564
0.515243
0.514749
0.514154
0.513457
0.512647
0.511733
0.510675
0.509647
0.508343
0.437557
0.446101
0.449847
0.457907
0.46499
0.472903
0.479985
0.486292
0.491504
0.495745
0.499133
0.501858
0.504079
0.505932
0.507516
0.508883
0.510074
0.511111
0.512001
0.512761
0.513404
0.513933
0.514367
0.514704
0.514943
0.515099
0.515161
0.515137
0.515028
0.514832
0.51455
0.514182
0.51372
0.513157
0.512493
0.511718
0.510836
0.509808
0.508802
0.507508
0.435358
0.443889
0.447177
0.455124
0.462261
0.470364
0.477704
0.484258
0.489682
0.49408
0.497579
0.500378
0.502647
0.504533
0.506139
0.507524
0.508729
0.50978
0.510683
0.511456
0.512114
0.512658
0.513107
0.513462
0.513718
0.513893
0.513975
0.513971
0.513886
0.513716
0.513462
0.513122
0.512692
0.512163
0.511535
0.510796
0.509949
0.508952
0.507971
0.506688
0.433236
0.441746
0.44457
0.452367
0.45954
0.467819
0.475413
0.482214
0.487853
0.492412
0.496026
0.498903
0.501222
0.503141
0.504769
0.506171
0.507391
0.508455
0.50937
0.510157
0.510827
0.511387
0.51185
0.512223
0.512495
0.512688
0.512791
0.512808
0.512746
0.512602
0.512375
0.512065
0.511667
0.511172
0.510581
0.50988
0.509071
0.508108
0.507156
0.505885
0.431204
0.439679
0.442038
0.449646
0.456839
0.465275
0.473115
0.480162
0.486017
0.490741
0.494475
0.497432
0.499804
0.501757
0.503407
0.504826
0.506059
0.507136
0.508063
0.508861
0.509545
0.510119
0.510597
0.510986
0.511275
0.511485
0.511608
0.511645
0.511607
0.511488
0.51129
0.511007
0.510642
0.510182
0.509629
0.508969
0.508201
0.507277
0.506356
0.505099
0.42927
0.437694
0.439593
0.446974
0.454166
0.462739
0.470815
0.478103
0.484175
0.489068
0.492925
0.495966
0.498391
0.500379
0.502053
0.503489
0.504735
0.505822
0.50676
0.507571
0.508266
0.508855
0.509346
0.509751
0.510058
0.510284
0.510427
0.510485
0.510469
0.510375
0.510204
0.50995
0.509618
0.509194
0.50868
0.508062
0.507339
0.506457
0.505573
0.504333
0.427445
0.435794
0.437245
0.444363
0.451534
0.46022
0.468516
0.47604
0.482329
0.487393
0.491377
0.494503
0.496985
0.499009
0.500706
0.502159
0.503417
0.504515
0.505463
0.506284
0.506992
0.507593
0.508099
0.508518
0.508843
0.509084
0.509247
0.509325
0.509331
0.509261
0.509117
0.508893
0.508594
0.508206
0.507733
0.507159
0.506485
0.50565
0.504808
0.503587
0.425735
0.433984
0.435003
0.441825
0.448952
0.457725
0.466225
0.473976
0.48048
0.485717
0.48983
0.493045
0.495585
0.497647
0.499368
0.500837
0.502106
0.503213
0.504171
0.505002
0.505721
0.506336
0.506854
0.507287
0.507629
0.507885
0.508067
0.508165
0.508192
0.508147
0.508029
0.507834
0.507568
0.507218
0.506786
0.506259
0.505637
0.504856
0.504061
0.502865
0.424151
0.432264
0.432875
0.439371
0.446433
0.455263
0.463948
0.471915
0.478631
0.484042
0.488285
0.491593
0.494193
0.496294
0.498039
0.499523
0.500802
0.501917
0.502885
0.503725
0.504455
0.505081
0.505613
0.506058
0.506416
0.506687
0.506887
0.507005
0.507053
0.507032
0.506939
0.506774
0.50654
0.506229
0.505839
0.505361
0.504795
0.504074
0.503334
0.502168
0.422698
0.430635
0.430867
0.437012
0.443986
0.452843
0.46169
0.46986
0.476783
0.482367
0.486743
0.490146
0.492808
0.494949
0.496719
0.498217
0.499506
0.500628
0.501604
0.502453
0.503192
0.503829
0.504374
0.504831
0.505205
0.505491
0.505707
0.505845
0.505912
0.505915
0.505847
0.505711
0.50551
0.505237
0.504891
0.504463
0.503957
0.503304
0.502627
0.5015
0.421387
0.429095
0.428985
0.434755
0.44162
0.450472
0.459457
0.467816
0.474938
0.480694
0.485204
0.488705
0.491431
0.493614
0.495407
0.496918
0.498217
0.499346
0.500328
0.501185
0.501933
0.502581
0.503137
0.503605
0.503993
0.504295
0.504527
0.504684
0.50477
0.504796
0.504754
0.504646
0.504476
0.504241
0.503939
0.503564
0.503122
0.502543
0.501942
0.500865
0.420227
0.427641
0.427232
0.432611
0.439345
0.44816
0.457255
0.465786
0.473098
0.479023
0.48367
0.48727
0.490063
0.492287
0.494104
0.495628
0.496936
0.49807
0.499059
0.499923
0.500678
0.501336
0.501903
0.502382
0.502783
0.503099
0.503346
0.503522
0.503627
0.503675
0.503658
0.503577
0.503439
0.503241
0.502984
0.502663
0.502287
0.501792
0.50128
0.500267
0.419233
0.426272
0.425611
0.430586
0.437169
0.445915
0.455091
0.463775
0.471266
0.477358
0.482142
0.485842
0.488703
0.49097
0.492811
0.494347
0.495663
0.496801
0.497795
0.498665
0.499428
0.500093
0.50067
0.50116
0.501573
0.501904
0.502165
0.50236
0.502483
0.502553
0.502558
0.502504
0.502397
0.502236
0.502023
0.501757
0.501452
0.501047
0.50064
0.499713
0.418423
0.424984
0.424119
0.428686
0.435098
0.443747
0.452975
0.461792
0.469451
0.475703
0.480623
0.484424
0.487355
0.489663
0.491528
0.493077
0.4944
0.495541
0.496538
0.497414
0.498181
0.498855
0.49944
0.499941
0.500365
0.50071
0.500984
0.501197
0.501338
0.501427
0.501456
0.501428
0.50135
0.501225
0.501055
0.500845
0.500613
0.500308
0.500023
0.499211
0.417818
0.423779
0.42276
0.426918
0.433143
0.441666
0.450918
0.459846
0.467658
0.474065
0.479118
0.483019
0.486019
0.48837
0.490258
0.491818
0.493146
0.49429
0.495289
0.496168
0.49694
0.49762
0.498214
0.498724
0.499158
0.499517
0.499804
0.500034
0.500193
0.5003
0.50035
0.500347
0.500298
0.500207
0.500081
0.499926
0.499769
0.49957
0.499428
0.498773
0.417453
0.42267
0.421546
0.425294
0.431307
0.439662
0.448895
0.4579
0.465846
0.472403
0.477588
0.481592
0.484667
0.487062
0.488977
0.490551
0.491885
0.493032
0.494033
0.494915
0.495692
0.496378
0.496979
0.497498
0.497943
0.498315
0.498616
0.498861
0.499038
0.499163
0.499235
0.499255
0.499234
0.499177
0.499093
0.498994
0.498913
0.498826
0.498849
0.498409
0.417404
0.421633
0.420443
0.423766
0.429525
0.437654
0.446811
0.455861
0.463928
0.470635
0.475962
0.480082
0.483242
0.485694
0.487644
0.489239
0.490584
0.491738
0.492744
0.493632
0.494415
0.495109
0.495719
0.496249
0.496705
0.497091
0.497408
0.497668
0.497864
0.498008
0.498101
0.498145
0.498151
0.498128
0.498086
0.498042
0.498036
0.498068
0.498279
0.498138
0.417889
0.420578
0.419238
0.422168
0.427727
0.435692
0.444818
0.453938
0.462135
0.468991
0.474451
0.478676
0.48191
0.484407
0.48638
0.487986
0.489333
0.490486
0.491492
0.49238
0.493166
0.493864
0.49448
0.495017
0.495483
0.49588
0.49621
0.496483
0.496695
0.496855
0.496965
0.497031
0.497062
0.497068
0.497064
0.49707
0.497134
0.497282
0.497692
0.497954
0.419271
0.416955
0.414395
0.416429
0.421911
0.430078
0.439691
0.449398
0.458158
0.46549
0.471311
0.475769
0.479115
0.481612
0.483505
0.484989
0.486206
0.487249
0.488171
0.488998
0.489744
0.490414
0.491014
0.491544
0.49201
0.492413
0.492758
0.493046
0.493284
0.493471
0.493618
0.493729
0.493814
0.493888
0.493969
0.49409
0.49431
0.494731
0.495669
0.497308
0.407996
0.406842
0.40615
0.409515
0.415744
0.423917
0.433119
0.442301
0.450618
0.457643
0.463304
0.467723
0.471112
0.473703
0.475711
0.477314
0.478643
0.479785
0.480793
0.481698
0.482516
0.483255
0.483922
0.48452
0.485053
0.485523
0.485934
0.486288
0.48659
0.486844
0.487055
0.487232
0.487385
0.48753
0.487692
0.487908
0.488254
0.488883
0.490196
0.492459
0.395914
0.397322
0.399026
0.403687
0.410317
0.4182
0.42675
0.435227
0.442968
0.449611
0.455068
0.459419
0.462833
0.465506
0.467627
0.469352
0.4708