/*--------------------------------*- C++ -*----------------------------------*\
  =========                 |
  \\      /  F ield         | OpenFOAM: The Open Source CFD Toolbox
   \\    /   O peration     | Website:  https://openfoam.org
    \\  /    A nd           | Version:  7
     \\/     M anipulation  |
\*---------------------------------------------------------------------------*/
FoamFile
{
    version     2.0;
    format      ascii;
    class       surfaceScalarField;
    location    "6.4";
    object      phi;
}
// * * * * * * * * * * * * * * * * * * * * * * * * * * * * * * * * * * * * * //

dimensions      [0 3 -1 0 0 0 0];

internalField   nonuniform List<scalar> 
63520
(
1.80449e-06
-4.68402e-05
4.50357e-05
6.26929e-06
-2.37217e-05
1.92565e-05
1.29423e-05
9.65428e-05
-0.000103216
2.18725e-05
0.000286028
-0.000294958
3.33505e-05
0.000526031
-0.000537509
4.77687e-05
0.000803543
-0.000817961
6.55495e-05
0.00110891
-0.00112669
8.71022e-05
0.00143475
-0.0014563
0.000112797
0.00177551
-0.0018012
0.000142941
0.00212674
-0.00215689
0.000177779
0.00248496
-0.0025198
0.000217484
0.00284726
-0.00288696
0.000262158
0.00321116
-0.00325584
0.000311833
0.00357448
-0.00362416
0.000366487
0.00393521
-0.00398987
0.000426041
0.00429151
-0.00435107
0.000490364
0.00464164
-0.00470596
0.000559282
0.00498395
-0.00505286
0.000632589
0.00531689
-0.0053902
0.000710048
0.00563902
-0.00571648
0.000791394
0.00594901
-0.00603036
0.00087635
0.00624564
-0.00633059
0.000964626
0.0065278
-0.00661608
0.00105592
0.00679456
-0.00688586
0.00114994
0.0070451
-0.00713912
0.00124639
0.00727877
-0.00737521
0.00134497
0.00749503
-0.00759362
0.00144543
0.00769353
-0.00779399
0.0015475
0.00787403
-0.0079761
0.00165094
0.0080364
-0.00813985
0.00175556
0.00818066
-0.00828528
0.00186117
0.00830688
-0.00841249
0.00196762
0.00841526
-0.0085217
0.00207477
0.00850599
-0.00861314
0.00218252
0.00857932
-0.00868708
0.0022908
0.00863548
-0.00874375
0.00239949
0.00867464
-0.00878334
0.00250851
0.00869682
-0.00880583
0.00261763
0.00870289
-0.00881201
0.00869408
0.00272651
-0.00880296
1.15728e-06
-4.79981e-05
4.15954e-06
-2.67241e-05
8.70513e-06
9.19964e-05
1.49516e-05
0.000279781
2.32932e-05
0.000517689
3.41997e-05
0.000792636
4.81486e-05
0.00109496
6.55871e-05
0.00141731
8.69313e-05
0.00175416
0.000112523
0.00210115
0.000142641
0.00245484
0.000177487
0.00281241
0.000217196
0.00317145
0.000261831
0.00352985
0.000311392
0.00388565
0.000365828
0.00423708
0.000425036
0.00458243
0.000488872
0.00492011
0.000557152
0.00524861
0.000629667
0.00556651
0.000706179
0.0058725
0.00078643
0.00616539
0.000870153
0.00644408
0.000957071
0.00670765
0.0010469
0.00695528
0.00113936
0.00718631
0.00123418
0.00740022
0.00133109
0.00759662
0.00142986
0.00777526
0.00153024
0.00793602
0.00163203
0.00807887
0.00173503
0.00820388
0.00183909
0.0083112
0.00194406
0.00840102
0.00204981
0.00847358
0.00215621
0.00852908
0.00226314
0.00856771
0.00237042
0.00858953
0.00247781
0.00859551
0.00858701
0.00258488
5.37145e-07
-4.85351e-05
2.1013e-06
-2.82883e-05
4.55001e-06
8.95478e-05
8.17609e-06
0.000276154
1.34665e-05
0.000512398
2.09561e-05
0.000785146
3.11878e-05
0.00108472
4.46482e-05
0.00140385
6.17959e-05
0.00173701
8.30025e-05
0.00207994
0.000108575
0.00242927
0.000138747
0.00278224
0.000173677
0.00313652
0.000213456
0.00349007
0.000258116
0.00384099
0.000307633
0.00418756
0.000361926
0.00452814
0.000420876
0.00486116
0.000484328
0.00518516
0.000552091
0.00549875
0.000623949
0.00580064
0.000699672
0.00608966
0.000779011
0.00636474
0.000861704
0.00662495
0.000947484
0.00686949
0.00103609
0.0070977
0.00112726
0.00730905
0.00122074
0.00750314
0.00131628
0.00767972
0.00141366
0.00783864
0.00151266
0.00797986
0.00161309
0.00810345
0.00171477
0.00820952
0.00181753
0.00829827
0.00192121
0.00836989
0.00202566
0.00842463
0.0021307
0.00846267
0.0022361
0.00848413
0.00234155
0.00849006
0.00848199
0.00244656
-4.75172e-08
-4.84877e-05
8.07127e-08
-2.84167e-05
4.53242e-07
8.9175e-05
1.50016e-06
0.000275107
3.80883e-06
0.000510089
7.98788e-06
0.000780967
1.46288e-05
0.00107808
2.426e-05
0.00139422
3.73757e-05
0.0017239
5.43815e-05
0.00206294
7.56086e-05
0.00240804
0.000101314
0.00275653
0.000131687
0.00310615
0.000166847
0.00345491
0.000206847
0.00380099
0.000251683
0.00414272
0.000301304
0.00447852
0.000355614
0.00480685
0.000414474
0.0051263
0.00047772
0.0054355
0.00054516
0.0057332
0.000616579
0.00601824
0.000691745
0.00628958
0.000770416
0.00654628
0.000852342
0.00678757
0.000937273
0.00701277
0.00102496
0.00722136
0.00111515
0.00741295
0.0012076
0.00758726
0.0013021
0.00774414
0.00139842
0.00788354
0.00149635
0.00800552
0.0015957
0.00811017
0.00169628
0.00819769
0.0017979
0.00826827
0.00190037
0.00832216
0.00200345
0.00835959
0.00210687
0.00838071
0.00221025
0.00838669
0.0083792
0.00231304
-6.14158e-07
-4.78736e-05
-1.89756e-06
-2.71334e-05
-3.55541e-06
9.08329e-05
-5.00853e-06
0.00027656
-5.57787e-06
0.000510659
-4.58756e-06
0.000779976
-1.39249e-06
0.00107489
4.58493e-06
0.00138824
1.3858e-05
0.00171462
2.6865e-05
0.00204993
4.39657e-05
0.00239094
6.54413e-05
0.00273506
9.1501e-05
0.00308009
0.000122288
0.00342412
0.000157881
0.0037654
0.0001983
0.00410231
0.000243514
0.0044333
0.000293446
0.00475692
0.000347984
0.00507176
0.000406979
0.00537651
0.000470258
0.00566992
0.000537627
0.00595087
0.00060887
0.00621833
0.00068376
0.00647139
0.000762062
0.00670927
0.000843537
0.0069313
0.000927943
0.00713696
0.00101504
0.00732585
0.0011046
0.0074977
0.00119638
0.00765236
0.00129016
0.00778976
0.00138573
0.00790995
0.00148287
0.00801303
0.00158137
0.00809919
0.001681
0.00816864
0.00178153
0.00822163
0.00188267
0.00825844
0.0019841
0.00827928
0.00208536
0.00828543
0.0082787
0.00218586
-1.16161e-06
-4.6712e-05
-3.81922e-06
-2.44759e-05
-7.44918e-06
9.44628e-05
-1.13226e-05
0.000280434
-1.46611e-05
0.000513997
-1.67191e-05
0.000782034
-1.68059e-05
0.00107497
-1.43029e-05
0.00138574
-8.66782e-06
0.00170899
5.6551e-07
0.0020407
1.37774e-05
0.00237773
3.12706e-05
0.00271756
5.32806e-05
0.00305808
7.99719e-05
0.00339743
0.000111442
0.00373393
0.00014773
0.00406602
0.00018883
0.0043922
0.000234684
0.00471107
0.000285195
0.00502125
0.000340235
0.00532147
0.000399651
0.00561051
0.000463262
0.00588726
0.000530869
0.00615073
0.000602259
0.0064
0.000677211
0.00663431
0.000755497
0.00685301
0.000836884
0.00705557
0.000921138
0.0072416
0.00100803
0.00741082
0.00109732
0.00756307
0.00118878
0.0076983
0.00128218
0.00781655
0.00137729
0.00791792
0.00147387
0.00800261
0.00157166
0.00807085
0.00167038
0.00812292
0.00176969
0.00815913
0.0018692
0.00817977
0.00196839
0.00818623
0.00818047
0.00206662
-1.69347e-06
-4.50186e-05
-5.68078e-06
-2.04886e-05
-1.1211e-05
9.99929e-05
-1.74015e-05
0.000286624
-2.33783e-05
0.000519974
-2.83294e-05
0.000786985
-3.15154e-05
0.00107816
-3.22792e-05
0.0013865
-3.00534e-05
0.00170676
-2.43501e-05
0.00203499
-1.47662e-05
0.00236815
-9.75634e-07
0.00270377
1.72755e-05
0.00303983
4.01694e-05
0.00337453
6.78243e-05
0.00370627
0.000100302
0.00403354
0.00013761
0.00435489
0.000179711
0.00466896
0.000226525
0.00497443
0.000277943
0.00527005
0.000333826
0.00555463
0.000394008
0.00582708
0.000458304
0.00608643
0.000526517
0.00633179
0.000598436
0.00656239
0.000673843
0.0067776
0.000752513
0.0069769
0.000834219
0.00715989
0.000918728
0.00732631
0.00100581
0.00747599
0.00109521
0.00760889
0.00118671
0.00772505
0.00128005
0.00782459
0.00137495
0.00790771
0.00147113
0.00797467
0.00156825
0.0080258
0.00166592
0.00806146
0.0017637
0.008082
0.001861
0.00808893
0.00808437
0.0019571
-2.21068e-06
-4.28079e-05
-7.47403e-06
-1.52254e-05
-1.48171e-05
0.000107336
-2.32082e-05
0.000295015
-3.16763e-05
0.000528442
-3.93419e-05
0.000794651
-4.54223e-05
0.00108424
-4.92265e-05
0.00139031
-5.01602e-05
0.0017077
-4.77157e-05
0.00203255
-4.14713e-05
0.0023619
-3.10808e-05
0.00269338
-1.62723e-05
0.00302502
3.15373e-06
0.00335511
2.73333e-05
0.00368209
5.63457e-05
0.00400453
9.02163e-05
0.00432102
0.000128923
0.00463026
0.000172405
0.00493095
0.000220567
0.00522189
0.000273283
0.00550191
0.000330402
0.00576996
0.000391753
0.00602508
0.000457151
0.00626639
0.000526397
0.00649315
0.000599281
0.00670472
0.000675587
0.00690059
0.000755091
0.00708039
0.000837563
0.00724384
0.000922765
0.00739079
0.00101046
0.0075212
0.00110038
0.00763513
0.00119226
0.0077327
0.00128581
0.00781416
0.00138069
0.00787979
0.00147653
0.00792996
0.00157287
0.00796511
0.00166921
0.00798566
0.00176491
0.00799323
0.00799012
0.00185916
-2.71026e-06
-4.00978e-05
-9.18951e-06
-8.74619e-06
-1.82474e-05
0.000116394
-2.87069e-05
0.000305474
-3.9502e-05
0.000539237
-4.96872e-05
0.000804836
-5.84375e-05
0.00109299
-6.50316e-05
0.0013969
-6.88519e-05
0.00171152
-6.93726e-05
0.00203307
-6.61538e-05
0.00235868
-5.88325e-05
0.00268606
-4.71222e-05
0.00301331
-3.08068e-05
0.00333879
-9.73374e-06
0.00366102
1.61918e-05
0.0039786
4.70105e-05
0.0042902
8.27169e-05
0.00459455
0.000123265
0.0048904
0.000168572
0.00517658
0.000218526
0.00545196
0.000272988
0.0057155
0.000331802
0.00596627
0.000394792
0.0062034
0.000461769
0.00642617
0.000532533
0.00663396
0.000606875
0.00682625
0.000684577
0.00700269
0.00076541
0.007163
0.000849137
0.00730706
0.000935508
0.00743483
0.00102426
0.00754638
0.00111509
0.00764187
0.00120769
0.00772156
0.00130169
0.00778579
0.00139666
0.00783499
0.0014921
0.00786967
0.00158743
0.00789032
0.00168195
0.00789872
0.00789729
0.00177478
-3.18781e-06
-3.691e-05
-1.08168e-05
-1.11729e-06
-2.14829e-05
0.00012706
-3.38659e-05
0.000317857
-4.6807e-05
0.000552177
-5.9299e-05
0.000817327
-7.04771e-05
0.00110417
-7.95909e-05
0.00140601
-8.60015e-05
0.00171793
-8.91688e-05
0.00203624
-8.86371e-05
0.00235815
-8.40282e-05
0.00268145
-7.50424e-05
0.00300433
-6.14505e-05
0.0033252
-4.30853e-05
0.00364265
-1.98364e-05
0.00395535
8.35092e-06
0.00426202
4.14849e-05
0.00456142
7.95324e-05
0.00485236
0.000122425
0.00513369
0.000170061
0.00540432
0.000222314
0.00566325
0.000279038
0.00590954
0.000340071
0.00614237
0.000405231
0.00636101
0.000474328
0.00656486
0.00054716
0.00675342
0.000623514
0.00692633
0.000703165
0.00708335
0.000785876
0.00722435
0.000871394
0.00734931
0.000959443
0.00745833
0.00104972
0.00755159
0.00114187
0.00762941
0.00123549
0.00769217
0.00133012
0.00774036
0.00142521
0.00777458
0.0015201
0.00779543
0.00161402
0.0078048
0.0078053
0.00170601
-3.64129e-06
-3.32687e-05
-1.23477e-05
7.58906e-06
-2.45049e-05
0.000139217
-3.86548e-05
0.000332007
-5.3549e-05
0.000567071
-6.812e-05
0.000831898
-8.14643e-05
0.00111751
-9.28073e-05
0.00141736
-0.000101493
0.00172661
-0.000106965
0.00204171
-0.000108755
0.00235994
-0.000106475
0.00267917
-9.98143e-05
0.00299766
-8.85293e-05
0.00331392
-7.24399e-05
0.00362657
-5.14247e-05
0.00393434
-2.54158e-05
0.00423601
5.6092e-06
0.00453039
4.16292e-05
0.00481634
8.2585e-05
0.00509273
0.000128387
0.00535852
0.00017892
0.00561271
0.000234051
0.00585441
0.000293623
0.0060828
0.000357466
0.00629717
0.000425399
0.00649692
0.000497227
0.00668159
0.000572745
0.00685082
0.000651731
0.00700437
0.000733952
0.00714213
0.000819153
0.00726411
0.000907053
0.00737043
0.000997332
0.00746131
0.00108962
0.00753712
0.0011835
0.00759829
0.00127844
0.00764542
0.00137385
0.00767917
0.00146902
0.00770027
0.00156308
0.00771074
0.00771339
0.00165498
-4.06668e-06
-2.9202e-05
-1.37729e-05
1.72952e-05
-2.72983e-05
0.000152742
-4.30491e-05
0.000347758
-5.96897e-05
0.000583712
-7.60975e-05
0.000848306
-9.13327e-05
0.00113275
-0.000104598
0.00143062
-0.00011522
0.00173723
-0.000122634
0.00204912
-0.000126359
0.00236366
-0.000125999
0.00267881
-0.000121233
0.0029929
-0.000111808
0.00330449
-9.75344e-05
0.00361229
-7.82771e-05
0.00391508
-5.39565e-05
0.00421169
-2.45403e-05
0.00450098
9.9606e-06
0.00478184
4.94984e-05
0.00505319
9.39937e-05
0.00531402
0.000143342
0.00556336
0.000197418
0.00580033
0.000256075
0.00602414
0.000319153
0.00623409
0.000386478
0.0064296
0.000457866
0.0066102
0.000533116
0.00677557
0.000612016
0.00692547
0.000694339
0.00705981
0.000779832
0.00717862
0.000868212
0.00728205
0.000959152
0.00737037
0.00105227
0.007444
0.00114711
0.00750345
0.00124314
0.00754939
0.00133969
0.00758262
0.00143598
0.00760397
0.00153109
0.00761564
0.00762063
0.00162385
-4.46203e-06
-2.474e-05
-1.50866e-05
2.79197e-05
-2.98496e-05
0.000167505
-4.70263e-05
0.000364935
-6.51985e-05
0.000601884
-8.31899e-05
0.000866297
-0.000100025
0.00114958
-0.000114888
0.00144548
-0.000127094
0.00174944
-0.000136065
0.00205809
-0.000141314
0.00236891
-0.00014244
0.00267994
-0.000139115
0.00298957
-0.000131076
0.00329645
-0.000118124
0.00359934
-0.000100115
0.00389707
-7.69598e-05
0.00418853
-4.86157e-05
0.00447263
-1.50842e-05
0.0047483
2.35957e-05
0.00501451
6.73549e-05
0.00527026
0.000116098
0.00551462
0.000169707
0.00574673
0.000228045
0.0059658
0.000290961
0.00617117
0.000358291
0.00636227
0.000429857
0.00653864
0.00050547
0.00669995
0.00058493
0.00684601
0.000668014
0.00697672
0.000754479
0.00709215
0.000844046
0.00719248
0.000936387
0.00727803
0.00103111
0.00734927
0.00112776
0.00740681
0.00122574
0.00745141
0.00132438
0.00748399
0.00142281
0.00750553
0.00152003
0.00751842
0.0075259
0.00161476
-4.82545e-06
-1.99145e-05
-1.62829e-05
3.9377e-05
-3.21484e-05
0.00018337
-5.05706e-05
0.000383357
-7.0051e-05
0.000621364
-8.93625e-05
0.000885609
-0.000107498
0.00116772
-0.000123622
0.00146161
-0.000137039
0.00176286
-0.000147165
0.00206822
-0.000153509
0.00237526
-0.000155665
0.00268209
-0.000153299
0.00298721
-0.000146143
0.0032893
-0.000133989
0.00358719
-0.000116687
0.00387977
-9.41384e-05
0.00416598
-6.62923e-05
0.00444479
-3.31422e-05
0.00471515
5.28215e-06
0.00497609
4.89204e-05
0.00522663
9.76849e-05
0.00546586
0.000151464
0.00569295
0.000210131
0.00590713
0.000273543
0.00610776
0.000341545
0.00629427
0.00041397
0.00646621
0.000490641
0.00662328
0.000571368
0.00676528
0.000655943
0.00689215
0.000744133
0.00700396
0.00083567
0.00710094
0.000930235
0.00718347
0.00102744
0.00725207
0.00112681
0.00730744
0.00122776
0.00735046
0.00132954
0.0073822
0.00143127
0.00740381
0.00153183
0.00741786
0.00742791
0.00162982
-5.15608e-06
-1.47585e-05
-1.73582e-05
5.15789e-05
-3.41875e-05
0.000200199
-5.36706e-05
0.00040284
-7.42309e-05
0.000641925
-9.45924e-05
0.00090597
-0.000113717
0.00118684
-0.000130754
0.00147865
-0.000145
0.0017771
-0.000155864
0.00207908
-0.000162854
0.00238225
-0.000165562
0.0026848
-0.000163651
0.0029853
-0.000156848
0.00328249
-0.000144941
0.00357528
-0.000127772
0.0038626
-0.000105237
0.00414345
-7.72783e-05
0.00441683
-4.38812e-05
0.00468176
-5.0674e-06
0.00493727
3.91098e-05
0.00518245
8.85691e-05
0.0054164
0.000143207
0.00563831
0.000202904
0.00584744
0.000267527
0.00604314
0.000336929
0.00622486
0.000410954
0.00639219
0.00048944
0.0065448
0.000572209
0.00668251
0.000659072
0.00680528
0.000749812
0.00691322
0.000844178
0.00700658
0.000941868
0.00708578
0.00104251
0.00715143
0.00114563
0.00720432
0.00125063
0.00724546
0.00135675
0.00727607
0.00146305
0.00729751
0.00156831
0.00731259
0.00732522
0.001671
-5.45353e-06
-9.30502e-06
-1.83107e-05
6.44358e-05
-3.59635e-05
0.000217852
-5.6321e-05
0.000423197
-7.77299e-05
0.000663333
-9.88668e-05
0.000927107
-0.000118665
0.00120664
-0.00013626
0.00149624
-0.000150939
0.00179178
-0.000162111
0.00209025
-0.000169283
0.00238942
-0.000172048
0.00268757
-0.000170066
0.00298332
-0.000163063
0.00327549
-0.000150823
0.00356304
-0.000133185
0.00384496
-0.000110038
0.0041203
-8.13191e-05
0.00438811
-4.70073e-05
0.00464744
-7.11727e-06
0.00489738
3.83037e-05
0.00513703
8.91806e-05
0.00536552
0.000145416
0.00558207
0.000206899
0.00578595
0.000273503
0.00597653
0.000345093
0.00615328
0.000421523
0.00631576
0.000502644
0.00646367
0.000588299
0.00659686
0.000678314
0.00671527
0.000772498
0.00681904
0.000870623
0.00690845
0.000972411
0.00698399
0.00107752
0.00704632
0.00118548
0.00709635
0.00129572
0.00713522
0.00140747
0.00716433
0.00151971
0.00718527
0.00163118
0.00720113
0.00721624
0.00174015
-5.71803e-06
-3.58705e-06
-1.91404e-05
7.7858e-05
-3.74764e-05
0.000236188
-5.85219e-05
0.000444243
-8.05476e-05
0.000685359
-0.000102184
0.000948743
-0.000122337
0.00122679
-0.000140129
0.00151403
-0.000154841
0.00180649
-0.000165881
0.00210129
-0.000172759
0.0023963
-0.000175069
0.00268988
-0.000172473
0.00298072
-0.000164696
0.00326771
-0.000151519
0.00354986
-0.00013278
0.00382622
-0.000108365
0.00409589
-7.82049e-05
0.00435795
-4.22734e-05
0.00461151
-5.79673e-07
0.00485569
4.6834e-05
0.00508961
9.98981e-05
0.00531246
0.000158522
0.00552345
0.0002226
0.00572188
0.000292015
0.00590712
0.000366638
0.00607865
0.00044634
0.00623606
0.000530983
0.00637903
0.000620429
0.00650741
0.000714529
0.00662117
0.000813117
0.00672045
0.000915996
0.00680558
0.00102292
0.00687706
0.00113359
0.00693566
0.00124757
0.00698237
0.0013643
0.00701849
0.00148301
0.00704562
0.00160268
0.0070656
0.00172192
0.00708189
0.00709929
0.00183887
-5.95027e-06
2.36316e-06
-1.98489e-05
9.17563e-05
-3.87302e-05
0.000255069
-6.02793e-05
0.000465792
-8.26921e-05
0.000707772
-0.000104553
0.000970605
-0.000124743
0.00124698
-0.00014237
0.00153166
-0.00015671
0.00182083
-0.000167174
0.00211176
-0.000173275
0.0024024
-0.000174608
0.00269121
-0.000170839
0.00297695
-0.000161695
0.00325857
-0.000146957
0.00353512
-0.000126462
0.00380573
-0.000100093
0.00406952
-6.77791e-05
0.00432563
-2.94879e-05
0.00457322
1.47755e-05
0.00481143
6.4973e-05
0.00503942
0.00012104
0.00525639
0.000182891
0.0054616
0.000250427
0.00565434
0.000323536
0.00583401
0.0004021
0.00600009
0.000485999
0.00615216
0.000575115
0.00628992
0.000669324
0.0064132
0.000768504
0.00652199
0.000872517
0.00661644
0.000981205
0.00669689
0.00109437
0.0067639
0.00121174
0.00681829
0.00133295
0.00686116
0.00145746
0.00689397
0.00158454
0.00691854
0.00171313
0.00693701
0.0018418
0.00695323
0.00697261
0.00196848
-6.15134e-06
8.51442e-06
-2.04395e-05
0.000106044
-3.97319e-05
0.000274362
-6.16048e-05
0.000487665
-8.41796e-05
0.000730347
-0.000105996
0.000992421
-0.000125907
0.0012669
-0.00014301
0.00154876
-0.000156575
0.0018344
-0.000166017
0.0021212
-0.000170851
0.00240723
-0.000170678
0.00269104
-0.000165168
0.00297144
-0.000154051
0.00324745
-0.000137112
0.00351818
-0.000114185
0.0037828
-8.51543e-05
0.00404049
-4.99455e-05
0.00429043
-8.52356e-06
0.0045318
3.91101e-05
0.00476379
9.29209e-05
0.0049856
0.000152848
0.00519646
0.000218812
0.00539563
0.000290717
0.00558244
0.000368457
0.00575627
0.000451924
0.00591662
0.000541008
0.00606307
0.000635602
0.00619532
0.000735607
0.0063132
0.000840919
0.00641668
0.000951436
0.00650592
0.00106704
0.00658129
0.00118758
0.00664336
0.00131284
0.00669303
0.00144251
0.00673149
0.00157613
0.00676035
0.00171299
0.00678168
0.00185204
0.00679796
0.00199177
0.00681349
0.00683442
0.00212996
-6.32265e-06
1.4837e-05
-2.09174e-05
0.000120639
-4.04921e-05
0.000293936
-6.25152e-05
0.000509688
-8.50342e-05
0.000752866
-0.000106543
0.00101393
-0.000125869
0.00128622
-0.000142093
0.00156498
-0.000154486
0.00184679
-0.000162461
0.00212917
-0.000165541
0.00241031
-0.000163332
0.00268883
-0.000155508
0.00296362
-0.000141805
0.00323375
-0.000122011
0.00349839
-9.5962e-05
0.00375675
-6.35425e-05
0.00400807
-2.46765e-05
0.00425156
2.06729e-05
0.00448645
7.25067e-05
0.00471196
0.000130794
0.00492732
0.000195476
0.00513178
0.000266478
0.00532463
0.000343708
0.00550521
0.000427065
0.00567291
0.000516446
0.00582724
0.000611752
0.00596777
0.000712889
0.00609418
0.000819772
0.00620631
0.000932324
0.00630412
0.00105047
0.00638777
0.00117414
0.00645762
0.00130323
0.00651428
0.00143759
0.00655867
0.00157698
0.0065921
0.00172101
0.00661632
0.00186903
0.00663365
0.00202003
0.00664696
0.00217246
0.00666107
0.00668296
0.00232392
-6.46587e-06
2.13027e-05
-2.1289e-05
0.000135462
-4.10241e-05
0.000313671
-6.30321e-05
0.000531696
-8.52871e-05
0.000775121
-0.000106236
0.00103488
-0.000124679
0.00130466
-0.000139682
0.00157999
-0.000150513
0.00185762
-0.000156587
0.00213525
-0.000157431
0.00241116
-0.000152657
0.00268405
-0.000141948
0.00295291
-0.000125043
0.00321684
-0.000101736
0.00347508
-7.18673e-05
0.00372688
-3.53203e-05
0.00397152
7.98033e-06
0.00420826
5.80725e-05
0.00443636
0.000114959
0.00465507
0.00017861
0.00486367
0.000248972
0.00506142
0.000325971
0.00524763
0.000409517
0.00542166
0.000499515
0.00558292
0.000595866
0.00573089
0.000698476
0.00586516
0.000807263
0.0059854
0.000922154
0.00609142
0.00104309
0.00618319
0.00117004
0.00626083
0.00130295
0.00632471
0.00144178
0.00637545
0.00158645
0.006414
0.0017368
0.00644175
0.00189252
0.0064606
0.00205306
0.00647312
0.00221744
0.00648258
0.00238411
0.0064944
0.00651656
0.0025505
-6.58291e-06
2.78856e-05
-2.15622e-05
0.000150441
-4.1344e-05
0.000333453
-6.31817e-05
0.000553533
-8.49759e-05
0.000796915
-0.000105126
0.00105503
-0.000122401
0.00132194
-0.000135854
0.00159344
-0.000144747
0.00186652
-0.000148497
0.002139
-0.000146634
0.00240929
-0.000138778
0.0026762
-0.000124619
0.00293875
-0.000103903
0.00319613
-7.64283e-05
0.00344761
-4.204e-05
0.0036925
-6.23428e-07
0.0039301
4.78961e-05
0.00415974
0.000103556
0.0043807
0.000166361
0.00459227
0.000236282
0.00479375
0.000313267
0.00498443
0.000397243
0.00516365
0.000488124
0.00533078
0.000585814
0.00548523
0.000690218
0.00562648
0.000801248
0.00575413
0.000918824
0.00586782
0.00104288
0.00596736
0.00117339
0.00605268
0.00131032
0.0061239
0.00145367
0.00618136
0.00160344
0.00622567
0.00175962
0.00625782
0.00192214
0.00627923
0.00209078
0.00629196
0.00226509
0.0062988
0.00244419
0.00630348
0.00262652
0.00631207
0.00633368
0.0028094
-6.67597e-06
3.45615e-05
-2.17461e-05
0.000165511
-4.14696e-05
0.000353177
-6.29931e-05
0.000575057
-8.41434e-05
0.000818065
-0.000103269
0.00107415
-0.00011911
0.00133778
-0.000130701
0.00160503
-0.000137298
0.00187311
-0.000138317
0.00214002
-0.000133294
0.00240427
-0.000121855
0.00266476
-0.000103696
0.00292059
-7.85702e-05
0.003171
-4.62838e-05
0.00341532
-6.68494e-06
0.0036529
4.03375e-05
0.00388308
9.48568e-05
0.00410522
0.00015691
0.00431864
0.0002265
0.00452268
0.0003036
0.00471664
0.000388158
0.00489987
0.000480102
0.00507171
0.000579346
0.00523153
0.000685795
0.00537878
0.000799353
0.00551293
0.000919931
0.00563355
0.00104745
0.0057403
0.00118186
0.00583295
0.00132312
0.00591142
0.00147123
0.00597579
0.00162622
0.00602637
0.00178812
0.00606377
0.00195699
0.00608895
0.00213283
0.00610339
0.00231554
0.00610925
0.00250478
0.00610956
0.00269977
0.00610849
0.00289902
0.00611282
0.00613295
0.00309975
-6.74765e-06
4.13091e-05
-2.18501e-05
0.000180613
-4.14202e-05
0.000372747
-6.24981e-05
0.000596134
-8.28358e-05
0.000838403
-0.000100729
0.00109205
-0.000114886
0.00135194
-0.000124323
0.00161447
-0.000128287
0.00187708
-0.000126193
0.00213792
-0.000117579
0.00239566
-0.000102077
0.00264926
-7.93894e-05
0.0028979
-4.92782e-05
0.00314089
-1.15542e-05
0.0033776
3.39282e-05
0.00360742
8.72767e-05
0.00382973
0.000148562
0.00404393
0.000217819
0.00424939
0.000295051
0.00444545
0.00038023
0.00463147
0.000473304
0.0048068
0.0005742
0.00497081
0.000682831
0.0051229
0.000799099
0.00526251
0.000922907
0.00538912
0.00105416
0.0055023
0.00119278
0.00560168
0.0013387
0.00568703
0.0014919
0.00575822
0.00165238
0.00581531
0.00182018
0.00585858
0.00199537
0.00588858
0.00217804
0.00590627
0.00236829
0.00591314
0.00256612
0.00591142
0.00277131
0.00590437
0.00298323
0.00589657
0.00320047
0.00589559
0.00591324
0.00342019
-6.8009e-06
4.81099e-05
-2.1884e-05
0.000195696
-4.12158e-05
0.000392078
-6.17296e-05
0.000616648
-8.11015e-05
0.000857775
-9.7573e-05
0.00110852
-0.000109818
0.00136418
-0.000116831
0.00162148
-0.00011785
0.0018781
-0.000112286
0.00213236
-9.96771e-05
0.00238305
-7.96601e-05
0.00262924
-5.19449e-05
0.00287019
-1.62996e-05
0.00310525
2.74583e-05
0.00333384
7.94693e-05
0.0035554
0.000139837
0.00376937
0.000208627
0.00397514
0.000285875
0.00417214
0.000371579
0.00435974
0.000465711
0.00453733
0.000568219
0.00470429
0.000679026
0.00486001
0.000798043
0.00500389
0.000925167
0.00513538
0.00106029
0.00525399
0.00120332
0.00535927
0.00135416
0.00545084
0.00151274
0.00552844
0.00167903
0.00559193
0.00185302
0.00564132
0.00203475
0.00567684
0.00222432
0.00569901
0.00242186
0.00570873
0.00262752
0.00570749
0.0028414
0.00569755
0.00306342
0.00568235
0.00329309
0.00566689
0.00352915
0.00565953
0.00567364
0.00376874
-6.83887e-06
5.49488e-05
-2.18576e-05
0.000210714
-4.08761e-05
0.000411097
-6.07204e-05
0.000636492
-7.89887e-05
0.000876043
-9.38668e-05
0.0011234
-0.000103993
0.00137431
-0.000108338
0.00162583
-0.000106127
0.00187589
-9.6764e-05
0.002123
-7.97889e-05
0.00236607
-5.484e-05
0.00260429
-2.1633e-05
0.00283698
2.00578e-05
0.00306356
7.04088e-05
0.00328349
0.000129555
0.00349626
0.000197594
0.00370133
0.00027459
0.00389815
0.000360573
0.00408616
0.000455539
0.00426478
0.000559458
0.00443341
0.000672274
0.00459148
0.000793908
0.00473837
0.000924263
0.00487353
0.00106323
0.00499642
0.00121069
0.00510653
0.00136654
0.00520342
0.00153067
0.00528672
0.00170299
0.00535613
0.00188344
0.00541148
0.00207202
0.00545275
0.00226874
0.00548011
0.00247371
0.00549404
0.00268707
0.00549537
0.00290902
0.00548554
0.00313974
0.00546683
0.0033793
0.00544279
0.00362736
0.00541883
0.00388281
0.00540408
0.00541356
0.00414289
-6.8646e-06
6.18134e-05
-2.17803e-05
0.00022563
-4.04202e-05
0.000429737
-5.95015e-05
0.000655573
-7.65435e-05
0.000893085
-8.96754e-05
0.00113653
-9.74972e-05
0.00138213
-9.89555e-05
0.00162729
-9.32572e-05
0.00187019
-7.98006e-05
0.00210954
-5.81227e-05
0.00234439
-2.78631e-05
0.00257403
1.12588e-05
0.00279786
5.9463e-05
0.00301535
0.00011692
0.00322603
0.00018376
0.00342942
0.000260075
0.00362501
0.000345924
0.0038123
0.000441332
0.00399075
0.000546293
0.00415981
0.000660773
0.00431893
0.000784711
0.00446754
0.000918021
0.00460506
0.0010606
0.00473095
0.00121233
0.00484469
0.00137307
0.00494578
0.00154271
0.00503379
0.0017211
0.00510832
0.00190815
0.00516908
0.00210377
0.00521586
0.0023079
0.00524861
0.00252057
0.00526745
0.00274183
0.00527277
0.00297184
0.00526536
0.00321083
0.00524656
0.00345903
0.00521862
0.00371663
0.00518519
0.00398349
0.00515198
0.00425867
0.00512889
0.00513269
0.00453955
-6.8808e-06
6.86942e-05
-2.16603e-05
0.000240409
-3.98647e-05
0.000447941
-5.81005e-05
0.000673809
-7.38074e-05
0.000908792
-8.50579e-05
0.00114778
-9.04117e-05
0.00138748
-8.87884e-05
0.00162566
-7.93762e-05
0.00186078
-6.15637e-05
0.00209173
-3.48841e-05
0.00231772
1.02356e-06
0.00253812
4.64378e-05
0.00275244
0.000101574
0.00296022
0.000166598
0.00316101
0.000241633
0.00335438
0.000326767
0.00353988
0.000422054
0.00371701
0.000527512
0.00388529
0.000643131
0.00404419
0.000768871
0.00419319
0.000904664
0.00433174
0.00105042
0.00445931
0.00120602
0.00457536
0.00137133
0.00467938
0.0015462
0.00477091
0.00173048
0.0048495
0.00192402
0.00491478
0.00212667
0.00496642
0.00233832
0.00500422
0.00255886
0.00502807
0.00278827
0.00503804
0.00302659
0.00503446
0.00327393
0.00501801
0.00353052
0.00498997
0.00379666
0.00495249
0.00407263
0.00490922
0.00435845
0.00486616
0.00465344
0.00483391
0.00483101
0.00495512
-6.88962e-06
7.55838e-05
-2.15048e-05
0.000255025
-3.92232e-05
0.000465659
-5.65401e-05
0.000691126
-7.08155e-05
0.000923068
-8.00652e-05
0.00115703
-8.28066e-05
0.00139023
-7.79305e-05
0.00162079
-6.46058e-05
0.00184745
-4.22086e-05
0.00206933
-1.02662e-05
0.00228577
3.1584e-05
0.00249627
8.362e-05
0.00270041
0.000146054
0.00289778
0.000219047
0.00308802
0.000302717
0.00327071
0.000397147
0.00344545
0.000502382
0.00361178
0.000618437
0.00376924
0.000745294
0.00391734
0.000882906
0.00405558
0.0010312
0.00418345
0.00119006
0.00430044
0.00135937
0.00440605
0.00153897
0.00449978
0.0017287
0.00458118
0.00192837
0.00464983
0.00213779
0.00470536
0.00235678
0.00474743
0.00258517
0.00477583
0.00282281
0.00479042
0.00306962
0.00479123
0.00332557
0.00477851
0.00359075
0.00475284
0.00386534
0.00471537
0.00414967
0.00466816
0.00444409
0.0046148
0.00474882
0.00456143
0.00506339
0.00451933
0.00450881
0.00538559
-6.89266e-06
8.24765e-05
-2.13186e-05
0.00026945
-3.85055e-05
0.000482846
-5.4837e-05
0.000707457
-6.75942e-05
0.000935825
-7.47364e-05
0.00116417
-7.47375e-05
0.00139023
-6.64589e-05
0.00161251
-4.90488e-05
0.00183004
-2.18692e-05
0.00204215
1.55605e-05
0.00224834
6.3606e-05
0.00244823
0.000122546
0.00264147
0.000192589
0.00282774
0.000273894
0.00300671
0.000366574
0.00317803
0.000470703
0.00334132
0.000586322
0.00349616
0.000713436
0.00364212
0.00085202
0.00377875
0.00100202
0.00390558
0.00116334
0.00402213
0.00133587
0.00412791
0.00151946
0.00422245
0.00171394
0.0043053
0.00191912
0.00437601
0.00213477
0.00443418
0.00236067
0.00447946
0.00259658
0.00451152
0.00284228
0.00453013
0.00309755
0.00453515
0.00336223
0.00452655
0.00363622
0.00450451
0.00391954
0.00446953
0.00421231
0.00442259
0.00451486
0.00436561
0.0048276
0.00430206
0.0051509
0.00423814
0.00548457
0.00418567
0.00416668
0.00582669
-6.8908e-06
8.93672e-05
-2.11043e-05
0.000283664
-3.77162e-05
0.000499458
-5.30001e-05
0.000722741
-6.41589e-05
0.000946984
-6.90959e-05
0.00116911
-6.62418e-05
0.00138737
-5.44278e-05
0.0016007
-3.27811e-05
0.0018084
-6.48492e-07
0.00201002
4.24603e-05
0.00220523
9.6915e-05
0.00239377
0.000162995
0.00257539
0.00024091
0.00274982
0.000330812
0.00291681
0.000432809
0.00307604
0.00054697
0.00322716
0.000673327
0.0033698
0.000811876
0.00350357
0.000962582
0.00362805
0.00112538
0.00374279
0.00130016
0.00384735
0.00148679
0.00394128
0.00168512
0.00402413
0.00189493
0.00409549
0.00211601
0.00415493
0.00234809
0.0042021
0.00259091
0.00423663
0.00284418
0.00425826
0.00310758
0.00426673
0.00338084
0.00426189
0.0036637
0.0042437
0.00395596
0.00421225
0.00425753
0.00416795
0.00456848
0.00411164
0.00488907
0.00404503
0.00521974
0.00397138
0.005561
0.00389688
0.00591296
0.0038337
0.00380556
0.00627409
-6.88413e-06
9.62512e-05
-2.08617e-05
0.000297641
-3.68552e-05
0.000515451
-5.10301e-05
0.000736916
-6.05126e-05
0.000956466
-6.31511e-05
0.00117175
-5.73346e-05
0.00138156
-4.18641e-05
0.00158522
-1.58454e-05
0.00178238
2.13899e-05
0.00197278
7.03428e-05
0.00215628
0.000131388
0.00233273
0.000204807
0.00250197
0.000290807
0.00266382