/*--------------------------------*- C++ -*----------------------------------*\
  =========                 |
  \\      /  F ield         | OpenFOAM: The Open Source CFD Toolbox
   \\    /   O peration     | Website:  https://openfoam.org
    \\  /    A nd           | Version:  7
     \\/     M anipulation  |
\*---------------------------------------------------------------------------*/
FoamFile
{
    version     2.0;
    format      ascii;
    class       volScalarField;
    location    "31";
    object      p;
}
// * * * * * * * * * * * * * * * * * * * * * * * * * * * * * * * * * * * * * //

dimensions      [0 2 -2 0 0 0 0];

internalField   nonuniform List<scalar> 
2000
(
-0.00971372
-0.0092755
-0.00903888
-0.00882511
-0.00855068
-0.00814017
-0.00754985
-0.00676446
-0.00579667
-0.0046371
-0.00823859
-0.00772562
-0.00736359
-0.00701048
-0.00660883
-0.00609716
-0.00543866
-0.00462094
-0.00365696
-0.00255148
-0.00678474
-0.00620976
-0.00573083
-0.00524515
-0.00472296
-0.00411783
-0.00340036
-0.00256087
-0.00161164
-0.000573838
-0.00536715
-0.00474332
-0.00415788
-0.00354965
-0.00291713
-0.0022296
-0.00146512
-0.00061655
0.000305551
0.00126561
-0.00400035
-0.00334057
-0.00266051
-0.00194155
-0.00121111
-0.000454285
0.000343542
0.00118712
0.00206704
0.00293579
-0.00270107
-0.00201402
-0.00125111
-0.000433667
0.000381333
0.00119321
0.00200966
0.00283343
0.00365322
0.00440632
-0.00148709
-0.000774465
6.0726e-05
0.000964833
0.0018511
0.00270371
0.00352412
0.00431417
0.00505579
0.00565314
-0.000372546
0.000365624
0.00126682
0.0022463
0.0031909
0.00407072
0.00488179
0.0056277
0.00627919
0.00666537
0.000623991
0.00140293
0.00236092
0.00340333
0.00439308
0.00528753
0.00607843
0.00677428
0.00733327
0.00745589
0.00149004
0.00233619
0.00333875
0.00442856
0.00544844
0.00634623
0.00711263
0.00776626
0.00827656
0.00820681
-0.00132252
0.00553386
0.0116533
0.0185147
0.0239051
0.0289065
0.0319211
0.0357917
0.0361594
0.0391483
0.000492118
0.00646962
0.0120603
0.0182374
0.0231626
0.027784
0.0306169
0.0340724
0.0346206
0.0371601
0.00213878
0.00731545
0.0123701
0.0179281
0.0224488
0.026709
0.0293953
0.0324837
0.0331853
0.0353235
0.0036125
0.00804701
0.0125705
0.0176048
0.0217535
0.0257039
0.0282228
0.0310637
0.0317824
0.0336686
0.00491053
0.00865973
0.0126979
0.0172758
0.0210796
0.0247655
0.0271136
0.0297943
0.0304556
0.0322137
0.00602564
0.00914326
0.0127605
0.0169288
0.0204228
0.0238773
0.0260684
0.0286135
0.0291974
0.0309014
0.00695967
0.00953164
0.0128053
0.0165912
0.0197999
0.0230441
0.0250999
0.0275311
0.0280692
0.029746
0.00768379
0.00975169
0.0127594
0.01621
0.019179
0.0222411
0.0241647
0.0264656
0.0269771
0.0286678
0.00827529
0.00998803
0.012776
0.0158747
0.018612
0.0215043
0.0233198
0.0255224
0.0260467
0.0277309
0.008337
0.00975508
0.012459
0.015339
0.0179497
0.0207162
0.0224163
0.0244593
0.0250531
0.0267945
0.013199
0.0121801
0.0135025
0.0150501
0.0169973
0.0193233
0.021071
0.0229408
0.0238012
0.0250766
0.0108968
0.011486
0.0129604
0.0142416
0.0157142
0.0175111
0.0190788
0.0207275
0.0216019
0.0224626
0.00754044
0.00916494
0.0111997
0.0127548
0.0141646
0.0156703
0.0169509
0.0182363
0.0188813
0.0196196
0.00434673
0.00662121
0.0090597
0.0108524
0.0123446
0.0138246
0.0149498
0.0160999
0.0164617
0.0168566
0.00172641
0.00418012
0.00672221
0.0087058
0.0103376
0.0118441
0.0126135
0.0138445
0.0143531
0.0147407
-0.000114106
0.00211597
0.00445392
0.00644483
0.00810563
0.0096203
0.0102201
0.0113126
0.0117167
0.0121254
-0.0014875
0.000217066
0.00229845
0.00422944
0.00584149
0.0072014
0.00813916
0.00931318
0.00956571
0.00969656
-0.00216057
-0.00107585
0.000521768
0.00227514
0.00373052
0.00491075
0.00574625
0.00664861
0.00702274
0.00724009
-0.00221561
-0.00164758
-0.000521645
0.000865675
0.00197082
0.00285282
0.00348032
0.00409563
0.00423498
0.0042993
-0.00127944
-0.00119461
-0.000659369
5.47795e-05
0.000574119
0.000981421
0.00129239
0.00164222
0.00162171
0.00150103
0.0105996
0.00880006
0.00569024
0.0026081
0.000253229
-0.00132488
-0.0021762
-0.00240139
-0.0021667
-0.001045
0.010048
0.0078457
0.00454238
0.0014673
-0.000696897
-0.00202939
-0.00258363
-0.00257748
-0.00217039
-0.000995759
0.00944098
0.00669001
0.00327627
0.000276778
-0.00166745
-0.00273357
-0.00299631
-0.0027609
-0.00217098
-0.00096714
0.00856457
0.00541866
0.00200865
-0.000862153
-0.00256638
-0.00336892
-0.00335982
-0.00291259
-0.00215784
-0.000942442
0.00744317
0.00408828
0.000761198
-0.001948
-0.00339842
-0.0039408
-0.00367619
-0.00303602
-0.00213536
-0.000921445
0.00618094
0.0027823
-0.000401837
-0.00293568
-0.00413786
-0.0044389
-0.00394484
-0.0031343
-0.00210746
-0.000903949
0.00495263
0.00160337
-0.00140479
-0.00376971
-0.00474979
-0.00484495
-0.00415868
-0.00320601
-0.00207634
-0.000889507
0.00394441
0.000648532
-0.00218397
-0.00440588
-0.00520663
-0.00514385
-0.00431114
-0.00324983
-0.00204367
-0.000880399
0.003284
-1.41697e-05
-0.00269763
-0.00482032
-0.00549241
-0.00532732
-0.00439862
-0.0032654
-0.00200993
-0.000873323
0.00301138
-0.000361288
-0.00293595
-0.00500874
-0.00560568
-0.00539339
-0.00442164
-0.00325246
-0.00197668
-0.000837204
0.00308876
-0.000413311
-0.00292615
-0.00498086
-0.00556037
-0.00534783
-0.00438317
-0.00321163
-0.00193912
-0.000771509
0.00345496
-0.000215155
-0.00269886
-0.00477004
-0.00537616
-0.00520461
-0.0042883
-0.00314495
-0.00189674
-0.000707183
0.0040462
0.000183554
-0.00229652
-0.0044104
-0.00508086
-0.00498159
-0.00414727
-0.00305645
-0.00184943
-0.00065062
0.00479837
0.000732516
-0.00176592
-0.0039376
-0.0047042
-0.00469808
-0.00397056
-0.00294935
-0.00179589
-0.000600498
0.00565726
0.00139082
-0.00114967
-0.00338509
-0.00427307
-0.00437213
-0.00376755
-0.00282676
-0.00173525
-0.000555364
0.00657726
0.00212605
-0.000484158
-0.00278162
-0.00380876
-0.00401874
-0.00354567
-0.00269137
-0.0016671
-0.000514204
0.00751321
0.00291045
0.000202239
-0.00214941
-0.00332633
-0.00364951
-0.00331051
-0.00254538
-0.00159121
-0.000476133
0.00845697
0.00375222
0.00090925
-0.00149512
-0.00283267
-0.00327282
-0.00306785
-0.00239199
-0.00150825
-0.000440273
0.00947675
0.00473101
0.00167389
-0.000804719
-0.00232314
-0.0028897
-0.00281986
-0.00223429
-0.00141917
-0.00040517
0.0102438
0.00569382
0.00240662
-0.000124
-0.00179903
-0.0024881
-0.00254344
-0.00205687
-0.00131438
-0.000368117
0.00997527
0.00693808
0.00370393
0.00129513
-0.000503681
-0.0014424
-0.00176746
-0.00152945
-0.000998591
-0.000283377
0.0106081
0.00776327
0.00482466
0.00264989
0.000906494
-0.000126401
-0.000669461
-0.000698202
-0.000443044
-4.04212e-05
0.0123267
0.00936877
0.00637703
0.00417157
0.00231333
0.00111878
0.000362245
0.000118485
0.000149957
0.000255744
0.0144449
0.0112338
0.00810064
0.00574901
0.00369894
0.00230118
0.00133083
0.000922241
0.000794103
0.000624005
0.0169019
0.0133128
0.00993367
0.0073375
0.00503807
0.00341217
0.00224195
0.00172137
0.00149582
0.00106512
0.0196308
0.0155752
0.0118396
0.00890315
0.00632306
0.00445649
0.00311539
0.00253277
0.00225411
0.00156361
0.0225331
0.0179005
0.0137257
0.0104142
0.00756763
0.00546589
0.00399283
0.00335393
0.00301417
0.00204422
0.0251663
0.0198274
0.0154805
0.0118787
0.00878872
0.00646846
0.00489028
0.00412653
0.00356594
0.00221952
0.0278336
0.0226965
0.0175995
0.0132981
0.00985527
0.00736046
0.0056695
0.00462226
0.0036242
0.00193214
0.0303115
0.0230378
0.0176929
0.0135494
0.010308
0.00789637
0.00615696
0.00484009
0.00346516
0.00157201
0.0121537
0.0129657
0.0146937
0.016861
0.019554
0.0225482
0.0257156
0.0294692
0.0307868
0.0361396
0.01281
0.0140152
0.0159389
0.0182724
0.0211655
0.0243359
0.0277115
0.0314897
0.0330293
0.0375187
0.0132142
0.014901
0.0172047
0.0199259
0.0231789
0.0266631
0.0303434
0.0340287
0.0361576
0.0383873
0.0136643
0.0156743
0.0182868
0.0213907
0.0249966
0.0288044
0.0327735
0.0365568
0.0391409
0.0400961
0.0142048
0.0165254
0.0193855
0.0227941
0.0266758
0.0307423
0.0349393
0.0389208
0.0418387
0.0426692
0.0147711
0.0174771
0.0206249
0.0243171
0.0284304
0.032705
0.0370798
0.0412504
0.0444411
0.0456866
0.0153434
0.0184859
0.0219905
0.0259967
0.030353
0.0348374
0.0393846
0.0437173
0.0471359
0.0488299
0.0159408
0.0195387
0.0234434
0.0277937
0.0324248
0.0371522
0.0419028
0.0464017
0.0500122
0.0519992
0.0165816
0.0206448
0.0249718
0.0296765
0.0346061
0.0396091
0.0446027
0.0492968
0.053083
0.0552259
0.0172749
0.0218087
0.0265766
0.0316345
0.0368766
0.0421746
0.0474412
0.0523616
0.0563295
0.0585673
0.0180274
0.0230223
0.0282544
0.0336616
0.0392298
0.044835
0.0503964
0.0555671
0.0597354
0.0620601
0.018837
0.0242594
0.0299886
0.0357402
0.0416556
0.047581
0.0534579
0.0588985
0.0632912
0.0657124
0.0196774
0.0254828
0.0317487
0.0378436
0.0441382
0.0504094
0.0566326
0.0623702
0.0670002
0.0695266
0.0205018
0.0266664
0.0334926
0.039947
0.0466574
0.0533097
0.0599091
0.065999
0.070863
0.0735034
0.0212518
0.0277963
0.0351779
0.0420356
0.0492101
0.0563048
0.0633003
0.0697587
0.0748801
0.0776455
0.0218559
0.0288646
0.0367384
0.0441528
0.0517636
0.0593178
0.0667488
0.0736057
0.0790318
0.0819442
0.0222502
0.0298393
0.0382818
0.0462005
0.0542793
0.0623336
0.0702592
0.0775612
0.0833327
0.0864171
0.0223055
0.03078
0.0396279
0.0480629
0.0566533
0.0652483
0.0737276
0.0815493
0.0877412
0.0910492
0.0221128
0.0316277
0.0408265
0.0498256
0.0589688
0.0681488
0.0772319
0.085626
0.0922878
0.0958792
0.0212795
0.0318719
0.0414602
0.0510245
0.0607296
0.0705367
0.0803287
0.08948
0.0968262
0.10086
0.0218495
0.0346852
0.0451304
0.0558125
0.0666967
0.077832
0.0890968
0.0997928
0.108524
0.113543
0.0326724
0.0449233
0.055763
0.0680122
0.0806926
0.0940437
0.107762
0.120911
0.131711
0.137796
0.0446762
0.0572366
0.0691444
0.0831993
0.0978363
0.113783
0.13026
0.146078
0.159035
0.166388
0.0565604
0.0700571
0.0839296
0.100206
0.117374
0.136556
0.156212
0.175015
0.190267
0.19877
0.0684309
0.0833861
0.0996932
0.118475
0.138824
0.161865
0.185114
0.207225
0.22483
0.234778
0.0807769
0.0975362
0.116423
0.138004
0.162195
0.18958
0.216733
0.242398
0.26222
0.272927
0.0932244
0.112016
0.133465
0.158348
0.186899
0.218608
0.249781
0.279037
0.300486
0.312683
0.105723
0.12643
0.15066
0.179297
0.212166
0.247741
0.283188
0.316001
0.338353
0.34904
0.115596
0.138093
0.164928
0.196623
0.232613
0.271229
0.310684
0.346424
0.37021
0.381953
0.122858
0.146499
0.175252
0.208816
0.246739
0.287871
0.330777
0.370637
0.398934
0.395463
0.0163335
0.0260981
0.0369542
0.0484447
0.0595842
0.0713978
0.0825588
0.0944339
0.103567
0.11084
0.0147536
0.0249272
0.0355489
0.0468163
0.0576345
0.0691688
0.0798237
0.0913582
0.099981
0.106997
0.0138649
0.0248892
0.0355847
0.0467558
0.0573657
0.0686292
0.0789407
0.0899907
0.09788
0.104338
0.0125668
0.0240285
0.0348213
0.0460003
0.0565038
0.067579
0.0776622
0.0883038
0.0956172
0.101556
0.0110299
0.0225969
0.0334708
0.0445894
0.0549672
0.0658338
0.0756786
0.0859572
0.0928717
0.0984321
0.00939807
0.0209985
0.0320847
0.0430837
0.0533151
0.0639274
0.0734899
0.0833892
0.0899791
0.095263
0.00767499
0.0194068
0.0306879
0.0417005
0.0518415
0.0622202
0.0715169
0.0810551
0.0873378
0.0923961
0.0058727
0.0177928
0.0292753
0.0403894
0.0505619
0.0607751
0.0698868
0.0791461
0.0851588
0.0900156
0.00403123
0.0161534
0.0278911
0.0391255
0.0494107
0.059541
0.0685817
0.077632
0.0834823
0.0881395
0.00219616
0.0145286
0.0265742
0.0379685
0.0483746
0.0584893
0.0675639
0.076412
0.0822737
0.0867041
0.000412169
0.012956
0.0253558
0.0369598
0.0474897
0.0576483
0.0667796
0.0755095
0.0814462
0.0856638
-0.00130623
0.0114203
0.0242307
0.0360953
0.0467801
0.0570332
0.0662334
0.0749347
0.0809456
0.0850187
-0.00296987
0.00988878
0.0231745
0.0353512
0.0462478
0.0566489
0.0659493
0.0746921
0.0807772
0.0847719
-0.0045732
0.00836747
0.0221832
0.0347134
0.0458846
0.0564894
0.0659296
0.074771
0.0809488
0.0849181
-0.00611408
0.00688846
0.0212709
0.0341831
0.0456919
0.0565555
0.0661821
0.0751816
0.0814762
0.0854489
-0.00761651
0.00547179
0.0204197
0.0337325
0.0456478
0.0568142
0.0666757
0.0758929
0.082337
0.0863533
-0.00912213
0.0041682
0.0196401
0.0333744
0.0457651
0.057277
0.0674393
0.076927
0.0835439
0.0876237
-0.0107232
0.00291701
0.0187854
0.0330002
0.0459363
0.0578366
0.0683719
0.0781903
0.0850411
0.0892534
-0.0123634
0.00193723
0.0180222
0.032748
0.0462452
0.0585761
0.069558
0.0797426
0.086866
0.0912401
-0.0145939
0.000398355
0.0165605
0.0319827
0.0461342
0.0589871
0.0705413
0.081257
0.0888618
0.0935793
-0.0149284
0.00137143
0.0164356
0.0324676
0.0477544
0.0618101
0.0746897
0.0863984
0.0950242
0.100228
-0.00328072
0.0106558
0.0244219
0.04141
0.0576725
0.0733356
0.0882653
0.101883
0.112117
0.117887
0.0101941
0.0232396
0.0372046
0.0549627
0.0721847
0.090127
0.107565
0.123721
0.136007
0.142622
0.0237299
0.0369698
0.0521286
0.0707845
0.0901506
0.11147
0.132327
0.152097
0.167217
0.175173
0.0367422
0.0509423
0.0678283
0.0883065
0.111159
0.13678
0.162423
0.187465
0.206679
0.2166
0.0487828
0.0644804
0.0835986
0.106996
0.134288
0.16521
0.197429
0.229796
0.255349
0.269127
0.0583988
0.0762266
0.0980404
0.124975
0.157177
0.194507
0.235009
0.276641
0.311847
0.333931
0.0674774
0.0870655
0.111413
0.141775
0.178828
0.223158
0.273063
0.325875
0.37548
0.415081
0.0723457
0.0936936
0.120461
0.154054
0.195826
0.246737
0.30622
0.372308
0.442565
0.513011
0.0781335
0.102029
0.130872
0.16719
0.21291
0.269223
0.33726
0.41884
0.517194
0.632058
-0.0163275
-0.00624923
0.00489205
0.0173043
0.0292862
0.0407642
0.0492771
0.0577529
0.0619035
0.0653932
-0.0164569
-0.00563412
0.00502799
0.0169397
0.0282434
0.0390523
0.0468092
0.05477
0.0586428
0.0622092
-0.0156083
-0.00379113
0.0070511
0.0187354
0.0292877
0.0390156
0.0457641
0.052829
0.056345
0.0608527
-0.0144526
-0.00255404
0.00819195
0.0196193
0.0295961
0.0384792
0.044455
0.0507358
0.0538049
0.0588263
-0.0129672
-0.00154064
0.00860926
0.0195105
0.0288865
0.0371258
0.0425832
0.0482919
0.0508446
0.0557542
-0.0112082
-0.000376155
0.00901256
0.0191775
0.0278361
0.0354492
0.0404832
0.0457462
0.0477675
0.0522144
-0.00928854
0.000889987
0.00958437
0.0190011
0.0268998
0.0338646
0.0384678
0.0433506
0.0448774
0.0488298
-0.00728897
0.0021424
0.0102002
0.0189408
0.026125
0.032478
0.0366331
0.0412035
0.0422957
0.0458913
-0.00526414
0.00334057
0.0107557
0.0188685
0.0254038
0.0312291
0.0349486
0.0392799
0.0400075
0.0433946
-0.00326266
0.00447556
0.0112325
0.0187276
0.0246636
0.0300496
0.0333766
0.0375027
0.0379632
0.0411947
0.00223924
0.00316027
0.0041996
0.00531607
0.00634507
0.00723149
0.00797159
0.00860862
0.00924762
0.00983936
0.00288431
0.00389477
0.00495051
0.00606467
0.0070713
0.0079143
0.00859129
0.00913598
0.00961707
0.00996108
0.00344717
0.00455781
0.00560543
0.00668138
0.00762449
0.00838109
0.00894994
0.00935239
0.00961641
0.00967582
0.00396796
0.00517439
0.00618631
0.00718376
0.00801734
0.00864161
0.00906214
0.00929986
0.00937698
0.00924728
0.00449609
0.0057746
0.00672111
0.0075992
0.00827808
0.00872659
0.0089627
0.00901519
0.00891931
0.00865666
0.00508346
0.00639034
0.00724169
0.00796381
0.00845062
0.00869006
0.00871604
0.00856912
0.00830283
0.00791925
0.00577957
0.00705345
0.00778257
0.00832115
0.00859245
0.00860651
0.00841364
0.00806638
0.0076324
0.00711579
0.00662762
0.00779484
0.0083796
0.00871898
0.00876815
0.00855965
0.00815789
0.0076245
0.00703225
0.00637324
0.00765884
0.00864171
0.00906621
0.00920269
0.00903818
0.00862561
0.00803938
0.00734549
0.00661224
0.00582001
0.00887661
0.00960857
0.00986607
0.0098062
0.00944662
0.00885702
0.00811711
0.00729245
0.00644047
0.00554148
0.010247
0.0106907
0.0107874
0.0105452
0.0100134
0.00927493
0.00841098
0.00748311
0.00653524
0.00555237
0.0118192
0.01191
0.0118381
0.0114199
0.0107331
0.00986876
0.00890524
0.00789708
0.00687698
0.00584331
0.0135428
0.0132384
0.0129921
0.0124046
0.0115771
0.0106047
0.00956044
0.00849053
0.00742071
0.00636414
0.0153553
0.0146346
0.0142101
0.0134578
0.0125
0.0114332
0.010323
0.00920722
0.00810863
0.00705117
0.0171867
0.0160452
0.0154402
0.0145266
0.0134476
0.0122984
0.0111354
0.00998836
0.00888055
0.00784151
0.0189564
0.0174058
0.0166217
0.0155533
0.0143637
0.0131448
0.0119425
0.0107787
0.00967968
0.00867744
0.0205781
0.018646
0.0176917
0.016481
0.0151959
0.0139229
0.0126968
0.011531
0.0104557
0.0095057
0.0219656
0.0196953
0.0185905
0.0172592
0.0158998
0.0145926
0.0133615
0.0122089
0.0111634
0.0102727
0.023039
0.0204886
0.0192657
0.0178464
0.0164419
0.0151249
0.0139079
0.012776
0.0117487
0.0109202
0.023729
0.0209703
0.0196753
0.0182131
0.0168028
0.0155081
0.0143264
0.0132166
0.0121876
0.0114234
0.0239803
0.0210965
0.019787
0.0183388
0.0169768
0.0157605
0.0146872
0.0137244
0.0129106
0.0124761
0.0237499
0.0208336
0.0195754
0.0182027
0.0169405
0.0158425
0.0149031
0.0140924
0.0134377
0.013095
0.0230161
0.0201663
0.0190283
0.0177917
0.0166764
0.0157301
0.0149439
0.0142887
0.0137702
0.0134764
0.0217818
0.0190963
0.018146
0.0171046
0.0161827
0.0154239
0.014819
0.0143419
0.0139839
0.0137895
0.0200724
0.0176421
0.0169431
0.0161532
0.0154697
0.0149351
0.0145423
0.0142688
0.0140982
0.0140516
0.0179334
0.0158381
0.0154468
0.01496
0.0145575
0.014282
0.0141308
0.0140851
0.0141249
0.0142568
0.0154268
0.0137312
0.0136942
0.0135557
0.0134721
0.0134878
0.013605
0.0138102
0.0140824
0.014418
0.0126258
0.011377
0.0117295
0.0119756
0.0122432
0.0125775
0.0129868
0.0134635
0.0139892
0.0145533
0.00961132
0.00883573
0.00959961
0.010257
0.0109006
0.0115756
0.0122963
0.0130621
0.0138595
0.0146756
0.00648289
0.00617356
0.00735353
0.00843645
0.00947254
0.0105036
0.0115504
0.012619
0.0137029
0.0147917
0.00337282
0.0034737
0.00504746
0.00655367
0.00798759
0.00938248
0.0107637
0.0121441
0.0135245
0.0149033
0.00022693
0.000746439
0.00270712
0.00463145
0.00646275
0.00822336
0.00994265
0.0116392
0.0133209
0.015002
-0.0028698
-0.00195248
0.000371427
0.00269575
0.00491476
0.00703551
0.00908991
0.0111009
0.0130812
0.0150682
-0.00584707
-0.00457517
-0.00192404
0.000768116
0.00335549
0.00582288
0.00820253
0.0105199
0.0127873
0.0150711
-0.00866543
-0.00708495
-0.00415225
-0.0011349
0.00179261
0.00458528
0.00727342
0.00988313
0.0124182
0.0149728
-0.0112877
-0.00942696
-0.00631896
-0.00300143
0.000230868
0.00331976
0.00629274
0.00917623
0.011955
0.0147275
-0.013695
-0.0116142
-0.0083698
-0.00482018
-0.00132728
0.00202239
0.00525012
0.00838576
0.011393
0.014295
-0.0158739
-0.0136299
-0.0102992
-0.00658044
-0.00287963
0.000689095
0.00413591
0.00749513
0.0107284
0.0136592
-0.0178179
-0.015461
-0.0121021
-0.00827755
-0.00442464
-0.000683161
0.00294534
0.00649371
0.0098991
0.0130552
-0.0195264
-0.0171025
-0.0137718
-0.00990599
-0.00596028
-0.00209789
0.00166604
0.0053725
0.00896586
0.0122763
-0.0210086
-0.0185573
-0.0153049
-0.011461
-0.00748387
-0.00355551
0.000291023
0.0041067
0.00796824
0.0116496
-0.022302
-0.0198397
-0.0167025
-0.0129376
-0.0089912
-0.00505901
-0.0011974
0.00261147
0.00645363
0.0101574
-0.023393
-0.0209463
-0.0179603
-0.0143274
-0.0104708
-0.00659408
-0.00277114
0.000988343
0.00475692
0.00843161
-0.0242886
-0.0218836
-0.0190776
-0.0156216
-0.0119057
-0.00813283
-0.00438492
-0.00068235
0.00303607
0.00667626
-0.0250061
-0.0226635
-0.0200575
-0.0168137
-0.0132806
-0.0096523
-0.00601326
-0.00238957
0.00126918
0.00486733
-0.0255644
-0.0232996
-0.0209055
-0.0179001
-0.0145846
-0.0111372
-0.00764132
-0.00412805
-0.000557263
0.0029862
-0.0259823
-0.0238065
-0.0216298
-0.018881
-0.0158108
-0.0125755
-0.00925377
-0.00588017
-0.00242472
0.00104582
-0.0262787
-0.0241996
-0.022241
-0.0197598
-0.016955
-0.0139571
-0.0108355
-0.00762623
-0.0043093
-0.000930406
-0.0264711
-0.0244949
-0.0227515
-0.0205428
-0.0180167
-0.0152746
-0.0123741
-0.00934948
-0.00619033
-0.00291863
-0.0265656
-0.0247018
-0.0231717
-0.0212369
-0.0189973
-0.0165241
-0.0138602
-0.0110364
-0.00805036
-0.00489752
-0.0265509
-0.0248146
-0.0234996
-0.0218403
-0.0198923
-0.0176972
-0.0152817
-0.0126711
-0.00987113
-0.00684817
-0.0264948
-0.0248781
-0.0237669
-0.0223741
-0.0207133
-0.0187968
-0.0166343
-0.0142437
-0.0116393
-0.00876116
-0.0263863
-0.0248875
-0.0239732
-0.0228387
-0.0214582
-0.0198168
-0.0179076
-0.0157399
-0.013338
-0.0106227
-0.0262169
-0.0248388
-0.0241165
-0.0232312
-0.0221212
-0.0207472
-0.0190868
-0.0171412
-0.0149464
-0.012412
-0.0259816
-0.0247286
-0.0241921
-0.0235444
-0.0226914
-0.0215723
-0.0201513
-0.0184226
-0.0164375
-0.0141042
-0.0256732
-0.0245498
-0.024191
-0.0237662
-0.0231524
-0.0222707
-0.0210745
-0.0195533
-0.0177789
-0.0156722
-0.025282
-0.0242919
-0.0240999
-0.0238799
-0.0234837
-0.0228173
-0.0218259
-0.0204967
-0.0189298
-0.0170811
-0.0247975
-0.0239426
-0.0239031
-0.0238666
-0.023663
-0.0231857
-0.0223742
-0.0212134
-0.0198378
-0.0182795
-0.0242102
-0.0234891
-0.0235845
-0.0237072
-0.0236687
-0.0233517
-0.0226905
-0.0216618
-0.0204201
-0.0191377
-0.0235125
-0.0229196
-0.0231289
-0.023384
-0.0234821
-0.0232968
-0.0227614
-0.0218433
-0.0206441
-0.0194563
-0.0226992
-0.0222247
-0.022524
-0.0228826
-0.0230866
-0.022998
-0.0225386
-0.0216387
-0.0201265
-0.0179751
-0.021769
-0.0214001
-0.0217622
-0.022193
-0.0224746
-0.0224646
-0.022084
-0.0212893
-0.0199334
-0.0178056
-0.0207244
-0.0204424
-0.0208383
-0.0213094
-0.0216409
-0.0216945
-0.0213997
-0.0207303
-0.0196162
-0.0179346
-0.0195729
-0.0193543
-0.0197539
-0.0202318
-0.0205805
-0.0206675
-0.0204264
-0.0198276
-0.0188117
-0.0173637
-0.0183257
-0.0181443
-0.0185172
-0.0189677
-0.0192984
-0.0193817
-0.0191517
-0.0185742
-0.0176003
-0.0162255
-0.0169972
-0.0168257
-0.017143
-0.0175338
-0.0178134
-0.0178593
-0.0176057
-0.0170197
-0.0160679
-0.0147284
-0.0156034
-0.0154156
-0.0156518
-0.0159548
-0.0161549
-0.016136
-0.0158342
-0.0152204
-0.0142781
-0.0129708
-0.0141607
-0.0139342
-0.014069
-0.014261
-0.0143592
-0.0142552
-0.0138888
-0.0132347
-0.0122915
-0.0110194
-0.0126858
-0.0124039
-0.0124228
-0.0124873
-0.0124676
-0.0122653
-0.0118246
-0.011124
-0.0101729
-0.00894053
-0.0111963
-0.0108451
-0.0107396
-0.010667
-0.0105209
-0.0102141
-0.00969672
-0.0089507
-0.00798821
-0.00679102
)
;

boundaryField
{
    inlet
    {
        type            zeroGradient;
    }
    outlet
    {
        type            fixedValue;
        value           uniform 0;
    }
    cylinder
    {
        type            zeroGradient;
    }
    top
    {
        type            symmetryPlane;
    }
    bottom
    {
        type            symmetryPlane;
    }
    defaultFaces
    {
        type            empty;
    }
}


// ************************************************************************* //
