/*--------------------------------*- C++ -*----------------------------------*\
  =========                 |
  \\      /  F ield         | OpenFOAM: The Open Source CFD Toolbox
   \\    /   O peration     | Website:  https://openfoam.org
    \\  /    A nd           | Version:  7
     \\/     M anipulation  |
\*---------------------------------------------------------------------------*/
FoamFile
{
    version     2.0;
    format      ascii;
    class       volScalarField;
    location    "8.6";
    object      p;
}
// * * * * * * * * * * * * * * * * * * * * * * * * * * * * * * * * * * * * * //

dimensions      [0 2 -2 0 0 0 0];

internalField   nonuniform List<scalar> 
32000
(
0.246909
0.247585
0.247972
0.248353
0.248701
0.249027
0.249326
0.2496
0.249869
0.250155
0.250475
0.250841
0.251262
0.251749
0.252315
0.252974
0.253738
0.25462
0.255636
0.256798
0.258117
0.259595
0.261235
0.263036
0.264993
0.267105
0.269363
0.27176
0.274284
0.276924
0.279671
0.282511
0.285433
0.288421
0.291461
0.294539
0.297642
0.300764
0.303877
0.306918
0.247124
0.247776
0.248137
0.248487
0.248804
0.249101
0.249369
0.249615
0.249856
0.250113
0.250401
0.250732
0.251116
0.251566
0.252094
0.25271
0.253428
0.254259
0.255219
0.256322
0.257576
0.258986
0.260552
0.262273
0.264145
0.266168
0.268336
0.270642
0.273074
0.275624
0.278281
0.281032
0.283866
0.286769
0.289728
0.292727
0.295756
0.298806
0.301844
0.304822
0.247346
0.247969
0.248305
0.248624
0.24891
0.249175
0.249414
0.249632
0.249847
0.250078
0.250336
0.250635
0.250985
0.2514
0.251891
0.252469
0.253145
0.253931
0.254841
0.25589
0.257086
0.258432
0.259929
0.261574
0.263367
0.265305
0.267386
0.269604
0.271948
0.274409
0.276977
0.27964
0.282387
0.285205
0.28808
0.290999
0.293951
0.296927
0.299888
0.302801
0.247562
0.248153
0.248466
0.248758
0.249013
0.249248
0.24946
0.249653
0.249846
0.250053
0.250285
0.250554
0.250873
0.251256
0.251713
0.252255
0.252894
0.25364
0.254506
0.255506
0.256649
0.257936
0.259368
0.260942
0.262658
0.264517
0.266515
0.268648
0.270906
0.273281
0.275762
0.278338
0.280998
0.28373
0.286521
0.289358
0.292232
0.295131
0.298012
0.300856
0.247786
0.248342
0.248633
0.248898
0.249124
0.249329
0.249514
0.249685
0.249857
0.250042
0.250249
0.250491
0.250781
0.251134
0.251561
0.252072
0.252677
0.253387
0.254214
0.255171
0.256265
0.257498
0.258868
0.260375
0.262019
0.263803
0.265722
0.267774
0.26995
0.27224
0.274636
0.277127
0.279701
0.282347
0.285053
0.287807
0.290601
0.293422
0.296221
0.298993
0.248014
0.248531
0.248799
0.249038
0.249237
0.249414
0.249575
0.249725
0.249877
0.250042
0.250227
0.250444
0.25071
0.251036
0.251436
0.251919
0.252495
0.253174
0.253967
0.254886
0.255935
0.257117
0.25843
0.259874
0.261452
0.263164
0.26501
0.266984
0.26908
0.271289
0.273601
0.276007
0.278496
0.281057
0.283679
0.28635
0.289062
0.291803
0.294517
0.297215
0.248249
0.248724
0.248969
0.249183
0.249356
0.249508
0.249645
0.249776
0.24991
0.250056
0.250221
0.250418
0.250662
0.250966
0.251341
0.251799
0.25235
0.253003
0.253767
0.254651
0.255661
0.256795
0.258055
0.259441
0.260956
0.262603
0.264379
0.26628
0.268299
0.270428
0.272659
0.274982
0.277388
0.279864
0.282401
0.284988
0.287618
0.290276
0.292904
0.295526
0.248489
0.248922
0.249144
0.249333
0.249482
0.24961
0.249726
0.249839
0.249956
0.250085
0.250233
0.250413
0.250638
0.250922
0.251277
0.251715
0.252245
0.252876
0.253615
0.254469
0.255442
0.256533
0.257743
0.259077
0.260535
0.26212
0.26383
0.265661
0.267606
0.269659
0.271811
0.274054
0.276377
0.27877
0.281222
0.283725
0.286271
0.288846
0.291385
0.293929
0.248735
0.249122
0.249321
0.249487
0.249613
0.249721
0.249818
0.249913
0.250015
0.250129
0.250263
0.250429
0.250639
0.250906
0.251245
0.251666
0.25218
0.252793
0.253511
0.254339
0.255278
0.25633
0.257497
0.258782
0.260188
0.261716
0.263364
0.265129
0.267004
0.268983
0.271059
0.273223
0.275465
0.277775
0.280144
0.282562
0.285023
0.287514
0.289964
0.292426
0.248986
0.249325
0.249501
0.249644
0.249751
0.249839
0.249919
0.249998
0.250086
0.250188
0.250311
0.250466
0.250664
0.250919
0.251245
0.251654
0.252156
0.252755
0.253457
0.254262
0.255172
0.256189
0.257317
0.258558
0.259916
0.261392
0.262983
0.264685
0.266493
0.268401
0.270403
0.272491
0.274654
0.276882
0.279167
0.281501
0.283877
0.286283
0.288641
0.291022
0.24924
0.24953
0.249684
0.249806
0.249894
0.249966
0.250029
0.250095
0.25017
0.250263
0.250378
0.250525
0.250715
0.250961
0.251278
0.25168
0.252173
0.252763
0.253451
0.254236
0.255122
0.256109
0.257202
0.258405
0.25972
0.261147
0.262685
0.264328
0.266073
0.267914
0.269845
0.271858
0.273943
0.276092
0.278294
0.280544
0.282835
0.285154
0.287421
0.289717
0.249499
0.249737
0.249869
0.249971
0.250043
0.250099
0.250149
0.250202
0.250268
0.250353
0.250463
0.250605
0.25079
0.251032
0.251346
0.251744
0.252233
0.252816
0.253493
0.254263
0.255128
0.25609
0.257154
0.258323
0.259599
0.260983
0.26247
0.264059
0.265743
0.267521
0.269384
0.271325
0.273335
0.275404
0.277526
0.279691
0.281897
0.284129
0.286304
0.288515
0.249761
0.249946
0.250055
0.250138
0.250195
0.250238
0.250276
0.25032
0.250379
0.250459
0.250566
0.250706
0.250891
0.251133
0.251447
0.251845
0.252334
0.252913
0.253582
0.25434
0.255189
0.256132
0.257171
0.258311
0.259554
0.260897
0.262339
0.263876
0.265505
0.267221
0.26902
0.270892
0.272828
0.274821
0.276862
0.278944
0.281065
0.283211
0.285294
0.287417
0.250028
0.250158
0.250244
0.250308
0.250351
0.250383
0.250411
0.250448
0.250501
0.250579
0.250686
0.250828
0.251015
0.251262
0.251581
0.251984
0.252474
0.253052
0.253717
0.254468
0.255306
0.256233
0.257253
0.258369
0.259582
0.260889
0.262289
0.263779
0.265355
0.267016
0.268753
0.270558
0.272424
0.274341
0.276303
0.278303
0.280339
0.282399
0.28439
0.286426
0.250298
0.25037
0.250434
0.25048
0.25051
0.250532
0.250553
0.250585
0.250635
0.250713
0.250822
0.250969
0.251164
0.251419
0.251748
0.252158
0.252653
0.253233
0.253897
0.254644
0.255475
0.256392
0.257398
0.258494
0.259682
0.260958
0.26232
0.263767
0.265295
0.266903
0.268582
0.270324
0.272121
0.273964
0.275849
0.277768
0.279721
0.281695
0.283595
0.285542
0.250572
0.250585
0.250626
0.250653
0.25067
0.250684
0.250701
0.25073
0.25078
0.25086
0.250974
0.25113
0.251336
0.251604
0.251945
0.252366
0.252869
0.253454
0.254121
0.254869
0.255697
0.256609
0.257605
0.258686
0.259853
0.261102
0.26243
0.263838
0.265323
0.266881
0.268505
0.270187
0.271918
0.273691
0.2755
0.27734
0.279211
0.281101
0.282911
0.284768
0.250848
0.250801
0.250818
0.250826
0.250832
0.25084
0.250854
0.250882
0.250935
0.251019
0.251142
0.251309
0.25153
0.251815
0.252172
0.252607
0.253121
0.253714
0.254387
0.25514
0.255971
0.256881
0.257871
0.258942
0.260092
0.261318
0.262618
0.263992
0.265437
0.266949
0.268522
0.270146
0.271814
0.273519
0.275255
0.277019
0.278809
0.280616
0.282338
0.284105
0.251126
0.251016
0.251009
0.250998
0.250994
0.250996
0.25101
0.251041
0.251099
0.25119
0.251323
0.251506
0.251745
0.25205
0.252427
0.252878
0.253406
0.254012
0.254695
0.255456
0.256293
0.257207
0.258196
0.259261
0.260398
0.261605
0.262881
0.264225
0.265634
0.267105
0.268629
0.270199
0.271808
0.273448
0.275114
0.276803
0.278516
0.280241
0.281876
0.283552
0.251405
0.251231
0.251199
0.251168
0.251154
0.251154
0.251169
0.251205
0.25127
0.251372
0.251519
0.25172
0.251981
0.252309
0.252707
0.253178
0.253724
0.254345
0.255043
0.255816
0.256664
0.257584
0.258576
0.259638
0.260768
0.261961
0.263217
0.264535
0.265913
0.267345
0.268825
0.270345
0.271897
0.273475
0.275075
0.276692
0.278329
0.279975
0.281527
0.283112
0.251682
0.251444
0.251387
0.251336
0.251312
0.25131
0.25133
0.251373
0.251448
0.251563
0.251728
0.25195
0.252235
0.252588
0.253011
0.253505
0.254072
0.254712
0.255428
0.256217
0.257079
0.25801
0.259009
0.260073
0.261198
0.262381
0.263622
0.264919
0.266269
0.267667
0.269107
0.27058
0.272079
0.2736
0.275136
0.276685
0.278249
0.279818
0.281288
0.282783
0.251956
0.251652
0.251569
0.251498
0.251466
0.251464
0.25149
0.251543
0.251631
0.251763
0.251947
0.252193
0.252505
0.252885
0.253335
0.253856
0.254447
0.255111
0.255848
0.256657
0.257536
0.258482
0.259491
0.26056
0.261685
0.262863
0.264093
0.265372
0.266699
0.268067
0.26947
0.270901
0.272352
0.273819
0.275295
0.276779
0.278274
0.279769
0.28116
0.282566
0.252223
0.251853
0.251744
0.251655
0.251615
0.251615
0.251648
0.251714
0.251818
0.251968
0.252175
0.252447
0.252788
0.253199
0.253679
0.254227
0.254847
0.255537
0.256299
0.257132
0.258031
0.258995
0.260017
0.261096
0.262225
0.263401
0.264624
0.265891
0.267198
0.268541
0.269912
0.271305
0.272713
0.274129
0.27555
0.276974
0.278402
0.279826
0.281142
0.28246
0.252481
0.252044
0.251911
0.251803
0.251757
0.25176
0.251803
0.251883
0.252005
0.252177
0.252409
0.25271
0.253082
0.253525
0.254037
0.254617
0.255267
0.255987
0.256778
0.257637
0.258561
0.259545
0.260585
0.261676
0.262813
0.263992
0.265212
0.26647
0.267763
0.269084
0.270428
0.271788
0.273156
0.274527
0.275898
0.277264
0.27863
0.279987
0.281233
0.282463
0.252725
0.252223
0.252065
0.251941
0.25189
0.251897
0.251951
0.252048
0.252191
0.252386
0.252647
0.252979
0.253384
0.253861
0.254407
0.255022
0.255705
0.256458
0.25728
0.258168
0.259119
0.260128
0.261189
0.262296
0.263444
0.26463
0.265851
0.267104
0.268386
0.269691
0.271013
0.272344
0.273677
0.275008
0.276332
0.277647
0.278954
0.280248
0.281428
0.282574
0.252953
0.252386
0.252206
0.252066
0.252011
0.252024
0.252092
0.252208
0.252373
0.252595
0.252885
0.25325
0.253691
0.254203
0.254786
0.255437
0.256157
0.256945
0.257801
0.258722
0.259703
0.260739
0.261824
0.26295
0.264113
0.265308
0.266534
0.267787
0.269063
0.270356
0.27166
0.272966
0.27427
0.275565
0.276849
0.278117
0.279371
0.280607
0.281726
0.282789
0.253161
0.252531
0.252329
0.252176
0.252119
0.25214
0.252222
0.252358
0.252548
0.252799
0.253122
0.253522
0.253998
0.254549
0.25517
0.25586
0.256618
0.257444
0.258336
0.259292
0.260306
0.261372
0.262484
0.263632
0.264813
0.266022
0.267256
0.268513
0.269787
0.271072
0.272362
0.273648
0.274927
0.276193
0.277441
0.278668
0.279874
0.281058
0.282122
0.283106
0.253346
0.252656
0.252435
0.252269
0.252212
0.252242
0.25234
0.252497
0.252714
0.252997
0.253353
0.253789
0.254304
0.254894
0.255555
0.256286
0.257085
0.257951
0.258881
0.259874
0.260923
0.262022
0.263162
0.264336
0.265537
0.266763
0.26801
0.269273
0.270549
0.27183
0.27311
0.274383
0.275641
0.276882
0.278101
0.279292
0.280457
0.281594
0.282611
0.283521
0.253506
0.252758
0.252519
0.252344
0.252288
0.252327
0.252442
0.252623
0.252868
0.253184
0.253577
0.254051
0.254605
0.255235
0.255938
0.256711
0.257552
0.25846
0.259431
0.260462
0.261549
0.262682
0.263854
0.265055
0.26628
0.267525
0.268787
0.270061
0.271342
0.272623
0.273898
0.27516
0.276404
0.277626
0.278821
0.279983
0.281113
0.282211
0.283187
0.284027
0.253637
0.252834
0.25258
0.252397
0.252345
0.252394
0.252527
0.252732
0.253008
0.253358
0.253789
0.254302
0.254897
0.255569
0.256314
0.25713
0.258016
0.258966
0.259979
0.261051
0.262176
0.263346
0.26455
0.265781
0.267032
0.268299
0.269579
0.270867
0.272156
0.273441
0.274714
0.275971
0.277206
0.278414
0.279592
0.280731
0.281833
0.282899
0.283843
0.284619
0.253736
0.252882
0.252615
0.252427
0.252379
0.25244
0.252591
0.252822
0.253129
0.253516
0.253985
0.254539
0.255176
0.25589
0.256679
0.25754
0.25847
0.259465
0.260521
0.261634
0.262799
0.264006
0.265245
0.266507
0.267786
0.269078
0.270378
0.271682
0.272983
0.274274
0.27555
0.276805
0.278036
0.279236
0.280402
0.281526
0.282607
0.283649
0.28457
0.28529
0.2538
0.252899
0.252621
0.252431
0.25239
0.252464
0.252634
0.25289
0.253229
0.253653
0.254163
0.254759
0.255437
0.256194
0.257027
0.257934
0.25891
0.25995
0.26105
0.262206
0.263411
0.264656
0.265931
0.267226
0.268534
0.269852
0.271175
0.272497
0.273811
0.275112
0.276394
0.277652
0.278882
0.28008
0.28124
0.282355
0.283423
0.28445
0.285359
0.28603
0.253826
0.252882
0.252597
0.252407
0.252374
0.252462
0.252652
0.252935
0.253306
0.253767
0.254318
0.254955
0.255676
0.256477
0.257356
0.258308
0.25933
0.260416
0.26156
0.262759
0.264005
0.265289
0.2666
0.267928
0.269268
0.270613
0.27196
0.273301
0.274631
0.275944
0.277234
0.278498
0.279732
0.280931
0.282091
0.283205
0.284269
0.28529
0.286198
0.286831
0.25381
0.252829
0.25254
0.252352
0.252329
0.252432
0.252643
0.252952
0.253356
0.253855
0.254446
0.255126
0.255889
0.256734
0.257658
0.258658
0.259726
0.260857
0.262046
0.263288
0.264575
0.265897
0.267245
0.268607
0.269978
0.271352
0.272722
0.274084
0.275431
0.276757
0.278058
0.279331
0.280571
0.281776
0.282941
0.28406
0.285127
0.286153
0.287073
0.287681
0.253751
0.252738
0.252447
0.252264
0.252251
0.252371
0.252604
0.252941
0.253377
0.253913
0.254544
0.255266
0.256073
0.256962
0.257932
0.258977
0.260092
0.261268
0.262501
0.263786
0.265113
0.266474
0.267858
0.269254
0.270656
0.272057
0.273452
0.274835
0.276198
0.277539
0.278852
0.280135
0.281384
0.282598
0.283772
0.284901
0.285981
0.287024
0.287969
0.288566
0.253646
0.252605
0.252315
0.252139
0.25214
0.252278
0.252533
0.252897
0.253366
0.253939
0.25461
0.255374
0.256223
0.257156
0.258171
0.259262
0.260422
0.261644
0.262921
0.264247
0.265614
0.267013
0.268431
0.26986
0.271293
0.272721
0.27414
0.275542
0.276922
0.278277
0.279603
0.280896
0.282155
0.283378
0.284565
0.285709
0.286809
0.287879
0.288868
0.289474
0.253492
0.25243
0.252143
0.251976
0.251992
0.252149
0.252428
0.25282
0.253321
0.25393
0.254641
0.255445
0.256336
0.257313
0.258372
0.259508
0.260713
0.261978
0.263298
0.264665
0.266071
0.267505
0.268957
0.270418
0.271879
0.273333
0.274774
0.276194
0.27759
0.278958
0.280295
0.281598
0.282865
0.284098
0.285297
0.28646
0.287585
0.288695
0.289747
0.290388
0.253287
0.25221
0.251929
0.251773
0.251806
0.251984
0.252287
0.252706
0.25324
0.253885
0.254633
0.255477
0.256409
0.257428
0.258531
0.259711
0.260959
0.262267
0.263627
0.265033
0.266475
0.267944
0.269428
0.270918
0.272406
0.273884
0.275344
0.276781
0.278191
0.279569
0.280915
0.282224
0.283497
0.284737
0.285946
0.287125
0.288279
0.289437
0.290574
0.291288
0.25303
0.251944
0.25167
0.251528
0.251579
0.251779
0.252107
0.252554
0.25312
0.253799
0.254585
0.255467
0.256439
0.2575
0.258644
0.259866
0.261156
0.262504
0.263903
0.265345
0.266822
0.268323
0.269836
0.271353
0.272865
0.274363
0.27584
0.277291
0.278711
0.280097
0.281447
0.282758
0.284032
0.285271
0.286483
0.287673
0.28885
0.29006
0.291312
0.292172
0.252719
0.251631
0.251367
0.25124
0.251311
0.251534
0.251886
0.252362
0.252959
0.253672
0.254493
0.255412
0.256423
0.257523
0.258708
0.259969
0.261298
0.262684
0.264119
0.265596
0.267104
0.268634
0.270174
0.271715
0.273247
0.274762
0.276253
0.277713
0.279139
0.280528
0.281876
0.283183
0.284448
0.285677
0.286878
0.288063
0.289252
0.29052
0.29196
0.293152
0.252354
0.251269
0.251017
0.250908
0.251
0.251245
0.251623
0.252127
0.252755
0.253501
0.254356
0.25531
0.256358
0.257495
0.258718
0.260016
0.261381
0.262802
0.264271
0.265779
0.267316
0.268871
0.270434
0.271995
0.273544
0.275072
0.276572
0.278037
0.279465
0.28085
0.28219
0.283482
0.284727
0.285928
0.287093
0.288236
0.289388
0.29066
0.292229
0.293827
0.31737
0.332373
0.34553
0.356375
0.365024
0.37198
0.377482
0.381931
0.385565
0.388622
0.391225
0.393466
0.39543
0.397189
0.398757
0.400163
0.401427
0.402568
0.403583
0.40448
0.405269
0.405962
0.406551
0.407041
0.40743
0.407714
0.407908
0.408008
0.408008
0.407913
0.407714
0.407427
0.40704
0.406553
0.405965
0.405276
0.40451
0.403627
0.402838
0.401679
0.315373
0.330207
0.343519
0.354432
0.363185
0.370202
0.37576
0.38026
0.383937
0.387022
0.389652
0.391933
0.393932
0.395714
0.397312
0.398758
0.400055
0.401218
0.402257
0.403184
0.404004
0.404718
0.40533
0.405837
0.406243
0.40655
0.406762
0.406874
0.406888
0.406805
0.406625
0.406345
0.405972
0.405498
0.404921
0.404242
0.403485
0.402614
0.401832
0.40068
0.313438
0.32807
0.341527
0.352496
0.361349
0.368423
0.374036
0.378588
0.382307
0.385421
0.388077
0.390396
0.392432
0.394239
0.395867
0.397351
0.39868
0.399868
0.400931
0.401889
0.402737
0.403472
0.404107
0.404631
0.405055
0.405385
0.405615
0.40574
0.405771
0.4057
0.405539
0.405268
0.404908
0.404447
0.403882
0.403215
0.402467
0.401608
0.400834
0.399691
0.311563
0.325963
0.339559
0.350569
0.359513
0.366645
0.372313
0.37691
0.38067
0.383818
0.386506
0.388857
0.390927
0.392766
0.394426
0.39594
0.3973
0.398518
0.399609
0.400593
0.401467
0.402224
0.402882
0.403427
0.40387
0.404219
0.404465
0.404607
0.404654
0.404599
0.404453
0.404198
0.40385
0.403401
0.402848
0.402192
0.401457
0.400609
0.399846
0.398713
0.309752
0.323891
0.337613
0.348651
0.357677
0.364866
0.37059
0.375229
0.379028
0.382214
0.384935
0.387316
0.389419
0.391294
0.392986
0.394527
0.395918
0.397168
0.39829
0.399299
0.400196
0.400977
0.401655
0.402224
0.402687
0.403053
0.403316
0.403477
0.40354
0.403503
0.403371
0.403134
0.402799
0.40236
0.401819
0.401176
0.400454
0.399618
0.398866
0.397745
0.30801
0.32186
0.335688
0.34674
0.355842
0.363086
0.368864
0.373546
0.377383
0.380607
0.383363
0.385774
0.387911
0.38982
0.391546
0.393115
0.394538
0.395819
0.396972
0.398006
0.398927
0.399731
0.400431
0.401023
0.401505
0.40189
0.40217
0.402349
0.402429
0.40241
0.402293
0.402073
0.401752
0.401325
0.400798
0.400168
0.399459
0.398635
0.397894
0.396783
0.306338
0.319871
0.333787
0.344839
0.35401
0.361305
0.367136
0.371861
0.375737
0.378998
0.381788
0.384233
0.386402
0.388346
0.390106
0.391705
0.393159
0.394471
0.395655
0.396714
0.397659
0.398488
0.399208
0.399823
0.400326
0.400729
0.401027
0.401224
0.401322
0.401321
0.40122
0.401016
0.400711
0.400297
0.399783
0.399166
0.398471
0.39766
0.39693
0.39583
0.304739
0.317928
0.331911
0.342947
0.35218
0.359522
0.365405
0.370174
0.374089
0.377387
0.380212
0.38269
0.384894
0.386873
0.388667
0.390297
0.391783
0.393124
0.394338
0.395423
0.396393
0.397247
0.397989
0.398625
0.399149
0.399571
0.399888
0.400104
0.40022
0.400236
0.400152
0.399964
0.399674
0.399275
0.398776
0.398173
0.397492
0.396693
0.395974
0.394884
0.303213
0.316035
0.33006
0.341067
0.350353
0.357738
0.363671
0.368484
0.372439
0.375775
0.378635
0.381148
0.383385
0.3854
0.387228
0.38889
0.390407
0.391779
0.393022
0.394135
0.395129
0.396008
0.396771
0.39743
0.397975
0.398415
0.398752
0.398987
0.399121
0.399155
0.399088
0.398917
0.398643
0.398259
0.397775
0.397187
0.39652
0.395735
0.395027
0.393946
0.301761
0.314196
0.328238
0.3392
0.348529
0.355951
0.361934
0.366791
0.370786
0.374161
0.377058
0.379606
0.381878
0.383928
0.38579
0.387485
0.389034
0.390436
0.391708
0.392848
0.393867
0.394771
0.395557
0.396238
0.396804
0.397264
0.39762
0.397874
0.398027
0.398079
0.398029
0.397875
0.397617
0.39725
0.396782
0.396208
0.395557
0.394784
0.394088
0.393015
0.300386
0.312413
0.326445
0.337346
0.346708
0.354163
0.360194
0.365095
0.369132
0.372545
0.37548
0.378063
0.380372
0.382457
0.384355
0.386083
0.387663
0.389095
0.390396
0.391563
0.392608
0.393537
0.394345
0.395048
0.395636
0.396116
0.396493
0.396764
0.396937
0.397008
0.396975
0.396838
0.396597
0.396247
0.395795
0.395237
0.394601
0.393842
0.393157
0.392092
0.299087
0.31069
0.324683
0.335506
0.34489
0.352373
0.35845
0.363395
0.367474
0.370928
0.373901
0.376522
0.378868
0.380989
0.382922
0.384683
0.386295
0.387758
0.389087
0.390282
0.391351
0.392305
0.393136
0.393861
0.394471
0.394971
0.395368
0.395659
0.39585
0.39594
0.395925
0.395806
0.395582
0.39525
0.394815
0.394274
0.393653
0.392907
0.392233
0.391176
0.297868
0.309031
0.322954
0.333684
0.343076
0.350581
0.356701
0.361691
0.365815
0.369309
0.372323
0.374982
0.377366
0.379524
0.381492
0.383287
0.384931
0.386423
0.387781
0.389003
0.390097
0.391076
0.39193
0.392677
0.393309
0.393829
0.394247
0.394558
0.394768
0.394876
0.394879
0.394779
0.394572
0.394259
0.393841
0.393317
0.392713
0.391979
0.391317
0.390269
0.296727
0.307439
0.321259
0.331878
0.341266
0.348787
0.354949
0.359983
0.364151
0.367689
0.370745
0.373444
0.375866
0.378062
0.380066
0.381894
0.38357
0.385093
0.386479
0.387728
0.388846
0.38985
0.390727
0.391496
0.392151
0.392691
0.393129
0.393461
0.393689
0.393815
0.393837
0.393756
0.393567
0.393273
0.392875
0.392368
0.391779
0.391059
0.390409
0.389369
0.295667
0.305919
0.319602
0.330093
0.33946
0.346991
0.353191
0.358271
0.362485
0.366067
0.369166
0.371907
0.374369
0.376602
0.378643
0.380505
0.382213
0.383766
0.38518
0.386457
0.387599
0.388627
0.389528
0.390318
0.390996
0.391556
0.392014
0.392366
0.392614
0.392758
0.3928
0.392739
0.392567
0.392294
0.391915
0.391426
0.390853
0.390147
0.389508
0.388477
0.294689
0.304473
0.317983
0.328328
0.337658
0.345193
0.351428
0.356553
0.360815
0.364444
0.367588
0.370372
0.372875
0.375147
0.377223
0.379119
0.38086
0.382444
0.383886
0.385189
0.386356
0.387408
0.388332
0.389143
0.389843
0.390425
0.390902
0.391275
0.391542
0.391705
0.391766
0.391726
0.391573
0.39132
0.390961
0.39049
0.389934
0.389242
0.388615
0.387592
0.293793
0.303106
0.316405
0.326586
0.335863
0.343393
0.349659
0.35483
0.35914
0.362818
0.36601
0.36884
0.371383
0.373694
0.375807
0.377738
0.379512
0.381126
0.382596
0.383926
0.385118
0.386193
0.387141
0.387971
0.388694
0.389298
0.389794
0.390186
0.390474
0.390656
0.390736
0.390717
0.390584
0.390352
0.390013
0.389561
0.389022
0.388345
0.387729
0.386716
0.29298
0.30182
0.314871
0.324869
0.334074
0.341591
0.347885
0.353101
0.357462
0.361191
0.364432
0.367309
0.369895
0.372245
0.374395
0.376362
0.378168
0.379813
0.381312
0.382668
0.383885
0.384982
0.385954
0.386805
0.387548
0.388174
0.388689
0.389101
0.389409
0.38961
0.389709
0.389712
0.3896
0.389389
0.38907
0.388638
0.388116
0.387455
0.386851
0.385847
0.292252
0.30062
0.313383
0.323179
0.332292
0.339788
0.346106
0.351365
0.355778
0.359561
0.362855
0.36578
0.368409
0.3708
0.372989
0.374991
0.37683
0.378506
0.380032
0.381415
0.382658
0.383776
0.384771
0.385643
0.386406
0.387053
0.387589
0.388019
0.388348
0.388568
0.388687
0.388711
0.388621
0.38843
0.388133
0.387721
0.387218
0.386573
0.38598
0.384985
0.291607
0.299507
0.311943
0.321518
0.33052
0.337984
0.344321
0.349623
0.35409
0.357928
0.361276
0.364252
0.366927
0.369359
0.371587
0.373625
0.375497
0.377204
0.378759
0.380167
0.381436
0.382576
0.383594
0.384487
0.385269
0.385937
0.386492
0.386941
0.387289
0.387529
0.387669
0.387714
0.387646
0.387477
0.387201
0.38681
0.386326
0.385698
0.385116
0.384132
0.291048
0.298485
0.310555
0.319888
0.328758
0.33618
0.34253
0.347873
0.352395
0.356292
0.359697
0.362725
0.365448
0.367923
0.370191
0.372266
0.374171
0.375909
0.377491
0.378925
0.38022
0.381381
0.382421
0.383336
0.384136
0.384825
0.385399
0.385866
0.386234
0.386494
0.386654
0.386721
0.386676
0.386529
0.386275
0.385906
0.385441
0.384831
0.38426
0.383287
0.290574
0.297556
0.309222
0.318293
0.32701
0.334377
0.340733
0.346116
0.350694
0.354652
0.358117
0.3612
0.363972
0.366492
0.3688
0.370912
0.37285
0.37462
0.376229
0.377689
0.379009
0.380192
0.381253
0.38219
0.383008
0.383716
0.384309
0.384795
0.385182
0.385463
0.385643
0.385732
0.38571
0.385585
0.385355
0.385009
0.384563
0.383971
0.383413
0.382451
0.290185
0.296722
0.307948
0.316735
0.325275
0.332576
0.338931
0.344351
0.348986
0.353008
0.356535
0.359676
0.362499
0.365067
0.367416
0.369565
0.371536
0.373337
0.374974
0.37646
0.377803
0.379008
0.38009
0.381049
0.381884
0.382612
0.383223
0.383727
0.384134
0.384435
0.384637
0.384747
0.384748
0.384645
0.384439
0.384117
0.383692
0.38312
0.382576
0.381623
0.289881
0.295986
0.306734
0.315218
0.323559
0.330778
0.337124
0.342579
0.347271
0.351358
0.354951
0.358153
0.36103
0.363646
0.366037
0.368225
0.370229
0.372061
0.373725
0.375236
0.376603
0.37783
0.378932
0.379912
0.380765
0.381511
0.382141
0.382663
0.383089
0.38341
0.383633
0.383765
0.383789
0.38371
0.383528
0.383231
0.382828
0.382277
0.381748
0.380805
0.289663
0.295347
0.305586
0.313743
0.321863
0.328987
0.335315
0.340799
0.345549
0.349703
0.353365
0.356631
0.359565
0.362232
0.364666
0.366891
0.368929
0.370792
0.372483
0.374019
0.375409
0.376658
0.377779
0.378779
0.37965
0.380415
0.381063
0.381602
0.382047
0.382389
0.382633
0.382786
0.382834
0.382779
0.382622
0.38235
0.38197
0.381441
0.38093
0.379998
0.289529
0.294807
0.304505
0.312315
0.32019
0.327203
0.333503
0.339011
0.343819
0.348043
0.351777
0.355111
0.358104
0.360823
0.363301
0.365565
0.367636
0.369529
0.371247
0.372808
0.37422
0.37549
0.376632
0.377651
0.37854
0.379321
0.379988
0.380544
0.381009
0.381371
0.381635
0.381809
0.381882
0.38185
0.381718
0.381473
0.381119
0.380613
0.380122
0.379202
0.289479
0.294363
0.303495
0.310936
0.318546
0.325429
0.33169
0.337216
0.34208
0.346375
0.350186
0.353591
0.356647
0.35942
0.361943
0.364246
0.366351
0.368274
0.370018
0.371603
0.373037
0.374329
0.375489
0.376527
0.377433
0.378232
0.378917
0.37949
0.379973
0.380354
0.38064
0.380834
0.380931
0.380924
0.380818
0.380601
0.380275
0.379794
0.379324
0.378417
0.289512
0.294015
0.302558
0.309609
0.316933
0.323668
0.329878
0.335414
0.340332
0.344701
0.348591
0.352071
0.355193
0.358023
0.360592
0.362936
0.365074
0.367026
0.368796
0.370404
0.37186
0.373172
0.374351
0.375408
0.376331
0.377145
0.377849
0.378439
0.378939
0.37934
0.379646
0.379861
0.379982
0.38
0.379921
0.379733
0.379436
0.378984
0.378538
0.377646
0.289627
0.293759
0.301696
0.308337
0.315355
0.321924
0.328067
0.333606
0.338576
0.343019
0.346992
0.350551
0.353742
0.356632
0.359249
0.361634
0.363805
0.365785
0.36758
0.369212
0.370689
0.372021
0.373218
0.374292
0.375233
0.376062
0.376784
0.37739
0.377908
0.378328
0.378654
0.37889
0.379034
0.379078
0.379026
0.378868
0.378604
0.378182
0.377764
0.37689
0.289822
0.293591
0.30091
0.307124
0.313818
0.320201
0.326262
0.331793
0.336812
0.341331
0.345389
0.34903
0.352295
0.355246
0.357913
0.36034
0.362544
0.364553
0.366372
0.368026
0.369524
0.370875
0.37209
0.37318
0.374139
0.374982
0.375721
0.376344
0.376878
0.377317
0.377663
0.377919
0.378087
0.378157
0.378133
0.378006
0.377776
0.377389
0.377002
0.376149
0.290096
0.293505
0.300199
0.305973
0.312325
0.318502
0.324464
0.329977
0.33504
0.339636
0.343782
0.34751
0.35085
0.353866
0.356586
0.359054
0.361291
0.363328
0.365172
0.366847
0.368365
0.369735
0.370966
0.372072
0.373048
0.373905
0.37466
0.375301
0.37585
0.376308
0.376673
0.37695
0.37714
0.377236
0.377241
0.377146
0.376953
0.376606
0.376253
0.375425
0.290446
0.293495
0.299565
0.304887
0.310882
0.316833
0.322678
0.328159
0.333263
0.337934
0.34217
0.345988
0.349409
0.352492
0.355266
0.357776
0.360047
0.362111
0.36398
0.365675
0.367212
0.3686
0.369848
0.370968
0.371961
0.372832
0.373602
0.374259
0.374824
0.3753
0.375683
0.37598
0.376193
0.376315
0.376349
0.376288
0.376134
0.37583
0.375518
0.374721
0.290871
0.293552
0.299005
0.30387
0.309495
0.3152
0.320906
0.326343
0.33148
0.336225
0.340554
0.344466
0.347971
0.351124
0.353953
0.356506
0.358812
0.360902
0.362795
0.364511
0.366066
0.367471
0.368735
0.369869
0.370877
0.371762
0.372546
0.37322
0.373799
0.374293
0.374694
0.375011
0.375246
0.375393
0.375457
0.37543
0.375318
0.375063
0.374797
0.374039
0.291368
0.293666
0.298519
0.302923
0.308167
0.313608
0.319153
0.324531
0.329693
0.334511
0.338934
0.342943
0.346535
0.349761
0.352648
0.355245
0.357585
0.359702
0.361618
0.363354
0.364926
0.366348
0.367627
0.368774
0.369797
0.370696
0.371493
0.372183
0.372777
0.373287
0.373706
0.374042
0.374298
0.374471
0.374563
0.374572
0.374503
0.374302
0.374092
0.373381
0.291935
0.293828
0.298105
0.302051
0.306904
0.312065
0.317423
0.322728
0.327904
0.332791
0.337309
0.341418
0.345101
0.348403
0.35135
0.353991
0.356367
0.358511
0.360449
0.362205
0.363794
0.365231
0.366525
0.367685
0.368721
0.369634
0.370443
0.371149
0.371757
0.372282
0.372718
0.373072
0.373348
0.373546
0.373668
0.373713
0.373689
0.373546
0.373402
0.372753
0.292573
0.294029
0.297761
0.301257
0.305711
0.31058
0.315722
0.320936
0.326116
0.331067
0.33568
0.339891
0.34367
0.34705
0.350059
0.352747
0.355158
0.357329
0.359289
0.361065
0.362669
0.364121
0.365428
0.366601
0.367649
0.368576
0.369396
0.370118
0.37074
0.371279
0.371731
0.372102
0.372398
0.372619
0.37277
0.372851
0.372875
0.372795
0.372728
0.37216
0.293279
0.294262
0.297489
0.300547
0.304593
0.309161
0.314057
0.319162
0.324334
0.329344
0.334051
0.338366
0.342243
0.345705
0.348778
0.351513
0.35396
0.356157
0.358139
0.359933
0.361552
0.363018
0.364338
0.365523
0.366583
0.367522
0.368354
0.369089
0.369724
0.370277
0.370744
0.371131
0.371446
0.37169
0.371869
0.371986
0.372058
0.372047
0.372068
0.371607
0.294007
0.2945
0.297273
0.299915
0.303548
0.307814
0.312437
0.317415
0.322563
0.327624
0.33242
0.336838
0.340814
0.344357
0.347495
0.350278
0.352761
0.354986
0.356989
0.3588
0.360435
0.361914
0.363247
0.364443
0.365514
0.366467
0.36731
0.368058
0.368706
0.369271
0.369753
0.370156
0.370489
0.370754
0.370961
0.371114
0.371235
0.371296
0.371419
0.371104
0.294743
0.294692
0.297048
0.299306
0.302527
0.306504
0.310824
0.315653
0.320759
0.325857
0.330737
0.335255
0.339331
0.34296
0.346169
0.349007
0.35153
0.353787
0.355815
0.357647
0.359299
0.360794
0.36214
0.363349
0.364433
0.365398
0.366255
0.367015
0.367677
0.368255
0.368751
0.36917
0.369521
0.369808
0.370042
0.37023
0.370401
0.370538
0.370776
0.370661
0.296241
0.295164
0.29703
0.298835
0.301572
0.305208
0.309141
0.313771
0.318802
0.323932
0.328909
0.333557
0.337767
0.341516
0.344822
0.347734
0.350312
0.352608
0.354666
0.35652
0.35819
0.359698
0.361056
0.362277
0.36337
0.364347
0.365215
0.365984
0.366658
0.367246
0.367754
0.368186
0.368552
0.368859
0.369116
0.369338
0.369553
0.369764
0.370124
0.370279
0.304688
0.299626
0.299777
0.299588
0.300151
0.30199
0.304198
0.307936
0.312672
0.317985
0.323446
0.328698
0.333501
0.337745
0.341417
0.344569
0.347286
0.34965
0.351735
0.353592
0.355259
0.356761
0.358114
0.359331
0.360424
0.361403
0.362276
0.363052
0.363737
0.364338
0.364864
0.36532
0.365716
0.366062
0.366372
0.366666
0.36698
0.367365
0.368045
0.369115
0.300017
0.297056
0.296279
0.295225
0.294444
0.294761
0.296335
0.299538
0.304158
0.309709
0.315611
0.321367
0.326641
0.331268
0.335225
0.338576
0.341424
0.343874
0.346014
0.347908
0.3496
0.351122
0.352492
0.353727
0.354838
0.355836
0.356729
0.357525
0.358232
0.358855
0.359403
0.359884
0.360305
0.360679
0.361023
0.361359
0.361735
0.362236
0.363133
0.36463
0.291942
0.290517
0.289616
0.28855
0.287371
0.287066
0.288244
0.291244
0.295914
0.301738
0.30805
0.314253
0.319939
0.324903
0.329112
0.332638