/*--------------------------------*- C++ -*----------------------------------*\
  =========                 |
  \\      /  F ield         | OpenFOAM: The Open Source CFD Toolbox
   \\    /   O peration     | Website:  https://openfoam.org
    \\  /    A nd           | Version:  7
     \\/     M anipulation  |
\*---------------------------------------------------------------------------*/
FoamFile
{
    version     2.0;
    format      ascii;
    class       volVectorField;
    location    "8.6";
    object      U;
}
// * * * * * * * * * * * * * * * * * * * * * * * * * * * * * * * * * * * * * //

dimensions      [0 1 -1 0 0 0 0];

internalField   nonuniform List<vector> 
32000
(
(0.0002203 -0.00483923 -2.14265e-22)
(0.0013604 -0.00996258 0)
(0.00355817 -0.0110149 -1.92093e-21)
(0.00641765 -0.00881566 0)
(0.00988571 -0.00395369 2.00515e-21)
(0.0138744 0.0031188 0)
(0.0183255 0.012036 2.07485e-21)
(0.0231943 0.0224969 -1.57816e-21)
(0.0284423 0.0342555 5.91962e-25)
(0.034035 0.0471052 6.52208e-25)
(0.03994 0.0608727 -5.43873e-22)
(0.0461263 0.0754089 2.19581e-21)
(0.0525636 0.0905832 0)
(0.0592207 0.106278 -5.57993e-22)
(0.0660656 0.122385 5.60308e-22)
(0.0730645 0.138802 0)
(0.0801827 0.155433 2.83581e-21)
(0.0873841 0.172184 -5.69101e-22)
(0.0946318 0.188965 0)
(0.101887 0.205688 1.15394e-21)
(0.109111 0.222267 1.15684e-21)
(0.116266 0.23862 0)
(0.123313 0.254665 0)
(0.130215 0.270329 0)
(0.136939 0.285538 0)
(0.14345 0.300228 0)
(0.149718 0.314341 0)
(0.155716 0.327822 0)
(0.16142 0.340627 -2.3985e-21)
(0.166808 0.352719 0)
(0.171867 0.364068 2.42235e-21)
(0.176581 0.374651 0)
(0.180944 0.384456 0)
(0.18495 0.393474 0)
(0.1886 0.401704 -2.46926e-21)
(0.191897 0.409146 -1.25051e-21)
(0.19485 0.415799 3.7548e-21)
(0.197479 0.421651 4.89171e-24)
(0.199794 0.426679 2.53153e-21)
(0.201685 0.430813 4.40535e-24)
(0.00031499 -0.00508818 0)
(0.0015188 -0.0106417 3.74814e-21)
(0.00364685 -0.0120846 9.59194e-22)
(0.00633037 -0.0102466 -1.31949e-24)
(0.00953218 -0.00572755 -1.00277e-21)
(0.013181 0.00101313 0)
(0.0172316 0.00960583 2.07516e-21)
(0.0216499 0.0197473 -2.10443e-21)
(0.0264065 0.0311912 0)
(0.031474 0.0437306 -4.30888e-21)
(0.0368271 0.0571928 0)
(0.0424411 0.0714307 -6.58474e-21)
(0.0482901 0.0863155 0)
(0.0543482 0.101732 0)
(0.0605882 0.117574 2.24428e-21)
(0.0669806 0.133744 -2.25151e-21)
(0.0734948 0.150147 -2.26738e-21)
(0.0800999 0.166693 0)
(0.0867625 0.183295 6.86372e-21)
(0.0934484 0.199867 -2.29259e-21)
(0.100123 0.216327 3.86845e-24)
(0.106752 0.232592 -6.94175e-21)
(0.113301 0.248586 -4.65014e-21)
(0.119735 0.264233 -2.3465e-21)
(0.126023 0.279463 7.03085e-21)
(0.132135 0.29421 -7.08036e-21)
(0.13804 0.308416 7.12215e-21)
(0.143714 0.322025 -9.49741e-21)
(0.149132 0.334991 -2.37797e-21)
(0.154275 0.347276 3.3699e-23)
(0.159125 0.358845 -7.19658e-21)
(0.16367 0.369675 -4.8319e-21)
(0.167901 0.379747 9.76976e-21)
(0.171811 0.389051 -9.7648e-21)
(0.175398 0.39758 -2.44051e-21)
(0.178664 0.40533 -9.90149e-21)
(0.181616 0.412295 -1.03535e-23)
(0.184274 0.418456 2.51001e-21)
(0.186634 0.423787 -9.96698e-21)
(0.18858 0.428209 -1.41086e-20)
(0.000419935 -0.00533903 -8.5935e-22)
(0.00170265 -0.0113177 -1.87386e-21)
(0.00376993 -0.0131263 -8.65211e-21)
(0.00628567 -0.0116278 0)
(0.00923027 -0.00743424 1.00348e-21)
(0.0125487 -0.00101132 -1.02055e-21)
(0.0162089 0.00726776 -1.24501e-20)
(0.0201888 0.0170982 4.20855e-21)
(0.0244677 0.0282323 -2.13167e-21)
(0.0290251 0.0404644 1.29234e-20)
(0.0338424 0.053623 4.35084e-21)
(0.0389003 0.067562 2.19633e-21)
(0.0441785 0.0821546 -8.84206e-21)
(0.049655 0.0972881 0)
(0.0553066 0.112859 0)
(0.0611087 0.128772 4.51022e-21)
(0.0670344 0.144936 1.30667e-23)
(0.0730563 0.161264 -4.54093e-21)
(0.0791456 0.177671 -4.5714e-21)
(0.085272 0.194074 -9.16785e-21)
(0.0914043 0.210394 1.38235e-20)
(0.0975112 0.22655 1.70537e-23)
(0.103562 0.242467 -9.07323e-24)
(0.109525 0.258072 4.64919e-21)
(0.115373 0.273295 -9.39126e-21)
(0.121076 0.288071 1.87911e-20)
(0.126607 0.30234 0)
(0.131942 0.316047 4.75433e-21)
(0.137058 0.329145 4.77642e-21)
(0.141935 0.341592 9.60925e-21)
(0.146557 0.353353 3.36898e-23)
(0.15091 0.364401 0)
(0.154984 0.374715 4.88897e-21)
(0.158772 0.384279 -4.81313e-21)
(0.162271 0.393084 -4.85527e-21)
(0.16548 0.401121 1.48127e-20)
(0.168407 0.408378 -1.47134e-20)
(0.17107 0.414834 9.95822e-21)
(0.17345 0.420454 -1.48189e-20)
(0.175428 0.425154 5.5268e-21)
(0.000534316 -0.00556321 6.87523e-21)
(0.00190754 -0.011929 -7.50736e-21)
(0.00391982 -0.0140844 1.53881e-20)
(0.00627349 -0.0129103 0)
(0.0089667 -0.00903062 6.02097e-21)
(0.0119625 -0.00291695 1.02142e-20)
(0.0152422 0.00505383 2.07443e-21)
(0.0187942 0.0145769 1.6287e-24)
(0.0226071 0.0254026 6.39298e-21)
(0.0266681 0.0373268 -2.15565e-21)
(0.0309646 0.0501791 1.08727e-20)
(0.0354828 0.0638151 -1.31623e-20)
(0.0402069 0.0781103 1.32592e-20)
(0.0451192 0.0929538 -4.45368e-21)
(0.0502003 0.108245 4.4722e-21)
(0.055429 0.123892 -8.9975e-21)
(0.0607823 0.139805 -1.357e-20)
(0.0662364 0.155901 4.53607e-21)
(0.0717657 0.172098 -4.57092e-21)
(0.0773436 0.188316 1.37393e-20)
(0.0829424 0.204476 -9.20503e-21)
(0.0885342 0.220502 -9.22531e-21)
(0.0940907 0.23632 0)
(0.0995847 0.251858 0)
(0.10499 0.267048 -9.33063e-21)
(0.110279 0.281825 -9.39338e-21)
(0.115428 0.296129 -9.40366e-21)
(0.120413 0.309906 0)
(0.125213 0.323107 0)
(0.129809 0.335687 -1.9099e-20)
(0.134185 0.347612 -8.78221e-23)
(0.138326 0.35885 9.64058e-21)
(0.142223 0.369378 -9.61324e-21)
(0.145867 0.379177 -9.7468e-21)
(0.149254 0.388234 9.74247e-21)
(0.152384 0.396536 0)
(0.155262 0.404067 9.84262e-21)
(0.157905 0.410799 -1.97176e-20)
(0.160283 0.416695 1.97462e-20)
(0.162269 0.421664 -2.22996e-20)
(0.000656289 -0.00577704 -3.43411e-21)
(0.00213028 -0.0125092 5.63183e-21)
(0.00409272 -0.014989 -7.69647e-21)
(0.00628891 -0.0141208 0)
(0.00873624 -0.0105399 -1.00369e-20)
(0.0114153 -0.00472408 -6.12971e-21)
(0.0143218 0.00294679 8.30201e-21)
(0.0174554 0.0121672 0)
(0.0208136 0.0226877 -1.27857e-20)
(0.0243907 0.0343052 -4.30962e-21)
(0.0281806 0.0468506 -4.34763e-21)
(0.0321745 0.0601817 8.77726e-21)
(0.0363609 0.0741758 -8.83725e-21)
(0.0407257 0.0887245 4.44433e-21)
(0.0452531 0.10373 0)
(0.0499256 0.119101 1.34999e-20)
(0.054723 0.134754 4.52783e-21)
(0.0596244 0.150607 -9.09124e-21)
(0.0646081 0.16658 1.82292e-20)
(0.0696504 0.182596 -1.83002e-20)
(0.0747265 0.19858 1.83413e-20)
(0.0798114 0.214457 9.22532e-21)
(0.0848801 0.230155 0)
(0.0899082 0.245603 9.31432e-21)
(0.0948714 0.260736 4.0714e-23)
(0.0997457 0.275488 0)
(0.104508 0.289802 9.40369e-21)
(0.109136 0.303621 -9.46422e-21)
(0.11361 0.316895 9.42485e-21)
(0.117912 0.329582 1.90612e-20)
(0.122027 0.341641 -1.90786e-20)
(0.12594 0.353042 1.91311e-20)
(0.129641 0.363758 0)
(0.133122 0.373767 0)
(0.136378 0.383052 1.93791e-20)
(0.139407 0.391596 0)
(0.142214 0.399379 0)
(0.144815 0.406371 -1.96218e-20)
(0.147169 0.412526 1.95512e-20)
(0.149143 0.417753 1.11281e-20)
(0.000784751 -0.00597223 1.72112e-21)
(0.00236711 -0.0130388 0)
(0.00428315 -0.0158197 1.54135e-20)
(0.00632462 -0.0152396 1.96998e-21)
(0.00852911 -0.0119445 2.01068e-21)
(0.0108963 -0.00641722 1.2269e-20)
(0.0134364 0.000960242 1.6612e-20)
(0.0161596 0.00988176 0)
(0.0190728 0.0200987 4.26316e-21)
(0.022178 0.0314091 1.29253e-20)
(0.0254746 0.0436458 1.73945e-20)
(0.0289588 0.0566687 -4.38722e-21)
(0.0326231 0.070357 -1.32519e-20)
(0.0364569 0.0846047 0)
(0.0404478 0.0993165 1.78819e-20)
(0.0445808 0.114405 0)
(0.0488389 0.129787 2.70984e-20)
(0.053204 0.145385 -9.05662e-21)
(0.0576572 0.161121 0)
(0.0621776 0.176922 -9.15744e-21)
(0.0667431 0.192713 -2.47993e-23)
(0.0713316 0.208422 -9.16892e-21)
(0.075921 0.223979 -9.21207e-21)
(0.0804891 0.239317 9.29529e-21)
(0.085014 0.25437 -9.27097e-21)
(0.0894738 0.269074 0)
(0.0938472 0.283371 -9.3993e-21)
(0.0981142 0.297206 9.36342e-21)
(0.102256 0.310528 0)
(0.106256 0.323293 0)
(0.110098 0.335461 0)
(0.11377 0.346998 -1.91618e-20)
(0.117261 0.357875 1.90606e-20)
(0.120562 0.368068 0)
(0.123669 0.377556 -9.66544e-21)
(0.126578 0.38632 0)
(0.129296 0.394335 1.95066e-20)
(0.131836 0.401566 -9.61935e-21)
(0.134145 0.407966 -1.96206e-20)
(0.136088 0.41344 2.19822e-20)
(0.000918439 -0.00615074 1.20658e-20)
(0.00261475 -0.0135206 -1.69302e-20)
(0.00448596 -0.0165792 -2.89109e-20)
(0.00637407 -0.0162695 -1.57673e-20)
(0.00833812 -0.0132469 -4.02001e-21)
(0.010397 -0.00799842 -8.17635e-21)
(0.0125757 -0.000908342 -3.73812e-20)
(0.0148961 0.00771771 -1.26339e-20)
(0.0173739 0.0176324 -2.13119e-20)
(0.0200182 0.0286353 -2.1541e-20)
(0.0228342 0.0405613 -3.04419e-20)
(0.025823 0.0532726 -1.75375e-20)
(0.0289805 0.0666506 2.52408e-24)
(0.0322994 0.0805916 -1.77763e-20)
(0.0357703 0.0950031 -1.78819e-20)
(0.039381 0.1098 -2.696e-20)
(0.0431168 0.124903 1.80434e-20)
(0.0469622 0.140235 -9.05097e-21)
(0.0509007 0.155723 0)
(0.054914 0.171294 1.82541e-20)
(0.0589825 0.186876 0)
(0.0630867 0.202401 3.67715e-20)
(0.0672067 0.217801 0)
(0.071323 0.233008 -9.27877e-21)
(0.0754156 0.247959 9.32782e-21)
(0.0794645 0.262592 -1.85647e-20)
(0.0834506 0.276849 0)
(0.0873551 0.290675 -1.88179e-20)
(0.0911609 0.304019 1.87396e-20)
(0.0948522 0.316837 0)
(0.0984147 0.329087 0)
(0.101836 0.340734 0)
(0.105105 0.351747 -1.90356e-20)
(0.108213 0.362099 0)
(0.111156 0.371767 -1.92851e-20)
(0.11393 0.380727 3.85183e-20)
(0.11654 0.388953 -3.86363e-20)
(0.119002 0.396406 1.91503e-20)
(0.121248 0.403034 3.88484e-20)
(0.123142 0.408743 -2.18878e-20)
(0.00105586 -0.00631028 -1.55128e-20)
(0.00286931 -0.0139512 -1.20187e-23)
(0.00469583 -0.0172635 1.54238e-20)
(0.00643054 -0.0172061 3.15438e-20)
(0.00815496 -0.0144429 -4.0218e-21)
(0.00990821 -0.00946475 -1.63707e-20)
(0.0117302 -0.00265631 1.66149e-20)
(0.0136546 0.00567733 2.52698e-20)
(0.0157056 0.0152904 8.52445e-21)
(0.0178998 0.0259846 2.15428e-20)
(0.0202478 0.0375975 1.73945e-20)
(0.0227549 0.0499935 2.63027e-20)
(0.0254206 0.0630562 5.29913e-20)
(0.0282407 0.0766847 2.66681e-20)
(0.0312084 0.0907891 0)
(0.0343138 0.105287 8.975e-21)
(0.0375445 0.120101 9.00591e-21)
(0.0408872 0.135158 9.04201e-21)
(0.0443276 0.150385 1.8186e-20)
(0.0478494 0.165714 -9.1196e-21)
(0.0514356 0.181074 0)
(0.0550688 0.196399 -1.66379e-23)
(0.0587315 0.211623 -1.84135e-20)
(0.0624059 0.226682 1.84673e-20)
(0.0660741 0.241511 3.7069e-20)
(0.0697183 0.256052 3.72243e-20)
(0.0733206 0.270247 4.42007e-23)
(0.0768643 0.28404 1.86849e-20)
(0.0803336 0.297383 1.87411e-20)
(0.0837138 0.310229 -1.8798e-20)
(0.0869915 0.322536 1.88552e-20)
(0.0901545 0.334268 1.89126e-20)
(0.0931924 0.345392 3.80052e-20)
(0.0960977 0.355879 -1.17582e-22)
(0.0988646 0.365703 5.73168e-20)
(0.10149 0.374838 4.55247e-23)
(0.10398 0.383253 -1.91857e-20)
(0.106348 0.390909 -1.93269e-20)
(0.108515 0.39775 1.92768e-20)
(0.110342 0.403682 2.18396e-20)
(0.00119566 -0.00644983 1.38155e-20)
(0.00312712 -0.014328 1.88287e-20)
(0.0049073 -0.0178694 1.15871e-20)
(0.00648724 -0.0180465 -1.18302e-20)
(0.00797192 -0.0155303 -2.01177e-20)
(0.00942138 -0.0108139 1.63686e-20)
(0.0108908 -0.00428211 0)
(0.0124254 0.00376124 1.68557e-20)
(0.0140581 0.0130729 0)
(0.0158126 0.023457 -3.44742e-20)
(0.0177049 0.0347539 8.70133e-21)
(0.0197439 0.0468303 -4.38436e-20)
(0.0219328 0.0595726 -1.76631e-20)
(0.02427 0.0728828 8.89263e-21)
(0.0267513 0.0866734 1.35037e-23)
(0.0293686 0.100864 -8.9721e-21)
(0.0321116 0.115381 -1.80407e-20)
(0.0349691 0.130152 -3.62224e-20)
(0.0379284 0.145109 0)
(0.0409752 0.160183 2.88782e-23)
(0.0440947 0.175308 -1.82625e-20)
(0.0472716 0.190419 -1.83588e-20)
(0.0504902 0.205451 1.84136e-20)
(0.0537345 0.220344 -1.85253e-20)
(0.0569884 0.235034 1.85002e-20)
(0.0602357 0.249463 -3.7081e-20)
(0.0634607 0.263574 4.56891e-23)
(0.0666478 0.277313 -3.72889e-20)
(0.0697826 0.290632 -1.87412e-20)
(0.0728517 0.303482 -4.86166e-23)
(0.0758426 0.315823 -9.84604e-23)
(0.0787436 0.327617 -1.89127e-20)
(0.0815452 0.338828 -1.89697e-20)
(0.0842398 0.349426 -6.45261e-23)
(0.086822 0.359384 -1.90809e-20)
(0.0892885 0.368671 -7.51416e-23)
(0.0916453 0.377256 -1.92688e-20)
(0.0939067 0.385096 5.73632e-20)
(0.0959811 0.392134 -1.92769e-20)
(0.0977261 0.398276 -2.18687e-20)
(0.00133649 -0.00656791 -1.38178e-20)
(0.00338456 -0.0146484 3.76711e-21)
(0.00511492 -0.0183943 -1.15816e-20)
(0.0065374 -0.0187881 -3.94668e-21)
(0.00778143 -0.0165065 1.60958e-20)
(0.00892842 -0.0120442 -4.09562e-21)
(0.0100489 -0.0057848 4.15735e-21)
(0.0111996 0.00197004 -2.52863e-20)
(0.0124225 0.01098 8.52892e-21)
(0.0137477 0.0210521 1.72388e-20)
(0.0151961 0.0320295 0)
(0.0167807 0.0437819 3.50825e-20)
(0.0185077 0.0561987 0)
(0.0203782 0.0691845 -3.55499e-20)
(0.0223897 0.0826543 -1.78728e-20)
(0.0245363 0.0965308 0)
(0.0268094 0.110742 0)
(0.0291994 0.125218 3.62171e-20)
(0.0316952 0.139893 1.82015e-20)
(0.0342843 0.154701 -3.64691e-20)
(0.0369537 0.169578 1.8256e-20)
(0.03969 0.184461 0)
(0.042479 0.199288 -1.84361e-20)
(0.0453064 0.213998 3.68723e-20)
(0.0481577 0.228531 -1.84409e-20)
(0.0510185 0.24283 -1.85939e-20)
(0.0538743 0.256839 1.85298e-20)
(0.0567114 0.270504 0)
(0.0595165 0.283777 3.74207e-20)
(0.0622773 0.29661 -1.86672e-20)
(0.0649821 0.308963 -1.88561e-20)
(0.0676202 0.320794 -1.46872e-22)
(0.0701824 0.33207 7.55845e-20)
(0.0726619 0.342758 -5.66707e-20)
(0.0750532 0.352827 0)
(0.0773531 0.362245 -1.90593e-20)
(0.0795679 0.37098 -3.82952e-20)
(0.0817116 0.378987 1.89062e-20)
(0.0836813 0.386207 1.91018e-20)
(0.0853316 0.392548 0)
(0.00147681 -0.0066631 -2.76851e-20)
(0.00363774 -0.0149103 -3.77056e-21)
(0.0053132 -0.0188355 3.09358e-20)
(0.00657458 -0.0194284 -3.16132e-20)
(0.00757622 -0.0173698 0)
(0.00842148 -0.0131544 0)
(0.00919644 -0.00716352 -8.32075e-21)
(0.00996941 0.000304068 -2.37921e-24)
(0.0107906 0.00901136 8.53198e-21)
(0.0116968 0.018769 0)
(0.0127137 0.0294234 0)
(0.0138577 0.0408472 -8.76712e-21)
(0.0151378 0.0529329 7.68049e-24)
(0.0165576 0.0655881 8.89159e-21)
(0.0181164 0.0787304 1.78728e-20)
(0.0198099 0.0922849 0)
(0.0216311 0.106182 1.8059e-20)
(0.0235716 0.120354 -1.80623e-20)
(0.0256221 0.134738 -3.63481e-20)
(0.0277714 0.149269 3.64654e-20)
(0.0300082 0.163887 6.7093e-23)
(0.0323204 0.17853 -1.83003e-20)
(0.0346955 0.193137 1.84267e-20)
(0.0371206 0.207649 -3.68227e-20)
(0.0395828 0.22201 0)
(0.0420688 0.236161 1.85747e-20)
(0.044566 0.250049 -3.71338e-20)
(0.0470617 0.263621 1.8552e-20)
(0.049544 0.276828 -1.86698e-20)
(0.0520017 0.289624 -1.87673e-20)
(0.054424 0.301966 -1.89518e-20)
(0.0568007 0.313815 7.51637e-20)
(0.0591237 0.325134 -5.63826e-20)
(0.0613863 0.33589 -3.79043e-20)
(0.0635833 0.34605 3.76874e-20)
(0.0657115 0.35558 0)
(0.0677776 0.364446 3.81497e-20)
(0.069795 0.372604 -3.79109e-20)
(0.0716505 0.379991 -1.91019e-20)
(0.073195 0.386518 0)
(0.00161506 -0.00673418 5.88672e-20)
(0.00388287 -0.0151113 2.64456e-20)
(0.00549683 -0.0191906 -3.09356e-20)
(0.00659228 -0.0199653 2.76595e-20)
(0.00734927 -0.0181186 -4.03118e-21)
(0.00789345 -0.0141434 8.19744e-21)
(0.00832627 -0.00841773 0)
(0.00872741 -0.00123681 -8.43715e-21)
(0.00915547 0.00716654 8.53545e-21)
(0.0096533 0.0166069 8.62796e-21)
(0.010251 0.0269342 -8.70343e-21)
(0.0109682 0.0380245 -8.77852e-21)
(0.0118168 0.0497736 8.83361e-21)
(0.0128023 0.0620919 0)
(0.0139256 0.0748999 0)
(0.0151839 0.088125 -1.79823e-20)
(0.0165715 0.1017 1.80247e-20)
(0.0180812 0.11556 -1.81363e-20)
(0.0197049 0.129642 1.81511e-20)
(0.021433 0.143887 1.82639e-20)
(0.0232553 0.158234 -3.65747e-20)
(0.025161 0.172624 3.66725e-20)
(0.027139 0.186998 7.97906e-23)
(0.0291776 0.2013 -1.83826e-20)
(0.0312653 0.215473 0)
(0.0333902 0.229461 1.85614e-20)
(0.0355408 0.24321 1.08687e-22)
(0.0377058 0.256671 -1.85352e-20)
(0.0398747 0.269794 0)
(0.0420368 0.282534 3.74752e-20)
(0.0441824 0.294847 -3.72966e-20)
(0.0463021 0.306693 0)
(0.0483882 0.318035 3.77265e-20)
(0.0504348 0.328839 -3.75185e-20)
(0.0524367 0.339069 0)
(0.0543908 0.348693 0)
(0.0563039 0.357673 0)
(0.058189 0.365965 -3.80744e-20)
(0.0599226 0.373506 3.78304e-20)
(0.0613521 0.38021 4.34615e-20)
(0.00174962 -0.00677988 -2.77157e-20)
(0.00411598 -0.0152495 -3.02194e-20)
(0.00566033 -0.0194576 -3.87189e-21)
(0.00658433 -0.0203972 1.18669e-20)
(0.00709401 -0.0187515 -1.61283e-20)
(0.00733755 -0.0150104 1.64057e-20)
(0.00743176 -0.00954737 -1.66557e-20)
(0.00746739 -0.00265293 -2.53293e-20)
(0.00751106 0.00544478 0)
(0.00761141 0.0145646 -8.63154e-21)
(0.00780266 0.0245605 8.70705e-21)
(0.0081076 0.0353123 0)
(0.00854033 0.0467192 1.76893e-20)
(0.00910823 0.0586944 -1.7781e-20)
(0.00981362 0.0711612 -5.36817e-20)
(0.0106549 0.0840496 -3.163e-23)
(0.0116275 0.0972943 3.61022e-20)
(0.0127255 0.110833 -1.80983e-20)
(0.0139417 0.124606 0)
(0.0152676 0.138554 0)
(0.0166941 0.15262 3.65888e-20)
(0.0182116 0.166746 1.83747e-20)
(0.0198101 0.180875 -1.83445e-20)
(0.0214793 0.194953 -1.84678e-20)
(0.0232085 0.208924 3.6931e-20)
(0.0249872 0.222734 -1.84551e-20)
(0.026805 0.23633 3.71904e-20)
(0.0286521 0.249663 -7.43198e-20)
(0.0305185 0.262685 7.44673e-20)
(0.0323948 0.27535 -7.46131e-20)
(0.0342718 0.287615 7.47567e-20)
(0.036141 0.29944 -7.48973e-20)
(0.0379954 0.310786 3.73817e-20)
(0.0398293 0.321619 3.77201e-20)
(0.0416379 0.331903 2.80291e-22)
(0.0434178 0.341602 2.84048e-22)
(0.045176 0.350679 -3.76143e-20)
(0.046925 0.359092 1.92821e-22)
(0.0485315 0.366775 -3.77027e-20)
(0.0498385 0.373645 0)
(0.00187879 -0.00679914 3.46997e-21)
(0.00433317 -0.015323 -3.78284e-21)
(0.00579845 -0.0196348 1.16228e-20)
(0.00654468 -0.0207227 -1.58326e-20)
(0.00680419 -0.0192679 8.06858e-21)
(0.00674767 -0.0157553 0)
(0.00650704 -0.0105526 0)
(0.00618383 -0.00394495 3.37685e-20)
(0.00585236 0.00384501 4.2733e-20)
(0.00556667 0.0126409 -8.6325e-21)
(0.00536477 0.0223011 4.35774e-20)
(0.00527223 0.0327092 -8.7806e-21)
(0.00530525 0.043768 0)
(0.00547274 0.055394 0)
(0.00577821 0.067513 3.57817e-20)
(0.00622116 0.0800574 0)
(0.00679801 0.0929643 1.80519e-20)
(0.00750372 0.106174 -1.8163e-20)
(0.00833202 0.119628 0)
(0.00927541 0.133271 -3.65084e-20)
(0.0103256 0.147045 -1.82572e-20)
(0.011474 0.160897 -5.5013e-20)
(0.0127116 0.17477 -1.84275e-20)
(0.0140293 0.188611 1.8388e-20)
(0.0154172 0.202367 3.69392e-20)
(0.016866 0.215985 0)
(0.0183664 0.229413 3.70776e-20)
(0.0199096 0.242603 7.43971e-20)
(0.0214866 0.255508 2.26938e-22)
(0.0230887 0.268082 -3.71594e-20)
(0.0247073 0.280282 -3.74644e-20)
(0.0263349 0.292068 3.72758e-20)
(0.0279649 0.303401 3.75914e-20)
(0.0295919 0.314246 -7.50336e-20)
(0.0312112 0.324565 7.51372e-20)
(0.0328193 0.334324 -3.76535e-20)
(0.0344231 0.343484 3.75228e-20)
(0.036034 0.352004 7.54057e-20)
(0.0375104 0.359817 3.7669e-20)
(0.0386896 0.366845 4.29511e-20)
(0.00200081 -0.00679097 -2.78054e-20)
(0.0045304 -0.0153306 2.65092e-20)
(0.00590595 -0.019721 -2.32754e-20)
(0.00646757 -0.0209409 2.37761e-20)
(0.00647395 -0.0196672 4.03817e-20)
(0.00611818 -0.016378 -3.28599e-20)
(0.00554696 -0.0114341 4.16955e-20)
(0.00487214 -0.00511387 2.5357e-20)
(0.00417538 0.002366 -5.9843e-20)
(0.00351571 0.0108344 1.72865e-20)
(0.00293458 0.0201543 8.736e-21)
(0.00246003 0.0302136 1.75829e-20)
(0.00211006 0.0409188 1.77192e-20)
(0.00189486 0.0521893 -3.5633e-20)
(0.00181895 0.0639539 3.58291e-20)
(0.00188271 0.0761474 5.40164e-20)
(0.00208349 0.0887092 -5.41871e-20)
(0.00241699 0.101582 7.25721e-20)
(0.00287764 0.114709 3.64255e-20)
(0.00345868 0.128037 5.47989e-20)
(0.00415261 0.141511 1.83568e-20)
(0.0049517 0.155078 3.67016e-20)
(0.00584795 0.168684 -3.68113e-20)
(0.00683291 0.182278 0)
(0.00789786 0.195807 -1.10935e-19)
(0.00903426 0.209219 7.40355e-20)
(0.010234 0.222466 -3.68794e-20)
(0.011489 0.235499 -3.69337e-20)
(0.0127911 0.248271 1.09501e-22)
(0.0141324 0.260738 0)
(0.0155048 0.272857 0)
(0.0169016 0.284588 3.73594e-20)
(0.0183166 0.295892 -3.75449e-20)
(0.0197446 0.306733 3.7338e-20)
(0.0211809 0.317073 -3.76364e-20)
(0.0226218 0.326876 -3.76811e-20)
(0.0240737 0.336106 0)
(0.0255471 0.344721 -3.74864e-20)
(0.0268921 0.352655 -3.74142e-20)
(0.0279401 0.359833 -1.28978e-19)
(0.0021139 -0.0067546 2.78047e-20)
(0.00470368 -0.015271 -2.65075e-20)
(0.00597769 -0.0197152 3.10285e-20)
(0.00634748 -0.0210514 -5.5491e-20)
(0.00609788 -0.0199497 -4.03871e-20)
(0.00544404 -0.0168793 3.28599e-20)
(0.00454705 -0.0121928 -6.67358e-20)
(0.00352859 -0.00616094 -3.38054e-20)
(0.00247713 0.00100628 4.27617e-20)
(0.00145628 0.00914345 -7.77914e-20)
(0.00051059 0.0181186 -5.23337e-20)
(-0.000329763 0.0278241 -1.76054e-20)
(-0.00104534 0.0381702 -5.31343e-20)
(-0.00162486 0.0490793 5.34467e-20)
(-0.00206298 0.0604831 -3.58293e-20)
(-0.00235861 0.072319 -3.60043e-20)
(-0.00251366 0.0845287 0)
(-0.00253177 0.0970569 -3.63006e-20)
(-0.00241799 0.10985 -5.46732e-20)
(-0.00217849 0.122855 1.82499e-20)
(-0.0018201 0.136019 -3.6638e-20)
(-0.00134978 0.149292 0)
(-0.000774753 0.162621 3.68116e-20)
(-0.000102701 0.175956 3.69845e-20)
(0.000658473 0.189247 -3.6917e-20)
(0.00150113 0.202442 0)
(0.002418 0.215494 0)
(0.00340185 0.228357 0)
(0.00444521 0.240983 9.91836e-24)
(0.0055406 0.253329 0)
(0.00668087 0.265352 -7.47288e-20)
(0.00785957 0.277013 -1.26076e-22)
(0.00907099 0.288273 -7.48963e-20)
(0.01031 0.299094 7.48564e-20)
(0.0115717 0.309441 -3.73358e-20)
(0.0128519 0.319276 3.75152e-20)
(0.0141565 0.328562 0)
(0.0154947 0.337263 7.52133e-20)
(0.0167094 0.34531 -3.74057e-20)
(0.0176244 0.352632 0)
(0.00221625 -0.00668942 3.48133e-21)
(0.00484905 -0.0151435 0)
(0.00600872 -0.0196171 -3.88422e-20)
(0.00617915 -0.0210542 4.75857e-20)
(0.00567099 -0.0201158 2.42648e-20)
(0.00472082 -0.0172602 -3.29006e-20)
(0.00350362 -0.0128301 3.33779e-20)
(0.0021503 -0.00708772 -3.38465e-20)
(0.000755586 -0.000235817 0)
(-0.000612768 0.00756647 3.45853e-20)
(-0.00190749 0.0161926 -3.49286e-20)
(-0.00309666 0.0255394 -2.63496e-23)
(-0.00415969 0.0355209 0)
(-0.00508442 0.046063 3.5693e-20)
(-0.00586486 0.0571 -1.79406e-20)
(-0.00649941 0.068572 3.61069e-20)
(-0.00698938 0.080423 1.81451e-20)
(-0.00733791 0.0925998 -3.63753e-20)
(-0.00754961 0.105051 0)
(-0.00763023 0.117725 5.49415e-20)
(-0.00758601 0.130572 1.83997e-20)
(-0.00742324 0.143541 0)
(-0.00714849 0.156584 0)
(-0.00676877 0.169651 0)
(-0.00629123 0.182692 3.69885e-20)
(-0.00572268 0.195659 0)
(-0.00506964 0.208505 -3.72195e-20)
(-0.00433872 0.221184 7.43535e-20)
(-0.00353677 0.233651 -7.43357e-20)
(-0.00267071 0.245862 0)
(-0.00174712 0.257776 3.73071e-20)
(-0.000772051 0.269353 -3.73486e-20)
(0.000248981 0.280555 3.73842e-20)
(0.00131082 0.291344 0)
(0.00240821 0.301684 0)
(0.00353635 0.311538 3.75638e-20)
(0.00470026 0.320872 -3.73348e-20)
(0.00590752 0.329648 7.51535e-20)
(0.00699464 0.337801 -7.46718e-20)
(0.0077769 0.345262 0)
(0.00230599 -0.006595 2.44133e-20)
(0.00496253 -0.0149477 7.59195e-21)
(0.00599424 -0.0194267 3.1076e-20)
(0.0059577 -0.02095 3.17637e-20)
(0.00518874 -0.0201667 -3.23494e-20)
(0.0039447 -0.017522 3.29006e-20)
(0.00241372 -0.0133476 3.34195e-20)
(0.000735256 -0.00789606 3.38466e-20)
(-0.000990283 -0.00136215 0)
(-0.00269149 0.00610171 3.46324e-20)
(-0.0043188 0.0143746 3.49288e-20)
(-0.00583891 0.0233581 3.5214e-20)
(-0.00723036 0.0329701 0)
(-0.0084804 0.0431398 3.49746e-23)
(-0.00958252 0.0538044 3.58941e-20)
(-0.0105348 0.0649067 -1.80082e-20)
(-0.0113381 0.0763929 -1.80646e-20)
(-0.0119951 0.0882119 5.45983e-20)
(-0.0125103 0.100314 5.1768e-23)
(-0.0128889 0.11265 -1.82433e-20)
(-0.0131369 0.125172 -3.67168e-20)
(-0.0132597 0.13783 0)
(-0.0132636 0.150578 0)
(-0.0131548 0.163366 0)
(-0.0129399 0.176148 0)
(-0.0126249 0.188876 0)
(-0.0122157 0.201505 0)
(-0.0117184 0.213989 3.73066e-20)
(-0.0111393 0.226284 -3.71515e-20)
(-0.0104847 0.238348 0)
(-0.0097608 0.25014 0)
(-0.0089734 0.261621 3.7349e-20)
(-0.00812795 0.272752 0)
(-0.00722978 0.283496 3.75083e-20)
(-0.0062846 0.293818 -3.72937e-20)
(-0.00529812 0.303681 0)
(-0.00426661 0.313052 7.50636e-20)
(-0.00318421 0.321897 -7.45937e-20)
(-0.00221993 0.33015 0)
(-0.0015685 0.337745 0)
(0.00238129 -0.00647114 -2.7897e-20)
(0.00504024 -0.0146838 -7.59631e-21)
(0.00592966 -0.0191446 7.77835e-21)
(0.00567857 -0.0207399 -3.17637e-20)
(0.00464714 -0.0201039 0)
(0.0031125 -0.0176668 0)
(0.00127514 -0.0137475 -2.50615e-20)
(-0.000717689 -0.00858811 -8.46928e-21)
(-0.00276055 -0.00237477 -1.71451e-20)
(-0.00477891 0.00474734 -1.73136e-20)
(-0.00672135 0.0126631 -1.74913e-20)
(-0.00855357 0.0212791 1.76219e-20)
(-0.0102535 0.030517 1.77645e-20)
(-0.011808 0.0403095 -1.78667e-20)
(-0.0132104 0.0505967 0)
(-0.0144583 0.061324 0)
(-0.0155526 0.0724398 -3.62765e-20)
(-0.0164956 0.0838953 0)
(-0.0172915 0.0956423 0)
(-0.0179455 0.107634 3.68055e-20)
(-0.0184628 0.119823 1.26712e-22)
(-0.0188487 0.132162 9.66705e-23)
(-0.0191088 0.144607 -3.70418e-20)
(-0.0192489 0.157109 3.69623e-20)
(-0.0192748 0.169622 3.71328e-20)
(-0.0191919 0.182101 -3.71883e-20)
(-0.0190057 0.194502 0)
(-0.0187216 0.20678 3.73484e-20)
(-0.0183456 0.218893 1.9703e-22)
(-0.0178835 0.230798 -3.72229e-20)
(-0.017341 0.242456 0)
(-0.016724 0.253828 0)
(-0.0160379 0.264876 3.74972e-20)
(-0.0152883 0.275565 -3.72906e-20)
(-0.0144816 0.285858 -3.75119e-20)
(-0.0136247 0.29572 3.72899e-20)
(-0.0127155 0.30512 0)
(-0.0117502 0.314027 0)
(-0.0109022 0.322377 0)
(-0.0103779 0.330105 -4.27517e-20)
(0.00244032 -0.00631787 3.4941e-20)
(0.00507843 -0.0143523 -1.52092e-20)
(0.00581065 -0.018772 7.78456e-21)
(0.00533764 -0.0204255 0)
(0.00404274 -0.0199296 4.05112e-20)
(0.00222172 -0.0176969 2.87112e-25)
(8.64777e-05 -0.0140323 3.34634e-20)
(-0.0022088 -0.0091663 -2.54285e-20)
(-0.00455433 -0.00327589 3.43091e-20)
(-0.00687304 0.00350143 -1.73318e-20)
(-0.0091121 0.0110567 0)
(-0.0112365 0.0193012 1.76551e-20)
(-0.013224 0.0281611 -5.33002e-20)
(-0.0150614 0.0375722 0)
(-0.0167416 0.0474776 5.40342e-20)
(-0.0182624 0.0578252 -3.61698e-20)
(-0.0196244 0.0685659 -3.63516e-20)
(-0.0208301 0.0796525 1.82258e-20)
(-0.0218834 0.091039 0)
(-0.0227891 0.10268 -3.67194e-20)
(-0.0235524 0.11453 -3.69196e-20)
(-0.0241781 0.126544 -3.64384e-23)
(-0.0246713 0.138677 3.70627e-20)
(-0.0250373 0.150885 3.71805e-20)
(-0.0252815 0.163121 -7.42166e-20)
(-0.0254086 0.175343 3.71887e-20)
(-0.0254236 0.187506 0)
(-0.0253316 0.199568 -3.7338e-20)
(-0.025138 0.211487 3.73705e-20)
(-0.0248483 0.223223 3.73964e-20)
(-0.0244679 0.234736 -3.74157e-20)
(-0.0240027 0.245988 3.74281e-20)
(-0.0234583 0.256943 0)
(-0.0228408 0.267565 3.75209e-20)
(-0.0221574 0.277819 7.51474e-20)
(-0.0214165 0.287672 -7.45878e-20)
(-0.0206181 0.297094 7.49722e-20)
(-0.0197602 0.306059 4.05775e-22)
(-0.0190203 0.314502 -3.71249e-20)
(-0.0186176 0.32236 8.55506e-20)
(0.00248128 -0.00613546 -2.09693e-20)
(0.00507348 -0.0139542 -4.56728e-20)
(0.00563323 -0.0183106 3.11706e-20)
(0.00493127 -0.0200093 -2.38711e-20)
(0.00337266 -0.0196465 -8.08568e-21)
(0.00127056 -0.0176152 8.24318e-21)
(-0.00115289 -0.0142047 -1.67242e-20)
(-0.00373749 -0.00963329 -1.69609e-20)
(-0.00636983 -0.00406786 1.71709e-20)
(-0.00897088 0.00236206 -3.47011e-20)
(-0.0114869 0.00955381 -1.49382e-23)
(-0.0138827 0.0174238 1.76537e-20)
(-0.0161358 0.0259022 0)
(-0.0182332 0.0349283 -1.79303e-20)
(-0.020168 0.0444483 -1.80141e-20)
(-0.0219379 0.0544123 3.62079e-20)
(-0.0235437 0.0647737 0)
(-0.024988 0.0754871 0)
(-0.0262744 0.0865083 3.67485e-20)
(-0.0274078 0.0977935 -3.67533e-20)
(-0.0283929 0.109299 0)
(-0.0292343 0.120982 3.70859e-20)
(-0.0299368 0.132798 -3.69145e-20)
(-0.0305053 0.144703 -7.43442e-20)
(-0.0309444 0.156655 -1.63851e-22)
(-0.0312587 0.16861 3.7252e-20)
(-0.0314524 0.180527 -7.46154e-20)
(-0.0315305 0.192364 3.73383e-20)
(-0.0314977 0.20408 -3.73708e-20)
(-0.0313594 0.215636 1.25541e-22)
(-0.0311208 0.226993 7.25484e-23)
(-0.0307878 0.238115 -3.74284e-20)
(-0.0303664 0.248966 -3.74771e-20)
(-0.0298633 0.259511 -3.74677e-20)
(-0.0292867 0.269718 2.81895e-23)
(-0.0286467 0.279554 0)
(-0.0279457 0.288992 -3.73932e-20)
(-0.0271843 0.298009 7.48856e-20)
(-0.0265423 0.306545 -1.11709e-19)
(-0.0262541 0.314533 4.04341e-22)
(0.00250243 -0.00592442 -7.00089e-21)
(0.00502201 -0.0134911 6.09246e-20)
(0.00539377 -0.0177626 -3.11684e-20)
(0.0044563 -0.019494 2.38681e-20)
(0.00263469 -0.0192577 -6.48798e-20)
(0.000257947 -0.0174249 8.24813e-21)
(-0.00244279 -0.014268 -3.35047e-20)
(-0.00530228 -0.00999196 0)
(-0.00820431 -0.00475312 0)
(-0.0110685 0.00132732 -3.47422e-20)
(-0.0138407 0.00815322 1.75397e-20)
(-0.0164858 0.0156462 1.61256e-23)
(-0.0189815 0.0237404 1.78032e-20)
(-0.0213152 0.0323789 0)
(-0.0234803 0.0415105 -5.41819e-20)
(-0.0254748 0.051088 1.81235e-20)
(-0.0272996 0.0610667 -3.64907e-20)
(-0.0289574 0.0714034 0)
(-0.030452 0.0820555 0)
(-0.031788 0.0929808 2.80261e-23)
(-0.03297 0.104137 -3.69256e-20)
(-0.0340025 0.115483 3.71272e-20)
(-0.0348898 0.126976 -3.72499e-20)
(-0.0356365 0.138573 3.717e-20)
(-0.0362467 0.150234 4.15723e-23)
(-0.0367245 0.161915 4.558e-23)
(-0.0370739 0.173578 3.73704e-20)
(-0.0372992 0.18518 -3.74844e-20)
(-0.0374051 0.196684 0)
(-0.0373964 0.20805 -3.75866e-20)
(-0.0372785 0.219242 3.74075e-20)
(-0.0370572 0.230224 0)
(-0.0367391 0.240961 3.74774e-20)
(-0.0363314 0.251421 -3.77042e-20)
(-0.0358439 0.261572 3.72914e-20)
(-0.0352885 0.271384 0)
(-0.0346703 0.280833 1.12389e-19)
(-0.0339926 0.289899 -7.45255e-20)
(-0.0334367 0.298525 0)
(-0.0332541 0.306645 4.2809e-20)
(0.00250212 -0.00568546 5.60917e-20)
(0.00492087 -0.0129648 -3.04743e-20)
(0.00508903 -0.017131 -7.79835e-21)
(0.00391015 -0.0188832 7.96556e-21)
(0.00182728 -0.018767 3.24498e-20)
(-0.00081644 -0.0171298 0)
(-0.00378222 -0.0142257 3.35049e-20)
(-0.00690084 -0.0102454 5.09758e-20)
(-0.0100541 -0.00533423 1.7188e-20)
(-0.013161 0.000395288 1.73561e-20)
(-0.0161674 0.00685372 1.75386e-20)
(-0.0190385 0.0139679 -5.3091e-20)
(-0.0217528 0.0216763 1.7823e-20)
(-0.0242981 0.0299252 7.18877e-20)
(-0.0266683 0.0386665 1.80253e-20)
(-0.0288618 0.0478553 1.81503e-20)
(-0.0308799 0.0574492 3.64911e-20)
(-0.0327254 0.0674066 0)
(-0.0344024 0.0776867 0)
(-0.0359153 0.0882489 7.39353e-20)
(-0.0372686 0.0990527 -1.4835e-19)
(-0.0384666 0.110058 -3.13626e-23)
(-0.0395136 0.121222 0)
(-0.0404136 0.132507 0)
(-0.0411703 0.143869 3.73527e-20)
(-0.0417874 0.155271 0)
(-0.0422686 0.166672 0)
(-0.0426179 0.178032 -3.76556e-20)
(-0.0428396 0.189315 -7.51891e-20)