-0.362837 	0.362837 	0.5 	0.0214256 	0.0210768 	-9.29897e-24
-0.380512 	0.380512 	0.5 	0.0582073 	0.0584064 	1.59916e-21
-0.398188 	0.398188 	0.5 	0.0899778 	0.0921832 	-8.26969e-22
-0.415863 	0.415863 	0.5 	0.117796 	0.122502 	6.81552e-21
-0.433538 	0.433538 	0.5 	0.142287 	0.149701 	0
-0.451213 	0.451213 	0.5 	0.163979 	0.174029 	5.39826e-21
-0.468888 	0.468888 	0.5 	0.183283 	0.195714 	9.28413e-21
-0.486563 	0.486563 	0.5 	0.200532 	0.214965 	5.67242e-21
-0.504238 	0.504238 	0.5 	0.215995 	0.231976 	-3.84755e-21
-0.521913 	0.521913 	0.5 	0.229895 	0.246924 	-9.89669e-21
-0.539588 	0.539588 	0.5 	0.24242 	0.259978 	0
-0.557263 	0.557263 	0.5 	0.253727 	0.271292 	8.17395e-21
-0.574938 	0.574938 	0.5 	0.26395 	0.281015 	4.18627e-21
-0.592613 	0.592613 	0.5 	0.273205 	0.289281 	-6.02177e-23
-0.610288 	0.610288 	0.5 	0.281593 	0.29622 	-2.04688e-23
-0.627963 	0.627963 	0.5 	0.289201 	0.301949 	1.71364e-20
-0.645638 	0.645638 	0.5 	0.296105 	0.306579 	-4.31995e-21
-0.663313 	0.663313 	0.5 	0.302373 	0.310211 	1.2999e-20
-0.680988 	0.680988 	0.5 	0.308063 	0.312939 	-4.36171e-21
-0.698663 	0.698663 	0.5 	0.313228 	0.314848 	1.30814e-20
-0.716338 	0.716338 	0.5 	0.317914 	0.316018 	-8.76663e-21
-0.734013 	0.734013 	0.5 	0.322159 	0.316517 	1.30974e-20
-0.751688 	0.751688 	0.5 	0.326 	0.31641 	4.37933e-21
-0.769363 	0.769363 	0.5 	0.329467 	0.315755 	-1.30611e-20
-0.787038 	0.787038 	0.5 	0.332585 	0.314603 	0
-0.804713 	0.804713 	0.5 	0.335378 	0.312998 	-8.62794e-21
-0.822388 	0.822388 	0.5 	0.337863 	0.31098 	0
-0.840063 	0.840063 	0.5 	0.340057 	0.308584 	-8.53456e-21
-0.857738 	0.857738 	0.5 	0.34197 	0.305838 	0
-0.875413 	0.875413 	0.5 	0.343614 	0.302769 	8.41196e-21
-0.893088 	0.893088 	0.5 	0.344992 	0.299397 	0
-0.910763 	0.910763 	0.5 	0.346107 	0.295737 	8.26171e-21
-0.928438 	0.928438 	0.5 	0.346958 	0.291803 	-8.17648e-21
-0.946113 	0.946113 	0.5 	0.347541 	0.287601 	0
-0.963788 	0.963788 	0.5 	0.347845 	0.283134 	-7.98485e-21
-0.981463 	0.981463 	0.5 	0.347854 	0.278401 	7.87705e-21
-0.999138 	0.999138 	0.5 	0.347541 	0.273395 	0
-1.01681 	1.01681 	0.5 	0.346889 	0.268079 	0
-1.03449 	1.03449 	0.5 	0.345937 	0.262357 	-7.44792e-21
-1.05216 	1.05216 	0.5 	0.344593 	0.256362 	-8.45916e-21
-1.061 	1.061 	0.5 	0.338244 	0.240547 	6.90483e-21
-1.12274 	1.12274 	0.5 	0.330069 	0.229694 	0
-1.18448 	1.18448 	0.5 	0.314799 	0.198486 	0
-1.24621 	1.24621 	0.5 	0.311459 	0.175179 	0
-1.30795 	1.30795 	0.5 	0.30667 	0.157721 	0
-1.36969 	1.36969 	0.5 	0.289266 	0.119073 	0
-1.43142 	1.43142 	0.5 	0.281677 	0.101683 	0
-1.49316 	1.49316 	0.5 	0.263088 	0.058747 	0
-1.5549 	1.5549 	0.5 	0.244282 	0.0133304 	0
-1.61664 	1.61664 	0.5 	0.23416 	-0.00569636 	0
-1.67838 	1.67838 	0.5 	0.215092 	-0.0523827 	0
