1.11936e-18 	0.5125 	0.5 	0.009322 	0.000303897 	0
1.11936e-18 	0.5375 	0.5 	0.0278783 	0.00259049 	0
1.11936e-18 	0.5625 	0.5 	0.0461969 	0.00726148 	-1.05229e-22
1.11936e-18 	0.5875 	0.5 	0.0641622 	0.0133131 	0
1.11936e-18 	0.6125 	0.5 	0.0816954 	0.0205148 	0
1.11936e-18 	0.6375 	0.5 	0.0987473 	0.0285666 	-1.28929e-22
1.11936e-18 	0.6625 	0.5 	0.115287 	0.0372463 	0
1.11936e-18 	0.6875 	0.5 	0.131297 	0.0463763 	0
1.11936e-18 	0.7125 	0.5 	0.146767 	0.0558132 	0
1.11936e-18 	0.7375 	0.5 	0.161692 	0.0654404 	0
1.11936e-18 	0.7625 	0.5 	0.176075 	0.0751628 	0
1.11936e-18 	0.7875 	0.5 	0.189917 	0.0849023 	-1.6308e-22
1.11936e-18 	0.8125 	0.5 	0.203225 	0.0945944 	0
1.11936e-18 	0.8375 	0.5 	0.216006 	0.104186 	0
1.11936e-18 	0.8625 	0.5 	0.228268 	0.113634 	0
1.11936e-18 	0.8875 	0.5 	0.240021 	0.1229 	0
1.11936e-18 	0.9125 	0.5 	0.251274 	0.131957 	-4.51992e-23
1.11936e-18 	0.9375 	0.5 	0.262038 	0.140779 	4.52921e-23
1.11936e-18 	0.9625 	0.5 	0.272324 	0.149346 	0
1.11936e-18 	0.9875 	0.5 	0.282143 	0.157643 	0
1.11936e-18 	1.0125 	0.5 	0.291506 	0.165657 	1.88004e-22
1.11936e-18 	1.0375 	0.5 	0.300424 	0.17338 	0
1.11936e-18 	1.0625 	0.5 	0.30891 	0.180804 	0
1.11936e-18 	1.0875 	0.5 	0.316975 	0.187924 	0
1.11936e-18 	1.1125 	0.5 	0.32463 	0.194739 	0
1.11936e-18 	1.1375 	0.5 	0.331887 	0.201248 	0
1.11936e-18 	1.1625 	0.5 	0.338757 	0.207451 	0
1.11936e-18 	1.1875 	0.5 	0.345251 	0.21335 	1.92308e-22
1.11936e-18 	1.2125 	0.5 	0.35138 	0.21895 	0
1.11936e-18 	1.2375 	0.5 	0.357154 	0.224254 	-1.9191e-22
1.11936e-18 	1.2625 	0.5 	0.362584 	0.229268 	0
1.11936e-18 	1.2875 	0.5 	0.367678 	0.233998 	0
1.11936e-18 	1.3125 	0.5 	0.372446 	0.238451 	0
1.11936e-18 	1.3375 	0.5 	0.376896 	0.242635 	-9.45925e-23
1.11936e-18 	1.3625 	0.5 	0.381035 	0.246558 	9.40818e-23
1.11936e-18 	1.3875 	0.5 	0.384868 	0.250229 	0
1.11936e-18 	1.4125 	0.5 	0.388401 	0.253657 	0
1.11936e-18 	1.4375 	0.5 	0.391638 	0.256851 	0
1.11936e-18 	1.4625 	0.5 	0.39458 	0.259818 	0
1.11936e-18 	1.4875 	0.5 	0.397226 	0.262574 	0
1.11936e-18 	1.55625 	0.5 	0.403696 	0.269719 	6.74758e-23
1.11936e-18 	1.66875 	0.5 	0.41165 	0.277877 	0
1.11936e-18 	1.78125 	0.5 	0.415666 	0.282122 	0
1.11936e-18 	1.89375 	0.5 	0.417044 	0.283306 	6.43537e-23
1.11936e-18 	2.00625 	0.5 	0.415917 	0.28141 	6.26609e-23
1.11936e-18 	2.11875 	0.5 	0.412868 	0.277024 	-6.06317e-23
1.11936e-18 	2.23125 	0.5 	0.40815 	0.270365 	2.86132e-23
1.11936e-18 	2.34375 	0.5 	0.402035 	0.261778 	-8.48965e-23
