/*--------------------------------*- C++ -*----------------------------------*\
  =========                 |
  \\      /  F ield         | OpenFOAM: The Open Source CFD Toolbox
   \\    /   O peration     | Website:  https://openfoam.org
    \\  /    A nd           | Version:  7
     \\/     M anipulation  |
\*---------------------------------------------------------------------------*/
FoamFile
{
    version     2.0;
    format      ascii;
    class       volScalarField;
    location    "10";
    object      p;
}
// * * * * * * * * * * * * * * * * * * * * * * * * * * * * * * * * * * * * * //

dimensions      [0 2 -2 0 0 0 0];

internalField   nonuniform List<scalar> 
8000
(
0.108064
0.110243
0.111604
0.11312
0.114668
0.116257
0.117888
0.119554
0.121247
0.122956
0.124674
0.126394
0.128108
0.12981
0.131496
0.133161
0.134801
0.13641
0.137985
0.139534
0.10759
0.10981
0.111207
0.112757
0.11433
0.115934
0.117571
0.119233
0.120911
0.122597
0.124283
0.125963
0.127632
0.129283
0.130913
0.132518
0.134097
0.13564
0.137135
0.138642
0.107077
0.109361
0.110803
0.112395
0.114
0.115626
0.117275
0.118937
0.120606
0.122273
0.123931
0.125576
0.127202
0.128804
0.13038
0.131927
0.133444
0.134922
0.136336
0.137796
0.106579
0.108931
0.11042
0.112055
0.113695
0.115347
0.11701
0.118676
0.120339
0.12199
0.123624
0.125236
0.126822
0.128377
0.1299
0.131389
0.132846
0.134257
0.135591
0.136996
0.106098
0.108519
0.110056
0.111736
0.113414
0.115094
0.116775
0.118449
0.120109
0.121748
0.123361
0.124943
0.126491
0.128001
0.129473
0.130905
0.132301
0.133646
0.134899
0.136243
0.105629
0.108117
0.109702
0.111431
0.11315
0.114862
0.116566
0.118252
0.119913
0.121544
0.12314
0.124696
0.126209
0.127678
0.1291
0.130476
0.131812
0.13309
0.134262
0.135536
0.105169
0.107722
0.109359
0.11114
0.112904
0.114652
0.116382
0.118084
0.119752
0.121379
0.122961
0.124495
0.125977
0.127406
0.128781
0.130103
0.131379
0.132592
0.133682
0.134878
0.104714
0.107331
0.109022
0.110858
0.112672
0.11446
0.116221
0.117944
0.119622
0.12125
0.122823
0.124338
0.125793
0.127186
0.128517
0.129787
0.131004
0.132152
0.133161
0.134268
0.104261
0.106941
0.108689
0.110584
0.11245
0.114284
0.11608
0.117828
0.119522
0.121155
0.122724
0.124225
0.125657
0.127018
0.128308
0.129529
0.130689
0.131772
0.1327
0.133707
0.103804
0.106547
0.108354
0.110312
0.112236
0.114119
0.115955
0.117734
0.119448
0.121091
0.12266
0.124152
0.125565
0.126899
0.128152
0.129328
0.130433
0.131454
0.132304
0.133198
0.103336
0.106145
0.108015
0.110039
0.112025
0.113962
0.115843
0.117656
0.119395
0.121053
0.122627
0.124115
0.125515
0.126827
0.128049
0.129184
0.130239
0.131202
0.131976
0.132745
0.102849
0.105728
0.107665
0.109761
0.111813
0.113809
0.115739
0.117592
0.119359
0.121037
0.122621
0.12411
0.125503
0.126799
0.127997
0.129097
0.130107
0.131016
0.13172
0.132353
0.102335
0.105291
0.107301
0.109474
0.111597
0.113655
0.115639
0.117535
0.119335
0.121037
0.122636
0.124131
0.125523
0.12681
0.127991
0.129065
0.130038
0.130902
0.131546
0.132031
0.101786
0.104829
0.106917
0.109172
0.111371
0.113497
0.115537
0.11748
0.119318
0.121046
0.122664
0.124171
0.125567
0.126852
0.128026
0.129084
0.130031
0.130863
0.131463
0.131791
0.101193
0.104335
0.106508
0.108851
0.111132
0.113329
0.11543
0.117422
0.119299
0.121058
0.122698
0.12422
0.125627
0.126918
0.128092
0.129147
0.130084
0.130904
0.131485
0.131654
0.100548
0.103805
0.106069
0.108508
0.110874
0.113146
0.11531
0.117355
0.119273
0.121064
0.122729
0.124269
0.12569
0.126993
0.128179
0.129245
0.130192
0.131028
0.131631
0.131651
0.0998417
0.103234
0.105596
0.108136
0.110593
0.112944
0.115174
0.117271
0.119232
0.121056
0.122746
0.124306
0.125743
0.127062
0.128268
0.129359
0.130338
0.131228
0.131916
0.13183
0.0990677
0.102615
0.105085
0.107733
0.110285
0.112717
0.115014
0.117165
0.119168
0.121025
0.122738
0.124317
0.125769
0.127104
0.128334
0.129463
0.130496
0.131488
0.13238
0.132311
0.0982191
0.101945
0.104532
0.107295
0.109946
0.112461
0.114826
0.117031
0.119075
0.120961
0.122695
0.124287
0.125749
0.127095
0.128345
0.129516
0.13063
0.131817
0.1332
0.133527
0.0972956
0.101224
0.103935
0.106819
0.109572
0.112171
0.114604
0.116862
0.118944
0.120856
0.122605
0.124202
0.125661
0.127001
0.128246
0.129427
0.130597
0.132004
0.134072
0.135414
0.143045
0.148113
0.152246
0.1562
0.159476
0.16241
0.164929
0.167139
0.169065
0.170757
0.172246
0.173565
0.17474
0.175795
0.176745
0.177595
0.178333
0.178935
0.17937
0.179602
0.142396
0.147023
0.15116
0.154994
0.158232
0.161129
0.16363
0.165831
0.167755
0.169448
0.17094
0.172259
0.173432
0.17448
0.175418
0.176249
0.176967
0.177551
0.177971
0.178201
0.141763
0.145967
0.150088
0.1538
0.156994
0.159848
0.162328
0.164517
0.166436
0.168128
0.169621
0.170942
0.172112
0.173153
0.174079
0.174894
0.175594
0.17616
0.176566
0.176795
0.141145
0.144949
0.149031
0.152622
0.155763
0.158571
0.161026
0.163199
0.165112
0.166802
0.168295
0.169615
0.170783
0.171819
0.172734
0.173535
0.174217
0.174767
0.175161
0.175391
0.14054
0.143971
0.147993
0.151463
0.154543
0.157301
0.159727
0.161882
0.163786
0.165471
0.166963
0.168282
0.169447
0.170479
0.171384
0.17217
0.172837
0.173372
0.173754
0.173984
0.139944
0.143035
0.146975
0.150324
0.153336
0.156041
0.158434
0.160567
0.16246
0.16414
0.165629
0.166947
0.168109
0.169134
0.170031
0.170805
0.171457
0.171979
0.17235
0.17258
0.139352
0.142145
0.145979
0.149209
0.152145
0.154792
0.157149
0.159258
0.161137
0.16281
0.164295
0.16561
0.16677
0.167789
0.168676
0.169439
0.170078
0.170587
0.170949
0.171178
0.138756
0.141301
0.145003
0.148117
0.150971
0.153557
0.155874
0.157956
0.159819
0.161483
0.162963
0.164275
0.165431
0.166444
0.167323
0.168075
0.1687
0.169198
0.16955
0.169779
0.138146
0.140505
0.14405
0.147051
0.149816
0.152338
0.154611
0.156664
0.158509
0.160163
0.161636
0.162944
0.164095
0.165102
0.165972
0.166713
0.167327
0.167812
0.168156
0.168383
0.137511
0.139755
0.143119
0.14601
0.148681
0.151136
0.153362
0.155384
0.157209
0.15885
0.160316
0.161618
0.162764
0.163764
0.164626
0.165356
0.165958
0.166433
0.166767
0.166991
0.136842
0.139052
0.142208
0.144994
0.147567
0.149952
0.152129
0.154117
0.15592
0.157546
0.159004
0.160299
0.161439
0.162432
0.163285
0.164005
0.164595
0.165059
0.165384
0.165605
0.136128
0.138389
0.141318
0.144002
0.146473
0.148786
0.150911
0.152864
0.154643
0.156254
0.157701
0.158988
0.160122
0.161107
0.161951
0.16266
0.163238
0.163692
0.164007
0.164224
0.13536
0.137761
0.140447
0.143031
0.145398
0.147639
0.149711
0.151626
0.15338
0.154974
0.15641
0.157688
0.158813
0.159791
0.160625
0.161323
0.16189
0.162332
0.162638
0.162848
0.134533
0.137156
0.139593
0.142078
0.144342
0.146508
0.148527
0.150405
0.152132
0.153708
0.15513
0.156399
0.157515
0.158483
0.159308
0.159995
0.160549
0.16098
0.161276
0.161479
0.133648
0.136562
0.138754
0.14114
0.143304
0.145396
0.147361
0.1492
0.1509
0.152457
0.153864
0.155121
0.156228
0.157186
0.158
0.158675
0.159217
0.159636
0.159922
0.160115
0.132728
0.135976
0.13794
0.140223
0.142287
0.144304
0.146215
0.148015
0.149687
0.151223
0.152615
0.153859
0.154954
0.155901
0.156703
0.157366
0.157895
0.1583
0.158576
0.158759
0.1318
0.135375
0.137143
0.139319
0.141289
0.143232
0.145089
0.146849
0.148492
0.150005
0.15138
0.15261
0.153692
0.154627
0.155416
0.156066
0.156581
0.156974
0.157237
0.157408
0.130756
0.134583
0.136239
0.13833
0.140229
0.142113
0.14393
0.145661
0.147281
0.148778
0.150139
0.151357
0.152429
0.153353
0.154132
0.15477
0.155274
0.155653
0.155906
0.156064
0.129609
0.133478
0.135119
0.137156
0.139026
0.140885
0.142691
0.144416
0.146033
0.147526
0.148882
0.150094
0.15116
0.152077
0.152847
0.153477
0.15397
0.154339
0.154581
0.154725
0.130347
0.13346
0.134825
0.136652
0.138388
0.140134
0.141856
0.143516
0.145081
0.146529
0.147845
0.14902
0.150049
0.15093
0.151665
0.15226
0.152721
0.153059
0.153277
0.153399
0.142347
0.140604
0.139992
0.140473
0.141072
0.14178
0.142625
0.143573
0.144574
0.145578
0.14654
0.14742
0.148191
0.148833
0.149343
0.149724
0.149992
0.150166
0.150267
0.150316
0.137942
0.136626
0.136296
0.136932
0.137551
0.138179
0.138899
0.139698
0.140538
0.141382
0.142193
0.14294
0.143597
0.144148
0.144586
0.144916
0.145149
0.145301
0.14539
0.145432
0.13263
0.131985
0.132012
0.132839
0.13355
0.134192
0.134872
0.135593
0.136331
0.137062
0.13776
0.1384
0.138965
0.13944
0.139822
0.140113
0.140321
0.14046
0.140543
0.140582
0.127052
0.127236
0.127648
0.128682
0.129518
0.130201
0.130861
0.131522
0.132176
0.13281
0.133407
0.13395
0.134425
0.134822
0.135138
0.135376
0.135545
0.135657
0.135722
0.135753
0.120219
0.121297
0.122261
0.123654
0.12476
0.12562
0.126377
0.127078
0.12773
0.128334
0.128884
0.129372
0.129789
0.130132
0.130401
0.1306
0.130739
0.130829
0.130881
0.130904
0.112325
0.114265
0.11587
0.117718
0.1192
0.12035
0.121315
0.122154
0.122891
0.123538
0.124102
0.124584
0.124984
0.125304
0.12555
0.125729
0.125852
0.125931
0.125976
0.125996
0.10376
0.106485
0.10874
0.111069
0.112974
0.11448
0.115725
0.116776
0.117665
0.118417
0.119047
0.119567
0.119985
0.120311
0.120555
0.120731
0.12085
0.120926
0.120969
0.120988
0.0947869
0.0981868
0.10105
0.103844
0.106179
0.108072
0.109642
0.110955
0.11205
0.112956
0.113696
0.114292
0.114759
0.115116
0.115379
0.115565
0.115691
0.11577
0.115815
0.115836
0.0855965
0.089535
0.0929279
0.0961426
0.0988881
0.101171
0.103086
0.104693
0.106029
0.107126
0.108014
0.108718
0.109263
0.109673
0.109972
0.110182
0.110323
0.110412
0.110464
0.110487
0.0763357
0.0806671
0.0844866
0.0880568
0.0911694
0.0938208
0.0960788
0.0979898
0.0995869
0.100901
0.101963
0.102801
0.103446
0.103929
0.104279
0.104525
0.104689
0.104794
0.104854
0.104882
0.0671152
0.0716945
0.0758253
0.0796702
0.0830886
0.0860662
0.0886429
0.0908496
0.092711
0.0942529
0.0955035
0.0964932
0.0972555
0.0978257
0.098239
0.0985284
0.0987232
0.0988476
0.0989202
0.0989533
0.0580074
0.0627019
0.0670249
0.0710548
0.0747036
0.0779474
0.0807999
0.0832748
0.085386
0.0871514
0.0885939
0.0897422
0.0906305
0.091297
0.0917813
0.0921213
0.0923508
0.0924979
0.0925841
0.0926236
0.0490798
0.0537612
0.0581573
0.0622755
0.0660678
0.0695024
0.07257
0.0752676
0.0775967
0.0795653
0.0811888
0.0824913
0.0835054
0.0842702
0.0848281
0.0852211
0.0854872
0.0856582
0.0857587
0.0858049
0.0403483
0.0449217
0.0492804
0.0533894
0.0572307
0.060768
0.0639738
0.0668307
0.0693279
0.0714625
0.0732407
0.0746799
0.0758087
0.0766652
0.077293
0.0777367
0.0780379
0.0782319
0.0783461
0.0783986
0.0319214
0.0362579
0.0404643
0.0444585
0.0482442
0.0517827
0.0550341
0.0579689
0.0605655
0.0628101
0.0646989
0.0662413
0.0674602
0.0683906
0.0690754
0.0695608
0.0698906
0.0701033
0.0702287
0.0702869
0.0236967
0.0277795
0.0317433
0.0355279
0.0391526
0.0425827
0.0457733
0.0486882
0.0512972
0.0535772
0.0555153
0.057112
0.0583834
0.0593598
0.0600818
0.0605949
0.0609441
0.0611693
0.0613023
0.0613629
0.0161102
0.0196535
0.023228
0.0266749
0.0300151
0.033214
0.036222
0.0389976
0.0415053
0.0437158
0.0456091
0.047179
0.048435
0.0494023
0.0501179
0.0506256
0.0509697
0.0511906
0.0513225
0.0513907
0.00839237
0.011744
0.0148932
0.0179039
0.0208354
0.0236751
0.0263787
0.028903
0.0312093
0.0332632
0.0350385
0.0365226
0.0377187
0.0386458
0.0393361
0.0398287
0.0401644
0.0403798
0.0405069
0.0405585
0.00226168
0.00436648
0.00702993
0.00951057
0.0119032
0.0142031
0.0163684
0.0183656
0.0201701
0.021762
0.0231263
0.024257
0.0251591
0.0258494
0.0263545
0.0267072
0.0269413
0.0270855
0.0271746
0.0273015
-0.00942422
-0.00560208
-0.00303092
-0.000647541
0.00164388
0.00382697
0.00588049
0.00777992
0.00949495
0.0109979
0.0122722
0.0133157
0.0141397
0.014767
0.0152277
0.0155542
0.0157765
0.0159159
0.0159642
0.0158636
0.131954
0.128472
0.124673
0.119419
0.112972
0.105589
0.0976084
0.0892352
0.0806343
0.0719298
0.063225
0.0545721
0.0460759
0.0376697
0.0296732
0.0214995
0.0147751
0.00586516
0.00442777
-0.0152522
0.132036
0.127618
0.123921
0.118316
0.111589
0.103978
0.0958292
0.0873456
0.0786926
0.0699892
0.0613332
0.0527644
0.0443911
0.0361108
0.0283056
0.0202126
0.0138954
0.00461882
0.004902
-0.0174641
0.132491
0.126887
0.123061
0.117035
0.110031
0.102204
0.0939019
0.085322
0.0766262
0.0679282
0.0593208
0.0508354
0.0425801
0.0344324
0.0268058
0.0188366
0.0128568
0.00343144
0.00481917
-0.0191507
0.132335
0.125689
0.121792
0.115425
0.108231
0.100266
0.0918811
0.0832654
0.0745757
0.0659198
0.0573861
0.0489998
0.0408677
0.0328546
0.0253941
0.017551
0.0118553
0.00233894
0.00461835
-0.0206881
0.13188
0.124299
0.120349
0.113683
0.106334
0.0982599
0.08982
0.0811937
0.0725324
0.0639375
0.0554924
0.0472168
0.0392146
0.0313413
0.0240425
0.0163307
0.0108849
0.00131089
0.0043716
-0.0221823
0.131216
0.122829
0.118799
0.111862
0.104376
0.0962108
0.0877324
0.0791108
0.0704918
0.06197
0.0536234
0.0454668
0.0375994
0.0298712
0.0227309
0.0151587
0.00993153
0.000338201
0.0040639
-0.0236428
0.130307
0.121274
0.117134
0.10996
0.102358
0.0941235
0.0856253
0.0770251
0.0684623
0.0600251
0.0517861
0.0437555
0.0360268
0.0284477
0.0214623
0.0140376
0.0089986
-0.00057638
0.00369606
-0.0250882
0.129143
0.119636
0.115357
0.107986
0.10029
0.0920078
0.0835086
0.0749459
0.0664529
0.0581111
0.0499878
0.0420895
0.0345028
0.0270764
0.0202426
0.0129726
0.00809362
-0.00142773
0.00327746
-0.0265457
0.127732
0.11793
0.113482
0.105955
0.0981849
0.0898755
0.0813928
0.0728825
0.0644712
0.0562345
0.0482341
0.0404733
0.0330316
0.0257608
0.0190762
0.011968
0.00722397
-0.00220867
0.00281849
-0.0280344
0.126089
0.116169
0.111525
0.103882
0.0960557
0.0877384
0.0792882
0.0708435
0.0625245
0.054401
0.0465295
0.0389106
0.0316164
0.0245038
0.017967
0.0110279
0.00639755
-0.00290843
0.00232545
-0.0295888
0.124238
0.114363
0.109504
0.10178
0.0939155
0.085608
0.0772048
0.0688372
0.0606198
0.0526164
0.0448787
0.0374052
0.0302606
0.0233083
0.0169189
0.0101571
0.00562383
-0.00350999
0.00177916
-0.0314027
0.12221
0.112523
0.107436
0.0996647
0.0917776
0.0834956
0.0751522
0.066872
0.0587637
0.0508861
0.0432861
0.0359605
0.0289671
0.0221771
0.0159358
0.00936029
0.00491515
-0.00398294
0.00113574
-0.0338649
0.120043
0.110658
0.105341
0.0975493
0.0896551
0.0814126
0.07314
0.0649555
0.0569624
0.049215
0.0417554
0.0345797
0.0277386
0.0211126
0.0150209
0.00864159
0.004286
-0.0042821
0.0004721
-0.0362128
0.117781
0.10878
0.103238
0.0954484
0.0875613
0.0793699
0.0711772
0.0630952
0.0552219
0.0476077
0.0402905
0.0332655
0.0265775
0.0201164
0.0141764
0.00800337
0.0037473
-0.00437611
0.000122293
-0.0337964
0.11547
0.106899
0.101148
0.0933766
0.085509
0.0773782
0.0692724
0.0612979
0.0535477
0.0460685
0.0388943
0.0320203
0.0254854
0.01919
0.0134037
0.00744522
0.00330064
-0.00427982
1.50775e-05
-0.0269374
0.11316
0.105028
0.0990901
0.091348
0.0835105
0.0754476
0.0674339
0.0595701
0.0519446
0.044601
0.0375699
0.0308462
0.0244637
0.0183337
0.0127026
0.00696396
0.00293831
-0.00404964
-0.00021037
-0.0210151
0.110897
0.103179
0.0970828
0.0893765
0.0815776
0.0735875
0.0656689
0.0579176
0.0504172
0.0432088
0.0363195
0.0297445
0.0235134
0.0175475
0.0120722
0.0065549
0.00264995
-0.00374642
-0.000535905
-0.0165851
0.108729
0.101369
0.0951444
0.0874755
0.0797214
0.0718066
0.0639844
0.0563454
0.0489694
0.0418945
0.0351452
0.0287166
0.0226348
0.0168308
0.0115107
0.00621267
0.00242873
-0.00336073
-0.000798634
-0.0131935
0.106696
0.0996131
0.0932917
0.0856577
0.0779519
0.0701128
0.0623864
0.0548581
0.0476044
0.0406604
0.0340483
0.0277631
0.0218279
0.0161826
0.0110159
0.00593189
0.00226642
-0.00296509
-0.000962209
-0.0104931
0.104834
0.0979286
0.0915404
0.0839349
0.0762784
0.068513
0.0608799
0.0534596
0.0463251
0.0395086
0.0330301
0.0268846
0.0210924
0.0156017
0.0105853
0.00570738
0.00215511
-0.0025718
-0.00105533
-0.00832684
0.103172
0.0963331
0.0899044
0.0823179
0.074709
0.0670134
0.0594698
0.0521534
0.045134
0.0384408
0.0320915
0.0260812
0.0204276
0.0150866
0.0102164
0.00553604
0.0020931
-0.00218631
-0.00109386
-0.00659125
0.101734
0.0948446
0.0883957
0.0808157
0.0732497
0.065618
0.0581587
0.050941
0.0440319
0.0374571
0.031232
0.0253519
0.019832
0.014635
0.00990583
0.00541228
0.00207594
-0.00181061
-0.00108421
-0.00519861
0.100536
0.0934802
0.0870247
0.0794364
0.0719063
0.0643311
0.0569496
0.0498248
0.0430206
0.0365584
0.0304521
0.0246964
0.0193045
0.0142454
0.00965124
0.00533284
0.00209877
-0.00144574
-0.00103232
-0.00407748
0.0995874
0.092256
0.0857996
0.078187
0.070683
0.0631557
0.0558448
0.0488063
0.0421009
0.0357451
0.0297517
0.0241141
0.0188441
0.013916
0.00945006
0.00529477
0.00215747
-0.00109196
-0.000945007
-0.00317206
0.098891
0.0911871
0.0847265
0.0770722
0.0695827
0.0620938
0.0548456
0.0478862
0.0412732
0.0350172
0.0291301
0.0236039
0.0184491
0.0136446
0.00929971
0.00529518
0.00224839
-0.000748889
-0.000828996
-0.00243879
0.0984452
0.0902867
0.0838089
0.0760955
0.0686068
0.0611463
0.0539524
0.0470647
0.0405373
0.0343738
0.0285862
0.0231645
0.0181178
0.0134291
0.00919761
0.00533134
0.00236814
-0.000415799
-0.000690347
-0.00184339
0.0982436
0.0895663
0.0830481
0.0752584
0.0677555
0.0603135
0.0531654
0.0463416
0.0398926
0.0338143
0.0281189
0.0227942
0.0178483
0.0132672
0.00914122
0.00540066
0.00251356
-9.18859e-05
-0.000534349
-0.00135874
0.0982759
0.0890351
0.0824429
0.074561
0.0670281
0.0595949
0.0524842
0.0457152
0.0393392
0.0333377
0.0277265
0.0224914
0.0176386
0.0131568
0.00912801
0.00550068
0.00268179
0.000223634
-0.000365501
-0.000963388
0.0985278
0.0887006
0.0819898
0.0740016
0.066423
0.0589896
0.051908
0.0451835
0.0388776
0.0329421
0.0274072
0.0222542
0.0174865
0.0130955
0.00915542
0.00562909
0.00287018
0.000531467
-0.000187533
-0.00064028
0.098981
0.0885686
0.0816835
0.0735774
0.0659386
0.0584967
0.0514364
0.0447561
0.0384955
0.0326258
0.0271594
0.0220804
0.0173898
0.013081
0.00922091
0.00578365
0.0030763
0.000832221
-3.45955e-06
-0.000375831
0.0996155
0.0886414
0.0815165
0.0732843
0.0655731
0.0581154
0.051068
0.044421
0.0382016
0.0323872
0.026981
0.0219677
0.0173461
0.0131109
0.00932196
0.00596228
0.00329797
0.00112642
0.000184347
-0.000159165
0.100425
0.0889025
0.0814784
0.0731183
0.0653257
0.0578435
0.0508006
0.0441777
0.0379925
0.0322239
0.0268696
0.0219138
0.0173531
0.0131828
0.00945612
0.006163
0.00353318
0.00141456
0.00037408
1.84826e-05
0.101398
0.089328
0.0815621
0.0730763
0.0651939
0.0576802
0.0506327
0.0440244
0.0378647
0.0321332
0.0268226
0.0219159
0.0174083
0.0132944
0.00962106
0.00638393
0.00378019
0.00169712
0.000564422
0.000164233
0.10234
0.090059
0.0817694
0.0731572
0.0651795
0.0576255
0.0505629
0.0439594
0.037816
0.0321128
0.0268377
0.0219719
0.0175094
0.0134433
0.00981475
0.00662342
0.00403752
0.00197467
0.000754483
0.000283931
0.103346
0.0909451
0.082104
0.0733655
0.0652871
0.0576816
0.0505923
0.0439826
0.0378461
0.032162
0.0269135
0.0220804
0.0176548
0.0136279
0.0100356
0.00688013
0.00430405
0.00224785
0.000943735
0.000382436
0.104344
0.0919766
0.0825659
0.0736958
0.0655121
0.0578436
0.0507158
0.0440893
0.0379506
0.0322768
0.0270465
0.0222382
0.0178414
0.0138455
0.0102813
0.00715243
0.00457857
0.0025172
0.00113182
0.000463856
0.105229
0.0931165
0.0831288
0.0741103
0.0658149
0.0580728
0.0508982
0.0442486
0.0381034
0.0324356
0.0272194
0.0224316
0.0180585
0.0140881
0.0105461
0.00743623
0.00485857
0.00278248
0.00131822
0.00053178
0.105885
0.0943979
0.0838439
0.0746137
0.0661762
0.0583397
0.0511068
0.0444297
0.0382771
0.032615
0.0274131
0.0226453
0.0182943
0.0143468
0.0108233
0.0077273
0.00514161
0.00304351
0.00150277
0.00058955
0.106243
0.0960972
0.0850773
0.0755238
0.0668757
0.0588917
0.0515563
0.0448148
0.0386226
0.0329378
0.0277252
0.0229545
0.0186053
0.0146629
0.0111418
0.00804515
0.00544
0.00330824
0.00168991
0.000640215
0.106132
0.0980061
0.0869735
0.0771923
0.0683738
0.0602351
0.0527482
0.0458675
0.0395485
0.0337504
0.0284389
0.0235838
0.0191638
0.0151637
0.0115918
0.00845076
0.00579062
0.00359647
0.00188949
0.000685137
0.104051
0.100001
0.09056
0.081116
0.0723904
0.0641943
0.0565033
0.0493354
0.0426878
0.0365483
0.0309029
0.0257356
0.0210323
0.0167824
0.0129838
0.00963851
0.00675948
0.00434047
0.00237951
0.000790806
0.100087
0.0960924
0.0872295
0.0779037
0.0694823
0.0616974
0.0544574
0.0477476
0.0415404
0.0358078
0.0305265
0.0256768
0.0212425
0.0172117
0.0135769
0.0103327
0.00747301
0.00498256
0.00283575
0.000936676
0.0982279
0.0931337
0.0847382
0.0758627
0.0678134
0.0603858
0.0534941
0.0471118
0.0412044
0.0357397
0.0306914
0.0260381
0.0217621
0.0178492
0.0142875
0.0110646
0.00816451
0.00556371
0.00322594
0.00106732
0.0967089
0.0910779
0.0829772
0.074593
0.0669352
0.0598456
0.053257
0.0471389
0.0414567
0.0361792
0.031281
0.0267414
0.0225432
0.0186713
0.0151113
0.0118468
0.00885731
0.00611536
0.00358172
0.00118533
0.0955752
0.089667
0.0817514
0.0737918
0.0664764
0.0596747
0.0533366
0.0474313
0.0419254
0.0367896
0.0319996
0.0275352
0.0233792
0.019516
0.0159292
0.0126005
0.00950724
0.00662067
0.00390224
0.0012921
0.0949814
0.0888982
0.0811295
0.073518
0.0664736
0.0598933
0.0537409
0.0479868
0.0426008
0.0375558
0.0328287
0.0284
0.0242522
0.0203687
0.0167321
0.0133227
0.0101169
0.00708617
0.004194
0.0013897
0.0949802
0.0887538
0.0811007
0.0737533
0.0669035
0.0604773
0.0544473
0.0487866
0.0434678
0.0384663
0.0337606
0.0293313
0.0251606
0.0212311
0.0175247
0.0140209
0.0106958
0.00752148
0.00446415
0.00148023
0.0955604
0.0891866
0.0816074
0.0744371
0.0677069
0.0613708
0.0554057
0.049787
0.0444901
0.0394924
0.0347731
0.0303132
0.0260944
0.0220988
0.0183073
0.014699
0.01125
0.00793335
0.00471785
0.0015653
0.0966757
0.0901321
0.0825788
0.0755041
0.0688257
0.0625221
0.0565711
0.0509502
0.0456368
0.0406094
0.0358479
0.031333
0.0270461
0.0229683
0.0190801
0.0153598
0.011784
0.00832675
0.00495884
0.00164613
0.0982565
0.0915143
0.0839398
0.0768898
0.0702053
0.0638848
0.0579048
0.0522446
0.0468826
0.041798
0.0369707
0.032381
0.0280098
0.0238374
0.0198432
0.0160056
0.0123013
0.00870519
0.00518969
0.00172356
0.10022
0.0932514
0.0856145
0.0785306
0.0717928
0.0654146
0.0593704
0.0536406
0.0482039
0.0430397
0.0381277
0.0334475
0.0289792
0.0247022
0.0205954
0.0166368
0.0128033
0.00907046
0.00541175
0.00179802
0.102477
0.0952574
0.0875258
0.080362
0.0735343
0.0670665
0.0609304
0.0551071
0.0495754
0.0443143
0.0393028
0.0345201
0.0299451
0.0255565
0.0213327
0.0172513
0.0132893
0.0094225
0.00562518
0.00186959
0.104927
0.0974409
0.0895929
0.0823158
0.075372
0.0687913
0.062543
0.0566091
0.0509676
0.0455972
0.0404761
0.0355826
0.0308948
0.0263907
0.0220481
0.0178443
0.013756
0.00975939
0.00582896
0.00193792
0.107462
0.099704
0.091729
0.0843167
0.077241
0.0705327
0.0641599
0.0581048
0.0523448
0.046858
0.0416218
0.0366137
0.0318109
0.027191
0.022731
0.0184079
0.014198
0.0100774
0.006021
0.00200234
0.109966
0.101942
0.093839
0.0862816
0.079068
0.0722263
0.0657247
0.059545
0.0536643
0.04806
0.0427087
0.037587
0.0326718
0.0279398
0.0233675
0.0189312
0.0146071
0.0103711
0.00619819
0.00206179
0.112315
0.104043
0.0958214
0.0881201
0.0807725
0.0738008
0.0671742
0.0608743
0.0548776
0.049161
0.0437005
0.0384721
0.0334519
0.0286161
0.0239405
0.0194011
0.0149736
0.0106338
0.00635651
0.00211493
0.114384
0.105896
0.0975719
0.0897389
0.0822705
0.075181
0.0684416
0.0620335
0.0559328
0.050116
0.0445584
0.0392356
0.0341232
0.0291966
0.0244312
0.0198026
0.0152862
0.0108576
0.00649132
0.00216019
0.116057
0.107396
0.0989906
0.0910484
0.0834808
0.0762942
0.0694622
0.0629652
0.0567793
0.0508805
0.0452439
0.0398446
0.0346576
0.0296578
0.0248205
0.0201206
0.0155336
0.0110346
0.00659785
0.00219596
0.117236
0.108454
0.0999914
0.0919708
0.0843328
0.077077
0.0701791
0.0636189
0.0573725
0.0514156
0.0457231
0.0402697
0.0350301
0.029979
0.0250912
0.0203416
0.0157052
0.0111573
0.0066717
0.00222074
0.117846
0.108998
0.100507
0.0924454
0.0847712
0.0774796
0.0705475
0.0639546
0.057677
0.05169
0.0459686
0.0404873
0.0352207
0.0301432
0.0252295
0.0204544
0.0157929
0.0112199
0.00670931
0.00223322
0.126902
0.122627
0.119709
0.116264
0.113127
0.110599
0.108872
0.10799
0.107907
0.108521
0.109702
0.111306
0.113195
0.11523
0.117278
0.119219
0.120937
0.122331
0.123314
0.123839
0.130224
0.126125
0.123191
0.119501
0.116244
0.113636
0.111855
0.110929
0.110809
0.111389
0.112537
0.114108
0.11596
0.117956
0.119962
0.121861
0.123542
0.124908
0.125874
0.126406
0.131298
0.126763
0.123453
0.119649
0.116544
0.114196
0.112717
0.112083
0.112223
0.113024
0.114353
0.116074
0.118052
0.120153
0.122251
0.124228
0.125974
0.127394
0.1284
0.128967
0.133029
0.128152
0.124343
0.120349
0.117282
0.115081
0.113804
0.113382
0.113721
0.114699
0.116182
0.118037
0.12013
0.122335
0.124526
0.126587
0.128405
0.129886
0.130936
0.131538
0.135055
0.130044
0.125844
0.121687
0.118609
0.116483
0.115331
0.115049
0.115523
0.116624
0.118217
0.120169
0.12235
0.124632
0.126895
0.129019
0.130893
0.132419
0.133504
0.134134
0.137045
0.131928
0.127438
0.12318
0.120101
0.118047
0.117008
0.116851
0.117447
0.118659
0.120352
0.122392
0.12465
0.127002
0.129326
0.131504
0.133424
0.134988
0.1361
0.136754
0.13906
0.133771
0.129051
0.124739
0.121668
0.119682
0.118749
0.118712
0.119425
0.120746
0.122535
0.124661
0.126995
0.129414
0.131797
0.134025
0.135987
0.137586
0.138722
0.139396
0.141131
0.13563
0.130726
0.126394
0.123337
0.121415
0.120576
0.120645
0.121467
0.122888
0.124769
0.126977
0.129383
0.131866
0.134304
0.136581
0.138582
0.140212
0.14137
0.142059
0.142858
0.137504
0.132469
0.128147
0.125115
0.123254
0.122498
0.122662
0.12358
0.125094
0.12706
0.129344
0.131818
0.134361
0.136851
0.139171
0.141208
0.142866
0.144042
0.144744
0.144996
0.139419
0.134275
0.129985
0.126989
0.12519
0.124509
0.124759
0.125764
0.127363
0.129407
0.131762
0.134299
0.136897
0.139435
0.141796
0.143864
0.145547
0.146739
0.14745
0.147121
0.141372
0.136144
0.131898
0.128947
0.127211
0.126602
0.126929
0.128014
0.12969
0.131807
0.134228
0.136825
0.139474
0.142057
0.144454
0.146551
0.148255
0.14946
0.150176
0.149243
0.143362
0.138076
0.133881
0.130981
0.129311
0.128769
0.129167
0.130326
0.132073
0.134257
0.13674
0.139391
0.142089
0.144712
0.147143
0.149266
0.150988
0.152204
0.152924
0.151396
0.145397
0.140073
0.135931
0.133088
0.131484
0.131006
0.13147
0.132695
0.134508
0.136754
0.139293
0.141996
0.144739
0.147401
0.149863
0.152009
0.153747
0.154971
0.15569
0.153585
0.147482
0.142135
0.138048
0.135262
0.133723
0.133307
0.133832
0.135118
0.13699
0.139294
0.141886
0.144638
0.147423
0.15012
0.15261
0.154777
0.156528
0.157759
0.158476
0.155806
0.149617
0.144261
0.140229
0.137501
0.136025
0.135667
0.136248
0.13759
0.139518
0.141874
0.144516
0.147312
0.150137
0.152867
0.155383
0.157569
0.159332
0.160568
0.161279
0.158057
0.1518
0.14645
0.142471
0.1398
0.138384
0.13808
0.138714
0.140107
0.142085
0.144491
0.147178
0.150017
0.152878
0.155639
0.158179
0.160383
0.162156
0.163396
0.164099
0.160333
0.154028
0.148698
0.144771
0.142155
0.140795
0.140541
0.141225
0.142664
0.144689
0.14714
0.14987
0.152748
0.155644
0.158434
0.160997
0.163216
0.164998
0.166241
0.166934
0.162628
0.156295
0.151
0.147126
0.144563
0.143255
0.143047
0.143774
0.145257
0.147324
0.149816
0.152587
0.155502
0.158431
0.161249
0.163833
0.166067
0.167856
0.169101
0.169784
0.164935
0.158597
0.153349
0.14953
0.147017
0.145757
0.145591
0.146359
0.14788
0.149986
0.152517
0.155325
0.158275
0.161236
0.16408
0.166684
0.168932
0.170728
0.171976
0.172646
0.167246
0.160927
0.155739
0.151978
0.149514
0.148298
0.14817
0.148973
0.15053
0.15267
0.155236
0.15808
0.161064
0.164055
0.166924
0.169548
0.17181
0.173612
0.174862
0.175518
0.169554
0.163278
0.158165
0.154464
0.152049
0.150873
0.150778
0.151612
0.1532
0.155373
0.157972
0.160849
0.163865
0.166885
0.169779
0.172422
0.174697
0.176505
0.177757
0.1784
0.171843
0.165638
0.160612
0.156977
0.15461
0.153471
0.153406
0.154269
0.155884
0.158086
0.160716
0.163625
0.166672
0.16972
0.172639
0.175301
0.17759
0.179405
0.180659
0.181289
0.174105
0.167998
0.163073
0.159509
0.157191
0.156087
0.15605
0.156936
0.158577
0.160806
0.163465
0.166405
0.169482
0.172558
0.175501
0.178183
0.180486
0.182308
0.183565
0.184183
0.17633
0.170351
0.165538
0.162051
0.159783
0.158714
0.158702
0.159611
0.161274
0.163528
0.166215
0.169184
0.17229
0.175394
0.178361
0.181064
0.183382
0.185213
0.186472
0.187079
0.178506
0.172683
0.167997
0.164593
0.162378
0.161343
0.161355
0.162285
0.163969
0.166247
0.168959
0.171956
0.175091
0.178223
0.181216
0.183939
0.186274
0.188114
0.189378
0.189975
0.180623
0.174984
0.170437
0.167123
0.164965
0.163965
0.164002
0.164953
0.166656
0.168956
0.171693
0.174717
0.177882
0.181042
0.18406
0.186806
0.189159
0.19101
0.19228
0.192867
0.182672
0.177241
0.172847
0.16963
0.167533
0.166573
0.166636
0.167607
0.169328
0.171649
0.174411
0.177463
0.180656
0.183846
0.186891
0.189661
0.192033
0.193896
0.195173
0.195754
0.184642
0.179445
0.175214
0.172102
0.170073
0.169156
0.169248
0.17024
0.17198
0.174322
0.177108
0.180187
0.183411
0.18663
0.189703
0.192499
0.194892
0.19677
0.198056
0.198632
0.186528
0.181581
0.177527
0.174528
0.172574
0.171706
0.17183
0.172845
0.174605
0.176967
0.179779
0.182886
0.186139
0.189389
0.192493
0.195316
0.197732
0.199628
0.200925
0.201498
0.188321
0.183641
0.179773
0.176895
0.175025
0.174213
0.174374
0.175415
0.177196
0.17958
0.182417
0.185553
0.188838
0.19212
0.195257
0.198109
0.20055
0.202466
0.203776
0.20435
0.190016
0.185612
0.18194
0.179192
0.177417
0.176669
0.176873
0.177943
0.179748
0.182155
0.185017
0.188184
0.191501
0.194818
0.197989
0.200873
0.203342
0.20528
0.206605
0.207182
0.191607
0.187483
0.184017
0.18141
0.17974
0.179066
0.179319
0.180422
0.182253
0.184685
0.187575
0.190773
0.194124
0.197477
0.200685
0.203604
0.206105
0.208067
0.20941
0.209993
0.193087
0.189245
0.185993
0.183541
0.181989
0.181396
0.181705
0.182844
0.184704
0.187164
0.190083
0.193315
0.196703
0.200095
0.203342
0.206299
0.208833
0.210822
0.212186
0.212779
0.194446
0.190887
0.18786
0.185578
0.184156
0.183654
0.184024
0.185203
0.187095
0.189585
0.192536
0.195804
0.199232
0.202665
0.205955
0.208952
0.211523
0.213541
0.214928
0.215535
0.195674
0.192403
0.189616
0.187522
0.186242
0.185836
0.18627
0.187494
0.18942
0.191943
0.194929
0.198235
0.201706
0.205184
0.208519
0.211561
0.214171
0.216222
0.217634
0.218259
0.196757
0.193793
0.191268
0.189381
0.188253
0.187947
0.188447
0.189716
0.191679
0.194238
0.19726
0.200607