/*--------------------------------*- C++ -*----------------------------------*\
  =========                 |
  \\      /  F ield         | OpenFOAM: The Open Source CFD Toolbox
   \\    /   O peration     | Website:  https://openfoam.org
    \\  /    A nd           | Version:  7
     \\/     M anipulation  |
\*---------------------------------------------------------------------------*/
FoamFile
{
    version     2.0;
    format      ascii;
    class       volScalarField;
    location    "10";
    object      p;
}
// * * * * * * * * * * * * * * * * * * * * * * * * * * * * * * * * * * * * * //

dimensions      [0 2 -2 0 0 0 0];

internalField   nonuniform List<scalar> 
2000
(
0.0890493
0.0918626
0.0941516
0.0980837
0.1039
0.111248
0.119478
0.127917
0.136053
0.143708
0.0912522
0.0936337
0.095487
0.0987209
0.10365
0.110071
0.117465
0.125232
0.132864
0.140152
0.0934734
0.0954393
0.0969586
0.0996554
0.103861
0.109468
0.116071
0.123151
0.130227
0.137064
0.0957169
0.0972827
0.0985588
0.100866
0.104509
0.109433
0.115316
0.121722
0.128212
0.134521
0.0979763
0.0991613
0.10028
0.102334
0.105572
0.109949
0.115205
0.120972
0.126864
0.132583
0.100234
0.101068
0.102115
0.104043
0.107024
0.110993
0.115721
0.120904
0.126203
0.13128
0.102453
0.102982
0.104047
0.105971
0.108834
0.112527
0.116831
0.121493
0.126215
0.130607
0.104575
0.104866
0.10604
0.108076
0.110951
0.114494
0.11848
0.122692
0.126862
0.130546
0.106514
0.106657
0.108027
0.110281
0.113292
0.116803
0.120574
0.124411
0.128057
0.131009
0.108162
0.108267
0.109912
0.112466
0.115723
0.119309
0.122971
0.126521
0.129719
0.132032
0.158347
0.172429
0.18063
0.186586
0.190608
0.194142
0.196334
0.198299
0.199254
0.19987
0.154809
0.168997
0.17715
0.183211
0.187319
0.190951
0.193199
0.195237
0.196226
0.196885
0.151622
0.16571
0.173718
0.179887
0.184073
0.187799
0.190109
0.192215
0.193225
0.193923
0.148895
0.16258
0.170368
0.176624
0.18088
0.184687
0.187073
0.189236
0.19026
0.190988
0.146746
0.159621
0.167132
0.17344
0.177741
0.181621
0.184097
0.186308
0.187332
0.188074
0.145226
0.156794
0.164031
0.170342
0.174657
0.178606
0.181182
0.183436
0.18445
0.185195
0.144365
0.154076
0.161122
0.167344
0.17164
0.175652
0.178338
0.180629
0.181603
0.182318
0.144016
0.151355
0.158395
0.164415
0.168679
0.172745
0.175547
0.17788
0.178821
0.179518
0.144275
0.148813
0.155953
0.161596
0.16583
0.169939
0.172865
0.175211
0.176026
0.176611
0.14407
0.146216
0.153514
0.158787
0.163014
0.16711
0.170156
0.172584
0.173407
0.174014
0.148321
0.142611
0.148486
0.152652
0.156977
0.161122
0.164359
0.166272
0.166039
0.16587
0.137949
0.136149
0.13974
0.143508
0.147062
0.149921
0.152483
0.155107
0.15776
0.160858
0.120728
0.1241
0.128644
0.13335
0.137577
0.141234
0.143796
0.145126
0.146796
0.148255
0.103066
0.109738
0.115978
0.122007
0.126603
0.130041
0.132971
0.135174
0.136755
0.138104
0.0864679
0.0949019
0.101886
0.108661
0.114672
0.119196
0.121553
0.122834
0.124005
0.12547
0.0696983
0.0788868
0.0862162
0.09292
0.0989906
0.104096
0.107726
0.109776
0.111272
0.112217
0.0529537
0.0617577
0.0693226
0.0763808
0.082426
0.0868459
0.0901576
0.0925733
0.0942923
0.0952247
0.0357958
0.0437378
0.0506921
0.0571757
0.063032
0.0675383
0.0706103
0.0726393
0.0742221
0.0754378
0.0193035
0.0257712
0.0315426
0.0362235
0.0404955
0.0442468
0.0467853
0.0481627
0.049111
0.049937
0.00166541
0.00700203
0.0108562
0.0132605
0.0152388
0.0170562
0.018442
0.0192452
0.0195762
0.0197681
0.137103
0.127508
0.110631
0.0933807
0.077387
0.0612194
0.0463032
0.030048
0.0162266
-0.00171073
0.138152
0.123921
0.106155
0.0889969
0.0732929
0.0574841
0.0431324
0.0274973
0.0149985
-0.00287005
0.136486
0.119598
0.101364
0.0846848
0.0694295
0.0540792
0.0403039
0.0253928
0.0139293
-0.00392096
0.132217
0.115184
0.0966647
0.0804099
0.0656144
0.0508024
0.0375731
0.0234831
0.0129364
-0.00497081
0.126635
0.110417
0.0920619
0.0762226
0.0618986
0.0476888
0.0350255
0.0218447
0.0120957
-0.00581877
0.120633
0.105329
0.08761
0.0721946
0.058298
0.0447153
0.032639
0.0204163
0.011445
-0.00557354
0.114677
0.100114
0.0832914
0.0683561
0.0548544
0.0418961
0.0304295
0.0191624
0.0109595
-0.00425279
0.108976
0.0950127
0.079141
0.0647392
0.0516084
0.039249
0.0284034
0.0180374
0.0104651
-0.00263373
0.103681
0.0902281
0.075222
0.0613698
0.0485961
0.0368023
0.0265786
0.017042
0.00995798
-0.0010976
0.0989041
0.0858755
0.0715895
0.0582646
0.0458373
0.0345758
0.0249687
0.0162144
0.00950247
0.000158909
0.0946946
0.0819739
0.0682509
0.0554152
0.0433268
0.0325694
0.0235736
0.0155435
0.00914293
0.0010933
0.0910837
0.0785439
0.0652294
0.0528359
0.0410698
0.0307814
0.0223952
0.0150087
0.00888699
0.00173387
0.0881121
0.0756502
0.062592
0.0505735
0.0390905
0.0292264
0.02144
0.0146041
0.0087203
0.00213891
0.0858077
0.0733329
0.0603777
0.0486577
0.0374082
0.0279742
0.0206625
0.014326
0.00862818
0.00237635
0.0841409
0.0715317
0.05854
0.0470728
0.0360451
0.0269896
0.0201006
0.014172
0.00860244
0.00251021
0.0829437
0.0700759
0.0569718
0.0457952
0.0350268
0.0262613
0.0197423
0.0141331
0.00863786
0.00259147
0.0820699
0.069034
0.0557938
0.0449446
0.0343008
0.025797
0.019572
0.0141938
0.00872283
0.00265533
0.0820627
0.0691931
0.0556435
0.0446426
0.0339496
0.0255798
0.019575
0.0143927
0.00884584
0.00272212
0.0836228
0.070893
0.0566755
0.0450972
0.034006
0.025562
0.0197161
0.0146075
0.00899238
0.0028012
0.0831526
0.0705613
0.0565065
0.045461
0.0344576
0.025822
0.0198625
0.0148894
0.00917341
0.00289366
0.074173
0.0615165
0.0501298
0.0442873
0.0372537
0.0289627
0.0217108
0.0155141
0.00936486
0.0031181
0.0712641
0.0552492
0.0418601
0.0333119
0.0282467
0.0238364
0.0193105
0.0144459
0.00890256
0.0030432
0.0717386
0.0599343
0.050775
0.0434329
0.0355702
0.028158
0.0215411
0.0153842
0.00917643
0.00293374
0.0747573
0.0622737
0.0510768
0.0423869
0.0346274
0.0279579
0.0217773
0.0156427
0.00929306
0.00305979
0.0798208
0.0668977
0.055136
0.0458165
0.037049
0.0297897
0.0229391
0.0162909
0.00979041
0.00343358
0.0824158
0.0691797
0.0572157
0.0473595
0.0387286
0.0314103
0.023875
0.0168634
0.0102809
0.00378856
0.0853345
0.0714725
0.0595154
0.0494167
0.0406893
0.032815
0.0245767
0.0174976
0.0107797
0.00418281
0.0877213
0.0740598
0.0621686
0.0516399
0.0424108
0.0337186
0.0253321
0.0181765
0.0111818
0.00439869
0.0899133
0.0766613
0.0643722
0.0536468
0.0440336
0.0345444
0.0260939
0.0187549
0.0114955
0.00438211
0.0917217
0.0780811
0.0661236
0.05487
0.0445749
0.0351621
0.0269014
0.0191081
0.0117729
0.00453548
0.0916341
0.0903049
0.0852552
0.0855231
0.0886797
0.0911122
0.0948541
0.0980661
0.099346
0.102797
0.096457
0.0940632
0.0897522
0.0904757
0.0930838
0.0954633
0.0994683
0.10318
0.105636
0.109161
0.101704
0.0968557
0.0920164
0.0944674
0.0978615
0.100735
0.104945
0.109325
0.114171
0.117694
0.106902
0.100528
0.0948262
0.0978436
0.102269
0.105987
0.110466
0.115374
0.121864
0.125725
0.112199
0.10463
0.0987545
0.101629
0.106578
0.111025
0.115836
0.121087
0.128209
0.13252
0.11774
0.109038
0.103216
0.106107
0.111258
0.116107
0.121201
0.126703
0.133867
0.138522
0.123659
0.113865
0.107942
0.111009
0.116428
0.121479
0.126767
0.132508
0.13958
0.144461
0.130054
0.119164
0.113025
0.116123
0.12194
0.127181
0.132645
0.138655
0.145736
0.150813
0.136985
0.124942
0.118556
0.12146
0.127641
0.133129
0.138839
0.145167
0.152397
0.157709
0.144426
0.131176
0.124524
0.127104
0.133468
0.139244
0.145298
0.151997
0.159481
0.165079
0.15214
0.137801
0.130865
0.133089
0.139389
0.145499
0.151976
0.159081
0.1669
0.172822
0.160036
0.144762
0.137531
0.139389
0.145361
0.151883
0.158847
0.166364
0.174597
0.180874
0.168097
0.152165
0.144491
0.145946
0.151344
0.158385
0.165913
0.173855
0.182559
0.189221
0.176198
0.160168
0.151706
0.152707
0.157383
0.164979
0.173167
0.181575
0.190783
0.19786
0.184152
0.16834
0.159147
0.159594
0.163582
0.171645
0.180613
0.189563
0.199331
0.206794
0.19177
0.176531
0.166798
0.166526
0.17004
0.178353
0.188199
0.197775
0.208185
0.216049
0.198896
0.18457
0.174588
0.173458
0.176801
0.18516
0.195917
0.206253
0.217356
0.225692
0.205347
0.192252
0.182396
0.180393
0.183766
0.19203
0.203596
0.214807
0.226735
0.235723
0.211088
0.199579
0.190023
0.187321
0.190857
0.199174
0.211321
0.223553
0.236433
0.246006
0.216282
0.206754
0.19707
0.194408
0.197474
0.206022
0.218431
0.231815
0.246074
0.256463
0.226543
0.223569
0.21957
0.216007
0.217657
0.225529
0.238043
0.253698
0.270383
0.281774
0.24143
0.243937
0.245902
0.249192
0.254712
0.264074
0.277174
0.294594
0.313074
0.325181
0.257174
0.26338
0.269731
0.277881
0.288458
0.301973
0.317729
0.336954
0.356491
0.369314
0.271078
0.279535
0.289039
0.300518
0.314428
0.33128
0.349698
0.370155
0.390322
0.402942
0.282818
0.292552
0.303914
0.317391
0.332919
0.35096
0.370006
0.38951
0.408345
0.419404
0.29207
0.302679
0.315134
0.329701
0.345921
0.364005
0.382544
0.399987
0.415903
0.424297
0.298675
0.30996
0.323098
0.338251
0.354682
0.372328
0.389984
0.405357
0.418352
0.4251
0.303154
0.314871
0.328537
0.34424
0.361017
0.378529
0.395646
0.40985
0.420609
0.424031
0.304265
0.316661
0.33071
0.346916
0.363826
0.381253
0.398579
0.411919
0.42011
0.426588
0.307565
0.319935
0.334437
0.350831
0.368435
0.386992
0.404875
0.42028
0.430507
0.417349
0.227108
0.23895
0.25301
0.265969
0.277332
0.286262
0.29252
0.297115
0.297926
0.300903
0.229128
0.240403
0.253539
0.265611
0.276288
0.284647
0.290479
0.294834
0.295564
0.29835
0.231405
0.24325
0.255694
0.266691
0.276306
0.283763
0.288946
0.292775
0.293515
0.295932
0.23208
0.244439
0.256594
0.266997
0.275887
0.282689
0.287389
0.290769
0.29157
0.293527
0.232181
0.244621
0.256503
0.266561
0.274994
0.281369
0.285746
0.288807
0.289665
0.291193
0.232238
0.244689
0.25622
0.265939
0.273976
0.280001
0.284121
0.286926
0.287828
0.289002
0.232146
0.244737
0.255962
0.265342
0.272993
0.27869
0.282574
0.285152
0.286092
0.286983
0.231818
0.244629
0.255647
0.264739
0.272041
0.277443
0.281114
0.28349
0.284471
0.285135
0.231302
0.244346
0.255227
0.26409
0.271099
0.27625
0.279739
0.281937
0.282962
0.283439
0.23067
0.243939
0.254727
0.263404
0.270172
0.275113
0.278447
0.280493
0.28156
0.28188
0.22998
0.243448
0.254182
0.262706
0.269274
0.274039
0.277243
0.279163
0.280254
0.280437
0.229213
0.242855
0.253595
0.262002
0.268413
0.273033
0.276131
0.277939
0.27905
0.279098
0.228299
0.242117
0.252952
0.26129
0.26759
0.272096
0.275107
0.276811
0.27794
0.277861
0.227213
0.241233
0.252255
0.260572
0.266806
0.271228
0.274164
0.275778
0.27691
0.27672
0.22595
0.240239
0.251504
0.259853
0.266059
0.270425
0.273302
0.274834
0.275944
0.275679
0.224447
0.239164
0.250685
0.259134
0.265345
0.269686
0.27252
0.273973
0.275019
0.274735
0.22261
0.238053
0.249798
0.258398
0.264663
0.269013
0.271811
0.273187
0.27412
0.273908
0.220404
0.236792
0.248806
0.257645
0.264013
0.268397
0.27117
0.272468
0.273209
0.273195
0.218068
0.235461
0.247758
0.256887
0.263393
0.267835
0.270593
0.271815
0.272307
0.272648
0.214618
0.2336
0.246423
0.255997
0.262738
0.267293
0.270065
0.271208
0.271277
0.272213
0.20839
0.229792
0.243638
0.25415
0.261394
0.266208
0.269043
0.270286
0.27
0.271606
0.217554
0.233914
0.24557
0.255173
0.261705
0.265972
0.268186
0.269011
0.268505
0.269573
0.224371
0.238114
0.248531
0.256933
0.262698
0.266273
0.267717
0.267924
0.26701
0.267228
0.228458
0.240785
0.250796
0.258377
0.26365
0.266599
0.267337
0.267016
0.265912
0.266045
0.231115
0.242742
0.252504
0.259601
0.264488
0.266783
0.266825
0.266069
0.264981
0.266432
0.23332
0.244355
0.253924
0.2608
0.265207
0.26671
0.265928
0.264967
0.26529
0.271029
0.23468
0.245563
0.255096
0.261866
0.265457
0.26561
0.263345
0.262644
0.266825
0.283998
0.236112
0.246908
0.256769
0.263644
0.266595
0.265654
0.262978
0.262949
0.277705
0.319012
0.236317
0.247351
0.257277
0.263864
0.26496
0.261356
0.257976
0.267152
0.30492
0.391797
0.237774
0.249397
0.261235
0.271267
0.276551
0.277495
0.282869
0.307576
0.380188
0.52233
0.195872
0.206419
0.213068
0.218805
0.221975
0.225481
0.226992
0.229029
0.229406
0.230522
0.192073
0.202864
0.209533
0.21546
0.218622
0.222433
0.223925
0.2261
0.226467
0.227457
0.189781
0.200677
0.207439
0.213049
0.216
0.219683
0.22109
0.223161
0.223498
0.224347
0.186617
0.197835
0.204753
0.210374
0.213264
0.216809
0.218224
0.220129
0.220514
0.221227
0.182823
0.194373
0.201477
0.207133
0.210259
0.213728
0.215251
0.217014
0.21752
0.21813
0.178824
0.190742
0.198039
0.203709
0.207056
0.210477
0.212149
0.213936
0.214511
0.215056
0.174703
0.187081
0.194597
0.200291
0.203799
0.20719
0.209002
0.210803
0.211477
0.212007
0.170491
0.183383
0.191136
0.196877
0.200524
0.20391
0.205837
0.207658
0.20842
0.208957
0.166279
0.179668
0.187642
0.193445
0.19723
0.200636
0.202665
0.20452
0.205358
0.205911
0.16219
0.175996
0.184132
0.190005
0.19392
0.197374
0.199495
0.201396
0.202301
0.20288
0.109403
0.109593
0.111567
0.11449
0.118027
0.121774
0.1254
0.128689
0.131366
0.132649
0.110118
0.110527
0.112853
0.11615
0.119982
0.123896
0.127497
0.130521
0.132631
0.132575
0.110218
0.110988
0.113653
0.117275
0.121338
0.125337
0.128838
0.131527
0.133174
0.132027
0.10966
0.110932
0.113899
0.117755
0.121907
0.125825
0.129059
0.131254
0.132361
0.130654
0.108445
0.110365
0.113587
0.117548
0.121619
0.125247
0.128004
0.129567
0.129977
0.128152
0.106611
0.109337
0.112748
0.116693
0.120508
0.123656
0.12577
0.126644
0.126317
0.124524
0.104239
0.107893
0.111443
0.115258
0.118672
0.121207
0.122602
0.122799
0.121852
0.120015
0.101416
0.10607
0.109721
0.113314
0.116241
0.118118
0.118822
0.118418
0.117025
0.115026
0.0982153
0.103922
0.107621
0.110943
0.113376
0.114646
0.114767
0.113889
0.112197
0.109993
0.0947207
0.101471
0.105187
0.108257
0.110274
0.111065
0.110753
0.109542
0.107649
0.105262
0.0910212
0.0987389
0.102498
0.105416
0.107165
0.107641
0.107045
0.105614
0.103576
0.101042
0.0873216
0.0958754
0.099768
0.102679
0.104316
0.104619
0.103846
0.102263
0.100098
0.0974354
0.0838133
0.0930083
0.0972136
0.100287
0.101948
0.102179
0.101289
0.0995788
0.097279
0.094489
0.0807286
0.0903521
0.0951065
0.0984934
0.100257
0.10046
0.0994675
0.0976195
0.0951547
0.0922248
0.078316
0.0881975
0.0937207
0.0975125
0.0993976
0.0995635
0.0984466
0.0964251
0.0937523
0.0906537
0.0768194
0.0868754
0.0933022
0.0975145
0.0994815
0.0995599
0.0982663
0.09602
0.093092
0.0897655
0.076475
0.0867088
0.0940543
0.0986255
0.100593
0.100503
0.0989515
0.0963993
0.0931325
0.0894588
0.0775126
0.0879684
0.0961295
0.100931
0.102799
0.102454
0.100557
0.0975677
0.0937372
0.089466
0.0801459
0.0908455
0.0996216
0.104477
0.10614
0.105484
0.103205
0.0996829
0.0950231
0.0897726
0.0845512
0.0954424
0.104565
0.109266
0.110603
0.109607
0.10699
0.10303
0.0977468
0.0920324
0.0908704
0.101786
0.110939
0.115246
0.116113
0.114727
0.111801
0.107635
0.102525
0.0978364
0.0992539
0.109858
0.118665
0.122302
0.122571
0.120697
0.117385
0.112974
0.108003
0.103773
0.109569
0.119555
0.127576
0.130313
0.129843
0.127391
0.123642
0.118954
0.113908
0.109614
0.121658
0.130684
0.137455
0.139098
0.137771
0.134659
0.130407
0.125371
0.120102
0.115561
0.135471
0.142688
0.148072
0.14847
0.146199
0.142374
0.137585
0.132153
0.126578
0.121704
0.150351
0.155445
0.159178
0.158226
0.154963
0.150407
0.145075
0.139246
0.133353
0.128123
0.165837
0.168609
0.170501
0.168152
0.163898
0.15863
0.152792
0.146609
0.140433
0.134868
0.181431
0.181789
0.181758
0.178026
0.172828
0.166911
0.16064
0.154188
0.147809
0.141964
0.196614
0.194575
0.192655
0.187623
0.181576
0.175108
0.168512
0.161909
0.155443
0.149409
0.210831
0.206562
0.202903
0.196719
0.189957
0.18307
0.176281
0.16967
0.163263
0.157154
0.223532
0.217383
0.212237
0.205102
0.197795
0.190639
0.183804
0.177336
0.171146
0.165076
0.234552
0.226789
0.220434
0.212585
0.204926
0.197668
0.190933
0.184752
0.178924
0.17302
0.243547
0.234541
0.227315
0.219016
0.211214
0.204025
0.197534
0.191764
0.186426
0.180826
0.250259
0.240453
0.232736
0.224273
0.216542
0.209592
0.203478
0.198228
0.193489
0.188338
0.254531
0.24441
0.236602
0.228267
0.220825
0.214277
0.208663
0.204022
0.199975
0.195403
0.2563
0.246356
0.238864
0.230954
0.224008
0.218018
0.213012
0.209051
0.20576
0.201876
0.255586
0.246303
0.239528
0.232326
0.226077
0.220785
0.21648
0.213247
0.210751
0.207639
0.252491
0.244323
0.238643
0.232417
0.227048
0.222581
0.219056
0.21658
0.214886
0.212585
0.24719
0.240538
0.236299
0.231295
0.226971
0.223443
0.220768
0.219062
0.218125
0.21662
0.239915
0.235116
0.23262
0.229054
0.225917
0.223422
0.221651
0.220679
0.220358
0.219715
0.230931
0.228253
0.227756
0.225817
0.223988
0.222606
0.221807
0.221591
0.2218
0.22255
0.220491
0.220163
0.221875
0.221715
0.221292
0.221077
0.221275
0.2219
0.222858
0.22437
0.20898
0.211107
0.215163
0.216894
0.217947
0.218925
0.220115
0.221578
0.223242
0.225313
0.196757
0.201345
0.207806
0.211496
0.21407
0.216254
0.21842
0.220695
0.223029
0.225513
0.184161
0.191129
0.199984
0.205664
0.20978
0.213175
0.216304
0.21937
0.222368
0.225292
0.171505
0.180694
0.191866
0.199527
0.205189
0.209792
0.213872
0.217705
0.221354
0.224769
0.159079
0.170243
0.183607
0.193202
0.200392
0.20619
0.211203
0.215778
0.220043
0.223954
0.147134
0.159936
0.175342
0.186784
0.195466
0.202434
0.208358
0.213646
0.21849
0.222873
0.13596
0.149874
0.16719
0.180346
0.19047
0.198574
0.20538
0.211353
0.216744
0.22158
0.125726
0.140236
0.159228
0.173933
0.185446
0.194644
0.2023
0.20893
0.214841
0.220119
0.116592
0.131491
0.151343
0.167582
0.180419
0.190659
0.19913
0.206392
0.212798
0.21851
0.108233
0.123345
0.143839
0.161393
0.175425
0.186638
0.195882
0.203747
0.210618
0.216745
0.100783
0.115837
0.136784
0.155385
0.170471
0.182584
0.19255
0.200986
0.208286
0.214793
0.0943319
0.109072
0.130156
0.149547
0.165535
0.178479
0.189111
0.19809
0.205783
0.21261
0.0888808
0.103099
0.123965
0.143881
0.160612
0.174275
0.185546
0.195029
0.2031
0.210158
0.084395
0.0979331
0.118244
0.138402
0.155707
0.169985
0.181805
0.191751
0.200214
0.207428
0.0808301
0.0935718
0.113023
0.133131
0.150815
0.165589
0.177879
0.188233
0.197032
0.20464
0.078132
0.090002
0.108328
0.12809
0.14594
0.161073
0.173755
0.184466
0.193544
0.201423
0.076237
0.0871968
0.10418
0.123313
0.141101
0.156435
0.169397
0.180388
0.189659
0.197675
0.0750762
0.0851165
0.100599
0.118838
0.136334
0.151699
0.164817
0.176024
0.185489
0.19333
0.0745713
0.0837093
0.0975935
0.114709
0.131688
0.146909
0.160017
0.171225
0.180735
0.187955
0.074595
0.0828937
0.0951587
0.11097
0.127222
0.142135
0.155117
0.166198
0.175629
0.183155
0.0751158
0.0826218
0.0932894
0.107663
0.123008
0.137479
0.150296
0.161329
0.170827
0.178816
0.0760683
0.082827
0.0919654
0.104822
0.119116
0.133023
0.145631
0.156658
0.166255
0.174501
0.0773728
0.0834336
0.0911531
0.10247
0.115595
0.128814
0.141115
0.152071
0.161699
0.170059
0.0789535
0.0843675
0.0908068
0.100609
0.112482
0.124883
0.136752
0.147531
0.157107
0.165516
0.0807436
0.0855601
0.0908721
0.0992317
0.109805
0.121278
0.13259
0.143088
0.152534
0.160931
0.082685
0.0869492
0.0912908
0.0983182
0.107592
0.118055
0.128703
0.138817
0.148053
0.156368
0.0847304
0.0884808
0.0920045
0.0978416
0.105864
0.115276
0.125169
0.134803
0.143748
0.151911
0.0868534
0.0901196
0.0929637
0.0977678
0.104628
0.112989
0.122066
0.131137
0.139714
0.147657
)
;

boundaryField
{
    inlet
    {
        type            zeroGradient;
    }
    outlet
    {
        type            fixedValue;
        value           uniform 0;
    }
    cylinder
    {
        type            zeroGradient;
    }
    top
    {
        type            symmetryPlane;
    }
    bottom
    {
        type            symmetryPlane;
    }
    defaultFaces
    {
        type            empty;
    }
}


// ************************************************************************* //
