/*--------------------------------*- C++ -*----------------------------------*\
  =========                 |
  \\      /  F ield         | OpenFOAM: The Open Source CFD Toolbox
   \\    /   O peration     | Website:  https://openfoam.org
    \\  /    A nd           | Version:  7
     \\/     M anipulation  |
\*---------------------------------------------------------------------------*/
FoamFile
{
    version     2.0;
    format      ascii;
    class       surfaceScalarField;
    location    "10";
    object      phi;
}
// * * * * * * * * * * * * * * * * * * * * * * * * * * * * * * * * * * * * * //

dimensions      [0 3 -1 0 0 0 0];

internalField   nonuniform List<scalar> 
15760
(
1.58941e-05
0.00078165
-0.000797544
6.09116e-05
0.00212898
-0.002174
0.000131137
0.0033274
-0.00339763
0.00022322
0.00440624
-0.00449832
0.000334189
0.00538716
-0.00549813
0.000461306
0.00628592
-0.00641304
0.000601992
0.00711411
-0.0072548
0.000753807
0.00788035
-0.00803216
0.000914427
0.00859108
-0.0087517
0.00108165
0.0092512
-0.00941842
0.00125336
0.00986446
-0.0100362
0.00142757
0.0104338
-0.010608
0.00160239
0.0109614
-0.0111362
0.001776
0.0114492
-0.0116228
0.00194672
0.0118987
-0.0120694
0.00211294
0.012311
-0.0124772
0.00227318
0.0126875
-0.0128477
0.00242609
0.013029
-0.0131819
0.00257044
0.0133366
-0.0134809
0.0136105
0.00270515
-0.0137452
1.68262e-05
0.000764823
6.38815e-05
0.00208193
0.000137506
0.00325378
0.000234478
0.00430927
0.000351908
0.00526973
0.000487111
0.00615072
0.000637546
0.00696368
0.000800787
0.00771711
0.00097451
0.00841735
0.00115648
0.00906923
0.00134455
0.00967639
0.00153666
0.0102417
0.00173084
0.0107672
0.00192519
0.0112549
0.00211792
0.0117059
0.00230733
0.0121216
0.00249185
0.0125029
0.00267004
0.0128508
0.00284059
0.013166
0.0134487
0.00300236
1.76576e-05
0.000747166
6.66662e-05
0.00203292
0.000143575
0.00317687
0.000245306
0.00420753
0.000369063
0.00514597
0.000512223
0.00600756
0.00067229
0.00680361
0.000846862
0.00754253
0.00103362
0.0082306
0.00123031
0.00887254
0.00143476
0.00947195
0.00164484
0.0100316
0.00185853
0.0105536
0.00207383
0.0110395
0.00228886
0.0114909
0.00250182
0.0119086
0.00271104
0.0122937
0.00291497
0.0126469
0.00311222
0.0129688
0.0132594
0.00330153
1.83872e-05
0.000728779
6.92387e-05
0.00198207
0.000149294
0.00309681
0.000255626
0.0041012
0.000385538
0.00501606
0.000536479
0.00585662
0.000706001
0.00663409
0.000891736
0.0073568
0.00109138
0.00803096
0.00130267
0.00866124
0.00152341
0.0092512
0.00175145
0.00980354
0.00198468
0.0103203
0.00222104
0.0108032
0.00245855
0.0112534
0.00269531
0.0116719
0.00292952
0.0120595
0.00315952
0.0124169
0.00338378
0.0127445
0.0130422
0.00360094
1.90015e-05
0.000709777
7.15669e-05
0.0019295
0.000154618
0.00301376
0.000265376
0.00399044
0.000401249
0.00488019
0.000559762
0.00569811
0.000738523
0.00645533
0.000935202
0.00716012
0.00114752
0.00781864
0.00137322
0.00843554
0.0016101
0.00901432
0.00185598
0.00955766
0.0021087
0.0100676
0.00236613
0.0105458
0.00262621
0.0109933
0.00288691
0.0114112
0.0031463
0.0118001
0.00340259
0.0121606
0.00365409
0.012493
0.0127971
0.00389925
1.951e-05
0.000690267
7.36546e-05
0.00187536
0.000159545
0.00292787
0.000274551
0.00387544
0.000416183
0.00473856
0.000582044
0.00553224
0.000769802
0.00626757
0.000977169
0.00695275
0.0012019
0.00759391
0.00144177
0.00819567
0.00169457
0.00876152
0.0019581
0.00929412
0.00223019
0.00979553
0.00250863
0.0102673
0.00279128
0.0107107
0.00307599
0.0111265
0.0033607
0.0115154
0.00364343
0.0118779
0.00392231
0.0122142
0.0125238
0.00419557
1.99193e-05
0.000670348
7.55134e-05
0.00181976
0.000164095
0.00283929
0.000283179
0.00375635
0.000430377
0.00459136
0.000603366
0.00535925
0.000799872
0.00607107
0.00101766
0.00673496
0.00125452
0.00735705
0.00150827
0.00794192
0.00177672
0.00849307
0.00205767
0.00901316
0.00234893
0.00950427
0.00264828
0.00996797
0.00295345
0.0104055
0.00326222
0.0108177
0.00357235
0.0112053
0.00388167
0.0115686
0.00418806
0.0119078
0.0122224
0.00448951
2.0242e-05
0.000650106
7.7172e-05
0.00176283
0.00016832
0.00274814
0.000291339
0.00363334
0.000443936
0.00443876
0.000623855
0.00517934
0.000828879
0.00586604
0.00105682
0.00650702
0.00130553
0.00710835
0.00157285
0.0076746
0.00185665
0.00820927
0.00215476
0.00871506
0.00246498
0.00919405
0.00278506
0.00964789
0.0031127
0.0100778
0.00344556
0.0104849
0.00378122
0.0108696
0.00411731
0.0112325
0.00445143
0.0115736
0.0118926
0.00478123
2.04946e-05
0.000629611
7.86751e-05
0.00170465
0.000172299
0.00265452
0.000299154
0.00350648
0.000457029
0.00428089
0.000643726
0.00499264
0.000857078
0.00565269
0.00109495
0.00626915
0.00135523
0.00684806
0.00163585
0.00739399
0.00193469
0.00791043
0.00224966
0.00840009
0.0025786
0.00886512
0.00291925
0.00930723
0.00326929
0.0097278
0.00362628
0.0101279
0.00398766
0.0105082
0.0043508
0.0108693
0.004713
0.0112114
0.0115341
0.00507149
2.06981e-05
0.000608913
8.00817e-05
0.00164527
0.000176144
0.00255845
0.000306797
0.00337583
0.000469896
0.00411779
0.000663288
0.00479925
0.000884843
0.00543114
0.00113247
0.00602152
0.00140412
0.00657641
0.00169777
0.00710034
0.00201139
0.00759681
0.00234294
0.00806853
0.00269034
0.00851772
0.0030514
0.00894618
0.00342378
0.00935541
0.003805
0.00974665
0.00419236
0.0101209
0.00458299
0.0104787
0.00497383
0.0108206
0.0111463
0.0053616
2.08768e-05
0.000588036
8.14652e-05
0.00158468
0.000179994
0.00245992
0.000314485
0.00324134
0.000482842
0.00394943
0.000682937
0.00459915
0.000912668
0.0052014
0.00116998
0.00576421
0.00145286
0.00629353
0.00175936
0.00679385
0.00208752
0.00726864
0.00243542
0.00772063
0.00280107
0.00815208
0.00318236
0.00856488
0.00357705
0.00896072
0.00398264
0.00934106
0.00439636
0.00970714
0.0048151
0.01006
0.0052354
0.0104003
0.0107283
0.00565342
2.10588e-05
0.000566977
8.29114e-05
0.00152283
0.000184014
0.00235882
0.000322478
0.00310287
0.000496233
0.00377568
0.00070316
0.00439222
0.000941161
0.0049634
0.0012082
0.00549717
0.0015023
0.00599942
0.00182157
0.00647458
0.00216416
0.00692605
0.00252822
0.00735656
0.00291192
0.00776838
0.00331331
0.00816349
0.00373029
0.00854375
0.00416044
0.00891091
0.00460099
0.0092666
0.00504867
0.00961228
0.00549961
0.00994935
0.0102786
0.00594928
2.12755e-05
0.000545702
8.45172e-05
0.00145958
0.00018839
0.00225495
0.000331071
0.00296019
0.000510494
0.00359625
0.000724519
0.0041782
0.000971038
0.00471688
0.00124801
0.0052202
0.00155349
0.00569395
0.00188561
0.00614246
0.00224261
0.00656906
0.00262277
0.0069764
0.00302441
0.00736674
0.0034458
0.00774211
0.00388504
0.00810451
0.00433995
0.00845599
0.00480788
0.00879867
0.0052855
0.00913466
0.0057686
0.00946626
0.0097954
0.00625182
2.15608e-05
0.000524141
8.63885e-05
0.00139476
0.000193328
0.00214801
0.000340594
0.00281292
0.000526093
0.00341075
0.000747647
0.00395664
0.00100311
0.00446142
0.00129041
0.00493289
0.00160761
0.00537675
0.00195287
0.0057972
0.00232448
0.00619745
0.00272083
0.00658005
0.00314041
0.00694716
0.00358173
0.00730079
0.00404322
0.00764302
0.00452305
0.00797616
0.0050189
0.00830282
0.00552758
0.00862597
0.00604467
0.00894918
0.00927616
0.00656391
2.19506e-05
0.00050219
8.86374e-05
0.00132807
0.000199045
0.0020376
0.000351393
0.00266058
0.000543532
0.00321861
0.00077322
0.00372696
0.00103825
0.00419639
0.00133651
0.00463463
0.00166603
0.00504723
0.00202496
0.00543827
0.00241162
0.00581079
0.00282449
0.00616717
0.00326221
0.00650944
0.00372352
0.00683948
0.00420724
0.00715931
0.00471204
0.00747135
0.00523619
0.00777868
0.00577702
0.00808514
0.00633016
0.00839604
0.00871791
0.0068884
2.24818e-05
0.000479709
9.13788e-05
0.00125917
0.000205766
0.00192322
0.000363826
0.00250252
0.00056333
0.00301911
0.000801944
0.00348834
0.00107738
0.00392095
0.00138747
0.00432454
0.00173017
0.00470453
0.00210362
0.00506482
0.00250613
0.00540828
0.00293618
0.00573712
0.00339252
0.0060531
0.00387411
0.0063579
0.00438011
0.0066533
0.00490982
0.00694164
0.00546236
0.00722614
0.00603611
0.0075114
0.00662737
0.00780477
0.00811719
0.0072281
2.31911e-05
0.000456518
9.47269e-05
0.00118764
0.000213711
0.00180423
0.000378248
0.00233798
0.000585999
0.00281136
0.00083452
0.00323982
0.00112143
0.00363404
0.00144447
0.0040015
0.00180154
0.00434746
0.00219071
0.00467565
0.00261024
0.00498876
0.0030586
0.00528875
0.00353453
0.00557717
0.00403708
0.00585535
0.0045657
0.00612468
0.00512026
0.00638708
0.00570092
0.00664548
0.00630769
0.00690463
0.00693877
0.00717369
0.0074702
0.00758576
2.41139e-05
0.000432404
9.87913e-05
0.00111296
0.000223092
0.00167993
0.000394997
0.00216607
0.000612027
0.00259433
0.000871612
0.00298024
0.00117126
0.00333439
0.00150864
0.00366413
0.00188155
0.00397454
0.00228802
0.00426918
0.00272622
0.00455055
0.00319457
0.00482041
0.00369172
0.00508002
0.00421669
0.00533038
0.00476896
0.00557241
0.0053487
0.00580734
0.00595698
0.0060372
0.00659581
0.0062658
0.00726706
0.00650243
0.00677208
0.00796518
2.52831e-05
0.000407121
0.000103673
0.00103457
0.000234103
0.0015495
0.000414379
0.0019858
0.000641855
0.00236686
0.000913819
0.00270827
0.00122767
0.00302054
0.00158098
0.00331082
0.0019715
0.00358402
0.00239719
0.00384349
0.00285619
0.00409156
0.00334683
0.00432976
0.0038677
0.00455915
0.00441766
0.00478041
0.00499604
0.00499404
0.00560284
0.00520053
0.00623929
0.00540075
0.0069085
0.00559659
0.0076173
0.00579363
0.00601284
0.00837654
2.6728e-05
0.000380393
0.000109461
0.000951837
0.000246911
0.00141205
0.000436656
0.00179605
0.00067585
0.00212766
0.00096163
0.00242249
0.00129128
0.00269089
0.0016623
0.0029398
0.0020724
0.00317392
0.00251951
0.00339639
0.00300178
0.00360929
0.00351758
0.00381397
0.00406552
0.0040112
0.00464454
0.0042014
0.00525396
0.00438462
0.0058938
0.00456069
0.00656531
0.00472925
0.0072713
0.0048906
0.00801892
0.00504601
0.00884527
0.0051865
0.00275704
0.0498793
-0.0499312
0.00268867
0.0526065
-0.0525382
0.00248411
0.0545389
-0.0543343
0.00216734
0.0560227
-0.055706
0.00175685
0.0571295
-0.056719
0.00127852
0.0580439
-0.0575656
0.000756761
0.0588965
-0.0583748
0.00021544
0.0598084
-0.0592671
-0.000322397
0.0608732
-0.0603354
-0.000833397
0.0621643
-0.0616533
-0.00129306
0.0637337
-0.063274
-0.00167542
0.0656099
-0.0652275
-0.00195384
0.0677917
-0.0675133
-0.00210318
0.0702397
-0.0700904
-0.00210327
0.0728676
-0.0728675
-0.00194322
0.0755378
-0.0756979
-0.00162573
0.0780668
-0.0783843
-0.00116991
0.0802412
-0.080697
-0.000611606
0.0818484
-0.0824067
0.0827083
-0.0833199
0.0031213
0.0497604
0.00310654
0.0526213
0.00294573
0.0546997
0.00266222
0.0563062
0.00227559
0.0575161
0.00181281
0.0585067
0.00129968
0.0594097
0.000761267
0.0603468
0.000221434
0.061413
-0.000296254
0.062682
-0.000767732
0.0642052
-0.00116811
0.0660103
-0.00147236
0.068096
-0.00165716
0.0704245
-0.00170405
0.0729145
-0.00160322
0.075437
-0.00135739
0.077821
-0.00098426
0.0798681
-0.000516746
0.0813808
0.0821916
0.00348691
0.049575
0.00352665
0.0525815
0.00341071
0.0548156
0.0031618
0.0565552
0.00280024
0.0578777
0.00235392
0.058953
0.00184982
0.0599138
0.00131416
0.0608825
0.000771599
0.0619556
0.000245981
0.0632076
-0.000238944
0.0646901
-0.00065929
0.0664306
-0.000991339
0.068428
-0.00121338
0.0706466
-0.00130842
0.0730095
-0.00126752
0.0753961
-0.00109326
0.0776467
-0.00080195
0.0795767
-0.000423733
0.0810026
0.0817678
0.00385166
0.0493243
0.00394654
0.0524867
0.00387639
0.0548858
0.00366332
0.0567682
0.00332803
0.058213
0.00289909
0.0593819
0.00240452
0.0604083
0.0018716
0.0614154
0.00132578
0.0625014
0.00079119
0.0637422
0.000291361
0.0651899
-0.000150503
0.0668725
-0.000512065
0.0687896
-0.000772832
0.0709073
-0.000917073
0.0731538
-0.000936538
0.0754156
-0.00083358
0.0775438
-0.000623089
0.0793662
-0.000332597
0.0807121
0.0814352
0.00421364
0.0490099
0.00436394
0.0523364
0.00434025
0.0549095
0.00416412
0.0569444
0.00385623
0.0585209
0.00344563
0.0597925
0.00296119
0.0608928
0.00243114
0.0619455
0.00188168
0.0630509
0.00133732
0.0642865
0.00082144
0.0657058
0.000356597
0.0673373
-3.56753e-05
0.0691818
-0.000336429
0.0712081
-0.000530655
0.073348
-0.000610686
0.0754956
-0.000578554
0.0775116
-0.000447763
0.0792355
-0.000243367
0.0805077
0.0811919
0.00457132
0.0486341
0.00477686
0.0521308
0.00480001
0.0548863
0.00466169
0.0570827
0.00438226
0.0588003
0.00399094
0.0601839
0.00351732
0.0613664
0.00299041
0.0624724
0.00243715
0.0636042
0.00188244
0.0648412
0.00134961
0.0662386
0.000860732
0.0678262
0.000436443
0.0696061
9.49957e-05
0.0715495
-0.000149668
0.0735927
-0.000290289
0.0756362
-0.000328353
0.0775497
-0.000276037
0.0791831
-0.000156053
0.0803878
0.0810358
0.00492361
0.0482
0.00518369
0.0518707
0.00525365
0.0548164
0.00515376
0.0571826
0.0049037
0.0590504
0.00453259
0.060555
0.00407051
0.0618285
0.00354715
0.0629957
0.00299011
0.0641612
0.0024247
0.0654066
0.00187429
0.066789
0.00136059
0.0683399
0.000903576
0.0700631
0.000520699
0.0719324
0.000225258
0.0738881
2.43928e-05
0.0758371
-8.30412e-05
0.0776571
-0.000107932
0.079208
-7.06475e-05
0.0803505
0.0809652
0.00526997
0.0477113
0.00558322
0.0515575
0.00569952
0.0547001
0.00563834
0.0572438
0.00541834
0.0592704
0.00506829
0.060905
0.00461851
0.0622783
0.00409923
0.063515
0.00353861
0.0647218
0.00296239
0.0659829
0.00239401
0.0673574
0.00185497
0.0688789
0.00136472
0.0705534
0.000940073
0.072357
0.000593851
0.0742343
0.000333068
0.0760979
0.000157117
0.0778331
5.65035e-05
0.0793086
1.28503e-05
0.0803941
0.080978
0.00561042
0.0471723
0.0059747
0.0511932
0.00613636
0.0545384
0.00611374
0.0572664
0.00592424
0.0594599
0.00559598
0.0612333
0.00515925
0.062715
0.00464465
0.0640296
0.00408082
0.0652857
0.00349388
0.0665698
0.00290742
0.0679439
0.00234277
0.0694436
0.00181903
0.0710771
0.00135252
0.0728236
0.000955711
0.0746311
0.000635619
0.076418
0.000392212
0.0780765
0.000217275
0.0794836
9.44234e-05
0.080517
0.0810724
0.00594564
0.0465883
0.00635793
0.0507809
0.00656335
0.054333
0.00657865
0.0572511
0.00641977
0.0596187
0.00611381
0.0615392
0.00569084
0.063138
0.00518159
0.0645389
0.00461505
0.0658522
0.00401768
0.0671672
0.00341324
0.0685483
0.00282299
0.0700338
0.00226575
0.0716344
0.00175752
0.0733318
0.00131051
0.0750781
0.000931864
0.0767966
0.000622146
0.0783862
0.000374397
0.0797313
0.000174124
0.0807172
0.0812466
0.00627693
0.0459648
0.00673324
0.0503246
0.00698014
0.0540861
0.00703215
0.0571991
0.00690358
0.0597473
0.00662022
0.0618226
0.00621161
0.0635466
0.00570838
0.0650421
0.00513975
0.0664208
0.00453242
0.0677745
0.00391032
0.0691704
0.00329469
0.0706495
0.00270419
0.0722249
0.00215458
0.0738814
0.00165798
0.0755747
0.00122167
0.0772329
0.000846877
0.078761
0.000527872
0.0800503
0.000251958
0.0809932
0.0814985
0.00660624
0.0453078
0.00710156
0.0498293
0.0073869
0.0538007
0.00747374
0.0571122
0.00737473
0.0598463
0.00711394
0.0620834
0.00672012
0.0639404
0.00622356
0.0655387
0.0056535
0.0669909
0.00503681
0.0683912
0.00439756
0.0698097
0.00375701
0.07129
0.00313371
0.0728482
0.00254329
0.0744718
0.00199785
0.0761202
0.0015049
0.0777259
0.00106638
0.0791995
0.000677713
0.080439
0.000327939
0.0813429
0.0818265
0.00693609
0.0446236
0.00746431
0.0493011
0.00778425
0.0534808
0.00790336
0.0569931
0.00783258
0.0599171
0.00759398
0.062322
0.00721518
0.0643192
0.00672585
0.066028
0.00615507
0.0675617
0.00552973
0.0690165
0.00487399
0.0704654
0.00420915
0.0719549
0.00355371
0.0735036
0.00292324
0.0751023
0.00232988
0.0767135
0.00178147
0.0782743
0.00128062
0.0797004
0.000823935
0.0808957
0.000402087
0.0817648
0.0822285
0.00726944
0.043918
0.00782343
0.0487471
0.00817323
0.053131
0.00832132
0.056845
0.0082769
0.0599615
0.0080597
0.0625392
0.00769587
0.064683
0.0072142
0.0665097
0.00664336
0.0681325
0.00601014
0.0696497
0.00533871
0.0711368
0.00465037
0.0726432
0.00396363
0.0741904
0.00329404
0.0757719
0.00265386
0.0773537
0.00205127
0.0788769
0.00148958
0.0802621
0.000966549
0.0814187
0.000474417
0.0822569
0.082703
0.00760962
0.0431968
0.00818136
0.0481754
0.00855537
0.052757
0.00872838
0.056672
0.00870785
0.059982
0.00851078
0.0627363
0.00816156
0.0650322
0.00768778
0.0669834
0.00711747
0.0687028
0.00647715
0.07029
0.00579089
0.0718231
0.00508
0.0733541
0.00436294
0.0749074
0.00365533
0.0764795
0.00296955
0.0780395
0.00231418
0.0795323
0.00169323
0.080883
0.00110556
0.0820064
0.00054494
0.0828175
0.0832479
0.00796017
0.0424647
0.00854096
0.0475946
0.00893257
0.0523654
0.00912571
0.0564789
0.00912597
0.0599818
0.00894733
0.0629149
0.00861198
0.0653676
0.00814605
0.0674494
0.00757669
0.0692722
0.00692999
0.0709368
0.00622981
0.0725233
0.00549737
0.0740865
0.00475114
0.0756537
0.00400674
0.0772239
0.00327673
0.0787695
0.00257008
0.0802389
0.00189152
0.0815616
0.00124098
0.0826569
0.000613667
0.0834449
0.0838616
0.00832335
0.0417272
0.00890422
0.0470137
0.00930621
0.0519634
0.00951422
0.0562709
0.00953177
0.0599642
0.00936945
0.0630772
0.00904691
0.0656901
0.00858853
0.0679078
0.00802037
0.0698404
0.00736791
0.0715892
0.0066547
0.0732365
0.00590182
0.0748394
0.00512764
0.0764278
0.00434784
0.0780037
0.00357512
0.0795422
0.00281884
0.0809952
0.0020844
0.082296
0.00137279
0.0833685
0.000680604
0.084137
0.0845422
0.00869728
0.0409951
0.00927012
0.0464408
0.00967552
0.051558
0.00989329
0.0560531
0.00992472
0.0599328
0.00977665
0.0632253
0.00946578
0.066001
0.00901452
0.068359
0.00844768
0.0704072
0.00779002
0.0722469
0.00706469
0.0739618
0.00629252
0.0756116
0.00549178
0.0772286
0.00467811
0.0788174
0.00386437
0.080356
0.00306024
0.0817993
0.00227179
0.0830845
0.00150098
0.0841393
0.000745757
0.0848923
0.0852879
0.0090874
0.0402842
0.00964424
0.045884
0.0100445
0.0511577
0.010266
0.0558316
0.0103074
0.0598914
0.010171
0.0633617
0.00987006
0.0663019
0.00942493
0.0688041
0.00885906
0.0709731
0.00819638
0.0729096
0.00745956
0.0746986
0.00666914
0.076402
0.00584319
0.0780545
0.00499726
0.0796633
0.00414427
0.081209
0.00329418
0.0826494
0.00245365
0.083925
0.00162556
0.0849674
0.000809156
0.0857087
0.0860971
0.00953804
0.0395914
0.0100649
0.0453572
0.0104411
0.0507815
0.0106543
0.0556184
0.0106967
0.059849
0.010565
0.0634934
0.0102686
0.0665982
0.00982562
0.0692471
0.009258
0.0715407
0.00858872
0.0735788
0.00783981
0.0754475
0.00703134
0.0772105
0.00618104
0.0789048
0.00530422
0.0805401
0.00441373
0.0820995
0.00351968
0.0835435
0.00262919
0.0848155
0.00174601
0.0858506
0.000870525
0.0865842
0.0869676
0.0085094
0.0426846
-0.0116026
0.00692578
0.0469408
0.00618004
0.0515272
0.00586956
0.0559289
0.00575694
0.0599616
0.00568861
0.0635618
0.00556405
0.0667228
0.00532724
0.069484
0.00495749
0.0719104
0.00446168
0.0740746
0.00386661
0.0760426
0.00321185
0.0778652
0.00254309
0.0795736
0.00190598
0.0811772
0.00134027
0.0826652
0.000874556
0.0840092
0.000521698
0.0851684
0.000276505
0.0860958
0.000114993
0.0867457
0.0870826
0.0145762
0.046837
-0.0187286
0.0117251
0.0497918
0.00992498
0.0533274
0.00882353
0.0570304
0.00814757
0.0606376
0.00769704
0.0640123
0.00732912
0.0670907
0.00694966
0.0698634
0.00650513
0.072355
0.00597428
0.0746055
0.0053601
0.0766568
0.00468228
0.0785431
0.00397023
0.0802856
0.00325674
0.0818907
0.00257229
0.0833496
0.00194025
0.0846412
0.00137323
0.0857354
0.000871054
0.086598
0.000420763
0.087196
0.0875034
0.0211333
0.0517822
-0.0260785
0.0172926
0.0536326
0.014508
0.056112
0.0125637
0.0589747
0.0112224
0.0619788
0.010275
0.0649597
0.00955224
0.0678135
0.00892859
0.0704871
0.00831939
0.0729642
0.00767501
0.0752499
0.00697395
0.0773578
0.00621562
0.0793014
0.00541324
0.081088
0.00458732
0.0827166
0.00375986
0.0841771
0.0029497
0.0854514
0.00216904
0.086516
0.00142162
0.0873454
0.000702467
0.0879151
0.0882058
0.0277801
0.0569998
-0.0329977
0.0233059
0.0581068
0.0197337
0.0596842
0.0170041
0.0617043
0.0149661
0.0640168
0.0134441
0.0664817
0.012271
0.0689866
0.0113061
0.071452
0.0104417
0.0738286
0.00960351
0.0760881
0.00874672
0.0782146
0.00785042
0.0801977
0.00691135
0.0820271
0.00593741
0.0836906
0.00494198
0.0851725
0.00393904
0.0864543
0.00293975
0.0875153
0.00195037
0.0883348
0.000971689
0.0888938
0.0891775
0.0341636
0.0621469
-0.0393107
0.0294103
0.0628601
0.0253096
0.063785
0.0219379
0.065076
0.0192496
0.0667051
0.017134
0.0685973
0.0154539
0.0706666
0.0140742
0.0728317
0.0128778
0.075025
0.0117733
0.0771926
0.0106964
0.0792916
0.00960742
0.0812866
0.00848697
0.0831475
0.00733024
0.0848473
0.00614153
0.0863612
0.00492944
0.0876664
0.00370317
0.0887416
0.00247017
0.0895678
0.00123511
0.0901288
0.0904126
0.0400505
0.0669488
-0.0448524
0.0353192
0.0675914
0.0309569
0.0681473
0.0271342
0.0688986
0.0239037
0.0699356
0.0212322
0.0712689
0.0190332
0.0728656
0.0171969
0.074668
0.0156125
0.0766094
0.0141822
0.0786228
0.0128287
0.080645
0.0114972
0.0826181
0.0101536
0.0844911
0.00878078
0.0862201
0.00737373
0.0877683
0.00593513
0.089105
0.00447134
0.0902054
0.00298978
0.0910493
0.00149737
0.0916213
0.09191
0.0452628
0.0711913
-0.0495052
0.040805
0.0720492
0.0364316
0.0725206
0.0323684
0.0729619
0.0287446
0.0735593
0.0256025
0.0744111
0.0229162
0.0755519
0.0206163
0.0769678
0.0186132
0.0786125
0.016815
0.0804211
0.0151399
0.0823201
0.0135232
0.0842349
0.011919
0.0860953
0.0102991
0.08784
0.00864966
0.0894177
0.00696688
0.0907878
0.00525357
0.0919187
0.00351603
0.0927869
0.00176208
0.0933752
0.0936721
0.0496841
0.0747208
-0.0532137
0.0456974
0.0760359
0.0415313
0.0766866
0.037434
0.0770592
0.0335862
0.0774072
0.030093
0.0779043
0.0269891
0.0786559
0.0242535
0.0797034
0.0218293
0.0810367
0.0196418
0.0826085
0.0176146
0.0843474
0.0156797
0.0861698
0.0137838
0.0879912
0.0118898
0.0897339
0.00997582
0.0913317
0.00803173
0.0927319
0.00605625
0.0938942
0.00405374
0.0947894
0.00203186
0.0953971
0.0957039
0.0532595
0.0774407
-0.0559795
0.0498868
0.0794087
0.0461043
0.0804692
0.0421584
0.081005
0.0382571
0.0813084
0.034551
0.0816104
0.0311273
0.0820796
0.0280142
0.0828164
0.0251941
0.0838568
0.0226189
0.0851837
0.0202262
0.0867401
0.0179523
0.0884437
0.0157417
0.0902018
0.0135518
0.0919238
0.0113542
0.0935294
0.00913307
0.094953
0.00688301
0.0961442
0.00460585
0.0970666
0.00230832
0.0976946
0.0980123
0.0559839
0.0793007
-0.0578439
0.0533193
0.0820733
0.0500527
0.0837358
0.0464131
0.0846446
0.0426157
0.0851058
0.0388384
0.0853877
0.0352086
0.0857094
0.031799
0.086226
0.0286325
0.0870234
0.0256929
0.0881233
0.0229392
0.0894938
0.0203191
0.0910638
0.0177805
0.0927404
0.0152793
0.094425
0.012783
0.0960257
0.0102714
0.0974645
0.00773527
0.0986804
0.00517381
0.099628
0.00259234
0.100276
0.100605
0.0578898
0.0802868
-0.0588759
0.0559874
0.0839757
0.0533291
0.0863941
0.0501171
0.0878566
0.0465588
0.0886641
0.0428438
0.0891027
0.0391262
0.0894271
0.0355143
0.0898379
0.0320686
0.0904691
0.0288066
0.0913853
0.0257133
0.0925871
0.0227533
0.0940237
0.0198837
0.09561
0.0170629
0.0972458
0.0142577
0.0988309
0.0114451
0.100277
0.00861295
0.101513
0.00575808
0.102483
0.00288431
0.10315
0.103489
0.0590307
0.0804074
-0.0591513
0.0579162
0.0850902
0.055927
0.0883834
0.0532328
0.0905508
0.0500241
0.0918728
0.0464894
0.0926373
0.0427973
0.0931192
0.0390817
0.0935535
0.0354347
0.0941161
0.0319059
0.0949141
0.0285081
0.0959849
0.0252271
0.0973047
0.0220331
0.0988039
0.018892
0.100387
0.0157726
0.10195
0.0126516
0.103398
0.00951521
0.104649
0.00635861
0.105639
0.00318433
0.106324
0.106673
0.059476
0.0796896
-0.0587582
0.0591547
0.0854115
0.0578708
0.0896673
0.055759
0.0926626
0.0529865
0.0946453
0.049732
0.0958918
0.0461678
0.0966834
0.0424441
0.0972772
0.0386775
0.0978827
0.0349456
0.0986459
0.0312885
0.099642
0.0277149
0.100878
0.0242121
0.102307
0.0207563
0.103843
0.0173222
0.105385
0.0138883
0.106832
0.0104412
0.108096
0.00697531
0.109105
0.00349252
0.109807
0.110166
0.0592807
0.078154
-0.0577451
0.059753
0.0849392
0.0591994
0.0902209
0.0577186
0.0941434
0.0554507
0.0969132
0.052559
0.0987835
0.0492124
0.10003
0.045569
0.100921
0.0417627
0.101689
0.0378942
0.102514
0.0340285
0.103508
0.0301976
0.104709
0.0264075
0.106097
0.0226481
0.107602
0.0189024
0.10913
0.0151538
0.110581
0.0113908
0.111859
0.00760855
0.112888
0.00380922
0.113606
0.113975
0.0585185
0.0758445
-0.056209
0.0597751
0.0836826
0.0599659
0.0900301
0.0591521
0.0949573
0.0574435
0.0986217
0.0549835
0.101244
0.0519317
0.103082
0.0484478
0.104404
0.0446766
0.10546
0.0407369
0.106454
0.0367151
0.107529
0.0326654
0.108759
0.0286135
0.110149
0.0245647
0.111651
0.0205132
0.113182
0.0164493
0.114644
0.0123657
0.115943
0.00825978
0.116993
0.00413509
0.117731
0.11811
0.0571741
0.0727263
-0.054056
0.0592349
0.0816219
0.0602014
0.0890636
0.0600963
0.0950624
0.0589996
0.0997184
0.0570333
0.10321
0.0543451
0.10577
0.0510919
0.107658
0.0474244
0.109128
0.0434748
0.110404
0.0393479
0.111656
0.0351181
0.112989
0.0308308
0.114436
0.0265081
0.115973
0.0221573
0.117533
0.0177779
0.119024
0.0133688
0.120352
0.00893135
0.121431
0.00447192
0.12219
0.122582
0.0553765
0.0689054
-0.0515556
0.0582214
0.0787769
0.0599688
0.0873162
0.0606017
0.0944295
0.0601632
0.100157
0.0587483
0.104625
0.0564881
0.10803
0.053532
0.110614
0.0500324
0.112627
0.0461307
0.114305
0.041947
0.11584
0.0375738
0.117362
0.0330758
0.118934
0.0284931
0.120556
0.0238475
0.122178
0.0191502
0.123721
0.0144079
0.125094
0.00962764
0.126211
0.00481941
0.126999
0.127401
0.0529001
0.0640948
-0.0480895
0.0566244
0.0750526
0.0592398
0.0847008
0.0606802
0.0929891
0.0609622
0.0998749
0.0601604
0.105427
0.0583901
0.109801
0.0557927
0.113211
0.05252
0.1159
0.0487199
0.118106
0.0445249
0.120035
0.040044
0.121843
0.0353603
0.123618
0.0305316
0.125385
0.025596
0.127114
0.0205778
0.128739
0.0154942
0.130178
0.0103594
0.131346
0.00519054
0.132168
0.132592
0.050467
0.059138
-0.0455103
0.0548134
0.0707062
0.0581721
0.0813421
0.0604049
0.0907563
0.0614574
0.0988223
0.0613438
0.10554
0.0601422
0.111002
0.0579737
0.11538
0.0549836
0.11889
0.0513247
0.121764
0.0471425
0.124217
0.042565
0.12642
0.0376964
0.128487
0.032616
0.130465
0.0273811
0.132349
0.0220313
0.134089
0.016595
0.135614
0.0110942
0.136847
0.00553924
0.137723
0.138131
0.0470071
-0.0405206
0.0523481
0.0565722
0.0596298
0.0614832
0.0621361
0.0616328
0.0600578
0.0575268
0.0541749
0.0501432
0.0455669
0.0405669
0.0352442
0.0296796
0.0239355
0.0180603
0.0120941
0.00608034
0.012038
-0.0140567
-0.00958392
0.0145171
-0.0212076
0.0168598
-0.0284212
0.018991
-0.0351289
0.0208405
-0.0411602
0.0223513
-0.0463632
0.0234918
-0.0506457
0.0242539
-0.0539758
0.0246474
-0.0563729
0.024694
-0.0578906
0.0244224
-0.0586043
0.0238641
-0.058593
0.0230491
-0.0579432
0.0220071
-0.056703
0.0207576
-0.0549595
0.0193253
-0.0526237
0.0177044
-0.0499346
0.015934
-0.0463192
0.0138898
-0.043466
-0.0386007
0.0125383
-0.0165111
-0.0100839
0.0150292
-0.0236986
0.0173517
-0.0307437
0.0194306
-0.0372078
0.021199
-0.0429285
0.0226089
-0.0477732
0.0236367
-0.0516734
0.0242805
-0.0546196
0.0245548
-0.0566473
0.0244851
-0.0578209
0.024102
-0.0582212
0.0234387
-0.0579297
0.022526
-0.0570304
0.0213947
-0.0555717
0.0200633
-0.0536281
0.0185615
-0.0511219
0.0168707
-0.0482439
0.015059
-0.0445075
0.012951
-0.041358
-0.0366628
0.013074
-0.0190054
-0.0105796
0.0155642
-0.0261888
0.0178517
-0.0330313
0.0198653
-0.0392213
0.021541
-0.0446043
0.0228394
-0.0490715
0.0237445
-0.0525785
0.0242613
-0.0551364
0.0244094
-0.0567955
0.0242179
-0.0576293
0.0237199
-0.0577231
0.02295
-0.0571599
0.02194
-0.0560205
0.0207215
-0.0543532
0.0193137
-0.0522203
0.0177465
-0.0495547
0.0160017
-0.0464991
0.0141441
-0.0426499
0.0120213
-0.0392352
-0.0346655
0.0136045
-0.0215341
-0.0110758
0.0160867
-0.028671
0.018329
-0.0352735
0.0202667
-0.041159
0.0218404
-0.046178
0.023019
-0.0502501
0.0237948
-0.0533543
0.0241795
-0.0555212
0.024198
-0.056814
0.0238828
-0.0573142
0.0232697
-0.05711
0.0223946
-0.0562848
0.0212904
-0.0549163
0.0199892
-0.0530519
0.018511
-0.0507422
0.0168858
-0.0479295
0.015097
-0.0447102
0.0132047
-0.0407577
0.0110715
-0.0371019
-0.0326185
0.0141299
-0.0240887
-0.0115753
0.0165918
-0.0311329
0.0187765
-0.0374583
0.0206257
-0.0430081
0.0220865
-0.0476389
0.0231367
-0.0513003
0.023777
-0.0539945
0.0240257
-0.0557699
0.0239128
-0.0567011
0.0234742
-0.0568756
0.0227478
-0.0563836
0.021771
-0.055308
0.0205773
-0.0537226
0.0191991
-0.0516737
0.0176579
-0.0492009
0.015983
-0.0462546
0.0141605
-0.0428878
0.0122445
-0.0388417
0.0101069
-0.0349643
-0.0305285
0.0146472
-0.0266586
-0.0120773
0.0170728
-0.0335585
0.019185
-0.0395705
0.0209317
-0.0447548
0.0222683
-0.0489755
0.0231819
-0.0522139
0.0236814
-0.054494
0.0237917
-0.0558803
0.0235474
-0.0564568
0.0229875
-0.0563157
0.0221516
-0.0555476
0.021078
-0.0542344
0.019801
-0.0524457
0.0183532
-0.050226
0.016757
-0.0476047
0.0150415
-0.0445391
0.0131958
-0.0410421
0.0112673
-0.0369132
0.00913152
-0.0328285
-0.0284014
0.0151474
-0.0292291
-0.0125769
0.0175189
-0.0359299
0.0195426
-0.0415943
0.0211728
-0.0463849
0.0223746
-0.0501773
0.0231446
-0.0529839
0.0234998
-0.0548492
0.0234712
-0.0558517
0.0230974
-0.056083
0.02242
-0.0556383
0.0214799
-0.0546076
0.0203161
-0.0530705
0.0189632
-0.0510928
0.017454
-0.0487167
0.0158116
-0.0459624
0.014065
-0.0427924
0.0122064
-0.0391835
0.010277
-0.0349837
0.00814955
-0.0307011
-0.0262425
0.0156192
-0.0317818
-0.0130665
0.0179177
-0.0382284
0.0198368
-0.0435135
0.0213372
-0.0478853
0.0223951
-0.0512352
0.0230163
-0.0536052
0.0232256
-0.0550585
0.0230594
-0.0556855
0.0225599
-0.0555834
0.0217704
-0.0548488
0.0207329
-0.0535701
0.0194866
-0.0518242
0.0180663
-0.0496725
0.0165044
-0.0471549
0.0148252
-0.0442831
0.013057
-0.0410242
0.0111958
-0.0373223
0.00927711
-0.033065
0.00716544
-0.0285894
-0.0240571
0.0160501
-0.034296
-0.0135359
0.0182566
-0.0404349
0.0200556
-0.0453124
0.0214145
-0.0492442
0.022321
-0.0521417
0.0227903
-0.0540745
0.0228541
-0.0551223
0.0225537
-0.055385
0.0219338
-0.0549635
0.0210392
-0.0539542
0.0199123
-0.0524432
0.0185921
-0.050504
0.0171134
-0.0481939
0.0155083
-0.0455498
0.0138016
-0.0425765
0.0120214
-0.039244
0.0101675
-0.0354684
0.00827108
-0.0311686
0.00618379
-0.0265021
-0.0218507
0.0164272
-0.0367499
-0.0139733
0.0185233
-0.0425311
0.0201877
-0.0469768
0.0213951
-0.0504516
0.0221452
-0.0528918
0.0224616
-0.0543909
0.0223824
-0.0550432
0.0219527
-0.0549553
0.0212194
-0.0542302
0.0202279
-0.0529627
0.0190205
-0.0512358
0.0176359
-0.0491194
0.0161085
-0.0466665
0.0144698
-0.0439111
0.0127451
-0.0408518
0.0109622
-0.0374611
0.00912489