/*--------------------------------*- C++ -*----------------------------------*\
  =========                 |
  \\      /  F ield         | OpenFOAM: The Open Source CFD Toolbox
   \\    /   O peration     | Website:  https://openfoam.org
    \\  /    A nd           | Version:  7
     \\/     M anipulation  |
\*---------------------------------------------------------------------------*/
FoamFile
{
    version     2.0;
    format      ascii;
    class       surfaceScalarField;
    location    "10";
    object      phi;
}
// * * * * * * * * * * * * * * * * * * * * * * * * * * * * * * * * * * * * * //

dimensions      [0 3 -1 0 0 0 0];

internalField   nonuniform List<scalar> 
35640
(
1.65168e-05
-0.000316541
0.000300024
6.37982e-05
-0.000704949
0.000657668
0.00014152
-0.00086973
0.000792008
0.000249758
-0.000857277
0.000749039
0.00038885
-0.000700787
0.000561696
0.000559267
-0.000425136
0.000254719
0.00076154
-4.98707e-05
-0.000152402
0.000996203
0.000409594
-0.000644256
0.00126366
0.000940912
-0.00120837
0.00156412
0.00153389
-0.00183435
0.00189751
0.00217988
-0.00251326
0.00226336
0.00287119
-0.00323704
0.00266071
0.00360067
-0.00399803
0.00308806
0.00436138
-0.00478873
0.00354329
0.00514634
-0.00560157
0.00402364
0.00594842
-0.00642877
0.00452571
0.00676028
-0.00726235
0.00504551
0.00757438
-0.00809418
0.00557855
0.00838308
-0.00891613
0.00611999
0.00917876
-0.0097202
0.00666471
0.00995403
-0.0104988
0.00720754
0.0107019
-0.0112447
0.00774343
0.0114159
-0.0119518
0.00826756
0.0120904
-0.0126146
0.00877553
0.0127207
-0.0132287
0.00926348
0.013303
-0.013791
0.00972823
0.0138344
-0.0142991
0.0101674
0.0143126
-0.0147518
0.0105796
0.0147351
-0.0151473
0.0150944
0.0109649
-0.0154797
1.61338e-05
-0.000332675
6.16626e-05
-0.000750478
0.000135849
-0.000943916
0.000238569
-0.000959998
0.000370107
-0.000832325
0.000530957
-0.000585986
0.000721677
-0.00024059
0.000942833
0.000188438
0.00119492
0.000688829
0.00147825
0.00125056
0.00179291
0.00186522
0.00213864
0.00252545
0.0025148
0.00322451
0.00292026
0.00395592
0.00335333
0.00471326
0.00381177
0.00548999
0.00429271
0.00627933
0.00479276
0.00707433
0.00530798
0.00786786
0.00583403
0.00865272
0.00636625
0.00942181
0.00689982
0.0101683
0.00742991
0.0108858
0.00795184
0.0115685
0.00846121
0.0122114
0.00895405
0.0128102
0.00942697
0.0133615
0.00987728
0.0138623
0.0103032
0.0143092
0.0146934
0.0107042
1.5715e-05
-0.00034839
5.93487e-05
-0.000794112
0.000129799
-0.00101437
0.000226828
-0.00105703
0.000350719
-0.000956215
0.000502006
-0.000737273
0.000681293
-0.000419877
0.000889207
-1.94756e-05
0.00112631
0.00045173
0.00139299
0.000983868
0.00168948
0.00156874
0.00201568
0.00219925
0.00237119
0.00286901
0.00275516
0.00357195
0.00316631
0.00430212
0.0036028
0.00505349
0.00406229
0.00581985
0.00454187
0.00659475
0.00503815
0.00737158
0.00554727
0.00814359
0.00606506
0.00890403
0.00658708
0.00964629
0.00710879
0.0103641
0.00762572
0.0110516
0.00813356
0.0117035
0.0086283
0.0123154
0.00910644
0.0128833
0.00956508
0.0134036
0.0100021
0.0138721
0.0142791
0.0104164
1.5223e-05
-0.000363613
5.66972e-05
-0.000835586
0.000123113
-0.00108078
0.000214179
-0.00114809
0.000330206
-0.00107224
0.000471809
-0.000878875
0.000639672
-0.000587741
0.000834478
-0.000214281
0.00105686
0.000229349
0.0013073
0.000733423
0.00158611
0.00128993
0.00189333
0.00189203
0.00222874
0.0025336
0.00259174
0.00320895
0.00298134
0.00391252
0.00339608
0.00463875
0.00383403
0.0053819
0.00429275
0.00613603
0.00476933
0.006895
0.0052604
0.00765252
0.00576223
0.0084022
0.00627081
0.00913772
0.00678193
0.00985296
0.00729137
0.0105421
0.00779496
0.0111999
0.00828879
0.0118216
0.0087693
0.0124028
0.00923347
0.0129395
0.00967894
0.0134267
0.013854
0.010104
1.45957e-05
-0.000378209
5.36273e-05
-0.000874618
0.000115635
-0.00114279
0.000200357
-0.00123281
0.000308204
-0.00118009
0.000439883
-0.00101055
0.000596191
-0.000744049
0.000777904
-0.000395994
0.000985723
2.15306e-05
0.0012202
0.000498941
0.00148173
0.00102841
0.00177046
0.00160329
0.00208631
0.00221775
0.00242887
0.00286639
0.00279739
0.00354401
0.00319071
0.00424543
0.00360726
0.00496535
0.004045
0.00569829
0.00450144
0.00643856
0.00497368
0.00718028
0.00545842
0.00791746
0.00595205
0.00864409
0.00645073
0.00935428
0.00695053
0.0100423
0.0074475
0.010703
0.00793785
0.0113313
0.00841805
0.0119226
0.00888504
0.0124725
0.00933624
0.0129754
0.0134207
0.00976956
1.38176e-05
-0.000392027
5.00402e-05
-0.00091084
0.000107193
-0.00119994
0.000185109
-0.00131073
0.000284345
-0.00127932
0.000405754
-0.00113196
0.000550272
-0.000888567
0.000718781
-0.000564503
0.000912064
-0.000171753
0.00113075
0.000280251
0.0013753
0.000783856
0.00164596
0.00133263
0.00194274
0.00192097
0.00226539
0.00254374
0.00261333
0.00319606
0.00298567
0.00387309
0.00338111
0.00456991
0.00379796
0.00528144
0.00423411
0.0060024
0.00468706
0.00672733
0.00515392
0.0074506
0.00563148
0.00816654
0.00611627
0.00886949
0.00660466
0.00955396
0.00709296
0.0102147
0.00757756
0.0108466
0.00805504
0.0114451
0.00852232
0.0120052
0.0089767
0.0125211
0.0129817
0.00941568
1.28474e-05
-0.000404874
4.58572e-05
-0.00094385
9.76412e-05
-0.00125173
0.000168208
-0.0013813
0.000258324
-0.00136944
0.000369027
-0.00124267
0.000501413
-0.00102095
0.0006565
-0.00071959
0.00083517
-0.000350422
0.00103813
7.72905e-05
0.0012659
0.000556082
0.00151881
0.00107973
0.00179695
0.00164283
0.00210017
0.00224052
0.00242805
0.00286818
0.00277989
0.00352125
0.00315462
0.00419518
0.00355084
0.00488522
0.00396678
0.00558647
0.00440026
0.00629384
0.00484878
0.00700208
0.0053095
0.00770582
0.00577931
0.00839968
0.0062549
0.00907837
0.00673286
0.00973671
0.00720978
0.0103697
0.0076824
0.0109725
0.00814769
0.0115399
0.00860287
0.0120659
0.0125395
0.00904509
1.16596e-05
-0.000416534
4.10041e-05
-0.000973194
8.6854e-05
-0.00129758
0.000149474
-0.00144392
0.00022989
-0.00144986
0.000329369
-0.00134215
0.000449203
-0.00114079
0.000590562
-0.000860949
0.000754438
-0.000514298
0.000941627
-0.000109898
0.00115272
0.000344986
0.00138811
0.000844341
0.00164794
0.001383
0.00193217
0.00195629
0.00224049
0.00255986
0.00257233
0.00318942
0.00292683
0.00384068
0.00330281
0.00450924
0.00369876
0.00519052
0.00411283
0.00587977
0.00454283
0.00657207
0.00498626
0.00726238
0.00544035
0.00794559
0.00590211
0.00861661
0.00636841
0.0092704
0.00683609
0.00990204
0.00730205
0.0105066
0.00776335
0.0110786
0.00821719
0.0116121
0.0120963
0.00866042
1.02308e-05
-0.000426764
3.5426e-05
-0.000998389
7.4735e-05
-0.00133688
0.000128762
-0.00149794
0.00019885
-0.00151994
0.000286538
-0.00142983
0.000393336
-0.00124758
0.000520585
-0.000988198
0.000669406
-0.000663119
0.000840694
-0.000281186
0.00103512
0.000150564
0.00125311
0.000626343
0.00149491
0.0011412
0.00176052
0.00169069
0.00204972
0.00227066
0.00236205
0.00287708
0.00269681
0.00350592
0.003053
0.00415305
0.00342934
0.00481419
0.00382422
0.00548489
0.00423575
0.00616054
0.00466172
0.00683641
0.00509968
0.00750764
0.00554692
0.00816936
0.00600061
0.00881671
0.00645783
0.00944483
0.00691567
0.0100487
0.0073713
0.010623
0.00782191
0.0111614
0.0116541
0.00826413
8.54661e-06
-0.000435311
2.90832e-05
-0.00101893
6.12194e-05
-0.00136902
0.000105984
-0.00154271
0.00016509
-0.00157905
0.000240384
-0.00150513
0.000333618
-0.00134082
0.000446324
-0.0011009
0.000579768
-0.000796562
0.000734951
-0.00043637
0.000912622
-2.71069e-05
0.00111328
0.000425681
0.00133722
0.000917264
0.00158449
0.00144341
0.00185496
0.00200019
0.00214825
0.00258379
0.00246376
0.00319041
0.00280066
0.00381615
0.00315783
0.00445702
0.00353389
0.00510883
0.00392717
0.00576726
0.00433575
0.00642783
0.00475742
0.00708597
0.00518978
0.00773701
0.00563024
0.00837625
0.00607612
0.00899894
0.00652472
0.00960012
0.00697333
0.0101744
0.00741914
0.0107156
0.0112146
0.00785861
6.59663e-06
-0.000441907
2.19547e-05
-0.00103428
4.62792e-05
-0.00139335
8.1107e-05
-0.00157754
0.00012857
-0.00162651
0.000190856
-0.00156741
0.000269982
-0.00141994
0.000367684
-0.0011986
0.000485385
-0.000914264
0.000624208
-0.000575193
0.000784987
-0.000187886
0.000968294
0.000242373
0.00117447
0.000711091
0.00140362
0.00121426
0.00165567
0.00174814
0.00193032
0.00230914
0.00222706
0.00289367
0.00254517
0.00349805
0.00288367
0.00411852
0.00324135
0.00475114
0.00361676
0.00539185
0.00400818
0.00603642
0.00441365
0.0066805
0.00483101
0.00731964
0.00525792
0.00794934
0.00569193
0.00856494
0.0061305
0.00916155
0.00657107
0.00973381
0.00701082
0.0102759
0.0107793
0.00744608
4.3779e-06
-0.000446285
1.40401e-05
-0.00104395
2.99238e-05
-0.00140923
5.41555e-05
-0.00160177
8.93331e-05
-0.00166169
0.000138012
-0.00161609
0.000202489
-0.00148442
0.00028472
-0.00128084
0.000386298
-0.00101584
0.000508472
-0.000697367
0.000652173
-0.000331586
0.000818048
7.64982e-05
0.00100649
0.000522645
0.00121768
0.00100307
0.00145157
0.00151425
0.00170793
0.00205278
0.00198633
0.00261527
0.00228612
0.00319826
0.00260646
0.00379818
0.00294628
0.00441133
0.00330427
0.00503386
0.00367891
0.00566177
0.00406846
0.00629095
0.00447094
0.00691716
0.00488426
0.00753603
0.00530613
0.00814306
0.00573421
0.00873346
0.00616603
0.00930198
0.00659878
0.00984315
0.0103494
0.00702869
1.89399e-06
-0.000448179
5.35979e-06
-0.00104741
1.22024e-05
-0.00141607
2.52163e-05
-0.00161478
4.75056e-05
-0.00168398
8.20141e-05
-0.0016506
0.000131334
-0.00153374
0.000197648
-0.00134715
0.000282728
-0.00110092
0.000387957
-0.000802595
0.00051437
-0.000457999
0.000662697
-7.18297e-05
0.000833403
0.00035194
0.00102671
0.000809759
0.00124264
0.00129832
0.00148101
0.00181441
0.00174144
0.00235484
0.00202338
0.00291632
0.00232607
0.00349549
0.00264854
0.00408885
0.00298965
0.00469275
0.003348
0.00530342
0.00372202
0.00591693
0.00410995
0.00652923
0.00450983
0.00713615
0.00491958
0.00773331
0.00533699
0.00831606
0.00575965
0.00887932
0.00618477
0.00941803
0.00992571
0.00660847
-8.46799e-07
-0.000447332
-4.04415e-06
-0.00104421
-6.7953e-06
-0.00141332
-5.56245e-06
-0.00161601
3.29848e-06
-0.00169284
2.3135e-05
-0.00167044
5.68422e-05
-0.00156745
0.000106838
-0.00139715
0.000175074
-0.00116916
0.000263077
-0.000890598
0.000371993
-0.000566915
0.000502643
-0.00020248
0.000655565
0.000199018
0.000831047
0.000634277
0.00102916
0.00110021
0.00124978
0.0015938
0.00149258
0.00211203
0.00175708
0.00265182
0.0020426
0.00320997
0.00234827
0.00378318
0.00267304
0.00436798
0.00301566
0.0049608
0.00337469
0.0055579
0.00374851
0.00615542
0.00413532
0.00674934
0.00453317
0.00733545
0.00493996
0.00790927
0.00535334
0.00846594
0.00577048
0.00900089
0.00950876
0.00618742
-3.82194e-06
-0.00044351
-1.41086e-05
-0.00103393
-2.69392e-05
-0.00140049
-3.79713e-05
-0.00160498
-4.29942e-05
-0.00168782
-3.82477e-05
-0.00167518
-2.05294e-05
-0.00158516
1.28141e-05
-0.00143049
6.39175e-05
-0.00122026
0.000134452
-0.000961133
0.000225684
-0.000658147
0.000338533
-0.000315329
0.000473618
6.39323e-05
0.000631299
0.000476596
0.000811707
0.000919799
0.00101477
0.00139073
0.00124024
0.00188656
0.00148769
0.00240438
0.00175649
0.00294117
0.00204588
0.00349379
0.00235488
0.00405898
0.00268237
0.00463332
0.003027
0.00521327
0.00338728
0.00579514
0.00376152
0.00637509
0.00414789
0.00694908
0.00454434
0.00751283
0.00494854
0.00806174
0.00535761
0.00859183
0.00909887
0.0057675
-7.00957e-06
-0.0004365
-2.47479e-05
-0.00101619
-4.80591e-05
-0.00137718
-7.1741e-05
-0.0015813
-9.09978e-05
-0.00166856
-0.000101654
-0.00166453
-0.0001002
-0.00158662
-8.37516e-05
-0.00144694
-4.9993e-05
-0.00125402
2.89473e-06
-0.00101402
7.63035e-05
-0.000731556
0.000171257
-0.000410282
0.000288465
-5.32762e-05
0.000428368
0.000336694
0.000591167
0.000757
0.000776859
0.00120504
0.00098525
0.00167817
0.00121597
0.00217366
0.00146849
0.00268865
0.00174209
0.00322019
0.0020359
0.00376517
0.00234886
0.00432036
0.00267973
0.00488239
0.00302712
0.00544775
0.00338943
0.00601278
0.00376487
0.00657364
0.00415143
0.00712626
0.00454677
0.0076664
0.00494791
0.00819069
0.00869606
0.00535072
-1.03765e-05
-0.000426124
-3.58558e-05
-0.00099071
-6.99469e-05
-0.00134309
-0.000106546
-0.0015447
-0.000140262
-0.00163485
-0.000166506
-0.00163828
-0.00018147
-0.00157165
-0.000182047
-0.00144636
-0.000165743
-0.00127032
-0.000130592
-0.00104917
-7.50756e-05
-0.000787072
1.94134e-06
-0.000487299
0.000101269
-0.000152603
0.000223434
0.000214529
0.00036872
0.000611713
0.000537197
0.00103656
0.000728743
0.00148662
0.000943061
0.00195934
0.00117968
0.00245203
0.00143797
0.0029619
0.00171713
0.00348602
0.00201617
0.00402132
0.00233395
0.00456461
0.00266914
0.00511256
0.0030202
0.00566172
0.00338539
0.00620846
0.00376267
0.00674898
0.00414964
0.00727942
0.00454322
0.00779711
0.00830013
0.00493915
-1.38835e-05
-0.00041224
-4.73061e-05
-0.000957287
-9.23592e-05
-0.00129803
-0.000142009
-0.00149505
-0.000190265
-0.00158659
-0.000232137
-0.00159641
-0.000263532
-0.00154026
-0.000281128
-0.00142876
-0.000282264
-0.00126919
-0.00026483
-0.00106661
-0.000227179
-0.000824723
-0.000168061
-0.000546417
-8.65604e-05
-0.000234104
1.79486e-05
0.00011002
0.000145841
0.000483821
0.000297269
0.000885133
0.000472195
0.0013117
0.000670397
0.00176113
0.000891485
0.00223094
0.0011349
0.00271848
0.00139992
0.003221
0.00168564
0.0037356
0.00199099
0.00425926
0.00231468
0.00478886
0.00265524
0.00532116
0.00301092
0.00585278
0.00337963
0.00638026
0.00375889
0.00690017
0.00414544
0.00741056
0.00791066
0.00453492
-1.74848e-05
-0.000394755
-5.89546e-05
-0.000915817
-0.00011502
-0.00124197
-0.000177704
-0.00143237
-0.000240423
-0.00152387
-0.000297801
-0.00153903
-0.000345477
-0.00149258
-0.000379933
-0.00139431
-0.000398347
-0.00125077
-0.000398474
-0.00106648
-0.000378542
-0.000844656
-0.000337182
-0.000587777
-0.000273368
-0.000297918
-0.000186368
2.30192e-05
-7.57062e-05
0.000373159
5.8866e-05
0.000750561
0.000217401
0.00115316
0.000399768
0.00157877
0.00060566
0.00202505
0.000834604
0.00248954
0.00108596
0.00296964
0.00135891
0.00346265
0.00165245
0.00396572
0.00196535
0.00447596
0.00229616
0.00499035
0.00264311
0.00550583
0.00300407
0.00601931
0.00337638
0.00652785
0.00375663
0.00703031
0.00752701
0.00414028
-2.11289e-05
-0.000373626
-7.06408e-05
-0.000866305
-0.000137626
-0.00117498
-0.000213164
-0.00135683
-0.000290096
-0.00144694
-0.00036268
-0.00146645
-0.00042631
-0.00142895
-0.00047729
-0.00134333
-0.000512654
-0.00121541
-0.000530028
-0.00104911
-0.000527522
-0.000847163
-0.000503648
-0.000611651
-0.000457266
-0.0003443
-0.000387534
-4.6713e-05
-0.000293868
0.000279493
-0.000175911
0.000632604
-3.35093e-05
0.00101076
0.000133304
0.00141196
0.000324319
0.00183403
0.000539158
0.0022747
0.000777276
0.00273153
0.00103794
0.00320198
0.00132024
0.00368343
0.00162299
0.0041732
0.00194478
0.00466856
0.00228381
0.0051668
0.00263785
0.00566527
0.0030041
0.0061616
0.00337892
0.00665549
0.00714835
0.00375758
-2.47594e-05
-0.000348867
-8.2191e-05
-0.000808873
-0.000159852
-0.00109732
-0.000247891
-0.00126879
-0.0003386
-0.00135623
-0.0004259
-0.00137915
-0.000504963
-0.00134989
-0.000571939
-0.00127635
-0.000623734
-0.00116361
-0.000657858
-0.00101498
-0.000672309
-0.000832712
-0.000665489
-0.000618471
-0.000636143
-0.000373646
-0.000583314
-9.9542e-05
-0.000506304
0.000202483
-0.000404644
0.000530944
-0.000278069
0.000884186
-0.000126506
0.00126039
4.99446e-05
0.00165758
0.000251012
0.00207363
0.000476256
0.00250628
0.000725053
0.00295318
0.000996574
0.00341191
0.00128974
0.00388004
0.00160315
0.00435515
0.001935
0.00483494
0.00228299
0.00531728
0.00264414
0.00580045
0.00301457
0.00628507
0.00677362
0.00338929
-2.83163e-05
-0.000320551
-9.34218e-05
-0.000743768
-0.000181353
-0.00100939
-0.000281362
-0.00116878
-0.000385219
-0.00125237
-0.000486541
-0.00127782
-0.000580309
-0.00125612
-0.000662542
-0.00119412
-0.000730036
-0.00109612
-0.000780205
-0.000964814
-0.000810945
-0.000801972
-0.000820554
-0.000608863
-0.000807667
-0.000386532
-0.000771215
-0.000135994
-0.000710386
0.000141653
-0.000624592
0.00044515
-0.000513455
0.000773049
-0.000376787
0.00112372
-0.000214576
0.00149537
-2.69752e-05
0.00188603
0.000185695
0.00229361
0.000422933
0.00271594
0.000684027
0.00315082
0.000968004
0.00359606
0.00127355
0.00404961
0.00159889
0.0045096
0.00194165
0.00497452
0.00229871
0.00544339
0.00266592
0.00591786
0.00640155
0.003038
-3.1737e-05
-0.000288814
-0.000104144
-0.000671361
-0.000201778
-0.000911758
-0.000313038
-0.00105752
-0.000429216
-0.0011362
-0.000543656
-0.00116338
-0.000651182
-0.00114859
-0.000747704
-0.0010976
-0.000829937
-0.00101389
-0.00089521
-0.000899541
-0.000941337
-0.000755845
-0.000966523
-0.000583677
-0.000969303
-0.000383752
-0.0009485
-0.000156796
-0.000903192
9.63444e-05
-0.000832676
0.000374634
-0.000736462
0.000676835
-0.000614248
0.00100151
-0.000465905
0.00134703
-0.000291466
0.00171159
-9.11255e-05
0.00209327
0.000134753
0.00249006
0.000385606
0.00289996
0.000660611
0.00332106
0.000958595
0.00375162
0.00127789
0.00419031
0.00161614
0.00463627
0.00197013
0.0050894
0.00233545
0.00555253
0.00603057
0.00270642
-3.49576e-05
-0.000253856
-0.000114166
-0.000592153
-0.000220773
-0.000805151
-0.00034238
-0.000935914
-0.000469847
-0.00100873
-0.000596286
-0.00103694
-0.000716393
-0.00102849
-0.000825998
-0.000987991
-0.000921755
-0.00091813
-0.00100093
-0.000820362
-0.00106128
-0.000695496
-0.00110093
-0.000544031
-0.00111832
-0.000366359
-0.00111219
-0.000162928
-0.00108151
6.56613e-05
-0.00102547
0.000318595
-0.000943478
0.000594845
-0.000835128
0.00089316
-0.000700182
0.00121208
-0.000538559
0.00154997
-0.000350328
0.00190504
-0.000135708
0.00227544
0.000104908
0.00265935
0.000370903
0.00305506
0.000661329
0.0034612
0.000974741
0.0038769
0.00130897
0.00430204
0.00166083
0.00473754
0.00202573
0.00518763
0.00565885
0.00239746
-3.79154e-05
-0.000215941
-0.000123299
-0.000506769
-0.000237988
-0.000690463
-0.000368854
-0.000805048
-0.000506377
-0.000871206
-0.000643478
-0.000899844
-0.000774753
-0.000897211
-0.000895982
-0.000866763
-0.00100378
-0.00081033
-0.00109539
-0.000728757
-0.0011685
-0.000622387
-0.00122118
-0.000491345
-0.00125183
-0.000335714
-0.00125908
-0.000155674
-0.00124183
4.84109e-05
-0.00119919
0.000275949
-0.00113046
0.000526119
-0.00103516
0.000797858
-0.000912954
0.00108988
-0.000763676
0.00140069
-0.000587287
0.00172865
-0.000383874
0.00207203
-0.00015365
0.00242912
0.000103011
0.0027984
0.00038549
0.00317872
0.000692741
0.00356964
0.00102302
0.00397176
0.00137348
0.00438708
0.00173951
0.0048216
0.00528414
0.00211422
-4.05497e-05
-0.000175391
-0.000131365
-0.000415954
-0.000253088
-0.000568739
-0.000391949
-0.000666186
-0.000538099
-0.000725056
-0.000684306
-0.000753638
-0.0008251
-0.000756417
-0.000956234
-0.000735629
-0.00107431
-0.00069225
-0.00117656
-0.000626513
-0.00126064
-0.000538302
-0.00132461
-0.00042738
-0.00136679
-0.000293534
-0.00138578
-0.000136685
-0.0013804
4.30322e-05
-0.0013497
0.000245247
-0.00129292
0.000469343
-0.00120952
0.000714452
-0.0010991
0.000979462
-0.000961443
0.00126304
-0.00079645
0.00156366
-0.000604117
0.0018797
-0.000384513
0.00220952
-0.000137759
0.00255164
0.000135931
0.00290503
0.000436113
0.00326946
0.00076183
0.00364605
0.0011111
0.00403781
0.0014798
0.0044529
0.0049037
0.00186024
-4.28045e-05
-0.000132587
-0.000138194
-0.000320565
-0.000265763
-0.00044117
-0.000411186
-0.000520763
-0.000564345
-0.000571897
-0.00071789
-0.000600092
-0.000866317
-0.00060799
-0.00100537
-0.000596571
-0.00113168
-0.000565945
-0.00124246
-0.000515735
-0.00133538
-0.000445375
-0.00140849
-0.000354276
-0.00146008
-0.000241937
-0.00148873
-0.000108036
-0.00149322
4.75216e-05
-0.00147256
0.000224582
-0.00142595
0.000422739
-0.00135283
0.000641326
-0.00125278
0.000879417
-0.00112559
0.00113584
-0.000971156
0.00140922
-0.000789474
0.00169801
-0.000580557
0.0020006
-0.000344354
0.00231544
-8.06826e-05
0.00264136
0.000210766
0.00297801
0.000530253
0.00332656
0.000877491
0.00369057
0.00125001
0.00408038
0.00451414
0.00163957
-4.463e-05
-8.79568e-05
-0.000143637
-0.000221559
-0.000275732
-0.000309075
-0.000426131
-0.000370364
-0.000584504
-0.000413524
-0.000743422
-0.000441175
-0.000897367
-0.000454045
-0.00104211
-0.000451832
-0.00117429
-0.000433765
-0.00129116
-0.000398861
-0.00139043
-0.000346109
-0.00147013
-0.000274577
-0.00152858
-0.000183488
-0.00156433
-7.22796e-05
-0.00157617
5.9362e-05
-0.00156309
0.000211502
-0.0015243
0.000383949
-0.00145923
0.000576249
-0.00136749
0.000787685
-0.00124893
0.00101728
-0.00110353
0.00126383
-0.000931404
0.00152588
-0.000732656
0.00180185
-0.000507267
0.00209005
-0.000254857
0.00238895
2.55528e-05
0.0026976
0.000335696
0.00301642
0.000677962
0.0033483
0.00105384
0.0037045
0.00411099
0.00145699
-4.5984e-05
-4.19728e-05
-0.000147566
-0.000119977
-0.000282756
-0.000173885
-0.000436409
-0.000216711
-0.000598044
-0.000251889
-0.000760181
-0.000279037
-0.000917314
-0.000296911
-0.00106525
-0.000303901
-0.00120066
-0.000298347
-0.00132087
-0.000278658
-0.00142359
-0.000243381
-0.00150692
-0.00019125
-0.00156919
-0.000121217
-0.00160898
-3.24901e-05
-0.00162509
7.54646e-05
-0.00161651
0.000202928
-0.00158249
0.000349929
-0.00152248
0.000516239
-0.00143617
0.000701374
-0.00132348
0.000904593
-0.00118456
0.0011249
-0.00101972
0.00136105
-0.000829375
0.00161151
-0.000613823
0.0018745
-0.000372946
0.00214807
-0.000105669
0.00243033
0.000190722
0.00272003
0.000521364
0.00301766
0.000894435
0.00333142
0.00368626
0.00131917
-4.68329e-05
4.86e-06
-0.000149881
-1.69293e-05
-0.00028664
-3.71253e-05
-0.000441713
-6.16376e-05
-0.000604518
-8.9083e-05
-0.000767559
-0.000115997
-0.000925354
-0.000139116
-0.00107375
-0.000155502
-0.0012095
-0.000162601
-0.00132995
-0.000158209
-0.00143289
-0.000140436
-0.00151646
-0.000107682
-0.00157904
-5.86364e-05
-0.00161925
7.71957e-06
-0.00163592
9.21348e-05
-0.0016281
0.000195104
-0.00159505
0.000316877
-0.00153626
0.000457458
-0.00145151
0.000616615
-0.00134079
0.000793876
-0.00120441
0.000988525
-0.00104294
0.00119957
-0.000857138
0.00142571
-0.000647857
0.00166522
-0.000415703
0.00191592
-0.0001604
0.00217502
0.000120341
0.00243929
0.000431794
0.00270621
0.000788552
0.00297467
0.00124717
0.00322764
0.0111664
0.0896178
-0.0898194
0.0107305
0.0922657
-0.0918298
0.0100317
0.0904836
-0.0897848
0.00926839
0.0869861
-0.0862228
0.00856073
0.0831818
-0.0824741
0.0079446
0.0796672
-0.0790511
0.00741686
0.0765371
-0.0760093
0.00696301
0.0737424
-0.0732885
0.00656706
0.0712352
-0.0708393
0.00621566
0.0689863
-0.0686349
0.00589632
0.0669922
-0.0666729
0.00559956
0.0652675
-0.0649707
0.00531747
0.0638294
-0.0635473
0.00504456
0.0626833
-0.0624104
0.00477661
0.0618096
-0.0615417
0.00451067
0.0611724
-0.0609065
0.00424456
0.0607293
-0.0604632
0.00397627
0.0604362
-0.0601679
0.00370506
0.0602564
-0.0599852
0.00343006
0.0601605
-0.0598855
0.00315136
0.0601257
-0.059847
0.00286882
0.0601344
-0.0598518
0.0025828
0.0601722
-0.0598862
0.00229362
0.0602279
-0.0599387
0.00200138
0.0602906
-0.0599984
0.00170618
0.0603535
-0.0600583
0.0014079
0.0604115
-0.0601132
0.00110663
0.060465
-0.0601637
0.000803083
0.0605155
-0.060212
0.0605372
-0.0602343
0.0110906
0.0892315
0.0107752
0.0925811
0.0101486
0.0911102
0.0094202
0.0877145
0.00872654
0.0838755
0.00811454
0.0802792
0.00758726
0.0770644
0.0071322
0.0741974
0.00673398
0.0716334
0.00637919
0.0693411
0.00605573
0.0673157
0.00575387
0.0655693
0.00546622
0.0641171
0.00518751
0.062962
0.0049136
0.0620835
0.00464135
0.0614447
0.00436866
0.061002
0.00409339
0.0607115
0.00381481
0.060535
0.00353189
0.0604434
0.00324477
0.0604128
0.00295332
0.0604258
0.00265783
0.0604677
0.00235883
0.0605269
0.00205618
0.0605933
0.00175033
0.0606594
0.00144093
0.0607209
0.00112828
0.0607776
0.000813184
0.0608306
0.0608519
0.0109895
0.0886584
0.0108008
0.0927698
0.0102526
0.0916583
0.00956375
0.0884033
0.00888707
0.0845522
0.00828075
0.0808856
0.0077548
0.0775903
0.00729904
0.0746532
0.00689899
0.0720335
0.00654108
0.069699
0.00621378
0.067643
0.00590711
0.065876
0.0056142
0.06441
0.00532987
0.0632464
0.00505017
0.0623632
0.00477178
0.0617231
0.00449262
0.0612811
0.00421049
0.0609936
0.00392458
0.0608209
0.00363383
0.0607342
0.00333832
0.0607083
0.00303801
0.0607261
0.00273309
0.0607726
0.00242426
0.0608357
0.00211123
0.0609063
0.00179469
0.0609759
0.00147417
0.0610414
0.00115012
0.0611017
0.000823402
0.0611574
0.0611785
0.0108636
0.0878989
0.0108065
0.0928268
0.0103431
0.0921218
0.00969843
0.089048
0.00904182
0.0852088
0.00844294
0.0814844
0.00791919
0.0781141
0.0074633
0.0751091
0.00706173
0.0724351
0.00670112
0.0700596
0.00637025
0.0679739
0.00605919
0.066187
0.00576127
0.0647079
0.00547154
0.0635361
0.0051862
0.0626486
0.00490186
0.0620074
0.00461635
0.0615667
0.0043275
0.0612824
0.00403429
0.0611141
0.00373581
0.0610326
0.00343196
0.0610121
0.0031228
0.0610353
0.00280853
0.0610868
0.00248981
0.0611544
0.00216651
0.0612296
0.00183921
0.0613032
0.00150761
0.061373
0.00117212
0.0614372
0.000833722
0.0614958
0.0615171
0.0107136
0.0869549
0.0107924
0.092748
0.0104194
0.0924948
0.00982362
0.0896437
0.00919033
0.085842
0.00860073
0.082074
0.00808005
0.0786347
0.00762458
0.0755645
0.00722201
0.0728376
0.00685918
0.0704224
0.00652496
0.0683081
0.00620985
0.0665022
0.00590727
0.0650105
0.00561245
0.0638309
0.00532163
0.0629394
0.00503152
0.0622975
0.00473978
0.0618584
0.00444434
0.0615779
0.00414389
0.0614146
0.00383775
0.0613388
0.00352561
0.0613243
0.00320764
0.0613532
0.00288407
0.0614104
0.00255547
0.061483
0.00222195
0.0615631
0.00188385
0.0616413
0.00154118
0.0617157
0.00119425
0.0617841
0.000844126
0.0618459
0.0618678
0.0105404
0.0858301
0.0107584
0.09253
0.010481
0.0927722
0.00993879
0.0901859
0.0093321
0.0864487
0.00875369
0.0826524
0.00823709
0.0791513
0.00778265
0.076019
0.00737954
0.0732407
0.00701492
0.070787
0.00667777
0.0686452
0.00635898
0.0668209
0.00605207
0.0653174
0.00575245
0.0641305
0.00545639
0.0632354
0.00516067
0.0625933
0.00486286
0.0621562
0.00456092
0.0618798
0.00425334
0.0617221
0.00393958
0.0616525
0.00361921
0.0616446
0.0032925
0.0616799
0.00295965
0.0617433
0.00262121
0.0618215
0.00227748
0.0619069
0.00192861
0.0619902
0.00157487
0.0620694
0.00121648
0.0621425
0.000854606
0.0622078
0.0622306
0.0103451
0.0845302
0.0107047
0.0921703
0.0105277
0.0929493
0.0100435
0.0906701
0.00946665
0.0870256
0.00890142
0.0832177
0.00838999
0.0796628
0.00793723
0.0764718
0.00753402
0.0736439
0.00716806
0.071153
0.00682847
0.0689848
0.00650641
0.067143
0.00619555
0.0656282
0.00589143
0.0644347
0.00559039
0.0635365
0.00528927
0.0628944
0.0049855
0.06246
0.00467717
0.0621881
0.00436257
0.0620367
0.00404125
0.0619739
0.00371273
0.0619732
0.00337731
0.0620154
0.00303522
0.0620854
0.00268697
0.0621697
0.00233304
0.0622608
0.00197345
0.0623498
0.00160863
0.0624343
0.0012388
0.0625123
0.000865154
0.0625814
0.0626055
0.0101288
0.0830617
0.0106316
0.0916676
0.0105591
0.0930218
0.0101372
0.091092
0.00959355
0.0875692
0.00904353
0.0837677
0.00853842
0.0801679
0.008088
0.0769222
0.0076852
0.0740467
0.00731838
0.0715198
0.00697683
0.0693264
0.00665197
0.0674679
0.00633758
0.0659426
0.00602929
0.064743
0.00572354
0.0638422
0.00541723
0.0632007
0.00510768
0.0627695
0.00479305
0.0625028
0.00447155
0.0623582
0.00414272
0.0623027
0.00380611
0.0623098
0.00346202
0.0623595
0.00311072
0.0624367
0.00275271
0.0625277
0.0023886
0.0626249
0.00201833
0.0627201
0.00164243
0.0628102
0.00126117
0.0628936
0.000875753
0.0629668
0.0629927
0.00989309
0.0814328
0.0105396
0.091021
0.0105751
0.0929864
0.0102197
0.0914474
0.0097124
0.0880765
0.00917968
0.0843004
0.00868204
0.0806655
0.00823466
0.0773695
0.00783276
0.0744486
0.00746561
0.0718869
0.00712263
0.0696694
0.00679548
0.067795
0.00647799
0.0662601
0.00616592
0.065055
0.00585576
0.0641524
0.00554448
0.063512
0.00522932
0.0630847
0.0049085
0.0628236
0.00458021
0.0626865
0.00424394
0.062639
0.0038993
0.0626544
0.00354658
0.0627122
0.00318613
0.0627971
0.00281839
0.0628955
0.0024441
0.0629992
0.00206322
0.063101
0.00167626
0.0631971
0.00128359
0.0632862
0.000886387
0.063364
0.063392
0.00963932
0.0796521
0.0104294
0.0902309
0.0105757
0.0928402
0.0102906
0.0917325
0.00982287
0.0885442
0.00930952
0.0848138
0.00882053
0.0811545
0.00837691
0.0778132
0.00797643
0.0748491
0.00760949
0.0722539
0.00726564
0.0700132
0.00693673
0.0681239
0.00661665
0.0665802
0.00630121
0.0653705
0.00598696
0.0644666
0.00567095
0.063828
0.00535038
0.0634053
0.00502349
0.0631505
0.0046885
0.0630215
0.00434486
0.0629826
0.00399226
0.063007
0.00363095
0.0630735
0.00326139
0.0631667
0.00288397
0.0632729
0.00249952
0.0633836
0.00210806
0.0634924
0.00171008
0.0635951
0.00130601
0.0636903
0.00089704
0.063773
0.0638036
0.00936913
0.077729
0.0103019
0.0892981
0.010561
0.0925811
0.0103497
0.0919438
0.00992464
0.0889693
0.00943273
0.0853057
0.00895358
0.0816337
0.00851441
0.0782523
0.0081159
0.0752476
0.00774973
0.07262
0.0074056
0.0703574
0.00707552
0.068454
0.00675339
0.0669023
0.00643502
0.0656888
0.00611704
0.0647846
0.00579657
0.0641484
0.0054708
0.063731
0.00513796
0.0634833
0.0047964
0.0633631
0.00444547
0.0633335
0.00408496
0.0633675
0.0037151
0.0634433
0.00333647
0.0635453
0.00294941
0.06366
0.00255483
0.0637782
0.00215283
0.0638944
0.00174387
0.064004
0.00132844
0.0641057
0.000907705
0.0641937
0.0642274
0.00908419
0.0756735
0.0101581
0.0882243
0.0105314
0.0922078
0.0103971
0.092078
0.0100175
0.0893489
0.00954903
0.0857741
0.00908089
0.0821018
0.00864689
0.0786863
0.00825089
0.0756436
0.00788605
0.0729849
0.00754228
0.0707011
0.00721165
0.0687846
0.00688804
0.0672259
0.00656724
0.0660096
0.00624592
0.0651059
0.00592127
0.0644731
0.00559052
0.0640618
0.0052519
0.0638219
0.00490386
0.0637111
0.00454571
0.0636917
0.00417736
0.0637359
0.003799
0.0638217
0.00341133
0.063933
0.00301467
0.0640566
0.00261
0.0641829
0.00219749
0.0643069
0.00177759
0.0644239
0.00135085
0.0645325
0.000918377
0.0646262
0.0646635
0.00878623
0.0734958
0.00999896
0.0870115
0.0104872
0.0917195
0.0104328
0.0921324
0.0101013
0.0896804
0.0096582
0.0862173
0.0092022
0.0825578
0.00877404
0.0791145
0.0083811
0.0760366
0.00801816
0.0733478
0.00767542
0.0710439
0.0073449
0.0691151
0.00702043
0.0675504
0.00669772
0.0663323
0.00637348
0.0654302
0.00604497
0.0648016
0.00570948
0.0643973
0.00536524
0.0641662
0.00501084
0.0640655