/*--------------------------------*- C++ -*----------------------------------*\
  =========                 |
  \\      /  F ield         | OpenFOAM: The Open Source CFD Toolbox
   \\    /   O peration     | Website:  https://openfoam.org
    \\  /    A nd           | Version:  7
     \\/     M anipulation  |
\*---------------------------------------------------------------------------*/
FoamFile
{
    version     2.0;
    format      ascii;
    class       volVectorField;
    location    "10";
    object      U;
}
// * * * * * * * * * * * * * * * * * * * * * * * * * * * * * * * * * * * * * //

dimensions      [0 1 -1 0 0 0 0];

internalField   nonuniform List<vector> 
18000
(
(0.000423697 -0.00925263 3.34532e-21)
(0.00257158 -0.0204315 0)
(0.00670009 -0.0248756 0)
(0.0121092 -0.0239857 0)
(0.0187061 -0.0187533 -1.11373e-21)
(0.0263352 -0.00992484 5.63679e-21)
(0.0348835 0.00191326 -1.14222e-21)
(0.0442595 0.016297 1.15005e-21)
(0.0543826 0.0328533 0)
(0.0651774 0.0512729 -3.48043e-21)
(0.0765706 0.0712913 -1.16461e-21)
(0.0884851 0.0926714 0)
(0.100837 0.115191 2.3214e-21)
(0.113532 0.138632 2.32829e-21)
(0.126467 0.162775 -4.64549e-21)
(0.13953 0.187397 -4.63732e-21)
(0.152597 0.212264 0)
(0.165542 0.237142 -6.9462e-21)
(0.178233 0.26179 2.30749e-21)
(0.190538 0.285973 -6.93352e-21)
(0.202332 0.309462 2.30311e-21)
(0.213497 0.332045 0)
(0.22393 0.353528 -2.28198e-21)
(0.233542 0.373743 -2.30561e-21)
(0.242266 0.392553 0)
(0.250051 0.409849 0)
(0.256869 0.425554 -4.6407e-21)
(0.262719 0.439614 -4.65169e-21)
(0.26762 0.451965 -4.72283e-21)
(0.271496 0.462403 4.97083e-21)
(0.000683844 -0.00971451 4.76813e-21)
(0.00309711 -0.0217306 8.3231e-21)
(0.00720754 -0.0269624 -8.53542e-21)
(0.01236 -0.02683 -8.71895e-21)
(0.0184957 -0.0223376 -2.22259e-21)
(0.0254913 -0.0142393 6.73935e-21)
(0.0332617 -0.00312762 -9.09723e-21)
(0.0417383 0.010532 -9.17182e-21)
(0.0508595 0.0263684 9.22492e-21)
(0.0605679 0.0440754 9.26355e-21)
(0.0708069 0.063395 -4.6342e-21)
(0.0815155 0.0840993 -9.28335e-21)
(0.0926275 0.105978 -4.6568e-21)
(0.104069 0.128825 9.26628e-21)
(0.115756 0.152439 -9.24601e-21)
(0.127596 0.176611 9.25504e-21)
(0.139487 0.201124 -1.84633e-20)
(0.151323 0.225757 1.38128e-20)
(0.162991 0.250284 -9.171e-21)
(0.174376 0.274478 4.61026e-21)
(0.185364 0.298116 -9.14693e-21)
(0.195849 0.320985 0)
(0.205733 0.342888 4.69802e-21)
(0.214929 0.36365 -9.13778e-21)
(0.223366 0.38312 9.15369e-21)
(0.23099 0.401174 0)
(0.237764 0.417715 -4.541e-21)
(0.243679 0.432665 4.5392e-21)
(0.248725 0.445931 1.84282e-20)
(0.252766 0.457264 9.8471e-21)
(0.000968389 -0.0101824 -7.63533e-21)
(0.00368475 -0.0229989 -8.32291e-21)
(0.0078045 -0.0289587 1.28046e-20)
(0.0127273 -0.0295305 2.17754e-20)
(0.018434 -0.025733 0)
(0.0248349 -0.0183297 -8.99822e-21)
(0.031872 -0.00791495 9.0971e-21)
(0.0395011 0.00504414 2.7468e-20)
(0.0476791 0.020177 -9.22483e-21)
(0.0563634 0.0371819 -9.25927e-21)
(0.0655124 0.0558064 2.77743e-20)
(0.0750803 0.0758308 9.28332e-21)
(0.085015 0.0970546 0)
(0.0952579 0.119286 -1.85241e-20)
(0.105742 0.142334 2.76437e-20)
(0.116393 0.166006 -9.17817e-21)
(0.127129 0.190101 9.20834e-21)
(0.137859 0.214414 9.18699e-21)
(0.148488 0.23873 5.30574e-23)
(0.158919 0.262833 0)
(0.169052 0.286508 2.74492e-20)
(0.178791 0.309547 -1.8136e-20)
(0.188046 0.331753 9.14108e-21)
(0.196735 0.352943 0)
(0.204787 0.37296 -9.1538e-21)
(0.212146 0.391665 3.65032e-20)
(0.218771 0.408947 -2.71482e-20)
(0.224649 0.424703 -9.19974e-21)
(0.229741 0.438815 9.01303e-21)
(0.233853 0.450993 9.89097e-21)
(0.00127457 -0.0106108 0)
(0.00432024 -0.0241652 4.15701e-21)
(0.00846492 -0.030809 9.02373e-24)
(0.0131781 -0.0320452 -2.17499e-20)
(0.0184785 -0.028909 0)
(0.024314 -0.0221733 -1.79179e-20)
(0.0306559 -0.0124338 0)
(0.037482 -0.000158599 -2.74361e-20)
(0.0447674 0.0142828 9.18266e-21)
(0.0524851 0.030593 -1.84089e-20)
(0.060606 0.0485253 -1.84964e-20)
(0.069096 0.0678667 -9.24065e-21)
(0.0779153 0.0884253 9.22252e-21)
(0.0870186 0.11002 9.16749e-21)
(0.0963531 0.132474 -9.23762e-21)
(0.105859 0.155606 -1.82773e-20)
(0.115469 0.179231 1.82478e-20)
(0.12511 0.203156 0)
(0.134703 0.227182 0)
(0.144166 0.251104 0)
(0.153412 0.274717 0)
(0.162357 0.297817 0)
(0.170922 0.320211 0)
(0.17903 0.341715 -1.79799e-20)
(0.186614 0.362164 -1.81545e-20)
(0.193616 0.381412 -1.87073e-22)
(0.199997 0.39933 -1.82116e-20)
(0.205742 0.4158 -4.46884e-22)
(0.210784 0.430678 -1.86883e-20)
(0.214878 0.443637 3.86076e-20)
(0.0015991 -0.0110216 0)
(0.0049951 -0.0252605 3.73023e-20)
(0.00917406 -0.032533 8.19118e-24)
(0.0136862 -0.0343875 -1.30232e-20)
(0.0185943 -0.0318756 4.41005e-20)
(0.0238857 -0.0257777 2.68716e-20)
(0.0295607 -0.016692 2.70903e-20)
(0.0356205 -0.00508456 0)
(0.0420584 0.00867765 0)
(0.0488605 0.024301 2.7602e-20)
(0.0560094 0.0415441 5.3308e-24)
(0.0634814 0.0602007 -6.43794e-20)
(0.0712467 0.0800872 5.50969e-20)
(0.0792704 0.101032 -1.83877e-20)
(0.0875109 0.122868 1.82133e-20)
(0.0959205 0.145428 1.8243e-20)
(0.104446 0.168538 -1.8137e-20)
(0.113027 0.19202 1.8174e-20)
(0.121599 0.215688 3.61517e-20)
(0.130094 0.239349 -1.79798e-20)
(0.138439 0.262809 -3.58613e-20)
(0.146562 0.285871 3.57831e-20)
(0.154393 0.308347 -3.57226e-20)
(0.161863 0.330053 1.79802e-20)
(0.168911 0.350823 0)
(0.175481 0.370502 0)
(0.181534 0.388951 3.71866e-22)
(0.187059 0.406037 -7.13192e-20)
(0.191962 0.421592 3.57051e-20)
(0.195952 0.43526 -3.87983e-20)
(0.00193933 -0.0113993 0)
(0.00569732 -0.0262561 -3.3151e-20)
(0.00990969 -0.0341054 3.39251e-20)
(0.0142225 -0.0365361 0)
(0.0187443 -0.0346159 -7.04873e-20)
(0.0235041 -0.0291322 -8.93321e-21)
(0.0285343 -0.0206827 -1.80868e-20)
(0.0338582 -0.00973078 -9.08617e-21)
(0.0394863 0.00335983 0)
(0.0454185 0.0183006 -1.83313e-20)
(0.0516475 0.034856 1.8349e-20)
(0.058158 0.052826 3.67598e-20)
(0.0649283 0.0720337 -3.67155e-20)
(0.0719319 0.0923162 0)
(0.0791362 0.113516 -3.65386e-20)
(0.0865032 0.135476 3.62769e-20)
(0.0939901 0.158036 3.63025e-20)
(0.101549 0.181029 5.40955e-20)
(0.109128 0.204281 -5.4011e-20)
(0.116671 0.227612 7.17207e-20)
(0.124116 0.250838 3.58657e-20)
(0.131405 0.273772 -3.57836e-20)
(0.138475 0.296232 7.12052e-20)
(0.145268 0.318037 0)
(0.151728 0.339019 3.53816e-20)
(0.157804 0.359022 7.10453e-20)
(0.163462 0.377896 -3.49972e-20)
(0.168692 0.395498 3.56801e-20)
(0.173377 0.411638 3.23975e-23)
(0.177185 0.425936 -3.84441e-20)
(0.00229116 -0.0117423 -3.79717e-21)
(0.00641532 -0.0271485 0)
(0.0106528 -0.0355201 -4.24055e-20)
(0.0147591 -0.0384851 8.64208e-21)
(0.0188933 -0.0371268 2.64104e-20)
(0.0231284 -0.0322356 8.90495e-21)
(0.027529 -0.024408 3.59564e-20)
(0.032141 -0.0141032 0)
(0.0369923 -0.00167941 1.82243e-20)
(0.0420952 0.0125811 1.82264e-20)
(0.0474515 0.0284483 -1.82997e-20)
(0.053053 0.0457283 5.4817e-20)
(0.0588848 0.0642511 0)
(0.0649268 0.0838611 0)
(0.0711531 0.104409 5.44518e-20)
(0.0775335 0.125748 -9.05036e-20)
(0.084034 0.147727 3.59992e-20)
(0.0906165 0.170192 -3.60125e-20)
(0.0972386 0.192979 -3.57165e-20)
(0.103855 0.215921 -1.07111e-19)
(0.110416 0.238844 -1.96395e-22)
(0.116871 0.261571 3.53538e-20)
(0.123171 0.283926 -7.07443e-20)
(0.129264 0.305735 3.51866e-20)
(0.135101 0.32683 -2.53395e-22)
(0.140638 0.347052 -3.53578e-20)
(0.145845 0.366249 3.53487e-20)
(0.15072 0.384265 0)
(0.155119 0.400895 3.50403e-20)
(0.158677 0.415741 5.69471e-22)
(0.00265047 -0.0120439 -7.58608e-21)
(0.00713603 -0.027925 8.26445e-21)
(0.0113823 -0.0367647 -5.07407e-20)
(0.0152684 -0.0402238 -2.5875e-20)
(0.0190076 -0.0393996 3.50682e-20)
(0.022719 -0.0350834 -5.33072e-20)
(0.0265 -0.0278677 -1.80043e-20)
(0.0304198 -0.0182051 -3.61288e-20)
(0.0345224 -0.00644659 3.63009e-20)
(0.0388323 0.00713226 -7.28996e-20)
(0.043359 0.0223079 -3.64356e-20)
(0.0481007 0.0388928 -1.08987e-22)
(0.0530476 0.0567236 1.82134e-20)
(0.0581843 0.0756512 -5.44219e-20)
(0.0634903 0.095534 -7.24175e-20)
(0.0689414 0.116233 2.90336e-23)
(0.0745103 0.137607 -1.08492e-22)
(0.0801662 0.159511 3.57135e-20)
(0.085875 0.181794 3.5717e-20)
(0.0916 0.204296 -3.90013e-24)
(0.0973021 0.226857 -1.92965e-22)
(0.10294 0.249307 3.49659e-20)
(0.108473 0.271479 3.52623e-20)
(0.113857 0.293205 3.28569e-23)
(0.119052 0.31432 -1.05159e-19)
(0.12402 0.334665 6.96428e-20)
(0.128737 0.354085 7.02105e-20)
(0.133208 0.372418 -6.9449e-20)
(0.137265 0.389444 -3.50409e-20)
(0.140517 0.404754 -3.80515e-20)
(0.00301223 -0.0122978 -6.81758e-20)
(0.00784587 -0.0285746 -8.25255e-21)
(0.0120771 -0.0378269 4.22616e-20)
(0.0157232 -0.0417418 3.45024e-20)
(0.019055 -0.0414274 -3.5068e-20)
(0.0222394 -0.0376722 3.5522e-20)
(0.0254074 -0.0310619 -1.79171e-20)
(0.0286506 -0.0220403 5.41693e-20)
(0.0320293 -0.0109494 -3.63009e-20)
(0.0355788 0.00194311 3.63997e-20)
(0.0393156 0.0164211 1.82429e-20)
(0.0432433 0.0323035 -1.8237e-20)
(0.0473559 0.0494334 -1.08822e-19)
(0.0516417 0.0676681 7.24666e-20)
(0.056084 0.0868728 3.61479e-20)
(0.0606631 0.106916 0)
(0.0653565 0.127664 0)
(0.070139 0.148981 -2.49748e-22)
(0.0749832 0.170724 -3.54191e-20)
(0.0798599 0.192745 0)
(0.0847379 0.214892 0)
(0.0895841 0.237006 -3.51683e-20)
(0.0943649 0.258927 0)
(0.0990462 0.280493 -6.95597e-20)
(0.103594 0.301545 0)
(0.107977 0.321924 -3.48427e-20)
(0.112179 0.341475 6.96935e-20)
(0.116211 0.360032 -6.89376e-20)
(0.119885 0.377363 0)
(0.122785 0.393056 0)
(0.003371 -0.0124973 6.05971e-20)
(0.00853056 -0.0290858 0)
(0.0127162 -0.0386953 -8.43884e-21)
(0.0160973 -0.0430296 8.59929e-21)
(0.0190055 -0.0432033 -5.2378e-20)
(0.0216568 -0.0399985 6.32774e-24)
(0.0242156 -0.0339908 -1.78729e-20)
(0.0267957 -0.0256126 0)
(0.0294726 -0.0151953 0)
(0.0322915 -0.00299697 -1.81267e-20)
(0.0352755 0.010774 1.81443e-20)
(0.0384321 0.0259441 -3.62694e-20)
(0.0417585 0.0423625 3.6398e-20)
(0.0452455 0.0598928 0)
(0.0488793 0.0784064 0)
(0.0526429 0.097778 0)
(0.0565174 0.117881 3.55338e-20)
(0.0604817 0.138587 -1.12701e-22)
(0.0645136 0.159763 3.55466e-20)
(0.0685896 0.181267 -7.02916e-20)
(0.072685 0.202958 3.51503e-20)
(0.0767737 0.224685 -1.74591e-19)
(0.0808292 0.246295 -5.97902e-23)
(0.0848244 0.267635 6.95612e-20)
(0.0887324 0.28855 -4.54758e-22)
(0.0925282 0.308883 6.87508e-20)
(0.0962033 0.32848 -6.8705e-20)
(0.0997746 0.347175 -6.91309e-20)
(0.103035 0.364727 -9.97014e-23)
(0.105549 0.380723 -7.41571e-20)
(0.00372058 -0.0126359 -7.56424e-21)
(0.00917503 -0.0294474 0)
(0.0132785 -0.0393588 1.68507e-20)
(0.016366 -0.044078 -1.71711e-20)
(0.0188318 -0.0447214 1.5705e-19)
(0.0209422 -0.0420596 3.62141e-24)
(0.0228941 -0.0366549 -1.78348e-20)
(0.0248233 -0.0289257 1.79555e-20)
(0.0268192 -0.0191909 -9.01068e-20)
(0.0289359 -0.00769784 0)
(0.0312019 0.00535416 0)
(0.0336283 0.0197993 -3.6081e-20)
(0.0362144 0.0354937 3.62054e-20)
(0.0389529 0.0523067 -3.60201e-20)
(0.0418314 0.0701157 3.58668e-20)
(0.0448348 0.0888007 0)
(0.0479467 0.108242 -1.42318e-19)
(0.0511489 0.128317 7.0728e-20)
(0.0544228 0.148899 3.53091e-20)
(0.0577495 0.169857 1.05335e-19)
(0.0611091 0.191055 0)
(0.0644814 0.212351 6.9708e-20)
(0.0678459 0.233601 6.91017e-20)
(0.0711817 0.254657 6.88402e-20)
(0.0744681 0.27537 -3.19922e-22)
(0.0776863 0.295586 -6.85044e-20)
(0.0808345 0.315153 6.87065e-20)
(0.0839363 0.333909 0)
(0.0867656 0.351603 -9.6941e-23)
(0.0888702 0.367829 1.48076e-19)
(0.00405422 -0.012707 -6.04397e-20)
(0.00976376 -0.029649 0)
(0.0137434 -0.0398073 -6.72355e-20)
(0.0165059 -0.0448789 -8.56846e-20)
(0.0185093 -0.045976 -5.23189e-20)
(0.0200704 -0.0438529 1.76322e-20)
(0.021418 -0.0390544 -1.79505e-24)
(0.0227084 -0.0319827 -1.79187e-20)
(0.0240435 -0.022942 1.6372e-22)
(0.0254855 -0.0121679 3.60759e-20)
(0.0270675 0.000150695 3.6022e-20)
(0.0288033 0.0138563 -3.5917e-20)
(0.0306935 0.0288119 3.60162e-20)
(0.0327317 0.0448931 -1.07686e-19)
(0.0349066 0.0619824 1.07279e-19)
(0.037204 0.0799654 7.12063e-20)
(0.0396089 0.0987276 1.77467e-19)
(0.042105 0.118152 -3.5458e-20)
(0.0446765 0.13812 -7.02099e-20)
(0.0473073 0.158505 -1.9388e-22)
(0.0499817 0.179179 -6.98031e-20)
(0.0526841 0.200009 2.07926e-19)
(0.0553984 0.220855 -1.38355e-19)
(0.0581094 0.241577 1.37253e-19)
(0.0608016 0.262031 -6.87027e-20)
(0.0634615 0.282069 1.36716e-19)
(0.0660941 0.30154 4.39039e-22)
(0.068728 0.320286 -1.36009e-19)
(0.0711195 0.338053 1.35207e-19)
(0.0728025 0.354443 7.35937e-20)
(0.00436459 -0.0127048 6.04396e-20)
(0.0102808 -0.0296814 0)
(0.0140909 -0.0400319 1.51173e-19)
(0.0164953 -0.0454256 5.14166e-20)
(0.0180165 -0.046963 0)
(0.019021 -0.0453765 0)
(0.0197679 -0.0411898 0)
(0.0204323 -0.0347859 0)
(0.0211277 -0.0264531 3.59979e-20)
(0.0219228 -0.0164134 3.60046e-20)
(0.0228545 -0.00484461 -7.21341e-20)
(0.0239384 0.00810481 7.2088e-20)
(0.025176 0.0223052 1.07748e-19)
(0.0265612 0.0376381 3.59257e-20)
(0.0280827 0.0539916 3.558e-20)
(0.0297271 0.0712562 -1.06752e-19)
(0.0314796 0.0893226 -1.41624e-19)
(0.0333256 0.108079 -7.05514e-20)
(0.0352504 0.127412 7.02115e-20)
(0.0372404 0.147201 -1.39796e-19)
(0.0392826 0.167325 6.93195e-20)
(0.0413649 0.187655 -1.38553e-19)
(0.0434751 0.208061 6.87548e-20)
(0.0456021 0.228407 2.16325e-22)
(0.047735 0.248555 -6.80862e-20)
(0.0498648 0.268361 -1.36549e-19)
(0.0520019 0.287678 1.35627e-19)
(0.054179 0.306354 0)
(0.0561359 0.324133 1.17278e-22)
(0.0573938 0.340629 -1.47049e-19)
(0.00464387 -0.0126238 7.54637e-21)
(0.0107101 -0.0295367 0)
(0.0143017 -0.0400254 -6.71397e-20)
(0.016315 -0.0457126 1.70911e-20)
(0.0173354 -0.0476788 -1.73544e-20)
(0.0177778 -0.0466288 0)
(0.0179298 -0.0430609 -1.77218e-20)
(0.0179833 -0.0373369 1.78441e-20)
(0.0180614 -0.029727 3.58313e-20)
(0.0182386 -0.0204384 -1.07703e-19)
(0.0185542 -0.00963704 -3.59504e-20)
(0.0190251 0.0025382 -2.50212e-24)
(0.0196529 0.0159653 -6.86411e-23)
(0.0204313 0.0305323 -7.15403e-20)
(0.021349 0.0461326 -3.57249e-20)
(0.0223921 0.0626617 0)
(0.0235464 0.0800149 -4.09004e-24)
(0.0247973 0.0980853 7.04063e-20)
(0.0261313 0.116763 -6.98967e-20)
(0.0275361 0.135935 0)
(0.0290009 0.155484 0)
(0.0305156 0.175288 0)
(0.0320714 0.195222 0)
(0.0336601 0.215156 -1.61687e-22)
(0.0352747 0.234957 0)
(0.0369093 0.254485 0)
(0.0385786 0.273599 6.75322e-20)
(0.0403181 0.292154 6.73108e-20)
(0.0418521 0.309893 6.74723e-20)
(0.0426889 0.326445 1.55131e-22)
(0.00488394 -0.0124596 7.54094e-21)
(0.0110358 -0.0292085 -1.63726e-20)
(0.0143581 -0.0397825 1.00448e-19)
(0.0159479 -0.0457362 -1.70659e-20)
(0.0164514 -0.0481215 1.73211e-20)
(0.0163296 -0.0476088 -4.81404e-24)
(0.0158956 -0.0446677 5.29983e-20)
(0.015356 -0.0396359 -7.11523e-20)
(0.0148419 -0.0327644 1.07221e-19)
(0.0144318 -0.0242441 6.93015e-23)
(0.0141667 -0.0142284 -3.58139e-20)
(0.0140641 -0.0028461 7.16626e-20)
(0.0141252 0.0097889 -7.15443e-20)
(0.014343 0.0235713 7.13568e-20)
(0.0147057 0.0384001 0)
(0.0151988 0.0541756 7.08293e-20)
(0.0158079 0.0707975 0)
(0.0165184 0.0881634 9.57698e-23)
(0.0173173 0.106168 -6.98429e-20)
(0.0181928 0.124702 -6.94991e-20)
(0.0191356 0.143654 6.91579e-20)
(0.0201373 0.162906 -6.88242e-20)
(0.021191 0.18234 -6.8502e-20)
(0.022291 0.201831 -1.36506e-19)
(0.0234326 0.22125 -6.7902e-20)
(0.0246125 0.240462 6.79247e-20)
(0.0258479 0.259332 -1.34735e-19)
(0.0271751 0.277723 -6.73125e-20)
(0.0283047 0.295379 0)
(0.028731 0.311945 -7.34671e-20)
(0.00507655 -0.0122089 0)
(0.0112423 -0.0286929 6.53783e-20)
(0.0142436 -0.0393002 -5.02278e-20)
(0.0153798 -0.0454948 -8.51293e-20)
(0.0153539 -0.0482902 0)
(0.0146697 -0.0483163 0)
(0.0136627 -0.0460097 -1.05997e-19)
(0.0125515 -0.0416824 1.42183e-19)
(0.0114732 -0.035564 -1.07086e-19)
(0.010509 -0.0278287 0)
(0.0097008 -0.0186167 3.58802e-20)
(0.00906544 -0.00804598 -3.58649e-20)
(0.00860355 0.00377788 1.08791e-22)
(0.00830716 0.0167566 -3.57684e-20)
(0.00816349 0.0307949 -3.55075e-20)
(0.00815756 0.045798 -8.33379e-23)
(0.00827413 0.0616701 7.04419e-20)
(0.0084984 0.0783127 7.01858e-20)
(0.00881721 0.0956244 -7.20421e-23)
(0.00921953 0.113501 1.38852e-19)
(0.00969642 0.131834 -1.38428e-19)
(0.0102406 0.150513 1.37466e-19)
(0.0108464 0.169422 6.85039e-20)
(0.0115099 0.188442 6.81961e-20)
(0.0122276 0.207448 8.55933e-23)
(0.0129972 0.226312 0)
(0.0138373 0.244904 6.75388e-20)
(0.0147828 0.263095 -2.01368e-19)
(0.015532 0.280635 6.57452e-20)
(0.0155631 0.297181 7.28239e-20)
(0.00521346 -0.0118694 -4.5157e-20)
(0.0113151 -0.027988 -1.47004e-19)
(0.013944 -0.0385779 1.069e-23)
(0.0145995 -0.0449889 1.21832e-22)
(0.0140363 -0.0481858 -5.17209e-20)
(0.0127964 -0.0487514 0)
(0.0112341 -0.0470862 -3.51853e-20)
(0.00957711 -0.0434741 -2.12854e-19)
(0.00796643 -0.0381222 1.06964e-19)
(0.00648455 -0.0311873 -7.1385e-20)
(0.00517282 -0.0227956 1.07224e-19)
(0.00404728 -0.0130543 -3.57424e-20)
(0.0031074 -0.00205997 7.14388e-20)
(0.00234396 0.0100962 -1.78061e-19)
(0.00174306 0.0233251 1.065e-19)
(0.00128882 0.0375368 2.75108e-23)
(0.000965225 0.0526399 -2.11183e-19)
(0.000756967 0.0685399 7.01879e-20)
(0.000650706 0.0851394 -6.9662e-20)
(0.000635527 0.102338 0)
(0.000702787 0.120033 6.9076e-20)
(0.000845675 0.138115 0)
(0.00105916 0.156476 -6.85937e-20)
(0.00133997 0.175 6.79193e-20)
(0.00168518 0.193569 6.78202e-20)
(0.00209231 0.212057 6.74769e-20)
(0.00257887 0.230342 0)
(0.00317716 0.248305 0)
(0.00357427 0.265702 -1.33859e-19)
(0.00322965 0.282203 2.19456e-19)
(0.00528667 -0.0114404 4.51855e-20)
(0.0112408 -0.0270948 8.16287e-20)
(0.0134473 -0.037618 -6.66547e-20)
(0.0135993 -0.0442213 1.35842e-19)
(0.0124962 -0.0478104 1.73517e-20)
(0.0107129 -0.0489151 1.74214e-20)
(0.00861832 -0.0478963 1.187e-22)
(0.00644618 -0.0450076 -7.06913e-20)
(0.00433912 -0.0404331 -3.55022e-20)
(0.00237929 -0.0343114 1.17414e-22)
(0.000606706 -0.0267545 -1.07279e-22)
(-0.000964182 -0.0178585 -1.07057e-19)
(-0.00233543 -0.00771069 -3.56224e-20)
(-0.00351766 0.00360521 7.08565e-23)
(-0.00452607 0.0160062 7.08964e-20)
(-0.00537755 0.0294077 7.06446e-20)
(-0.006089 0.0437227 3.09455e-23)
(-0.00667631 0.0588607 -7.00593e-20)
(-0.00715306 0.0747282 6.98562e-20)
(-0.00753024 0.0912291 -6.92913e-20)
(-0.00781649 0.108264 -1.38162e-19)
(-0.00801854 0.12573 -6.8901e-20)
(-0.00814127 0.14352 1.36671e-19)
(-0.00818799 0.161525 0)
(-0.00816218 0.179632 -6.77816e-20)
(-0.00806786 0.19772 -1.34949e-19)
(-0.00789023 0.215675 -1.34777e-19)
(-0.00760179 0.233388 6.64426e-20)
(-0.00752522 0.250623 -2.00174e-19)
(-0.00822331 0.267059 7.29075e-20)
(0.00528866 -0.0109228 -7.5131e-20)
(0.0110075 -0.0260167 1.63141e-20)
(0.0127442 -0.0364253 6.66555e-20)
(0.0123748 -0.0431969 -5.09189e-20)
(0.0107353 -0.047168 1.72667e-20)
(0.00842726 -0.048809 1.7475e-23)
(0.00582916 -0.0484383 1.75576e-19)
(0.00317767 -0.0462781 7.07563e-20)
(0.000614788 -0.0424883 7.10758e-20)
(-0.00177929 -0.0371891 1.06883e-19)
(-0.00396684 -0.0304785 -1.07005e-19)
(-0.00593561 -0.0224407 7.13507e-20)
(-0.00768952 -0.0131539 1.42526e-19)
(-0.0092408 -0.00269408 7.11202e-20)
(-0.010606 0.0088621 3.74446e-23)
(-0.0118031 0.0214356 -1.41213e-19)
(-0.01285 0.0349437 1.40811e-19)
(-0.013763 0.0493003 9.58825e-23)
(-0.014556 0.064416 -6.98674e-20)
(-0.0152401 0.0801987 6.93024e-20)
(-0.0158242 0.0965528 6.90859e-20)
(-0.016315 0.11338 -6.87953e-20)
(-0.0167179 0.130578 -1.3704e-19)
(-0.0170366 0.148042 -3.61429e-22)
(-0.0172763 0.165664 6.75674e-20)
(-0.0174437 0.18333 6.74725e-20)
(-0.0175287 0.200935 1.34771e-19)
(-0.0175105 0.218381 -1.33319e-19)
(-0.0177202 0.23544 0)
(-0.0187471 0.251798 7.35175e-20)
(0.00521259 -0.0103189 6.08679e-23)
(0.0106053 -0.0247602 0)
(0.0118283 -0.0350076 -4.98225e-20)
(0.0109255 -0.0419232 -1.69309e-20)
(0.00875997 -0.0462639 -6.8607e-20)
(0.00595207 -0.0484353 0)
(0.00288543 -0.0487107 -1.05206e-19)
(-0.000204087 -0.0472795 3.52859e-20)
(-0.00317737 -0.0442771 0)
(-0.00595776 -0.0398053 -7.1049e-20)
(-0.00851081 -0.0339477 0)
(-0.010827 -0.0267771 -1.06812e-19)
(-0.0129125 -0.0183623 1.06685e-19)
(-0.0147812 -0.00877142 -7.10513e-20)
(-0.0164512 0.00192545 -7.08254e-20)
(-0.0179416 0.0136547 0)
(-0.0192711 0.0263385 0)
(-0.0204565 0.039895 7.01868e-20)
(-0.0215119 0.0542393 2.41821e-22)
(-0.0224486 0.0692832 6.97644e-20)
(-0.0232755 0.0849352 -6.90068e-20)
(-0.0239999 0.101101 1.37788e-19)
(-0.0246274 0.117684 -6.8337e-20)
(-0.025163 0.134585 0)
(-0.0256141 0.1517 2.03928e-19)
(-0.0259915 0.168925 -3.37743e-19)
(-0.0262917 0.186161 6.67719e-20)
(-0.0265022 0.203324 6.68869e-20)
(-0.0269617 0.220198 6.65885e-20)
(-0.0282902 0.23647 1.48295e-19)
(0.00505257 -0.0096328 -5.99164e-20)
(0.0100264 -0.0233346 1.29828e-19)
(0.0106966 -0.0333758 6.64383e-20)
(0.00925489 -0.04041 1.51866e-19)
(0.0065805 -0.0451051 1.88406e-19)
(0.00330471 -0.047797 3.46614e-20)
(-0.000189226 -0.0487116 -1.74769e-19)
(-0.00366972 -0.0480044 0)
(-0.0070029 -0.0457864 -1.41423e-19)
(-0.0101172 -0.0421412 -7.08302e-20)
(-0.0129824 -0.037138 0)
(-0.0155923 -0.0308384 -7.10262e-20)
(-0.0179554 -0.0233018 2.33869e-23)
(-0.0200879 -0.0145886 -2.12848e-19)
(-0.022009 -0.0047621 7.08276e-20)
(-0.0237392 0.00610964 7.07014e-20)
(-0.025298 0.0179537 -1.40555e-19)
(-0.0267025 0.0306931 -1.40224e-19)
(-0.0279669 0.0442471 -2.57668e-22)
(-0.0291027 0.0585319 -1.04749e-22)
(-0.030119 0.0734602 0)
(-0.031023 0.0889423 -6.90804e-20)
(-0.031821 0.104887 -6.88803e-20)
(-0.0325197 0.1212 0)
(-0.0331289 0.137785 0)
(-0.0336647 0.154546 2.03246e-19)
(-0.0341318 0.171396 -2.01691e-19)
(-0.0345279 0.188262 0)
(-0.0351978 0.204946 2.00386e-19)
(-0.0367982 0.221128 -1.47345e-19)
(0.00480388 -0.00887028 1.29848e-22)
(0.009266 -0.0217521 -1.29878e-19)
(0.00934955 -0.0315433 -1.65771e-20)
(0.00737032 -0.0386693 -1.68683e-19)
(0.00421164 -0.0437003 -1.02727e-19)
(0.000506884 -0.0468979 3.45915e-20)
(-0.00336662 -0.0484389 6.99574e-20)
(-0.00718521 -0.0484444 1.75615e-19)
(-0.0108225 -0.0470013 1.41427e-19)
(-0.0142136 -0.0441748 1.41885e-19)
(-0.0173334 -0.0400208 0)
(-0.0201796 -0.0345896 1.57444e-22)
(-0.0227635 -0.0279316 0)
(-0.0251032 -0.0200994 1.41927e-19)
(-0.0272199 -0.0111495 0)
(-0.0291352 -0.00114454 -7.07165e-20)
(-0.0308692 0.00984786 7.02333e-20)
(-0.0324394 0.0217555 0)
(-0.0338601 0.0345023 0)
(-0.0351427 0.0480086 -2.09078e-19)
(-0.0362964 0.0621916 6.91644e-20)
(-0.0373284 0.0769664 0)
(-0.0382454 0.0922469 1.37082e-19)
(-0.0390555 0.107946 1.36669e-19)
(-0.0397715 0.123977 -2.72345e-19)
(-0.040415 0.14025 2.71051e-19)
(-0.0410002 0.156692 2.72154e-22)
(-0.0415367 0.173247 1.34359e-19)
(-0.0423745 0.189735 -1.33358e-19)
(-0.0442133 0.205825 0)
(0.0044632 -0.00803874 1.49712e-19)
(0.00832198 -0.0200277 -1.62226e-20)
(0.00779137 -0.0295266 -1.32094e-19)
(0.00528329 -0.0367157 0)
(0.00167227 -0.0420598 -1.36344e-19)
(-0.00241554 -0.0457427 0)
(-0.00661441 -0.0478906 -1.74036e-19)
(-0.0107123 -0.0485903 -1.05387e-19)
(-0.0145926 -0.0479046 -1.40914e-19)
(-0.0181984 -0.0458815 0)
(-0.0215108 -0.0425635 3.54891e-20)
(-0.0245318 -0.0379906 3.57477e-20)
(-0.0272759 -0.0322043 -7.09167e-20)
(-0.0297637 -0.0252494 -1.41776e-19)
(-0.032018 -0.0171763 -7.06663e-20)
(-0.0340618 -0.0080418 -2.82509e-19)
(-0.0359158 0.00209178 1.40575e-19)
(-0.037598 0.0131572 -2.72976e-22)
(-0.0391228 0.025083 -2.96391e-22)
(-0.0405014 0.0377936 2.08868e-19)
(-0.0417429 0.0512108 0)
(-0.0428543 0.0652546 0)
(-0.0438424 0.0798447 5.14117e-22)
(-0.0447159 0.0949015 2.29102e-22)
(-0.0454905 0.110346 -1.36655e-19)
(-0.046193 0.126103 -1.36239e-19)
(-0.046848 0.142111 -5.84585e-22)
(-0.0474771 0.158336 -1.34363e-19)
(-0.0484354 0.17462 -1.34114e-19)
(-0.0504736 0.190616 -5.80249e-22)
(0.00402881 -0.00714717 0)
(0.00719551 -0.0181788 1.2905e-19)
(0.00603008 -0.0273444 1.15616e-19)
(0.0030093 -0.0345657 1.67946e-20)
(-0.00101478 -0.0401955 2.72361e-19)
(-0.00543281 -0.044337 -3.44401e-20)
(-0.00989647 -0.0470651 2.78077e-19)
(-0.0142088 -0.0484323 1.39863e-19)
(-0.0182655 -0.0484782 2.11315e-19)
(-0.0220188 -0.0472342 1.05873e-19)
(-0.025457 -0.0447302 3.54435e-20)
(-0.0285869 -0.0409965 1.77463e-19)
(-0.0314268 -0.0360662 1.6116e-22)
(-0.0339998 -0.0299768 7.09971e-20)
(-0.0363307 -0.0227726 1.41558e-19)
(-0.038444 -0.0145049 1.41257e-19)
(-0.0403614 -0.00523053 0)
(-0.0421012 0.00498811 0)
(-0.043678 0.016084 0)
(-0.0451034 0.0279858 0)
(-0.0463858 0.0406194 1.39235e-19)
(-0.0475318 0.0539096 0)
(-0.0485478 0.067782 -2.28358e-22)
(-0.0494424 0.0821643 2.7466e-19)
(-0.0502325 0.0969879 1.36448e-19)
(-0.0509492 0.11219 1.35808e-19)
(-0.0516263 0.127729 2.7115e-19)
(-0.0522974 0.143595 0)
(-0.0533218 0.15966 -2.68846e-19)
(-0.0555121 0.175561 2.98588e-19)
(0.0035007 -0.00620593 1.19166e-19)
(0.00589107 -0.0162254 -1.29053e-19)
(0.00407758 -0.0250182 0)
(0.000567744 -0.0322381 -1.33731e-19)
(-0.00382291 -0.0381209 -3.43113e-20)
(-0.00851165 -0.0426875 -1.02881e-19)
(-0.0131732 -0.0459611 -3.121e-19)
(-0.0176295 -0.0479605 -3.48302e-22)
(-0.0217902 -0.048703 -1.05229e-19)
(-0.0256184 -0.048204 -2.46809e-19)
(-0.0291104 -0.0464822 -3.53285e-20)
(-0.0322785 -0.0435584 -1.41541e-19)
(-0.0351451 -0.0394582 -1.41631e-19)
(-0.0377362 -0.0342124 0)
(-0.0400791 -0.0278596 -1.41483e-19)
(-0.0421999 -0.0204456 -2.1207e-19)
(-0.0441215 -0.012022 7.03557e-20)
(-0.045863 -0.00264658 -1.40707e-19)
(-0.0474397 0.00761794 -1.40342e-19)
(-0.0488633 0.0187041 0)
(-0.0501423 0.0305416 -2.78731e-19)
(-0.0512825 0.0430594 0)
(-0.0522891 0.0561878 -2.76936e-19)
(-0.0531695 0.0698618 -1.38209e-19)
(-0.0539397 0.0840231 -2.7445e-19)
(-0.054632 0.098624 1.37032e-19)
(-0.0552867 0.113644 -4.07564e-19)
(-0.0559463 0.129104 1.35572e-19)
(-0.056972 0.144923 -4.71786e-22)
(-0.059254 0.16072 -1.51091e-19)
(0.00288073 -0.00522659 -1.19169e-19)
(0.0044166 -0.0141894 1.60548e-20)
(0.00194955 -0.0225712 1.14654e-19)
(-0.00201824 -0.0297536 1.33735e-19)
(-0.00672206 -0.0358514 -1.35662e-19)
(-0.0116155 -0.0408024 3.83837e-22)
(-0.0164022 -0.0445785 1.38539e-19)
(-0.0209258 -0.0471658 -2.78761e-19)
(-0.0251126 -0.0485598 -3.47438e-20)
(-0.0289377 -0.0487614 3.16712e-19)
(-0.0324061 -0.0477787 -2.11734e-19)
(-0.0355363 -0.0456244 3.53513e-19)
(-0.0383553 -0.0423168 3.5399e-19)
(-0.0408926 -0.0378812 -7.06656e-20)
(-0.0431781 -0.0323505 1.41487e-19)
(-0.0452402 -0.0257656 2.1209e-19)
(-0.0471032 -0.0181732 7.07004e-20)
(-0.0487879 -0.00962638 -9.66103e-23)
(-0.0503106 -0.000184155 6.9945e-20)
(-0.0516839 0.0100895 6.98318e-20)
(-0.0529167 0.0211274 -7.02576e-20)
(-0.0540144 0.0328612 6.9379e-20)
(-0.0549807 0.0452249 -1.38841e-19)
(-0.0558204 0.0581583 1.37983e-19)
(-0.0565457 0.0716119 -3.98275e-22)
(-0.0571854 0.0855525 1.37266e-19)
(-0.0577801 0.0999831 -4.61911e-22)
(-0.0583732 0.114966 -1.35438e-19)
(-0.0593214 0.130486 1.40203e-22)
(-0.0616135 0.146157 0)
(0.00217264 -0.00422166 0)
(0.00278346 -0.0120943 0)
(-0.000334588 -0.0200288 -1.47432e-19)
(-0.004722 -0.0271347 1.66586e-20)
(-0.00967902 -0.033404 0)
(-0.0147052 -0.0386914 1.36872e-19)
(-0.0195383 -0.0429187 3.45055e-20)
(-0.0240472 -0.0460398 1.04463e-19)
(-0.0281767 -0.04803 1.40017e-19)
(-0.0319148 -0.0488767 -1.40627e-19)
(-0.0352763 -0.0485785 1.4106e-19)
(-0.0382867 -0.0471407 -1.41333e-19)
(-0.040978 -0.0445757 -1.4147e-19)
(-0.0433836 -0.0409034 0)
(-0.0455368 -0.0361522 0)
(-0.0474684 -0.0303581 0)
(-0.0492052 -0.0235632 -1.41076e-19)
(-0.05077 -0.0158167 2.11432e-19)
(-0.0521812 -0.00717364 -7.00909e-20)
(-0.0534533 0.00230475 0)
(-0.0545965 0.0125533 2.09888e-19)
(-0.0556166 0.0235053 -6.95095e-20)
(-0.0565166 0.0350953 1.38845e-19)
(-0.0572979 0.0472645 -2.77684e-19)
(-0.0579658 0.0599674 2.75399e-19)
(-0.0585396 0.073181 6.6832e-22)
(-0.0590502 0.0869296 2.14701e-22)
(-0.0595259 0.101324 1.35914e-19)
(-0.0602995 0.116444 -7.49241e-22)
(-0.0624838 0.13194 1.51582e-19)
(0.00138208 -0.00320442 1.47513e-20)
(0.00100642 -0.00996503 -1.60272e-20)
(-0.00275193 -0.0174178 3.25898e-20)
(-0.0075137 -0.0244055 -1.98867e-19)
(-0.0126579 -0.0307972 3.36772e-20)
(-0.0177391 -0.036366 0)
(-0.0225345 -0.0409844 1.37335e-19)
(-0.0269413 -0.0445759 -1.38409e-19)
(-0.0309243 -0.0470966 0)
(-0.034486 -0.0485215 1.75019e-19)
(-0.0376514 -0.048841 -3.51113e-20)
(-0.0404537 -0.0480538 0)
(-0.0429306 -0.0461672 -7.07198e-20)
(-0.0451201 -0.043197 1.41283e-19)
(-0.0470592 -0.0391674 -7.04866e-20)
(-0.0487819 -0.03411 7.07937e-20)
(-0.0503181 -0.0280629 -1.41108e-19)
(-0.0516933 -0.0210712 -4.01785e-22)
(-0.0529292 -0.0131867 -4.2089e-22)
(-0.0540433 -0.00446793 -7.04731e-20)
(-0.0550487 0.0050214 -1.40528e-19)
(-0.0559536 0.0152144 -9.19032e-22)
(-0.0567616 0.0260436 -5.91702e-22)
(-0.0574718 0.037446 1.38704e-19)
(-0.0580816 0.0493719 -1.38883e-19)
(-0.0585948 0.0617967 1.37721e-19)
(-0.0590204 0.0747522 -2.74779e-19)
(-0.0593451 0.0883905 -2.19113e-22)
(-0.0598285 0.102925 -2.7315e-19)
(-0.0617126 0.118122 1.52437e-19)
(0.000516721 -0.00218872 0)
(-0.000896333 -0.00782748 -1.27113e-19)
(-0.00527615 -0.0147662 0)
(-0.0103605 -0.0215917 4.86863e-22)
(-0.0156202 -0.0280515 3.35405e-20)
(-0.0206737 -0.0338395 1.72847e-24)
(-0.0253426 -0.0387809 -2.74184e-19)
(-0.0295546 -0.04277 1.03881e-19)
(-0.0332967 -0.0457451 0)
(-0.0365867 -0.04767 -1.74933e-19)
(-0.0394607 -0.0485278 3.50216e-20)
(-0.0419602 -0.0483119 0)
(-0.0441292 -0.0470253 -7.06069e-20)
(-0.0460107 -0.0446804 7.0384e-20)
(-0.0476463 -0.041298 7.02865e-20)
(-0.0490735 -0.0369059 1.41143e-19)
(-0.0503258 -0.0315384 -7.03324e-20)
(-0.0514328 -0.0252367 0)
(-0.0524199 -0.0180494 0)
(-0.0533093 -0.010032 1.4046e-19)
(-0.0541184 -0.00124678 -1.40722e-19)
(-0.0548601 0.00823895 1.39445e-19)
(-0.0555419 0.0183535 1.39438e-19)
(-0.0561639 0.0290253 1.3967e-19)
(-0.0567185 0.0401902 -1.38252e-19)
(-0.0571941 0.0518034 1.38105e-19)
(-0.0575714 0.0638724 1.3834e-19)
(-0.0577731 0.076558 -1.36838e-19)
(-0.0579036 0.0902201 -7.17493e-22)
(-0.059221 0.104843 3.0766e-19)
(-0.000414422 -0.00118813 1.46515e-20)
(-0.00290406 -0.00570738 1.11233e-19)
(-0.00787834 -0.0121022 0)
(-0.0132275 -0.0187196 1.32039e-19)
(-0.0185262 -0.0251885 0)
(-0.0234646 -0.0311273 0)
(-0.0279134 -0.0363158 1.0271e-19)
(-0.0318335 -0.0406208 -5.01348e-23)
(-0.0352351 -0.0439643 3.46279e-20)
(-0.0381526 -0.0463 3.48903e-20)
(-0.0406338 -0.0476047 -1.05004e-19)
(-0.0427291 -0.0478671 7.00391e-20)
(-0.0444894 -0.0470875 0)
(-0.0459635 -0.0452754 0)
(-0.0471975 -0.0424488 -1.41046e-19)
(-0.0482334 -0.0386323 0)
(-0.0491088 -0.0338567 -7.07104e-20)
(-0.0498575 -0.0281597 7.02277e-20)
(-0.0505098 -0.0215857 7.06256e-20)