/*--------------------------------*- C++ -*----------------------------------*\
  =========                 |
  \\      /  F ield         | OpenFOAM: The Open Source CFD Toolbox
   \\    /   O peration     | Website:  https://openfoam.org
    \\  /    A nd           | Version:  7
     \\/     M anipulation  |
\*---------------------------------------------------------------------------*/
FoamFile
{
    version     2.0;
    format      ascii;
    class       volScalarField;
    location    "0.275";
    object      p;
}
// * * * * * * * * * * * * * * * * * * * * * * * * * * * * * * * * * * * * * //

dimensions      [0 2 -2 0 0 0 0];

internalField   nonuniform List<scalar> 
400
(
5.53895e-06
-0.00589744
-0.0130474
-0.0184922
-0.0205145
-0.0183223
-0.011852
-0.0015501
0.0117871
0.0271179
0.0432332
0.0588312
0.0726037
0.0833461
0.0900968
0.0923101
0.0900659
0.0842933
0.076901
0.0710284
0.00583082
-0.000240599
-0.0057744
-0.00948707
-0.0105351
-0.00836808
-0.00291257
0.00551656
0.0163244
0.0287085
0.0417201
0.0543307
0.065509
0.0743161
0.0800183
0.0822145
0.0809856
0.0769906
0.0712601
0.0652441
0.0133979
0.00496546
-0.00100794
-0.0044244
-0.00527709
-0.00326902
0.00159606
0.00901882
0.0184899
0.029333
0.0407448
0.0518446
0.0617395
0.0696044
0.0747736
0.0768439
0.0758054
0.0720618
0.0658362
0.0574391
0.0202085
0.00859614
0.00120541
-0.00267599
-0.00373519
-0.0018997
0.00271657
0.00976902
0.0187637
0.0290772
0.0399728
0.0506333
0.0602106
0.0678923
0.0729789
0.074976
0.0737353
0.0694397
0.0616665
0.0500012
0.0245949
0.00964899
0.000572906
-0.00398577
-0.0053079
-0.00351459
0.00116664
0.00832443
0.0174491
0.0279331
0.0390656
0.050047
0.0600225
0.0681358
0.0735955
0.0757649
0.0743296
0.06927
0.0596166
0.0444127
0.0253
0.00700125
-0.00381625
-0.00904916
-0.0105129
-0.00850291
-0.00336088
0.00442277
0.0143033
0.025665
0.0377955
0.0498804
0.0610206
0.0702715
0.0767005
0.0794794
0.078092
0.0723113
0.0606598
0.0417351
0.0212481
-0.000435492
-0.0129446
-0.018693
-0.0200248
-0.017412
-0.011318
-0.00232243
0.00898372
0.0219649
0.0358933
0.0499225
0.0630844
0.074312
0.0824846
0.0865268
0.0856646
0.0794205
0.0657723
0.0428806
0.0113357
-0.0138149
-0.0278778
-0.0338264
-0.0345902
-0.0308486
-0.0232063
-0.0123425
0.00110288
0.0164767
0.0330393
0.0499136
0.0660559
0.0802548
0.0911593
0.0973799
0.0978011
0.0916011
0.0760813
0.0488795
-0.00572666
-0.0344861
-0.049861
-0.0555053
-0.0550658
-0.0494967
-0.0395791
-0.0261038
-0.0097531
0.00882102
0.0288922
0.0495766
0.0697712
0.088118
0.103001
0.112642
0.115463
0.110143
0.0930539
0.0611129
-0.031554
-0.0641176
-0.0803904
-0.0849437
-0.0823821
-0.0740498
-0.0609576
-0.0440194
-0.0239405
-0.00133244
0.0231426
0.048649
0.0740723
0.0979356
0.118345
0.133055
0.139877
0.136746
0.118695
0.081549
-0.0682777
-0.104865
-0.121292
-0.123501
-0.117462
-0.105087
-0.0876856
-0.0663002
-0.0416186
-0.0141438
0.0156099
0.046948
0.0788378
0.109759
0.13757
0.159502
0.172585
0.173672
0.155805
0.113061
-0.11889
-0.159632
-0.174828
-0.172638
-0.161078
-0.142878
-0.119718
-0.0927447
-0.062552
-0.0294283
0.00638592
0.0444772
0.0840456
0.123675
0.161084
0.192992
0.21549
0.223922
0.208352
0.15994
-0.187942
-0.232518
-0.243805
-0.233797
-0.213611
-0.187097
-0.156327
-0.122465
-0.0858674
-0.0464459
-0.00399256
0.0415537
0.0898452
0.139813
0.189274
0.234591
0.270862
0.291448
0.282033
0.22882
-0.28306
-0.329537
-0.331639
-0.308107
-0.274623
-0.236384
-0.195722
-0.153575
-0.109809
-0.0637144
-0.0144072
0.0388919
0.0965755
0.158282
0.22235
0.285203
0.341167
0.381282
0.385113
0.330528
-0.418183
-0.459743
-0.442069
-0.395624
-0.342069
-0.287706
-0.23459
-0.182907
-0.131585
-0.078954
-0.0231758
0.0375202
0.104601
0.178879
0.259883
0.344933
0.428408
0.499311
0.529621
0.483719
-0.619422
-0.636577
-0.578329
-0.494079
-0.411223
-0.335651
-0.267773
-0.205965
-0.14752
-0.0893532
-0.0283826
0.0384074
0.113879
0.200552
0.300051
0.412064
0.532937
0.651426
0.732446
0.720598
-0.935595
-0.878176
-0.741678
-0.598052
-0.474385
-0.372621
-0.28884
-0.217735
-0.153921
-0.092425
-0.0286728
0.0417555
0.123338
0.220804
0.339004
0.482246
0.652268
0.841652
1.01496
1.09628
-1.48059
-1.20195
-0.920996
-0.692542
-0.517672
-0.387697
-0.29019
-0.21342
-0.148158
-0.0872055
-0.0245241
0.0455627
0.129105
0.233301
0.367365
0.543125
0.772633
1.06029
1.39819
1.73407
-2.57157
-1.60192
-1.04346
-0.714824
-0.497794
-0.353382
-0.255525
-0.184279
-0.126591
-0.0737795
-0.0192057
0.0430686
0.119766
0.219655
0.356008
0.549825
0.829816
1.23507
1.88111
2.95926
-4.4451
-2.01726
-0.969792
-0.564334
-0.35704
-0.239029
-0.169352
-0.123292
-0.0871801
-0.0533651
-0.0166732
0.0275175
0.0843021
0.161197
0.271581
0.441366
0.718807
1.2215
2.38403
4.9294
)
;

boundaryField
{
    movingWall
    {
        type            zeroGradient;
    }
    fixedWalls
    {
        type            zeroGradient;
    }
    frontAndBack
    {
        type            empty;
    }
}


// ************************************************************************* //
