/*--------------------------------*- C++ -*----------------------------------*\
  =========                 |
  \\      /  F ield         | OpenFOAM: The Open Source CFD Toolbox
   \\    /   O peration     | Website:  https://openfoam.org
    \\  /    A nd           | Version:  7
     \\/     M anipulation  |
\*---------------------------------------------------------------------------*/
FoamFile
{
    version     2.0;
    format      ascii;
    class       surfaceScalarField;
    location    "0.275";
    object      phi;
}
// * * * * * * * * * * * * * * * * * * * * * * * * * * * * * * * * * * * * * //

dimensions      [0 3 -1 0 0 0 0];

internalField   nonuniform List<scalar> 
760
(
1.42672e-08
-1.42964e-08
-2.23546e-08
3.66219e-08
-1.14287e-07
9.1933e-08
-2.45429e-07
1.31141e-07
-3.96e-07
1.50571e-07
-5.47251e-07
1.51251e-07
-6.83061e-07
1.35811e-07
-7.9052e-07
1.07459e-07
-8.60053e-07
6.95333e-08
-8.8548e-07
2.54268e-08
-8.64157e-07
-2.13233e-08
-7.9723e-07
-6.69272e-08
-6.89936e-07
-1.07294e-07
-5.51839e-07
-1.38097e-07
-3.96832e-07
-1.55007e-07
-2.4268e-07
-1.54152e-07
-1.09761e-07
-1.32919e-07
-1.85779e-08
-9.11836e-08
1.57743e-08
-3.43524e-08
1.57742e-08
-3.43553e-08
2.00589e-08
-1.80427e-07
1.82694e-07
-4.34045e-07
3.45551e-07
-7.64351e-07
4.61447e-07
-1.13193e-06
5.18151e-07
-1.49676e-06
5.16077e-07
-1.82266e-06
4.61718e-07
-2.07971e-06
3.64507e-07
-2.24535e-06
2.35169e-07
-2.30506e-06
8.51437e-08
-2.25294e-06
-7.3449e-08
-2.09216e-06
-2.27702e-07
-1.83551e-06
-3.63944e-07
-1.50548e-06
-4.68127e-07
-1.13375e-06
-5.26743e-07
-7.5941e-07
-5.28487e-07
-4.2545e-07
-4.66879e-07
-1.72746e-07
-3.43887e-07
-3.1001e-08
-1.76098e-07
-1.5227e-08
-9.20657e-08
1.12125e-07
-3.56875e-07
4.47503e-07
-7.6439e-07
7.53067e-07
-1.26817e-06
9.65232e-07
-1.81419e-06
1.06416e-06
-2.34832e-06
1.05021e-06
-2.82152e-06
9.34911e-07
-3.19286e-06
7.35854e-07
-3.43142e-06
4.73723e-07
-3.51726e-06
1.7099e-07
-3.44233e-06
-1.48382e-07
-3.21109e-06
-4.58946e-07
-2.84107e-06
-7.33959e-07
-2.36296e-06
-9.46237e-07
-1.8197e-06
-1.07e-06
-1.26411e-06
-1.08408e-06
-7.54319e-07
-9.76666e-07
-3.46839e-07
-7.51367e-07
-8.71727e-08
-4.35764e-07
-1.024e-07
-1.45085e-07
2.5721e-07
-5.25256e-07
8.27674e-07
-1.0813e-06
1.30911e-06
-1.74699e-06
1.63092e-06
-2.45359e-06
1.77076e-06
-3.13541e-06
1.73204e-06
-3.73412e-06
1.53362e-06
-4.20157e-06
1.2033e-06
-4.50146e-06
7.73613e-07
-4.6104e-06
2.79933e-07
-4.51873e-06
-2.40057e-07
-4.23126e-06
-7.46407e-07
-3.76803e-06
-1.1972e-06
-3.16449e-06
-1.54977e-06
-2.47097e-06
-1.76352e-06
-1.75043e-06
-1.80463e-06
-1.07411e-06
-1.65299e-06
-5.14904e-07
-1.31057e-06
-1.39176e-07
-8.11491e-07
-2.41576e-07
-1.93514e-07
4.50723e-07
-6.84752e-07
1.31891e-06
-1.38516e-06
2.00952e-06
-2.20653e-06
2.45228e-06
-3.06448e-06
2.62872e-06
-3.88254e-06
2.55009e-06
-4.59504e-06
2.24612e-06
-5.14893e-06
1.7572e-06
-5.50466e-06
1.12934e-06
-5.63665e-06
4.11925e-07
-5.53386e-06
-3.42846e-07
-5.20053e-06
-1.07974e-06
-4.65716e-06
-1.74056e-06
-3.94144e-06
-2.26549e-06
-3.10847e-06
-2.5965e-06
-2.22959e-06
-2.68351e-06
-1.38906e-06
-2.49352e-06
-6.78194e-07
-2.02143e-06
-1.87646e-07
-1.30204e-06
-4.29222e-07
-2.39834e-07
6.90558e-07
-8.40038e-07
1.91912e-06
-1.68269e-06
2.85217e-06
-2.65614e-06
3.42573e-06
-3.6596e-06
3.63219e-06
-4.60625e-06
3.49674e-06
-5.42459e-06
3.06446e-06
-6.05861e-06
2.39121e-06
-6.46724e-06
1.53797e-06
-6.62384e-06
5.68521e-07
-6.51606e-06
-4.5062e-07
-6.14657e-06
-1.44923e-06
-5.53442e-06
-2.35271e-06
-4.71701e-06
-3.0829e-06
-3.75185e-06
-3.56166e-06
-2.71726e-06
-3.71811e-06
-1.71074e-06
-3.50003e-06
-8.4425e-07
-2.88792e-06
-2.36029e-07
-1.91026e-06
-6.65251e-07
-2.86604e-07
9.77162e-07
-9.96683e-07
2.6292e-06
-1.98132e-06
3.83681e-06
-3.10381e-06
4.54821e-06
-4.24646e-06
4.77484e-06
-5.31302e-06
4.5633e-06
-6.22807e-06
3.97951e-06
-6.93492e-06
3.09807e-06
-7.39307e-06
1.99613e-06
-7.57609e-06
7.51536e-07
-7.47055e-06
-5.56154e-07
-7.0765e-06
-1.84329e-06
-6.40935e-06
-3.01986e-06
-5.50323e-06
-3.98901e-06
-4.41502e-06
-4.64987e-06
-3.22777e-06
-4.90536e-06
-2.05188e-06
-4.67593e-06
-1.02197e-06
-3.91783e-06
-2.88068e-07
-2.64416e-06
-9.53319e-07
-3.36135e-07
1.3133e-06
-1.15984e-06
3.4529e-06
-2.28705e-06
4.96402e-06
-3.55359e-06
5.81476e-06
-4.82484e-06
6.04609e-06
-5.99699e-06
5.73544e-06
-6.99371e-06
4.97624e-06
-7.76101e-06
3.86536e-06
-8.26181e-06
2.49693e-06
-8.4718e-06
9.61527e-07
-8.37704e-06
-6.50914e-07
-7.97391e-06
-2.24642e-06
-7.27161e-06
-3.72216e-06
-6.29712e-06
-4.9635e-06
-5.10213e-06
-5.84486e-06
-3.77046e-06
-6.23704e-06
-2.42343e-06
-6.02295e-06
-1.21994e-06
-5.12133e-06
-3.47395e-07
-3.5167e-06
-1.30071e-06
-3.90679e-07
1.70397e-06
-1.33418e-06
4.3964e-06
-2.60375e-06
6.23359e-06
-4.00423e-06
7.21524e-06
-5.38473e-06
7.42659e-06
-6.6374e-06
6.98811e-06
-7.68989e-06
6.02873e-06
-8.49577e-06
4.67124e-06
-9.02558e-06
3.02674e-06
-9.25994e-06
1.19589e-06
-9.18551e-06
-7.25338e-07
-8.79421e-06
-2.63772e-06
-8.08602e-06
-4.43036e-06
-7.07571e-06
-5.97381e-06
-5.80323e-06
-7.11734e-06
-4.3464e-06
-7.69386e-06
-2.83286e-06
-7.53649e-06
-1.44596e-06
-6.50823e-06
-4.17643e-07
-4.54501e-06
-1.71836e-06
-4.53059e-07
2.15703e-06
-1.52473e-06
5.46808e-06
-2.93331e-06
7.64217e-06
-4.44805e-06
8.72998e-06
-5.90394e-06
8.88248e-06
-7.19525e-06
8.27942e-06
-8.261e-06
7.09448e-06
-9.06933e-06
5.47958e-06
-9.60405e-06
3.56145e-06
-9.85463e-06
1.44647e-06
-9.81027e-06
-7.69702e-07
-9.458e-06
-2.98999e-06
-8.78551e-06
-5.10284e-06
-7.78928e-06
-6.97004e-06
-6.48856e-06
-8.41806e-06
-4.94468e-06
-9.23774e-06
-3.28254e-06
-9.19862e-06
-1.70709e-06
-8.08368e-06
-5.02936e-07
-5.74917e-06
-2.22129e-06
-5.27796e-07
2.68483e-06
-1.73838e-06
6.67866e-06
-3.27597e-06
9.17976e-06
-4.86915e-06
1.03232e-05
-6.34434e-06
1.03577e-05
-7.60812e-06
9.5432e-06
-8.6217e-06
8.10806e-06
-9.37707e-06
6.23495e-06
-9.87836e-06
4.06274e-06
-1.01288e-05
1.6969e-06
-1.01228e-05
-7.75672e-07
-9.84306e-06
-3.26975e-06
-9.26235e-06
-5.68355e-06
-8.35237e-06
-7.88002e-06
-7.10057e-06
-9.66986e-06
-5.53675e-06
-1.08016e-05
-3.76741e-06
-1.0968e-05
-2.01002e-06
-9.84108e-06
-6.08799e-07
-7.15039e-06
-2.83009e-06
-6.23007e-07
3.30784e-06
-1.98574e-06
8.04139e-06
-3.62943e-06
1.08235e-05
-5.23908e-06
1.19328e-05
-6.64472e-06
1.17633e-05
-7.78182e-06
1.06803e-05
-8.64861e-06
8.97484e-06
-9.2721e-06
6.85844e-06
-9.68442e-06
4.47506e-06
-9.90765e-06
1.92012e-06
-9.94484e-06
-7.38479e-07
-9.77581e-06
-3.43878e-06
-9.3576e-06
-6.10176e-06
-8.63177e-06
-8.60586e-06
-7.54207e-06
-1.07596e-05
-6.06713e-06
-1.22765e-05
-4.27028e-06
-1.27648e-05
-2.36091e-06
-1.17504e-05
-7.43691e-07
-8.76761e-06
-3.57378e-06
-7.53524e-07
4.06136e-06
-2.28244e-06
9.57031e-06
-3.98412e-06
1.25251e-05
-5.50601e-06
1.34547e-05
-6.70682e-06
1.29641e-05
-7.57625e-06
1.15497e-05
-8.16822e-06
9.56682e-06
-8.55617e-06
7.2464e-06
-8.8065e-06
4.72539e-06
-8.96385e-06
2.07748e-06
-9.04299e-06
-6.59346e-07
-9.02396e-06
-3.4578e-06
-8.8502e-06
-6.27553e-06
-8.43166e-06
-9.02439e-06
-7.65897e-06
-1.15322e-05
-6.43752e-06
-1.3498e-05
-4.75189e-06
-1.44504e-05
-2.76368e-06
-1.37387e-05
-9.2148e-07
-1.06098e-05
-4.49526e-06
-9.45598e-07
5.00696e-06
-2.64682e-06
1.12715e-05
-4.30799e-06
1.41863e-05
-5.57036e-06
1.47171e-05
-6.36839e-06
1.37621e-05
-6.78173e-06
1.19631e-05
-6.93962e-06
9.7247e-06
-6.96937e-06
7.27615e-06
-6.97275e-06
4.72877e-06
-7.0166e-06
2.12133e-06
-7.12861e-06
-5.47337e-07
-7.29343e-06
-3.29298e-06
-7.44772e-06
-6.12124e-06
-7.47614e-06
-8.99597e-06
-7.21523e-06
-1.17932e-05
-6.47914e-06
-1.4234e-05
-5.12953e-06
-1.58e-05
-3.21252e-06
-1.56557e-05
-1.16471e-06
-1.26576e-05
-5.65998e-06
-1.24107e-06
6.24803e-06
-3.08336e-06
1.31138e-05
-4.50544e-06
1.56084e-05
-5.23247e-06
1.54441e-05
-5.35414e-06
1.38838e-05
-5.08165e-06
1.16906e-05
-4.63146e-06
9.27451e-06
-4.18039e-06
6.82508e-06
-3.85589e-06
4.40427e-06
-3.73877e-06
2.00422e-06
-3.86692e-06
-4.19186e-07
-4.23427e-06
-2.92563e-06
-4.78332e-06
-5.57219e-06
-5.39167e-06
-8.38762e-06
-5.85825e-06
-1.13266e-05
-5.90537e-06
-1.41869e-05
-5.23119e-06
-1.64742e-05
-3.66686e-06
-1.722e-05
-1.50479e-06
-1.48197e-05
-7.16477e-06
-1.68689e-06
7.93493e-06
-3.51915e-06
1.49461e-05
-4.31565e-06
1.64049e-05
-4.08912e-06
1.52176e-05
-3.19417e-06
1.29889e-05
-2.0006e-06
1.0497e-05
-7.97612e-07
8.07153e-06
2.16376e-07
5.81109e-06
9.14943e-07
3.7057e-06
1.22206e-06
1.6971e-06
1.09831e-06
-2.95441e-07
5.37211e-07
-2.36453e-06
-4.26751e-07
-4.60823e-06
-1.69624e-06
-7.11813e-06
-3.07589e-06
-9.94694e-06
-4.23411e-06
-1.30287e-05
-4.6996e-06
-1.60087e-05
-3.97652e-06
-1.79431e-05
-1.96095e-06
-1.68353e-05
-9.12572e-06
-2.27129e-06
1.02062e-05
-3.60891e-06
1.62837e-05
-3.08269e-06
1.58787e-05
-1.34764e-06
1.34825e-05
8.92853e-07
1.07484e-05
3.15057e-06
8.23929e-06
5.13354e-06
6.08856e-06
6.68395e-06
4.26068e-06
7.72089e-06
2.66876e-06
8.20139e-06
1.2166e-06
8.09837e-06
-1.92422e-07
7.39317e-06
-1.65932e-06
6.08057e-06
-3.29563e-06
4.19239e-06
-5.22995e-06
1.84662e-06
-7.60117e-06
-6.70412e-07
-1.05117e-05
-2.80423e-06
-1.38749e-05
-3.68946e-06
-1.70578e-05
-2.46026e-06
-1.80645e-05
-1.1586e-05
-2.69695e-06
1.29032e-05
-2.20743e-06
1.57942e-05
7.13878e-07
1.29574e-05
4.46379e-06
9.7326e-06
8.12625e-06
7.08592e-06
1.12944e-05
5.07111e-06
1.38222e-05
3.56079e-06
1.56815e-05
2.40142e-06
1.68851e-05
1.46508e-06
1.74482e-05
6.53511e-07
1.73693e-05
-1.13542e-07
1.66229e-05
-9.12872e-07
1.51588e-05
-1.83155e-06
1.29143e-05
-2.98548e-06
9.85196e-06
-4.53878e-06
6.05183e-06
-6.71152e-06
1.90022e-06
-9.72332e-06
-1.59532e-06
-1.35623e-05
-2.59407e-06
-1.70657e-05
-1.418e-05
-5.79036e-07
1.34822e-05
4.12017e-06
1.1095e-05
1.02998e-05
6.77771e-06
1.57883e-05
4.24412e-06
2.01501e-05
2.72413e-06
2.34496e-05
1.77157e-06
2.58529e-05
1.15753e-06
2.75143e-05
7.40037e-07
2.85472e-05
4.32186e-07
2.90195e-05
1.81222e-07
2.89552e-05
-4.92617e-08
2.8331e-05
-2.88663e-07
2.70731e-05
-5.73699e-07
2.50456e-05
-9.58014e-07
2.2043e-05
-1.53612e-06
1.78101e-05
-2.47869e-06
1.21751e-05
-4.08829e-06
5.52158e-06
-6.90878e-06
9.59204e-08
-1.164e-05
-1.40841e-05
1.34822e-05
2.45772e-05
3.13549e-05
3.5599e-05
3.83231e-05
4.00947e-05
4.12522e-05
4.19923e-05
4.24245e-05
4.26057e-05
4.25564e-05
4.22678e-05
4.16941e-05
4.0736e-05
3.91999e-05
3.67212e-05
3.26329e-05
2.57242e-05
1.40841e-05
)
;

boundaryField
{
    movingWall
    {
        type            calculated;
        value           uniform 0;
    }
    fixedWalls
    {
        type            calculated;
        value           uniform 0;
    }
    frontAndBack
    {
        type            empty;
        value           nonuniform 0();
    }
}


// ************************************************************************* //
