/*--------------------------------*- C++ -*----------------------------------*\
  =========                 |
  \\      /  F ield         | OpenFOAM: The Open Source CFD Toolbox
   \\    /   O peration     | Website:  https://openfoam.org
    \\  /    A nd           | Version:  7
     \\/     M anipulation  |
\*---------------------------------------------------------------------------*/
FoamFile
{
    version     2.0;
    format      ascii;
    class       volVectorField;
    location    "0.275";
    object      U;
}
// * * * * * * * * * * * * * * * * * * * * * * * * * * * * * * * * * * * * * //

dimensions      [0 1 -1 0 0 0 0];

internalField   nonuniform List<vector> 
400
(
(0.000259603 -0.000254535 0)
(0.000149185 0.000104048 0)
(-0.00117539 0.000550999 0)
(-0.00348072 0.000867996 0)
(-0.0063759 0.001027 0)
(-0.00946727 0.00104292 0)
(-0.0124005 0.000940706 0)
(-0.0148822 0.000746659 0)
(-0.0166866 0.000485541 0)
(-0.0176552 0.00018099 0)
(-0.017699 -0.000142954 0)
(-0.016802 -0.000460355 0)
(-0.0150271 -0.000742448 0)
(-0.0125223 -0.00095763 0)
(-0.00952396 -0.00107263 0)
(-0.0063533 -0.00105544 0)
(-0.00340018 -0.000881269 0)
(-0.00108409 -0.000543165 0)
(0.000204153 -8.43057e-05 0)
(0.00027313 0.000265711 0)
(-6.72944e-05 -0.000174917 0)
(-0.00160171 0.00163824 0)
(-0.00569471 0.00360238 0)
(-0.0117196 0.00501562 0)
(-0.0188888 0.00572225 0)
(-0.0263931 0.00573923 0)
(-0.0334576 0.00515262 0)
(-0.0394119 0.0040772 0)
(-0.0437265 0.00263748 0)
(-0.0460282 0.000962863 0)
(-0.0461102 -0.00081079 0)
(-0.043943 -0.00253831 0)
(-0.0396849 -0.00406431 0)
(-0.0336897 -0.00522657 0)
(-0.0265045 -0.0058657 0)
(-0.0188504 -0.00584376 0)
(-0.0115672 -0.00507541 0)
(-0.00551499 -0.00357476 0)
(-0.00148433 -0.00155405 0)
(-3.3548e-05 0.000232526 0)
(-0.000511973 0.00108961 0)
(-0.00369362 0.00573913 0)
(-0.0105875 0.0102226 0)
(-0.0199886 0.0134031 0)
(-0.030757 0.0149411 0)
(-0.0418103 0.0148338 0)
(-0.052104 0.0132511 0)
(-0.0607249 0.0104525 0)
(-0.0669475 0.00673936 0)
(-0.0702591 0.00243754 0)
(-0.0703765 -0.00210642 0)
(-0.0672609 -0.00652379 0)
(-0.061131 -0.010426 0)
(-0.0524703 -0.0134165 0)
(-0.042023 -0.0151179 0)
(-0.0307645 -0.0152196 0)
(-0.019825 -0.0135505 0)
(-0.0103617 -0.0101765 0)
(-0.00353121 -0.0055541 0)
(-0.000460767 -0.000946529 0)
(-0.00090586 0.00347756 0)
(-0.00566732 0.0122234 0)
(-0.0152985 0.0199184 0)
(-0.0279105 0.0251902 0)
(-0.0419735 0.0275879 0)
(-0.0561628 0.0271282 0)
(-0.0692319 0.0241005 0)
(-0.080102 0.0189469 0)
(-0.0879218 0.0121906 0)
(-0.0920906 0.00440255 0)
(-0.0922744 -0.00380779 0)
(-0.0884216 -0.0117935 0)
(-0.0807782 -0.0188762 0)
(-0.0698992 -0.0243679 0)
(-0.0566495 -0.0276174 0)
(-0.0421801 -0.028091 0)
(-0.0278484 -0.0254883 0)
(-0.0150895 -0.0198873 0)
(-0.00548082 -0.0119304 0)
(-0.000839464 -0.00322254 0)
(-0.0012503 0.00687338 0)
(-0.00750532 0.0209536 0)
(-0.0198005 0.0325028 0)
(-0.035526 0.04009 0)
(-0.0527275 0.043275 0)
(-0.0698377 0.0421775 0)
(-0.0854382 0.0372636 0)
(-0.0983315 0.0292016 0)
(-0.107588 0.0187691 0)
(-0.112554 0.00680947 0)
(-0.112862 -0.00578027 0)
(-0.108439 -0.0180499 0)
(-0.0995285 -0.029002 0)
(-0.0867086 -0.0376191 0)
(-0.0709094 -0.0429283 0)
(-0.0534097 -0.044111 0)
(-0.0357726 -0.0406626 0)
(-0.0197292 -0.0325828 0)
(-0.00733896 -0.02059 0)
(-0.00117469 -0.00649336 0)
(-0.00157193 0.0112092 0)
(-0.00927982 0.0318709 0)
(-0.0242036 0.0479393 0)
(-0.0429908 0.058053 0)
(-0.0632363 0.0619159 0)
(-0.0831265 0.0598603 0)
(-0.101093 0.0526095 0)
(-0.115857 0.0411104 0)
(-0.126449 0.0264259 0)
(-0.132196 0.00968677 0)
(-0.132707 -0.00791679 0)
(-0.12788 -0.0251264 0)
(-0.117924 -0.040613 0)
(-0.103395 -0.0530014 0)
(-0.0852343 -0.0609435 0)
(-0.0648076 -0.0632549 0)
(-0.0438685 -0.0591182 0)
(-0.024469 -0.048328 0)
(-0.00921358 -0.0315525 0)
(-0.00150067 -0.010721 0)
(-0.00189682 0.0164682 0)
(-0.0110745 0.0449658 0)
(-0.0286425 0.0662142 0)
(-0.0504641 0.0790331 0)
(-0.0736586 0.0834181 0)
(-0.0961709 0.0800471 0)
(-0.116314 0.0700003 0)
(-0.132772 0.0545651 0)
(-0.144585 0.0351172 0)
(-0.151092 0.0130763 0)
(-0.151898 -0.010088 0)
(-0.146863 -0.0328266 0)
(-0.13613 -0.0534855 0)
(-0.120174 -0.0703146 0)
(-0.0998881 -0.081536 0)
(-0.0766644 -0.085499 0)
(-0.0524166 -0.0809302 0)
(-0.0295322 -0.0672516 0)
(-0.0112318 -0.0449283 0)
(-0.00185349 -0.0159405 0)
(-0.00224826 0.0226827 0)
(-0.0129685 0.0602863 0)
(-0.03324 0.0873361 0)
(-0.0580594 0.102961 0)
(-0.0840419 0.107629 0)
(-0.108914 0.102528 0)
(-0.130923 0.0892146 0)
(-0.148786 0.0693867 0)
(-0.161614 0.0447537 0)
(-0.168812 0.0170088 0)
(-0.170005 -0.0121368 0)
(-0.165011 -0.0408876 0)
(-0.153869 -0.0672988 0)
(-0.136911 -0.0892471 0)
(-0.114887 -0.104476 0)
(-0.0891282 -0.110753 0)
(-0.0616388 -0.106167 0)
(-0.0351302 -0.0895423 0)
(-0.0135202 -0.0609296 0)
(-0.00226831 -0.0222612 0)
(-0.00264992 0.0299299 0)
(-0.0150398 0.0779341 0)
(-0.0381 0.111318 0)
(-0.0658224 0.129705 0)
(-0.0942873 0.134273 0)
(-0.121053 0.126933 0)
(-0.144393 0.109867 0)
(-0.16316 0.0852536 0)
(-0.176631 0.0551458 0)
(-0.184347 0.0214729 0)
(-0.185995 -0.0138805 0)
(-0.181356 -0.0489526 0)
(-0.170327 -0.0815779 0)
(-0.153013 -0.109295 0)
(-0.129905 -0.129339 0)
(-0.102126 -0.138775 0)
(-0.0716472 -0.134828 0)
(-0.0414412 -0.115417 0)
(-0.0162049 -0.0798636 0)
(-0.00278252 -0.0298656 0)
(-0.00313392 0.0383356 0)
(-0.0173837 0.0980567 0)
(-0.0433212 0.138139 0)
(-0.0737242 0.15899 0)
(-0.104114 0.162848 0)
(-0.131981 0.152627 0)
(-0.155772 0.131303 0)
(-0.174624 0.101609 0)
(-0.188111 0.0659336 0)
(-0.196009 0.0263725 0)
(-0.198124 -0.0151218 0)
(-0.194217 -0.0565447 0)
(-0.18401 -0.0956289 0)
(-0.167292 -0.129661 0)
(-0.144139 -0.155378 0)
(-0.115267 -0.169035 0)
(-0.0823916 -0.166728 0)
(-0.0486006 -0.145053 0)
(-0.0194233 -0.102112 0)
(-0.00344362 -0.0390121 0)
(-0.00375549 0.0480952 0)
(-0.0201458 0.120848 0)
(-0.0490202 0.167689 0)
(-0.0816466 0.1903 0)
(-0.113 0.192499 0)
(-0.140692 0.178567 0)
(-0.163568 0.152473 0)
(-0.181257 0.117561 0)
(-0.193795 0.0765096 0)
(-0.201308 0.0314747 0)
(-0.203801 -0.0156721 0)
(-0.201048 -0.063055 0)
(-0.19258 -0.108483 0)
(-0.177781 -0.149146 0)
(-0.156141 -0.18137 0)
(-0.127696 -0.200538 0)
(-0.0935772 -0.201336 0)
(-0.0566857 -0.178481 0)
(-0.0233465 -0.128103 0)
(-0.00432354 -0.0500537 0)
(-0.00461945 0.0595253 0)
(-0.0235734 0.146554 0)
(-0.0553492 0.199677 0)
(-0.0893289 0.222716 0)
(-0.120064 0.221831 0)
(-0.14562 0.203141 0)
(-0.165581 0.171804 0)
(-0.180326 0.131781 0)
(-0.19054 0.0859453 0)
(-0.196822 0.036355 0)
(-0.199458 -0.0153883 0)
(-0.198286 -0.0677547 0)
(-0.192658 -0.118868 0)
(-0.181503 -0.166063 0)
(-0.163562 -0.205449 0)
(-0.137876 -0.231591 0)
(-0.104518 -0.237524 0)
(-0.0656745 -0.215408 0)
(-0.0282126 -0.158268 0)
(-0.00554432 -0.063481 0)
(-0.00592831 0.0731687 0)
(-0.0280848 0.175477 0)
(-0.0624693 0.233474 0)
(-0.0962035 0.254666 0)
(-0.123797 0.248674 0)
(-0.144347 0.223986 0)
(-0.15863 0.187078 0)
(-0.168076 0.142439 0)
(-0.174176 0.0929475 0)
(-0.178096 0.0403574 0)
(-0.180461 -0.0142205 0)
(-0.181236 -0.0698412 0)
(-0.179656 -0.125224 0)
(-0.174216 -0.178178 0)
(-0.162823 -0.224946 0)
(-0.14323 -0.259525 0)
(-0.113857 -0.273222 0)
(-0.0753283 -0.254924 0)
(-0.0343634 -0.192952 0)
(-0.00732391 -0.08001 0)
(-0.00806294 0.0899803 0)
(-0.0343389 0.207901 0)
(-0.0703753 0.267765 0)
(-0.10097 0.283525 0)
(-0.12152 0.269763 0)
(-0.13307 0.237813 0)
(-0.138141 0.195388 0)
(-0.139453 0.147219 0)
(-0.139366 0.0958937 0)
(-0.139599 0.0425995 0)
(-0.141114 -0.012258 0)
(-0.144055 -0.0685352 0)
(-0.147659 -0.12582 0)
(-0.150146 -0.182785 0)
(-0.148677 -0.236316 0)
(-0.139578 -0.2804 0)
(-0.119028 -0.304921 0)
(-0.0848837 -0.29499 0)
(-0.0422483 -0.232191 0)
(-0.0100466 -0.100729 0)
(-0.0116763 0.111597 0)
(-0.0431729 0.243799 0)
(-0.078286 0.299889 0)
(-0.100588 0.305016 0)
(-0.108318 0.280428 0)
(-0.105719 0.240371 0)
(-0.0975353 0.193278 0)
(-0.0877899 0.143546 0)
(-0.0795298 0.0930277 0)
(-0.0748206 0.0420783 0)
(-0.074841 -0.00975458 0)
(-0.0799276 -0.0632446 0)
(-0.0894942 -0.119027 0)
(-0.101809 -0.176988 0)
(-0.11369 -0.235296 0)
(-0.120288 -0.288855 0)
(-0.115241 -0.327103 0)
(-0.0922695 -0.331604 0)
(-0.0522117 -0.275167 0)
(-0.0143124 -0.127271 0)
(-0.0176161 0.140747 0)
(-0.0548915 0.281885 0)
(-0.0828517 0.324525 0)
(-0.0880786 0.31241 0)
(-0.0751189 0.274444 0)
(-0.0526221 0.226777 0)
(-0.0275033 0.177301 0)
(-0.00456944 0.129144 0)
(0.0130358 0.0829125 0)
(0.0233704 0.0379352 0)
(0.0253242 -0.0070971 0)
(0.0184301 -0.0537933 0)
(0.00290192 -0.103794 0)
(-0.0200728 -0.158361 0)
(-0.0477575 -0.217527 0)
(-0.0750499 -0.27835 0)
(-0.0936149 -0.331711 0)
(-0.0922011 -0.357447 0)
(-0.0634694 -0.318953 0)
(-0.0207144 -0.162055 0)
(-0.0260056 0.182265 0)
(-0.0664802 0.317045 0)
(-0.0735114 0.330976 0)
(-0.0481259 0.295357 0)
(-0.00565842 0.244244 0)
(0.0411292 0.192422 0)
(0.0845627 0.145086 0)
(0.120443 0.103 0)
(0.146605 0.0651514 0)
(0.161946 0.0298887 0)
(0.165834 -0.00469075 0)
(0.157821 -0.040663 0)
(0.13761 -0.0802935 0)
(0.10531 -0.125969 0)
(0.062117 -0.179766 0)
(0.0116393 -0.242026 0)
(-0.038 -0.30778 0)
(-0.0719962 -0.359671 0)
(-0.0709816 -0.355769 0)
(-0.0285828 -0.209058 0)
(-0.0317428 0.241377 0)
(-0.0630316 0.333928 0)
(-0.0219624 0.299651 0)
(0.0505847 0.240051 0)
(0.127425 0.183002 0)
(0.19685 0.13544 0)
(0.254196 0.0974417 0)
(0.298116 0.066882 0)
(0.328693 0.041372 0)
(0.346335 0.0187808 0)
(0.351239 -0.00280697 0)
(0.343156 -0.02529 0)
(0.32131 -0.0508225 0)
(0.284468 -0.0820858 0)
(0.231368 -0.122471 0)
(0.161959 -0.175654 0)
(0.0798398 -0.243233 0)
(-0.00334001 -0.318156 0)
(-0.0573586 -0.366745 0)
(-0.0309144 -0.270214 0)
(0.00230793 0.286369 0)
(0.0143153 0.294061 0)
(0.139843 0.210078 0)
(0.26489 0.143066 0)
(0.364214 0.0968724 0)
(0.440163 0.0655062 0)
(0.496577 0.0440281 0)
(0.536723 0.0287384 0)
(0.563305 0.017104 0)
(0.578167 0.00743555 0)
(0.58224 -0.00149966 0)
(0.575547 -0.0108075 0)
(0.557144 -0.0217572 0)
(0.524952 -0.0361779 0)
(0.475563 -0.0570191 0)
(0.404365 -0.0890485 0)
(0.305606 -0.139244 0)
(0.174284 -0.215451 0)
(0.0352059 -0.310938 0)
(0.0120834 -0.304779 0)
(0.293148 0.148893 0)
(0.389648 0.127925 0)
(0.557568 0.0758012 0)
(0.674741 0.0433822 0)
(0.743792 0.0252388 0)
(0.787088 0.0149517 0)
(0.815465 0.00898706 0)
(0.833941 0.00534998 0)
(0.845368 0.00292528 0)
(0.851352 0.00109788 0)
(0.852644 -0.000502033 0)
(0.849358 -0.00217159 0)
(0.840976 -0.00424134 0)
(0.826117 -0.00726108 0)
(0.80203 -0.0122939 0)
(0.763557 -0.0214611 0)
(0.699431 -0.0389174 0)
(0.58444 -0.0723433 0)
(0.409338 -0.128341 0)
(0.302176 -0.152205 0)
)
;

boundaryField
{
    movingWall
    {
        type            fixedValue;
        value           uniform (1 0 0);
    }
    fixedWalls
    {
        type            noSlip;
    }
    frontAndBack
    {
        type            empty;
    }
}


// ************************************************************************* //
