/*--------------------------------*- C++ -*----------------------------------*\
  =========                 |
  \\      /  F ield         | OpenFOAM: The Open Source CFD Toolbox
   \\    /   O peration     | Website:  https://openfoam.org
    \\  /    A nd           | Version:  7
     \\/     M anipulation  |
\*---------------------------------------------------------------------------*/
FoamFile
{
    version     2.0;
    format      ascii;
    class       volScalarField;
    location    "63.4";
    object      p;
}
// * * * * * * * * * * * * * * * * * * * * * * * * * * * * * * * * * * * * * //

dimensions      [0 2 -2 0 0 0 0];

internalField   nonuniform List<scalar> 
2000
(
0.0158116
0.0159192
0.0161419
0.0163959
0.0166426
0.0168655
0.017063
0.0172428
0.0174147
0.0176112
0.0160193
0.0161406
0.0163817
0.0166623
0.0169383
0.0171877
0.0174025
0.0175846
0.0177371
0.0178848
0.016184
0.0163344
0.0165976
0.016907
0.0172142
0.0174926
0.0177291
0.0179202
0.0180639
0.0181696
0.016302
0.0165004
0.0167886
0.0171278
0.017466
0.0177735
0.0180333
0.0182381
0.0183828
0.0184554
0.0163747
0.0166414
0.0169557
0.0173235
0.0176897
0.018023
0.0183041
0.0185241
0.0186779
0.0187281
0.0164119
0.0167586
0.0171016
0.0174945
0.0178826
0.0182346
0.018531
0.0187626
0.0189296
0.0189688
0.0164204
0.0168606
0.0172307
0.0176429
0.0180437
0.0184037
0.0187046
0.0189391
0.019116
0.019154
0.0164137
0.0169556
0.017349
0.0177719
0.0181736
0.0185277
0.0188192
0.0190439
0.0192224
0.0192659
0.0164088
0.0170527
0.0174634
0.0178862
0.0182743
0.0186061
0.0188723
0.0190749
0.0192507
0.0193107
0.0164243
0.0171622
0.0175814
0.017991
0.0183491
0.0186395
0.0188603
0.0190229
0.0191814
0.0192661
0.0183368
0.0202888
0.0229886
0.0262074
0.0293865
0.0327954
0.0354271
0.0385205
0.0394382
0.0412329
0.0184492
0.0200219
0.022342
0.0252731
0.0282131
0.0314178
0.0338737
0.0367867
0.0377591
0.0393664
0.0185439
0.0198091
0.0217256
0.0243722
0.0270879
0.030103
0.0324013
0.035174
0.0361339
0.037627
0.0186042
0.0196554
0.0211441
0.0235124
0.0260147
0.0288493
0.0310114
0.0336589
0.0345848
0.0360151
0.0186153
0.019553
0.0206016
0.0227016
0.0249981
0.0276619
0.0297064
0.0322408
0.033139
0.034529
0.0185684
0.0194759
0.0201017
0.0219439
0.0240374
0.0265354
0.0284703
0.0308975
0.0317788
0.033151
0.0184627
0.0193832
0.0196477
0.0212437
0.0231424
0.025486
0.0273244
0.0296556
0.0305258
0.0318804
0.0183009
0.019225
0.0192417
0.0205906
0.0222892
0.0244739
0.0262178
0.0284532
0.0293232
0.0306928
0.0180846
0.0189427
0.0188739
0.0200213
0.0215499
0.0235857
0.0252456
0.02738
0.0282388
0.0295984
0.017991
0.0186485
0.0184957
0.0193859
0.0207259
0.022604
0.0241962
0.0262341
0.0271382
0.0285466
0.0192448
0.0198023
0.0196889
0.0198349
0.0204543
0.0216375
0.0228531
0.0243599
0.0251749
0.026209
0.0164504
0.0172539
0.017673
0.0180527
0.0186059
0.0194455
0.0203365
0.0214027
0.0220191
0.0226856
0.0138926
0.0148664
0.0154484
0.0158699
0.016386
0.0170909
0.0177738
0.018565
0.0189758
0.0194283
0.0111004
0.0122937
0.0131433
0.0137015
0.0141777
0.0147762
0.0153256
0.015941
0.0161967
0.0165022
0.00817667
0.0094958
0.0106661
0.0114856
0.0120323
0.0125627
0.0129941
0.0134666
0.0136254
0.0138443
0.00537429
0.00672681
0.00810468
0.00914088
0.00982505
0.0103775
0.0107661
0.0111402
0.0112315
0.0113742
0.00295704
0.00423978
0.00569041
0.00685073
0.00761008
0.00814657
0.00848857
0.00879909
0.00885808
0.00895675
0.00112949
0.00219173
0.00350387
0.0046506
0.00543177
0.00594166
0.00622565
0.00645954
0.00647583
0.00652914
6.62194e-05
0.000815994
0.00181026
0.00269324
0.00328237
0.0036538
0.0038399
0.0040072
0.00398515
0.00401742
-0.000788317
-0.000228193
0.000405164
0.000928184
0.00123657
0.00139782
0.00142647
0.00149622
0.00142419
0.00141787
0.0182727
0.015499
0.0129297
0.0101574
0.00735369
0.00469967
0.00245399
0.000752213
-6.58622e-05
-0.00105806
0.0177003
0.0149051
0.012329
0.00958487
0.00685743
0.00430413
0.00217882
0.00058395
-0.000112469
-0.00107436
0.0170208
0.0143263
0.0117733
0.00907707
0.00642864
0.00397261
0.00195968
0.00046959
-0.000151458
-0.000941744
0.0163998
0.0138482
0.0113194
0.00867612
0.00610558
0.00374138
0.00182533
0.000429641
-0.00014937
-0.000782032
0.015885
0.0134628
0.0109573
0.0083663
0.00586839
0.00359345
0.00176475
0.000447408
-0.000107976
-0.000624839
0.0155075
0.0131752
0.0106908
0.00814416
0.00572122
0.0035237
0.00176914
0.000514319
-3.53677e-05
-0.000473639
0.0152811
0.0129879
0.0105242
0.00801636
0.00565733
0.00352704
0.00183322
0.000623853
6.23248e-05
-0.000331894
0.0152101
0.0128995
0.0104552
0.00797596
0.00567183
0.00359708
0.00194972
0.000768463
0.000179513
-0.000202535
0.0152799
0.0129082
0.0104783
0.00801704
0.0057576
0.00372571
0.00211008
0.000940339
0.000310744
-8.64062e-05
0.0154677
0.0130053
0.0105844
0.0081309
0.00590503
0.00390346
0.00230528
0.00113209
0.000451074
1.7163e-05
0.0157449
0.0131744
0.0107585
0.00830412
0.00610152
0.00411935
0.00252599
0.00133689
0.000596293
0.000109474
0.0160893
0.0134014
0.0109878
0.00852625
0.00633691
0.00436461
0.00276471
0.00154946
0.000743276
0.000191946
0.0164856
0.0136779
0.0112638
0.00879055
0.00660391
0.00463275
0.00301583
0.00176597
0.000889914
0.000266063
0.0169189
0.0139956
0.0115768
0.00908988
0.00689534
0.00491777
0.00327468
0.00198355
0.00103487
0.000333148
0.0173768
0.0143487
0.0119184
0.00941814
0.00720528
0.00521478
0.00353775
0.00220024
0.00117741
0.000394341
0.0178489
0.0147334
0.0122807
0.00976988
0.00752898
0.00551982
0.00380251
0.00241476
0.00131725
0.000450625
0.0183201
0.015143
0.0126554
0.0101388
0.00786208
0.00582936
0.00406704
0.00262626
0.00145443
0.000502911
0.0187819
0.0155821
0.0130453
0.0105267
0.00820661
0.00614442
0.00433221
0.00283546
0.0015897
0.000552193
0.0192801
0.0161084
0.0134883
0.01096
0.00858167
0.00647687
0.00460509
0.00304615
0.00172504
0.00059892
0.019686
0.0166435
0.0139233
0.0113863
0.00895303
0.00680031
0.00487036
0.00324945
0.00185705
0.000640058
0.0191485
0.0169719
0.0143921
0.011956
0.00954928
0.00736665
0.00538405
0.00366389
0.00213965
0.000733637
0.0190487
0.0168931
0.0144259
0.0121304
0.00981793
0.00770897
0.00574323
0.00399871
0.00239074
0.000846337
0.0195912
0.0173729
0.0148628
0.0125748
0.0102439
0.00811735
0.00610566
0.00430923
0.00262229
0.000961372
0.0204379
0.0180266
0.0154114
0.013066
0.0106818
0.00851057
0.00644093
0.00459629
0.00285068
0.001093
0.0216247
0.0189105
0.0161213
0.0136463
0.0111636
0.0089111
0.00677125
0.00488233
0.00309302
0.00124517
0.0230905
0.0200112
0.0169958
0.0143233
0.0117052
0.00933922
0.00712041
0.00517907
0.00334581
0.00139928
0.0246966
0.0212413
0.0179734
0.0150634
0.012291
0.00979348
0.00749095
0.005476
0.00356452
0.0014931
0.0262571
0.02241
0.0188968
0.0157669
0.0128602
0.0102443
0.00785721
0.00573176
0.0036882
0.00148118
0.0274714
0.0233473
0.0196409
0.0163346
0.0133241
0.0106188
0.00815455
0.00590309
0.0037072
0.00139181
0.0282327
0.0238444
0.020015
0.0166256
0.0135744
0.0108312
0.00832398
0.00598793
0.00368933
0.00131469
0.0206819
0.0206785
0.021297
0.0222476
0.0236209
0.0252707
0.0270886
0.0289073
0.0304016
0.0313622
0.0210192
0.021278
0.0220473
0.023131
0.0246449
0.0264103
0.0283286
0.0302098
0.0317432
0.0326815
0.0211429
0.0217079
0.0227255
0.0240487
0.0257787
0.0277257
0.0297893
0.0317318
0.0332497
0.0340998
0.0213495
0.0221387
0.0233587
0.0249051
0.0268351
0.0289657
0.0311949
0.0332503
0.0348152
0.0356543
0.0216419
0.0226598
0.0240522
0.0257847
0.0278796
0.0301674
0.0325504
0.0347415
0.0364078
0.0373085
0.0219633
0.0232415
0.0248281
0.0267435
0.0289941
0.0314262
0.0339468
0.0362665
0.038044
0.0390278
0.0223056
0.0238523
0.0256629
0.0277768
0.030196
0.0327809
0.0354379
0.0378751
0.0397493
0.040803
0.0226828
0.0244904
0.0265429
0.0288653
0.0314692
0.0342231
0.0370268
0.0395804
0.0415372
0.0426409
0.0231036
0.0251607
0.0274682
0.0299993
0.0327991
0.0357342
0.038697
0.0413735
0.0434089
0.04455
0.023571
0.0258607
0.0284401
0.0311744
0.0341799
0.0373029
0.0404351
0.0432432
0.0453604
0.0465349
0.024088
0.0265803
0.0294562
0.032384
0.0356084
0.0389237
0.042235
0.0451836
0.0473885
0.0485964
0.0246517
0.0273061
0.0305082
0.0336168
0.0370777
0.0405901
0.0440924
0.0471915
0.0494921
0.0507348
0.0252434
0.0280293
0.0315749
0.0348638
0.0385765
0.0422988
0.0460054
0.0492663
0.0516746
0.0529536
0.0258302
0.0287501
0.0326283
0.0361218
0.0400889
0.0440428
0.0479672
0.0514062
0.0539433
0.0552612
0.0263646
0.0294728
0.0336196
0.0374072
0.0416106
0.0458181
0.0499763
0.0536087
0.0562847
0.0576516
0.0267895
0.0302031
0.0345769
0.0386522
0.0431133
0.0475976
0.0520127
0.0558601
0.0586902
0.0601207
0.0271319
0.0308871
0.0354782
0.0398384
0.0445861
0.0493739
0.0540737
0.0581602
0.0611627
0.0626731
0.0273531
0.0314925
0.0362843
0.0409419
0.0459911
0.0511056
0.0561217
0.0604833
0.0636903
0.0653053
0.0274306
0.0320415
0.0370196
0.0419995
0.0473681
0.0528342
0.0581893
0.0628495
0.0662843
0.068031
0.0271861
0.0323426
0.037485
0.042778
0.0484659
0.0543168
0.0600803
0.0651344
0.0688863
0.0708267
0.028171
0.0346229
0.040175
0.0460934
0.052393
0.0589298
0.0653931
0.0711463
0.0754903
0.0778287
0.0345736
0.0408423
0.046733
0.053612
0.0609453
0.0686037
0.0761474
0.0828248
0.087837
0.0904946
0.0415866
0.0482698
0.0548959
0.0628691
0.0712955
0.0801402
0.0887243
0.0962058
0.101752
0.104702
0.0490383
0.0564419
0.0641752
0.0734042
0.0830623
0.0932068
0.102794
0.110992
0.116947
0.12001
0.0569312
0.0652594
0.0742741
0.0848335
0.0958134
0.107293
0.117807
0.12664
0.13289
0.136162
0.065398
0.0747172
0.0851339
0.0970371
0.109371
0.122135
0.133483
0.142841
0.149113
0.15202
0.0738634
0.0843011
0.096034
0.109165
0.122794
0.136652
0.148752
0.158508
0.16456
0.167447
0.0822336
0.0934698
0.106406
0.120717
0.135619
0.150439
0.163414
0.173668
0.179191
0.179889
0.0878429
0.100109
0.114007
0.129232
0.145115
0.160641
0.174404
0.184926
0.18954
0.191898
0.0925174
0.105078
0.11964
0.135588
0.15232
0.168704
0.184032
0.197051
0.203928
0.189118
0.0261148
0.0321903
0.0382991
0.0452183
0.0523162
0.0603571
0.0680296
0.0762926
0.081157
0.0858097
0.0255402
0.0318648
0.0378546
0.0445939
0.0514231
0.0592191
0.0665086
0.0745036
0.0788117
0.0833553
0.0253605
0.0319709
0.0380597
0.0447
0.051403
0.0589598
0.0658824
0.0733784
0.0770977
0.0812997
0.0250613
0.0317807
0.0378812
0.0444482
0.0510539
0.0584198
0.0650449
0.0721428
0.0755422
0.0793637
0.0247065
0.0314157
0.0374338
0.0439321
0.0503946
0.0575486
0.0639089
0.0707112
0.0739813
0.0775021
0.0243507
0.0310259
0.0369791
0.0433714
0.049719
0.0566265
0.0627455
0.0692688
0.0724783
0.0757726
0.0239896
0.0306329
0.0365692
0.0428574
0.049122
0.0558078
0.0617455
0.0679592
0.0711506
0.0742363
0.0236245
0.0302357
0.0361824
0.0423997
0.0485975
0.0551044
0.0609402
0.0668119
0.0700707
0.0729162
0.0232676
0.0298496
0.0358167
0.0419928
0.0481355
0.054519
0.060274
0.065886
0.0691929
0.0718107
0.0229355
0.0294926
0.0354874
0.0416446
0.0477471
0.0540511
0.0597329
0.0651762
0.0684844
0.0709392
0.0226441
0.0291773
0.0352092
0.0413676
0.0474495
0.053705
0.0593315
0.0646631
0.0679523
0.0703057
0.0223892
0.0288985
0.0349831
0.0411638
0.0472492
0.0534849
0.0590843
0.0643384
0.0676123
0.0699033
0.0221522
0.0286432
0.034802
0.0410282
0.0471446
0.0533935
0.0589978
0.0642041
0.0674752
0.0697246
0.0219216
0.0284097
0.0346633
0.0409584
0.0471336
0.053431
0.0590708
0.064261
0.0675395
0.0697632
0.0216847
0.0281994
0.0345648
0.0409515
0.0472151
0.0535969
0.0593031
0.064511
0.0678049
0.0700185
0.021418
0.0280094
0.0344967
0.0409991
0.0473824
0.0538808
0.0596852
0.0649435
0.0682561
0.0704887
0.0210902
0.0278334
0.0344472
0.0410943
0.0476335
0.0542834
0.060225
0.0655635
0.0689004
0.0711807
0.0206619
0.0276469
0.0343855
0.0412054
0.0479314
0.0547636
0.0608844
0.0663357
0.0696989
0.0720945
0.0201236
0.0274701
0.0343409
0.0413659
0.0483175
0.055368
0.0617084
0.0672965
0.0706948
0.0732444
0.019256
0.0270523
0.0340809
0.041332
0.0485315
0.0558387
0.0624772
0.068293
0.0717665
0.0746169
0.0203429
0.0283692
0.0354854
0.0430468
0.0507103
0.0584173
0.0655424
0.0716797
0.0753951
0.0785349
0.0260349
0.033802
0.0409777
0.0491703
0.0575992
0.0661905
0.0742489
0.0810869
0.0854777
0.0882983
0.0325896
0.0406918
0.048502
0.0576898
0.0671707
0.0770098
0.08627
0.0940866
0.0992185
0.101989
0.0394228
0.0482223
0.0571754
0.0677717
0.078772
0.0904071
0.101348
0.110707
0.117098
0.120476
0.0463822
0.0561541
0.0665814
0.0788603
0.0917868
0.105716
0.118929
0.130732
0.139438
0.144553
0.0535139
0.064432
0.0766149
0.0907495
0.10597
0.122616
0.138852
0.154419
0.167574
0.176971
0.0600241
0.0723526
0.0862478
0.102283
0.120039
0.139663
0.159941
0.181225
0.201988
0.220917
0.0664883
0.0799151
0.0954519
0.113446
0.133831
0.156762
0.182264
0.211806
0.245905
0.284957
0.0694891
0.0836923
0.100306
0.119716
0.142496
0.169295
0.201803
0.243167
0.299182
0.374495
0.0726781
0.088545
0.106684
0.128206
0.154377
0.186624
0.228121
0.285214
0.372517
0.497176
0.0187846
0.0239387
0.0293125
0.0352474
0.0410662
0.0476827
0.0530688
0.0593152
0.0619418
0.0639323
0.018289
0.0234288
0.0286531
0.0342902
0.0397149
0.0460318
0.0509511
0.0569932
0.0592789
0.0615907
0.0181517
0.023283
0.0284542
0.0339115
0.0391033
0.0450731
0.0496045
0.0552245
0.0570851
0.0601998
0.0180541
0.0229741
0.027951
0.033209
0.0381754
0.043823
0.0480355
0.0532553
0.0547789
0.0582676
0.0179938
0.0225632
0.0272308
0.0322607
0.0369298
0.0422341
0.0461339
0.0510193
0.0522669
0.0556573
0.0179797
0.0221446
0.0264914
0.0312398
0.0356231
0.0405503
0.0441278
0.0487131
0.0497058
0.052778
0.0180002
0.0217358
0.0257754
0.0301923
0.0343669
0.0389109
0.042194
0.0464968
0.0472612
0.0500138
0.0180497
0.0213365
0.0250656
0.0291644
0.0331077
0.0373191
0.0403886
0.0443999
0.0450133
0.0475238
0.0181259
0.0209549
0.0243579
0.0281577
0.0318471
0.0357519
0.0386937
0.0423713
0.0429813
0.0452862
0.0182243
0.0206022
0.0236622
0.0271702
0.0306015
0.0342393
0.0370417
0.0403879
0.0411576
0.0432093
0.0164814
0.0172955
0.0177123
0.018094
0.0184044
0.0186327
0.0187834
0.0188676
0.0189102
0.0188548
0.0166083
0.0174675
0.0178671
0.0182054
0.018452
0.0186024
0.018667
0.0186607
0.0186086
0.0184723
0.0168216
0.0176887
0.0180566
0.0183373
0.0185075
0.018569
0.0185389
0.0184368
0.0182973
0.018092
0.0171389
0.0179713
0.0182934
0.0185046
0.018589
0.0185556
0.0184274
0.018229
0.0180016
0.01772
0.0175758
0.0183277
0.0185907
0.0187226
0.0187156
0.0185855
0.0183604
0.018069
0.0177548
0.017391
0.0181431
0.0187683
0.01896
0.0190053
0.0189044
0.018679
0.0183614
0.0179827
0.0175851
0.0171403
0.018845
0.0192999
0.0194099
0.019363
0.0191674
0.0188502
0.0184458
0.0179867
0.0175112
0.0169935
0.0196785
0.0199248
0.0199436
0.0198001
0.0195102
0.0191051
0.0186202
0.0180879
0.0175408
0.0169542
0.0206314
0.020638
0.0205574
0.0203136
0.0199302
0.0194413
0.0188823
0.018284
0.0176723
0.0170223
0.021673
0.0214222
0.0212383
0.0208923
0.0204169
0.0198487
0.0192216
0.018564
0.0178952
0.0171975
0.0227486
0.0222494
0.021964
0.0215174
0.0209534
0.0203108
0.0196217
0.0189112
0.0181939
0.0174611
0.0238738
0.0231113
0.0227174
0.0221685
0.0215183
0.0208063
0.0200617
0.0193055
0.018549
0.0177923
0.0249958
0.0239696
0.0234667
0.022818
0.0220868
0.0213123
0.0205197
0.0197258
0.0189401
0.0181704
0.0260625
0.0247856
0.0241786
0.0234367
0.0226328
0.0218046
0.0209731
0.0201506
0.0193465
0.0185756
0.0270266
0.0255212
0.0248198
0.0239956
0.0231303
0.0222599
0.0214005
0.0205599
0.0197488
0.0189893
0.0278426
0.0261392
0.0253584
0.0244674
0.0235558
0.0226572
0.0217826
0.0209355
0.0201297
0.0193951
0.0284689
0.0266053
0.0257658
0.0248286
0.0238892
0.0229788
0.0221037
0.021263
0.0204739
0.0197765
0.0288707
0.026891
0.0260188
0.0250602
0.024115
0.0232118
0.0223527
0.0215319
0.0207677
0.0201137
0.0290216
0.0269744
0.0261003
0.0251497
0.0242235
0.0233482
0.0225223
0.0217322
0.0209905
0.0203797
0.0289051
0.026842
0.0260003
0.0250906
0.0242117
0.0233876
0.0226128
0.0218618
0.0211379
0.0205743
0.0285138
0.0264882
0.0257151
0.0248818
0.0240827
0.0233426
0.0226601
0.0220192
0.0214445
0.0210918
0.0278425
0.0259123
0.0252453
0.0245234
0.0238336
0.0232006
0.0226259
0.0221007
0.0216455
0.0213639
0.0269084
0.0251269
0.0245998
0.0240205
0.0234649
0.0229567
0.0224995
0.0220889
0.0217363
0.0214959
0.0257374
0.0241519
0.0237932
0.0233839
0.0229851
0.0226195
0.0222936
0.0220076
0.0217675
0.0216014
0.0243634
0.0230133
0.0228461
0.0226299
0.0224083
0.0222026
0.0220231
0.0218738
0.0217584
0.0216932
0.0228272
0.0217431
0.0217837
0.021779
0.0217519
0.0217217
0.021702
0.0217008
0.0217205
0.0217712
0.0211743
0.0203769
0.0206345
0.0208544
0.0210355
0.0211936
0.0213452
0.0215019
0.0216668
0.0218461
0.0194523
0.0189519
0.0194286
0.0198802
0.0202789
0.0206349
0.0209669
0.0212899
0.0216089
0.0219289
0.0177083
0.0175044
0.0181954
0.0188797
0.0195009
0.0200611
0.02058
0.0210755
0.0215555
0.0220268
0.0160013
0.0160735
0.0169645
0.0178753
0.0187186
0.0194854
0.0201948
0.0208666
0.021512
0.0221427
0.0144118
0.0147111
0.0157714
0.0168919
0.0179496
0.0189203
0.01982
0.0206689
0.0214812
0.0222766
0.0128773
0.0134056
0.014622
0.0159388
0.0172022
0.0183718
0.0194591
0.0204836
0.0214605
0.0224219
0.0114452
0.0121883
0.0135349
0.0150305
0.0164859
0.0178452
0.019114
0.0203095
0.0214445
0.0225648
0.0101497
0.0110814
0.0125296
0.0141772
0.015807
0.0173431
0.0187838
0.0201433
0.0214278
0.0226843
0.00900518
0.0100955
0.0116182
0.0133886
0.0151693
0.0168663
0.0184661
0.0199798
0.0214101
0.022756
0.00801935
0.00923817
0.0108068
0.0126692
0.0145757
0.0164144
0.0181591
0.0198112
0.0213621
0.0228527
0.00719516
0.00851307
0.0100994
0.012022
0.014027
0.0159863
0.0178605
0.0196408
0.0213015
0.0228884
0.00653081
0.00791976
0.00949743
0.0114484
0.0135228
0.0155797
0.0175667
0.0194651
0.0212255
0.0228724
0.00602059
0.00745454
0.00900006
0.0109486
0.0130622
0.0151922
0.0172748
0.0192853
0.0211529
0.0228453
0.00565644
0.0071116
0.00860452
0.0105211
0.012643
0.0148192
0.0169756
0.0190863
0.0210882
0.0228658
0.00542593
0.00688199
0.00830536
0.0101628
0.012262
0.0144569
0.016667
0.0188774
0.0211328
0.023326
0.00530118
0.00674964
0.00809434
0.0098703
0.0119153
0.0140916
0.0163092
0.0185295
0.0207894
0.0229779
0.00528385
0.00671153
0.00796858
0.00964303
0.0116039
0.0137242
0.015907
0.0180911
0.020289
0.0224151
0.00536523
0.00675927
0.00792291
0.00948111
0.0113346
0.0133716
0.0154955
0.0176367
0.019792
0.0218739
0.00553201
0.00688223
0.00795091
0.00938432
0.0111145
0.013049
0.0150974
0.0171876
0.0193042
0.021353
0.00577126
0.00707009
0.00804567
0.00935112
0.010948
0.0127658
0.0147238
0.0167498
0.0188186
0.0208364
0.00607102
0.00731301
0.00819983
0.00937849
0.010837
0.0125279
0.0143831
0.0163329
0.018344
0.0203277
0.00641997
0.00760134
0.00840547
0.00946207
0.0107816
0.0123396
0.0140829
0.0159466
0.0178914
0.0198359
0.00680789
0.00792576
0.00865421
0.0095961
0.01078
0.0122029
0.013828
0.0155979
0.0174689
0.0193692
0.00722945
0.00828124
0.00894033
0.00977574
0.0108295
0.012118
0.0136212
0.0152911
0.0170819
0.0189338
0.00768513
0.00866999
0.00926535
0.0100022
0.010932
0.0120879
0.0134666
0.0150311
0.0167353
0.018534
0.00814447
0.00906545
0.00960592
0.010256
0.0110728
0.012103
0.0133589
0.0148155
0.0164278
0.0181663
0.00860829
0.00946836
0.00996079
0.0105345
0.0112487
0.0121603
0.0132959
0.0146428
0.0161573
0.0178249
0.00907497
0.00987667
0.0103267
0.0108332
0.0114549
0.0122559
0.0132746
0.0145106
0.0159213
0.0175055
0.00954092
0.0102866
0.0106991
0.0111468
0.0116861
0.0123849
0.0132915
0.0144163
0.0157174
0.0172033
0.0100032
0.010695
0.0110741
0.0114708
0.0119373
0.0125431
0.0133433
0.0143582
0.0155439
0.0169132
0.01046
0.0110999
0.0114492
0.0118017
0.0122046
0.0127266
0.0134277
0.0143358
0.0154019
0.016633
0.0109099
0.0114999
0.0118223
0.0121367
0.0124845
0.0129323
0.013543
0.0143511
0.0152989
0.0163685
0.0113524
0.0118941
0.0121924
0.0124741
0.0127749
0.013158
0.0136877
0.0144055
0.0152467
0.0161396
0.0117871
0.0122821
0.0125589
0.0128133
0.0130752
0.0134044
0.0138643
0.0145048
0.0152757
0.016025
0.0122143
0.0126638
0.0129216
0.0131536
0.0133852
0.0136742
0.0140884
0.0147055
0.0156184
0.0167949
0.0126362
0.0130389
0.0132796
0.0134942
0.0137021
0.013957
0.0143233
0.0148734
0.0157047
0.0167765
0.0130509
0.0134071
0.0136332
0.0138345
0.0140241
0.0142481
0.0145641
0.0150333
0.015733
0.0166352
0.0134572
0.0137677
0.0139816
0.014174
0.0143509
0.0145505
0.0148234
0.0152245
0.0158183
0.0165824
0.0138535
0.0141195
0.0143239
0.0145116
0.0146818
0.0148646
0.0151033
0.0154473
0.0159511
0.0165999
0.0142374
0.0144609
0.0146585
0.0148459
0.0150153
0.0151884
0.0154011
0.015696
0.016119
0.016668
0.0146056
0.0147898
0.0149838
0.0151751
0.0153493
0.0155195
0.015714
0.0159685
0.0163207
0.0167817
0.014954
0.0151035
0.0152975
0.0154972
0.0156816
0.0158556
0.0160397
0.0162625
0.0165544
0.0169376
0.0152776
0.0153989
0.0155971
0.0158096
0.0160095
0.0161939
0.0163752
0.0165752
0.0168171
0.0171311
0.0155675
0.0156727
0.0158797
0.0161099
0.0163306
0.0165313
0.0167173
0.016903
0.0171051
0.0173572
)
;

boundaryField
{
    inlet
    {
        type            zeroGradient;
    }
    outlet
    {
        type            fixedValue;
        value           uniform 0;
    }
    cylinder
    {
        type            zeroGradient;
    }
    top
    {
        type            symmetryPlane;
    }
    bottom
    {
        type            symmetryPlane;
    }
    defaultFaces
    {
        type            empty;
    }
}


// ************************************************************************* //
