/*--------------------------------*- C++ -*----------------------------------*\
  =========                 |
  \\      /  F ield         | OpenFOAM: The Open Source CFD Toolbox
   \\    /   O peration     | Website:  https://openfoam.org
    \\  /    A nd           | Version:  7
     \\/     M anipulation  |
\*---------------------------------------------------------------------------*/
FoamFile
{
    version     2.0;
    format      ascii;
    class       volScalarField;
    location    "58";
    object      p;
}
// * * * * * * * * * * * * * * * * * * * * * * * * * * * * * * * * * * * * * //

dimensions      [0 2 -2 0 0 0 0];

internalField   nonuniform List<scalar> 
2000
(
0.0233268
0.0233632
0.0235585
0.0237853
0.0240151
0.0242395
0.0244647
0.0247035
0.0249662
0.0252958
0.0236436
0.0236811
0.0239002
0.0241633
0.0244344
0.0246949
0.0249428
0.0251828
0.0254158
0.025678
0.0239037
0.0239625
0.024212
0.0245169
0.0248362
0.0251398
0.02542
0.025674
0.0258945
0.0261005
0.0240991
0.0242035
0.0244895
0.0248412
0.0252086
0.02556
0.0258787
0.0261576
0.0263832
0.0265474
0.0242276
0.0244029
0.0247295
0.0251282
0.0255431
0.0259411
0.0263008
0.0266092
0.0268558
0.0269968
0.0242918
0.024563
0.0249318
0.0253736
0.0258304
0.0262676
0.0266616
0.027
0.0272779
0.027417
0.0242996
0.0246885
0.0250983
0.0255765
0.026064
0.0265272
0.0269431
0.0273013
0.0276093
0.0277651
0.0242661
0.0247859
0.0252337
0.0257375
0.0262401
0.0267105
0.0271294
0.0274896
0.0278155
0.0279999
0.0242084
0.0248657
0.0253443
0.0258593
0.0263568
0.0268107
0.0272082
0.0275495
0.0278818
0.0281089
0.0241476
0.0249389
0.0254376
0.025946
0.0264145
0.0268223
0.0271644
0.027451
0.0277514
0.028013
0.0265089
0.0293414
0.0328476
0.0367244
0.0404343
0.044294
0.047301
0.0507245
0.0519011
0.0538235
0.0267043
0.0290473
0.0321288
0.0356798
0.0391216
0.0427508
0.045553
0.0487761
0.0499836
0.051718
0.0269002
0.0288325
0.0314516
0.0346748
0.037864
0.0412781
0.043896
0.04696
0.0481281
0.0497463
0.0270706
0.0287082
0.0308209
0.033718
0.0366656
0.0398732
0.0423299
0.0452493
0.0463609
0.0479099
0.0271899
0.0286695
0.0302407
0.0328189
0.0355315
0.0385421
0.0408579
0.043645
0.0447099
0.0462086
0.0272382
0.028684
0.0297144
0.0319823
0.0344592
0.0372767
0.0394604
0.0421222
0.0431547
0.0446249
0.0272073
0.0286912
0.0292479
0.031215
0.033461
0.0360968
0.0381623
0.0407101
0.0417161
0.0431558
0.0270876
0.0286174
0.0288445
0.0304995
0.0325049
0.0349541
0.0369051
0.0393414
0.0403351
0.0417765
0.0268813
0.0283807
0.028501
0.0298863
0.0316767
0.033946
0.0357919
0.0381089
0.0390763
0.0404912
0.0268111
0.0280646
0.0281136
0.0291849
0.0307494
0.0328339
0.0345959
0.0368038
0.0378087
0.0392524
0.0281143
0.0292208
0.0293339
0.029551
0.030279
0.031587
0.0329247
0.0345321
0.0354177
0.0364392
0.0244337
0.0259418
0.0268459
0.027429
0.0280672
0.0289413
0.029856
0.0309255
0.0315485
0.0321612
0.0205582
0.0223162
0.0235497
0.0243941
0.025114
0.0259132
0.0266119
0.0273637
0.0277506
0.0281293
0.0162672
0.0182313
0.0198609
0.0210448
0.0218786
0.0226673
0.0232942
0.023883
0.0241047
0.0243478
0.0117909
0.0137966
0.015777
0.0173613
0.0184496
0.0192971
0.0199094
0.0204225
0.0205567
0.0207083
0.00755053
0.00949823
0.0116528
0.0134973
0.0148207
0.0157898
0.0164399
0.0169276
0.0170506
0.0171585
0.00396149
0.00569798
0.00779713
0.00974404
0.0112061
0.012246
0.012893
0.0133275
0.0134314
0.0135246
0.00135451
0.00273369
0.00449574
0.00625135
0.00767763
0.00871628
0.00933512
0.00970434
0.00975657
0.00980352
-0.000142662
0.000795587
0.00205969
0.00335781
0.00444607
0.00523945
0.00567896
0.00594227
0.00593919
0.00595821
-0.000984419
-0.00046817
0.000196957
0.000898848
0.00148199
0.00189523
0.00205932
0.0021733
0.00209703
0.00208288
0.0263993
0.0226733
0.0189009
0.0147764
0.0105706
0.00661179
0.00329897
0.000900636
-0.000295999
-0.00121241
0.0255445
0.021725
0.017953
0.0138932
0.00982353
0.00603553
0.00291191
0.000676456
-0.000356545
-0.00123127
0.0245315
0.020816
0.0170923
0.0131183
0.00918297
0.00555388
0.00260078
0.000513096
-0.000391303
-0.00112884
0.0235724
0.0200337
0.0163665
0.0124863
0.00868659
0.00520612
0.00240414
0.000447333
-0.000388296
-0.000980298
0.0227417
0.019375
0.0157667
0.011978
0.00831253
0.00496572
0.00230335
0.000456536
-0.00033705
-0.000813838
0.0220856
0.0188495
0.0152998
0.0115941
0.00805203
0.00483699
0.00228932
0.000530636
-0.00024395
-0.000645839
0.0216248
0.0184616
0.0149625
0.0113413
0.00791
0.00480645
0.00235588
0.000662903
-0.000115651
-0.000481409
0.0213592
0.0182059
0.0147639
0.0112099
0.0078764
0.0048673
0.00249448
0.000844815
4.13045e-05
-0.000324078
0.0212848
0.0180849
0.0146917
0.0111918
0.00794188
0.00500999
0.00269472
0.00106694
0.000220029
-0.000176741
0.0213692
0.0180885
0.0147355
0.0112756
0.00809402
0.00522216
0.00294504
0.00131969
0.000413767
-4.07727e-05
0.021577
0.0181942
0.0148747
0.0114425
0.00831528
0.00548867
0.00323272
0.00159359
0.000616339
8.36539e-05
0.0218818
0.0183836
0.0150927
0.0116782
0.00859168
0.00579734
0.00354726
0.00188082
0.000822785
0.000197021
0.0222664
0.018646
0.0153785
0.0119738
0.00891337
0.00613908
0.00388048
0.00217531
0.00102945
0.000300232
0.0227131
0.0189702
0.0157194
0.0123192
0.0092702
0.00650512
0.00422528
0.00247226
0.00123382
0.000394382
0.0232068
0.019348
0.0161039
0.0127058
0.00965359
0.00688811
0.00457611
0.00276816
0.00143436
0.000480608
0.0237341
0.0197734
0.0165211
0.0131258
0.0100565
0.00728198
0.00492883
0.0030606
0.00163033
0.000560014
0.0242748
0.0202362
0.016959
0.0135701
0.0104724
0.00768143
0.00528034
0.00334799
0.00182159
0.00063371
0.0248189
0.0207431
0.0174225
0.0140417
0.0109041
0.00808757
0.00563145
0.00363093
0.00200901
0.00070297
0.0254327
0.0213726
0.0179635
0.0145773
0.0113777
0.00851631
0.00599126
0.00391417
0.00219524
0.000768357
0.0259369
0.0220133
0.0184896
0.0151026
0.0118444
0.00893182
0.00633949
0.00418658
0.00237647
0.000825607
0.0252014
0.0223275
0.0189762
0.0157568
0.0125638
0.00964921
0.00701302
0.00474532
0.00276454
0.000954322
0.0248354
0.0219967
0.018806
0.0157999
0.0127813
0.0100137
0.00744725
0.00517846
0.00310267
0.00110798
0.0253122
0.0224267
0.0192188
0.0162514
0.0132409
0.0104808
0.00788401
0.00556975
0.003403
0.00125866
0.026129
0.0230519
0.0197573
0.0167538
0.0137115
0.0109247
0.00827992
0.00592138
0.0036903
0.00142613
0.0273588
0.0239628
0.0204935
0.0173646
0.0142309
0.0113699
0.00866012
0.00626321
0.00398817
0.00161592
0.0289251
0.0251388
0.0214296
0.0180917
0.014819
0.0118437
0.00905739
0.00661186
0.00429378
0.00180727
0.0306707
0.0264877
0.0224966
0.018897
0.0154605
0.0123487
0.00947927
0.00695818
0.00455399
0.00192037
0.0324102
0.0277524
0.0234945
0.0196673
0.0160957
0.0128616
0.00990192
0.00725249
0.00468928
0.00189514
0.0337351
0.0288356
0.0243575
0.0203194
0.0166287
0.0132943
0.0102445
0.00743921
0.00468547
0.00176461
0.0346695
0.0293723
0.0247452
0.020631
0.0169075
0.0135394
0.0104414
0.00753161
0.00465056
0.00166059
0.0271402
0.0269171
0.0274592
0.0283482
0.0297756
0.0315435
0.0335185
0.0355872
0.0371921
0.0384241
0.0275644
0.0276635
0.0283769
0.0294079
0.0309996
0.0329006
0.0349977
0.0371271
0.0388
0.0399554
0.0277234
0.0281643
0.029166
0.0304864
0.0323447
0.034465
0.0367451
0.0389278
0.040617
0.0415821
0.0280052
0.0286809
0.0299061
0.0314977
0.0336005
0.0359403
0.0384214
0.0407276
0.0424885
0.0433972
0.0283962
0.0293223
0.0307343
0.0325459
0.0348423
0.0373647
0.0400262
0.0424899
0.0443747
0.045354
0.0288171
0.0300388
0.0316681
0.0336926
0.0361656
0.0388507
0.0416694
0.0442838
0.0463011
0.047393
0.0292601
0.0307864
0.0326711
0.0349273
0.0375904
0.0404472
0.0434203
0.046171
0.0483036
0.0494915
0.029745
0.0315642
0.0337248
0.0362246
0.0390968
0.0421453
0.0452856
0.0481702
0.0504009
0.0516547
0.0302826
0.0323799
0.0348307
0.037573
0.0406669
0.0439227
0.0472459
0.0502718
0.052595
0.0538951
0.0308752
0.0332306
0.0359913
0.0389679
0.0422939
0.0457652
0.0492837
0.0524614
0.0548808
0.0562202
0.031525
0.0341035
0.037204
0.0404018
0.0439746
0.0476659
0.0513914
0.0547306
0.057254
0.0586322
0.0322298
0.0349814
0.0384591
0.0418615
0.0457013
0.0496176
0.0535637
0.0570753
0.0597127
0.061131
0.032969
0.0358533
0.0397324
0.0433358
0.0474612
0.0516173
0.0557989
0.0594964
0.0622603
0.0637207
0.0337057
0.0367186
0.040991
0.0448189
0.0492369
0.0536574
0.0580887
0.0619952
0.0649033
0.0664108
0.0343918
0.0375839
0.042185
0.0463201
0.0510266
0.0557347
0.0604334
0.0645643
0.06763
0.0691954
0.0349476
0.0384762
0.0433355
0.047788
0.0527938
0.0578153
0.0628082
0.0671866
0.0704297
0.072069
0.0353904
0.0393268
0.0444161
0.049197
0.0545246
0.0598913
0.065211
0.0698639
0.0733058
0.0750375
0.0356972
0.0400846
0.0453813
0.0505071
0.0561707
0.061911
0.0675941
0.0725642
0.0762431
0.0780961
0.03585
0.0407748
0.0462655
0.0517621
0.0577822
0.0639241
0.0699958
0.075311
0.0792545
0.0812617
0.0356444
0.0411711
0.0468289
0.0526817
0.0590586
0.0656407
0.0721812
0.0779551
0.082271
0.0845076
0.0368689
0.0438448
0.0498966
0.0564486
0.0635088
0.0708949
0.0782677
0.0848849
0.0899169
0.0926363
0.0440834
0.0508948
0.0573662
0.0650384
0.0732996
0.0820046
0.0906677
0.0984068
0.104262
0.107377
0.0520034
0.0593014
0.0666396
0.075595
0.0851487
0.0952749
0.105201
0.113934
0.120461
0.123945
0.0603823
0.0685254
0.0771576
0.0875795
0.0985973
0.110303
0.121468
0.131116
0.138186
0.141842
0.0692101
0.0784555
0.0885969
0.10058
0.113185
0.126525
0.138851
0.149338
0.156827
0.160768
0.0786712
0.0890986
0.100891
0.114466
0.128713
0.143623
0.157009
0.168219
0.175829
0.179434
0.088198
0.0999266
0.113274
0.12833
0.144162
0.160414
0.174762
0.186518
0.193971
0.197618
0.0976067
0.110337
0.125098
0.141561
0.158916
0.176318
0.191752
0.204121
0.211049
0.212534
0.104167
0.118001
0.133862
0.151403
0.169915
0.188171
0.204623
0.217387
0.223502
0.226411
0.109274
0.123481
0.140099
0.158457
0.177884
0.197064
0.215152
0.230565
0.239252
0.22524
0.0347434
0.041474
0.0484314
0.0561646
0.0641217
0.0730717
0.0817341
0.0909205
0.0967246
0.101794
0.0341819
0.0412517
0.0480062
0.0555274
0.0631878
0.0718611
0.0801097
0.0889791
0.0941722
0.0990962
0.0340849
0.0415475
0.0483057
0.0557582
0.0632808
0.0716954
0.0795477
0.0878631
0.092363
0.0968918
0.0338558
0.0414337
0.048199
0.0555804
0.0629932
0.0712055
0.0787309
0.0866066
0.0907062
0.0948238
0.0335647
0.0410932
0.0478271
0.0550771
0.0623333
0.0703201
0.0775436
0.0850932
0.089015
0.0928232
0.0332722
0.0407419
0.0474214
0.0545623
0.061645
0.0693718
0.0763036
0.083555
0.0873746
0.0909596
0.0329713
0.0404049
0.0470581
0.0540975
0.0610791
0.0685523
0.0752415
0.0821852
0.0859254
0.0893155
0.032662
0.04007
0.0467286
0.0536879
0.060605
0.0678737
0.0744215
0.0810313
0.0847494
0.0879275
0.0323586
0.0397491
0.0464298
0.0533386
0.0602
0.06733
0.0737839
0.0801058
0.0838448
0.0867909
0.0320801
0.0394621
0.0461753
0.0530609
0.0598775
0.0669183
0.073293
0.079413
0.0831605
0.0859198
0.0318448
0.0392232
0.0459797
0.0528664
0.059658
0.0666431
0.0729571
0.0789443
0.0826812
0.0853173
0.0316472
0.0390249
0.0458422
0.0527544
0.0595479
0.0665096
0.0727919
0.0786928
0.0824155
0.0849754
0.0314646
0.0388489
0.0457525
0.0527171
0.0595434
0.06652
0.0728054
0.078658
0.082376
0.084886
0.0312847
0.0386912
0.045707
0.0527498
0.0596411
0.0666732
0.0729956
0.0788377
0.082563
0.0850417
0.0310933
0.0385542
0.0457026
0.0528491
0.0598399
0.0669676
0.0733623
0.0792329
0.0829775
0.0854401
0.0308645
0.0384345
0.0457274
0.0530045
0.0601311
0.0673894
0.0738934
0.0798294
0.0836027
0.0860772
0.0305641
0.0383261
0.0457685
0.0532093
0.0605127
0.0679409
0.0745993
0.0806323
0.0844466
0.0869566
0.0301411
0.0381964
0.0457868
0.0534232
0.0609384
0.0685709
0.0754323
0.0815987
0.0854694
0.0880758
0.0296045
0.0380811
0.0458225
0.0536886
0.0614575
0.0693333
0.0764424
0.0827666
0.0867135
0.0894456
0.028657
0.0376685
0.0455947
0.0537142
0.0617628
0.0699262
0.0773736
0.0839602
0.088055
0.091054
0.0296482
0.0390474
0.0471513
0.0556591
0.0642512
0.0728843
0.0809158
0.0878808
0.0923612
0.0956018
0.0366253
0.0454909
0.0535249
0.0627058
0.0721368
0.0817665
0.090875
0.0986768
0.10386
0.10695
0.0442628
0.0534104
0.0621322
0.0724095
0.0829933
0.0940343
0.104519
0.113474
0.119452
0.122611
0.0519875
0.0618704
0.0719022
0.0837504
0.0960302
0.109117
0.12151
0.132242
0.139601
0.143389
0.0597149
0.0707026
0.0824207
0.0961353
0.11059
0.126284
0.141232
0.154702
0.164569
0.170038
0.0675901
0.0798888
0.093589
0.109373
0.126441
0.145191
0.16349
0.181056
0.195534
0.205185
0.0749187
0.0887779
0.104389
0.122336
0.142275
0.164306
0.187003
0.210603
0.232823
0.251791
0.0821234
0.097247
0.114703
0.134871
0.157723
0.183343
0.211701
0.243732
0.279104
0.31777
0.0857552
0.101824
0.120561
0.142361
0.167827
0.197506
0.232987
0.276802
0.333817
0.407806
0.0891163
0.106979
0.127278
0.151195
0.180008
0.215033
0.259267
0.318462
0.406299
0.528915
0.0274605
0.0338162
0.0400987
0.0469588
0.0535599
0.0609284
0.0670344
0.07398
0.0771839
0.0791906
0.02681
0.0331589
0.0393096
0.0458249
0.0520049
0.0590639
0.0646607
0.0713895
0.0742003
0.0765879
0.0266051
0.0330024
0.0391356
0.0454385
0.0513489
0.0580321
0.0632013
0.0694785
0.0718036
0.0751442
0.0264133
0.0326264
0.0385711
0.0446665
0.0503298
0.0566639
0.0614777
0.0673185
0.069262
0.0730716
0.026259
0.0321083
0.0377257
0.0435819
0.0489263
0.0548879
0.0593521
0.0648181
0.0664463
0.0701762
0.0261689
0.0315817
0.0368564
0.0424096
0.047444
0.0529909
0.0570939
0.0622134
0.0635444
0.0669264
0.0261321
0.0310741
0.0360241
0.0412154
0.0460224
0.0511453
0.0549156
0.0597067
0.0607641
0.0637821
0.0261469
0.0305841
0.0352063
0.0400508
0.0446046
0.0493586
0.0528852
0.0573419
0.05821
0.0609457
0.0262166
0.030122
0.0343959
0.0389149
0.0431899
0.0476048
0.0509785
0.0550595
0.0559089
0.0584027
0.02634
0.029703
0.0336052
0.0378041
0.0417945
0.0459114
0.0491184
0.0528231
0.0538558
0.0560506
0.0241079
0.0250179
0.025523
0.0260049
0.0264191
0.0267493
0.026995
0.0271609
0.0272603
0.0271875
0.0241207
0.0251188
0.0256125
0.0260474
0.026385
0.026615
0.0267438
0.0267802
0.0267448
0.0265779
0.0242085
0.0252547
0.0257191
0.0260888
0.0263324
0.0264479
0.0264499
0.0263552
0.026201
0.0259548
0.0243951
0.0254411
0.0258589
0.0261483
0.0262867
0.0262807
0.0261535
0.0259297
0.0256574
0.0253122
0.0247025
0.025695
0.0260504
0.0262484
0.0262758
0.0261479
0.0258958
0.0255505
0.0251643
0.0247098
0.025149
0.0260327
0.0263121
0.0264113
0.0263265
0.0260813
0.0257127
0.0252563
0.0247634
0.0242013
0.0257466
0.0264681
0.0266603
0.0266559
0.0264606
0.026105
0.0256301
0.0250741
0.0244838
0.0238264
0.0264999
0.0270111
0.0271061
0.0269949
0.0266916
0.0262326
0.0256614
0.0250166
0.0243395
0.0236078
0.0274031
0.0276641
0.0276531
0.0274319
0.0270231
0.0264669
0.0258082
0.0250847
0.0243294
0.0235146
0.0284293
0.0284158
0.0282936
0.0279602
0.027448
0.0268007
0.0260624
0.0252686
0.0244449
0.0235707
0.0295267
0.0292393
0.0290078
0.0285634
0.0279509
0.027218
0.0264072
0.025551
0.0246696
0.0237539
0.030715
0.0301331
0.0297817
0.029222
0.0285105
0.0276966
0.0268202
0.0259097
0.0249819
0.0240383
0.0319396
0.0310571
0.0305817
0.0299065
0.0290996
0.0282111
0.0272769
0.0263209
0.025358
0.0243996
0.0331448
0.0319698
0.0313715
0.0305845
0.0296887
0.028734
0.0277512
0.0267593
0.0257736
0.0248135
0.0342774
0.0328286
0.0321133
0.0312223
0.0302476
0.0292376
0.0282172
0.0272008
0.0262051
0.0252575
0.0352844
0.0335897
0.0327691
0.0317874
0.0307478
0.0296961
0.0286513
0.0276227
0.0266304
0.0257111
0.0361152
0.0342116
0.0333039
0.0322504
0.0311639
0.0300872
0.0290332
0.0280062
0.0270317
0.0261532
0.0367252
0.0346571
0.0336877
0.032587
0.0314758
0.0303934
0.0293474
0.0283359
0.0273858
0.0265563
0.0370779
0.0348965
0.033897
0.0327802
0.0316695
0.0306029
0.0295828
0.0285968
0.0276675
0.0268897
0.0371471
0.0349082
0.0339155
0.0328175
0.0317387
0.0307134
0.0297381
0.0287855
0.0278706
0.0271527
0.0369167
0.0346796
0.0337343
0.0326949
0.0316843
0.0307372
0.0298534
0.0290142
0.0282547
0.0277676
0.0363753
0.034204
0.0333492
0.0324086
0.0314999
0.0306574
0.0298834
0.0291655
0.0285301
0.0281115
0.0355323
0.0334888
0.0327651
0.0319603
0.031183
0.0304661
0.0298138
0.0292178
0.0286921
0.0283111
0.0344094
0.0325504
0.0319942
0.0313588
0.0307404
0.0301708
0.029657
0.0291952
0.0287922
0.0284912
0.0330387
0.0314135
0.0310556
0.0306199
0.0301859
0.0297851
0.029428
0.029115
0.028849
0.028659
0.0314616
0.0301102
0.0299751
0.0297644
0.0295375
0.0293251
0.0291416
0.0289913
0.0288746
0.028812
0.0297266
0.028678
0.0287825
0.0288168
0.0288161
0.0288089
0.0288136
0.0288385
0.0288837
0.028963
0.0278855
0.0271573
0.0275103
0.0278031
0.0280432
0.0282549
0.0284598
0.0286706
0.0288891
0.0291253
0.0259913
0.0255884
0.0261908
0.0267491
0.0272397
0.0276802
0.0280945
0.0284994
0.0289002
0.0293064
0.0241097
0.0240149
0.0248569
0.0256797
0.0264246
0.0270994
0.027729
0.0283336
0.0289228
0.0295093
0.02233
0.0224938
0.023547
0.0246217
0.0256171
0.0265265
0.0273732
0.0281798
0.0289601
0.0297338
0.0205931
0.021017
0.0222708
0.0235869
0.0248269
0.0259681
0.0270309
0.0280391
0.0290092
0.0299734
0.0189488
0.0196206
0.0210512
0.022592
0.0240646
0.0254303
0.0267045
0.02791
0.0290636
0.0302135
0.017441
0.0183351
0.0199013
0.0216509
0.0233373
0.024916
0.0263928
0.0277883
0.0291145
0.0304332
0.0160887
0.0171726
0.0188516
0.0207639
0.0226488
0.0244257
0.0260929
0.0276685
0.0291558
0.0306101
0.0149028
0.0161423
0.0179011
0.0199479
0.0220029
0.023959
0.0258015
0.0275443
0.0291842
0.0307376
0.0138897
0.0152515
0.0170564
0.0192046
0.0214007
0.0235146
0.0255172
0.0274116
0.0291799
0.0308566
0.0130501
0.0145029
0.0163217
0.0185353
0.0208415
0.0230903
0.0252371
0.0272748
0.0291623
0.030919
0.0123806
0.0138949
0.0156979
0.0179406
0.0203243
0.0226829
0.0249573
0.0271346
0.0291516
0.0309678
0.0118744
0.0134233
0.0151836
0.01742
0.0198465
0.0222864
0.0246659
0.0269707
0.0291485
0.0310778
0.0115199
0.0130803
0.0147747
0.016971
0.0194046
0.021896
0.0243602
0.0267931
0.0292583
0.0316608
0.0112873
0.0128498
0.014464
0.0165907
0.0189941
0.0214957
0.0239944
0.0264578
0.0289386
0.0313378
0.0111804
0.01273
0.0142497
0.0162796
0.0186161
0.0210854
0.0235726
0.0260176
0.0284445
0.0307805
0.011191
0.0127127
0.0141278
0.0160392
0.0182789
0.020684
0.023134
0.0255558
0.0279549
0.0302549
0.011305
0.0127871
0.0140926
0.0158708
0.0179916
0.0203091
0.0227038
0.0250955
0.0274745
0.0297548
0.0115088
0.0129423
0.0141377
0.0157744
0.0177601
0.0199714
0.0222937
0.0246418
0.0269926
0.0292582
0.0117894
0.0131677
0.0142559
0.015748
0.0175882
0.0196781
0.0219128
0.0242045
0.0265176
0.0287672
0.0121341
0.0134524
0.0144392
0.0157882
0.0174771
0.0194348
0.0215695
0.0237936
0.0260609
0.0282909
0.0125314
0.0137858
0.0146783
0.0158896
0.0174263
0.0192449
0.0212697
0.0234168
0.0256308
0.0278373
0.0129755
0.014162
0.0149671
0.0160475
0.0174339
0.0191095
0.021017
0.0230787
0.0252327
0.0274128
0.0134683
0.014584
0.0153075
0.0162639
0.017503
0.0190331
0.0208164
0.0227845
0.0248711
0.027021
0.0139712
0.0150196
0.0156724
0.0165175
0.017619
0.0190068
0.0206635
0.0225323
0.0245446
0.0266573
0.0144853
0.0154692
0.0160599
0.016805
0.0177782
0.0190281
0.0205567
0.0223207
0.0242503
0.0263143
0.0150086
0.0159303
0.0164657
0.0171212
0.0179757
0.0190931
0.0204931
0.0221471
0.023985
0.0259859
0.0155366
0.0163979
0.0168843
0.0174599
0.0182059
0.0191972
0.0204698
0.0220093
0.0237457
0.025666
0.0160653
0.0168681
0.0173107
0.0178157
0.0184635
0.0193364
0.0204842
0.0219062
0.0235304
0.0253477
0.0165921
0.0173379
0.0177413
0.0181842
0.0187438
0.0195072
0.0205347
0.0218382
0.023341
0.0250273
0.0171152
0.0178056
0.0181736
0.0185619
0.0190433
0.0197065
0.0206205
0.0218088
0.0231861
0.0247102
0.0176337
0.01827
0.0186059
0.0189465
0.0193591
0.0199321
0.0207408
0.0218221
0.0230848
0.0244273
0.0181471
0.0187304
0.0190373
0.0193366
0.0196896
0.0201831
0.0208957
0.0218785
0.0230612
0.0242527
0.0186563
0.0191867
0.019467
0.0197307
0.0200334
0.0204609
0.0210974
0.022026
0.0233312
0.0249206
0.0191634
0.0196386
0.0198944
0.0201281
0.0203882
0.0207559
0.0213127
0.0221363
0.0233209
0.0247829
0.0196679
0.0200865
0.0203201
0.0205287
0.0207526
0.0210645
0.0215392
0.0222434
0.0232543
0.0245172
0.0201694
0.0205304
0.0207441
0.0209325
0.0211274
0.0213917
0.0217936
0.022395
0.0232632
0.0243552
0.020667
0.0209693
0.021166
0.0213396
0.0215133
0.0217403
0.0220813
0.0225944
0.023339
0.0242838
0.0211585
0.0214022
0.021585
0.0217494
0.0219101
0.0221101
0.0224017
0.0228377
0.0234698
0.0242836
0.0216405
0.0218268
0.0219998
0.0221612
0.0223173
0.0225005
0.0227545
0.0231251
0.0236564
0.0243524
0.0221077
0.0222398
0.0224083
0.0225735
0.0227338
0.0229109
0.0231392
0.0234571
0.0239005
0.0244903
0.022553
0.0226365
0.0228079
0.0229839
0.0231575
0.0233394
0.0235544
0.0238326
0.0242017
0.0246956
0.0229648
0.0230145
0.0231921
0.0233889
0.0235856
0.0237834
0.0239973
0.0242492
0.0245579
0.0249652
)
;

boundaryField
{
    inlet
    {
        type            zeroGradient;
    }
    outlet
    {
        type            fixedValue;
        value           uniform 0;
    }
    cylinder
    {
        type            zeroGradient;
    }
    top
    {
        type            symmetryPlane;
    }
    bottom
    {
        type            symmetryPlane;
    }
    defaultFaces
    {
        type            empty;
    }
}


// ************************************************************************* //
