/*--------------------------------*- C++ -*----------------------------------*\
  =========                 |
  \\      /  F ield         | OpenFOAM: The Open Source CFD Toolbox
   \\    /   O peration     | Website:  https://openfoam.org
    \\  /    A nd           | Version:  7
     \\/     M anipulation  |
\*---------------------------------------------------------------------------*/
FoamFile
{
    version     2.0;
    format      ascii;
    class       surfaceScalarField;
    location    "58";
    object      phi;
}
// * * * * * * * * * * * * * * * * * * * * * * * * * * * * * * * * * * * * * //

dimensions      [0 3 -1 0 0 0 0];

internalField   nonuniform List<scalar> 
3880
(
-5.08219e-05
-0.000848459
0.000899281
-8.38621e-05
-0.00156663
0.00159967
-4.88186e-05
-0.00168682
0.00165178
9.06836e-05
-0.00136323
0.00122372
0.000362814
-0.000674766
0.000402635
0.000787115
0.000334423
-0.000758724
0.00137238
0.00163136
-0.00221662
0.00211389
0.00318073
-0.00392224
0.0029917
0.00493638
-0.00581419
0.00683563
0.00396931
-0.00781324
-6.0781e-05
-0.000787678
-0.000108537
-0.00151887
-9.34337e-05
-0.00170193
2.06448e-05
-0.0014773
0.00026387
-0.000917991
0.000660757
-6.2464e-05
0.00122769
0.00106443
0.00196816
0.00244026
0.00286873
0.00403581
0.00580991
0.00389445
-6.37996e-05
-0.000723879
-0.000113254
-0.00146942
-0.000102576
-0.00171261
7.90536e-07
-0.00158067
0.000225162
-0.00114236
0.000597757
-0.000435059
0.00114029
0.000521899
0.00186479
0.00171575
0.00276632
0.00313427
0.00476199
0.00381425
-5.80198e-05
-0.000665859
-9.27239e-05
-0.00143472
-6.59276e-05
-0.0017394
4.79241e-05
-0.00169452
0.000272703
-0.00136714
0.000633508
-0.000795863
0.00115477
6.32126e-07
0.00185555
0.00101498
0.00274063
0.0022492
0.00371503
0.00378758
-4.21841e-05
-0.000623675
-4.32847e-05
-0.00143362
2.42397e-05
-0.00180693
0.000176351
-0.00184663
0.000429193
-0.00161998
0.000802281
-0.00116895
0.00131888
-0.000515963
0.00200136
0.000332493
0.00286429
0.00138627
0.00268172
0.00389761
-1.57896e-05
-0.000607885
3.60454e-05
-0.00148545
0.000170182
-0.00194106
0.000391967
-0.00206842
0.000707359
-0.00193538
0.00112748
-0.00158907
0.00166994
-0.00105842
0.00235682
-0.000354392
0.00320965
0.000533442
0.00165664
0.00423472
2.07593e-05
-0.000628645
0.000143128
-0.00160782
0.000368153
-0.00216609
0.000689677
-0.00238994
0.00110329
-0.00234899
0.00161015
-0.00209593
0.00221924
-0.00166751
0.0029479
-0.00108305
0.00382064
-0.000339306
0.000616596
0.00486069
6.491e-05
-0.000693555
0.000272135
-0.00181504
0.000606608
-0.00250056
0.00105132
-0.00283465
0.00159236
-0.00289003
0.0022213
-0.00272488
0.00293731
-0.00238352
0.00374936
-0.0018951
0.0046797
-0.00126965
-0.000469964
0.00576626
0.000114604
-0.000808159
0.000414352
-0.00211479
0.000867433
-0.00295364
0.00144646
-0.00341368
0.0021297
-0.00357327
0.00290125
-0.00349643
0.00375147
-0.00323373
0.00467837
-0.00282201
0.00569389
-0.00228516
-0.00162583
0.00684976
0.000166384
-0.000974543
0.000558757
-0.00250716
0.00112754
-0.00352243
0.00183547
-0.0041216
0.00265509
-0.00439289
0.00356698
-0.00440832
0.00455817
-0.00422492
0.00561982
-0.00388366
0.00674179
-0.00340713
0.007945
-0.00282904
0.00643587
0.0407178
-0.0431843
0.00761943
0.0674144
-0.0685979
0.00757256
0.0885151
-0.0884682
0.0069427
0.107937
-0.107307
0.00604922
0.128758
-0.127865
0.00497753
0.152389
-0.151317
0.00375082
0.17939
-0.178163
0.00233382
0.211124
-0.209707
0.000964006
0.253028
-0.251658
0.302048
-0.301084
0.00683844
0.0377738
0.00859891
0.0656539
0.00889713
0.0882168
0.00843575
0.108398
0.0076056
0.129589
0.00650147
0.153493
0.00513785
0.180753
0.00346697
0.212794
0.00165033
0.254845
0.303699
0.0071252
0.0344628
0.00950862
0.0632705
0.0101947
0.0875308
0.00992535
0.108668
0.00916622
0.130348
0.00803202
0.154627
0.00653017
0.182255
0.00460484
0.21472
0.00233918
0.257111
0.306038
0.0072868
0.0309636
0.0103091
0.0602482
0.0114288
0.0864111
0.011381
0.108715
0.0107056
0.131023
0.00954881
0.155784
0.00791287
0.183891
0.0057366
0.216896
0.00302284
0.259824
0.309061
0.00734949
0.0275117
0.0109633
0.0566344
0.0125631
0.0848114
0.0127735
0.108505
0.0121995
0.131597
0.0110314
0.156952
0.00927182
0.185651
0.00685038
0.219317
0.00369705
0.262978
0.312758
0.0073794
0.024367
0.0114384
0.0525754
0.0135631
0.0826867
0.0140723
0.107996
0.0136202
0.132049
0.0124545
0.158118
0.0105852
0.18752
0.00793186
0.221971
0.00435353
0.266556
0.317111
0.00746318
0.0217645
0.0117249
0.0483136
0.0143999
0.0800118
0.0152548
0.107141
0.014956
0.132348
0.0138129
0.159261
0.0118506
0.189482
0.00897785
0.224844
0.00499047
0.270543
0.322102
0.00766987
0.0198609
0.0118451
0.0441383
0.0150453
0.0768117
0.0162762
0.10591
0.0161562
0.132468
0.0150557
0.160361
0.0130252
0.191513
0.00996372
0.227905
0.00559581
0.274911
0.327697
0.00801077
0.0186999
0.01184
0.0403091
0.0155094
0.0731422
0.0171799
0.10424
0.0172855
0.132362
0.0162457
0.161401
0.0141576
0.193601
0.0109079
0.231155
0.00617485
0.279644
0.333872
0.00850921
0.0181357
0.0118044
0.0370139
0.0156837
0.0692629
0.0177701
0.102153
0.0181661
0.131966
0.0172395
0.162328
0.0151792
0.195661
0.0117679
0.234566
0.00675529
0.284657
0.340628
0.0209033
0.0287699
-0.0315375
0.0149151
0.0430021
0.014794
0.069384
0.0145597
0.102387
0.013102
0.133424
0.0108564
0.164573
0.00804788
0.19847
0.00470576
0.237908
0.0014978
0.287865
0.342125
0.0271456
0.0359914
-0.034367
0.0189302
0.0512174
0.0157709
0.0725433
0.0145858
0.103573
0.0125694
0.13544
0.0100543
0.167088
0.00732638
0.201198
0.00425521
0.240979
0.00134869
0.290771
0.343474
0.0306116
0.0398696
-0.0344899
0.0231941
0.0586349
0.0179173
0.0778201
0.0155488
0.105941
0.0132746
0.137715
0.0104893
0.169874
0.00744281
0.204244
0.00420595
0.244216
0.00134452
0.293633
0.344819
0.03135
0.0413755
-0.0328558
0.0258871
0.0640978
0.0199456
0.0837616
0.016119
0.109768
0.0131066
0.140727
0.0101982
0.172782
0.00726369
0.207179
0.00417824
0.247302
0.00138996
0.296421
0.346209
0.0301951
0.0413169
-0.0301365
0.0269378
0.0673551
0.0219453
0.088754
0.0179187
0.113794
0.014457
0.144189
0.0109885
0.176251
0.00760524
0.210562
0.00432223
0.250585
0.00146436
0.299279
0.347673
0.0274318
0.0400601
-0.0261751
0.0260551
0.0687319
0.0220598
0.0927493
0.017867
0.117987
0.0142881
0.147768
0.0109541
0.179585
0.00770847
0.213808
0.00449977
0.253793
0.00162825
0.30215
0.349301
0.0237148
0.0376696
-0.0213243
0.0244658
0.067981
0.0226269
0.0945882
0.0192803
0.121334
0.015488
0.15156
0.0116247
0.183448
0.0079755
0.217457
0.00458026
0.257189
0.00166877
0.305062
0.35097
0.0192128
0.034464
-0.0160072
0.0210641
0.0661297
0.020477
0.0951753
0.0181986
0.123612
0.0152249
0.154534
0.0118541
0.186819
0.00833775
0.220973
0.00491018
0.260616
0.00188606
0.308086
0.352856
0.0156377
0.0301503
-0.0113239
0.0194018
0.0623655
0.0205886
0.0939885
0.0189884
0.125212
0.0158393
0.157683
0.0121435
0.190515
0.00840439
0.224712
0.00493571
0.264085
0.00190663
0.311115
0.354763
0.01037
-0.00613825
0.0147576
0.0177061
0.0181238
0.0162411
0.0128889
0.00910447
0.00535864
0.00218644
0.0112366
-0.0334676
-0.00930651
0.0115783
-0.0347087
0.0110043
-0.0339159
0.00997792
-0.0318294
0.00870317
-0.0288618
0.00730148
-0.0247734
0.00587018
-0.019893
0.0044939
-0.0146309
0.00307893
-0.00990898
-0.00505904
0.0104933
-0.0344633
-0.00949754
0.0101999
-0.0344154
0.00927655
-0.0329925
0.00804557
-0.0305984
0.00664482
-0.027461
0.0051695
-0.0232981
0.0037032
-0.0184267
0.00232521
-0.0132529
0.000931018
-0.00851479
-0.00405384
0.00933081
-0.0347052
-0.00908892
0.00856435
-0.0336489
0.0073849
-0.0318131
0.00599285
-0.0292064
0.00449068
-0.0259589
0.00296051
-0.0217679
0.00148181
-0.016948
0.000138469
-0.0119096
-0.00117503
-0.00720129
-0.0031345
0.00775311
-0.0343593
-0.00809897
0.00664696
-0.0325428
0.00529347
-0.0304596
0.00379657
-0.0277095
0.00223812
-0.0244004
0.000690389
-0.0202202
-0.000765588
-0.015492
-0.00206911
-0.0106061
-0.00323391
-0.00603649
-0.00232478
0.00582169
-0.0335666
-0.00661439
0.00448553
-0.0312066
0.00302618
-0.0290002
0.00147551
-0.0261588
-0.000104415
-0.0228205
-0.00160995
-0.0187146
-0.00300983
-0.0140922
-0.00423092
-0.00938497
-0.00524849
-0.00501891
-0.00165949
0.00362886
-0.0324431
-0.00475239
0.00215084
-0.0297286
0.000635636
-0.027485
-0.000913676
-0.0246095
-0.00244662
-0.0212875
-0.00390894
-0.0172523
-0.00522027
-0.0127808
-0.00632726
-0.00827798
-0.00718602
-0.00416016
-0.00114776
0.00127372
-0.0310808
-0.00263597
-0.000283214
-0.0281717
-0.00178751
-0.0259807
-0.00331478
-0.0230822
-0.00478978
-0.0198125
-0.00616134
-0.0158807
-0.0073588
-0.0115834
-0.00833025
-0.00730653
-0.00902524
-0.00346517
-0.000785884
-0.00114493
-0.0295644
-0.000371506
-0.00270735
-0.0266092
-0.00420091
-0.0244871
-0.00567416
-0.021609
-0.00706322
-0.0184235
-0.00832236
-0.0146216
-0.00938972
-0.010516
-0.010214
-0.0064823
-0.010749
-0.00293016
-0.000561345
-0.00354276
-0.0279323
0.0019107
-0.00508821
-0.0250638
-0.00653379
-0.0230416
-0.00792869
-0.0202141
-0.00921614
-0.017136
-0.0103505
-0.0134872
-0.0112806
-0.0095859
-0.0119563
-0.00580663
-0.0123435
-0.00254297
-0.000455276
-0.00583893
-0.026251
0.00415756
-0.00734245
-0.0235603
-0.00872419
-0.0216598
-0.010026
-0.0189123
-0.0112045
-0.0159575
-0.0122102
-0.0124816
-0.0130048
-0.00879127
-0.0135403
-0.00527112
-0.013799
-0.00228431
-0.000444622
-0.0079675
-0.0245674
0.00628391
-0.00941164
-0.0221161
-0.0107218
-0.0203497
-0.0119229
-0.0177112
-0.0129929
-0.0148875
-0.013874
-0.0116004
-0.0145431
-0.00812219
-0.0149552
-0.00485902
-0.0151099
-0.0021296
-0.000503902
-0.00988623
-0.022918
0.00823688
-0.0112562
-0.0207461
-0.0124917
-0.0191141
-0.0135902
-0.0166127
-0.0145576
-0.0139201
-0.015325
-0.010833
-0.015885
-0.00756226
-0.0161966
-0.00454743
-0.0162751
-0.00205113
-0.000606589
-0.0115615
-0.0213317
0.00997518
-0.012846
-0.0194616
-0.0140088
-0.0179514
-0.0150082
-0.0156133
-0.0158845
-0.0130439
-0.0165553
-0.0101622
-0.0170278
-0.00708976
-0.0172662
-0.00430903
-0.0172976
-0.00201967
-0.000726134
-0.0129752
-0.0198284
0.0114718
-0.0141662
-0.0182705
-0.0152616
-0.016856
-0.0161709
-0.0147039
-0.0169708
-0.0122441
-0.0175668
-0.0095662
-0.0179768
-0.00667975
-0.0181714
-0.00411436
-0.0181849
-0.0020062
-0.000836658
-0.0141225
-0.018416
0.0127101
-0.0152149
-0.0171781
-0.0162502
-0.0158207
-0.0170833
-0.0138709
-0.0178235
-0.0115039
-0.0183696
-0.00902008
-0.0187435
-0.00630584
-0.0189243
-0.00393354
-0.0189476
-0.00198295
-0.000913374
-0.0150097
-0.0170868
0.0136806
-0.0160027
-0.0161851
-0.0169846
-0.0148388
-0.0177597
-0.0130958
-0.0184572
-0.0108065
-0.0189798
-0.00849743
-0.019344
-0.00594165
-0.0195399
-0.00373763
-0.019599
-0.0019239
-0.000932805
-0.0156495
-0.0158146
0.0143772
-0.0165495
-0.0152851
-0.0174814
-0.0139069
-0.0182204
-0.0123567
-0.0188914
-0.0101355
-0.0194168
-0.00797196
-0.0197967
-0.00556178
-0.020035
-0.00349935
-0.020154
-0.00180493
-0.000872822
-0.0160414
-0.0145697
0.0147965
-0.0168697
-0.0144568
-0.0177541
-0.0130225
-0.0184843
-0.0116265
-0.0191463
-0.00947362
-0.0197004
-0.00741778
-0.0201205
-0.0051417
-0.0204266
-0.00319326
-0.0206281
-0.00160345
-0.000712505
-0.0161749
-0.0133412
0.0149465
-0.0169835
-0.0136483
-0.0178235
-0.0121824
-0.0185735
-0.0108764
-0.0192449
-0.00880225
-0.0198516
-0.00681105
-0.0203346
-0.00465867
-0.0207316
-0.00279627
-0.0210367
-0.00129843
-0.000431777
-0.0161502
-0.0120772
0.0148862
-0.0170004
-0.0127981
-0.017755
-0.0114279
-0.0185237
-0.0101077
-0.0192128
-0.00811313
-0.0198852
-0.00613867
-0.0204527
-0.00409115
-0.0209633
-0.0022857
-0.021398
-0.000863714
-1.45658e-05
-0.069263
-0.0106057
0.0677915
-0.0725729
-0.00948816
-0.0755446
-0.00845623
-0.0785711
-0.00708123
-0.0809842
-0.0057
-0.0829518
-0.00417108
-0.0842319
-0.002811
-0.0849756
-0.00154207
-0.0852218
-0.000617453
-2.81043e-05
-0.0833156
-0.00921145
0.0819213
-0.0853977
-0.00740605
-0.0872489
-0.00660496
-0.0891572
-0.00517292
-0.0906343
-0.00422297
-0.0918273
-0.00297803
-0.0925673
-0.00207108
-0.0929823
-0.00112704
-0.0930888
-0.0005109
-3.88638e-05
-0.0979177
-0.00821728
0.0969235
-0.0990497
-0.00627408
-0.100223
-0.00543125
-0.101364
-0.00403256
-0.102277
-0.00330993
-0.103001
-0.00225424
-0.103425
-0.00164673
-0.103647
-0.000904508
-0.103682
-0.000476738
-4.09259e-05
-0.114878
-0.00765474
0.114315
-0.115585
-0.00556721
-0.116321
-0.00469462
-0.117011
-0.00334319
-0.11757
-0.0027505
-0.118014
-0.00181046
-0.118268
-0.00139223
-0.11841
-0.000762602
-0.118424
-0.000463089
-3.56129e-05
-0.135562
-0.00701849
0.134926
-0.136133
-0.0049966
-0.136692
-0.00413609
-0.137188
-0.002847
-0.137599
-0.00233971
-0.13793
-0.00147851
-0.138146
-0.00117652
-0.138294
-0.00061511
-0.138347
-0.000409841
-6.8135e-06
-0.159868
-0.0061416
0.158991
-0.16055
-0.0043146
-0.161153
-0.00353392
-0.161653
-0.00234671
-0.162069
-0.00192316
-0.162404
-0.00114388
-0.162666
-0.000914797
-0.162884
-0.000396482
-0.163022
-0.000271892
3.60403e-05
-0.18537
-0.00498368
0.184212
-0.186344
-0.00334098
-0.187174
-0.00270365
-0.187758
-0.0017622
-0.188247
-0.00143442
-0.188613
-0.000778255
-0.188942
-0.000585938
-0.189204
-0.000134566
-0.189388
-8.79207e-05
8.43864e-05
-0.208439
-0.00324921
0.206705
-0.209423
-0.00235706
-0.210238
-0.00188907
-0.210822
-0.0011782
-0.211332
-0.000924642
-0.211677
-0.000432802
-0.211983
-0.000280282
-0.212173
5.55189e-05
-0.212303
4.18849e-05
9.78993e-05
-0.224032
-0.00179217
0.222575
-0.225303
-0.00108642
-0.226332
-0.000859687
-0.226986
-0.000524655
-0.227479
-0.000431029
-0.227734
-0.000178386
-0.227916
-9.84478e-05
-0.22794
8.03091e-05
-0.227956
5.775e-05
6.217e-05
-0.232735
0.230943
-0.233822
-0.234682
-0.235206
-0.235637
-0.235816
-0.235914
-0.235834
-0.235776
-0.0166434
0.0691595
0.0152754
-0.0173968
0.0826747
-0.0178379
0.0973647
-0.01793
0.114407
-0.0175416
0.134538
-0.0163155
0.157765
-0.0139118
0.181808
-0.0101396
0.202933
-0.00540405
0.21784
0.225539
-0.0156995
0.0700118
0.0148472
-0.0163505
0.0833256
-0.0167154
0.0977296
-0.016718
0.11441
-0.0162417
0.134061
-0.0149757
0.156499
-0.0126395
0.179472
-0.00916166
0.199455
-0.00484012
0.213518
0.220699
-0.0148888
0.0707358
0.0141648
-0.0154297
0.0838666
-0.0157009
0.0980008
-0.0156388
0.114348
-0.0151213
0.133544
-0.0138728
0.155251
-0.0116497
0.177249
-0.00842263
0.196228
-0.0044289
0.209524
0.21627
-0.0139597
0.0714032
0.0132923
-0.0144113
0.0843182
-0.0145818
0.0981713
-0.0144451
0.114211
-0.0138894
0.132988
-0.012671
0.154033
-0.010586
0.175164
-0.00762875
0.193271
-0.00399627
0.205892
0.212274
-0.0128788
0.0720048
0.0122772
-0.0132567
0.084696
-0.0133467
0.0982613
-0.0131504
0.114015
-0.0125724
0.13241
-0.0114023
0.152862
-0.00947586
0.173238
-0.00680114
0.190596
-0.00355223
0.202643
0.208722
-0.0116798
0.0725292
0.0111554
-0.011975
0.0849912
-0.0119933
0.0982797
-0.0117536
0.113775
-0.0111724
0.131829
-0.010073
0.151763
-0.00832716
0.171492
-0.00595075
0.188219
-0.00310011
0.199792
0.205622
-0.0103937
0.0729685
0.00995431
-0.0105981
0.0851956
-0.0105443
0.0982258
-0.0102689
0.1135
-0.00969888
0.131259
-0.0086901
0.150754
-0.00714484
0.169946
-0.00508315
0.186158
-0.00264106
0.19735
0.202981
-0.00904149
0.0733099
0.00870008
-0.00915444
0.0853086
-0.00902805
0.0980994
-0.00872172
0.113193
-0.00817238
0.13071
-0.00726871
0.149851
-0.00593883
0.168617
-0.00420423
0.184423
-0.00217721
0.195323
0.200803
-0.00764541
0.0735354
0.00742
-0.00766911
0.0853323
-0.0074705
0.0979008
-0.00713814
0.112861
-0.00661628
0.130188
-0.00582791
0.149062
-0.00472251
0.167511
-0.00332155
0.183022
-0.00171207
0.193714
0.199091
-0.00622864
0.0736219
0.00614206
-0.00616917
0.0852728
-0.00589494
0.0976266
-0.0055425
0.112509
-0.00505211
0.129697
-0.00438633
0.148397
-0.0035098
0.166635
-0.00244391
0.181956
-0.00125018
0.19252
0.197841
-0.00482626
0.0735481
0.00490013
-0.00468871
0.0851353
-0.00433221
0.0972701
-0.0039625
0.112139
-0.0035038
0.129239
-0.0029637
0.147856
-0.00231545
0.165986
-0.00158096
0.181222
-0.000796262
0.191735
0.197045
-0.00347998
0.073316
0.00371205
-0.00325078
0.0849061
-0.00282036
0.0968396
-0.00242717
0.111746
-0.00200203
0.128814
-0.0015793
0.147434
-0.00115298
0.16556
-0.000742499
0.180811
-0.000355847
0.191349
0.196689
-0.00223083
0.0729412
0.00260564
-0.00189124
0.0845665
-0.00140418
0.0963526
-0.000980773
0.111322
-0.000594637
0.128427
-0.000284296
0.147123
-7.53926e-05
0.165351
3.27919e-05
0.180703
5.22096e-05
0.191329
0.196741
-0.0011109
0.0724572
0.00159488
-0.000636152
0.0840917
-0.000141895
0.0958583
0.000361449
0.110819
0.000752585
0.128036
0.000980561
0.146895
0.001004
0.165328
0.000817161
0.18089
0.000461305
0.191685
0.197202
-0.000164
0.0719416
0.000679629
0.000521346
0.0834064
0.00114117
0.0952385
0.00167274
0.110287
0.00203959
0.127669
0.00217012
0.146765
0.00200641
0.165491
0.0015421
0.181354
0.00084133
0.192386
0.198044
0.000799953
0.0713022
-0.000160596
0.00159783
0.0826085
0.00227651
0.0945598
0.00284528
0.109719
0.00320243
0.127312
0.00325387
0.146713
0.00292364
0.165822
0.00220643
0.182072
0.00118838
0.193404
0.199232
0.00162559
0.0705696
-0.000892954
0.00253964
0.0816945
0.00327796
0.0938215
0.00389239
0.109104
0.00425207
0.126953
0.00424326
0.146722
0.00376836
0.166297
0.00282106
0.183019
0.00150937
0.194715
0.200742
0.00231142
0.0698211
-0.00156297
0.0033374
0.0806685
0.00412616
0.0930327
0.00477934
0.108451
0.00514256
0.126589
0.00508637
0.146778
0.00449154
0.166891
0.00334845
0.184162
0.00178237
0.196282
0.202524
0.00293399
0.0690864
-0.00219927
0.00406134
0.0795411
0.00490439
0.0921897
0.00559813
0.107757
0.00597377
0.126214
0.00588088
0.146871
0.00517584
0.167596
0.00384708
0.185491
0.00204035
0.198088
0.204564
0.00326378
0.0686424
-0.0028198
0.00443334
0.0783716
0.00532613
0.0912969
0.00604923
0.107034
0.00644094
0.125822
0.0063422
0.14697
0.00558533
0.168353
0.00414971
0.186926
0.00218901
0.200049
0.206753
-0.052504
0.06268
0.0584665
-0.0473742
0.0732418
-0.0436887
0.0876114
-0.039846
0.103191
-0.035647
0.121623
-0.0306107
0.141934
-0.0243777
0.16212
-0.016959
0.179508
-0.00866633
0.191756
0.198087
-0.0635484
0.057857
0.0683714
-0.0589867
0.06868
-0.0546456
0.0832703
-0.0497974
0.0983432
-0.0445631
0.116389
-0.0381892
0.13556
-0.0303728
0.154304
-0.0211724
0.170307
-0.0109491
0.181533
0.187138
-0.0763896
0.0531275
0.0811191
-0.0716884
0.0639788
-0.0664812
0.0780631
-0.0606751
0.0925372
-0.0541726
0.109886
-0.0460731
0.12746
-0.0363714
0.144602
-0.0251274
0.159063
-0.0127243
0.16913
0.174414
-0.0919534
0.0485994
0.0964815
-0.0866185
0.0586439
-0.0805939
0.0720384
-0.0737821
0.0857254
-0.0656847
0.101789
-0.055548
0.117324
-0.0436842
0.132738
-0.0301632
0.145542
-0.0155369
0.154504
0.158877
-0.109367
0.0431956
0.114771
-0.103352
0.0526294
-0.0962813
0.0649673
-0.0877534
0.0771975
-0.0772875
0.0913229
-0.064627
0.104663
-0.0502553
0.118366
-0.0341129
0.1294
-0.0169848
0.137376
0.141892
-0.130327
0.0377032
0.135819
-0.123099
0.0454011
-0.114475
0.0563435
-0.10373
0.066453
-0.0907974
0.0783899
-0.0757068
0.0895726
-0.0586435
0.101303
-0.0398011
0.110558
-0.0203446
0.117919
0.121547
-0.151062
0.0305123
0.158253
-0.142267
0.0366065
-0.131465
0.0455412
-0.118017
0.0530053
-0.102307
0.0626799
-0.0840678
0.0713332
-0.0634423
0.0806776
-0.0412018
0.0883171
-0.0192389
0.0959562
0.102308
-0.173599
0.0229843
0.181127
-0.16322
0.0262268
-0.150415
0.0327367
-0.134953
0.0375436
-0.117031
0.0447573
-0.0961755
0.0504779
-0.073068
0.0575701
-0.0488349
0.064084
-0.0257097
0.072831
0.0765987
-0.189449
0.0110295
0.201404
-0.176213
0.012991
-0.159807
0.0163301
-0.140947
0.0186837
-0.118772
0.0225828
-0.0937893
0.0254949
-0.0659861
0.0297668
-0.0360016
0.0340995
-0.00637538
0.0432048
0.0702233
-0.273377
0.284406
-0.260386
-0.244056
-0.225372
-0.202789
-0.177294
-0.147528
-0.113428
-0.0702233
0.000364483
0.0604632
-0.00236125
-0.00113581
0.0698717
-0.00232944
0.0823127
-0.00323346
0.0973855
-0.0037813
0.115319
-0.00392811
0.135966
-0.00357423
0.157899
-0.00275827
0.180311
-0.0024938
0.20114
0.281912
0.000847635
0.0623404
-0.00272484
-0.000760239
0.0714795
-0.00201432
0.0835668
-0.0029478
0.098319
-0.00353946
0.11591
-0.00370973
0.136136
-0.00342664
0.157616
-0.00264315
0.179528
-0.00225892
0.200755
0.279654
0.00136039
0.064089
-0.00310895
-0.000231975
0.0730719
-0.00143804
0.0847729
-0.00235957
0.0992405
-0.00297359
0.116524
-0.00317847
0.136341
-0.0029944
0.157432
-0.00230778
0.178841
-0.00203058
0.200478
0.277623
0.00186073
0.065742
-0.00351371
0.000312975
0.0746197
-0.000813882
0.0858997
-0.00169067
0.100117
-0.00228042
0.117114
-0.00252919
0.13659
-0.002419
0.157322
-0.00188839
0.178311
-0.00173061
0.20032
0.275892
0.00235325
0.0673208
-0.00393202
0.000909725
0.0760632
-0.000193799
0.0870033
-0.00100424
0.100928
-0.00155773
0.117667
-0.00183069
0.136863
-0.0017866
0.157278
-0.00141183
0.177936
-0.0013823
0.200291
0.27451
0.00286925
0.0688046
-0.00435312
0.00154408
0.0773884
0.000532063
0.0880153
-0.000263133
0.101723
-0.000771797
0.118176
-0.00106913
0.13716
-0.00109307
0.157301
-0.000882783
0.177726
-0.000994917
0.200403
0.273515
0.00341109
0.0701629
-0.00476939
0.00222221
0.0785772
0.00131442
0.0889231
0.000597846
0.10244
9.54297e-05
0.118679
-0.000241577
0.137497
-0.00031191
0.157372
-0.000307682
0.177721
-0.000567602
0.200663
0.272947
0.00397122
0.0713657
-0.00517401
0.00293257
0.0796159
0.00213277
0.0897229
0.00151071
0.103062
0.00103866
0.119151
0.000699361
0.137837
0.000516341
0.157555
0.000349888
0.177888
-9.11168e-05
0.201104
0.272856
0.00454356
0.0723799
-0.00555775
0.00366268
0.0804968
0.00297865
0.0904069
0.00245066
0.10359
0.00202431
0.119577
0.00167683
0.138184
0.00138294
0.157849
0.0010627
0.178208
0.00037286
0.201794
0.273229
0.00511528
0.0731722
-0.00590762
0.00439985
0.0812122
0.00384058
0.0909662
0.00341169
0.104018
0.00303872
0.11995
0.00267792
0.138545
0.00228831
0.158238
0.00178787
0.178708
0.000863228
0.202718
0.274092
0.00566504
0.0737096
-0.00620241
0.00512404
0.0817532
0.00469891
0.0913913
0.00437419
0.104343
0.00405981
0.120264
0.00369132
0.138913
0.00320882
0.158721
0.00252706
0.17939
0.00137039
0.203875
0.275463
0.00618467
0.073964
-0.00643906
0.00582672
0.0821112
0.00554288
0.0916751
0.00532807
0.104558
0.00507806
0.120514
0.00470964
0.139282
0.00413712
0.159293
0.00327829
0.180249
0.00188666
0.205267
0.27735
0.00665012
0.0739185
-0.00660465
0.00648303
0.0822783
0.00634679
0.0918114
0.00624605
0.104659
0.00606819
0.120692
0.00570963
0.13964
0.00505562
0.159947
0.00402831
0.181276
0.00240442
0.206891
0.279754
0.00704165
0.0735705
-0.00669368
0.00707517
0.0822447
0.00708942
0.0917971
0.00710584
0.104642
0.00700945
0.120789
0.00667055
0.139979
0.00594751
0.16067
0.00476358
0.18246
0.00291509
0.208739
0.282669
0.00734463
0.0729312
-0.00670527
0.00758774
0.0820016
0.00775136
0.0916335
0.00788733
0.104506
0.00788239
0.120793
0.00757522
0.140287
0.00680093
0.161445
0.00547542
0.183786
0.00341495
0.2108
0.286084
0.00754866
0.0720288
-0.00664621
0.00800702
0.0815433
0.00831509
0.0913254
0.00857005
0.104251
0.00866207
0.120701
0.00839921
0.140549
0.00759445
0.162249
0.006146
0.185234
0.00389134
0.213054
0.289975
0.00765335
0.0709088
-0.00653337
0.00832774
0.0808689
0.00877414
0.090879
0.00914722
0.103878
0.0093436
0.120505
0.00914121
0.140752
0.00832807
0.163063
0.006777
0.186785
0.00434634
0.215485
0.294322
0.00765844
0.0696435
-0.00639315
0.00853143
0.0799959
0.0091035
0.090307
0.00958389
0.103398
0.00988226
0.120207
0.00974967
0.140884
0.00895251
0.16386
0.00733368
0.188404
0.00475695
0.218062
0.299079
0.00762535
0.0682845
-0.00626639
0.00868764
0.0789336
0.00937611
0.0896185
0.00995657
0.102817
0.0103579
0.119805
0.0103041
0.140938
0.00953263
0.164631
0.00785554
0.190081
0.00514217
0.220775
0.304221
0.00735149
0.0670635
-0.00613049
0.00849295
0.0777921
0.00931907
0.0887924
0.00999156
0.102145
0.0105025
0.119294
0.0105493
0.140891
0.00987283
0.165308
0.00819832
0.191756
0.00545239
0.223521
0.309673
-0.0369076
0.0623607
0.0416104
-0.0313154
0.0722
-0.0267359
0.0842128
-0.0222275
0.0976366
-0.0177781
0.114845
-0.0130908
0.136204
-0.00813011
0.160347
-0.00348015
0.187106
-0.00112742
0.221168
0.308546
-0.0524993
0.0571032
0.0577568
-0.0468112
0.0665119
-0.0410284
0.0784301
-0.0349212
0.0915293
-0.0287457
0.10867
-0.0219836
0.129442
-0.0146613
0.153025
-0.00758969
0.180034
-0.00316222
0.216741
0.305384
-0.0694657
0.051436
0.0751329
-0.0629627
0.0600089
-0.0559768
0.0714441
-0.0485332
0.0840857
-0.0407489
0.100885
-0.0317598
0.120453
-0.0219228
0.143188
-0.012192
0.170303
-0.00498649
0.209535
0.300397
-0.0882212
0.0456223
0.0940349
-0.0806826
0.0524702
-0.0727646
0.0635262
-0.0640838
0.0754049
-0.0543586
0.0911602
-0.0427927
0.108887
-0.0301631
0.130558
-0.0174823
0.157623
-0.00729847
0.199351
0.293099
-0.109342
0.0386617
0.116302
-0.101414
0.044542
-0.0927587
0.0548713
-0.0823784
0.0650247
-0.0702332
0.079015
-0.0559229
0.0945766
-0.0402905
0.114926
-0.0241085
0.141441
-0.010201
0.185444
0.282898
-0.134633
0.0318641
0.141431
-0.125729
0.035638
-0.115577
0.044719
-0.103104
0.0525521
-0.0886314
0.0645421
-0.0717754
0.0777206
-0.0530178
0.096168
-0.0331021
0.121525
-0.015059
0.167401
0.267839
-0.163137
0.0231667
0.171834
-0.153787
0.0262879
-0.14234
0.0332728
-0.128479
0.0386911
-0.112355
0.0484179
-0.0930908
0.0584562
-0.0713
0.0743771
-0.0474519
0.0976768
-0.0233761
0.143325
0.244462
-0.197306
0.0145355
0.205937
-0.186898
0.0158798
-0.174222
0.0205969
-0.159393
0.0238624
-0.141723
0.0307474
-0.120957
0.0376904
-0.0974327
0.0508529
-0.0707273
0.0709714
-0.0398184
0.112416
0.204644
-0.248535
0.0054907
0.25758
-0.238954
0.00629903
-0.226789
0.00843194
-0.21319
0.0102627
-0.1963
0.0138576
-0.176747
0.0181378
-0.152261
0.0263667
-0.120663
0.0393728
-0.0742546
0.066008
0.130389
-0.319126
0.324617
-0.312827
-0.304395
-0.294132
-0.280275
-0.262137
-0.23577
-0.196397
-0.130389
0.00272969
0.0436035
-0.00472273
7.91728e-05
0.0604073
-0.00183184
0.0770439
-0.00351833
0.0957214
-0.00482374
0.117608
-0.00579599
0.142403
-0.00609781
0.172136
-0.00601063
0.20585
-0.00426192
0.255831
0.320355
0.00273399
0.0452499
-0.00438038
0.000472248
0.0626691
-0.00148988
0.079006
-0.00317681
0.0974083
-0.00450834
0.118939
-0.00547693
0.143372
-0.00584765
0.172507
-0.00576704
0.205769
-0.00413879
0.254203
0.316216
0.00291944
0.0464774
-0.00414694
0.000975184
0.0646133
-0.000882979
0.0808642
-0.00249529
0.0990206
-0.00380334
0.120247
-0.00476045
0.144329
-0.0052008
0.172947
-0.00513802
0.205707
-0.00379116
0.252856
0.312425
0.00317841
0.0473098
-0.00401079
0.00152695
0.0662648
-0.000216447
0.0826076
-0.00169397
0.100498
-0.00293717
0.121491
-0.00389694
0.145289
-0.00438879
0.173439
-0.00442913
0.205747
-0.00334985
0.251777
0.309075
0.00349488
0.0477624
-0.00394748
0.00215755
0.0676021
0.000611257
0.0841539
-0.000816084
0.101926
-0.00198274
0.122657
-0.00293903
0.146245
-0.00348983
0.17399
-0.00365987
0.205917
-0.00284692
0.250964
0.306228
0.00388623
0.0478117
-0.00393555
0.00289295
0.0685954
0.00155872
0.0854881
0.000172781
0.103311
-0.00091522
0.123745
-0.00187757
0.147207
-0.00250881
0.174621
-0.00282236
0.206231
-0.00229464
0.250436
0.303933
0.00435429
0.0474136
-0.0039562
0.00372714
0.0692225
0.00261177
0.0866035
0.00140217
0.104521
0.000287227
0.12486
-0.000713702
0.148208
-0.00141627
0.175323
-0.0019137
0.206728
-0.00169956
0.250222
0.302234
0.00487448
0.0465285
-0.00398936
0.0046413
0.0694557
0.00375987
0.0874849
0.00268843
0.105592
0.00163688
0.125912
0.000596306
0.149249
-0.00018585
0.176106
-0.00094624
0.207488
-0.0010635
0.250339
0.30117
0.00541815
0.0451245
-0.00401416
0.00561263
0.0692612
0.00498336
0.0881142
0.00405181
0.106524
0.00305044
0.126913
0.00202452
0.150275
0.00106318
0.177067
2.35199e-05
0.208528
-0.000384377
0.250747
0.300786
0.00595223
-0.00401206
0.00661551
0.00626152
0.00547838
0.00452642
0.00348398
0.0023878
0.0012094
0.000298214
0.000217186
-0.00119173
0.000693848
-0.00298383
0.00136161
-0.0041902
0.00217361
-0.00493359
0.00309839
-0.00531768
0.00411699
-0.00542692
0.00522155
-0.00532948
0.00641831
-0.00508042
0.007746
-0.00473482
-0.00438956
0.000260239
-0.00145197
0.000803141
-0.00352673
0.00154071
-0.00492777
0.00241592
-0.0058088
0.00339312
-0.00629488
0.00445295
-0.00648675
0.0055888
-0.00646533
0.00680505
-0.00629667
0.00811272
-0.0060425
-0.00577437
0.000293431
-0.0017454
0.000877527
-0.00411083
0.00164509
-0.00569533
0.00252953
-0.00669324
0.00349168
-0.00725703
0.00451178
-0.00750685
0.00558317
-0.00753673
0.00670672
-0.00742022
0.00788174
-0.00721751
-0.00698156
0.000313196
-0.0020586
0.000907364
-0.00470499
0.00165844
-0.0064464
0.00249272
-0.00752752
0.00336985
-0.00813415
0.00427187
-0.00840887
0.00519462
-0.00845947
0.00614052
-0.00836612
0.00711078
-0.00818778
-0.00796975
0.000316598
-0.00237519
0.00088591
-0.0052743
0.0015719
-0.00713239
0.00229814
-0.00825376
0.00302701
-0.00886303
0.00374579
-0.00912765
0.00445597
-0.00916965
0.00516545
-0.00907561
0.00588259
-0.00890491
-0.00870155
0.000301558
-0.00267675
0.000809942
-0.00578269
0.00138462
-0.00770707
0.00195242
-0.00882157
0.00248303
-0.00939364
0.00297204
-0.00961666
0.00342865
-0.00962626
0.0038674
-0.00951436
0.00430354
-0.00934105
-0.0091504
0.000267083
-0.00294383
0.000680089
-0.00619569
0.00110353
-0.00813051
0.00147408
-0.00919211
0.0017727
-0.00969226
0.0020051
-0.00984907
0.00218823
-0.00980939
0.00234186
-0.00966798
0.00248478
-0.00948398
-0.00930159
0.000213446
-0.00315728
0.000500776
-0.00648302
0.000742152
-0.00837188
0.000890074
-0.00934004
0.000939322
-0.00974151
0.000905684
-0.00981543
0.000812221
-0.00971593
0.000681397
-0.00953716
0.000531483
-0.00933406
-0.00914161
0.000142231
-0.00329951
0.000279713
-0.00662051
0.000318701
-0.00841087
0.000231913
-0.00925325
2.85231e-05
-0.00953812
-0.000266964
-0.00951994
-0.000628091
-0.0093548
-0.00103257
-0.00913268
-0.00146411
-0.00890253
-0.00869501
5.61989e-05
-0.00335571
2.71727e-05
-0.00659148
-0.000146015
-0.00823768
-0.000467795
-0.00893147
-0.000915719
-0.0090902
-0.00145956
-0.0089761
-0.00207193
-0.00874243
-0.00273281
-0.0084718
-0.00342958
-0.00820575
-0.00796703
-2.53249e-05
-0.00333038
-0.00022313
-0.00639367
-0.000607519
-0.00785329
-0.00115689
-0.0083821
-0.00183637
-0.00841072
-0.00261185
-0.00820062
-0.003457
-0.00789727
-0.00435501
-0.00757379