/*--------------------------------*- C++ -*----------------------------------*\
  =========                 |
  \\      /  F ield         | OpenFOAM: The Open Source CFD Toolbox
   \\    /   O peration     | Website:  https://openfoam.org
    \\  /    A nd           | Version:  7
     \\/     M anipulation  |
\*---------------------------------------------------------------------------*/
FoamFile
{
    version     2.0;
    format      ascii;
    class       volVectorField;
    location    "4.9";
    object      U;
}
// * * * * * * * * * * * * * * * * * * * * * * * * * * * * * * * * * * * * * //

dimensions      [0 1 -1 0 0 0 0];

internalField   nonuniform List<vector> 
32000
(
(-0.000293804 0.00456081 -5.00354e-22)
(-0.00177343 0.0166062 0)
(-0.00437978 0.0309855 -4.45832e-21)
(-0.00743696 0.0464662 0)
(-0.0107492 0.0623423 4.63919e-21)
(-0.014106 0.0782155 0)
(-0.0173613 0.0938503 4.79245e-21)
(-0.0204076 0.109111 -3.6439e-21)
(-0.0231655 0.123921 1.27868e-24)
(-0.0255777 0.138239 1.5968e-24)
(-0.0276072 0.152035 -1.2561e-21)
(-0.029235 0.165283 5.07299e-21)
(-0.0304539 0.177957 0)
(-0.0312627 0.190023 -1.29023e-21)
(-0.0316658 0.201447 1.29559e-21)
(-0.0316727 0.212191 0)
(-0.0312965 0.222217 6.55788e-21)
(-0.0305529 0.231493 -1.31564e-21)
(-0.0294598 0.239986 0)
(-0.0280358 0.247673 2.65984e-21)
(-0.0262995 0.254536 2.66429e-21)
(-0.0242699 0.260565 0)
(-0.0219653 0.265758 0)
(-0.0194039 0.270121 0)
(-0.0166037 0.273667 0)
(-0.0135825 0.276417 0)
(-0.0103577 0.278397 0)
(-0.00694519 0.279638 0)
(-0.00336052 0.280177 -5.36318e-21)
(0.000381293 0.280053 0)
(0.00426528 0.279308 5.35215e-21)
(0.00827638 0.277984 0)
(0.0123993 0.276127 0)
(0.0166179 0.273781 0)
(0.0209144 0.27099 -5.30771e-21)
(0.0252692 0.267798 -2.65529e-21)
(0.0296601 0.264246 7.93285e-21)
(0.0340754 0.260371 -3.34972e-24)
(0.0384955 0.256271 5.25551e-21)
(0.0427309 0.252071 -5.86341e-24)
(-0.000408088 0.00492829 0)
(-0.00218987 0.0174723 8.70475e-21)
(-0.00516555 0.0321856 2.2293e-21)
(-0.00861754 0.0478834 4.1631e-25)
(-0.0123384 0.0638804 -2.31945e-21)
(-0.0161093 0.0797942 0)
(-0.0197775 0.0954021 4.78733e-21)
(-0.0232329 0.110581 -4.85456e-21)
(-0.0263947 0.125262 0)
(-0.0292039 0.139414 -9.94636e-21)
(-0.0316223 0.153013 0)
(-0.0336288 0.166041 -1.52117e-20)
(-0.0352149 0.178473 0)
(-0.0363775 0.190285 0)
(-0.0371197 0.201445 5.19142e-21)
(-0.0374504 0.211918 -5.2082e-21)
(-0.0373814 0.22167 -5.24377e-21)
(-0.0369271 0.230669 0)
(-0.0361042 0.238885 1.58598e-20)
(-0.0349304 0.246297 -5.29493e-21)
(-0.0334238 0.252888 5.63136e-24)
(-0.0316025 0.258648 -1.5977e-20)
(-0.0294842 0.263578 -1.06742e-20)
(-0.0270868 0.267682 -5.35916e-21)
(-0.0244278 0.270976 1.6044e-20)
(-0.0215242 0.27348 -1.60726e-20)
(-0.0183925 0.275221 1.60882e-20)
(-0.0150487 0.27623 -2.14007e-20)
(-0.0115084 0.276543 -5.33327e-21)
(-0.00778655 0.276202 3.4643e-23)
(-0.00389781 0.275248 -1.59859e-20)
(0.000142481 0.273726 -1.06518e-20)
(0.00431805 0.271682 2.12953e-20)
(0.00861156 0.269162 -2.12107e-20)
(0.013004 0.266214 -5.26734e-21)
(0.0174735 0.262885 -2.11218e-20)
(0.0219952 0.259221 6.92181e-24)
(0.0265541 0.255264 5.24908e-21)
(0.0311203 0.251117 -2.08684e-20)
(0.0355047 0.24691 -3.02512e-20)
(-0.00053247 0.0052841 -1.99817e-21)
(-0.0026189 0.0183015 -4.35246e-21)
(-0.00595344 0.0333491 -2.00387e-20)
(-0.0097836 0.0492662 0)
(-0.0138881 0.0653865 2.31763e-21)
(-0.0180423 0.0813445 -2.35708e-21)
(-0.022091 0.0969299 -2.87272e-20)
(-0.0259231 0.11203 9.71305e-21)
(-0.0294547 0.126585 -4.91929e-21)
(-0.0326252 0.140572 2.98235e-20)
(-0.0353971 0.153976 1.00456e-20)
(-0.0377483 0.166782 5.07517e-21)
(-0.0396678 0.178974 -2.04349e-20)
(-0.0411519 0.19053 0)
(-0.0422027 0.201423 0)
(-0.0428271 0.211622 1.04355e-20)
(-0.0430357 0.221096 2.85015e-23)
(-0.0428423 0.229814 -1.05051e-20)
(-0.042263 0.23775 -1.05655e-20)
(-0.0413145 0.244882 -2.11749e-20)
(-0.0400137 0.251196 3.18714e-20)
(-0.0383782 0.256683 2.58672e-23)
(-0.0364254 0.261343 -9.16656e-24)
(-0.0341719 0.265183 1.06604e-20)
(-0.0316349 0.268218 -2.14052e-20)
(-0.028831 0.270468 4.27384e-20)
(-0.0257761 0.271961 0)
(-0.0224858 0.272728 1.07031e-20)
(-0.0189751 0.272807 1.06963e-20)
(-0.0152587 0.272237 2.13722e-20)
(-0.0113514 0.271063 3.45983e-23)
(-0.00726885 0.26933 0)
(-0.00302793 0.267086 1.06242e-20)
(0.0013532 0.264381 -1.05327e-20)
(0.00585405 0.261265 -1.04919e-20)
(0.0104503 0.25779 3.16141e-20)
(0.0151145 0.254005 -3.13613e-20)
(0.0198287 0.24996 2.09204e-20)
(0.0245515 0.245764 -3.11211e-20)
(0.0290942 0.241552 1.19929e-20)
(-0.00066746 0.00566032 1.59824e-20)
(-0.00306661 0.0191738 -1.73921e-20)
(-0.00675452 0.0345531 3.56128e-20)
(-0.0109452 0.0506834 0)
(-0.0154097 0.0669206 1.38916e-20)
(-0.0199192 0.0829167 2.35566e-20)
(-0.0243161 0.0984737 4.79676e-21)
(-0.0284881 0.113489 4.01388e-24)
(-0.0323522 0.127917 1.47405e-20)
(-0.0358474 0.141736 -4.98222e-21)
(-0.0389353 0.154939 2.50917e-20)
(-0.0415929 0.167521 -3.0399e-20)
(-0.0438091 0.179468 3.06394e-20)
(-0.0455785 0.190765 -1.03005e-20)
(-0.0469017 0.201389 1.03435e-20)
(-0.0477851 0.211311 -2.08191e-20)
(-0.0482388 0.220504 -3.13994e-20)
(-0.0482751 0.228938 1.04953e-20)
(-0.047909 0.23659 -1.05636e-20)
(-0.0471566 0.243439 3.17397e-20)
(-0.0460342 0.249472 -2.12307e-20)
(-0.0445583 0.254682 -2.12424e-20)
(-0.0427456 0.259069 0)
(-0.0406126 0.262641 0)
(-0.0381757 0.265412 -2.13072e-20)
(-0.0354504 0.267402 -2.13601e-20)
(-0.0324521 0.26864 -2.13044e-20)
(-0.0291959 0.269157 0)
(-0.0256964 0.268992 0)
(-0.0219681 0.268184 -4.2544e-20)
(-0.0180255 0.266779 -6.52079e-23)
(-0.0138845 0.264823 2.12311e-20)
(-0.00956232 0.262368 -2.11132e-20)
(-0.00507799 0.259466 -2.11166e-20)
(-0.000453713 0.25617 2.10813e-20)
(0.00428418 0.252537 0)
(0.00910576 0.248625 2.0926e-20)
(0.0139888 0.244487 -4.15785e-20)
(0.0188823 0.24024 4.14561e-20)
(0.0235952 0.236025 -4.79787e-20)
(-0.000814905 0.00602891 -7.99532e-21)
(-0.0035315 0.0200237 1.30426e-20)
(-0.00756119 0.0357287 -1.78015e-20)
(-0.0120947 0.0520675 0)
(-0.0168934 0.0684188 -2.31547e-20)
(-0.0217271 0.084452 -1.41352e-20)
(-0.0264385 0.0999819 1.9139e-20)
(-0.0309149 0.114916 0)
(-0.0350737 0.129216 -2.94816e-20)
(-0.0388548 0.14287 -9.94471e-21)
(-0.0422199 0.155876 -1.00318e-20)
(-0.0451459 0.168235 2.02751e-20)
(-0.0476202 0.17994 -2.04181e-20)
(-0.0496368 0.19098 1.02719e-20)
(-0.0511959 0.201335 0)
(-0.0523028 0.21098 3.12369e-20)
(-0.0529662 0.219892 1.04776e-20)
(-0.0531982 0.228042 -2.1026e-20)
(-0.0530128 0.23541 4.21448e-20)
(-0.052425 0.241976 -4.22691e-20)
(-0.0514502 0.247728 4.23236e-20)
(-0.0501046 0.25266 2.12422e-20)
(-0.0484043 0.256772 0)
(-0.046365 0.260072 2.13067e-20)
(-0.044002 0.262574 5.59828e-23)
(-0.0413304 0.264301 0)
(-0.038365 0.265279 2.13043e-20)
(-0.0351202 0.265541 -2.12927e-20)
(-0.0316102 0.265123 2.12042e-20)
(-0.0278488 0.264069 4.24738e-20)
(-0.0238507 0.262423 -4.23291e-20)
(-0.0196317 0.260234 4.22445e-20)
(-0.0152093 0.257556 0)
(-0.0106034 0.254445 0)
(-0.0058374 0.250958 4.18745e-20)
(-0.000940156 0.247158 0)
(0.00405582 0.243109 0)
(0.00912467 0.238872 -4.13585e-20)
(0.0142057 0.234571 4.11897e-20)
(0.0191036 0.230356 2.39321e-20)
(-0.000973646 0.00639745 3.99224e-21)
(-0.00401379 0.0208719 0)
(-0.00837577 0.0368951 3.55618e-20)
(-0.0132324 0.0534356 4.54041e-21)
(-0.0183399 0.0698959 4.62861e-21)
(-0.0234679 0.0859625 2.82357e-20)
(-0.0284595 0.101464 3.82389e-20)
(-0.0332031 0.116317 0)
(-0.0376183 0.130491 9.82439e-21)
(-0.0416461 0.14398 2.97845e-20)
(-0.0452482 0.156792 4.01094e-20)
(-0.0484018 0.16893 -1.01297e-20)
(-0.051094 0.180394 -3.06046e-20)
(-0.0533182 0.191177 0)
(-0.0550736 0.201264 4.13455e-20)
(-0.0563649 0.210635 0)
(-0.0572005 0.219266 6.26814e-20)
(-0.0575913 0.227134 -2.09501e-20)
(-0.0575503 0.234218 0)
(-0.0570919 0.240502 -2.11352e-20)
(-0.0562309 0.245974 -4.47804e-23)
(-0.0549828 0.250627 -2.11241e-20)
(-0.0533629 0.254464 -2.11852e-20)
(-0.0513862 0.257492 2.12611e-20)
(-0.0490673 0.259725 -2.12056e-20)
(-0.0464206 0.261186 0)
(-0.0434603 0.261901 -2.12503e-20)
(-0.0402001 0.261902 2.11692e-20)
(-0.0366536 0.261227 0)
(-0.0328345 0.259919 0)
(-0.0287571 0.258024 0)
(-0.0244372 0.255593 -4.2134e-20)
(-0.0198922 0.252682 4.19114e-20)
(-0.0151431 0.24935 0)
(-0.0102149 0.245662 -2.08932e-20)
(-0.00513794 0.241684 0)
(5.22024e-05 0.237488 4.14283e-20)
(0.00532586 0.233146 -2.05131e-20)
(0.0106137 0.228789 -4.10707e-20)
(0.0157132 0.224576 4.74532e-20)
(-0.0011443 0.00675838 2.79172e-20)
(-0.00451284 0.0216992 -3.90618e-20)
(-0.00919521 0.0380304 -6.66556e-20)
(-0.0143556 0.0547638 -3.62902e-20)
(-0.0197453 0.0713268 -9.25059e-21)
(-0.0251355 0.0874244 -1.88283e-20)
(-0.0303724 0.102897 -8.60105e-20)
(-0.0353461 0.11767 -2.90604e-20)
(-0.0399781 0.13172 -4.9055e-20)
(-0.0442116 0.14505 -4.96393e-20)
(-0.0480094 0.15767 -7.0179e-20)
(-0.0513489 0.169591 -4.04491e-20)
(-0.0542171 0.180818 2.46504e-23)
(-0.0566067 0.191349 -4.10608e-20)
(-0.058517 0.201173 -4.13451e-20)
(-0.059952 0.210272 -6.23341e-20)
(-0.0609194 0.218626 4.17057e-20)
(-0.0614292 0.226215 -2.09291e-20)
(-0.0614937 0.233019 0)
(-0.0611266 0.239024 4.21266e-20)
(-0.0603423 0.244217 0)
(-0.0591553 0.248595 8.46154e-20)
(-0.0575803 0.252159 0)
(-0.0556316 0.254916 -2.12144e-20)
(-0.0533231 0.256881 2.12651e-20)
(-0.0506686 0.258076 -4.23016e-20)
(-0.0476816 0.258526 0)
(-0.0443754 0.258264 -4.23286e-20)
(-0.0407631 0.257329 4.21526e-20)
(-0.0368578 0.255762 0)
(-0.0326737 0.253612 0)
(-0.0282265 0.250931 0)
(-0.023534 0.247779 -4.17107e-20)
(-0.0186177 0.244217 0)
(-0.0135038 0.240316 -4.15581e-20)
(-0.00822471 0.236151 8.27103e-20)
(-0.00281874 0.2318 -8.23743e-20)
(0.0026806 0.227344 4.08285e-20)
(0.00819635 0.222928 8.16464e-20)
(0.0135158 0.218719 -4.71912e-20)
(-0.00132601 0.00710798 -3.58936e-20)
(-0.00502752 0.0224994 2.36628e-23)
(-0.010018 0.0391244 3.55386e-20)
(-0.0154612 0.0560404 7.25564e-20)
(-0.0211058 0.0727004 -9.24507e-21)
(-0.0267263 0.0888258 -3.76096e-20)
(-0.0321728 0.104269 3.82107e-20)
(-0.0373379 0.118964 5.813e-20)
(-0.0421465 0.132895 1.9627e-20)
(-0.0465441 0.146068 4.95808e-20)
(-0.0504948 0.158502 4.00877e-20)
(-0.0539767 0.170212 6.06387e-20)
(-0.056977 0.181208 1.22281e-19)
(-0.0594886 0.191492 6.15883e-20)
(-0.0615102 0.201057 0)
(-0.0630456 0.20989 2.07539e-20)
(-0.0641019 0.217973 2.07894e-20)
(-0.0646883 0.225288 2.0884e-20)
(-0.0648166 0.231818 4.1993e-20)
(-0.0644998 0.237548 -2.1082e-20)
(-0.0637516 0.242468 0)
(-0.0625859 0.246575 -7.38363e-23)
(-0.0610166 0.249869 -4.22272e-20)
(-0.0590575 0.252359 4.22354e-20)
(-0.056722 0.254059 8.45478e-20)
(-0.0540231 0.254989 8.44926e-20)
(-0.0509739 0.255176 -9.10985e-24)
(-0.0475873 0.254652 4.20804e-20)
(-0.0438758 0.253455 4.20001e-20)
(-0.0398523 0.251627 -4.19047e-20)
(-0.035531 0.249218 4.1795e-20)
(-0.0309271 0.246283 4.16719e-20)
(-0.0260591 0.242882 8.32467e-20)
(-0.020949 0.239083 -1.3356e-22)
(-0.015624 0.234961 1.23883e-19)
(-0.0101184 0.230598 -5.90266e-23)
(-0.0044733 0.226082 -4.08849e-20)
(0.00127398 0.221506 -4.09075e-20)
(0.00704012 0.217026 4.05049e-20)
(0.0125991 0.212823 4.6821e-20)
(-0.00151791 0.00744309 3.18594e-20)
(-0.00555572 0.0232632 4.33662e-20)
(-0.0108416 0.0401662 2.66123e-20)
(-0.0165462 0.0572531 -2.72024e-20)
(-0.0224181 0.0740024 -4.61755e-20)
(-0.0282365 0.0901521 3.76047e-20)
(-0.0338562 0.105566 0)
(-0.0391739 0.120186 3.87131e-20)
(-0.0441179 0.134 0)
(-0.0486368 0.147024 -7.93115e-20)
(-0.0526964 0.159277 2.00421e-20)
(-0.0562759 0.170783 -1.01019e-19)
(-0.0593631 0.181555 -4.07468e-20)
(-0.0619511 0.1916 2.04991e-20)
(-0.0640385 0.200914 3.94537e-23)
(-0.0656289 0.209487 -2.07198e-20)
(-0.0667289 0.217306 -4.16832e-20)
(-0.067347 0.224354 -8.36302e-20)
(-0.0674943 0.230616 0)
(-0.0671836 0.236079 1.74479e-23)
(-0.0664279 0.240733 -4.20638e-20)
(-0.0652403 0.244574 -4.21969e-20)
(-0.0636342 0.247606 4.22268e-20)
(-0.0616227 0.249834 -4.23289e-20)
(-0.0592188 0.251274 4.21207e-20)
(-0.0564352 0.251945 -8.42827e-20)
(-0.0532846 0.251873 -1.48182e-23)
(-0.0497794 0.251089 -8.4049e-20)
(-0.0459319 0.249631 -4.19997e-20)
(-0.0417549 0.247543 3.21949e-23)
(-0.0372622 0.244875 -1.22053e-22)
(-0.0324696 0.241683 -4.16716e-20)
(-0.0273955 0.23803 -4.1536e-20)
(-0.0220626 0.233988 -1.8553e-22)
(-0.0164992 0.229637 -4.12307e-20)
(-0.0107411 0.225068 -1.99873e-22)
(-0.00483238 0.220378 -4.07468e-20)
(0.00118609 0.215673 1.21606e-19)
(0.00722607 0.211125 -4.05045e-20)
(0.0130449 0.20693 -4.67793e-20)
(-0.00171886 0.00776018 -3.1855e-20)
(-0.00609501 0.0239827 8.66904e-21)
(-0.0116629 0.0411447 -2.66212e-20)
(-0.0176075 0.0583888 -9.05828e-21)
(-0.023679 0.075219 3.69378e-20)
(-0.0296626 0.0913891 -9.39549e-21)
(-0.0354191 0.106774 9.53719e-21)
(-0.0408501 0.12132 -5.80729e-20)
(-0.0458878 0.135024 1.9586e-20)
(-0.0504844 0.147903 3.96446e-20)
(-0.0546079 0.159985 0)
(-0.0582391 0.171294 8.07777e-20)
(-0.0613666 0.181851 0)
(-0.0639838 0.191665 -8.19758e-20)
(-0.0660897 0.200736 -4.1216e-20)
(-0.0676875 0.209059 0)
(-0.0687835 0.216623 0)
(-0.0693857 0.223413 8.35354e-20)
(-0.0695049 0.229416 4.19291e-20)
(-0.0691534 0.23462 -8.39556e-20)
(-0.0683434 0.239016 4.19997e-20)
(-0.0670875 0.242602 0)
(-0.0653984 0.245378 -4.21418e-20)
(-0.0632891 0.247354 8.40924e-20)
(-0.0607722 0.248541 -4.20259e-20)
(-0.0578601 0.24896 -4.20642e-20)
(-0.0545651 0.248635 4.19194e-20)
(-0.0508997 0.247597 0)
(-0.0468759 0.245885 8.35393e-20)
(-0.0425066 0.243541 -4.16381e-20)
(-0.0378057 0.240616 -4.15895e-20)
(-0.0327893 0.237167 -7.18317e-23)
(-0.0274762 0.233261 1.65015e-19)
(-0.0218897 0.228973 -1.23353e-19)
(-0.0160589 0.224389 0)
(-0.0100211 0.219606 -4.08621e-20)
(-0.00382338 0.214735 -8.12068e-20)
(0.00248998 0.209894 4.02123e-20)
(0.00882757 0.205272 4.00654e-20)
(0.0149268 0.201086 0)
(-0.00192729 0.0080561 -6.36126e-20)
(-0.00664242 0.0246507 -8.66179e-21)
(-0.0124787 0.0420495 7.0869e-20)
(-0.0186421 0.0594352 -7.23773e-20)
(-0.0248853 0.0763368 0)
(-0.0310017 0.0925226 0)
(-0.0368587 0.107876 -1.90769e-20)
(-0.0423635 0.122353 -1.80089e-23)
(-0.0474529 0.135951 1.95742e-20)
(-0.052083 0.148693 0)
(-0.0562247 0.160611 0)
(-0.0598606 0.171734 -2.01789e-20)
(-0.0629804 0.182085 3.22691e-23)
(-0.0655783 0.191678 2.05106e-20)
(-0.0676535 0.200518 4.12156e-20)
(-0.0692094 0.208601 0)
(-0.0702517 0.21592 4.16159e-20)
(-0.0707883 0.222463 -4.1666e-20)
(-0.0708298 0.228218 -8.36641e-20)
(-0.0703878 0.233173 8.38324e-20)
(-0.0694739 0.237322 7.79424e-23)
(-0.0681002 0.240662 -4.19664e-20)
(-0.0662792 0.243195 4.20502e-20)
(-0.0640237 0.244928 -8.40058e-20)
(-0.0613459 0.245873 0)
(-0.058258 0.246049 4.19436e-20)
(-0.0547726 0.24548 -8.36697e-20)
(-0.050902 0.244198 4.17108e-20)
(-0.0466586 0.242239 -4.17136e-20)
(-0.0420553 0.239646 -4.15538e-20)
(-0.0371067 0.236471 -4.14835e-20)
(-0.0318291 0.232772 1.64969e-19)
(-0.026242 0.228616 -1.23287e-19)
(-0.0203692 0.224083 -8.18948e-20)
(-0.0142406 0.219263 8.1426e-20)
(-0.00789516 0.214263 0)
(-0.00138266 0.209202 8.07762e-20)
(0.00524926 0.204217 -8.02703e-20)
(0.011908 0.199516 -4.00649e-20)
(0.0183079 0.195338 0)
(-0.00214174 0.0083281 1.351e-19)
(-0.00719489 0.02526 6.05152e-20)
(-0.0132858 0.0428709 -7.08685e-20)
(-0.0196465 0.0603809 6.33323e-20)
(-0.0260343 0.0773425 -9.22357e-21)
(-0.0322514 0.0935383 1.87549e-20)
(-0.0381728 0.10886 0)
(-0.0437121 0.123269 -1.93364e-20)
(-0.048811 0.136767 1.95618e-20)
(-0.0534303 0.14938 1.98054e-20)
(-0.0575441 0.161144 -1.99788e-20)
(-0.0611369 0.17209 -2.01838e-20)
(-0.0642001 0.182246 2.03106e-20)
(-0.066729 0.19163 0)
(-0.0687231 0.20025 0)
(-0.0701858 0.208106 -4.14007e-20)
(-0.0711229 0.215192 4.14987e-20)
(-0.0715422 0.2215 -4.17064e-20)
(-0.0714542 0.227018 4.17406e-20)
(-0.0708697 0.231738 4.18892e-20)
(-0.0698 0.235653 -8.38057e-20)
(-0.0682566 0.23876 8.38516e-20)
(-0.0662521 0.241061 6.64257e-23)
(-0.063799 0.242563 -4.18675e-20)
(-0.0609096 0.243279 0)
(-0.0575962 0.243225 4.18216e-20)
(-0.0538715 0.242426 6.07486e-23)
(-0.0497482 0.240911 -4.15791e-20)
(-0.0452391 0.238717 0)
(-0.0403578 0.235888 8.27828e-20)
(-0.0351195 0.232472 -8.23883e-20)
(-0.0295412 0.228531 0)
(-0.0236433 0.224133 8.18523e-20)
(-0.0174502 0.21936 -8.1401e-20)
(-0.0109927 0.214307 0)
(-0.00431117 0.209088 0)
(0.00254185 0.203833 0)
(0.00951544 0.198697 -7.99265e-20)
(0.0165179 0.19391 7.94138e-20)
(0.0232379 0.189739 9.13666e-20)
(-0.00236046 0.00857348 -6.35477e-20)
(-0.00774903 0.0258046 -6.91688e-20)
(-0.0140805 0.0436001 -8.84698e-21)
(-0.0206176 0.0612148 2.71114e-20)
(-0.0271232 0.0782237 -3.68481e-20)
(-0.0334098 0.0944223 3.74942e-20)
(-0.0393601 0.10971 -3.80875e-20)
(-0.0448949 0.124053 -5.79237e-20)
(-0.0499616 0.137456 0)
(-0.0545258 0.149948 -1.97927e-20)
(-0.058565 0.161567 1.99659e-20)
(-0.0620667 0.172348 0)
(-0.0650238 0.182322 4.06532e-20)
(-0.0674329 0.19151 -4.0864e-20)
(-0.0692943 0.199922 -1.23382e-19)
(-0.0706116 0.207564 -6.49886e-23)
(-0.0713906 0.214431 8.29791e-20)
(-0.0716394 0.220517 -4.15874e-20)
(-0.0713682 0.225814 0)
(-0.0705875 0.230312 0)
(-0.0693078 0.234006 8.35932e-20)
(-0.0675409 0.236895 4.18754e-20)
(-0.0652991 0.238979 -4.18068e-20)
(-0.0625951 0.240266 -4.18294e-20)
(-0.0594413 0.240767 8.3494e-20)
(-0.0558503 0.240498 -4.16467e-20)
(-0.0518353 0.239484 8.32101e-20)
(-0.0474098 0.237753 -1.65882e-19)
(-0.0425871 0.23534 1.6538e-19)
(-0.0373819 0.232288 -1.64821e-19)
(-0.0318101 0.228648 1.64211e-19)
(-0.0258903 0.224478 -1.63555e-19)
(-0.0196435 0.21985 8.13874e-20)
(-0.0130953 0.214847 8.11027e-20)
(-0.00627732 0.209567 7.94082e-23)
(0.000768883 0.204131 7.7124e-23)
(0.00798764 0.198682 -7.98272e-20)
(0.0153249 0.193388 2.58569e-22)
(0.0226922 0.18851 -7.89681e-20)
(0.0297505 0.184344 0)
(-0.00258173 0.00879015 7.93132e-21)
(-0.00830147 0.026279 -8.63315e-21)
(-0.0148594 0.0442292 2.65185e-20)
(-0.0215525 0.061927 -3.61174e-20)
(-0.0281499 0.0789686 1.84055e-20)
(-0.0344754 0.0951615 0)
(-0.04042 0.110412 0)
(-0.0459122 0.12469 7.72282e-20)
(-0.0509053 0.138003 9.77136e-20)
(-0.0553704 0.150382 -1.97556e-20)
(-0.0592889 0.161866 9.98127e-20)
(-0.0626511 0.172494 -2.01279e-20)
(-0.0654523 0.182298 0)
(-0.0676904 0.191302 0)
(-0.0693668 0.199522 8.22206e-20)
(-0.0704854 0.206964 0)
(-0.0710525 0.213628 4.13693e-20)
(-0.0710765 0.219507 -4.15507e-20)
(-0.0705673 0.224597 0)
(-0.069535 0.228889 -8.33906e-20)
(-0.0679902 0.232379 -4.18061e-20)
(-0.0659444 0.235065 -1.25193e-19)
(-0.0634102 0.236949 -4.17698e-20)
(-0.0604005 0.238038 4.16802e-20)
(-0.0569281 0.238341 8.31708e-20)
(-0.0530062 0.237876 0)
(-0.0486487 0.236664 8.27765e-20)
(-0.04387 0.234735 1.65227e-19)
(-0.0386846 0.232122 7.05385e-23)
(-0.0331084 0.228867 -8.20584e-20)
(-0.0271588 0.225021 -8.18006e-20)
(-0.0208556 0.220642 8.13887e-20)
(-0.0142215 0.215801 8.10874e-20)
(-0.00728311 0.210582 -1.61344e-19)
(-7.30067e-05 0.205088 1.60546e-19)
(0.00736577 0.199443 -8.00676e-20)
(0.0149745 0.193801 7.94029e-20)
(0.0226959 0.188348 1.57995e-19)
(0.0304471 0.183373 7.83292e-20)
(0.03786 0.179209 8.96074e-20)
(-0.00280375 0.00897627 -6.33421e-20)
(-0.0088488 0.0266789 6.03441e-20)
(-0.0156189 0.0447516 -5.2949e-20)
(-0.0224482 0.0625086 5.40879e-20)
(-0.0291126 0.0795662 9.19304e-20)
(-0.0354475 0.0957433 -7.48398e-20)
(-0.041353 0.110953 9.50554e-20)
(-0.0467652 0.125166 5.78397e-20)
(-0.0516445 0.138393 -1.36713e-19)
(-0.055967 0.150666 3.94782e-20)
(-0.059719 0.162025 1.98836e-20)
(-0.062894 0.17251 4.02819e-20)
(-0.0654894 0.182158 4.05595e-20)
(-0.0675053 0.190994 -8.16246e-20)
(-0.0689441 0.199036 8.20746e-20)
(-0.0698105 0.206294 1.23722e-19)
(-0.0701115 0.212769 -1.24214e-19)
(-0.0698556 0.218459 1.66078e-19)
(-0.0690528 0.223358 8.31574e-20)
(-0.0677131 0.227461 1.25076e-19)
(-0.0658471 0.230764 4.164e-20)
(-0.0634665 0.233266 8.34512e-20)
(-0.0605842 0.234968 -8.32256e-20)
(-0.0572134 0.235876 0)
(-0.0533677 0.236002 -2.49218e-19)
(-0.049061 0.23536 1.65744e-19)
(-0.0443084 0.233972 -8.2718e-20)
(-0.0391254 0.231866 -8.24722e-20)
(-0.033528 0.229076 -1.22186e-22)
(-0.0275338 0.225642 0)
(-0.021162 0.221613 0)
(-0.014434 0.217047 8.08895e-20)
(-0.00737436 0.212015 -8.07049e-20)
(-1.11182e-05 0.206601 8.02599e-20)
(0.00762183 0.20091 -7.98915e-20)
(0.01548 0.19507 -7.9466e-20)
(0.0235014 0.189242 0)
(0.0316254 0.18363 -7.85313e-20)
(0.0397769 0.178555 -7.82846e-20)
(0.0475587 0.17439 -2.6759e-19)
(-0.00302475 0.00913047 6.33469e-20)
(-0.00938767 0.0270009 -6.03465e-20)
(-0.0163558 0.0451615 7.06115e-20)
(-0.0233023 0.0629518 -1.26168e-19)
(-0.0300098 0.0800068 -9.19137e-20)
(-0.036326 0.0961559 7.48394e-20)
(-0.0421601 0.111317 -1.52002e-19)
(-0.0474566 0.125464 -7.71164e-20)
(-0.0521826 0.138609 9.76292e-20)
(-0.0563205 0.150782 -1.77641e-19)
(-0.0598611 0.162025 -1.19678e-19)
(-0.0628014 0.17238 -4.02215e-20)
(-0.065142 0.181884 -1.21652e-19)
(-0.0668848 0.190567 1.22392e-19)
(-0.0680337 0.198447 -8.20738e-20)
(-0.0685947 0.205537 -8.24484e-20)
(-0.0685753 0.211841 0)
(-0.0679846 0.217358 -8.29874e-20)
(-0.0668327 0.222084 -1.24728e-19)
(-0.0651298 0.226016 4.15767e-20)
(-0.0628867 0.229151 -8.33038e-20)
(-0.0601155 0.231488 0)
(-0.0568295 0.233028 8.32244e-20)
(-0.0530427 0.233777 8.30382e-20)
(-0.0487694 0.233746 -8.26082e-20)
(-0.0440249 0.23295 0)
(-0.0388253 0.231409 0)
(-0.0331878 0.229151 0)
(-0.0271301 0.226208 -2.93065e-22)
(-0.020672 0.22262 0)
(-0.0138346 0.218435 -1.62038e-19)
(-0.00664165 0.21371 -1.88576e-22)
(0.000880419 0.208514 -1.60455e-19)
(0.0087016 0.202931 1.59793e-19)
(0.0167865 0.197066 -7.94527e-20)
(0.0250889 0.191049 7.92331e-20)
(0.0335436 0.185049 0)
(0.0420862 0.179285 1.56474e-19)
(0.0506513 0.174109 -7.76371e-20)
(0.0588138 0.16994 0)
(-0.00324301 0.00925187 7.90408e-21)
(-0.00991488 0.0272423 0)
(-0.0170671 0.0454545 -8.80933e-20)
(-0.0241124 0.06325 1.08082e-19)
(-0.0308406 0.0802817 5.50528e-20)
(-0.0371112 0.0963887 -7.47131e-20)
(-0.0428433 0.111493 7.59704e-20)
(-0.0479898 0.125572 -7.69959e-20)
(-0.0525249 0.138634 0)
(-0.0564373 0.150713 7.89278e-20)
(-0.0597228 0.161849 -7.966e-20)
(-0.0623825 0.172085 6.10454e-23)
(-0.06442 0.18146 0)
(-0.0658398 0.190003 8.14869e-20)
(-0.0666475 0.197738 -4.09192e-20)
(-0.0668504 0.204677 8.23325e-20)
(-0.0664572 0.210827 4.1286e-20)
(-0.0654775 0.216189 -8.27833e-20)
(-0.0639218 0.220761 0)
(-0.0618007 0.224542 1.24553e-19)
(-0.0591256 0.227528 4.14887e-20)
(-0.0559091 0.229719 0)
(-0.0521652 0.231118 0)
(-0.0479088 0.23173 0)
(-0.0431554 0.231565 8.27389e-20)
(-0.0379215 0.230638 0)
(-0.032225 0.22897 -8.21451e-20)
(-0.0260848 0.226585 1.63673e-19)
(-0.0195209 0.223518 -1.63152e-19)
(-0.0125552 0.219805 0)
(-0.0052115 0.215494 8.0929e-20)
(0.00248417 0.210641 -8.01932e-20)
(0.0105029 0.205313 8.01279e-20)
(0.0188126 0.199591 0)
(0.0273759 0.193581 0)
(0.0361448 0.187414 7.86252e-20)
(0.0450506 0.181261 -7.81456e-20)
(0.0540246 0.175355 1.55404e-19)
(0.0630132 0.170082 -1.54407e-19)
(0.0715657 0.165908 0)
(-0.00345689 0.0093401 5.52224e-20)
(-0.0104275 0.0274019 1.71969e-20)
(-0.01775 0.0456275 7.04656e-20)
(-0.0248768 0.063398 7.19212e-20)
(-0.0316043 0.0803835 -7.3409e-20)
(-0.0378043 0.096432 7.47129e-20)
(-0.0434055 0.11147 7.58424e-20)
(-0.0483693 0.125474 7.69956e-20)
(-0.0526777 0.138454 0)
(-0.0563254 0.150443 7.88068e-20)
(-0.059314 0.161479 7.96595e-20)
(-0.0616486 0.171607 8.03578e-20)
(-0.0633364 0.180864 0)
(-0.0643847 0.189283 -6.95021e-23)
(-0.0648013 0.196888 8.19237e-20)
(-0.0645951 0.203693 -4.11406e-20)
(-0.063776 0.209706 -4.13307e-20)
(-0.0623547 0.214932 1.24165e-19)
(-0.060342 0.21937 3.23044e-23)
(-0.0577496 0.223018 -4.15816e-20)
(-0.0545894 0.225877 -8.30158e-20)
(-0.0508749 0.227944 0)
(-0.0466211 0.229224 0)
(-0.041844 0.229721 0)
(-0.0365605 0.229447 0)
(-0.0307889 0.228414 0)
(-0.0245487 0.226645 0)
(-0.017861 0.224163 8.15632e-20)
(-0.0107484 0.221 -8.1224e-20)
(-0.00323529 0.217194 0)
(0.00465183 0.21279 0)
(0.0128842 0.207842 8.01914e-20)
(0.0214302 0.202416 0)
(0.0302551 0.196591 7.91379e-20)
(0.0393196 0.19047 -7.86847e-20)
(0.0485736 0.184183 0)
(0.0579449 0.177903 1.55492e-19)
(0.0673598 0.171873 -1.54518e-19)
(0.0767777 0.166512 0)
(0.0857265 0.162335 0)
(-0.00366494 0.00939529 -6.31137e-20)
(-0.0109228 0.0274792 -1.71745e-20)
(-0.0184022 0.0456787 1.75861e-20)
(-0.025594 0.0633924 -7.19211e-20)
(-0.0323009 0.0803065 0)
(-0.0384068 0.0962775 0)
(-0.04385 0.111235 -5.68798e-20)
(-0.0486006 0.125158 -1.92145e-20)
(-0.0526484 0.138054 -3.89677e-20)
(-0.0559946 0.149954 -3.94434e-20)
(-0.0586464 0.160896 -3.98084e-20)
(-0.0606135 0.170924 4.01055e-20)
(-0.061907 0.180076 4.03758e-20)
(-0.0625374 0.188385 -4.07494e-20)
(-0.0625151 0.195875 0)
(-0.0618508 0.202563 0)
(-0.0605561 0.208458 -8.24767e-20)
(-0.0586426 0.213567 0)
(-0.0561223 0.217889 0)
(-0.0530078 0.221426 8.27028e-20)
(-0.0493123 0.224177 2.83393e-23)
(-0.0450502 0.226143 -6.45682e-23)
(-0.0402378 0.227326 -8.26133e-20)
(-0.0348925 0.227733 8.2436e-20)
(-0.0290329 0.227373 8.21159e-20)
(-0.0226791 0.226262 -8.18422e-20)
(-0.0158528 0.224419 0)
(-0.00857755 0.221868 8.12912e-20)
(-0.000878562 0.218641 -3.28148e-23)
(0.00721691 0.214773 -8.05581e-20)
(0.0156795 0.21031 0)
(0.0244774 0.205304 0)
(0.0335762 0.199818 7.92254e-20)
(0.0429384 0.193929 -7.87885e-20)
(0.0525221 0.187735 -7.82964e-20)
(0.0622754 0.181364 7.78328e-20)
(0.0721223 0.174989 0)
(0.0819835 0.168859 0)
(0.0918322 0.163424 0)
(0.101181 0.159251 -8.57767e-20)
(-0.0038659 0.00941814 7.86936e-20)
(-0.0113986 0.0274749 -3.43082e-20)
(-0.0190217 0.0456078 1.75653e-20)
(-0.0262629 0.0632309 0)
(-0.0329307 0.0800464 9.15079e-20)
(-0.0389206 0.0959187 1.73374e-23)
(-0.0441807 0.110781 7.57248e-20)
(-0.0486898 0.124612 -5.76367e-20)
(-0.0524454 0.137419 7.78225e-20)
(-0.0554556 0.149229 -3.93302e-20)
(-0.0577331 0.160083 0)
(-0.059293 0.170019 4.01226e-20)
(-0.0601503 0.179076 -1.21206e-19)
(-0.0603191 0.187287 0)
(-0.0598126 0.194677 1.22583e-19)
(-0.0586441 0.201263 -8.19985e-20)
(-0.0568267 0.207058 -8.23369e-20)
(-0.0543737 0.212068 4.12487e-20)
(-0.0512984 0.216295 0)
(-0.0476147 0.219741 -8.27478e-20)
(-0.0433372 0.222406 -8.26684e-20)
(-0.0384819 0.224291 -8.02531e-23)
(-0.0330665 0.225401 8.23621e-20)
(-0.0271101 0.225741 8.22412e-20)
(-0.0206331 0.225322 -1.6414e-19)
(-0.0136579 0.224159 8.18405e-20)
(-0.00620862 0.22227 0)
(0.00168862 0.219681 -8.09302e-20)
(0.0100057 0.21642 8.05344e-20)
(0.0187125 0.212525 8.0113e-20)
(0.0277764 0.208039 -7.96707e-20)
(0.0371627 0.203011 7.92114e-20)
(0.0468337 0.197504 0)
(0.0567491 0.19159 7.84054e-20)
(0.0668646 0.185365 1.55654e-19)
(0.0771259 0.178952 -1.54924e-19)
(0.0874536 0.172519 1.53889e-19)
(0.0977623 0.16632 -9.08863e-24)
(0.108039 0.160831 -7.61575e-20)
(0.117787 0.156673 1.70485e-19)
(-0.00405874 0.00940983 -4.7222e-20)
(-0.0118529 0.0273909 -1.02745e-19)
(-0.019607 0.0454159 7.01358e-20)
(-0.0268827 0.0629131 -5.37595e-20)
(-0.0334942 0.0796006 -1.83744e-20)
(-0.039348 0.0953503 1.86083e-20)
(-0.0444019 0.110099 -3.78484e-20)
(-0.0486434 0.123825 -3.83596e-20)
(-0.0520777 0.136535 3.89019e-20)
(-0.0547199 0.148255 -7.86437e-20)
(-0.0565887 0.15902 -5.09806e-23)
(-0.0577044 0.16887 4.00391e-20)
(-0.0580867 0.177841 0)
(-0.0577533 0.185965 -4.06391e-20)
(-0.0567209 0.193269 -4.08873e-20)
(-0.0550054 0.19977 8.20346e-20)
(-0.052622 0.205482 0)
(-0.0495859 0.21041 0)
(-0.0459121 0.214561 8.254e-20)
(-0.0416163 0.217936 -8.25505e-20)
(-0.0367148 0.220536 0)
(-0.0312255 0.222364 8.24235e-20)
(-0.0251678 0.223423 -8.23839e-20)
(-0.0185628 0.223721 -1.64141e-19)
(-0.0114331 0.223268 4.50318e-23)
(-0.00380336 0.222079 8.16171e-20)
(0.00429949 0.220173 -1.6228e-19)
(0.0128465 0.217574 8.09284e-20)
(0.0218067 0.214313 -8.05325e-20)
(0.0311467 0.210423 -1.73108e-22)
(0.040831 0.205949 1.11959e-22)
(0.0508213 0.200937 -7.92095e-20)
(0.0610772 0.195448 -7.84207e-20)
(0.0715552 0.189552 -7.79239e-20)
(0.0822084 0.183338 -3.41435e-22)
(0.0929806 0.176926 0)
(0.103789 0.170477 -7.64017e-20)
(0.114541 0.164243 1.52145e-19)
(0.125238 0.158727 -2.26944e-19)
(0.135381 0.154601 -2.19574e-22)
(-0.00424268 0.00937196 -1.57046e-20)
(-0.0122842 0.0272297 1.36872e-19)
(-0.0201569 0.0451052 -7.01431e-20)
(-0.0274533 0.0624402 5.37682e-20)
(-0.0339924 0.0789683 -1.46167e-19)
(-0.0396916 0.0945692 1.85888e-20)
(-0.0445181 0.109184 -7.55585e-20)
(-0.048468 0.12279 0)
(-0.0515546 0.135393 0)
(-0.0537997 0.147016 -7.85405e-20)
(-0.0552283 0.157692 3.97084e-20)
(-0.0558663 0.167458 -3.29154e-23)
(-0.0557381 0.17635 4.03054e-20)
(-0.0548657 0.184398 0)
(-0.0532694 0.191628 -1.2235e-19)
(-0.050968 0.198058 4.09388e-20)
(-0.0479796 0.203701 -8.21141e-20)
(-0.0443212 0.208566 0)
(-0.0400103 0.212659 0)
(-0.0350645 0.215982 5.7116e-23)
(-0.0295023 0.218538 -8.23961e-20)
(-0.0233438 0.22033 8.22158e-20)
(-0.0166105 0.221361 -8.20978e-20)
(-0.00932557 0.221641 8.19213e-20)
(-0.00151413 0.221179 5.75381e-23)
(0.00679641 0.219991 6.86023e-23)
(0.0155764 0.218096 8.10689e-20)
(0.0247938 0.215518 -8.04571e-20)
(0.0344147 0.212286 0)
(0.0444025 0.208435 -7.96624e-20)
(0.0547185 0.204007 7.92824e-20)
(0.0653213 0.199049 0)
(0.0761672 0.193617 7.84187e-20)
(0.0872102 0.18778 -7.75359e-20)
(0.0984004 0.181621 7.71492e-20)
(0.10968 0.175253 0)
(0.120963 0.168832 2.2881e-19)
(0.13215 0.162605 -1.51455e-19)
(0.143254 0.157092 0)
(0.153784 0.153021 8.39564e-20)
(-0.00441722 0.0093065 1.25371e-19)
(-0.0126916 0.0269951 -6.83918e-20)
(-0.0206708 0.0446794 -1.7509e-20)
(-0.0279744 0.0618147 1.78844e-20)
(-0.0344262 0.0781504 7.30355e-20)
(-0.0399537 0.0935742 0)
(-0.0445335 0.108031 7.55586e-20)
(-0.0481703 0.121499 1.1483e-19)
(-0.0508851 0.133982 3.87814e-20)
(-0.052707 0.1455 3.92617e-20)
(-0.0536673 0.156084 3.96222e-20)
(-0.0537975 0.165768 -1.20045e-19)
(-0.0531272 0.174584 4.02701e-20)
(-0.051683 0.182563 1.62111e-19)
(-0.0494889 0.189729 4.0775e-20)
(-0.0465676 0.1961 4.0899e-20)
(-0.0429397 0.20169 8.21132e-20)
(-0.0386251 0.206508 0)
(-0.0336436 0.21056 0)
(-0.0280155 0.21385 1.64693e-19)
(-0.0217618 0.216382 -3.28924e-19)
(-0.0149049 0.218158 -5.55376e-23)
(-0.00746894 0.219184 0)
(0.000520475 0.219468 0)
(0.00903562 0.219022 8.1537e-20)
(0.0180462 0.217861 0)
(0.0275194 0.216004 0)
(0.0374204 0.213475 -8.00159e-20)
(0.047712 0.210303 -1.59589e-19)