/*--------------------------------*- C++ -*----------------------------------*\
  =========                 |
  \\      /  F ield         | OpenFOAM: The Open Source CFD Toolbox
   \\    /   O peration     | Website:  https://openfoam.org
    \\  /    A nd           | Version:  7
     \\/     M anipulation  |
\*---------------------------------------------------------------------------*/
FoamFile
{
    version     2.0;
    format      ascii;
    class       volScalarField;
    location    "6.6";
    object      p;
}
// * * * * * * * * * * * * * * * * * * * * * * * * * * * * * * * * * * * * * //

dimensions      [0 2 -2 0 0 0 0];

internalField   nonuniform List<scalar> 
18000
(
0.596035
0.596602
0.596924
0.597215
0.597451
0.597672
0.597947
0.598346
0.598918
0.599697
0.600713
0.601991
0.603559
0.605432
0.60761
0.61008
0.612828
0.615836
0.619085
0.62255
0.6262
0.629997
0.633906
0.637892
0.641924
0.645972
0.650008
0.654012
0.657945
0.661729
0.595446
0.59594
0.596223
0.596477
0.59668
0.596868
0.597113
0.597479
0.598012
0.598749
0.599715
0.600935
0.602431
0.604219
0.606298
0.608659
0.611288
0.614168
0.617278
0.620593
0.624085
0.627719
0.631459
0.635272
0.639128
0.642999
0.64686
0.650689
0.654444
0.658074
0.594866
0.595282
0.595524
0.595739
0.595913
0.596076
0.5963
0.596643
0.597146
0.597846
0.598771
0.59994
0.601374
0.603084
0.605071
0.607328
0.609842
0.612596
0.615569
0.618735
0.622068
0.625534
0.629101
0.632735
0.636408
0.640095
0.643771
0.647415
0.65098
0.654443
0.594279
0.594609
0.594816
0.594998
0.59515
0.5953
0.595511
0.595838
0.596321
0.596993
0.597884
0.599011
0.600389
0.602028
0.603929
0.606087
0.608491
0.611122
0.613958
0.616974
0.620146
0.623441
0.62683
0.63028
0.633765
0.63726
0.640742
0.644189
0.647554
0.650834
0.593702
0.593944
0.594117
0.594269
0.594403
0.594544
0.594748
0.595066
0.595536
0.59619
0.597055
0.598146
0.599473
0.601047
0.602869
0.604935
0.607233
0.609743
0.612442
0.615309
0.618318
0.62144
0.624647
0.627909
0.631199
0.634493
0.637772
0.641013
0.644164
0.647249
0.593123
0.593275
0.593416
0.593543
0.593663
0.593801
0.594005
0.594323
0.594788
0.595434
0.59628
0.59734
0.598623
0.600138
0.601889
0.603869
0.606065
0.608456
0.61102
0.613736
0.616582
0.61953
0.622551
0.62562
0.628709
0.631796
0.634861
0.637885
0.640814
0.643691
0.592545
0.592608
0.592718
0.592823
0.592934
0.593074
0.593284
0.593608
0.594079
0.594722
0.595556
0.59659
0.597836
0.599301
0.600987
0.602887
0.604984
0.607257
0.609687
0.612255
0.614937
0.617709
0.620543
0.623414
0.626297
0.629168
0.632012
0.63481
0.637506
0.640163
0.591963
0.591939
0.59202
0.592106
0.592212
0.592357
0.59258
0.59292
0.593403
0.594051
0.594878
0.595894
0.597108
0.59853
0.600159
0.601983
0.603984
0.606143
0.608441
0.610862
0.613381
0.615976
0.618621
0.621292
0.623963
0.626613
0.629228
0.63179
0.634246
0.636672
0.591373
0.591266
0.59132
0.591389
0.591492
0.591648
0.591891
0.592253
0.592756
0.593414
0.59424
0.595244
0.596436
0.597822
0.599399
0.601151
0.60306
0.605108
0.607278
0.609552
0.611911
0.614329
0.616785
0.619253
0.621709
0.624133
0.626513
0.628833
0.631041
0.633224
0.590772
0.590586
0.590612
0.590667
0.590772
0.590943
0.591212
0.591603
0.59213
0.592806
0.593638
0.594638
0.595814
0.597171
0.5987
0.600385
0.602206
0.604147
0.606191
0.608323
0.610522
0.612767
0.615033
0.617297
0.619536
0.62173
0.623871
0.625944
0.6279
0.62983
0.590156
0.589894
0.589895
0.589938
0.590048
0.59024
0.590539
0.590964
0.591522
0.59222
0.593065
0.594068
0.595236
0.596569
0.598055
0.599677
0.601416
0.603254
0.605177
0.607169
0.609212
0.611285
0.613363
0.615423
0.617444
0.619409
0.621307
0.623131
0.624831
0.626498
0.589519
0.589186
0.589164
0.589198
0.589317
0.589534
0.589868
0.590331
0.590924
0.59165
0.592515
0.593528
0.594693
0.596008
0.597457
0.599022
0.600683
0.602424
0.604229
0.606086
0.607976
0.60988
0.611772
0.61363
0.615434
0.61717
0.618827
0.620399
0.621843
0.623241
0.588857
0.588457
0.588415
0.588442
0.588575
0.588821
0.589195
0.589699
0.590332
0.591091
0.591981
0.593009
0.594178
0.59548
0.596897
0.59841
0.599999
0.601647
0.60334
0.605066
0.606808
0.608546
0.610256
0.611915
0.613506
0.615015
0.616432
0.617754
0.618945
0.620068
0.588165
0.587703
0.587644
0.587668
0.587817
0.588096
0.588512
0.589062
0.589738
0.590534
0.591454
0.592504
0.593681
0.594975
0.596367
0.597833
0.599354
0.600914
0.602501
0.604102
0.605701
0.607278
0.60881
0.610275
0.611657
0.612943
0.614124
0.6152
0.616142
0.616991
0.587438
0.586918
0.586845
0.586869
0.587038
0.587353
0.587815
0.588414
0.589136
0.589973
0.590928
0.592003
0.593194
0.594486
0.595856
0.59728
0.598739
0.600217
0.601702
0.603184
0.604647
0.606069
0.607427
0.608703
0.609882
0.610951
0.611902
0.612739
0.613442
0.614018
0.586671
0.586099
0.586015
0.586041
0.586234
0.586588
0.587097
0.587747
0.588518
0.5894
0.590393
0.591498
0.592708
0.594001
0.595353
0.59674
0.598142
0.599543
0.600934
0.602304
0.603635
0.604907
0.606098
0.607191
0.608174
0.609035
0.609765
0.610372
0.610848
0.611158
0.58586
0.585241
0.585148
0.585181
0.5854
0.585794
0.586353
0.587055
0.587877
0.588807
0.589842
0.590982
0.592212
0.59351
0.594849
0.596203
0.597552
0.598883
0.600186
0.601449
0.602654
0.603781
0.604811
0.605728
0.606523
0.607185
0.607706
0.608095
0.608358
0.608414
0.585002
0.58434
0.584241
0.584284
0.584531
0.584967
0.585576
0.586332
0.587207
0.588187
0.589267
0.590444
0.591698
0.593004
0.594332
0.595657
0.596958
0.598224
0.599445
0.600606
0.601691
0.602679
0.603553
0.604302
0.604918
0.605392
0.605715
0.605901
0.605967
0.605784
0.584093
0.583392
0.583291
0.583346
0.583623
0.584101
0.584761
0.585571
0.5865
0.587533
0.588662
0.589878
0.591158
0.592472
0.593792
0.59509
0.596349
0.597555
0.598697
0.599762
0.600731
0.601584
0.602309
0.602898
0.603344
0.603641
0.60378
0.603777
0.603665
0.603264
0.583129
0.582394
0.582293
0.582364
0.582672
0.583193
0.583903
0.584767
0.585752
0.586839
0.588019
0.589275
0.590581
0.591905
0.593217
0.594492
0.595711
0.596861
0.59793
0.598901
0.599757
0.600481
0.601063
0.601498
0.601783
0.601915
0.601883
0.601707
0.601437
0.600844
0.582104
0.58134
0.581242
0.581332
0.581673
0.582238
0.582998
0.583915
0.584955
0.586099
0.587329
0.588626
0.589958
0.591292
0.592597
0.59385
0.595031
0.596128
0.597125
0.598006
0.598753
0.599351
0.599796
0.600084
0.600217
0.600193
0.600005
0.599673
0.599265
0.598507
0.581014
0.580226
0.580134
0.580247
0.580623
0.581231
0.58204
0.583009
0.584106
0.585305
0.586586
0.587922
0.589278
0.590621
0.591921
0.593152
0.594297
0.595341
0.596268
0.597059
0.597699
0.598176
0.598487
0.598635
0.598623
0.598454
0.598122
0.59765
0.597124
0.596234
0.579857
0.579048
0.578966
0.579103
0.579516
0.580168
0.581025
0.582047
0.583198
0.584452
0.585782
0.587155
0.588534
0.589884
0.591176
0.592385
0.593493
0.594484
0.59534
0.596043
0.596577
0.596934
0.597114
0.597126
0.596975
0.596669
0.596206
0.59561
0.594988
0.594
0.578626
0.577803
0.577734
0.577898
0.578349
0.579045
0.57995
0.581022
0.582228
0.583534
0.58491
0.586316
0.587714
0.58907
0.590352
0.591538
0.592607
0.593542
0.594325
0.594938
0.595365
0.595603
0.595655
0.595532
0.595246
0.594808
0.594223
0.593519
0.592821
0.591774
0.57732
0.576488
0.576434
0.576628
0.577117
0.577857
0.578809
0.579932
0.581189
0.582546
0.583962
0.585397
0.586811
0.588168
0.589438
0.590596
0.591623
0.592499
0.593206
0.593725
0.594044
0.59416
0.594082
0.593824
0.593402
0.592835
0.592134
0.591334
0.59058
0.589517
0.575935
0.575099
0.575064
0.575289
0.575817
0.576601
0.577599
0.578771
0.580078
0.581481
0.582933
0.584392
0.585816
0.58717
0.588423
0.589549
0.590528
0.59134
0.591966
0.592387
0.592592
0.592583
0.592369
0.591971
0.591409
0.590709
0.589891
0.589001
0.588208
0.587178
0.574467
0.573634
0.573621
0.57388
0.574448
0.575274
0.576317
0.577536
0.578891
0.580334
0.581817
0.583293
0.584721
0.586065
0.587295
0.588383
0.589309
0.59005
0.590588
0.590904
0.590989
0.590846
0.590489
0.589941
0.589227
0.58838
0.587433
0.586446
0.585622
0.584679
0.572912
0.57209
0.572102
0.572398
0.573007
0.573875
0.574961
0.576225
0.577622
0.5791
0.580606
0.582092
0.583518
0.584845
0.586044
0.587087
0.587951
0.588614
0.589055
0.589258
0.589214
0.588927
0.588415
0.5877
0.586813
0.585793
0.584687
0.583579
0.582718
0.581931
0.571268
0.570465
0.570508
0.570843
0.571493
0.572401
0.573528
0.574833
0.576267
0.577774
0.579296
0.580784
0.582198
0.5835
0.584659
0.585647
0.58644
0.587015
0.58735
0.58743
0.587247
0.586805
0.586121
0.585219
0.584126
0.582886
0.581557
0.580259
0.579338
0.57884
0.569533
0.56876
0.568837
0.569214
0.569904
0.570851
0.572016
0.573357
0.574822
0.576349
0.577878
0.57936
0.580753
0.58202
0.583128
0.58405
0.584761
0.585238
0.585457
0.585404
0.585071
0.584463
0.583593
0.582477
0.581137
0.579598
0.577901
0.57616
0.574734
0.573986
0.674122
0.69022
0.701348
0.710039
0.715829
0.720292
0.723359
0.72556
0.727022
0.727898
0.728272
0.728221
0.727804
0.727048
0.726031
0.724762
0.72325
0.721583
0.719734
0.717712
0.715552
0.71323
0.710798
0.708246
0.705619
0.702922
0.700223
0.697575
0.695263
0.693449
0.670285
0.68607
0.697273
0.706101
0.712033
0.716624
0.719827
0.722163
0.723716
0.724669
0.725123
0.725141
0.724786
0.724107
0.723127
0.721895
0.720452
0.718814
0.716999
0.715025
0.712883
0.710603
0.708189
0.705664
0.703051
0.700372
0.697684
0.695048
0.69273
0.690917
0.666412
0.68187
0.693133
0.702105
0.708195
0.71293
0.716283
0.718761
0.720409
0.721445
0.721978
0.722063
0.72177
0.721167
0.720226
0.719035
0.71766
0.716052
0.714274
0.712348
0.710227
0.707991
0.705597
0.703103
0.700508
0.697851
0.695177
0.692554
0.69023
0.688419
0.662485
0.677622
0.688928
0.698043
0.704309
0.709225
0.71273
0.715342
0.717099
0.718229
0.718837
0.718992
0.718762
0.718217
0.717331
0.716192
0.714865
0.7133
0.711561
0.709673
0.70759
0.705386
0.703028
0.700563
0.697995
0.69536
0.692704
0.690091
0.687766
0.685953
0.658508
0.673324
0.684653
0.693919
0.700379
0.705499
0.709167
0.711915
0.713789
0.715019
0.715703
0.715928
0.715761
0.715265
0.714444
0.713361
0.712071
0.710556
0.70886
0.707005
0.704968
0.702794
0.700476
0.698044
0.695508
0.6929
0.690262
0.687659
0.685336
0.683519
0.654482
0.668972
0.680299
0.689735
0.696405
0.701747
0.705594
0.708487
0.710483
0.711813
0.712577
0.712869
0.712766
0.712322
0.711561
0.710534
0.709285
0.707819
0.706168
0.704349
0.702358
0.700219
0.697941
0.695546
0.693043
0.690466
0.68785
0.68526
0.68294
0.681115
0.650406
0.664567
0.675863
0.685488
0.692386
0.697968
0.702011
0.705061
0.707182
0.708613
0.709457
0.709817
0.709779
0.709389
0.708684
0.707712
0.706508
0.705089
0.703485
0.701706
0.69976
0.69766
0.695424
0.693068
0.690601
0.688059
0.685467
0.682892
0.680577
0.678745
0.646281
0.660109
0.671344
0.681174
0.688318
0.694161
0.698418
0.701636
0.703888
0.705419
0.706346
0.706774
0.706799
0.706465
0.705815
0.704897
0.703741
0.70237
0.700812
0.699076
0.697174
0.695118
0.692925
0.690612
0.688183
0.685678
0.683114
0.680555
0.678247
0.676407
0.642109
0.655601
0.66674
0.67679
0.6842
0.690327
0.694815
0.698212
0.700601
0.702235
0.703246
0.703741
0.703828
0.703551
0.702955
0.702092
0.700984
0.699661
0.698149
0.696459
0.694602
0.692592
0.690444
0.688178
0.685788
0.683323
0.68079
0.678251
0.675949
0.674102
0.637896
0.651047
0.662052
0.672334
0.680029
0.686462
0.691201
0.694789
0.697321
0.69906
0.700156
0.70072
0.700868
0.700647
0.700106
0.699297
0.698238
0.696964
0.695498
0.693854
0.692045
0.690082
0.687982
0.685764
0.683418
0.680992
0.678496
0.675979
0.673685
0.671829
0.633649
0.646452
0.657283
0.667804
0.675804
0.682568
0.687577
0.691369
0.694049
0.695897
0.697079
0.697711
0.69792
0.697756
0.697269
0.696512
0.695503
0.694278
0.692858
0.691261
0.689502
0.687588
0.685537
0.68337
0.681071
0.678687
0.67623
0.673739
0.671454
0.66959
0.62938
0.641825
0.652437
0.6632
0.671522
0.678641
0.683942
0.687951
0.690788
0.692749
0.694015
0.694717
0.694986
0.694877
0.694443
0.693738
0.692779
0.691603
0.690229
0.688681
0.686973
0.685109
0.68311
0.680995
0.678746
0.676408
0.673993
0.671532
0.669258
0.667385
0.625103
0.637176
0.647522
0.658522
0.667184
0.674681
0.680296
0.684537
0.687539
0.689615
0.690968
0.691738
0.692066
0.692012
0.691632
0.690977
0.690066
0.688939
0.687613
0.686113
0.684458
0.682646
0.6807
0.678639
0.676444
0.674154
0.671785
0.669357
0.667097
0.665215
0.620833
0.632519
0.64255
0.653774
0.66279
0.670686
0.676639
0.681126
0.684302
0.686497
0.687936
0.688775
0.689162
0.689163
0.688834
0.688228
0.687366
0.686287
0.68501
0.683559
0.681957
0.680198
0.678307
0.676303
0.674164
0.671926
0.669607
0.667215
0.664973
0.663083
0.616589
0.62787
0.637535
0.648961
0.658341
0.666656
0.67297
0.677719
0.681077
0.683395
0.684922
0.685829
0.686274
0.68633
0.686051
0.685492
0.684677
0.683646
0.682418
0.681017
0.67947
0.677765
0.67593
0.673985
0.671905
0.669722
0.667458
0.665107
0.662885
0.660989
0.612392
0.623249
0.632496
0.64409
0.65384
0.662593
0.66929
0.674316
0.677866
0.680309
0.681926
0.682901
0.683404
0.683513
0.683283
0.68277
0.682002
0.681018
0.67984
0.678487
0.676996
0.675346
0.673569
0.671684
0.669667
0.667543
0.665337
0.663033
0.660837
0.658935
0.608263
0.618678
0.627455
0.639174
0.649294
0.658497
0.665599
0.670917
0.67467
0.677241
0.678949
0.679992
0.680552
0.680712
0.68053
0.680061
0.679339
0.678401
0.677274
0.675969
0.674534
0.672941
0.671222
0.669399
0.667449
0.665386
0.663243
0.660992
0.658828
0.656923
0.604224
0.614183
0.622437
0.634228
0.644708
0.654374
0.661897
0.667525
0.671488
0.674193
0.675992
0.677104
0.677719
0.677929
0.677792
0.677366
0.676689
0.675797
0.674719
0.673464
0.672083
0.670549
0.66889
0.667128
0.665247
0.66325
0.661176
0.658986
0.656861
0.654955
0.600298
0.60979
0.617469
0.629271
0.640095
0.650228
0.658188
0.66414
0.668323
0.671166
0.673058
0.674238
0.674906
0.675163
0.67507
0.674687
0.674053
0.673204
0.672176
0.67097
0.669643
0.668168
0.666569
0.66487
0.66306
0.661135
0.659134
0.657015
0.654937
0.653035
0.596506
0.605526
0.612583
0.624324
0.635466
0.646064
0.654472
0.660762
0.665174
0.668162
0.670148
0.671394
0.672114
0.672415
0.672364
0.672022
0.67143
0.670624
0.669644
0.668488
0.667213
0.665797
0.664259
0.662623
0.660887
0.659039
0.657118
0.655078
0.653058
0.651166
0.59287
0.601418
0.60781
0.619412
0.630838
0.64189
0.650754
0.657392
0.662043
0.66518
0.667262
0.668574
0.669344
0.669686
0.669675
0.669372
0.66882
0.668056
0.667123
0.666017
0.664793
0.663435
0.661958
0.660387
0.658726
0.65696
0.655126
0.653176
0.651228
0.649354
0.58941
0.597489
0.603182
0.614561
0.626229
0.637714
0.647037
0.65403
0.65893
0.662221
0.664399
0.665778
0.666595
0.666976
0.667003
0.666737
0.666224
0.6655
0.664612
0.663556
0.662381
0.661081
0.659664
0.65816
0.656577
0.654897
0.653157
0.651308
0.649449
0.647604
0.586146
0.593762
0.598729
0.609797
0.621658
0.633549
0.643325
0.650679
0.655834
0.659285
0.66156
0.663005
0.663868
0.664287
0.664349
0.664117
0.663641
0.662957
0.662112
0.661103
0.659977
0.658733
0.657378
0.655941
0.654436
0.652848
0.651208
0.649475
0.647723
0.645922
0.583098
0.590254
0.594478
0.605151
0.617146
0.629407
0.639625
0.647342
0.652756
0.656371
0.658747
0.660258
0.661165
0.661619
0.661713
0.661513
0.661072
0.660426
0.659622
0.658659
0.65758
0.656392
0.655096
0.653727
0.652302
0.650809
0.649278
0.647673
0.646052
0.644318
0.580287
0.586978
0.590454
0.600651
0.612715
0.625303
0.635942
0.644021
0.649699
0.653482
0.65596
0.657538
0.658486
0.658972
0.659096
0.658925
0.658517
0.657907
0.657142
0.656224
0.655189
0.654055
0.652819
0.651518
0.650173
0.648778
0.647363
0.645901
0.644437
0.642801
0.577736
0.583942
0.586674
0.596323
0.608391
0.621253
0.632288
0.640722
0.646664
0.650619
0.653202
0.654845
0.655833
0.656348
0.656499
0.656354
0.655977
0.6554
0.654671
0.653795
0.652804
0.651721
0.650544
0.649312
0.648045
0.64675
0.645459
0.644155
0.642878
0.641385
0.575475
0.58115
0.583151
0.592194
0.6042
0.617277
0.628675
0.637452
0.643655
0.647786
0.650474
0.65218
0.653206
0.653747
0.653921
0.653801
0.653451
0.652906
0.652209
0.651374
0.650424
0.64939
0.64827
0.647106
0.645918
0.644723
0.64356
0.642429
0.641376
0.640087
0.57354
0.578605
0.579906
0.588287
0.600153
0.61336
0.625072
0.634176
0.640641
0.644956
0.647755
0.649526
0.65059
0.651156
0.651353
0.651255
0.650931
0.650414
0.649749
0.648952
0.648042
0.647056
0.645992
0.644894
0.643784
0.642689
0.641657
0.640714
0.639922
0.638929
0.57195
0.576256
0.576904
0.584559
0.596168
0.609396
0.621368
0.630792
0.637535
0.642056
0.644986
0.646834
0.647944
0.648542
0.648763
0.648691
0.648393
0.647907
0.647273
0.646513
0.645645
0.644706
0.643699
0.642666
0.641633
0.640638
0.63974
0.638994
0.638507
0.637942
0.570954
0.573962
0.573964
0.58091
0.592267
0.605516
0.617734
0.627467
0.634479
0.639199
0.642253
0.644173
0.645326
0.64595
0.646192
0.646141
0.645865
0.645407
0.644801
0.644074
0.643245
0.642349
0.641394
0.640421
0.639461
0.63856
0.637789
0.637244
0.637095
0.63714
0.569654
0.566659
0.564221
0.569839
0.581447
0.595568
0.608837
0.619467
0.627108
0.632183
0.635365
0.637272
0.638353
0.638899
0.639081
0.638998
0.638711
0.638262
0.637682
0.637001
0.63624
0.635429
0.63459
0.633757
0.632973
0.632302
0.631855
0.631841
0.632687
0.635021
0.547922
0.547965
0.548633
0.556031
0.568061
0.581586
0.594107
0.604255
0.611713
0.616833
0.620179
0.622291
0.623577
0.624313
0.624672
0.624758
0.624637
0.624358
0.623952
0.623451
0.622879
0.622264
0.621634
0.621028
0.620496
0.620122
0.620047
0.620543
0.62216
0.625544
0.525843
0.530595
0.535298
0.544198
0.555809
0.568076
0.579392
0.588762
0.595889
0.600988
0.604483
0.606812
0.60833
0.60929
0.609858
0.610144
0.610216
0.610125
0.609908
0.609596
0.609215
0.608794
0.608364
0.607964
0.607649
0.607507
0.607678
0.608432
0.610326
0.613999
0.506061
0.514368
0.521853
0.531336
0.542255
0.553452
0.563828
0.572612
0.579517
0.584657
0.588335
0.590903
0.592669
0.593868
0.594666
0.595171
0.595455
0.59557
0.595553
0.595436
0.595247
0.595015
0.594772
0.594557
0.594424
0.594456
0.594787
0.595667
0.597617
0.601323
0.487508
0.497858
0.506929
0.516713
0.527211
0.537724
0.547441
0.555788
0.562542
0.567761
0.571658
0.574504
0.576561
0.578043
0.579109
0.579866
0.580389
0.58073
0.580928
0.581014
0.581018
0.58097
0.580899
0.580844
0.580856
0.581013
0.581439
0.582364
0.584258
0.587858
0.469197
0.480599
0.490609
0.500681
0.510972
0.521019
0.530244
0.538263
0.54492
0.550243
0.554378
0.55753
0.559914
0.561718
0.563089
0.564132
0.564921
0.56551
0.565938
0.566237
0.566437
0.566567
0.566656
0.566742
0.566872
0.567118
0.567592
0.56851
0.570296
0.57373
0.450811
0.462763
0.473334
0.483605
0.493734
0.503431
0.512306
0.520106
0.526723
0.532169
0.536546
0.540009
0.542731
0.544875
0.546571
0.547921
0.548996
0.549849
0.550519
0.55104
0.55144
0.551747
0.551989
0.552203
0.552432
0.552744
0.55324
0.554123
0.555774
0.559009
0.432233
0.444465
0.455329
0.465677
0.47566
0.485108
0.493755
0.501427
0.508048
0.513627
0.518237
0.521999
0.525052
0.527534
0.52956
0.531223
0.532591
0.533715
0.534636
0.535384
0.535988
0.536474
0.536868
0.537206
0.537527
0.537896
0.538403
0.539236
0.54074
0.543753
0.413378
0.425723
0.436701
0.447052
0.456921
0.466202
0.474704
0.482307
0.48896
0.494672
0.499501
0.503542
0.506909
0.509716
0.512064
0.514036
0.515695
0.517092
0.518264
0.519242
0.520051
0.520717
0.521264
0.521726
0.52214
0.522565
0.523082
0.523865
0.525218
0.527974
0.394192
0.406548
0.417541
0.427862
0.437643
0.446809
0.455219
0.462788
0.469489
0.475333
0.480366
0.484665
0.488322
0.491435
0.49409
0.49636
0.498303
0.499966
0.501386
0.50259
0.503603
0.50445
0.505154
0.505744
0.506254
0.506739
0.507271
0.508009
0.509219
0.511719
0.374653
0.386957
0.397912
0.408187
0.417897
0.426981
0.435332
0.442893
0.449652
0.455623
0.460844
0.465379
0.469305
0.472702
0.475645
0.478196
0.480411
0.482331
0.483988
0.485412
0.486624
0.487649
0.488507
0.489226
0.489838
0.490389
0.490945
0.491647
0.492723
0.494946
0.354747
0.366961
0.37785
0.388069
0.39772
0.406746
0.415062
0.422633
0.429457
0.435549
0.440944
0.445695
0.449866
0.453524
0.456733
0.459548
0.462018
0.46418
0.466064
0.467697
0.469103
0.470301
0.471312
0.472158
0.472869
0.473489
0.474075
0.474756
0.47573
0.477709
0.334467
0.346566
0.357372
0.367532
0.377135
0.386122
0.394421
0.402014
0.408905
0.415113
0.420668
0.425614
0.430007
0.433902
0.437356
0.440415
0.443121
0.445509
0.447605
0.449435
0.451022
0.452384
0.453539
0.454513
0.455328
0.456023
0.456645
0.457304
0.458173
0.459901
0.313803
0.325772
0.336491
0.346594
0.356158
0.365119
0.373415
0.381036
0.387996
0.394313
0.400013
0.405136
0.409728
0.413837
0.417511
0.420791
0.423714
0.42631
0.428603
0.430619
0.432375
0.43389
0.43518
0.436267
0.437172
0.437935
0.438599
0.439262
0.440075
0.441589
0.292752
0.304578
0.315213
0.325267
0.3348
0.343746
0.352046
0.3597
0.366727
0.373143
0.378974
0.384254
0.389022
0.39332
0.397191
0.400668
0.403786
0.406569
0.409041
0.411222
0.413133
0.414791
0.416211
0.417413
0.418412
0.419237
0.419924
0.420563
0.421294
0.422591
0.271314
0.282988
0.29355
0.303562
0.313072
0.322007
0.330315
0.338003
0.345092
0.351598
0.357544
0.362959
0.367879
0.372342
0.376382
0.380032
0.383321
0.386273
0.388905
0.391238
0.393285
0.395062
0.396587
0.397878
0.398955
0.399847
0.400584
0.401237
0.401928
0.403027
0.249497
0.26101
0.271515
0.281494
0.290983
0.299909
0.308224
0.315943
0.323086
0.329669
0.335712
0.341241
0.346288
0.350888
0.355071
0.358865
0.362298
0.36539
0.368159
0.370623
0.372797
0.374693
0.376324
0.377699
0.37883
0.379743
0.380472
0.381088
0.381714
0.38261
0.22733
0.238664
0.249129
0.259082
0.268545
0.277456
0.285776
0.293518
0.300706
0.30735
0.313469
0.319087
0.324234
0.328941
0.333235
0.337145
0.340695
0.343904
0.346785
0.34935
0.351613
0.353589
0.355294
0.356744
0.357949
0.358923
0.359684
0.360289
0.360857
0.361559
0.204873
0.215998
0.226431
0.236353
0.245776
0.254659
0.262973
0.27073
0.277947
0.284635
0.290808
0.296489
0.301705
0.306486
0.310856
0.314846
0.318476
0.321769
0.32474
0.3274
0.329754
0.331806
0.333561
0.335032
0.336236
0.337195
0.337931
0.33849
0.338985
0.339456
0.182246
0.193103
0.203483
0.213346
0.222697
0.23153
0.239823
0.24758
0.25481
0.261519
0.267717
0.273426
0.278674
0.283489
0.287902
0.291937
0.295615
0.298952
0.301961
0.304654
0.307047
0.309151
0.310971
0.312506
0.313755
0.314726
0.315436
0.315937
0.316351
0.316621
0.159656
0.170134
0.180384
0.19012
0.199342
0.208087
0.216338
0.224077
0.231297
0.238
0.244193
0.249896
0.255138
0.259946
0.264351
0.268382
0.272068
0.275429
0.278472
0.281195
0.283598
0.285686
0.287473
0.288976
0.290201
0.291148
0.291814
0.292229
0.292514
0.292492
0.137409
0.147325
0.15728
0.16676
0.175762
0.184363
0.192537
0.200229
0.207409
0.214066
0.220209
0.225858
0.231045
0.2358
0.240152
0.244129
0.247756
0.251059
0.254056
0.256762
0.259179
0.261299
0.263111
0.264613
0.26581
0.266713
0.267322
0.267656
0.267825
0.267556
0.115897
0.124984
0.134371
0.143389
0.152036
0.160408
0.168451
0.176058
0.183162
0.18974
0.195795
0.201345
0.20642
0.211055
0.215294
0.219175
0.222727
0.22596
0.228874
0.231473
0.233773
0.235793
0.237536
0.23899
0.24014
0.240976
0.241481
0.24166
0.241617
0.240963
0.0955153
0.103459
0.111916
0.120191
0.128293
0.136309
0.144132
0.151582
0.158542
0.164971
0.170872
0.17626
0.181161
0.18561
0.189652
0.193332
0.1967
0.199788
0.202608
0.205153
0.207406
0.209358
0.211015
0.212386
0.213472
0.214263
0.214714
0.214779
0.214514
0.213504
0.0765852
0.0830767
0.0902165
0.0974214
0.104734
0.112216
0.119692
0.126895
0.133648
0.139876
0.145562
0.15071
0.155352
0.159545
0.163347
0.166798
0.169922
0.172744
0.175293
0.177598
0.179667
0.181484
0.183025
0.184274
0.185229
0.185894
0.186232
0.186138
0.185573
0.184042
0.0592973
0.0641128
0.0696074
0.0754199
0.0816599
0.0883534
0.0952443
0.101993
0.108375
0.114283
0.119661
0.12448
0.128757
0.132561
0.135982
0.139098
0.141958
0.144571
0.14693
0.149031
0.150885
0.152509
0.153903
0.155046
0.155914
0.156503
0.156778
0.156566
0.155676
0.153668
0.043681
0.0467805
0.0504475
0.054589
0.0594957
0.0651554
0.0712105
0.0772838
0.0831258
0.0885727
0.0935095
0.0978823
0.101707
0.105044
0.107967
0.110559
0.112903
0.115059
0.11704
0.118829
0.120406
0.121766
0.122912
0.123835
0.124518
0.124969
0.125174
0.124891
0.123667
0.121044
0.0296075
0.0311646
0.0330613
0.0353424
0.0386478
0.0428734
0.0476004
0.0525544
0.0575338
0.0622909
0.0665926
0.0703252
0.073513
0.0762568
0.0786627
0.0808071
0.0827338
0.0844645
0.0860182
0.0874168
0.0886702
0.0897706
0.0907006
0.0914359
0.0919473
0.0922474
0.0923937
0.0921694
0.0908032
0.0878149
0.0167315
0.0170838
0.0174244
0.0180697
0.0201384
0.0228707
0.0259014
0.0292752
0.0329231
0.0365763
0.0399255
0.0427558
0.0450107
0.0467915
0.0482811
0.0496319
0.050897
0.0520535
0.0530714
0.0539581
0.0547425
0.0554391
0.0560378
0.056514
0.0568257
0.0569474
0.0569603
0.0568341
0.0556791
0.0526267
0.00500017
0.00394804
0.000350939
-0.000448571
0.00181283
0.00350896
0.0048191
0.00636725
0.0082644
0.0103216
0.0122963
0.0139937
0.0153178
0.0162905
0.0170173
0.0176127
0.0181495
0.0186447
0.019086
0.0194678
0.0197991
0.0200887
0.0203351
0.0205338
0.0206668
0.0206831
0.0205888
0.020557
0.0202758
0.0181988
0.550256
0.531459
0.512434
0.49416
0.476279
0.458194
0.439869
0.42131
0.402473
0.383331
0.363869
0.344072
0.323934
0.303446
0.282619
0.26147
0.240022
0.218343
0.196512
0.174669
0.153012
0.131807
0.111385
0.0920585
0.0740894
0.0576391
0.0427366
0.0292569
0.0168429
0.00531775
0.548398
0.528171
0.508961
0.490483
0.472503
0.454403
0.43611
0.417605
0.398831
0.379757
0.360367
0.340645
0.320585
0.300178
0.279438
0.258381
0.23703
0.215463
0.193761
0.172074
0.150614
0.129655
0.109531
0.0905409
0.0729299
0.0568334
0.0422529
0.0290352
0.0168047
0.00538432
0.545784
0.524503
0.505285
0.486759
0.468753
0.450671
0.432417
0.413958
0.395242
0.376232
0.356911
0.337262
0.31728
0.296956
0.276302
0.255338
0.234087
0.212633
0.191062
0.16953
0.14826
0.127528
0.107669
0.0889746
0.0716853
0.0559246
0.0416729
0.0287391
0.0167119
0.00542334
0.542657
0.520795
0.501606
0.483059
0.465032
0.446975
0.428763
0.410355
0.391695
0.372747
0.353494
0.333915
0.31401
0.293767
0.273198
0.252325
0.231173
0.209831
0.18839
0.167016
0.145943
0.125448
0.105867
0.0874812
0.0705192
0.0550869
0.041144
0.02847
0.0166249
0.00544887
0.539178
0.517066
0.497921
0.479385
0.46135
0.443324
0.425157
0.406801
0.388197
0.369309
0.35012
0.33061
0.310779
0.290615
0.270128
0.249345
0.22829
0.20706
0.185751
0.164538
0.143666
0.123415
0.104119
0.0860501
0.0694217
0.0543165
0.0406695
0.0282336
0.0165494
0.00546439
0.535412
0.513313
0.494238
0.475739
0.457709
0.439722
0.421602
0.403296
0.384748
0.365917
0.346791
0.327348
0.307589
0.287501
0.267095
0.246399
0.225442
0.204322
0.183147
0.162099
0.141432
0.121432
0.102428
0.0846801
0.0683862
0.0536032
0.0402397
0.0280226
0.0164822
0.00547101
0.531421
0.509541
0.490564
0.472127
0.454113
0.436169
0.418099
0.399843
0.381347
0.362573
0.343508
0.324131
0.30444
0.284425
0.264098
0.243489
0.222628
0.201619
0.18058
0.159701
0.139246
0.119503
0.100796
0.0833745
0.067414
0.0529461
0.0398518
0.0278343
0.0164224
0.0054706
0.527266
0.505754
0.486902
0.468551
0.450566
0.432667
0.414648
0.396441
0.377998
0.35928
0.340274
0.320958
0.301334
0.281391
0.26114
0.240615
0.21985
0.198952
0.178053
0.157347
0.137109
0.117629
0.0992277
0.0821357
0.0665067
0.0523453
0.0395049
0.0276684
0.0163696
0.00546532
0.523002
0.501961
0.483257
0.465012
0.447069
0.429217
0.411249
0.393093
0.374701
0.356038
0.337089
0.317833
0.298273
0.2784
0.258222
0.237779
0.217109
0.196325
0.175566
0.155038
0.135023
0.115814
0.0977237
0.080964
0.0656636
0.0517994
0.0391969
0.0275236
0.0163233
0.00545838
0.518677
0.498169
0.479638
0.461512
0.443625
0.42582
0.407904
0.389798
0.371458
0.352848
0.333954
0.314757
0.295259
0.275453
0.255346
0.234983
0.214409
0.193738
0.173122
0.152777
0.132991
0.114059
0.0962842
0.0798581
0.0648824
0.0513052
0.0389246
0.0273976
0.0162823
0.0054469
0.514333
0.494389
0.47605
0.458052
0.440232
0.422479
0.404614
0.386559
0.368269
0.349711
0.330871
0.311732
0.292294
0.272552
0.252514
0.23223
0.21175
0.191195
0.170724
0.150564
0.131013
0.112364
0.0949089
0.0788161
0.0641599
0.0508589
0.0386842
0.0272878
0.0162456
0.00543399
0.510005
0.490628
0.472498
0.454636
0.436893
0.419193
0.40138
0.383374
0.365134
0.346627
0.32784
0.308758
0.289378
0.269697
0.249727
0.229521
0.209135
0.188696
0.168373
0.148404
0.129093
0.110732
0.0935981
0.077837
0.0634937
0.050457
0.0384726
0.0271921
0.016213
0.00542072
0.505721
0.486896
0.468987
0.451266
0.433608
0.415965
0.398203
0.380245
0.362054
0.343597
0.324863
0.305835
0.286511
0.266891
0.246988
0.226858
0.206567
0.186245
0.166073
0.1463
0.127235
0.109164
0.0923534
0.0769209
0.062882
0.0500968
0.0382872
0.0271087
0.0161839
0.00540785
0.501502
0.483202
0.465522
0.447946
0.430379
0.412794
0.395083
0.377173
0.35903
0.340623
0.321939
0.302965
0.283695
0.264134
0.244297
0.224244
0.204047
0.183843
0.163828
0.144256
0.125441
0.107665
0.0911765
0.0760682
0.0623237
0.049776
0.0381257
0.0270362
0.0161583
0.00539593
0.497366
0.479557
0.46211
0.44468
0.427209
0.409683
0.392024
0.374161
0.356064
0.337706
0.31907
0.300147
0.28093
0.261428
0.241656
0.221679
0.201576
0.181494
0.16164
0.142275
0.123715
0.106236
0.0900689
0.075279
0.0618172
0.0494922
0.0379858
0.0269733
0.0161356
0.00538528
0.493326
0.47597
0.458755
0.44147
0.424099
0.406633
0.389025
0.371209
0.353158
0.334846
0.316258
0.297384
0.278219
0.258774
0.239067
0.219164
0.199157
0.179198
0.15951
0.140357
0.122058
0.104879
0.0890306
0.0745521
0.0613603
0.0492423
0.0378649
0.0269186
0.0161157
0.00537603
0.48939
0.472449
0.455464
0.438321
0.42105
0.403647
0.38609
0.368319
0.350313
0.332046
0.313503
0.294676
0.275563
0.256173
0.236529
0.2167
0.196789
0.176959
0.15744
0.138503
0.120469
0.103594
0.0880608
0.0738853
0.0609498
0.0490233
0.0377606
0.0268706
0.0160982
0.00536823
0.485564
0.469
0.45224
0.435235
0.418065
0.400725
0.383219
0.365494
0.34753
0.329307
0.310807
0.292027
0.272963
0.253625
0.234043
0.214288
0.194476
0.174775
0.15543
0.136715
0.11895
0.102379
0.0871574
0.0732755
0.0605824
0.0488317
0.0376706
0.0268285
0.0160829
0.0053619
0.481855
0.465632
0.449087
0.432215
0.415146
0.397869
0.380414
0.362733
0.344811
0.32663
0.308172
0.289436
0.27042
0.251132
0.231611
0.211931
0.192217
0.17265
0.153481
0.134993
0.117501
0.101233
0.0863187
0.07272
0.060255