/*--------------------------------*- C++ -*----------------------------------*\
  =========                 |
  \\      /  F ield         | OpenFOAM: The Open Source CFD Toolbox
   \\    /   O peration     | Website:  https://openfoam.org
    \\  /    A nd           | Version:  7
     \\/     M anipulation  |
\*---------------------------------------------------------------------------*/
FoamFile
{
    version     2.0;
    format      ascii;
    class       surfaceScalarField;
    location    "6.6";
    object      phi;
}
// * * * * * * * * * * * * * * * * * * * * * * * * * * * * * * * * * * * * * //

dimensions      [0 3 -1 0 0 0 0];

internalField   nonuniform List<scalar> 
35640
(
1.00109e-05
-0.000205184
0.000195173
3.29959e-05
-0.000302979
0.000279994
6.58932e-05
-0.000140961
0.000108064
0.000107588
0.000201039
-0.000242735
0.000157947
0.000669179
-0.000719538
0.000217312
0.00122627
-0.00128563
0.000286167
0.00184548
-0.00191433
0.000364936
0.00250686
-0.00258563
0.000453941
0.00319537
-0.00328438
0.000553328
0.00389934
-0.00399873
0.000663031
0.00460928
-0.00471898
0.000782766
0.00531712
-0.00543685
0.000912091
0.00601579
-0.00614512
0.00105039
0.00669897
-0.00683727
0.0011969
0.00736089
-0.0075074
0.00135076
0.00799632
-0.00815018
0.00151103
0.00860059
-0.00876087
0.00167673
0.0091696
-0.0093353
0.00184686
0.00969984
-0.00986997
0.00202043
0.0101885
-0.010362
0.00219652
0.0106333
-0.0108094
0.00237429
0.0110328
-0.0112105
0.00255299
0.0113859
-0.0115646
0.00273203
0.0116923
-0.0118714
0.00291097
0.0119519
-0.0121309
0.00308954
0.012165
-0.0123436
0.00326759
0.0123317
-0.0125098
0.00344509
0.0124522
-0.0126297
0.00362179
0.0125271
-0.0127038
0.0125573
0.00379712
-0.0127327
8.10055e-06
-0.000213285
2.6673e-05
-0.000321551
5.32188e-05
-0.000167507
8.70912e-05
0.000167167
0.000128494
0.000627777
0.000177973
0.00117679
0.000236224
0.00178723
0.000303863
0.00243922
0.000381343
0.00311789
0.00046892
0.00381176
0.000566641
0.00451155
0.000674345
0.00520941
0.000791686
0.00589845
0.00091815
0.0065725
0.00105309
0.00722594
0.00119575
0.00785366
0.00134526
0.00845108
0.00150074
0.00901412
0.00166126
0.00953932
0.00182592
0.0100238
0.00199385
0.0104654
0.00216422
0.0108624
0.00233631
0.0112138
0.00250952
0.0115191
0.00268338
0.0117781
0.00285754
0.0119908
0.00303173
0.0121575
0.00320573
0.0122782
0.00337911
0.0123537
0.0123855
0.00355091
6.17459e-06
-0.00021946
2.03166e-05
-0.000335693
4.05265e-05
-0.000187717
6.66277e-05
0.000141066
9.91838e-05
0.000595221
0.000139011
0.00113696
0.000187005
0.00173924
0.000243912
0.00238231
0.000310314
0.00305149
0.000386595
0.00373548
0.000472911
0.00442524
0.000569198
0.00511313
0.000675209
0.00579244
0.000790528
0.00645719
0.000914582
0.00710189
0.0010467
0.00772155
0.00118612
0.00831166
0.00133203
0.00886821
0.00148358
0.00938777
0.0016399
0.00986749
0.00180015
0.0103051
0.00196356
0.010699
0.00212941
0.011048
0.00229708
0.0113514
0.00246602
0.0116091
0.0026358
0.0118211
0.00280604
0.0119873
0.00297629
0.0121079
0.00314588
0.0121842
0.0122179
0.00331355
4.25601e-06
-0.000223716
1.38654e-05
-0.000345302
2.77143e-05
-0.000201566
4.61425e-05
0.000122638
7.00759e-05
0.000571288
0.000100561
0.00110648
0.000138678
0.00170112
0.000185343
0.00233565
0.000241245
0.00299559
0.000306863
0.00366987
0.000382462
0.00434964
0.000468079
0.00502751
0.000563534
0.00569698
0.000668496
0.00635222
0.000782484
0.0069879
0.0009049
0.00759913
0.00103506
0.0081815
0.0011722
0.00873106
0.00131553
0.00924443
0.00146424
0.00971878
0.00161752
0.0101518
0.00177461
0.0105419
0.00193477
0.0108878
0.00209735
0.0111889
0.00226174
0.0114447
0.00242742
0.0116554
0.0025938
0.0118209
0.00276027
0.0119415
0.00292585
0.0120186
0.0120547
0.00308902
2.30272e-06
-0.000226018
7.39413e-06
-0.000350394
1.49833e-05
-0.000209155
2.59182e-05
0.000111703
4.14868e-05
0.000555719
6.30214e-05
0.00108494
9.17533e-05
0.00167239
0.000128731
0.00229867
0.000174767
0.00294955
0.000230444
0.00361419
0.000296102
0.00428398
0.000371857
0.00495175
0.000457624
0.00561122
0.00055314
0.00625671
0.000657988
0.00688305
0.000771639
0.00748548
0.00089347
0.00805967
0.00102278
0.00860175
0.00115882
0.0091084
0.00130081
0.00957679
0.00144797
0.0100047
0.00159953
0.0103903
0.00175475
0.0107326
0.00191293
0.0110307
0.00207339
0.0112843
0.00223544
0.0114933
0.00239837
0.011658
0.0025613
0.0117785
0.00272302
0.0118569
0.011896
0.00288169
3.54797e-07
-0.000226374
9.72646e-07
-0.000351012
2.40897e-06
-0.000210591
6.08334e-06
0.000108029
1.36549e-05
0.000548148
2.6686e-05
0.00107191
4.65812e-05
0.00165249
7.45236e-05
0.00227073
0.000111424
0.00291265
0.00015795
0.00356766
0.000214527
0.0042274
0.000281348
0.00488493
0.000358394
0.00553417
0.000445463
0.00616964
0.000542207
0.00678631
0.000648155
0.00737954
0.000762733
0.00794509
0.000885282
0.0084792
0.00101509
0.00897859
0.00115141
0.00944047
0.00129348
0.00986261
0.00144052
0.0102433
0.00159177
0.0105813
0.00174646
0.010876
0.00190382
0.0111269
0.00206303
0.0113341
0.00222319
0.0114978
0.0023832
0.0116185
0.00254155
0.0116985
0.0117415
0.00269611
-1.56804e-06
-0.000224805
-5.35594e-06
-0.000347223
-9.87279e-06
-0.000206074
-1.31398e-05
0.000111297
-1.31571e-05
0.000548165
-8.0905e-06
0.00106684
3.61616e-06
0.00164079
2.32523e-05
0.00225109
5.18318e-05
0.00288407
9.01044e-05
0.00352939
0.000138563
0.00417895
0.000197464
0.00482603
0.000266855
0.00546478
0.000346592
0.0060899
0.000436383
0.00669652
0.000535804
0.00728012
0.000644321
0.00783657
0.000761317
0.00836221
0.00088611
0.00885379
0.00101797
0.00930861
0.00115615
0.00972443
0.00129986
0.0100996
0.00144829
0.0104329
0.00160063
0.0107237
0.00175601
0.0109715
0.00191347
0.0111767
0.0020719
0.0113394
0.00222996
0.0114605
0.00238587
0.0115426
0.0115901
0.00253722
-3.47374e-06
-0.000221331
-1.15261e-05
-0.000339171
-2.17537e-05
-0.000195846
-3.15938e-05
0.000121137
-3.86858e-05
0.000555258
-4.09648e-05
0.00106912
-3.67245e-05
0.00163655
-2.45666e-05
0.00223894
-3.39159e-06
0.0028629
2.76171e-05
0.00349838
6.90151e-05
0.00413755
0.00012112
0.00477393
0.000184032
0.00540187
0.00025766
0.00601627
0.000341762
0.00661242
0.000435953
0.00718592
0.000539735
0.00773279
0.00065252
0.00824942
0.000773655
0.00873266
0.00090243
0.00917983
0.00103809
0.00958878
0.00117984
0.00995784
0.00132684
0.0102859
0.00147823
0.0105723
0.00163302
0.0108167
0.00179012
0.0110196
0.00194823
0.0111813
0.00210577
0.0113029
0.00226069
0.0113877
0.0114406
0.00241025
-5.33754e-06
-0.000215994
-1.74883e-05
-0.00032702
-3.31248e-05
-0.000180209
-4.90992e-05
0.000137111
-6.26956e-05
0.000568854
-7.16256e-05
0.00107805
-7.4039e-05
0.00163896
-6.84424e-05
0.00223334
-5.36644e-05
0.00284812
-2.88294e-05
0.00347355
6.67263e-06
0.00410205
5.32091e-05
0.00472739
0.000110927
0.00534415
0.000179786
0.00594742
0.00025958
0.00653262
0.000349962
0.00709554
0.000450462
0.00763229
0.000560521
0.00813936
0.000679505
0.00861367
0.000806717
0.00905262
0.000941408
0.00945408
0.00108277
0.00981648
0.00122996
0.0101387
0.00138202
0.0104202
0.00153792
0.0106609
0.00169641
0.0108611
0.00185602
0.0110217
0.00201495
0.011144
0.00217086
0.0112318
0.0112907
0.00232068
-7.14376e-06
-0.00020885
-2.31902e-05
-0.000310973
-4.38896e-05
-0.00015951
-6.55072e-05
0.000158729
-8.49734e-05
0.000588321
-9.97865e-05
0.00109287
-0.000107963
0.00164714
-0.000107927
0.0022333
-9.84459e-05
0.00283864
-7.85957e-05
0.0034537
-4.77232e-05
0.00407117
-5.42013e-06
0.00468509
4.85033e-05
0.00529023
0.000114046
0.00588187
0.000191039
0.00645563
0.000279159
0.00700742
0.000377967
0.00753348
0.000486925
0.0080304
0.000605416
0.00849518
0.000732759
0.00892527
0.000868208
0.00931863
0.00101096
0.00967373
0.00116015
0.00998952
0.0013148
0.0102656
0.00147378
0.0105019
0.00163577
0.0106991
0.00179913
0.0108583
0.00196186
0.0109813
0.00212134
0.0110723
0.0111379
0.00227414
-8.87541e-06
-0.000199974
-2.85883e-05
-0.00029126
-5.39663e-05
-0.000134132
-8.06873e-05
0.00018545
-0.000105335
0.000612968
-0.000125202
0.00111274
-0.000138182
0.00166012
-0.000142624
0.00223775
-0.000137253
0.00283327
-0.000121106
0.00343755
-9.34964e-05
0.00404356
-5.39835e-05
0.00464557
-2.34076e-06
0.00523858
6.14626e-05
0.00581807
0.000137282
0.00637981
0.000224823
0.00691988
0.000323667
0.00743464
0.000433297
0.00792077
0.000553112
0.00837537
0.000682444
0.00879594
0.000820563
0.00918052
0.000966677
0.00952761
0.00111992
0.00983628
0.0012793
0.0101062
0.00144366
0.0103375
0.0016116
0.0105311
0.00178139
0.0106885
0.00195081
0.0108118
0.00211704
0.010906
0.0109788
0.00227621
-1.05195e-05
-0.000189455
-3.36459e-05
-0.000268133
-6.32858e-05
-0.000104492
-9.45352e-05
0.0002167
-0.000123632
0.000642065
-0.000147672
0.00113678
-0.000164433
0.00167688
-0.000172206
0.00224552
-0.000169679
0.00283074
-0.000155864
0.00342374
-0.000130053
0.00401775
-9.17798e-05
0.0046073
-4.07914e-05
0.0051876
2.29674e-05
0.00575431
9.93735e-05
0.0063034
0.000188153
0.0068311
0.000288908
0.00733388
0.000401137
0.00780855
0.000524253
0.00825225
0.000657607
0.00866259
0.000800492
0.00903763
0.000952141
0.00937596
0.0011117
0.00967672
0.00127821
0.00993967
0.00145052
0.0101652
0.0016272
0.0103544
0.00180647
0.0105093
0.00198598
0.0106323
0.00216266
0.0107294
0.0108092
0.00233222
-1.20655e-05
-0.000177389
-3.8336e-05
-0.000241862
-7.17986e-05
-7.10294e-05
-0.000106974
0.000251876
-0.000139756
0.000674847
-0.000167049
0.00116407
-0.000186523
0.00169635
-0.00019642
0.00225542
-0.000195403
0.00282973
-0.000182471
0.0034108
-0.000156903
0.00399218
-0.000118218
0.00456861
-6.61458e-05
0.00513552
-6.15908e-07
0.00568878
7.82675e-05
0.00622452
0.000170245
0.00673912
0.000274934
0.00722919
0.000391846
0.00769163
0.000520412
0.00812368
0.000660003
0.008523
0.00080994
0.00888769
0.000969494
0.00921641
0.00113786
0.00950836
0.00131413
0.0097634
0.0014972
0.00998213
0.00168571
0.0101659
0.00187784
0.0103171
0.00207122
0.010439
0.00226255
0.010538
0.0106247
0.0024471
-1.35067e-05
-0.000163882
-4.26407e-05
-0.000212728
-7.94733e-05
-3.41969e-05
-0.000117958
0.00029036
-0.000153643
0.000710533
-0.000183243
0.00119367
-0.000204329
0.00171744
-0.000215101
0.00226619
-0.000214205
0.00282883
-0.000200639
0.00339724
-0.000173678
0.00396522
-0.000132837
0.00452777
-7.78396e-05
0.00508053
-8.60598e-06
0.00561955
7.47748e-05
0.00614114
0.00017205
0.00664185
0.000282849
0.0071184
0.000406696
0.00756779
0.000543036
0.00798734
0.000691262
0.00837477
0.000850733
0.00872822
0.00102077
0.00904637
0.00120063
0.00932849
0.00138949
0.00957454
0.00158636
0.00978526
0.00178999
0.00996231
0.00199865
0.0101085
0.00220996
0.0102276
0.0024205
0.0103275
0.0104201
0.00262506
-1.48399e-05
-0.000149042
-4.65518e-05
-0.000181016
-8.62981e-05
5.54942e-06
-0.00012747
0.000331532
-0.00016527
0.000748333
-0.000196222
0.00122462
-0.000217804
0.00173902
-0.000228175
0.00227656
-0.000225975
0.00282663
-0.000210206
0.00338147
-0.000180154
0.00393517
-0.000135335
0.00448295
-7.54737e-05
0.00502066
-4.8312e-07
0.00554456
8.95286e-05
0.00605113
0.000194339
0.00653704
0.000313577
0.00699916
0.000446773
0.00743459
0.00059339
0.00784073
0.00075284
0.00821532
0.000924519
0.00855654
0.0011078
0.00886309
0.00130203
0.00913426
0.0015065
0.00937007
0.00172039
0.00957137
0.00194259
0.00974011
0.00217157
0.00987948
0.00240505
0.00999417
0.00263953
0.010093
0.0101903
0.00286939
-1.60649e-05
-0.000132977
-5.00705e-05
-0.00014701
-9.22788e-05
4.77578e-05
-0.000135522
0.000374775
-0.000174656
0.000787467
-0.000206014
0.00125598
-0.000226977
0.00175999
-0.000235667
0.00228525
-0.000230719
0.00282168
-0.000211151
0.0033619
-0.000176262
0.00390028
-0.000125582
0.00443227
-5.88475e-05
0.00495393
2.40185e-05
0.00546169
0.000122931
0.00595222
0.000237643
0.00642232
0.000367794
0.00686901
0.000512917
0.00728947
0.000672484
0.00768116
0.000845927
0.00804187
0.00103267
0.0083698
0.00123216
0.00866361
0.00144381
0.00892261
0.00166706
0.00914681
0.00190127
0.00933717
0.00214558
0.0094958
0.00239871
0.00962635
0.00265858
0.0097343
0.00292177
0.00982982
0.00992979
0.00318223
-1.71846e-05
-0.000115792
-5.32057e-05
-0.000110989
-9.74364e-05
9.19886e-05
-0.000142152
0.000419491
-0.000181861
0.000827176
-0.000212699
0.00128682
-0.000231949
0.00177924
-0.000237693
0.00229099
-0.000228564
0.00281255
-0.000203596
0.00333693
-0.000162109
0.00385879
-0.000103651
0.00437382
-2.79766e-05
0.00487826
6.49806e-05
0.00536873
0.000175125
0.00584207
0.00030221
0.00629524
0.000445867
0.00672535
0.000605632
0.0071297
0.000780977
0.00750582
0.000971349
0.0078515
0.0011762
0.00816495
0.001395
0.00844481
0.00162728
0.00869033
0.0018726
0.00890149
0.00213051
0.00907925
0.00240045
0.00922586
0.00268146
0.00934534
0.00297179
0.00944398
0.00326819
0.00953342
0.00963364
0.00356435
-1.8204e-05
-9.75879e-05
-5.59729e-05
-7.32198e-05
-0.000101804
0.00013782
-0.000147419
0.000465106
-0.000186974
0.000866731
-0.000216406
0.00131625
-0.00023289
0.00179572
-0.000234462
0.00229257
-0.000219752
0.00279784
-0.000187808
0.00330499
-0.000137974
0.00380896
-6.9821e-05
0.00430566
1.68752e-05
0.00479156
0.000122162
0.00526344
0.000245931
0.0057183
0.000387928
0.00615324
0.000547776
0.0065655
0.000725003
0.00695247
0.000919078
0.00731174
0.00112945
0.00764113
0.00135556
0.00793883
0.00159694
0.00820343
0.00185315
0.00843411
0.00212389
0.00863075
0.0024089
0.00879424
0.0027079
0.00892687
0.00302031
0.00903293
0.00334482
0.00911947
0.00367852
0.00919971
0.00929717
0.00401499
-1.91293e-05
-7.84585e-05
-5.83914e-05
-3.39576e-05
-0.000105424
0.000184852
-0.000151393
0.000511075
-0.000190109
0.000905448
-0.000217298
0.00134344
-0.000230018
0.00180844
-0.000226255
0.0022888
-0.000204625
0.00277621
-0.000164188
0.00326455
-0.000104307
0.00374908
-2.45816e-05
0.00422594
7.51885e-05
0.00469179
0.000195032
0.0051436
0.000334821
0.00557851
0.00049429
0.00599377
0.000673048
0.00638674
0.000870609
0.00675491
0.00108643
0.00709592
0.00131993
0.00740763
0.00157057
0.00768819
0.00183784
0.00793616
0.00212136
0.00815059
0.00242089
0.00833123
0.00273632
0.00847881
0.00306763
0.00859555
0.00341466
0.0086859
0.00377659
0.00875753
0.00415105
0.00882526
0.00891652
0.0045317
-1.99673e-05
-5.84911e-05
-6.04817e-05
6.5568e-06
-0.000108337
0.000232707
-0.000154152
0.00055689
-0.000191388
0.000942684
-0.000215555
0.00136761
-0.000223589
0.00181648
-0.000213406
0.00227862
-0.000183607
0.00274642
-0.000133249
0.00321419
-6.17138e-05
0.00367754
3.13757e-05
0.00413285
0.000146197
0.00457697
0.000282753
0.00500704
0.0004409
0.00542037
0.000620352
0.00581432
0.000820702
0.00618639
0.00104144
0.00653417
0.001282
0.00685536
0.00154178
0.00714786
0.00182017
0.0074098
0.00211666
0.00763968
0.00243082
0.00783642
0.00276243
0.00799962
0.00311147
0.00812977
0.00347811
0.00822891
0.00386256
0.00830144
0.00426457
0.00835553
0.0046824
0.00840742
0.00848877
0.00511015
-2.07239e-05
-3.77672e-05
-6.22613e-05
4.80941e-05
-0.000110581
0.000281026
-0.000155764
0.000602073
-0.000190927
0.000977848
-0.00021136
0.00138804
-0.000213861
0.00181898
-0.000196275
0.00226103
-0.000157164
0.0027073
-9.55788e-05
0.00315261
-1.09077e-05
0.00359287
9.72063e-05
0.00402473
0.000228919
0.00444526
0.000384213
0.00485175
0.000562922
0.00524166
0.000764742
0.0056125
0.000989242
0.00596189
0.00123589
0.00628752
0.00150407
0.00658718
0.00179313
0.00685879
0.00210241
0.00710052
0.00243129
0.00731079
0.00277929
0.00748843
0.0031461
0.00763281
0.00353168
0.00774419
0.00393632
0.00782427
0.00436052
0.00787725
0.00480454
0.0079115
0.00526745
0.00794451
0.00801214
0.00574407
-2.14027e-05
-1.63645e-05
-6.37413e-05
9.04326e-05
-0.000112182
0.000329467
-0.000156282
0.000646172
-0.000188821
0.00101039
-0.000204867
0.00140409
-0.000201075
0.00181518
-0.000175201
0.00223516
-0.000125763
0.00265787
-5.17858e-05
0.00307863
4.73419e-05
0.00349374
0.000171967
0.00390011
0.000322226
0.004295
0.000498086
0.00467589
0.00069936
0.00504038
0.00092572
0.00538614
0.00117671
0.0057109
0.00145176
0.00601247
0.00175021
0.00628873
0.00207133
0.00653767
0.00241436
0.00675749
0.00277856
0.00694659
0.0031633
0.00710369
0.00356812
0.00722799
0.00399284
0.00731946
0.0044377
0.00737941
0.00490335
0.0074116
0.00539055
0.00742431
0.00589918
0.00743587
0.00748615
0.00642517
-2.20047e-05
5.6403e-06
-6.49229e-05
0.000133351
-0.000113146
0.000377691
-0.000155727
0.000688753
-0.000185124
0.00103978
-0.000196181
0.00141514
-0.000185408
0.00180441
-0.000150465
0.00220022
-8.98077e-05
0.00259721
-2.42895e-06
0.00299125
0.000112298
0.00337902
0.000254716
0.00375769
0.000424951
0.00412476
0.000622956
0.00447789
0.000848524
0.00481481
0.0011013
0.00513336
0.00138081
0.0054314
0.00168643
0.00570685
0.00201744
0.00595771
0.00237303
0.00618209
0.00275231
0.00637822
0.00315436
0.00654453
0.00357835
0.00667971
0.00402354
0.0067828
0.00448951
0.0068535
0.00497626
0.00689265
0.00548442
0.00690344
0.00601505
0.00689368
0.00656892
0.006882
0.00691172
0.00714336
-2.25265e-05
2.81668e-05
-6.57939e-05
0.000176618
-0.000113454
0.000425351
-0.000154081
0.00072938
-0.000179829
0.00106553
-0.000185329
0.00142064
-0.000166944
0.00178603
-0.000122233
0.00215551
-4.95796e-05
0.00252456
5.20666e-05
0.0028896
0.000183355
0.00324773
0.000344634
0.00359641
0.000536027
0.00393337
0.000757474
0.00425644
0.00100875
0.00456354
0.00128949
0.00485263
0.00159916
0.00512173
0.0019371
0.0053689
0.00230254
0.00559228
0.00269453
0.00579009
0.00311206
0.00596069
0.00355401
0.00610258
0.00401924
0.00621448
0.00450667
0.00629536
0.00501547
0.00634471
0.0055452
0.00636292
0.00609618
0.00635246
0.00666957
0.00632029
0.00726692
0.00628465
0.0062913
0.00788734
-2.29595e-05
5.11263e-05
-6.63267e-05
0.000219985
-0.000113054
0.000472078
-0.000151273
0.000767599
-0.000172857
0.00108712
-0.000172236
0.00142002
-0.000145634
0.00175943
-9.05081e-05
0.00210038
-5.16469e-06
0.00243921
0.000111497
0.00277294
0.000260155
0.00309907
0.000441169
0.0034154
0.000654665
0.00371987
0.000900575
0.00401053
0.00117866
0.00428545
0.00148851
0.00454277
0.00182959
0.00478066
0.00220117
0.00499732
0.0026024
0.00519105
0.00303225
0.00536024
0.00348952
0.00550342
0.00397287
0.00561924
0.00448083
0.00570652
0.00501189
0.0057643
0.00556461
0.00579199
0.0061379
0.00578963
0.00673142
0.00575894
0.007346
0.00570572
0.00798373
0.00564692
0.00562918
0.00864585
-2.32896e-05
7.44158e-05
-6.64757e-05
0.000263171
-0.000111861
0.000517464
-0.000147175
0.000802913
-0.000164039
0.00110398
-0.000156704
0.00141269
-0.000121267
0.00172399
-5.50855e-05
0.0020342
4.36089e-05
0.00234052
0.000175969
0.00264058
0.000342701
0.00293234
0.000544183
0.00321391
0.000780543
0.00348351
0.0010517
0.00373937
0.00135741
0.00397975
0.00169722
0.00420295
0.00207057
0.00440731
0.00247669
0.0045912
0.00291464
0.0047531
0.00338329
0.00489159
0.00388131
0.00500541
0.00440711
0.00509344
0.00495889
0.00515474
0.00553462
0.00518857
0.00613215
0.00519445
0.00674942
0.00517235
0.00738495
0.00512341
0.00803854
0.00505213
0.0087122
0.00497325
0.00493186
0.00940953
-2.34965e-05
9.79123e-05
-6.61775e-05
0.000305852
-0.000109752
0.000561039
-0.000141596
0.000834757
-0.000153111
0.0011155
-0.000138399
0.00139798
-9.34448e-05
0.00167903
-1.55174e-05
0.00195627
9.72215e-05
0.00222778
0.00024597
0.00249183
0.000431461
0.00274684
0.000654087
0.00299129
0.000913975
0.00322362
0.00121104
0.00344231
0.00154499
0.0036458
0.00191538
0.00383256
0.00232159
0.0040011
0.00276282
0.00414998
0.00323806
0.00427785
0.00374612
0.00438354
0.00428552
0.00446601
0.0048545
0.00452445
0.00545097
0.00455827
0.00607239
0.00456715
0.00671582
0.00455103
0.00737796
0.00451021
0.00805556
0.00444581
0.00874629
0.0043614
0.00945051
0.00426903
0.00420878
0.0101736
-2.35551e-05
0.000121467
-6.53517e-05
0.000347649
-0.00010657
0.000602257
-0.000134283
0.00086247
-0.000139717
0.00112093
-0.000116852
0.00137511
-6.15804e-05
0.00162376
2.89012e-05
0.00186579
0.000156488
0.00210019
0.000322412
0.00232591
0.000527427
0.00254183
0.00077193
0.00274678
0.00105604
0.00293951
0.00137965
0.0031187
0.00174245
0.003283
0.00214395
0.00343106
0.00258349
0.00356156
0.00306023
0.00367323
0.00357315
0.00376494
0.00412098
0.00383571
0.0047022
0.00388478
0.00531497
0.00391168
0.005957
0.00391625
0.00662542
0.00389873
0.0073166
0.00385984
0.0080259
0.00380091
0.00874765
0.00372406
0.00947569
0.00363336
0.0102056
0.00353914
0.0034719
0.0109425
-2.34355e-05
0.000144903
-6.39028e-05
0.000388116
-0.000102125
0.000640479
-0.000124933
0.000885278
-0.000123414
0.00111941
-9.14636e-05
0.00134316
-2.49013e-05
0.0015572
7.91244e-05
0.00176176
0.000222552
0.00195676
0.000406633
0.00214183
0.000632125
0.00231634
0.000899419
0.00247949
0.00120861
0.00263032
0.00155956
0.00276775
0.00195191
0.00289064
0.00238514
0.00299783
0.00285855
0.00308816
0.00337125
0.00316053
0.00392219
0.003214
0.00451011
0.00324779
0.00513352
0.00326137
0.00579061
0.00325459
0.00647918
0.00322768
0.00719639
0.00318151
0.00793845
0.00311779
0.00869993
0.00303943
0.00947283
0.00295116
0.0102452
0.00286095
0.0110006
0.00278382
0.0027316
0.0117409
-2.31045e-05
0.000168007
-6.17238e-05
0.000426736
-9.62031e-05
0.000674958
-0.000113194
0.000902269
-0.000103688
0.0011099
-6.1529e-05
0.001301
1.75099e-05
0.00147816
0.000136318
0.00164296
0.000296843
0.00179624
0.000500341
0.00193833
0.000747555
0.00206912
0.00103885
0.0021882
0.00137428
0.00229489
0.00175364
0.00238839
0.00217654
0.00246775
0.00264237
0.002532
0.00315037
0.00258016
0.00369962
0.00261128
0.00428903
0.00262458
0.00491738
0.00261944
0.00558325
0.00259551
0.00628503
0.0025528
0.00702091
0.00249181
0.00778868
0.00241374
0.0085856
0.00232087
0.00940785
0.00221718
0.0102493
0.00210968
0.0110981
0.00201216
0.0119224
0.00195957
0.0126379
0.00201608
0.00420025
0.0691788
-0.0695819
0.00456489
0.0662078
-0.0665724
0.00489601
0.0612496
-0.0615807
0.00523917
0.0563979
-0.0567411
0.00558332
0.052421
-0.0527652
0.00590159
0.0495229
-0.0498412
0.00615879
0.0476243
-0.0478815
0.00633064
0.0464757
-0.0466476
0.00641019
0.045853
-0.0459325
0.0064035
0.0455937
-0.045587
0.00632444
0.0456065
-0.0455275
0.00618758
0.0458306
-0.0456937
0.00600568
0.0462253
-0.0460434
0.00578799
0.046744
-0.0465264
0.00554218
0.0473424
-0.0470966
0.00527385
0.0479841
-0.0477158
0.00498717
0.048642
-0.0483553
0.0046867
0.04929
-0.0489895
0.00437528
0.0499186
-0.0496072
0.00405519
0.050518
-0.0501979
0.00372894
0.0510765
-0.0507502
0.00339755
0.0515965
-0.0512651
0.00306254
0.0520689
-0.0517339
0.00272429
0.0524942
-0.052156
0.00238346
0.0528693
-0.0525285
0.00203985
0.0531931
-0.0528495
0.00169328
0.0534713
-0.0531247
0.00134413
0.0537183
-0.0533692
0.000994408
0.0539432
-0.0535935
0.0540952
-0.0537487
0.00401691
0.0687128
0.00444393
0.0657807
0.00482775
0.0608658
0.0052229
0.0560028
0.00561544
0.0520285
0.00597654
0.0491618
0.00626884
0.047332
0.00646715
0.0462774
0.00656442
0.0457557
0.00656813
0.04559
0.00649359
0.0456811
0.00635716
0.045967
0.00617242
0.04641
0.00595015
0.0469663
0.0056978
0.0475947
0.00542161
0.0482603
0.00512653
0.0489371
0.00481649
0.0496
0.00449474
0.0502404
0.00416436
0.0508483
0.00382681
0.051414
0.00348431
0.051939
0.00313779
0.0524154
0.0027879
0.0528441
0.00243551
0.0532217
0.00208025
0.0535484
0.00172229
0.0538293
0.00136221
0.0540784
0.00100185
0.0543036
0.0544521
0.00383356
0.0681928
0.00431793
0.0652964
0.00475215
0.0604316
0.00519918
0.0555558
0.00564137
0.0515863
0.00604699
0.0487561
0.00637597
0.047003
0.00660207
0.0460513
0.00671806
0.0456397
0.00673296
0.0455751
0.00666344
0.0457506
0.00652774
0.0461027
0.00634034
0.0465974
0.00611361
0.047193
0.00585492
0.0478534
0.00557101
0.0485443
0.00526758
0.0492405
0.00494804
0.0499196
0.00461602
0.0505724
0.00427529
0.0511891
0.00392641
0.0517629
0.0035727
0.0522927
0.00321455
0.0527735
0.00285291
0.0532058
0.00248882
0.0535858
0.00212179
0.0539154
0.00175227
0.0541988
0.00138108
0.0544496
0.00100984
0.0546748
0.0548196
0.00365342
0.0676284
0.00418951
0.0647603
0.00467119
0.0599499
0.00516938
0.0550576
0.00566195
0.0510938
0.00611337
0.0483047
0.00648035
0.046636
0.00673537
0.0457963
0.0068711
0.045504
0.00689787
0.0455483
0.00683378
0.0458147
0.00669899
0.0462375
0.00650935
0.0467871
0.00627817
0.0474242
0.00601336
0.0481182
0.00572197
0.0488356
0.00541009
0.0495524
0.0050812
0.0502485
0.00473911
0.0509145
0.00438772
0.0515405
0.00402782
0.0521228
0.00366264
0.0526579
0.00329287
0.0531433
0.00291939
0.0535793
0.00254339
0.0539618
0.0021645
0.0542943
0.00178325
0.0545801
0.00140072
0.0548321
0.00101843
0.0550571
0.0551983
0.00348031
0.0670297
0.00406172
0.0641789
0.00458736
0.0594243
0.00513523
0.0545097
0.00567819
0.0505508
0.00617623
0.0478067
0.00658228
0.04623
0.00686712
0.0455114
0.00702336
0.0453477
0.00706258
0.0455091
0.00700443
0.0458728
0.00687082
0.0463711
0.00667924
0.0469786
0.00644357
0.0476599
0.00617285
0.0483889
0.00587428
0.0491342
0.00555392
0.0498727
0.00521581
0.0505866
0.00486385
0.0512664
0.00450166
0.0519027
0.00413087
0.0524936
0.00375411
0.0530346
0.00337262
0.0535248
0.00298728
0.0539646
0.00259918
0.0543499
0.00220841
0.0546851
0.00181529
0.0549732
0.00142117
0.0552262
0.00102764
0.0554507
0.0555883
0.0033187
0.0664072
0.00393823
0.0635593
0.00450352
0.058859
0.00509879
0.0539144
0.00569145
0.0499581
0.00623626
0.0472619
0.00668198
0.0457843
0.00699736
0.045196
0.0071748
0.0451703
0.00722695
0.045457
0.00717518
0.0459246
0.00704303
0.0465033
0.00684969
0.047172
0.00660974
0.0478999
0.00633324
0.0486654
0.00602762
0.0494398
0.00569897
0.0502014
0.00535174
0.0509338
0.00498999
0.0516282
0.00461711
0.0522755
0.00423537
0.0528753
0.00384709
0.0534229
0.0034538
0.0539181
0.00305655
0.0543619
0.00265626
0.0547502
0.00225348
0.0550879
0.00184837
0.0553783
0.00144247
0.0556321
0.00103745
0.0558557
0.0559901
0.00317358
0.0657708
0.00382329
0.0629096
0.00442311
0.0582591
0.00506244
0.0532751
0.00570324
0.0493173
0.00629427
0.0466708
0.00677979
0.0452987
0.00712614
0.0448497
0.00732532
0.0449711
0.00739085
0.0453914
0.00734583
0.0459696
0.0072154
0.0466337
0.00702047
0.0473669
0.00677647
0.0481439
0.00649432
0.0489476
0.00618179
0.0497524
0.00584505
0.0505381
0.00548883
0.05129
0.00511735
0.0519997
0.00473394
0.0526589
0.00434124
0.053268
0.00394147
0.0538227
0.00353636
0.0543232
0.00312713
0.0547711
0.0027146
0.0551627
0.0022997
0.0555028
0.00188248
0.0557955
0.00146462
0.05605
0.00104787
0.0562724
0.0564039
0.00305052
0.0651305
0.00372171
0.0622384
0.00435003
0.0576308
0.00502895
0.0525962
0.00571526
0.048631
0.00635119
0.0460349
0.00687611
0.0447738
0.00725356
0.0444722
0.00747484
0.0447498
0.00755413
0.0453122
0.00751619
0.0460076
0.00738773
0.0467622
0.00719138
0.0475632
0.00694354
0.0483917
0.00665589
0.0492352
0.0063366
0.0500717
0.00599196
0.0508828
0.00562691
0.0516551
0.00524579
0.0523808
0.00485201
0.0530527
0.00444836
0.0536717
0.00403717
0.0542339
0.00362023
0.0547401
0.00319898
0.0551923
0.00277416
0.0555875
0.00234703
0.0559299
0.0019176
0.0562249
0.00148761
0.05648
0.00105889
0.0567011
0.05683
0.00295566
0.0644956
0.00363883
0.0615553
0.00428865
0.056981
0.00500141
0.0518834
0.00572949
0.0479029
0.00640812
0.0453563
0.00697147
0.0442105
0.00737975
0.044064
0.0076233
0.0445063
0.00771662
0.0452188
0.00768605
0.0460381
0.0075598
0.0468884
0.00736221
0.0477608
0.00711072
0.0486432
0.00681773
0.0495282
0.00649185
0.0503975
0.00613949
0.0512351
0.00576579
0.0520288
0.00537515
0.0527714
0.00497113
0.0534568
0.00455661
0.0540862
0.00413405
0.0546564
0.00370529
0.0551689
0.00327203
0.0556256
0.00283489
0.0560247
0.00239543
0.0563694
0.00195371
0.0566666
0.00151144
0.0569222
0.00107049
0.0571421
0.0572687
0.0028955
0.0638742
0.00358044
0.0608703
0.00424377
0.0563177
0.00498328
0.0511439
0.00574813
0.0471381
0.00646631
0.0446381
0.00706643
0.0436103
0.00750491
0.0436255
0.00777066
0.0442405
0.00787819
0.0451113
0.00785522
0.0460611
0.00773142
0.0470122
0.00753276
0.0479595
0.00727779
0.0488982
0.00697963
0.0498264
0.00664733
0.0507298
0.00628743
0.051595
0.00590528
0.0524109
0.00550527
0.0531714
0.00509115
0.0538709
0.00466586
0.0545115
0.00423201
0.0550903
0.00379147
0.0556094
0.00334617
0.0560709
0.00289673
0.0564741
0.00244485
0.0568212
0.00199076
0.0571207
0.00153607
0.0573769
0.00108268
0.0575955
0.0577204
0.0028768
0.0632736
0.00355272
0.0601944
0.0042205
0.0556499
0.00497833
0.0503861
0.00577364
0.0463428
0.00652718
0.0438846
0.00716169
0.0429758
0.00762928
0.0431579
0.00791689
0.0439529
0.0080387
0.0449895
0.00802352
0.0460763
0.00790238
0.0471334
0.00770283
0.048159
0.00744454
0.0491564
0.0071414
0.0501295
0.00680285
0.0510684
0.00643559
0.0519623
0.00604518
0.0528013
0.00563597
0.0535806
0.0052119
0.0542949
0.00477597
0.0549474
0.0043309
0.0555354
0.00387866
0.0560617
0.00342132
0.0565282
0.00295959
0.0569358
0.00249524
0.0572856
0.0020287
0.0575873
0.00156147
0.0578441
0.00109543
0.0580615
0.0581852
0.00290629
0.0626995
0.00356202
0.0595387
0.00422424
0.0549877
0.00499059
0.0496197
0.0058087
0.0455247
0.00659231
0.043101
0.00725805
0.0423101
0.00775315
0.0426628
0.00806202
0.043644
0.00819803
0.0448535
0.00819074
0.0460836
0.00807246
0.0472516
0.00787219
0.0483593
0.00761077
0.0494179
0.00730281
0.0504375
0.00695821
0.051413
0.00658378
0.0523367
0.00618529
0.0531998
0.00576708
0.0539988
0.00533321
0.0547288
0.00488679
0.0553939
0.0044306
0.0559915
0.00396673
0.0565255
0.00349739
0.0569976
0.00302339
0.0574098
0.00254653
0.0577625
0.00206747
0.0580663
0.00158759
0.058324
0.00110872
0.0585404
0.0586634
0.00299038
0.0621563
0.00361467
0.0589144
0.00426048
0.0543419
0.00502433
0.0488559
0.00585622
0.0446928
0.00666345
0.0422937
0.00735642
0.0416171
0.00787689
0.0421423
0.00820607
0.0433149
0.00835606
0.0447035
0.0083567
0.0460829
0.00824145
0.0473669
0.00804064
0.0485601
0.00777626
0.0496823
0.00746366
0.0507501
0.00711319
0.0517635
0.00673182
0.0527181
0.00632544
0.0536062
0.00589843
0.0544258
0.00545491
0.0551723
0.00499817
0.0558506
0.00453097
0.0564587
0.00405557
0.0570009
0.00357426
0.0574789
0.00308802
0.0578961
0.00259863
0.0582518
0.00210702
0.0585579
0.00161438
0.0588167
0.00112252
0.0590323
0.0591552
0.00313485
0.0616465
0.00371673
0.0583325
0.00433471
0.0537239
0.00508387
0.0481067
0.00591928
0.0438574
0.00674251
0.0414705
0.00745782
0.0409018
0.00800092
0.0415992
0.00834914
0.0429666
0.00851267
0.04454