/*--------------------------------*- C++ -*----------------------------------*\
  =========                 |
  \\      /  F ield         | OpenFOAM: The Open Source CFD Toolbox
   \\    /   O peration     | Website:  https://openfoam.org
    \\  /    A nd           | Version:  7
     \\/     M anipulation  |
\*---------------------------------------------------------------------------*/
FoamFile
{
    version     2.0;
    format      ascii;
    class       surfaceScalarField;
    location    "1.8";
    object      phi;
}
// * * * * * * * * * * * * * * * * * * * * * * * * * * * * * * * * * * * * * //

dimensions      [0 3 -1 0 0 0 0];

internalField   nonuniform List<scalar> 
3880
(
-6.38036e-05
0.00355593
-0.00349213
0.000792834
0.00696545
-0.00782208
0.00261499
0.00855262
-0.0103748
0.00508675
0.00921386
-0.0116856
0.00786398
0.00947455
-0.0122518
0.0106957
0.00964089
-0.0124726
0.0134389
0.00985968
-0.0126029
0.0160327
0.0101764
-0.0127703
0.0184653
0.0105942
-0.0130268
0.0110588
0.0207625
-0.013356
-0.000122738
0.00367868
0.000712508
0.0061302
0.00258997
0.00667516
0.00520416
0.00659967
0.00819615
0.00648255
0.0112909
0.00654619
0.0143227
0.00682784
0.0172126
0.00728654
0.0199358
0.00787099
0.00847042
0.0225242
-0.000146735
0.00382542
0.000714803
0.00526866
0.0026869
0.00470306
0.00546037
0.0038262
0.00866185
0.00328107
0.0119987
0.00320934
0.0152889
0.00353761
0.0184397
0.00413578
0.0214159
0.00489473
0.00562629
0.0242601
-0.00012702
0.00395244
0.000824525
0.00431711
0.00294525
0.00258233
0.00590338
0.000868083
0.00930969
-0.000125252
0.0128625
-0.000343514
0.0163727
2.74767e-05
0.0197413
0.000767182
0.0229289
0.00170708
0.00257862
0.0259766
-4.91836e-05
0.00400162
0.00106308
0.00320484
0.00339807
0.000247341
0.00657217
-0.00230601
0.010178
-0.00373112
0.0139157
-0.0040812
0.0176006
-0.00365744
0.0211366
-0.00276878
0.0244895
-0.00164582
-0.00060131
0.0276694
6.97058e-05
0.00393192
0.00144091
0.00183364
0.00406136
-0.00237311
0.0074815
-0.00572616
0.0112773
-0.00752695
0.0151635
-0.00796734
0.018975
-0.00746896
0.0226279
-0.00642165
0.0261092
-0.00512716
-0.00384625
0.0293541
0.000244538
0.00368738
0.00195722
0.000120953
0.0049232
-0.00533909
0.00860652
-0.00940948
0.0125729
-0.0114933
0.0165659
-0.0119603
0.0204579
-0.011361
0.0241858
-0.0101495
0.0277798
-0.00872124
-0.00712723
0.0310608
0.000474691
0.00321269
0.00259296
-0.00199732
0.00593666
-0.00868279
0.00987355
-0.0133464
0.0139753
-0.015595
0.0180315
-0.0160165
0.0219678
-0.0152973
0.0257443
-0.0139261
0.0294435
-0.0124204
-0.0104858
0.032802
0.000748884
0.00246381
0.00331066
-0.00455909
0.00702147
-0.0123936
0.0111642
-0.0174891
0.0153439
-0.0197747
0.0194194
-0.020092
0.0233847
-0.0192626
0.0272261
-0.0177675
0.0310101
-0.0162044
-0.0140136
0.034538
0.00105471
0.00140909
0.00405958
-0.00756396
0.00807655
-0.0164106
0.0123361
-0.0217486
0.0165094
-0.023948
0.0205463
-0.0241289
0.0245239
-0.0232402
0.0285173
-0.0217609
0.0325308
-0.0202179
0.0361493
-0.0176322
0.0211643
0.0504575
-0.0508592
0.0208736
0.0588885
-0.0585978
0.019407
0.0656243
-0.0641577
0.0174097
0.072005
-0.0700076
0.0149505
0.077225
-0.0747657
0.0120728
0.0830527
-0.080175
0.00925616
0.0830324
-0.0802157
0.00612304
0.0906446
-0.0875114
0.00270159
0.0859288
-0.0825074
0.103861
-0.101159
0.0229967
0.0499849
0.0226128
0.0592724
0.0211024
0.0671347
0.0189933
0.0741141
0.0163809
0.0798373
0.0132958
0.0861378
0.010169
0.0861592
0.00673688
0.0940766
0.002932
0.0897337
0.106793
0.0248012
0.0494438
0.0243348
0.0597387
0.0228094
0.0686601
0.0205822
0.0763414
0.0178458
0.0825737
0.0145619
0.0894217
0.0111345
0.0895866
0.00740537
0.0978058
0.0032117
0.0939274
0.110004
0.0265859
0.0488345
0.0260723
0.0602523
0.0245435
0.0701889
0.0222054
0.0786794
0.0193573
0.0854219
0.0158758
0.0929031
0.0121533
0.0933091
0.00812837
0.101831
0.00353962
0.0985161
0.113544
0.0282958
0.0482081
0.0277709
0.0607773
0.0262744
0.0716854
0.0238562
0.0810976
0.0209109
0.0883672
0.0172348
0.0965792
0.013226
0.0973179
0.00890891
0.106148
0.00391651
0.103509
0.117461
0.0298769
0.0476853
0.0293796
0.0612746
0.0279673
0.0730977
0.0255065
0.0835583
0.022487
0.0913867
0.0186236
0.100443
0.0143418
0.1016
0.00973872
0.110751
0.00433995
0.108907
0.121801
0.0313017
0.0474444
0.0308554
0.061721
0.0295933
0.0743598
0.0271366
0.086015
0.0240819
0.0944414
0.0200436
0.104481
0.0155095
0.106134
0.0106293
0.115631
0.00481475
0.114722
0.126615
0.0325676
0.0476788
0.0321592
0.0621294
0.0310928
0.0754262
0.0286895
0.0884183
0.0256315
0.0974993
0.0214351
0.108677
0.0166888
0.11088
0.0115545
0.120766
0.00533709
0.120939
0.131952
0.0337109
0.0485059
0.0333232
0.0625171
0.0325002
0.0762493
0.0302479
0.0906705
0.0272389
0.100508
0.0228577
0.113059
0.0178956
0.115842
0.0124763
0.126185
0.00588402
0.127532
0.137836
0.0349974
0.0496578
0.0344281
0.0630864
0.0336176
0.0770598
0.0315306
0.0927576
0.0288029
0.103236
0.0241748
0.117687
0.0193192
0.120698
0.013519
0.131985
0.00659606
0.134454
0.144432
0.136884
0.0567424
-0.143968
0.124701
0.0752687
0.108934
0.0928272
0.0935484
0.108143
0.077895
0.118889
0.0632664
0.132315
0.0483206
0.135643
0.0324166
0.147889
0.0168664
0.150005
0.161299
0.14687
0.0714157
-0.161543
0.133761
0.0883768
0.121001
0.105588
0.107251
0.121893
0.0911309
0.13501
0.0748059
0.14864
0.0565226
0.153927
0.0376792
0.166732
0.0202164
0.167467
0.181515
0.162196
0.0850062
-0.175786
0.14897
0.101602
0.135129
0.119429
0.120327
0.136695
0.103685
0.151651
0.0860893
0.166237
0.0661024
0.173914
0.045233
0.187602
0.0249616
0.187739
0.206477
0.181484
0.0979235
-0.194401
0.167227
0.115859
0.151983
0.134673
0.135414
0.153264
0.117
0.170065
0.0971907
0.186046
0.0749584
0.196146
0.0506964
0.211864
0.0254094
0.213026
0.231886
0.201101
0.110721
-0.213899
0.186586
0.130374
0.170511
0.150748
0.152511
0.171264
0.132142
0.190435
0.109563
0.208625
0.0844612
0.221248
0.0580092
0.238316
0.0326558
0.238379
0.264542
0.22194
0.123398
-0.234617
0.207362
0.144952
0.19081
0.1673
0.172012
0.190062
0.150721
0.211725
0.127236
0.23211
0.101696
0.246788
0.0739085
0.266103
0.0398304
0.272457
0.304372
0.246244
0.13489
-0.257736
0.231574
0.159622
0.213856
0.185018
0.192734
0.211184
0.167353
0.237107
0.136304
0.263159
0.0987866
0.284305
0.0538937
0.310996
0.0182864
0.308065
0.322659
0.267651
0.145817
-0.278579
0.255469
0.171804
0.240734
0.199753
0.22335
0.228568
0.203094
0.257363
0.180981
0.285271
0.157363
0.307923
0.133964
0.334396
0.0864435
0.355585
0.409102
0.304735
0.15922
-0.318137
0.28651
0.19003
0.26416
0.222103
0.237892
0.254837
0.205081
0.290173
0.166781
0.323571
0.117996
0.356708
0.0668645
0.385527
0.0264642
0.395985
0.435566
0.323273
-0.306849
0.325971
0.319385
0.3037
0.282628
0.248618
0.20899
0.149694
0.0778042
0.0408828
-0.145803
-0.0390482
0.0436252
-0.164285
0.0458237
-0.177985
0.0474434
-0.196021
0.0482952
-0.214751
0.0486781
-0.235
0.0474912
-0.256549
0.046938
-0.278025
0.0430331
-0.314232
-0.294522
0.0399346
-0.147818
-0.0379192
0.0426808
-0.167031
0.0447841
-0.180088
0.0461048
-0.197341
0.046846
-0.215492
0.0469497
-0.235104
0.0459329
-0.255532
0.0448094
-0.276902
0.0410962
-0.310519
-0.28075
0.0379778
-0.149891
-0.0359049
0.0404418
-0.169495
0.042413
-0.182059
0.0435301
-0.198458
0.0442064
-0.216168
0.044269
-0.235166
0.0433873
-0.25465
0.0424337
-0.275948
0.0382462
-0.306332
-0.266348
0.0354578
-0.152094
-0.0332555
0.037634
-0.171672
0.0395533
-0.183979
0.0405607
-0.199466
0.0412352
-0.216843
0.0413408
-0.235272
0.0406977
-0.254007
0.0399535
-0.275204
0.0351917
-0.30157
-0.251416
0.0324237
-0.154423
-0.030094
0.0342719
-0.17352
0.0361297
-0.185837
0.0370981
-0.200434
0.0378205
-0.217565
0.0380496
-0.235501
0.0377169
-0.253674
0.037164
-0.274651
0.0318746
-0.296281
-0.236084
0.0288449
-0.156781
-0.0264872
0.0303629
-0.175038
0.032198
-0.187672
0.0331955
-0.201432
0.0340395
-0.218409
0.034467
-0.235928
0.0345145
-0.253722
0.034156
-0.274293
0.0284067
-0.290531
-0.220417
0.0248238
-0.15906
-0.0225451
0.0259867
-0.176201
0.02783
-0.189515
0.0288862
-0.202488
0.0299143
-0.219437
0.0306002
-0.236614
0.0310537
-0.254175
0.0308516
-0.274091
0.0248069
-0.284487
-0.204493
0.0204037
-0.161106
-0.0183573
0.0211779
-0.176975
0.0230936
-0.191431
0.0242331
-0.203627
0.0255032
-0.220707
0.0265031
-0.237614
0.0273617
-0.255034
0.0272757
-0.274005
0.0211131
-0.278324
-0.188495
0.0156871
-0.162795
-0.0139981
0.0160407
-0.177329
0.0180723
-0.193462
0.0193237
-0.204879
0.0208689
-0.222252
0.0222249
-0.23897
0.0234655
-0.256274
0.0234637
-0.274003
0.0172443
-0.272105
-0.172851
0.0107612
-0.164064
-0.00949172
0.0106908
-0.177258
0.0128605
-0.195632
0.0142663
-0.206285
0.016084
-0.22407
0.0178165
-0.240703
0.0194219
-0.25788
0.0195425
-0.274124
0.0131725
-0.265735
-0.158104
0.00567919
-0.164894
-0.00484946
0.00523879
-0.176818
0.00757331
-0.197967
0.00915214
-0.207863
0.0112209
-0.226139
0.0133221
-0.242804
0.0152915
-0.259849
0.0155501
-0.274382
0.00907456
-0.259259
-0.144449
0.000177942
-0.165049
-2.29741e-05
-9.68179e-05
-0.176543
0.00217187
-0.200235
0.00402209
-0.209714
0.00631738
-0.228434
0.00876942
-0.245256
0.0111225
-0.262202
0.0114906
-0.27475
0.00494299
-0.252711
-0.132047
-0.00484056
-0.165681
0.00547226
-0.00517607
-0.176207
-0.00322664
-0.202185
-0.0010592
-0.211881
0.00137031
-0.230864
0.00423154
-0.248117
0.00694443
-0.264915
0.00748209
-0.275288
0.000362296
-0.245592
-0.121487
-0.0101179
-0.166608
0.0110453
-0.00994444
-0.176381
-0.00850252
-0.203627
-0.00605334
-0.21433
-0.00345039
-0.233467
-0.000309522
-0.251258
0.00271009
-0.267935
0.00366737
-0.276245
-0.00252895
-0.239395
-0.111198
-0.0152942
-0.167861
0.0165466
-0.0143984
-0.177277
-0.0136151
-0.20441
-0.0109372
-0.217008
-0.00822475
-0.236179
-0.00482531
-0.254657
-0.00127992
-0.27148
0.000148757
-0.277674
-0.00549102
-0.233756
-0.101244
-0.0202414
-0.169066
0.0214472
-0.0186511
-0.178867
-0.0184736
-0.204587
-0.0156844
-0.219797
-0.0128579
-0.239006
-0.00915366
-0.258362
-0.00517493
-0.275459
-0.00402567
-0.278823
-0.00852374
-0.229257
-0.0917566
-0.0246469
-0.16966
0.0252406
-0.0225599
-0.180954
-0.0227509
-0.204396
-0.0199382
-0.22261
-0.0169857
-0.241958
-0.0130317
-0.262315
-0.00888526
-0.279605
-0.00751542
-0.280193
-0.0115127
-0.22526
-0.0828033
-0.0278375
-0.169655
0.0278322
-0.0257629
-0.183029
-0.0260695
-0.20409
-0.0233317
-0.225348
-0.0203578
-0.244932
-0.0163633
-0.26631
-0.012216
-0.283753
-0.0105943
-0.281815
-0.0144547
-0.2214
-0.0744026
-0.03015
-0.169367
0.0298619
-0.0287126
-0.184466
-0.0290246
-0.203778
-0.0266518
-0.227721
-0.0238124
-0.247771
-0.019938
-0.270184
-0.0158018
-0.287889
-0.0137763
-0.28384
-0.0174989
-0.217677
-0.06655
-0.0346682
-0.166567
0.031868
-0.0341233
-0.185011
-0.0342574
-0.203644
-0.0329184
-0.22906
-0.0302145
-0.250475
-0.0261633
-0.274236
-0.0214403
-0.292612
-0.0184913
-0.286789
-0.0202248
-0.215944
-0.0586742
-0.0281339
-0.158183
0.0197499
-0.0271978
-0.185947
-0.028606
-0.202235
-0.0290577
-0.228608
-0.0263436
-0.253189
-0.0246332
-0.275946
-0.029081
-0.288164
-0.0508679
-0.265002
-0.0951238
-0.171688
-0.024935
-0.0502965
-0.151871
0.0439855
-0.0542483
-0.181996
-0.0545499
-0.201934
-0.0539302
-0.229228
-0.0523493
-0.25477
-0.052849
-0.275446
-0.0643854
-0.276628
-0.097579
-0.231809
-0.145122
-0.124145
6.68876e-05
-0.0717244
-0.147165
0.0670177
-0.0762456
-0.177474
-0.0791692
-0.19901
-0.0797709
-0.228626
-0.0798122
-0.254729
-0.0843938
-0.270865
-0.104026
-0.256995
-0.144751
-0.191084
-0.190385
-0.0785109
0.0156144
-0.0968345
-0.140954
0.0906237
-0.103801
-0.170508
-0.107784
-0.195026
-0.109808
-0.226602
-0.111813
-0.252724
-0.121891
-0.260787
-0.15116
-0.227726
-0.19843
-0.143814
-0.239591
-0.0373502
0.0217471
-0.121356
-0.131729
0.112132
-0.131854
-0.16001
-0.138708
-0.188172
-0.143371
-0.22194
-0.149752
-0.246343
-0.168545
-0.241993
-0.208117
-0.188154
-0.25744
-0.0944914
-0.289171
-0.0056188
0.0197894
-0.146551
-0.118283
0.133105
-0.161524
-0.145037
-0.173251
-0.176445
-0.183569
-0.211623
-0.198448
-0.231464
-0.22859
-0.211851
-0.275096
-0.141648
-0.319132
-0.0504553
-0.337276
0.0125252
0.012297
-0.171964
-0.0970971
0.150778
-0.194609
-0.122392
-0.215637
-0.155417
-0.236262
-0.190998
-0.262084
-0.205641
-0.301401
-0.172534
-0.346798
-0.0962511
-0.377977
-0.0192765
-0.382373
0.0169218
0.00374567
-0.202337
-0.070806
0.176046
-0.234355
-0.0903742
-0.265529
-0.124244
-0.296122
-0.160405
-0.332881
-0.168882
-0.380336
-0.125079
-0.423503
-0.0530843
-0.44218
-0.000599983
-0.435614
0.0103561
-0.00277865
-0.21244
-0.0368019
0.178436
-0.250024
-0.0527904
-0.294257
-0.0800106
-0.347716
-0.106946
-0.415558
-0.101041
-0.486966
-0.0536702
-0.530308
-0.00974281
-0.533609
0.00270099
-0.521739
-0.00151338
-0.00431584
-0.202641
0.165839
-0.255432
-0.335442
-0.442388
-0.543429
-0.597099
-0.606842
-0.604141
-0.605654
-0.0407519
0.0242155
0.0362863
-0.0434443
0.0466778
-0.0450211
0.0685945
-0.0442987
0.0899013
-0.0416807
0.109514
-0.037587
0.129011
-0.0300045
0.143196
-0.0223423
0.168384
-0.0110719
0.167165
0.154767
-0.0398295
0.0272365
0.0368085
-0.0414457
0.0482941
-0.0424027
0.0695515
-0.0411465
0.0886451
-0.0385254
0.106893
-0.0340902
0.124576
-0.0281499
0.137256
-0.019546
0.15978
-0.0103596
0.157979
0.144408
-0.0399276
0.0299962
0.0371679
-0.0406948
0.0490613
-0.040966
0.0698228
-0.039102
0.0867811
-0.0361544
0.103945
-0.0316851
0.120107
-0.0257743
0.131345
-0.0177382
0.151744
-0.00945608
0.149697
0.134952
-0.0394371
0.0324005
0.0370327
-0.039854
0.0494782
-0.039709
0.0696778
-0.0374366
0.0845086
-0.0342027
0.100711
-0.0296437
0.115548
-0.0237799
0.125481
-0.0162282
0.144192
-0.00872046
0.142189
0.126231
-0.0383057
0.0343231
0.0363831
-0.0384364
0.0496088
-0.0379953
0.0692367
-0.035555
0.0820683
-0.0322223
0.0973784
-0.0276981
0.111024
-0.0219781
0.119761
-0.0149066
0.137121
-0.00800003
0.135283
0.118231
-0.0367749
0.0358576
0.0352405
-0.03667
0.0495039
-0.0358922
0.0684589
-0.0334055
0.0795817
-0.0300944
0.0940672
-0.0257177
0.106647
-0.0202473
0.114291
-0.0136268
0.1305
-0.00716475
0.128821
0.111067
-0.0349152
0.0370951
0.0336776
-0.0347196
0.0493084
-0.0336009
0.0673402
-0.0311536
0.0771343
-0.0278868
0.0908004
-0.0237018
0.102462
-0.0185469
0.109136
-0.012333
0.124286
-0.0062209
0.122708
0.104846
-0.0328054
0.0381009
0.0317996
-0.0326215
0.0491245
-0.0312084
0.0659271
-0.0288541
0.07478
-0.0256404
0.0875868
-0.0216691
0.0984908
-0.0168645
0.104331
-0.011041
0.118463
-0.00525641
0.116924
0.0995893
-0.0305424
0.0389253
0.029718
-0.0304245
0.0490066
-0.0287709
0.0642736
-0.0265392
0.0725483
-0.0234004
0.0844479
-0.0196561
0.0947466
-0.0152196
0.0998947
-0.00979375
0.113037
-0.00435405
0.111484
0.0952352
-0.0281981
0.0395799
0.0275434
-0.0281579
0.0489664
-0.0263446
0.0624602
-0.0242594
0.0704631
-0.0212208
0.0814094
-0.0177089
0.0912346
-0.0136494
0.0958351
-0.00863253
0.10802
-0.00355902
0.106411
0.0916762
-0.0258102
0.0400831
0.025307
-0.0258304
0.0489866
-0.0239683
0.0605981
-0.022037
0.0685318
-0.0191343
0.0785067
-0.0158593
0.0879596
-0.0121834
0.0921592
-0.00758249
0.103419
-0.00288613
0.101714
0.0887901
-0.0233755
0.0404195
0.0230391
-0.0234635
0.0490745
-0.0216063
0.0587409
-0.0198364
0.0667619
-0.0171389
0.0758091
-0.0141187
0.0849394
-0.0108328
0.0888733
-0.00664781
0.0992343
-0.00233123
0.0973978
0.0864588
-0.021002
0.0405321
0.0208894
-0.0211536
0.0492262
-0.0193401
0.0569274
-0.0177281
0.0651499
-0.015277
0.073358
-0.0125079
0.0821703
-0.00960741
0.0859728
-0.00582273
0.0954496
-0.00188083
0.0934559
0.084578
-0.0188176
0.0404427
0.018907
-0.0190065
0.0494151
-0.0172587
0.0551796
-0.0157607
0.0636519
-0.0135885
0.0711858
-0.011041
0.0796228
-0.00851015
0.0834419
-0.00509468
0.0920341
-0.00151737
0.0898785
0.0830606
-0.0168288
0.0402106
0.0170609
-0.0169782
0.0495645
-0.015408
0.0536094
-0.0139803
0.0622243
-0.0120726
0.0692781
-0.009718
0.0772682
-0.00753972
0.0812636
-0.00445417
0.0889486
-0.0012292
0.0866536
0.0818314
-0.0150096
0.0399141
0.015306
-0.0150696
0.0496245
-0.0137314
0.0522711
-0.0123972
0.0608901
-0.0107191
0.0676001
-0.00852715
0.0750762
-0.0066855
0.079422
-0.0038948
0.0861579
-0.00101258
0.0837714
0.0808189
-0.013324
0.039645
0.0135931
-0.0133092
0.0496098
-0.0121864
0.0511484
-0.0109504
0.059654
-0.0095007
0.0661504
-0.00745716
0.0730327
-0.00593483
0.0778997
-0.00341264
0.0836357
-0.000869171
0.0812279
0.0799497
-0.0116918
0.0394854
0.0118514
-0.0116023
0.0495203
-0.0107285
0.0502746
-0.00956241
0.0584879
-0.0083913
0.0649793
-0.0065011
0.0711425
-0.0052779
0.0766765
-0.00300342
0.0813612
-0.000806446
0.0790309
0.0791432
-0.0100541
0.0394627
0.0100768
-0.00999903
0.0494652
-0.0093661
0.0496417
-0.00827331
0.0573951
-0.0073833
0.0640893
-0.00565273
0.0694119
-0.00471108
0.0757348
-0.00266851
0.0793186
-0.000836828
0.0771992
0.0783064
-0.00854374
0.0402316
0.00777488
-0.00832364
0.0492451
-0.00797474
0.0492928
-0.00689273
0.0563131
-0.00631898
0.0635155
-0.00475216
0.0678451
-0.00415086
0.0751335
-0.00236647
0.0775342
-0.000970762
0.0758035
0.0773356
-0.0755208
0.0259418
0.0898105
-0.0649412
0.0386655
-0.0588089
0.0431605
-0.0517254
0.0492297
-0.043984
0.0557741
-0.0360545
0.0599156
-0.0267182
0.0657973
-0.0177868
0.0686028
-0.00969959
0.0677163
0.0676361
-0.068725
0.0286313
0.0660356
-0.0623536
0.032294
-0.0577438
0.0385507
-0.0514739
0.0429598
-0.0437426
0.0480428
-0.0363495
0.0525225
-0.0266708
0.0561186
-0.0179934
0.0599255
-0.00976694
0.0594898
0.0578691
-0.0612182
0.0229503
0.0668992
-0.0556909
0.0267667
-0.050008
0.0328678
-0.044258
0.0372098
-0.0378396
0.0416243
-0.0313842
0.0460671
-0.0234727
0.048207
-0.0159196
0.0523724
-0.0082586
0.0518288
0.0496105
-0.0562163
0.0190372
0.0601295
-0.0518497
0.0224001
-0.0464881
0.0275061
-0.0406968
0.0314185
-0.0342875
0.0352151
-0.0277432
0.0395228
-0.0205754
0.0410392
-0.0136031
0.0454001
-0.00663579
0.0448615
0.0429747
-0.0512083
0.0155657
0.0546798
-0.047299
0.0184907
-0.0424646
0.0226718
-0.0370784
0.0260323
-0.0310552
0.0291919
-0.0247292
0.0331968
-0.0181591
0.034469
-0.0116179
0.038859
-0.00534332
0.0385869
0.0376314
-0.0472742
0.0122837
0.0505562
-0.0435459
0.0147625
-0.0389307
0.0180566
-0.0337616
0.0208631
-0.0280453
0.0234756
-0.0218195
0.026971
-0.0157973
0.0284468
-0.00955906
0.0326208
-0.00404274
0.0330706
0.0335887
-0.0441674
0.00926507
0.0471861
-0.0405317
0.0111267
-0.0360367
0.0135617
-0.0309533
0.0157797
-0.0254157
0.017938
-0.0189548
0.0205101
-0.0134163
0.0229083
-0.00703875
0.0262432
-0.00234494
0.0283767
0.0312437
-0.0419431
0.00641486
0.0447933
-0.0383078
0.00749138
-0.0338161
0.00906994
-0.0286922
0.0106558
-0.0232318
0.0124776
-0.0160281
0.0133064
-0.0109893
0.0178694
-0.00336734
0.0186213
0.000370682
0.0246387
0.0316144
-0.0431588
0.00368984
0.0458838
-0.0393776
0.00371018
-0.034669
0.00436134
-0.0292215
0.00520838
-0.0236021
0.00685819
-0.0150138
0.0047181
-0.0100263
0.0128819
0.000144066
0.00845092
0.00607016
0.0187126
0.0376846
-0.102586
0.106276
-0.0988761
-0.0945147
-0.0893064
-0.0824482
-0.0777301
-0.0648481
-0.0563972
-0.0376846
-0.00942388
0.0906406
0.00859379
-0.00547107
0.0620828
-0.00478892
0.066217
-0.00322613
0.0585667
-0.00226393
0.0537176
-0.00148856
0.0497809
-0.000893128
0.0465906
-0.000488259
0.0443885
-0.000597674
0.0459932
0.105678
-0.00772102
0.089533
0.00882858
-0.004622
0.0589837
-0.00425657
0.0658516
-0.00278239
0.0570925
-0.0020308
0.052966
-0.00134871
0.0490988
-0.000829152
0.0460711
-0.000452545
0.0440119
-0.000497092
0.0460377
0.105181
-0.0062272
0.0869512
0.00880908
-0.00428687
0.0570434
-0.00372638
0.0652911
-0.00251238
0.0558785
-0.00186753
0.0523212
-0.00126471
0.0484959
-0.000797913
0.0456043
-0.000430315
0.0436443
-0.000385465
0.0459929
0.104796
-0.00414847
0.0834278
0.00767185
-0.00400654
0.0569015
-0.00321178
0.0644964
-0.00229275
0.0549595
-0.00171945
0.0517479
-0.00118459
0.0479611
-0.000755041
0.0451747
-0.000389112
0.0432783
-0.000265261
0.045869
0.104531
-0.00200624
0.079565
0.00586899
-0.0035533
0.0584485
-0.0026459
0.063589
-0.00203828
0.0543519
-0.0015334
0.051243
-0.00106907
0.0474968
-0.000677709
0.0447834
-0.000323313
0.0429239
-0.000142966
0.0456887
0.104388
-0.000629942
0.0759888
0.00420622
-0.00303494
0.0608535
-0.00207933
0.0626333
-0.00175194
0.0540245
-0.00131184
0.0508029
-0.000919916
0.0471048
-0.000571606
0.0444351
-0.000241714
0.042594
-3.33422e-05
0.0454803
0.104354
-9.06484e-05
0.0731058
0.00297363
-0.00253319
0.0632961
-0.00155763
0.0616578
-0.00145138
0.0539182
-0.00106879
0.0504203
-0.000747815
0.0467838
-0.000445995
0.0441332
-0.000149482
0.0422975
9.28552e-05
0.045238
0.104447
9.94013e-05
0.0709486
0.00205776
-0.00202605
0.0654215
-0.00108844
0.0607202
-0.00113438
0.0539642
-0.000810652
0.0500965
-0.000559812
0.046533
-0.000308622
0.0438821
-5.24419e-05
0.0420413
0.000199276
0.0449863
0.104646
0.000208708
0.0694418
0.00129813
-0.00148585
0.0671161
-0.000671482
0.0599058
-0.00080105
0.0540937
-0.000543131
0.0498386
-0.000363263
0.0463531
-0.000167012
0.0436858
3.97999e-05
0.0418345
0.000278093
0.044748
0.104925
0.000372579
0.0684766
0.000592653
-0.000900585
0.0683893
-0.000301756
0.059307
-0.000453424
0.0542454
-0.000272196
0.0496574
-0.00016521
0.0462462
-2.47454e-05
0.0435453
0.000126165
0.0416836
0.000332047
0.0445421
0.105257
0.000620339
0.0679532
-9.70082e-05
-0.000258235
0.0692678
2.81733e-05
0.0590206
-8.39192e-05
0.0543575
-6.76446e-06
0.0495802
2.92822e-05
0.0462101
0.000111281
0.0434633
0.000205756
0.0415891
0.000358614
0.0443892
0.105615
0.000927617
0.0676461
-0.000620491
0.000331586
0.0698639
0.000444576
0.0589076
0.000268337
0.0545337
0.000254812
0.0495938
0.000230891
0.046234
0.000242475
0.0434517
0.000276925
0.0415547
0.000376715
0.0442894
0.105992
0.00120566
0.0676847
-0.0012443
0.000921974
0.0701476
0.000810294
0.0590193
0.000626799
0.0547172
0.000514815
0.0497058
0.0004242
0.0463246
0.000367718
0.0435082
0.000339543
0.0415829
0.000387116
0.0442419
0.106379
0.00143583
0.0681516
-0.00190265
0.00155794
0.0700254
0.00116977
0.0594074
0.000975182
0.0549118
0.000765901
0.049915
0.000608707
0.0464818
0.000485103
0.0436318
0.000393833
0.0416741
0.000390851
0.0442448
0.10677
0.00174577
0.0690297
-0.00262393
0.00221822
0.069553
0.00152932
0.0600963
0.00131226
0.0551289
0.00100797
0.0502193
0.000782189
0.0467076
0.000593356
0.0438207
0.000440202
0.0418273
0.000390937
0.0442941
0.107161
0.0020865
0.0703878
-0.0034446
0.00289465
0.0687448
0.00190366
0.0610873
0.00164003
0.0553925
0.00124027
0.0506191
0.000943045
0.0470048
0.000691237
0.0440725
0.000478979
0.0420395
0.000391003
0.0443821
0.107552
0.00246613
0.0723284
-0.0044067
0.00353549
0.0676755
0.0022951
0.0623277
0.00195271
0.0557349
0.00145659
0.0511152
0.00108756
0.0473739
0.000776684
0.0443833
0.000510755
0.0423055
0.000395454
0.0444974
0.107947
0.00293097
0.0749688
-0.00557136
0.00409511
0.0665114
0.00272276
0.0637001
0.00226118
0.0561965
0.00166532
0.0517111
0.00122047
0.0478187
0.000852437
0.0447514
0.000538731
0.0426192
0.000411313
0.0446248
0.108359
0.00350583
0.0783091
-0.00684611
0.00454546
0.0654717
0.00315802
0.0650875
0.00251916
0.0568354
0.0018362
0.052394
0.00132064
0.0483343
0.000901115
0.0451709
0.000553627
0.0429667
0.000439198
0.0447392
0.108798
0.00399689
0.0825107
-0.00819854
0.00470228
0.0647663
0.00350924
0.0662805
0.00271278
0.0576318
0.00199941
0.0531074
0.00140474
0.0489289
0.000940097
0.0456355
0.00055744
0.0433493
0.000484641
0.044812
0.109282
-0.0442078
0.0799233
0.0467952
-0.0321126
0.0526712
-0.0259874
0.0601553
-0.0203577
0.0520021
-0.0160802
0.0488299
-0.0123655
0.0452142
-0.00905581
0.0423259
-0.00608814
0.0403817
-0.00418928
0.0429132
0.105093
-0.0363533
0.0673027
0.0489739
-0.0354913
0.0518093
-0.0284924
0.0531563
-0.023919
0.0474288
-0.0193275
0.0442383
-0.0150925
0.0409793
-0.0111144
0.0383477
-0.00730167
0.036569
-0.00374756
0.0393591
0.101346
-0.039934
0.0540974
0.0531393
-0.0389375
0.0508128
-0.0318664
0.0460851
-0.0272695
0.0428319
-0.0223034
0.0392722
-0.0175966
0.0362725
-0.0130007
0.0337518
-0.00842363
0.0319919
-0.00392161
0.0348571
0.0974239
-0.0463742
0.0454396
0.055032
-0.042735
0.0471737
-0.0358579
0.039208
-0.0306333
0.0376073
-0.0252943
0.0339332
-0.0201258
0.031104
-0.0149467
0.0285727
-0.00962504
0.0266702
-0.0043358
0.0295678
0.0930881
-0.0523134
0.036133
0.06162
-0.04618
0.0410402
-0.0392925
0.0323205
-0.0333852
0.0317
-0.0277529
0.0283009
-0.0223624
0.0257135
-0.0170874
0.0232976
-0.0118413
0.0214242
-0.00631468
0.0240412
0.0867735
-0.0548462
0.0296656
0.0613137
-0.0496482
0.0358422
-0.0433626
0.0260348
-0.0373707
0.0257082
-0.0315125
0.0224427
-0.0255088
0.0197098
-0.0189394
0.0167283
-0.0112436
0.0137285
-0.00298897
0.0157865
0.0837845
-0.0598092
0.02124
0.0682348
-0.0513311
0.0273641
-0.0446761
0.0193798
-0.0381502
0.0191823
-0.0323637
0.0166562
-0.0270395
0.0143857
-0.0221446
0.0118333
-0.0175774
0.00916127
-0.0124596
0.0106687
0.0713249
-0.0618818
0.0146335
0.0684883
-0.0550686
0.0205509
-0.0489489
0.0132602
-0.0427993
0.0130327
-0.0371137
0.0109706
-0.031539
0.00881097
-0.0254337
0.00572802
-0.0168966
0.000624171
-0.00640707
0.00017917
0.0649178
-0.0647422
0.0084235
0.0709521
-0.0547119
0.0105206
-0.048603
0.00715134
-0.042243
0.0066726
-0.0367355
0.00546311
-0.031957
0.00403244
-0.0282137
0.00198478
-0.0263492
-0.0012403
-0.0243841
-0.00178598
0.0405338
-0.0733323
0.0817558
-0.0628118
-0.0556604
-0.0489878
-0.0435247
-0.0394923
-0.0375075
-0.0387478
-0.0405338
0.0101189
0.0479103
-0.0112339
0.00709747
0.0519953
0.00542247
0.0548143
0.00372587
0.0567286
0.00311378
0.0622321
0.00165755
0.0627699
0.00168103
0.0682113
0.000241013
0.0699283
0.000985149
0.070208
0.082741
0.0099746
0.0497848
-0.0118491
0.00720314
0.0547668
0.00576659
0.0562508
0.00438183
0.0581133
0.00379643
0.0628175
0.00233504
0.0642313
0.0021943
0.0683521
0.000770978
0.0713516
0.00126755
0.0697114
0.0840085
0.00994132
0.0513058
-0.0114623
0.00817711
0.056531
0.00705582
0.0573721
0.0058157
0.0593535
0.00502588
0.0636073
0.00353397
0.0657233
0.00303178
0.0688543
0.00159365
0.0727897
0.00160196
0.0697031
0.0856105
0.01025
0.0520652
-0.0110094
0.00937399
0.0574069
0.00858399
0.0581621
0.00729472
0.0606427
0.0063098
0.0645922
0.00473723
0.0672958
0.00392549
0.069666
0.00240343
0.0743118
0.0018878
0.0702188
0.0874983
0.0110121
0.0522344
-0.0111812
0.0106475
0.0577716
0.00990431
0.0589053
0.00863601
0.061911
0.00747962
0.0657486
0.00579631
0.0689791
0.00472537
0.0707369
0.00307155
0.0759656
0.00206843
0.0712219
0.0895667
0.0122319
0.0520886
-0.0120861
0.012096
0.0579075
0.0112926
0.0597086
0.00995507
0.0632486
0.00860533
0.0670983
0.00677046
0.070814
0.00544534
0.0720621
0.00361525
0.0777957
0.00216574
0.0726714
0.0917325
0.0137946
0.0518205
-0.0135265
0.0137014
0.0580007
0.0128119
0.0605982
0.0113246
0.0647358
0.00975546
0.0686675
0.00773171
0.0728378
0.00613881
0.073655
0.00409518
0.0798393
0.0022273
0.0745393
0.0939598
0.0155665
0.051512
-0.015258
0.0154114
0.0581558
0.0143763
0.0616332
0.0127558
0.0663564
0.010956
0.0704672
0.00872524
0.0750685
0.00684603
0.0755342
0.00456081
0.0821246
0.00229243
0.0768076
0.0962522
0.0174124
0.0511955
-0.0170958
0.0172058
0.0583623
0.0160165
0.0628226
0.0142565
0.0681164
0.0122221
0.0725016
0.00977766
0.077513
0.00759479
0.077717
0.00504415
0.0846752
0.00238607
0.0794657
0.0986383
0.0192855
-0.0189493
0.01905
0.0177149
0.0158236
0.0135595
0.0108975
0.00839876
0.00556252
0.00252089
0.0013807
2.83886e-05
0.00478766
-0.0109709
0.00900165
-0.0206246
0.0132523
-0.0259993
0.0173079
-0.0280036
0.0212154
-0.0280364
0.0251097
-0.0271346
0.0291655
-0.0258167
0.0335574
-0.0246098
-0.0231229
0.00169998
-0.00167159
0.00541524
-0.0146862
0.00968613
-0.0248954
0.0137986
-0.0301117
0.0176363
-0.0318414
0.0213298
-0.0317298
0.025046
-0.0308508
0.0289702
-0.0297409
0.0331231
-0.0287627
-0.027919
0.00199753
-0.00366912
0.00590176
-0.0185904
0.0100803
-0.029074
0.0139302
-0.0339616
0.0174585
-0.0353697
0.0208588
-0.0351301
0.0243088
-0.0343008
0.027945
-0.033377
0.0317796
-0.0325974
-0.0320443
0.00225236
-0.00592148
0.00620557
-0.0225436
0.0101496
-0.0330181
0.0136337
-0.0374457
0.0167839
-0.0385199
0.0198366
-0.0381827
0.0229638
-0.037428
0.026257
-0.0366702
0.0297051
-0.0360455
-0.0355947
0.0024433
-0.00836478
0.00629921
-0.0263995
0.00988593
-0.0366048
0.0129266
-0.0404863
0.0156516
-0.0412449
0.0183211
-0.0408523
0.0210888
-0.0401957
0.0240041
-0.0395855
0.0270313
-0.0390727
-0.0386574
0.00255157
-0.0109164
0.00617124
-0.0300192
0.00930299
-0.0397365
0.0118465
-0.0430299
0.0141155
-0.0435139
0.016377
-0.0431137
0.0187585
-0.0425772
0.0212733
-0.0421002
0.0238709
-0.0416704
-0.0412736
0.00256381
-0.0134802
0.00582653
-0.0332819
0.00843255
-0.0423426
0.0104451
-0.0450424
0.0122372
-0.045306
0.0140709
-0.0449474
0.0160468
-0.0445531
0.0181513
-0.0442048
0.0203314
-0.0438504
-0.0434873
0.00247452
-0.0159547
0.00528453
-0.0360919
0.00731992
-0.0443779
0.00878298
-0.0465055
0.0100835
-0.0466065
0.0114729
-0.0463368
0.0130319
-0.0461121
0.0147323
-0.0459052
0.0165198
-0.0456379
-0.0453249
0.00228701
-0.0182417
0.00457651
-0.0383815
0.00602014
-0.0458216
0.00692764
-0.047413
0.00772567
-0.0474045
0.00865654
-0.0472677
0.00979486
-0.0472504
0.0111087
-0.047219
0.0125319
-0.0470612
-0.0467911
0.00201199
-0.0202537
0.00374207
-0.0401115
0.00459474
-0.0466742
0.00495188
-0.0477701
0.0052404
-0.047693
0.00569886
-0.0477262
0.00641179
-0.0479633
0.00735146
-0.0481587
0.00842718
-0.0481369
-0.0478556
0.00176656
-0.0220202
0.00295648
-0.0413015
0.00323272
-0.0469505
0.00304138
-0.0475788
0.00280275
-0.0474544
0.00275726
-0.0476807
0.00301315
-0.0482192
0.00354586
-0.0486914
0.00422074
-0.0488118
-0.0484844
0.00141176
-0.023432
0.00204527
-0.041935
0.00177965
-0.0466848
0.00107515
-0.0468743
0.000323673
-0.0467029
-0.00022277
-0.0471342
-0.000450033
-0.047992
-0.000372199
-0.0487692
-0.000158784
-0.0490252
-0.0486661
0.00103466
-0.0244666
0.00113692
-0.0420372
0.000374535
-0.0459225
-0.000782724
-0.0457171
-0.00201138
-0.0454743
-0.00308951
-0.0460561
-0.00386271
-0.0472188
-0.00434251
-0.0482894
-0.00475787
-0.0486099
-0.0479517
0.000652447
-0.0251191
0.000283911
-0.0416687
-0.000921635
-0.0447169
-0.00248189
-0.0441568
-0.0041481
-0.0438081
-0.00574659
-0.0444576
-0.00712975
-0.0458356
-0.00830535
-0.0471138