/*--------------------------------*- C++ -*----------------------------------*\
  =========                 |
  \\      /  F ield         | OpenFOAM: The Open Source CFD Toolbox
   \\    /   O peration     | Website:  https://openfoam.org
    \\  /    A nd           | Version:  7
     \\/     M anipulation  |
\*---------------------------------------------------------------------------*/
FoamFile
{
    version     2.0;
    format      ascii;
    class       volScalarField;
    location    "59.4";
    object      p;
}
// * * * * * * * * * * * * * * * * * * * * * * * * * * * * * * * * * * * * * //

dimensions      [0 2 -2 0 0 0 0];

internalField   nonuniform List<scalar> 
2000
(
0.0208239
0.0208849
0.0210871
0.0213187
0.021547
0.0217623
0.0219692
0.0221801
0.022406
0.0226883
0.021113
0.021177
0.0214008
0.0216652
0.0219303
0.0221787
0.0224064
0.0226183
0.0228171
0.0230372
0.0213504
0.021436
0.0216871
0.0219893
0.0222963
0.0225838
0.0228407
0.023065
0.023252
0.02342
0.0215295
0.021659
0.0219425
0.0222859
0.0226368
0.0229664
0.0232578
0.0235035
0.0236944
0.0238229
0.0216489
0.0218458
0.0221655
0.0225498
0.0229433
0.0233138
0.0236404
0.0239121
0.0241216
0.0242272
0.0217113
0.0219996
0.0223561
0.0227784
0.0232088
0.0236137
0.0239709
0.0242702
0.024505
0.0246057
0.0217275
0.0221235
0.0225172
0.0229713
0.0234283
0.0238555
0.0242316
0.024547
0.0248089
0.024922
0.0217097
0.0222262
0.0226536
0.0231298
0.0235991
0.0240317
0.0244096
0.0247261
0.0250044
0.0251415
0.0216749
0.0223173
0.0227718
0.0232568
0.0237202
0.0241371
0.0244952
0.0247953
0.0250815
0.0252569
0.0216434
0.0224075
0.0228792
0.0233568
0.0237927
0.0241673
0.0244761
0.0247298
0.0249933
0.0252053
0.0237479
0.0263116
0.0295911
0.0332854
0.036852
0.0405958
0.0435079
0.0468511
0.0479714
0.0498645
0.0239192
0.0260206
0.0288905
0.032271
0.035578
0.0390989
0.0418149
0.0449628
0.0461228
0.0478269
0.0240885
0.0258028
0.0282293
0.0312955
0.0343582
0.0376714
0.040211
0.0432056
0.044333
0.0459214
0.0242329
0.0256681
0.0276127
0.0303674
0.0331966
0.0363106
0.0386967
0.0415526
0.0426282
0.0441499
0.0243299
0.0256122
0.0270448
0.0294957
0.0320984
0.0350226
0.0372745
0.0400039
0.0410369
0.0425118
0.024363
0.0256059
0.0265289
0.0286852
0.0310615
0.0338
0.0359261
0.0385355
0.0395401
0.0409899
0.0243257
0.0255959
0.0260701
0.0279421
0.0300975
0.0326616
0.0346753
0.0371758
0.038158
0.0395814
0.0242097
0.025515
0.0256718
0.027251
0.0291768
0.0315615
0.0334659
0.0358597
0.0368328
0.0382618
0.0240183
0.0252864
0.0253301
0.0266586
0.0283808
0.030594
0.0323985
0.0346781
0.0356286
0.0370363
0.0239651
0.0249998
0.0249571
0.0259852
0.0274908
0.0295263
0.0312508
0.0334254
0.0344151
0.0358576
0.025322
0.0262146
0.0262121
0.0263984
0.0270958
0.0283764
0.0296873
0.0312783
0.0321565
0.0331926
0.0219936
0.0232608
0.0239815
0.0244687
0.0250635
0.0259204
0.0268287
0.0279002
0.0285254
0.0291629
0.0185915
0.0201031
0.0211117
0.0217896
0.0224181
0.0231665
0.0238497
0.0246119
0.0250011
0.0253981
0.0148139
0.0165525
0.0179302
0.0188915
0.0195784
0.0202784
0.0208535
0.0214369
0.021667
0.0219266
0.0108392
0.0126571
0.0144003
0.0157333
0.0166206
0.0173369
0.0178597
0.0183306
0.0184552
0.0186237
0.00703782
0.00883487
0.0107795
0.0123778
0.0134781
0.014281
0.0148196
0.0152462
0.0153336
0.0154345
0.00378502
0.00542052
0.0073648
0.00909467
0.0103274
0.011173
0.011687
0.0120546
0.0121238
0.0122026
0.00138485
0.00270246
0.00437259
0.00597828
0.00720757
0.00805681
0.00853766
0.00883273
0.00885272
0.00888978
-1.0908e-05
0.000901509
0.00212387
0.00333002
0.00426862
0.004908
0.00524061
0.0054485
0.00542252
0.00543604
-0.000916404
-0.000359695
0.000325412
0.000999002
0.00150398
0.00182806
0.00193048
0.00201354
0.00192685
0.00190744
0.0238682
0.0204873
0.017141
0.0134737
0.00971878
0.00615816
0.00315254
0.000939483
-0.000169599
-0.00115685
0.0231141
0.0196555
0.0163026
0.0126826
0.00904154
0.00562806
0.0027906
0.000725536
-0.000233062
-0.0011779
0.0222119
0.0188514
0.0155349
0.0119844
0.00845775
0.00518284
0.00249847
0.00057009
-0.000276102
-0.00106517
0.02136
0.0181638
0.01489
0.0114168
0.00800611
0.00486209
0.00231258
0.000505535
-0.000277904
-0.000909634
0.0206261
0.0175888
0.0143594
0.0109616
0.007665
0.00464157
0.00221711
0.000511518
-0.000232226
-0.00074594
0.0200525
0.0171344
0.0139504
0.0106182
0.00743076
0.00452233
0.0022023
0.000578572
-0.000146798
-0.000582225
0.0196569
0.0168034
0.0136589
0.0103974
0.00730425
0.00449459
0.00226241
0.000700069
-2.89607e-05
-0.000423794
0.0194372
0.0165948
0.0134927
0.0102867
0.00727739
0.00455137
0.00238924
0.000867531
0.00011477
-0.00027471
0.0194128
0.0165089
0.0134425
0.0102794
0.00734159
0.00468346
0.00257284
0.00107173
0.000277868
-0.000137111
0.0195295
0.0165361
0.0134984
0.0103652
0.00748531
0.00487935
0.0028023
0.00130355
0.000454069
-1.15587e-05
0.0197568
0.0166561
0.0136416
0.0105273
0.00769251
0.00512509
0.00306582
0.00155416
0.000637763
0.000102347
0.020071
0.0168518
0.0138567
0.0107524
0.00795037
0.00540948
0.00335373
0.00181643
0.000824569
0.000205474
0.0204557
0.0171134
0.0141334
0.0110322
0.00824975
0.00572417
0.00365858
0.00208495
0.00101135
0.000298986
0.0208942
0.0174304
0.0144598
0.0113578
0.00858137
0.00606118
0.00397399
0.00235552
0.00119599
0.000384095
0.0213726
0.0177955
0.0148255
0.0117211
0.00893742
0.00641387
0.00429501
0.00262511
0.00137726
0.000461966
0.0218783
0.0182032
0.0152205
0.012115
0.00931152
0.00677682
0.004618
0.00289168
0.00155459
0.000533673
0.0223928
0.0186447
0.0156338
0.0125313
0.00969785
0.00714526
0.00494023
0.0031539
0.0017279
0.000600264
0.0229067
0.0191257
0.0160696
0.0129726
0.0100988
0.00752022
0.0052625
0.00341242
0.00189803
0.000662923
0.023479
0.0197176
0.0165748
0.0134719
0.0105382
0.00791633
0.00559333
0.00367173
0.00206747
0.000722177
0.0239472
0.0203207
0.0170682
0.0139627
0.0109721
0.00830081
0.00591397
0.00392136
0.00223249
0.000774123
0.0232699
0.0206364
0.0175443
0.0145841
0.0116459
0.00896452
0.00653225
0.00443131
0.00258541
0.00089119
0.0229965
0.0203883
0.017438
0.0146655
0.0118746
0.00931634
0.00693725
0.00482889
0.00289304
0.00103105
0.0235004
0.0208384
0.0178606
0.0151152
0.0123224
0.00976296
0.00734789
0.00519208
0.00317
0.00117012
0.0243357
0.0214779
0.0184048
0.0156143
0.0127816
0.0101889
0.00772239
0.00552155
0.00343776
0.00132631
0.0255615
0.0223865
0.0191361
0.0162164
0.0132885
0.0106183
0.00808501
0.00584441
0.00371763
0.00150462
0.0271055
0.0235449
0.0200563
0.016929
0.0138618
0.0110766
0.00846569
0.0061757
0.00400659
0.00168478
0.0288164
0.0248617
0.0210988
0.0177154
0.0144858
0.0115647
0.00887023
0.00650565
0.00425375
0.00179219
0.0305052
0.0261011
0.022075
0.018465
0.0151
0.0120572
0.00927432
0.0067871
0.00438514
0.00177109
0.0318106
0.027144
0.0229021
0.0190907
0.015611
0.0124713
0.00960241
0.00696845
0.00438796
0.00165296
0.032687
0.0276704
0.0232895
0.0193986
0.0158819
0.0127062
0.00979045
0.00705805
0.00435728
0.001556
0.025069
0.024922
0.0254967
0.0264162
0.027839
0.0295816
0.0315216
0.033517
0.0351075
0.0362489
0.0254626
0.0256181
0.0263587
0.0274188
0.0289995
0.0308706
0.032927
0.0349863
0.0366304
0.0377163
0.025607
0.0260945
0.027113
0.0284481
0.0302805
0.03236
0.0345874
0.0367058
0.0383492
0.0392818
0.0258609
0.0265815
0.0278191
0.0294117
0.0314758
0.0337643
0.0361818
0.0384222
0.0401272
0.0410201
0.0262169
0.0271824
0.0286042
0.0304072
0.032657
0.0351211
0.0377111
0.0401031
0.0419259
0.0428872
0.026603
0.0278543
0.0294875
0.0314951
0.0339159
0.036538
0.0392798
0.0418161
0.0437667
0.0448313
0.0270112
0.0285571
0.0304373
0.0326671
0.0352724
0.0380614
0.0409527
0.0436201
0.0456815
0.046834
0.0274596
0.0292891
0.0314363
0.0338998
0.0367078
0.0396825
0.0427356
0.0455319
0.0476877
0.0489013
0.0279582
0.0300573
0.0324857
0.0351821
0.0382052
0.0413802
0.0446097
0.0475424
0.0497872
0.0510445
0.0285098
0.0308585
0.0335877
0.0365094
0.0397581
0.0431411
0.0465589
0.0496378
0.0519752
0.0532702
0.029117
0.0316806
0.0347399
0.0378744
0.0413633
0.0449587
0.048576
0.0518105
0.0542479
0.0555801
0.0297776
0.0325071
0.0359333
0.0392644
0.0430134
0.0468259
0.0506561
0.0540567
0.0566036
0.0579743
0.0304717
0.0333276
0.0371445
0.040669
0.0446959
0.0487398
0.0527973
0.0563771
0.0590456
0.0604566
0.0311633
0.0341422
0.0383413
0.0420837
0.0463934
0.0506929
0.0549916
0.0587727
0.0615802
0.0630362
0.0318054
0.0349588
0.0394716
0.0435226
0.0481032
0.0526816
0.0572385
0.0612364
0.0641956
0.0657074
0.0323045
0.0358195
0.0405611
0.0449243
0.0497915
0.0546741
0.0595152
0.0637517
0.0668821
0.068465
0.0327129
0.0366216
0.0415851
0.0462662
0.0514459
0.0566628
0.0618191
0.0663204
0.0696427
0.0713146
0.0329927
0.0373274
0.0425004
0.0475138
0.0530206
0.0585987
0.0641055
0.0689126
0.0724631
0.0742516
0.0331191
0.0379704
0.0433384
0.0487092
0.054563
0.0605292
0.0664111
0.0715506
0.0753558
0.0772922
0.0328964
0.0383337
0.0438688
0.0495847
0.0557858
0.0621775
0.0685119
0.0740923
0.0782545
0.0804104
0.0340464
0.0408885
0.0468213
0.0532159
0.0600818
0.0672463
0.0743771
0.0807611
0.0856053
0.0882201
0.0410251
0.0476994
0.0540297
0.0615014
0.0695229
0.0779519
0.0863144
0.0937646
0.0993877
0.102377
0.048682
0.0558295
0.0629923
0.071697
0.0809564
0.0907406
0.100303
0.108693
0.114948
0.118283
0.0568027
0.0647636
0.0731697
0.0832842
0.0939434
0.105228
0.115962
0.125209
0.131967
0.135456
0.0653797
0.0743943
0.0842467
0.0958585
0.10803
0.120863
0.13269
0.142716
0.149856
0.153608
0.0745789
0.0847234
0.096158
0.109291
0.123021
0.137343
0.150163
0.160851
0.168083
0.17149
0.083827
0.0952224
0.108145
0.122686
0.137917
0.153508
0.167227
0.178417
0.18547
0.1889
0.0929629
0.105302
0.119578
0.135459
0.152141
0.168826
0.183568
0.195336
0.201862
0.203119
0.0992706
0.112691
0.128027
0.144938
0.162726
0.180221
0.195914
0.20804
0.213722
0.216469
0.10426
0.118029
0.134096
0.151797
0.170479
0.188878
0.206187
0.220921
0.229091
0.21485
0.0319312
0.0384799
0.0451814
0.052686
0.0604084
0.0691197
0.0775221
0.0864681
0.0920227
0.0969805
0.0313643
0.0382245
0.0447448
0.0520477
0.0594808
0.0679251
0.075921
0.0845631
0.0895204
0.0943427
0.0312404
0.0384713
0.0450067
0.0522384
0.0595378
0.0677313
0.0753367
0.0834391
0.0877302
0.0921718
0.0309875
0.0383162
0.0448967
0.0520348
0.0592279
0.0672258
0.0745088
0.0821835
0.0860956
0.0901347
0.0306752
0.037963
0.0445123
0.0515199
0.058563
0.0663433
0.0733294
0.0806886
0.0844358
0.088169
0.0303617
0.0376001
0.0440733
0.0510089
0.0578736
0.0654023
0.0721039
0.0791741
0.0828291
0.0863402
0.0300409
0.0372455
0.0436887
0.0505246
0.0573073
0.0645826
0.0710534
0.0778195
0.0814085
0.084724
0.0297133
0.0368904
0.0433421
0.0500961
0.0568204
0.0638883
0.0702445
0.0766644
0.0802527
0.0833516
0.0293926
0.0365488
0.043024
0.0497288
0.0563969
0.0633278
0.0696004
0.0757367
0.0793545
0.0822155
0.029097
0.0362403
0.0427472
0.0494306
0.0560536
0.0628988
0.0690931
0.0750368
0.0786629
0.0813391
0.0288439
0.0359785
0.0425273
0.0492121
0.0558109
0.0626032
0.0687363
0.0745533
0.0781675
0.0807261
0.0286283
0.0357564
0.0423641
0.0490736
0.0556749
0.0624448
0.0685466
0.0742794
0.0778797
0.0803669
0.0284285
0.0355575
0.0422483
0.0490083
0.055642
0.0624262
0.0685314
0.0742155
0.077812
0.0802523
0.0282326
0.035378
0.0421763
0.049012
0.0557091
0.0625467
0.0686887
0.0743603
0.0779645
0.080375
0.0280268
0.03522
0.0421453
0.0490815
0.0558752
0.0628054
0.069018
0.0747149
0.0783375
0.0807332
0.0277858
0.0350802
0.0421439
0.0492069
0.056132
0.0631889
0.0695078
0.0752659
0.0789149
0.0813237
0.0274761
0.0349524
0.0421595
0.0493813
0.0564776
0.0636995
0.0701681
0.0760184
0.0797044
0.082151
0.0270502
0.0348063
0.0421553
0.0495667
0.0568681
0.0642885
0.0709536
0.0769315
0.0806665
0.0832133
0.0265118
0.0346732
0.0421686
0.0498033
0.0573509
0.0650079
0.0719132
0.0780427
0.081844
0.0845222
0.0255856
0.0342584
0.0419319
0.0498124
0.0576312
0.0655675
0.0728005
0.0791824
0.0831135
0.086065
0.0266034
0.0356184
0.0434482
0.0516966
0.0600376
0.0684242
0.0762148
0.0829571
0.0872389
0.0904389
0.0332153
0.0417779
0.0495789
0.0584925
0.0676553
0.0770095
0.0858388
0.0933801
0.0983519
0.101363
0.0405462
0.0494115
0.0578894
0.0678755
0.0781673
0.0888899
0.0990485
0.107695
0.113444
0.116494
0.0480215
0.0576165
0.0673623
0.0788782
0.0908204
0.103522
0.115528
0.125887
0.132979
0.136653
0.0555404
0.0662059
0.0775822
0.0909172
0.104968
0.120192
0.134674
0.147692
0.157239
0.162608
0.0632168
0.0751508
0.0884489
0.103797
0.120373
0.138561
0.156304
0.173325
0.187441
0.19702
0.0703291
0.0837836
0.0989398
0.116377
0.135731
0.157116
0.179162
0.202131
0.223953
0.242909
0.0773378
0.0920111
0.108956
0.128542
0.150729
0.175625
0.203216
0.234566
0.269592
0.308364
0.0808
0.096371
0.11454
0.135698
0.160439
0.189339
0.224018
0.267173
0.323918
0.398264
0.0841157
0.101442
0.121162
0.144434
0.172534
0.206808
0.250301
0.308926
0.396619
0.519798
0.0245935
0.0306005
0.0366255
0.0432216
0.049605
0.0567709
0.0626884
0.0694512
0.0725006
0.0745088
0.0239839
0.0299831
0.0358673
0.0421327
0.0481018
0.0549609
0.0603808
0.0669303
0.0696
0.0719733
0.0237939
0.0298251
0.0356811
0.0417438
0.0474545
0.0539463
0.0589493
0.0650546
0.0672539
0.0705374
0.0236252
0.029463
0.0351297
0.040987
0.0464573
0.0526078
0.0572652
0.062944
0.0647732
0.0684986
0.0234939
0.0289703
0.0343152
0.0399365
0.0450942
0.0508806
0.0551981
0.0605139
0.0620386
0.0656794
0.0234213
0.0284693
0.0334779
0.0388028
0.0436574
0.0490397
0.0530062
0.0579897
0.0592287
0.0625313
0.0233966
0.0279844
0.0326736
0.0376457
0.0422791
0.0472486
0.0508924
0.0555619
0.0565397
0.0594926
0.023417
0.0275148
0.0318816
0.0365156
0.0409027
0.0455138
0.0489217
0.0532699
0.0540694
0.0567529
0.0234845
0.0270701
0.0310959
0.0354127
0.0395285
0.04381
0.047072
0.0510559
0.0518437
0.0542954
0.0235973
0.0266647
0.0303281
0.0343339
0.0381729
0.0421655
0.0452689
0.0488872
0.0498572
0.0520207
0.0216388
0.022509
0.0229851
0.0234369
0.0238223
0.0241262
0.0243494
0.0244984
0.0245901
0.0245346
0.0216913
0.0226373
0.023101
0.0235081
0.0238223
0.0240348
0.0241526
0.0241863
0.0241572
0.0240117
0.0218217
0.0228046
0.0232391
0.0235844
0.0238114
0.0239186
0.0239209
0.0238356
0.0236986
0.0234776
0.0220518
0.0230255
0.0234144
0.0236837
0.0238123
0.0238071
0.0236906
0.0234871
0.0232418
0.0229293
0.0224019
0.0233153
0.0236435
0.0238258
0.0238501
0.0237314
0.023499
0.0231829
0.0228322
0.0224186
0.0228879
0.0236885
0.0239428
0.0240304
0.0239485
0.0237195
0.0233782
0.0229584
0.0225078
0.0219941
0.0235193
0.0241567
0.0243258
0.0243136
0.0241262
0.0237925
0.0233511
0.0228378
0.0222964
0.0216983
0.0242986
0.0247275
0.0248014
0.0246855
0.0243942
0.0239618
0.0234288
0.0228313
0.0222106
0.0215687
0.0252179
0.025401
0.0253708
0.0251479
0.0247544
0.0242284
0.0236111
0.0229377
0.0222401
0.0214925
0.026249
0.0261641
0.0260251
0.0256927
0.0251989
0.0245846
0.0238902
0.0231487
0.0223837
0.0215737
0.0273403
0.0269893
0.0267433
0.0263029
0.0257119
0.0250147
0.0242501
0.023448
0.0226265
0.0217757
0.0285092
0.0278732
0.0275107
0.0269588
0.0262723
0.0254971
0.0246693
0.0238146
0.0229477
0.0220697
0.0297017
0.0287765
0.0282945
0.0276317
0.0268538
0.0260072
0.0251239
0.0242253
0.0233243
0.0224317
0.0308634
0.0296584
0.0290593
0.0282901
0.027428
0.0265185
0.0255891
0.0246562
0.0237331
0.0228385
0.0319428
0.0304777
0.0297685
0.0289019
0.027966
0.0270049
0.0260404
0.0250843
0.0241516
0.0232687
0.0328892
0.0311928
0.0303862
0.0294362
0.0284408
0.0274418
0.0264553
0.0254884
0.0245593
0.023703
0.0336547
0.0317641
0.0308793
0.0298653
0.0288287
0.0278084
0.026815
0.0258507
0.0249378
0.0241215
0.0341976
0.0321573
0.0312198
0.0301667
0.0291109
0.0280886
0.0271054
0.0261576
0.0252692
0.0244995
0.0344845
0.0323449
0.0313862
0.030324
0.0292747
0.0282718
0.0273165
0.0263956
0.0255281
0.024807
0.0344923
0.0323081
0.0313642
0.0303278
0.0293149
0.0283562
0.0274474
0.0265614
0.025709
0.025043
0.0342076
0.0320361
0.0311465
0.0301743
0.0292331
0.0283542
0.027537
0.0267635
0.0260651
0.0256228
0.0336208
0.0315245
0.0307305
0.0298611
0.029024
0.0282504
0.0275425
0.0268886
0.0263135
0.0259411
0.0327439
0.0307821
0.0301223
0.029391
0.0286862
0.028038
0.0274503
0.0269163
0.0264489
0.0261154
0.0316
0.0298266
0.029335
0.0287735
0.0282271
0.0277247
0.0272734
0.0268705
0.0265228
0.0262677
0.030222
0.0286832
0.0283883
0.0280246
0.0276605
0.0273243
0.0270265
0.0267689
0.0265543
0.0264071
0.0286511
0.027384
0.0273077
0.0271652
0.0270045
0.0268528
0.0267244
0.026625
0.0265554
0.0265323
0.0269352
0.0259661
0.0261229
0.0262194
0.0262795
0.026328
0.0263827
0.0264532
0.0265405
0.0266554
0.0251247
0.0244689
0.0248657
0.0252127
0.0255067
0.0257678
0.0260168
0.0262672
0.0265219
0.026789
0.0232709
0.0229316
0.0235676
0.0241703
0.0247063
0.0251887
0.0256404
0.0260784
0.026509
0.0269405
0.0214377
0.0213964
0.0222606
0.0231161
0.0238968
0.0246052
0.0252647
0.0258954
0.0265075
0.0271131
0.0197122
0.0199184
0.0209824
0.0220765
0.0230968
0.0240307
0.0248992
0.0257245
0.0265204
0.0273066
0.0180343
0.0184874
0.0197425
0.0210624
0.0223157
0.0234716
0.0245477
0.0255667
0.0265449
0.0275146
0.0164496
0.0171386
0.0185641
0.0200895
0.0215634
0.0229337
0.0242122
0.0254205
0.0265748
0.0277228
0.0150036
0.0159099
0.0174514
0.0191692
0.0208473
0.0224197
0.0238916
0.0252818
0.0266014
0.0279107
0.0137121
0.0147997
0.0164373
0.0183108
0.0201713
0.0219304
0.0235833
0.0251452
0.0266186
0.0280575
0.012585
0.0138197
0.0155257
0.0175218
0.0195385
0.0214652
0.0232843
0.0250045
0.0266195
0.0281656
0.0116276
0.0129774
0.0147202
0.0168051
0.0189497
0.021023
0.0229927
0.0248579
0.0265965
0.0282503
0.0108401
0.0122745
0.0140235
0.0161624
0.0184046
0.0206013
0.0227056
0.0247065
0.0265593
0.0282861
0.010218
0.0117088
0.0134362
0.0155943
0.0179021
0.0201975
0.0224196
0.0245518
0.0265279
0.0283104
0.00975427
0.0112754
0.0129564
0.0150999
0.0174398
0.0198058
0.0221235
0.024375
0.0265044
0.0283915
0.00943695
0.0109662
0.0125796
0.0146767
0.0170142
0.0194217
0.0218147
0.0241858
0.0265929
0.0289364
0.00923685
0.0107651
0.0122982
0.0143215
0.0166211
0.0190298
0.0214491
0.0238443
0.0262635
0.0286034
0.00915703
0.0106698
0.0121101
0.0140345
0.0162613
0.0186303
0.0210309
0.0234022
0.0257649
0.0280418
0.00918907
0.0106723
0.0120109
0.0138167
0.015943
0.0182415
0.0205982
0.0229402
0.0252704
0.0275087
0.00931922
0.0107615
0.0119947
0.0136692
0.0156745
0.0178805
0.0201754
0.0224809
0.0247852
0.0269995
0.00953395
0.0109269
0.0120549
0.0135914
0.0154615
0.0175574
0.0197741
0.0220296
0.0242997
0.0264942
0.00982056
0.011158
0.0121842
0.013581
0.0153069
0.0172792
0.0194033
0.0215962
0.0238225
0.0259955
0.0101668
0.0114442
0.0123746
0.0136343
0.015212
0.0170511
0.0190711
0.0211906
0.0233648
0.0255124
0.0105616
0.0117754
0.0126172
0.0137458
0.0151756
0.0168761
0.0187832
0.0208204
0.022935
0.025053
0.0109992
0.0121458
0.0129057
0.0139106
0.0151957
0.0167551
0.0185429
0.0204899
0.0225384
0.0246235
0.0114811
0.0125583
0.0132422
0.0141306
0.015275
0.0166921
0.018355
0.0202044
0.0221797
0.0242278
0.0119711
0.0129823
0.0136005
0.014385
0.0153988
0.016678
0.0182147
0.0199618
0.0218573
0.0238615
0.0124703
0.0134183
0.0139788
0.0146706
0.0155635
0.0167101
0.0181204
0.0197606
0.0215686
0.0235176
0.0129767
0.0138639
0.0143734
0.0149823
0.0157643
0.0167843
0.018069
0.0195983
0.0213107
0.0231904
0.013486
0.0143145
0.0147786
0.0153143
0.0159956
0.0168963
0.0180574
0.0194727
0.0210806
0.0228743
0.0139947
0.0147663
0.0151901
0.0156614
0.016252
0.0170416
0.0180829
0.0193822
0.0208764
0.0225628
0.0145001
0.0152168
0.0156045
0.0160192
0.0165291
0.0172167
0.0181435
0.0193272
0.0206998
0.0222526
0.0150008
0.0156641
0.0160194
0.0163847
0.0168234
0.0174185
0.0182381
0.0193105
0.0205592
0.0219493
0.0154959
0.0161073
0.0164332
0.0167557
0.0171322
0.0176445
0.0183658
0.0193357
0.0204714
0.0216808
0.0159849
0.0165458
0.0168452
0.0171308
0.0174541
0.0178944
0.0185271
0.0194041
0.0204621
0.0215222
0.0164686
0.0169794
0.0172548
0.0175089
0.017788
0.0181699
0.0187351
0.0195664
0.0207521
0.022218
0.0169491
0.0174079
0.0176612
0.0178892
0.0181314
0.0184609
0.0189556
0.0196927
0.0207687
0.0221131
0.0174256
0.0178315
0.018065
0.0182715
0.0184827
0.0187638
0.0191854
0.0198139
0.0207278
0.0218809
0.0178976
0.01825
0.018466
0.0186556
0.0188425
0.0190827
0.0194399
0.0199754
0.0207567
0.0217477
0.0183642
0.0186626
0.0188636
0.0190414
0.0192112
0.0194197
0.0197236
0.0201794
0.0208465
0.0216988
0.0188232
0.019068
0.0192571
0.019428
0.0195881
0.0197743
0.0200353
0.0204218
0.020985
0.0217149
0.0192712
0.0194643
0.0196448
0.0198145
0.0199723
0.0201454
0.020374
0.020702
0.0211726
0.0217928
0.0197033
0.019849
0.020025
0.0201993
0.0203625
0.0205319
0.0207388
0.0210197
0.02141
0.0219318
0.0201149
0.0202167
0.0203946
0.0205802
0.0207567
0.020932
0.0211281
0.0213737
0.0216963
0.0221297
0.0204933
0.0205645
0.02075
0.0209542
0.0211524
0.021343
0.0215391
0.0217614
0.0220291
0.0223829
)
;

boundaryField
{
    inlet
    {
        type            zeroGradient;
    }
    outlet
    {
        type            fixedValue;
        value           uniform 0;
    }
    cylinder
    {
        type            zeroGradient;
    }
    top
    {
        type            symmetryPlane;
    }
    bottom
    {
        type            symmetryPlane;
    }
    defaultFaces
    {
        type            empty;
    }
}


// ************************************************************************* //
