/*--------------------------------*- C++ -*----------------------------------*\
  =========                 |
  \\      /  F ield         | OpenFOAM: The Open Source CFD Toolbox
   \\    /   O peration     | Website:  https://openfoam.org
    \\  /    A nd           | Version:  7
     \\/     M anipulation  |
\*---------------------------------------------------------------------------*/
FoamFile
{
    version     2.0;
    format      ascii;
    class       surfaceScalarField;
    location    "0.8";
    object      phi;
}
// * * * * * * * * * * * * * * * * * * * * * * * * * * * * * * * * * * * * * //

dimensions      [0 3 -1 0 0 0 0];

internalField   nonuniform List<scalar> 
35640
(
-2.53597e-05
0.00326911
-0.00324375
-1.02266e-05
0.00522983
-0.00524496
0.000104176
0.00434197
-0.00445637
0.000349093
0.00196014
-0.00220505
0.000730217
-0.000954532
0.000573408
0.00123371
-0.00380862
0.00330513
0.001834
-0.00628289
0.00568259
0.00250158
-0.00824586
0.00757828
0.00320882
-0.00968453
0.00897729
0.00393329
-0.010652
0.00992754
0.00465875
-0.0112304
0.010505
0.00537475
-0.0115076
0.0107916
0.00607542
-0.0115636
0.0108629
0.00675823
-0.0114653
0.0107825
0.00742279
-0.0112652
0.0106006
0.00807
-0.0110024
0.0103552
0.00870135
-0.0107051
0.0100737
0.00931854
-0.0103927
0.00977546
0.00992327
-0.0100781
0.00947334
0.0105171
-0.0097696
0.0091758
0.0111013
-0.00947225
0.00888803
0.0116771
-0.00918874
0.00861296
0.0122454
-0.00892033
0.00835204
0.0128069
-0.00866727
0.00810568
0.0133625
-0.00842926
0.0078737
0.0139126
-0.00820562
0.00765556
0.0144576
-0.00799547
0.00745046
0.0149979
-0.00779786
0.0072575
0.0155339
-0.00761157
0.00707563
-0.00743253
0.0160651
0.00690134
-1.21281e-05
0.00328123
2.79589e-05
0.00518974
0.000173257
0.00419668
0.000451036
0.00168236
0.00086372
-0.00136722
0.00139466
-0.00433955
0.00201621
-0.00690444
0.00269776
-0.00892742
0.00341165
-0.0103984
0.00413615
-0.0113765
0.00485624
-0.0119505
0.00556278
-0.0122141
0.00625122
-0.012252
0.00692016
-0.0121342
0.0075701
-0.0119151
0.00820258
-0.0116349
0.00881959
-0.0113221
0.00942311
-0.0109962
0.010015
-0.01067
0.010597
-0.0103515
0.0111703
-0.0100456
0.0117362
-0.0097546
0.0122955
-0.00947963
0.012849
-0.00922075
0.0133972
-0.00897752
0.0139407
-0.00874914
0.0144799
-0.00853466
0.0150151
-0.00833303
0.0155464
-0.00814289
-0.00795964
0.0160735
6.47002e-07
0.00328059
6.58325e-05
0.00512456
0.00024281
0.0040197
0.00055446
0.00137071
0.000999501
-0.00181226
0.00155809
-0.00489814
0.00220034
-0.00754669
0.00289468
-0.00962176
0.00361357
-0.0111173
0.0043363
-0.0120992
0.00504922
-0.0126635
0.0057447
-0.0129096
0.00641956
-0.0129269
0.00707351
-0.0127882
0.00770796
-0.0125496
0.00832508
-0.012252
0.00892727
-0.0119243
0.00951678
-0.0115857
0.0100956
-0.0112488
0.0106655
-0.0109214
0.0112278
-0.0106079
0.0117836
-0.0103104
0.0123337
-0.0100298
0.0128789
-0.00976596
0.0134197
-0.00951831
0.0139565
-0.00928595
0.0144897
-0.00906781
0.0150195
-0.00886278
0.0155459
-0.00866937
-0.0084824
0.0160687
1.27415e-05
0.00326784
0.000103564
0.00503373
0.000313126
0.00381014
0.000659523
0.00102431
0.00113728
-0.00229001
0.0017231
-0.00548397
0.00238494
-0.00820853
0.00309041
-0.0103272
0.00381242
-0.0118393
0.00453147
-0.0128183
0.00523546
-0.0133674
0.00591836
-0.0135925
0.00657839
-0.0135869
0.00721643
-0.0134262
0.00783471
-0.0131678
0.008436
-0.0128533
0.00902304
-0.0125113
0.00959833
-0.012161
0.010164
-0.0118145
0.0107217
-0.0114791
0.0112728
-0.011159
0.0118184
-0.010856
0.0123593
-0.0105707
0.0128961
-0.0103028
0.0134293
-0.0100515
0.0139592
-0.00981589
0.0144862
-0.00959479
0.0150104
-0.00938699
0.0155319
-0.00919086
-0.00900069
0.0160502
2.45866e-05
0.00324326
0.00014108
0.00491724
0.000383709
0.00356751
0.000765284
0.000642737
0.0012757
-0.00280042
0.00188803
-0.00609631
0.00256809
-0.00888858
0.00328293
-0.0110421
0.00400613
-0.0125625
0.0047196
-0.0135318
0.00541299
-0.0140608
0.00608194
-0.0142614
0.00672609
-0.0142311
0.00734745
-0.0140476
0.00794904
-0.0137694
0.00853415
-0.0134384
0.00910586
-0.013083
0.00966681
-0.0127219
0.0102192
-0.0123668
0.0107646
-0.0120246
0.0113045
-0.0116989
0.0118399
-0.0113913
0.0123714
-0.0111022
0.0128997
-0.010831
0.0134251
-0.010577
0.013948
-0.0103388
0.0144687
-0.0101154
0.0149872
-0.00990552
0.0155036
-0.00970724
-0.00951437
0.0160173
3.60565e-05
0.0032072
0.000178285
0.00477501
0.000454308
0.00329149
0.00087118
0.000225865
0.00141381
-0.00334305
0.00205158
-0.00673407
0.00274824
-0.00958525
0.00347052
-0.0117643
0.00419292
-0.0132849
0.00489898
-0.0142378
0.0055802
-0.0147421
0.00623394
-0.0149152
0.00686131
-0.0148584
0.00746536
-0.0146516
0.00804989
-0.014354
0.00861863
-0.0140072
0.00917492
-0.0136393
0.00972151
-0.0132685
0.0102606
-0.0129059
0.0107938
-0.0125578
0.0113225
-0.0122276
0.0118475
-0.0119163
0.0123696
-0.0116242
0.0128892
-0.0113506
0.0134067
-0.0110945
0.0139225
-0.0108546
0.0144367
-0.0106296
0.0149493
-0.0104182
0.0154604
-0.0102183
-0.0100233
0.0159693
4.72099e-05
0.00315999
0.000215079
0.00460714
0.000524522
0.00298205
0.000976466
-0.00022608
0.00155057
-0.00391715
0.00221243
-0.00739592
0.00292391
-0.0102967
0.00365163
-0.0124921
0.00437123
-0.0140045
0.00506808
-0.0149347
0.00573565
-0.0154096
0.0063731
-0.0155526
0.00698293
-0.0154683
0.00756923
-0.0152379
0.00813645
-0.0149212
0.00868875
-0.0145594
0.00922962
-0.0141802
0.0097619
-0.0138008
0.0102877
-0.0134318
0.0108088
-0.0130789
0.0113262
-0.012745
0.0118408
-0.012431
0.0123533
-0.0121368
0.0128642
-0.0118615
0.0133737
-0.011604
0.0138821
-0.011363
0.0143895
-0.0111371
0.0148961
-0.0109248
0.0154017
-0.0107239
-0.0105272
0.0159056
5.80603e-05
0.00310193
0.000251345
0.00441386
0.000593992
0.0026394
0.0010805
-0.000712591
0.00168506
-0.00452171
0.00236945
-0.00808031
0.00309381
-0.0110211
0.00382486
-0.0132231
0.00453966
-0.0147193
0.00522559
-0.0156206
0.00587817
-0.0160622
0.00649837
-0.0161728
0.00709006
-0.01606
0.0076583
-0.0158062
0.00820813
-0.015471
0.008744
-0.0150953
0.00926956
-0.0147057
0.00978763
-0.0143189
0.0103003
-0.0139445
0.0108092
-0.0135877
0.0113154
-0.0132511
0.0118196
-0.0129352
0.0123224
-0.0126396
0.0128243
-0.0123634
0.0133255
-0.0121052
0.0138263
-0.0118638
0.0143268
-0.0116376
0.014827
-0.011425
0.0153268
-0.0112237
-0.0110258
0.0158255
6.86163e-05
0.00303332
0.000286985
0.00419549
0.000662416
0.00226397
0.00118274
-0.00123292
0.00181649
-0.00515546
0.00252165
-0.00878547
0.00325677
-0.0117562
0.00398898
-0.0139553
0.00469699
-0.0154274
0.00537035
-0.016294
0.00600674
-0.0166986
0.00660889
-0.016775
0.00718202
-0.0166331
0.00773203
-0.0163562
0.00826447
-0.0160035
0.00878404
-0.0156149
0.00929445
-0.0152161
0.00979848
-0.0148229
0.0102982
-0.0144441
0.0107949
-0.0140845
0.0112898
-0.013746
0.0117835
-0.0134289
0.0122765
-0.0131326
0.0127692
-0.0128561
0.0132619
-0.0125979
0.0137547
-0.0123566
0.0142479
-0.0121307
0.0147415
-0.0119186
0.0152352
-0.0117174
-0.0115188
0.0157282
7.88831e-05
0.00295443
0.000321917
0.00395245
0.000729547
0.00185634
0.00128273
-0.0017861
0.00194417
-0.0058169
0.0026681
-0.0095094
0.00341174
-0.0124999
0.00414289
-0.0146864
0.00484215
-0.0161266
0.00550142
-0.0169532
0.00612055
-0.0173177
0.00670402
-0.0173584
0.00725828
-0.0171873
0.00779003
-0.0168879
0.00830522
-0.0165186
0.00880869
-0.0161184
0.00930417
-0.0157116
0.00979434
-0.0153131
0.0102811
-0.0149309
0.0107659
-0.0145693
0.0112495
-0.0142296
0.0117326
-0.0139119
0.0122156
-0.0136156
0.0126988
-0.0133393
0.0131826
-0.0130817
0.0136671
-0.0128412
0.0141526
-0.0126162
0.014639
-0.012405
0.0151261
-0.0122045
-0.0120057
0.015613
8.88686e-05
0.00286557
0.000356085
0.00368524
0.000795181
0.00141725
0.00138004
-0.00237096
0.00206744
-0.00650431
0.00280797
-0.0102499
0.00355776
-0.0132496
0.00428559
-0.0154143
0.00497422
-0.0168153
0.00561799
-0.017597
0.00621893
-0.0179187
0.00678325
-0.0179228
0.00731852
-0.0177226
0.00783209
-0.0174015
0.00833024
-0.0170168
0.00881789
-0.016606
0.00929869
-0.0161924
0.00977524
-0.0157896
0.0102493
-0.015405
0.0107221
-0.015042
0.0111943
-0.0147019
0.0116667
-0.0143843
0.0121394
-0.0140884
0.0126129
-0.0138128
0.0130875
-0.0135562
0.0135632
-0.0133169
0.0140404
-0.0130934
0.0145191
-0.0128837
0.014999
-0.0126844
-0.012486
0.0154792
9.8585e-05
0.00276698
0.000389448
0.00339437
0.000859149
0.000947546
0.00147431
-0.00298612
0.00218573
-0.00721573
0.00294049
-0.0110047
0.00369396
-0.0140031
0.00441623
-0.0161365
0.00509243
-0.0174915
0.00571941
-0.018224
0.00630143
-0.0185007
0.00684626
-0.0184676
0.00736253
-0.0182389
0.00785813
-0.0178971
0.00833954
-0.0174982
0.00881169
-0.0170782
0.00927812
-0.0166588
0.00974127
-0.0162528
0.0102028
-0.0158665
0.0106636
-0.0155029
0.0111245
-0.0151628
0.011586
-0.0148457
0.0120482
-0.0145506
0.0125116
-0.0142762
0.0129764
-0.014021
0.0134428
-0.0137833
0.013911
-0.0135616
0.0143813
-0.0133539
0.0148532
-0.0131564
-0.0129588
0.015326
0.000108048
0.00265893
0.000421983
0.00308044
0.000921302
0.000448228
0.00156521
-0.00363002
0.0022985
-0.00794902
0.00306497
-0.0117711
0.00381959
-0.0147577
0.00453408
-0.016851
0.00519614
-0.0181535
0.00580522
-0.0188331
0.00636772
-0.0190632
0.0068929
-0.0189928
0.00739028
-0.0187363
0.0078682
-0.018375
0.00833323
-0.0179632
0.00879025
-0.0175352
0.00924263
-0.0171112
0.00969263
-0.0167028
0.0101417
-0.0163155
0.0105907
-0.0159519
0.0110402
-0.0156123
0.0114906
-0.0152961
0.0119421
-0.0150021
0.012395
-0.0147291
0.0128494
-0.0144755
0.0133058
-0.0142397
0.0137644
-0.0140202
0.0142253
-0.0138147
0.0146883
-0.0136194
-0.0134233
0.0151528
0.000117277
0.00254166
0.000453673
0.00274404
0.000981506
-7.96039e-05
0.00165241
-0.00430093
0.00240523
-0.00870184
0.00318076
-0.0125467
0.00393397
-0.0155109
0.00463853
-0.0175556
0.00528488
-0.0187999
0.0058751
-0.0194233
0.00641763
-0.0196057
0.00692312
-0.0194983
0.00740185
-0.019215
0.00786244
-0.0188356
0.00831151
-0.0184123
0.00875379
-0.0179775
0.00919247
-0.0175499
0.00962959
-0.0171399
0.0100664
-0.0167524
0.0105036
-0.0163891
0.0109417
-0.0160503
0.0113808
-0.0157352
0.0118213
-0.0154426
0.0122632
-0.015171
0.0127068
-0.0149191
0.0131524
-0.0146853
0.0136004
-0.0144681
0.0140509
-0.0142652
0.0145038
-0.0140723
-0.0138785
0.014959
0.000126291
0.00241537
0.000484505
0.00238582
0.00103964
-0.000634734
0.00173562
-0.00499691
0.00250546
-0.00947168
0.00328731
-0.0133285
0.00403653
-0.0162602
0.00472909
-0.0182482
0.0053583
-0.0194291
0.00592885
-0.0199939
0.00645113
-0.020128
0.00693702
-0.0199842
0.0073974
-0.0196754
0.00784109
-0.0192793
0.00827466
-0.0188459
0.00870262
-0.0184054
0.00912796
-0.0179752
0.00955247
-0.0175644
0.0099772
-0.0171771
0.0104027
-0.0168146
0.0108293
-0.0164769
0.0112571
-0.016163
0.0116862
-0.0158717
0.0121167
-0.0156015
0.0125489
-0.0153513
0.012983
-0.0151194
0.0134193
-0.0149045
0.0138583
-0.0147042
0.0142999
-0.014514
-0.0143231
0.0147446
0.000135109
0.00228026
0.000514466
0.00200646
0.00109556
-0.00121583
0.00181455
-0.0057159
0.00259875
-0.0102559
0.0033841
-0.0141139
0.00412681
-0.0170029
0.00480541
-0.0189268
0.00541619
-0.0200398
0.00596642
-0.0205441
0.00646831
-0.0206299
0.00693479
-0.0204506
0.00737721
-0.0201178
0.00780448
-0.0197066
0.008223
-0.0192644
0.00863709
-0.0188195
0.00904944
-0.0183876
0.00946163
-0.0179766
0.00987449
-0.01759
0.0102884
-0.0172286
0.0107035
-0.016892
0.0111198
-0.0165793
0.0115374
-0.0162892
0.0119561
-0.0160203
0.0123762
-0.0157714
0.0127979
-0.0155412
0.0132217
-0.0153282
0.0136479
-0.0151304
0.014077
-0.0149431
-0.0147562
0.01451
0.000143748
0.00213651
0.000543536
0.00160667
0.00114916
-0.00182145
0.00188891
-0.00645565
0.00268469
-0.0110517
0.00347069
-0.0148999
0.00420442
-0.0177366
0.00486723
-0.0195896
0.00545846
-0.0206311
0.00598788
-0.0210735
0.00646935
-0.0211114
0.0069167
-0.020898
0.00734161
-0.0205427
0.00775295
-0.0201179
0.00815693
-0.0196684
0.00855758
-0.0192202
0.00895732
-0.0187873
0.00935749
-0.0183768
0.00975871
-0.0179912
0.0101612
-0.017631
0.0105649
-0.0172957
0.0109697
-0.0169841
0.0113755
-0.0166949
0.0117821
-0.0164269
0.0121897
-0.0161789
0.0125983
-0.0159498
0.0130084
-0.0157383
0.0134206
-0.0155426
0.0138358
-0.0153583
-0.0151764
0.0142561
0.000152222
0.00198429
0.000571694
0.0011872
0.00120029
-0.00245004
0.00195842
-0.00721378
0.00276291
-0.0118561
0.00354672
-0.0156837
0.00426907
-0.0184589
0.0049144
-0.0202349
0.00548513
-0.0212018
0.00599338
-0.0215818
0.00645453
-0.0215725
0.0068831
-0.0213266
0.00729098
-0.0209506
0.00768691
-0.0205138
0.00807683
-0.0200583
0.00846448
-0.0196078
0.00885199
-0.0191748
0.00924047
-0.0187652
0.00963032
-0.018381
0.0100216
-0.0180223
0.010414
-0.0176882
0.0108074
-0.0173775
0.0112013
-0.0170889
0.0115957
-0.0168213
0.0119903
-0.0165736
0.0123853
-0.0163448
0.0127809
-0.016134
0.013178
-0.0159396
0.0135781
-0.0157584
-0.015583
0.0139846
0.00016054
0.00182375
0.000598905
0.000748834
0.00124881
-0.00309994
0.00202282
-0.0079878
0.00283309
-0.0126664
0.00361188
-0.0164625
0.00432058
-0.0191676
0.0049469
-0.0208612
0.00549631
-0.0217512
0.00598319
-0.0220686
0.00642418
-0.0220135
0.00683438
-0.0217368
0.00722573
-0.0213419
0.00760677
-0.0208949
0.00798312
-0.0204346
0.00835819
-0.0199829
0.00873387
-0.0195505
0.009111
-0.0191424
0.00948979
-0.0187598
0.00987008
-0.0184026
0.0102515
-0.0180696
0.0106336
-0.0177596
0.0110159
-0.0174712
0.011398
-0.0172034
0.0117795
-0.0169551
0.0121604
-0.0167256
0.0125409
-0.0165145
0.012922
-0.0163207
0.0133059
-0.0161423
-0.015975
0.0136978
0.000168708
0.00165504
0.00062513
0.00029241
0.00129457
-0.00376939
0.00208187
-0.00877509
0.00289493
-0.0134795
0.00366593
-0.0172335
0.00435884
-0.0198606
0.00496478
-0.0214672
0.00549223
-0.0222787
0.00595762
-0.022534
0.00637871
-0.0224346
0.00677099
-0.022129
0.00714632
-0.0217173
0.00751295
-0.0212615
0.00787619
-0.0207979
0.00823912
-0.0203458
0.00860335
-0.0199148
0.00896949
-0.0195085
0.00933758
-0.0191279
0.00970728
-0.0187723
0.0100781
-0.0184404
0.0104493
-0.0181308
0.0108202
-0.0178422
0.0111903
-0.0175734
0.0115589
-0.0173237
0.0119257
-0.0170924
0.0122907
-0.0168795
0.0126551
-0.016685
0.0130219
-0.0165091
-0.0163515
0.0133984
0.000176727
0.00147831
0.000650318
-0.000181183
0.00133743
-0.0044565
0.00213531
-0.00957297
0.00294818
-0.0142923
0.00370871
-0.017994
0.00438382
-0.0205357
0.00496817
-0.0220515
0.00547315
-0.0227836
0.00591705
-0.0229779
0.00631856
-0.0228361
0.00669337
-0.0225038
0.00705316
-0.0220771
0.00740587
-0.0216142
0.00775643
-0.0211484
0.00810762
-0.020697
0.00846078
-0.0202679
0.00881632
-0.0198641
0.00917412
-0.0194857
0.00953368
-0.0191318
0.0098943
-0.018801
0.0102552
-0.0184917
0.0106154
-0.0182024
0.010974
-0.0179321
0.0113302
-0.0176799
0.0116832
-0.0174455
0.0120329
-0.0172292
0.0123804
-0.0170325
0.0127295
-0.0168582
-0.0167115
0.0130895
0.000184593
0.00129372
0.000674409
-0.000671002
0.00137723
-0.00515933
0.00218293
-0.0103787
0.00299264
-0.015102
0.00374011
-0.0187415
0.00439559
-0.0211912
0.0049573
-0.0226132
0.00543943
-0.0232657
0.00586193
-0.0234004
0.00624419
-0.0232184
0.00660198
-0.0228616
0.0069467
-0.0224218
0.00728592
-0.0219534
0.00762419
-0.0214867
0.007964
-0.0210368
0.00830646
-0.0206104
0.00865181
-0.0202094
0.00899977
-0.0198337
0.00934973
-0.0194818
0.00970084
-0.0191521
0.0100521
-0.0188429
0.0104024
-0.0185527
0.0107505
-0.0182802
0.0110953
-0.0180246
0.0114355
-0.0177857
0.0117706
-0.0175643
0.0121013
-0.0173632
0.0124323
-0.0171892
-0.0170539
0.0127747
0.000192297
0.00110142
0.000697337
-0.00117604
0.00141381
-0.00587581
0.00222451
-0.0111894
0.00302813
-0.0159057
0.0037601
-0.0194734
0.00439427
-0.0218253
0.00493246
-0.0231514
0.00539147
-0.0237248
0.00579272
-0.0238017
0.00615609
-0.0235817
0.00649728
-0.0232028
0.00682735
-0.0227519
0.00715345
-0.0222795
0.00747978
-0.021813
0.00780854
-0.0213656
0.00814064
-0.0209425
0.00847618
-0.020545
0.0088148
-0.0201723
0.00915576
-0.0198228
0.00949813
-0.0194945
0.00984075
-0.0191855
0.0101823
-0.0188943
0.0105213
-0.0186192
0.0108561
-0.0183594
0.0111851
-0.0181147
0.011507
-0.0178862
0.0118219
-0.0176781
0.0121347
-0.017502
-0.0173774
0.0124582
0.000199829
0.000901595
0.000719025
-0.00169524
0.00144702
-0.0066038
0.00225988
-0.0120022
0.00305455
-0.0167003
0.00376871
-0.0201876
0.00438005
-0.0224367
0.00489398
-0.0236653
0.00532972
-0.0241605
0.00570991
-0.0241819
0.00605475
-0.0239266
0.00637973
-0.0235278
0.00669551
-0.0230676
0.0070088
-0.0225928
0.00732346
-0.0221277
0.00764142
-0.0216835
0.00796345
-0.0212645
0.00828957
-0.0208711
0.00861931
-0.020502
0.00895194
-0.0201554
0.00928644
-0.019829
0.00962157
-0.0195207
0.00995585
-0.0192285
0.0102875
-0.0189509
0.0106146
-0.0186864
0.0109347
-0.0184348
0.0112457
-0.0181972
0.0115468
-0.0179792
0.0118421
-0.0177973
-0.0176809
0.0121456
0.000207171
0.000694424
0.000739395
-0.00222747
0.0014767
-0.0073411
0.00228887
-0.0128144
0.00307182
-0.0174833
0.00376601
-0.0208818
0.00435319
-0.0230238
0.00484226
-0.0241544
0.00525465
-0.0245729
0.005614
-0.0245412
0.00594065
-0.0242532
0.00624976
-0.0238369
0.00655154
-0.0233694
0.00685225
-0.0228935
0.00715542
-0.0224309
0.00746278
-0.0219909
0.00777496
-0.0215767
0.00809194
-0.0211881
0.00841328
-0.0208234
0.00873821
-0.0204803
0.00906577
-0.0201565
0.00939469
-0.0198496
0.00972343
-0.0195573
0.01005
-0.0192775
0.0103721
-0.0190085
0.0106868
-0.0187495
0.0109907
-0.0185011
0.0112812
-0.0182696
0.0115609
-0.018077
-0.0179638
0.0118437
0.000214308
0.000480117
0.000758363
-0.00277153
0.0015027
-0.00808544
0.00231135
-0.0136231
0.00307992
-0.0182518
0.00375216
-0.021554
0.004314
-0.0235857
0.00477773
-0.0246181
0.00516676
-0.0249619
0.00550551
-0.02488
0.00581428
-0.024562
0.0061078
-0.0241304
0.00639578
-0.0236574
0.00668405
-0.0231818
0.00697582
-0.0227226
0.00727265
-0.0222877
0.00757511
-0.0218791
0.00788317
-0.0214961
0.00819643
-0.0211366
0.00851426
-0.0207982
0.00883576
-0.020478
0.0091598
-0.0201736
0.00948486
-0.0198823
0.00980898
-0.0196016
0.0101296
-0.0193291
0.0104433
-0.0190632
0.0107454
-0.0188033
0.011031
-0.0185552
0.0112991
-0.0183452
-0.0182266
0.0115619
0.000221218
0.000258898
0.000775848
-0.00332616
0.00152489
-0.00883448
0.00232722
-0.0144254
0.00307886
-0.0190035
0.00372733
-0.0222025
0.00426283
-0.0241212
0.00470085
-0.0250561
0.00506658
-0.0253276
0.00538496
-0.0251984
0.0056761
-0.0248531
0.00595423
-0.0244086
0.00622853
-0.0239317
0.00650439
-0.0234577
0.00678475
-0.023003
0.00707103
-0.022574
0.00736375
-0.0221719
0.00766293
-0.0217953
0.00796832
-0.021442
0.00827944
-0.0211093
0.00859564
-0.0207942
0.008916
-0.020494
0.00923929
-0.0202056
0.00956374
-0.019926
0.00988681
-0.0196522
0.0102048
-0.0193811
0.0105121
-0.0191106
0.0108015
-0.0188446
0.0110669
-0.0186106
-0.0184732
0.0113135
0.000227886
3.10113e-05
0.000791768
-0.00389004
0.00154316
-0.00958587
0.00233641
-0.0152186
0.00306872
-0.0197358
0.00369177
-0.0228255
0.00420006
-0.0246295
0.00461213
-0.0254682
0.00495464
-0.0256702
0.00525287
-0.0254966
0.00552658
-0.0251268
0.00578945
-0.0246714
0.00605008
-0.0241923
0.00631347
-0.023721
0.00658228
-0.0232718
0.00685782
-0.0228495
0.00714062
-0.0224547
0.0074308
-0.0220855
0.00772826
-0.0217395
0.00803279
-0.0214138
0.00834408
-0.0211055
0.00866168
-0.0208116
0.00898488
-0.0205288
0.00931254
-0.0202537
0.00964267
-0.0199823
0.00997172
-0.0197102
0.0102935
-0.0194324
0.0105985
-0.0191496
0.0108753
-0.0188874
-0.0187175
0.0111197
0.000234304
-0.000203293
0.000806056
-0.0044618
0.00155739
-0.0103372
0.00233886
-0.0160001
0.00304961
-0.0204465
0.00364576
-0.0234217
0.00412614
-0.0251099
0.00451207
-0.0258541
0.00483148
-0.0259896
0.00510975
-0.0257748
0.00536618
-0.0253833
0.00561382
-0.0249191
0.00586072
-0.0244392
0.00611144
-0.0239718
0.00636844
-0.0235288
0.00663293
-0.023114
0.00690544
-0.0227272
0.00718622
-0.0223663
0.00747538
-0.0220286
0.00777301
-0.0217114
0.00807922
-0.0214118
0.0083942
-0.0211266
0.00871814
-0.0208528
0.00905116
-0.0205867
0.009393
-0.0203242
0.00974203
-0.0200592
0.0100934
-0.0197838
0.0104351
-0.0194913
0.0107426
-0.0191948
-0.0189876
0.0110127
0.000240481
-0.000443775
0.000818652
-0.00503997
0.00156749
-0.011086
0.00233459
-0.0167672
0.00302167
-0.0211336
0.00358964
-0.0239897
0.00404151
-0.0255617
0.00440121
-0.0262138
0.00469764
-0.026286
0.0049561
-0.0260333
0.00519534
-0.0256225
0.00542772
-0.0251514
0.00566069
-0.0246722
0.00589847
-0.0242095
0.00614328
-0.0237736
0.00639623
-0.023367
0.0066579
-0.0229888
0.00692864
-0.022637
0.00720876
-0.0223088
0.00749863
-0.0220013
0.0077988
-0.0217119
0.00811008
-0.0214379
0.00843366
-0.0211763
0.00877133
-0.0209244
0.0091256
-0.0206785
0.00949994
-0.0204335
0.00989855
-0.0201824
0.0103226
-0.0199154
0.0107438
-0.019616
0.010967
-0.0192109
0.0165963
-0.0342953
0.033764
0.0169497
-0.0289719
0.0286186
0.0171872
-0.0256441
0.0254065
0.0173366
-0.0233204
0.023171
0.0174236
-0.0212803
0.0211933
0.0174634
-0.0192371
0.0191973
0.0174684
-0.0172307
0.0172256
0.0174473
-0.0153158
0.0153369
0.0174038
-0.0135138
0.0135573
0.0173416
-0.0118268
0.011889
0.0172622
-0.0102359
0.0103153
0.0171669
-0.00874656
0.00884181
0.0170569
-0.00734202
0.00745209
0.0169334
-0.00602849
0.00615201
0.0167967
-0.00479396
0.00493059
0.0166481
-0.0036556
0.00380423
0.0164887
-0.00259575
0.00275518
0.0163192
-0.00163436
0.00180379
0.0161417
-0.000764036
0.000941539
0.0159557
1.93795e-05
0.000166664
0.0157642
0.000694046
-0.000502598
0.0155634
0.00131044
-0.00110961
0.0153585
0.00179247
-0.00158761
0.0151398
0.00225316
-0.00203438
0.0149178
0.00258888
-0.00236692
0.0146789
0.0027345
-0.00249557
0.0144243
0.00351172
-0.00325711
0.0141687
0.00207898
-0.0018234
0.0138681
0.00501067
-0.00471009
0.00296324
-0.00264218
0.0165671
-0.0347888
0.016909
-0.0293139
0.0171451
-0.0258801
0.0172982
-0.0234735
0.0173902
-0.0213722
0.0174362
-0.0192832
0.0174474
-0.0172419
0.0174329
-0.0153013
0.0173953
-0.0134763
0.0173386
-0.01177
0.0172643
-0.0101615
0.0171734
-0.00865563
0.017067
-0.00723558
0.0169463
-0.00590779
0.016812
-0.00465969
0.0166645
-0.00350816
0.0165061
-0.00243738
0.0163365
-0.00146477
0.0161584
-0.000585946
0.0159721
0.000205649
0.0157785
0.000887582
0.0155776
0.00151139
0.0153698
0.00200015
0.01515
0.00247299
0.0149261
0.00281273
0.0146844
0.00297616
0.01443
0.00376619
0.0141737
0.00233525
0.0138696
0.00531476
0.00328078
0.0165235
-0.0352436
0.0168552
-0.0296456
0.0170902
-0.026115
0.0172471
-0.0236304
0.0173449
-0.02147
0.0173978
-0.019336
0.0174158
-0.0172599
0.0174082
-0.0152937
0.0173773
-0.0134453
0.0173267
-0.0117194
0.017258
-0.0100927
0.017172
-0.00856965
0.0170698
-0.00713338
0.0169525
-0.00579049
0.016821
-0.0045282
0.0166753
-0.00336242
0.0165183
-0.00228044
0.0163492
-0.00129562
0.016171
-0.000407764
0.0159847
0.000391935
0.0157898
0.00108246
0.0155889
0.00171236
0.0153792
0.00220981
0.0151585
0.00269369
0.0149335
0.00303777
0.0146927
0.00321695
0.0144321
0.00402676
0.0141792
0.0025882
0.0138718
0.00562211
0.00359423
0.0164658
-0.0356593
0.016788
-0.0299677
0.0170223
-0.0263494
0.0171836
-0.0237918
0.0172878
-0.0215742
0.0173479
-0.0193961
0.0173735
-0.0172856
0.0173734
-0.0152936
0.0173497
-0.0134216
0.0173058
-0.0116755
0.0172432
-0.0100301
0.0171627
-0.00848916
0.0170653
-0.00703597
0.016952
-0.00567717
0.0168238
-0.00440001
0.0166805
-0.00321913
0.0165254
-0.00212527
0.0163573
-0.00112754
0.0161796
-0.000230075
0.0159934
0.000578124
0.0157985
0.00127731
0.0155971
0.00191376
0.0153872
0.00241974
0.0151653
0.00291564
0.0149402
0.00326285
0.0147021
0.00345507
0.0144316
0.00429723
0.0141852
0.00283462
0.0138749
0.00593238
0.00390305
0.0163938
-0.0360358
0.0167072
-0.0302811
0.0169413
-0.0265835
0.0171076
-0.0239581
0.0172189
-0.0216855
0.0172868
-0.019464
0.0173206
-0.0173194
0.0173284
-0.0153013
0.0173126
-0.0134059
0.0172759
-0.0116388
0.0172201
-0.0099743
0.0171456
-0.0084147
0.0170536
-0.00694394
0.0169448
-0.00556839
0.0168205
-0.00427564
0.0166803
-0.00307892
0.0165272
-0.00197224
0.0163608
-0.000961127
0.0161841
-5.33522e-05
0.0159984
0.00076385
0.0158044
0.00147126
0.0156028
0.00211536
0.0153938
0.00262877
0.0151711
0.00313834
0.0149466
0.00348741
0.0147082
0.00369341
0.0144309
0.00457451
0.0141921
0.00307348
0.0138813
0.00624318
0.00420924
0.016308
-0.0363745
0.0166127
-0.0305858
0.0168472
-0.0268181
0.0170191
-0.02413
0.0171381
-0.0218045
0.0172144
-0.0195403
0.017257
-0.0173621
0.0172733
-0.0153176
0.017266
-0.0133986
0.0172371
-0.01161
0.0171886
-0.00992579
0.0171208
-0.00834687
0.0170347
-0.00685789
0.0169311
-0.00546472
0.0168111
-0.00415565
0.0166745
-0.0029423
0.0165241
-0.00182191
0.0163599
-0.000796848
0.0161846
0.000121894
0.016
0.000948479
0.0158074
0.00166386
0.0156066
0.00231613
0.0153993
0.00283611
0.0151786
0.00335902
0.0149516
0.00371442
0.0147079
0.00393714
0.0144309
0.00485146
0.0141996
0.00330481
0.0138914
0.00655138
0.00451541
0.0162089
-0.0366778
0.0165045
-0.0308814
0.01674
-0.0270536
0.0169183
-0.0243082
0.0170454
-0.0219316
0.0171307
-0.0196255
0.0171827
-0.0174141
0.0172081
-0.015343
0.0172098
-0.0134003
0.0171894
-0.0115896
0.0171488
-0.00988517
0.0170882
-0.00828626
0.0170086
-0.00677838
0.0169107
-0.00536673
0.0167956
-0.00404061
0.0166632
-0.00280984
0.0165161
-0.00167483
0.0163544
-0.000635189
0.0161812
0.000295161
0.0159982
0.0011314
0.0158076
0.00185451
0.0156087
0.00251504
0.0154058
0.00303898
0.0151829
0.0035819
0.0149532
0.00394416
0.0147064
0.00418389
0.0144313
0.00512665
0.0142066
0.00352946
0.0139018
0.00685617
0.00482098
0.0160963
-0.0369487
0.0163826
-0.0311677
0.0166198
-0.0272908
0.0168051
-0.0244935
0.016941
-0.0220676
0.0170358
-0.0197203
0.0170977
-0.017476
0.0171328
-0.0153781
0.0171441
-0.0134116
0.0171328
-0.0115782
0.0171006
-0.00985303
0.0170478
-0.00823345
0.0169754
-0.00670598
0.0168837
-0.00527503
0.0167742
-0.0039311
0.0166464
-0.00268207
0.0165032
-0.00153155
0.0163446
-0.000476647
0.0161738
0.00046594
0.0159933
0.00131199
0.0158054
0.00204237
0.0156096
0.00271084
0.0154114
0.00323718
0.015183
0.00381029
0.0149537
0.00417346
0.0147037
0.00443396
0.0144352
0.00539514
0.0142101
0.00375453
0.0139084
0.00715788
0.00512118
0.0159704
-0.0371909
0.0162471
-0.0314444
0.0164867
-0.0275304
0.0166796
-0.0246864
0.0168249
-0.0222128
0.0169297
-0.0198251
0.0170022
-0.0175485
0.0170476
-0.0154235
0.017069
-0.013433
0.0170673
-0.0115765
0.0170442
-0.00982994
0.0169998
-0.00818904
0.0169351
-0.00664127
0.0168502
-0.0051902
0.0167468
-0.00382769
0.0166243
-0.00255959
0.0164854
-0.0013926
0.0163305
-0.000321745
0.0161627
0.00063372
0.0159851
0.00148956
0.0158011
0.00222646
0.0156112
0.00290069
0.0154109
0.00343751
0.0151817
0.00403945
0.0149536
0.00440157
0.0146987
0.00468883
0.0144401
0.00565375
0.0142121
0.00398252
0.0139142
0.00745581
0.00541442
0.0158311
-0.0374089
0.0160981
-0.0317113
0.0163409
-0.0277732
0.0165422
-0.0248877
0.0166973
-0.0223679
0.0168126
-0.0199404
0.0168961
-0.0176319
0.0169524
-0.0154798
0.0169845
-0.0134651
0.0169929
-0.0115849
0.0169795
-0.00981648
0.016944
-0.00815362
0.0168876
-0.00658483
0.0168103
-0.00511287
0.0167135
-0.00373094
0.0165969
-0.00244294
0.0164628
-0.00125854
0.0163121
-0.000171027
0.0161478
0.000797981
0.0159741
0.00166334
0.015795
0.00240552
0.0156105
0.00308516
0.0154066
0.00364147
0.015179
0.00426705
0.014948
0.00463258
0.014696
0.00494078
0.0144444
0.00590539
0.0142142
0.0042127
0.0139203
0.00774967
0.00570017
0.0156786
-0.0376082
0.015936
-0.0319688
0.0161829
-0.02802
0.0163931
-0.025098
0.0165583
-0.0225331
0.0166846
-0.0200667
0.0167796
-0.0177269
0.0168472
-0.0155474
0.0168906
-0.0135085
0.0169098
-0.0116041
0.0169065
-0.00981321
0.0168807
-0.00812777
0.0168331
-0.00653723
0.0167638
-0.00504361
0.0166743
-0.00364143
0.0165641
-0.00233272
0.0164355
-0.00112991
0.0162895
-2.50543e-05
0.0161293
0.000958193
0.0159601
0.00183249
0.0157885
0.00257716
0.0156038
0.00326982
0.0154007
0.00384465
0.0151734
0.00449435
0.0149398
0.00486611
0.0146936
0.00518698
0.0144487
0.00615034
0.0142158
0.00444557
0.0139267
0.0080388
0.00597773
0.0155131
-0.0377953
0.0157617
-0.0322174
0.0160132
-0.0282716
0.0162327
-0.0253175
0.0164083
-0.0227087
0.0165459
-0.0202043
0.0166528
-0.0178339
0.0167323
-0.015627
0.0167874
-0.0135636
0.0168179
-0.0116346
0.0168254
-0.00982067
0.0168097
-0.00811207
0.0167715
-0.00649906
0.0167109
-0.00498301
0.0166293
-0.00355976
0.0165261
-0.00222951
0.0164034
-0.00100726
0.0162627
0.000115614
0.0161071
0.0011138
0.0159434
0.00199618
0.0157805
0.0027401
0.0155922
0.00345814
0.015393
0.00404378
0.0151623
0.00472506
0.0149324
0.00509605
0.0146907
0.00542868
0.0144536
0.00638742
0.0142164
0.00468277
0.0139332
0.00832208
0.00624624
0.0153352
-0.0379777
0.0155762
-0.0324585
0.0158329
-0.0285283
0.0160619
-0.0255464
0.0162477
-0.0228945
0.0163968
-0.0203534
0.016516
-0.0179531
0.0166078
-0.0157188
0.0166751
-0.0136308
0.0167175
-0.011677
0.0167362
-0.0098394
0.0167312
-0.00810706
0.016703
-0.00647086
0.0166516
-0.00493163
0.0165784
-0.00348651
0.0164827
-0.00213391
0.0163666
-0.000891138
0.0162318
0.000250422
0.0160814
0.00126422
0.015924
0.00215359
0.0157678
0.0028963
0.0155785
0.00364748
0.0153821
0.00424012
0.015149
0.00495818
0.0149244
0.00532062
0.0146869
0.00566617
0.014457
0.00661734
0.0142175
0.00492226
0.0139404
0.00859926
0.00650546
0.0151456
-0.0381643
0.0153817
-0.0326945
0.0156432
-0.0287899
0.0158813
-0.0257845
0.0160773
-0.0230905
0.0162378
-0.0205139
0.0163695
-0.0180848
0.016474
-0.0158233
0.0165539
-0.0137107
0.0166085
-0.0117316
0.016639
-0.00986986
0.0166452
-0.00811325
0.0166275
-0.00645318
0.0165859
-0.00489003
0.0165216
-0.00342224
0.0164342
-0.0020465
0.0163252
-0.000782104
0.0161968
0.000378827
0.0160522
0.00140876
0.0159023
0.00230349
0.01575
0.00304868
0.0155621
0.00383531
0.0153663
0.00443594
0.0151357
0.00518883
0.0149155
0.0055408
0.014682
0.00589961
0.0144574
0.00684196
0.0142204
0.00515932
0.0139484
0.00887123
0.0067553
0.0149457
-0.0383654
0.0151802
-0.0329291
0.0154457
-0.0290554
0.0156923
-0.0260311
0.0158977
-0.0232959
0.0160696
-0.0206857
0.0162138
-0.0182291
0.0163312
-0.0159407
0.016424
-0.0138035
0.0164913
-0.0117989
0.016534
-0.00991248
0.0165518
-0.00813109
0.0165452
-0.00644654
0.0165139
-0.00485871
0.0164591
-0.0033675
0.0163805
-0.00196787
0.0162791
-0.00068071
0.0161576
0.000500315