/*--------------------------------*- C++ -*----------------------------------*\
  =========                 |
  \\      /  F ield         | OpenFOAM: The Open Source CFD Toolbox
   \\    /   O peration     | Website:  https://openfoam.org
    \\  /    A nd           | Version:  7
     \\/     M anipulation  |
\*---------------------------------------------------------------------------*/
FoamFile
{
    version     2.0;
    format      ascii;
    class       volVectorField;
    location    "0.8";
    object      U;
}
// * * * * * * * * * * * * * * * * * * * * * * * * * * * * * * * * * * * * * //

dimensions      [0 1 -1 0 0 0 0];

internalField   nonuniform List<vector> 
18000
(
(-0.00276054 0.0977515 3.46879e-20)
(-0.00473746 0.157271 0)
(-0.000798706 0.132217 0)
(0.0111427 0.0628711 0)
(0.030414 -0.022311 -1.1499e-20)
(0.0553234 -0.10583 5.81333e-20)
(0.0837418 -0.178303 -1.18248e-20)
(0.113623 -0.235863 1.19052e-20)
(0.143314 -0.278105 0)
(0.17166 -0.306555 -3.62087e-20)
(0.19798 -0.323592 -1.21548e-20)
(0.221967 -0.331763 0)
(0.243574 -0.333407 2.43219e-20)
(0.262917 -0.330482 2.44474e-20)
(0.280193 -0.324526 -4.88064e-20)
(0.295634 -0.316697 -4.8696e-20)
(0.309471 -0.307826 0)
(0.321917 -0.298491 -7.25893e-20)
(0.33316 -0.289082 2.40745e-20)
(0.343362 -0.279846 -7.18198e-20)
(0.35266 -0.270935 2.37918e-20)
(0.361167 -0.262434 0)
(0.368979 -0.25438 -2.33463e-20)
(0.376177 -0.246785 -2.3287e-20)
(0.382829 -0.239638 0)
(0.388993 -0.232922 0)
(0.394714 -0.226611 -4.53863e-20)
(0.400038 -0.220675 -4.4998e-20)
(0.405038 -0.21508 -4.47769e-20)
(0.409489 -0.209715 4.56018e-20)
(-0.00495375 0.098205 4.91166e-20)
(-0.00714294 0.156286 8.57581e-20)
(-0.000587517 0.128349 -8.78324e-20)
(0.0151347 0.0554745 -8.96114e-20)
(0.0384386 -0.0331623 -2.28757e-20)
(0.066998 -0.119546 6.91597e-20)
(0.0983337 -0.194018 -9.36704e-20)
(0.130268 -0.252662 -9.46856e-20)
(0.16117 -0.295185 9.55327e-20)
(0.190005 -0.323308 9.62259e-20)
(0.216246 -0.339615 -4.83326e-20)
(0.239746 -0.346834 -9.70338e-20)
(0.260601 -0.347438 -4.88446e-20)
(0.279039 -0.343476 9.72296e-20)
(0.295342 -0.336541 -9.70781e-20)
(0.309801 -0.327816 9.71952e-20)
(0.322687 -0.318142 -1.93546e-19)
(0.334235 -0.308095 1.44627e-19)
(0.344646 -0.298056 -9.57041e-20)
(0.354085 -0.288262 4.78198e-20)
(0.36269 -0.278857 -9.45674e-20)
(0.370572 -0.269912 0)
(0.377823 -0.26146 4.72103e-20)
(0.384517 -0.253503 -9.26781e-20)
(0.390716 -0.246027 9.18114e-20)
(0.396473 -0.239008 0)
(0.401832 -0.232416 -4.49082e-20)
(0.406831 -0.22622 4.46527e-20)
(0.411539 -0.220379 1.77604e-19)
(0.415651 -0.214774 9.05797e-20)
(-0.00717612 0.0982593 -7.8874e-20)
(-0.00950108 0.154616 -8.57558e-20)
(-0.000123308 0.123735 1.31659e-19)
(0.0196372 0.0474136 2.23234e-19)
(0.0472209 -0.044499 0)
(0.0796139 -0.133498 -9.24891e-20)
(0.113961 -0.209682 9.36664e-20)
(0.147957 -0.269123 2.83055e-19)
(0.180016 -0.311676 -9.55287e-20)
(0.209244 -0.339272 -9.62021e-20)
(0.235297 -0.35471 2.89114e-19)
(0.258203 -0.360894 9.70303e-20)
(0.278209 -0.360423 0)
(0.295659 -0.355427 -1.94365e-19)
(0.310922 -0.347543 2.90085e-19)
(0.324349 -0.337971 -9.63122e-20)
(0.336244 -0.327552 9.65854e-20)
(0.346865 -0.316857 9.60598e-20)
(0.356421 -0.306252 3.62761e-22)
(0.365082 -0.295964 0)
(0.372983 -0.286122 2.83432e-19)
(0.38023 -0.276791 -1.87154e-19)
(0.38691 -0.267992 9.32494e-20)
(0.393092 -0.259721 0)
(0.398832 -0.251958 -9.18104e-20)
(0.404178 -0.244673 3.62979e-19)
(0.409167 -0.237836 -2.69218e-19)
(0.413836 -0.231411 -8.95157e-20)
(0.418246 -0.225351 8.77492e-20)
(0.422003 -0.219536 9.0308e-20)
(-0.00939392 0.0978582 0)
(-0.0117387 0.152104 4.2566e-20)
(0.000689532 0.118213 5.00209e-23)
(0.0247444 0.0385638 -2.22707e-19)
(0.0568235 -0.0563832 0)
(0.0931826 -0.147686 -1.83017e-19)
(0.130582 -0.22525 0)
(0.166602 -0.285177 -2.82504e-19)
(0.19973 -0.327497 9.45723e-20)
(0.229239 -0.35437 -1.90407e-19)
(0.254987 -0.368808 -1.92406e-19)
(0.27719 -0.373886 -9.64663e-20)
(0.296253 -0.372318 9.62751e-20)
(0.312642 -0.366304 9.58287e-20)
(0.326811 -0.357511 -9.70323e-20)
(0.339164 -0.347148 -1.91602e-19)
(0.350041 -0.336049 1.91427e-19)
(0.359716 -0.324772 0)
(0.368406 -0.313668 0)
(0.37628 -0.30295 0)
(0.38347 -0.292733 0)
(0.390078 -0.283071 0)
(0.396184 -0.273976 0)
(0.401851 -0.265437 -1.83115e-19)
(0.40713 -0.257429 -1.82348e-19)
(0.412062 -0.24992 -6.89192e-22)
(0.416679 -0.242872 -1.79005e-19)
(0.421016 -0.23625 -7.68789e-22)
(0.425126 -0.229998 -1.77239e-19)
(0.428521 -0.224001 3.59052e-19)
(-0.0115736 0.0970581 0)
(-0.0137961 0.14885 3.79959e-19)
(0.00189717 0.111885 4.9522e-23)
(0.0304759 0.0290151 -1.32694e-19)
(0.0672328 -0.0687343 4.48638e-19)
(0.107655 -0.162032 2.74423e-19)
(0.148114 -0.240641 2.76419e-19)
(0.186096 -0.300743 0)
(0.220186 -0.342573 0)
(0.249853 -0.368534 2.85553e-19)
(0.275174 -0.381854 4.01676e-22)
(0.296569 -0.385769 -6.69616e-19)
(0.314604 -0.383097 5.74341e-19)
(0.329868 -0.376091 -1.92463e-19)
(0.342896 -0.366439 1.90457e-19)
(0.354147 -0.355347 1.91274e-19)
(0.363987 -0.343637 -1.8994e-19)
(0.372706 -0.331847 1.90119e-19)
(0.380526 -0.320313 3.77301e-19)
(0.387612 -0.309229 -1.87624e-19)
(0.394092 -0.298696 -3.72301e-19)
(0.400062 -0.288758 3.69743e-19)
(0.405596 -0.279417 -3.67034e-19)
(0.410749 -0.270657 1.83113e-19)
(0.415567 -0.262446 0)
(0.420085 -0.254749 0)
(0.424331 -0.247527 1.4006e-21)
(0.428335 -0.240738 -7.0477e-19)
(0.432148 -0.234324 3.489e-19)
(0.435172 -0.228175 -3.57895e-19)
(-0.0136873 0.0958587 0)
(-0.0156138 0.144812 -3.37613e-19)
(0.00356731 0.104698 3.43917e-19)
(0.0368818 0.0187391 0)
(0.078463 -0.0815433 -7.1557e-19)
(0.123004 -0.176494 -9.09126e-20)
(0.166492 -0.255793 -1.84807e-19)
(0.206342 -0.31575 -9.27309e-20)
(0.241267 -0.356837 0)
(0.270958 -0.381708 -1.89289e-19)
(0.29573 -0.393806 1.89464e-19)
(0.316213 -0.396516 3.82099e-19)
(0.333142 -0.392744 -3.82789e-19)
(0.347226 -0.384783 0)
(0.35908 -0.37433 -3.82491e-19)
(0.369208 -0.362577 3.79581e-19)
(0.378004 -0.350328 3.80358e-19)
(0.385767 -0.338098 5.65795e-19)
(0.392718 -0.326201 -5.64515e-19)
(0.399021 -0.314814 7.46702e-19)
(0.404797 -0.304024 3.71685e-19)
(0.410134 -0.293862 -3.6974e-19)
(0.4151 -0.284325 7.32006e-19)
(0.419744 -0.275387 0)
(0.424104 -0.267015 3.59202e-19)
(0.428211 -0.259168 7.13772e-19)
(0.432087 -0.251804 -3.51712e-19)
(0.435761 -0.244879 3.52054e-19)
(0.439276 -0.23833 -6.87247e-22)
(0.441926 -0.232062 -3.56663e-19)
(-0.0157048 0.0942805 -3.84727e-20)
(-0.0171332 0.14002 0)
(0.0057536 0.0966909 -4.29701e-19)
(0.0439925 0.00778245 8.74178e-20)
(0.0905117 -0.0947516 2.67731e-19)
(0.139192 -0.191002 9.01436e-20)
(0.185645 -0.270633 3.64628e-19)
(0.227245 -0.330129 0)
(0.26286 -0.370228 1.86931e-19)
(0.292432 -0.393847 1.87264e-19)
(0.316529 -0.404634 -1.89242e-19)
(0.336003 -0.406111 5.67135e-19)
(0.351758 -0.401257 0)
(0.364618 -0.392389 0)
(0.375273 -0.381198 5.68369e-19)
(0.38427 -0.368857 -9.4608e-19)
(0.392022 -0.356143 3.7624e-19)
(0.398834 -0.343543 -3.76695e-19)
(0.404926 -0.33135 -3.72711e-19)
(0.410456 -0.319722 -1.11517e-18)
(0.415538 -0.308731 -1.44383e-21)
(0.420252 -0.298397 3.656e-19)
(0.424657 -0.288709 -7.27858e-19)
(0.428797 -0.279637 3.60046e-19)
(0.432705 -0.271143 -2.09681e-21)
(0.436404 -0.263181 -3.56182e-19)
(0.439914 -0.25571 3.53101e-19)
(0.443262 -0.24868 0)
(0.446482 -0.242023 3.44688e-19)
(0.448752 -0.235665 8.06119e-22)
(-0.0175984 0.0923372 -7.65075e-20)
(-0.018298 0.134493 8.32973e-20)
(0.00851097 0.0878855 -5.10658e-19)
(0.0518425 -0.00381842 -2.60027e-19)
(0.103382 -0.108307 3.52838e-19)
(0.156186 -0.205491 -5.37824e-19)
(0.205508 -0.28509 -1.83128e-19)
(0.24871 -0.343815 -3.66591e-19)
(0.284855 -0.382694 3.69954e-19)
(0.314157 -0.404912 -7.4732e-19)
(0.337457 -0.414317 -3.74629e-19)
(0.355831 -0.41455 -2.05764e-21)
(0.370351 -0.408644 1.89153e-19)
(0.381953 -0.398925 -5.65269e-19)
(0.391397 -0.387067 -7.54675e-19)
(0.399262 -0.374213 5.30632e-22)
(0.405979 -0.361106 -1.54876e-21)
(0.411853 -0.348208 3.72527e-19)
(0.417101 -0.335784 3.72708e-19)
(0.421873 -0.323973 6.46088e-22)
(0.426274 -0.312834 -7.82111e-22)
(0.430376 -0.302377 3.62056e-19)
(0.434231 -0.292583 3.62884e-19)
(0.437875 -0.283418 -7.05624e-22)
(0.441336 -0.274838 -1.06919e-18)
(0.444634 -0.266798 7.04627e-19)
(0.447782 -0.259251 7.00516e-19)
(0.450807 -0.252147 -6.92927e-19)
(0.453734 -0.24541 -3.44688e-19)
(0.455621 -0.238993 -3.51272e-19)
(-0.0193426 0.0900448 -6.82842e-19)
(-0.0190547 0.128258 -8.28311e-20)
(0.0118934 0.0783186 4.24858e-19)
(0.0604669 -0.0160148 3.46952e-19)
(0.117077 -0.122147 -3.52828e-19)
(0.173953 -0.219893 3.58e-19)
(0.226013 -0.299098 -1.81162e-19)
(0.270647 -0.356749 5.48978e-19)
(0.307146 -0.394191 -3.69944e-19)
(0.336022 -0.414879 3.72629e-19)
(0.358403 -0.422848 1.87442e-19)
(0.375594 -0.421839 -1.88869e-19)
(0.38883 -0.414923 -1.1253e-18)
(0.399152 -0.404417 7.51739e-19)
(0.40738 -0.391965 3.76295e-19)
(0.414124 -0.378674 0)
(0.419821 -0.365249 0)
(0.424778 -0.35212 -3.60502e-21)
(0.429201 -0.339526 -3.67861e-19)
(0.433234 -0.327589 0)
(0.43697 -0.316353 0)
(0.440473 -0.305818 -3.63487e-19)
(0.443788 -0.29596 0)
(0.446945 -0.286739 -7.11554e-19)
(0.449967 -0.27811 0)
(0.452868 -0.270024 -3.51947e-19)
(0.455659 -0.262435 6.96175e-19)
(0.458365 -0.255286 -6.88633e-19)
(0.461003 -0.248496 0)
(0.462501 -0.242053 0)
(-0.0209132 0.0874205 6.0677e-19)
(-0.0193518 0.121347 0)
(0.015954 0.0680338 -8.43586e-20)
(0.0699007 -0.0287502 8.59564e-20)
(0.1316 -0.136205 -5.22552e-19)
(0.192459 -0.234135 5.34738e-22)
(0.247094 -0.312587 -1.79452e-19)
(0.292964 -0.368875 0)
(0.329627 -0.404681 0)
(0.357921 -0.42373 -1.8518e-19)
(0.379267 -0.430227 1.85354e-19)
(0.3952 -0.427995 -3.73526e-19)
(0.407113 -0.42012 3.76955e-19)
(0.416145 -0.408897 0)
(0.423164 -0.395929 0)
(0.428803 -0.382276 0)
(0.433505 -0.368605 3.68402e-19)
(0.437567 -0.35531 -2.15238e-21)
(0.44119 -0.342606 3.69976e-19)
(0.444504 -0.330594 -7.28347e-19)
(0.447594 -0.319307 3.63213e-19)
(0.450514 -0.308736 -1.79956e-18)
(0.453301 -0.298852 1.48777e-21)
(0.455981 -0.289611 7.11556e-19)
(0.458569 -0.280967 -2.80894e-21)
(0.46108 -0.272869 6.9678e-19)
(0.463517 -0.265267 -6.88979e-19)
(0.465908 -0.258103 -6.85457e-19)
(0.468257 -0.251287 1.64875e-21)
(0.469361 -0.244852 -6.9311e-19)
(-0.0222876 0.0844823 -7.51822e-20)
(-0.0191399 0.113797 0)
(0.0207442 0.0570825 1.67754e-19)
(0.0801768 -0.0419602 -1.7093e-19)
(0.146951 -0.150407 1.56551e-18)
(0.211667 -0.248143 5.37698e-22)
(0.268681 -0.325491 -1.78434e-19)
(0.315569 -0.380143 1.81156e-19)
(0.352199 -0.414136 -9.0962e-19)
(0.379753 -0.431458 0)
(0.399956 -0.436465 0)
(0.414568 -0.433042 -3.67991e-19)
(0.425131 -0.424269 3.74187e-19)
(0.43287 -0.412404 -3.72051e-19)
(0.438696 -0.398998 3.70468e-19)
(0.443256 -0.385059 0)
(0.44699 -0.37121 -1.4754e-18)
(0.450188 -0.357811 7.32285e-19)
(0.453037 -0.34505 3.65668e-19)
(0.455656 -0.333011 1.08967e-18)
(0.458119 -0.321715 0)
(0.460471 -0.311147 7.18397e-19)
(0.462744 -0.301272 7.10114e-19)
(0.464955 -0.292045 7.04409e-19)
(0.467118 -0.283416 -4.39759e-21)
(0.469242 -0.275336 -6.90789e-19)
(0.471329 -0.267753 6.88983e-19)
(0.473407 -0.260603 0)
(0.475466 -0.253789 1.71085e-21)
(0.476169 -0.247395 1.38492e-18)
(-0.0234446 0.081249 -5.96119e-19)
(-0.0183721 0.10565 0)
(0.0263129 0.0455226 -6.64844e-19)
(0.0913244 -0.0555734 -8.48371e-19)
(0.163125 -0.164674 -5.20896e-19)
(0.231536 -0.261839 1.75783e-19)
(0.290701 -0.337747 7.02829e-22)
(0.338374 -0.39051 -1.79336e-19)
(0.374765 -0.422536 4.06234e-21)
(0.401425 -0.438064 3.66244e-19)
(0.420384 -0.441582 3.66154e-19)
(0.433623 -0.437012 -3.65207e-19)
(0.442821 -0.427411 3.6863e-19)
(0.449277 -0.414982 -1.10659e-18)
(0.453934 -0.401215 1.10409e-18)
(0.457447 -0.387064 7.33904e-19)
(0.460247 -0.373102 1.834e-18)
(0.462612 -0.359655 -3.68943e-19)
(0.464717 -0.346887 -7.24092e-19)
(0.466665 -0.334865 -4.34063e-21)
(0.468522 -0.323599 -7.17714e-19)
(0.470324 -0.313068 2.13339e-18)
(0.472094 -0.303233 -1.41714e-18)
(0.473846 -0.294049 1.39848e-18)
(0.47559 -0.285465 -6.96903e-19)
(0.477331 -0.277431 1.37713e-18)
(0.479069 -0.269895 2.77051e-21)
(0.480834 -0.262787 -1.35193e-18)
(0.4826 -0.256003 1.33631e-18)
(0.482892 -0.249688 6.85365e-19)
(-0.024364 0.0777401 5.96117e-19)
(-0.0170039 0.0969502 0)
(0.0327051 0.0334179 1.49162e-18)
(0.103367 -0.0695121 5.09228e-19)
(0.180112 -0.178922 0)
(0.252018 -0.275145 0)
(0.313082 -0.349292 0)
(0.361289 -0.399938 0)
(0.397234 -0.429866 3.61955e-19)
(0.422851 -0.443557 3.62555e-19)
(0.440477 -0.445605 -7.32737e-19)
(0.452302 -0.439944 7.35273e-19)
(0.460131 -0.42959 1.10019e-18)
(0.465323 -0.416677 3.69988e-19)
(0.468844 -0.402628 3.6306e-19)
(0.471346 -0.388333 -1.09929e-18)
(0.473249 -0.374319 -1.45828e-18)
(0.474817 -0.360877 -7.27987e-19)
(0.476208 -0.348147 7.24096e-19)
(0.477513 -0.33618 -1.43789e-18)
(0.478784 -0.324977 7.12018e-19)
(0.480052 -0.314513 -1.41777e-18)
(0.481333 -0.304746 6.99748e-19)
(0.482634 -0.295631 -3.33114e-21)
(0.483963 -0.287117 -6.89709e-19)
(0.485323 -0.279155 -1.37096e-18)
(0.486711 -0.271693 1.35742e-18)
(0.48816 -0.264653 0)
(0.489626 -0.257929 -1.83437e-21)
(0.489499 -0.251733 -1.36982e-18)
(-0.0250268 0.0739754 7.38455e-20)
(-0.0149939 0.087747 0)
(0.0399611 0.0208379 -6.60957e-19)
(0.116323 -0.0836927 1.68204e-19)
(0.197894 -0.193065 -1.70777e-19)
(0.273061 -0.287984 0)
(0.335746 -0.360069 -1.7611e-19)
(0.384226 -0.408394 1.77312e-19)
(0.419518 -0.436123 3.59558e-19)
(0.443953 -0.447954 -1.08122e-18)
(0.460169 -0.448567 -3.6401e-19)
(0.470553 -0.441883 -1.39053e-21)
(0.477018 -0.430855 -2.16016e-21)
(0.480974 -0.41754 -7.30271e-19)
(0.483397 -0.403282 -3.67345e-19)
(0.48493 -0.388909 0)
(0.485978 -0.3749 1.34687e-21)
(0.486785 -0.36151 7.23612e-19)
(0.487494 -0.348857 -7.16847e-19)
(0.488182 -0.336978 0)
(0.488891 -0.325868 0)
(0.489641 -0.315496 0)
(0.490444 -0.305821 0)
(0.491302 -0.296797 -4.46372e-21)
(0.49222 -0.288375 0)
(0.493198 -0.280508 0)
(0.494233 -0.273143 6.7105e-19)
(0.495362 -0.266197 6.64639e-19)
(0.496517 -0.25956 6.60838e-19)
(0.495959 -0.253527 -2.00277e-21)
(-0.025415 0.069975 7.33984e-20)
(-0.0123039 0.0780912 -1.59992e-19)
(0.0481156 0.00785661 9.80728e-19)
(0.130202 -0.0980271 -1.66976e-19)
(0.216446 -0.207012 1.70156e-19)
(0.294609 -0.300279 5.65128e-22)
(0.358616 -0.370025 5.22515e-19)
(0.407102 -0.415855 -7.04819e-19)
(0.441539 -0.441307 1.06897e-18)
(0.464661 -0.45128 2.08578e-21)
(0.479402 -0.450508 -3.59989e-19)
(0.488329 -0.442876 7.22866e-19)
(0.493449 -0.431258 -7.24021e-19)
(0.496204 -0.41762 7.24028e-19)
(0.497573 -0.403226 0)
(0.498183 -0.388836 7.21096e-19)
(0.498418 -0.374883 0)
(0.498503 -0.361587 4.33337e-21)
(0.498562 -0.349045 -7.11057e-19)
(0.498661 -0.337284 -7.06593e-19)
(0.498829 -0.326291 7.01701e-19)
(0.499079 -0.316032 -6.96445e-19)
(0.499415 -0.306467 -6.90884e-19)
(0.499838 -0.297552 -1.37461e-18)
(0.500347 -0.28924 -6.7904e-19)
(0.500941 -0.281485 6.75538e-19)
(0.501617 -0.274237 -1.33942e-18)
(0.502416 -0.267408 -6.64649e-19)
(0.503248 -0.260887 0)
(0.502251 -0.255065 -6.7893e-19)
(-0.0255119 0.0657595 0)
(-0.0088996 0.0680369 6.33854e-19)
(0.0571971 -0.00544739 -4.90268e-19)
(0.145006 -0.112423 -8.28349e-19)
(0.235734 -0.220674 0)
(0.316597 -0.311954 0)
(0.381613 -0.379111 -1.04514e-18)
(0.429835 -0.422301 1.40403e-18)
(0.463221 -0.445429 -1.065e-18)
(0.484914 -0.453565 0)
(0.498129 -0.451471 3.60537e-19)
(0.505596 -0.442974 -3.63175e-19)
(0.509396 -0.430851 4.1552e-21)
(0.510994 -0.41697 -3.6567e-19)
(0.511357 -0.402507 -3.58844e-19)
(0.511092 -0.388157 -4.27118e-21)
(0.510558 -0.374305 7.14101e-19)
(0.50996 -0.36114 7.15028e-19)
(0.509404 -0.34874 1.5559e-21)
(0.508941 -0.33712 1.41038e-18)
(0.50859 -0.326263 -1.40175e-18)
(0.508356 -0.316134 1.39016e-18)
(0.508238 -0.306693 6.90894e-19)
(0.508231 -0.297899 6.85078e-19)
(0.508333 -0.289708 4.51404e-21)
(0.50854 -0.28208 0)
(0.508848 -0.274965 6.64609e-19)
(0.509306 -0.26827 -1.97368e-18)
(0.509799 -0.261895 6.47614e-19)
(0.508359 -0.256337 6.74684e-19)
(-0.0253018 0.0613496 -4.33228e-19)
(-0.00475059 0.0576404 -1.42197e-18)
(0.0672265 -0.018992 -2.02584e-22)
(0.160726 -0.126785 3.69627e-21)
(0.255717 -0.233958 -5.01976e-19)
(0.33896 -0.32294 0)
(0.404658 -0.387285 -3.42727e-19)
(0.452346 -0.427722 -2.09663e-18)
(0.484497 -0.448504 1.05932e-18)
(0.504659 -0.454845 -7.0862e-19)
(0.51631 -0.451505 1.0702e-18)
(0.522325 -0.44223 -3.57657e-19)
(0.524842 -0.429688 7.19877e-19)
(0.52533 -0.415639 -1.79487e-18)
(0.524739 -0.401171 1.07663e-18)
(0.523648 -0.386913 -1.34234e-21)
(0.522392 -0.373203 -2.13509e-18)
(0.521151 -0.360201 7.09188e-19)
(0.520014 -0.347967 -7.03882e-19)
(0.519017 -0.336508 0)
(0.51817 -0.325802 6.92892e-19)
(0.51747 -0.315815 0)
(0.516908 -0.306507 -6.84641e-19)
(0.516478 -0.297841 6.77922e-19)
(0.516173 -0.289779 6.74548e-19)
(0.515988 -0.282283 6.63779e-19)
(0.515918 -0.27531 0)
(0.516022 -0.268765 0)
(0.516161 -0.262564 -1.2984e-18)
(0.514283 -0.257327 2.00985e-18)
(-0.0247702 0.0567663 4.33914e-19)
(0.000169019 0.0469601 7.86831e-19)
(0.0782176 -0.0326921 -6.4146e-19)
(0.177348 -0.141017 1.31287e-18)
(0.276346 -0.246774 1.71145e-19)
(0.361625 -0.333167 1.70427e-19)
(0.427672 -0.394512 5.40654e-21)
(0.474564 -0.432114 -6.91034e-19)
(0.505307 -0.450553 -3.4963e-19)
(0.523848 -0.455158 3.97566e-21)
(0.533914 -0.450659 -4.02219e-21)
(0.538496 -0.440699 -1.06753e-18)
(0.539771 -0.427823 -3.55397e-19)
(0.539203 -0.413679 4.1673e-21)
(0.537712 -0.399265 7.10365e-19)
(0.535848 -0.385145 7.08338e-19)
(0.533915 -0.371612 4.28757e-21)
(0.532071 -0.358801 -7.02065e-19)
(0.530387 -0.346754 7.00749e-19)
(0.528885 -0.335471 -6.95093e-19)
(0.527565 -0.324927 -1.3814e-18)
(0.526417 -0.315088 -6.85809e-19)
(0.525426 -0.305917 1.35684e-18)
(0.52458 -0.297381 0)
(0.52387 -0.289446 -6.65526e-19)
(0.523287 -0.282083 -1.32304e-18)
(0.522828 -0.275254 -1.31082e-18)
(0.522564 -0.268867 6.50316e-19)
(0.522333 -0.262867 -1.92876e-18)
(0.520037 -0.258014 6.6781e-19)
(-0.0239037 0.0520309 -7.14518e-19)
(0.00588051 0.0360561 1.55831e-19)
(0.090176 -0.0464601 6.41462e-19)
(0.194845 -0.15502 -4.91174e-19)
(0.297564 -0.259034 1.67575e-19)
(0.384517 -0.342574 -1.23694e-21)
(0.450576 -0.400762 1.70712e-18)
(0.496418 -0.435477 6.92987e-19)
(0.525596 -0.451604 6.99543e-19)
(0.542446 -0.454549 1.05673e-18)
(0.550915 -0.448985 -1.06074e-18)
(0.554094 -0.438434 7.10615e-19)
(0.554178 -0.425308 1.42226e-18)
(0.552609 -0.411138 7.10502e-19)
(0.550275 -0.396833 -1.28175e-21)
(0.547689 -0.382892 -1.41376e-18)
(0.545126 -0.369569 1.40961e-18)
(0.54272 -0.35697 2.8125e-21)
(0.540523 -0.345128 -6.96381e-19)
(0.538546 -0.334032 6.9076e-19)
(0.536779 -0.323656 6.88506e-19)
(0.535202 -0.313967 -6.78741e-19)
(0.533796 -0.304932 -1.3532e-18)
(0.532543 -0.296522 -6.95182e-22)
(0.531429 -0.288708 6.67461e-19)
(0.530444 -0.281469 6.59263e-19)
(0.529587 -0.274778 1.30164e-18)
(0.52894 -0.268549 -1.28296e-18)
(0.528329 -0.262776 0)
(0.525648 -0.258368 6.64832e-19)
(-0.0226902 0.0471651 3.57397e-21)
(0.0124003 0.0249904 0)
(0.103099 -0.0602068 -4.74648e-19)
(0.213182 -0.168697 -1.62023e-19)
(0.319307 -0.270654 -6.57965e-19)
(0.407558 -0.351105 0)
(0.473295 -0.406013 -1.02164e-18)
(0.517846 -0.437822 3.42765e-19)
(0.545319 -0.451688 0)
(0.560421 -0.453064 -6.96806e-19)
(0.567296 -0.446537 0)
(0.56911 -0.435489 -1.05542e-18)
(0.568056 -0.422194 1.05565e-18)
(0.565546 -0.408063 -7.07381e-19)
(0.562427 -0.393916 -7.02029e-19)
(0.559171 -0.380193 0)
(0.556024 -0.367105 0)
(0.553096 -0.35474 6.96185e-19)
(0.550423 -0.343115 1.04833e-21)
(0.548003 -0.332214 6.85699e-19)
(0.545814 -0.32201 -6.81473e-19)
(0.543832 -0.31247 1.35566e-18)
(0.542027 -0.303565 -6.70503e-19)
(0.540378 -0.295269 0)
(0.538866 -0.287563 1.97917e-18)
(0.537478 -0.280431 -3.26009e-18)
(0.536213 -0.273861 6.4781e-19)
(0.535173 -0.267781 6.41754e-19)
(0.534173 -0.262255 6.30499e-19)
(0.531156 -0.258348 1.3192e-18)
(-0.0211189 0.042191 -5.60389e-19)
(0.0197395 0.0138261 1.22953e-18)
(0.116975 -0.0738421 6.3367e-19)
(0.232316 -0.181952 1.44675e-18)
(0.341506 -0.281554 1.80233e-18)
(0.430669 -0.35871 3.33864e-19)
(0.495755 -0.410248 -1.68407e-18)
(0.538787 -0.439161 0)
(0.564433 -0.45084 -1.3759e-18)
(0.577748 -0.45075 -6.89063e-19)
(0.583046 -0.443365 0)
(0.583539 -0.431917 -6.94605e-19)
(0.581408 -0.418531 -1.0457e-21)
(0.578017 -0.4045 -2.09859e-18)
(0.574169 -0.390557 7.02045e-19)
(0.570296 -0.377083 6.98495e-19)
(0.566611 -0.364256 -1.38439e-18)
(0.563203 -0.352141 -1.38266e-18)
(0.56009 -0.340743 -9.79597e-22)
(0.557258 -0.330043 -2.63801e-21)
(0.554678 -0.320011 0)
(0.552314 -0.310616 -6.72474e-19)
(0.550133 -0.30183 -6.62344e-19)
(0.548105 -0.293634 0)
(0.546205 -0.286012 0)
(0.544415 -0.278962 1.94662e-18)
(0.542739 -0.272485 -1.91733e-18)
(0.541293 -0.266532 0)
(0.539898 -0.261261 1.878e-18)
(0.536609 -0.257902 -1.31123e-18)
(-0.0191803 0.0371309 7.34548e-21)
(0.0279041 0.00262776 -1.22917e-18)
(0.131786 -0.0872755 -1.56852e-19)
(0.252193 -0.194691 -1.60618e-18)
(0.364084 -0.291658 -9.82513e-19)
(0.453768 -0.365345 3.31974e-19)
(0.517884 -0.41346 6.75393e-19)
(0.559191 -0.439515 1.69436e-18)
(0.582906 -0.4491 1.37592e-18)
(0.59441 -0.447655 1.38591e-18)
(0.598156 -0.439523 0)
(0.597382 -0.427768 7.89911e-21)
(0.594233 -0.414365 0)
(0.590024 -0.400491 1.39839e-18)
(0.585504 -0.386793 0)
(0.581064 -0.373599 -6.94301e-19)
(0.576888 -0.361054 6.98511e-19)
(0.573041 -0.349203 0)
(0.569526 -0.338042 0)
(0.566318 -0.327547 -2.0309e-18)
(0.563379 -0.317685 6.72823e-19)
(0.560664 -0.308427 0)
(0.558133 -0.299748 1.32356e-18)
(0.555747 -0.29163 1.31648e-18)
(0.553475 -0.284064 -2.59941e-18)
(0.551293 -0.277059 2.57398e-18)
(0.549206 -0.270633 4.85473e-21)
(0.547346 -0.264771 1.25633e-18)
(0.545549 -0.259748 -1.25193e-18)
(0.542059 -0.256954 0)
(-0.0168663 0.0320081 1.4004e-18)
(0.0368945 -0.00853944 -1.51996e-19)
(0.147501 -0.100417 -1.24413e-18)
(0.272753 -0.206823 0)
(0.386961 -0.300899 -1.29288e-18)
(0.476775 -0.370977 0)
(0.539616 -0.415645 -1.66694e-18)
(0.579007 -0.438908 -1.01835e-18)
(0.600708 -0.446508 -1.36087e-18)
(0.610392 -0.44383 0)
(0.612624 -0.43506 3.45939e-19)
(0.61064 -0.423091 3.55846e-19)
(0.606538 -0.409743 -6.92419e-19)
(0.601571 -0.396077 -1.38226e-18)
(0.596435 -0.382662 -6.8703e-19)
(0.59148 -0.369776 -2.75397e-18)
(0.586857 -0.357532 1.37619e-18)
(0.582612 -0.345958 -9.62341e-22)
(0.578735 -0.335042 -8.36767e-22)
(0.575189 -0.324754 2.02588e-18)
(0.571925 -0.315061 0)
(0.568895 -0.305933 0)
(0.566046 -0.297344 -3.95566e-21)
(0.563334 -0.289279 4.88311e-21)
(0.560717 -0.281736 -1.28643e-18)
(0.558161 -0.274729 -1.2784e-18)
(0.55567 -0.268297 4.16801e-21)
(0.553389 -0.262466 -1.25637e-18)
(0.551181 -0.257657 -1.23844e-18)
(0.547565 -0.255405 4.66601e-21)
(-0.0141705 0.026846 0)
(0.0467055 -0.0196096 1.20686e-18)
(0.164086 -0.113179 1.08897e-18)
(0.293927 -0.218264 1.58115e-19)
(0.410052 -0.309213 2.57827e-18)
(0.499608 -0.375576 -3.28262e-19)
(0.560885 -0.416809 2.65538e-18)
(0.598195 -0.437367 1.33901e-18)
(0.617817 -0.443106 2.03941e-18)
(0.625688 -0.439322 1.02225e-18)
(0.62645 -0.430027 3.44018e-19)
(0.623317 -0.417932 1.72761e-18)
(0.618326 -0.404705 1.91475e-21)
(0.612663 -0.391296 6.9404e-19)
(0.606965 -0.3782 1.37953e-18)
(0.601543 -0.365646 1.37502e-18)
(0.596518 -0.353721 0)
(0.591918 -0.342438 0)
(0.587718 -0.331776 0)
(0.583873 -0.3217 0)
(0.580327 -0.312174 1.32481e-18)
(0.577022 -0.303167 0)
(0.573898 -0.294653 -4.75673e-21)
(0.570901 -0.286616 2.5842e-18)
(0.567976 -0.279055 1.28178e-18)
(0.565078 -0.271992 1.26898e-18)
(0.562205 -0.265479 2.51248e-18)
(0.559499 -0.259594 0)
(0.556866 -0.254921 -2.45465e-18)
(0.553198 -0.253127 2.5893e-18)
(-0.0110879 0.0216688 1.09979e-18)
(0.0573261 -0.0305165 -1.20688e-18)
(0.181496 -0.125473 0)
(0.31564 -0.228931 -1.25477e-18)
(0.433271 -0.316548 -3.28514e-19)
(0.522188 -0.379122 -9.7401e-19)
(0.581634 -0.416962 -2.97363e-18)
(0.616717 -0.434925 -8.9e-21)
(0.634215 -0.438939 -1.00961e-18)
(0.640291 -0.434179 -2.37858e-18)
(0.639635 -0.424469 -3.40876e-19)
(0.635419 -0.412334 -1.36625e-18)
(0.629603 -0.399291 -1.3675e-18)
(0.623302 -0.386185 0)
(0.617096 -0.373439 -1.36349e-18)
(0.611253 -0.361241 -2.04068e-18)
(0.605871 -0.349654 6.77787e-19)
(0.600957 -0.338675 -1.34498e-18)
(0.596476 -0.328277 -1.33632e-18)
(0.592375 -0.318419 0)
(0.588591 -0.309063 -2.64112e-18)
(0.585059 -0.300173 0)
(0.581711 -0.291721 -2.60037e-18)
(0.578482 -0.283687 -1.28606e-18)
(0.575306 -0.276067 -2.5465e-18)
(0.572119 -0.268887 1.26063e-18)
(0.568904 -0.262203 -3.74207e-18)
(0.565783 -0.256147 1.2298e-18)
(0.562713 -0.251482 8.76857e-21)
(0.559062 -0.24998 -1.28699e-18)
(-0.00761517 0.0165009 -1.09982e-18)
(0.0687398 -0.0411943 1.49578e-19)
(0.199678 -0.137217 1.06838e-18)
(0.33781 -0.238751 1.25479e-18)
(0.456528 -0.322856 -1.27798e-18)
(0.544439 -0.381602 7.18769e-21)
(0.601805 -0.416119 1.31766e-18)
(0.634539 -0.431617 -2.65992e-18)
(0.649887 -0.43405 -3.29227e-19)
(0.6542 -0.428447 3.04186e-18)
(0.652186 -0.418431 -2.03561e-18)
(0.646952 -0.406337 3.40518e-18)
(0.640375 -0.393539 3.41008e-18)
(0.633492 -0.380777 -6.80495e-19)
(0.626828 -0.368412 1.36354e-18)
(0.620611 -0.356593 2.03668e-18)
(0.614912 -0.345361 6.70675e-19)
(0.609726 -0.334702 8.24357e-21)
(0.605006 -0.32458 6.70004e-19)
(0.600694 -0.314952 6.60979e-19)
(0.59672 -0.305772 -6.47661e-19)
(0.593015 -0.297 6.50257e-19)
(0.589504 -0.288602 -1.28483e-18)
(0.586112 -0.280551 1.28139e-18)
(0.582757 -0.272837 8.80828e-21)
(0.579358 -0.265476 1.24724e-18)
(0.575874 -0.258519 8.82058e-21)
(0.572379 -0.252147 -1.2254e-18)
(0.568873 -0.247301 4.4142e-21)
(0.565319 -0.245817 0)
(-0.00375065 0.0113676 0)
(0.0809244 -0.0515771 0)
(0.218572 -0.148329 -1.37382e-18)
(0.360351 -0.247655 1.55269e-19)
(0.479733 -0.328098 0)
(0.566284 -0.383012 1.29185e-18)
(0.621349 -0.414301 3.27616e-19)
(0.651636 -0.427479 9.96585e-19)
(0.664823 -0.428484 1.33916e-18)
(0.667415 -0.422173 -1.34868e-18)
(0.664106 -0.411955 1.35516e-18)
(0.657922 -0.399981 -1.35882e-18)
(0.650645 -0.387482 -1.35994e-18)
(0.643236 -0.375103 0)
(0.63616 -0.363148 0)
(0.629611 -0.351731 0)
(0.623637 -0.340873 -1.34449e-18)
(0.618217 -0.330551 2.00349e-18)
(0.613301 -0.320723 -6.61666e-19)
(0.608822 -0.311339 0)
(0.604711 -0.30235 1.95974e-18)
(0.600893 -0.293707 -6.46019e-19)
(0.59729 -0.285367 1.28487e-18)
(0.593817 -0.277291 -2.53233e-18)
(0.590379 -0.269453 2.51568e-18)
(0.586872 -0.261848 -4.31854e-21)
(0.58322 -0.254502 4.50509e-21)
(0.579418 -0.247636 1.21663e-18)
(0.575511 -0.242338 -1.49387e-22)
(0.572184 -0.240384 1.27334e-18)
(0.000505073 0.0062951 1.3561e-19)
(0.0938511 -0.0615986 -1.47328e-19)
(0.238112 -0.158732 3.02965e-19)
(0.383173 -0.25558 -1.85112e-18)
(0.502795 -0.332245 3.14396e-19)
(0.587652 -0.383352 0)
(0.640218 -0.411533 1.29681e-18)
(0.667982 -0.422551 -1.31266e-18)
(0.679017 -0.422285 0)
(0.67994 -0.415397 1.66968e-18)
(0.675403 -0.40508 -3.35452e-19)
(0.668335 -0.393299 0)
(0.660418 -0.38115 -6.75081e-19)
(0.652533 -0.369192 1.34723e-18)
(0.645091 -0.357673 -6.71426e-19)
(0.638249 -0.346681 6.69909e-19)
(0.632036 -0.336218 -1.33241e-18)
(0.626421 -0.326254 -5.56853e-22)
(0.621346 -0.316741 -4.28595e-22)
(0.616746 -0.307624 -6.48971e-19)
(0.61255 -0.298849 -1.29534e-18)
(0.608684 -0.290361 -3.15637e-22)
(0.605071 -0.2821 4.19871e-21)
(0.601621 -0.274012 1.26395e-18)
(0.598228 -0.266044 -1.24695e-18)
(0.594766 -0.258146 1.23854e-18)
(0.591098 -0.250289 -2.44203e-18)
(0.587081 -0.242707 -4.48107e-21)
(0.582808 -0.2365 -2.38549e-18)
(0.579888 -0.233106 1.26656e-18)
(0.00514967 0.00131087 0)
(0.107485 -0.0711929 -1.1703e-18)
(0.258223 -0.168352 0)
(0.406179 -0.262473 7.10616e-21)
(0.525625 -0.335273 3.14024e-19)
(0.608476 -0.382629 1.66509e-21)
(0.658371 -0.407845 -2.58528e-18)
(0.683559 -0.416872 9.86258e-19)
(0.692465 -0.415495 0)
(0.691777 -0.408161 -1.66799e-18)
(0.686082 -0.397843 3.3371e-19)
(0.678196 -0.386323 0)
(0.669696 -0.374573 -6.71389e-19)
(0.661383 -0.363069 6.69268e-19)
(0.653615 -0.352014 6.64046e-19)
(0.646516 -0.341468 1.33122e-18)
(0.640098 -0.331423 -6.61978e-19)
(0.634321 -0.321839 0)
(0.629124 -0.312667 0)
(0.624443 -0.303848 1.30176e-18)
(0.620209 -0.295324 -1.2869e-18)
(0.616357 -0.287031 1.27524e-18)
(0.612818 -0.2789 1.26763e-18)
(0.609511 -0.270855 1.25078e-18)
(0.60634 -0.262806 -1.23811e-18)
(0.603176 -0.254636 1.22955e-18)
(0.599822 -0.246224 1.21196e-18)
(0.595921 -0.237731 -1.19883e-18)
(0.591471 -0.229903 3.83483e-21)
(0.588982 -0.223264 2.51941e-18)
(0.0101847 -0.00356259 1.34e-19)
(0.121796 -0.0803038 1.02511e-18)
(0.278834 -0.17713 0)
(0.42928 -0.268294 1.22611e-18)
(0.548139 -0.337172 0)
(0.628692 -0.38086 0)
(0.675771 -0.40327 9.67872e-19)
(0.698351 -0.410484 -1.67211e-21)
(0.705163 -0.408155 3.28068e-19)
(0.702932 -0.400503 3.31741e-19)
(0.69615 -0.390275 -9.98345e-19)
(0.68751 -0.379082 6.65896e-19)
(0.678481 -0.367775 0)
(0.669784 -0.356758 0)
(0.661727 -0.346192 -1.33293e-18)
(0.654404 -0.336115 0)
(0.64781 -0.32651 -6.58742e-19)
(0.641899 -0.317333 6.54247e-19)
(0.63661 -0.30853 6.49948e-19)
(0.631879 -0.300046 1.20278e-22)
(0.627646 -0.291819 -6.39266e-19)
(0.623855 -0.283782 0)
(0.620453 -0.275861 -1.25462e-18)
(0.617389 -0.267967 1.24229e-18)
(0.614608 -0.259982 0)
(0.612048 -0.251729 0)
(0.609572 -0.242996 0)
(0.6068 -0.233746 0)
(0.603636 -0.223759 -1.17677e-18)
(0.60197 -0.211705 2.50132e-18)
(0.421382 -0.186112 -0.0363863)
(0.425664 -0.15757 -0.038538)
(0.430578 -0.139726 -0.0395502)
(0.433151 -0.127276 -0.0405922)
(0.4338 -0.116306 -0.0416216)
(0.433361 -0.105285 -0.0426253)
(0.432114 -0.0944266 -0.0436198)
(0.430338 -0.0840397 -0.0446125)
(0.428134 -0.0742569 -0.0456146)
(0.425638 -0.0651011 -0.0466448)
(0.422879 -0.0564596 -0.0477158)
(0.419856 -0.0483676 -0.0488362)
(0.416629 -0.0407382 -0.050016)
(0.413197 -0.0336039 -0.0512589)
(0.409551 -0.0268959 -0.052567)
(0.405762 -0.0207131 -0.0539481)
(0.401794 -0.0149536 -0.0553987)
(0.397749 -0.00972685 -0.0569001)
(0.393482 -0.00499794 -0.0584724)
(0.389564 -0.000733921 -0.0600321)
(0.384497 0.00293771 -0.0617612)
(0.38225 0.006282 -0.0632243)
(0.373438 0.00891489 -0.0653146)
(0.378663 0.0113939 -0.0664137)
(0.356165 0.0132387 -0.069165)
(0.383976 0.0139845 -0.0698501)