/*--------------------------------*- C++ -*----------------------------------*\
  =========                 |
  \\      /  F ield         | OpenFOAM: The Open Source CFD Toolbox
   \\    /   O peration     | Website:  https://openfoam.org
    \\  /    A nd           | Version:  7
     \\/     M anipulation  |
\*---------------------------------------------------------------------------*/
FoamFile
{
    version     2.0;
    format      ascii;
    class       volScalarField;
    location    "47";
    object      p;
}
// * * * * * * * * * * * * * * * * * * * * * * * * * * * * * * * * * * * * * //

dimensions      [0 2 -2 0 0 0 0];

internalField   nonuniform List<scalar> 
2000
(
0.0376476
0.0376795
0.0381261
0.0387458
0.0394797
0.0402823
0.0411179
0.0419614
0.0427919
0.0436134
0.0377038
0.0378181
0.0383219
0.0389973
0.039777
0.0406093
0.0414525
0.0422743
0.0430448
0.0437466
0.037626
0.0378588
0.038422
0.0391481
0.0399635
0.0408157
0.0416598
0.0424605
0.0431851
0.043786
0.0374152
0.0378037
0.0384256
0.039192
0.0400275
0.0408811
0.0417093
0.0424775
0.0431585
0.0436748
0.0370776
0.0376604
0.0383359
0.0391291
0.0399636
0.040793
0.041579
0.0422912
0.042915
0.0433563
0.0366344
0.0374346
0.0381605
0.0389643
0.0397729
0.0405472
0.0412572
0.0418792
0.0424152
0.0427774
0.0361029
0.0371406
0.0379094
0.0387051
0.0394603
0.0401451
0.0407406
0.0412317
0.0416356
0.0418952
0.0355072
0.0367928
0.0375928
0.038359
0.0390316
0.0395907
0.0400313
0.04035
0.0405767
0.0406985
0.0348755
0.0364052
0.037221
0.0379343
0.0384932
0.0388889
0.0391321
0.0392356
0.0392488
0.0392166
0.0342392
0.0359936
0.0368062
0.037442
0.0378574
0.038053
0.038052
0.0378769
0.037595
0.0373585
0.0457371
0.050158
0.0550448
0.0603999
0.0654683
0.0703359
0.0740451
0.0779386
0.0794574
0.0813928
0.0454386
0.0493005
0.0534153
0.0582724
0.0630005
0.067615
0.0710812
0.0747909
0.076277
0.0780781
0.0449784
0.0484868
0.0517691
0.0561285
0.0605389
0.0649275
0.0681956
0.0717548
0.073171
0.0748958
0.0443054
0.0476812
0.0501146
0.0539836
0.0580924
0.0622719
0.0653812
0.0688074
0.0701608
0.0718398
0.0433885
0.046809
0.0484635
0.051856
0.0556768
0.0596661
0.0626494
0.0659626
0.0672823
0.0689234
0.0422197
0.0457691
0.0468257
0.0497522
0.0532854
0.057095
0.0599708
0.0631843
0.0644982
0.0661207
0.0408128
0.0444713
0.0451984
0.0476908
0.0509562
0.0546027
0.0573927
0.0605239
0.0618448
0.0634455
0.0392156
0.0428702
0.0435507
0.0456333
0.0486275
0.0521116
0.0548296
0.0578868
0.0592365
0.0608474
0.0374838
0.0409496
0.0418596
0.0436967
0.0464587
0.0497724
0.0524269
0.055403
0.0567713
0.0583579
0.0358031
0.0388765
0.0399452
0.0415832
0.044122
0.04728
0.0499012
0.0528067
0.0542682
0.0558793
0.0332201
0.0361436
0.037809
0.038924
0.0404569
0.0427705
0.0451075
0.0475326
0.0490382
0.0502368
0.0233831
0.0255641
0.0273492
0.0292717
0.0314805
0.0340887
0.0365315
0.0388027
0.0403298
0.0413012
0.013853
0.0154954
0.0170207
0.0191025
0.0218209
0.024982
0.0277396
0.0301239
0.0317435
0.0327577
0.00523534
0.00642614
0.00775908
0.00985435
0.0128463
0.016421
0.0195204
0.0220908
0.0237832
0.024855
-0.0017145
-0.00096985
0.000131035
0.00211892
0.00515288
0.00887089
0.0121778
0.0149347
0.0167643
0.0179129
-0.0064826
-0.0061449
-0.00535371
-0.00354802
-0.000605394
0.00303674
0.00628663
0.00900175
0.0108417
0.0120337
-0.0087519
-0.00880933
-0.00847307
-0.00708591
-0.00448031
-0.00105262
0.00204933
0.00459882
0.00629445
0.00737298
-0.00860296
-0.00883874
-0.0088585
-0.0080413
-0.00612097
-0.00330881
-0.00062736
0.00164161
0.00307581
0.00398302
-0.00656675
-0.00681421
-0.00708663
-0.00671207
-0.00547231
-0.00352914
-0.00158444
0.000133838
0.00111383
0.00178288
-0.00243298
-0.00276412
-0.00315078
-0.00326483
-0.00290181
-0.00203314
-0.00111582
-0.000253719
0.0001675
0.000504293
0.029822
0.0208834
0.012248
0.00441866
-0.00188072
-0.00621958
-0.008256
-0.00806503
-0.00609642
-0.00218892
0.0278811
0.0191626
0.0109088
0.00351549
-0.00234001
-0.00631593
-0.00809646
-0.00781446
-0.00584964
-0.00208367
0.026058
0.0178036
0.00991573
0.00288552
-0.00261713
-0.00630518
-0.00787668
-0.00752141
-0.00558236
-0.00199206
0.0245146
0.016734
0.00919755
0.00250529
-0.00268224
-0.00613902
-0.00756352
-0.00718643
-0.00530589
-0.00190937
0.023329
0.0159609
0.0087436
0.00234145
-0.00257032
-0.00584701
-0.00716578
-0.0068088
-0.00501601
-0.00182381
0.022535
0.0154854
0.00855194
0.00239133
-0.0022829
-0.00542347
-0.00670321
-0.00639235
-0.00470769
-0.00175749
0.0221241
0.0153043
0.00861977
0.00265721
-0.00184281
-0.00489075
-0.0061678
-0.00593394
-0.0043826
-0.00166333
0.0220836
0.0154083
0.00892215
0.00311372
-0.00125698
-0.00425694
-0.00556601
-0.00543597
-0.00403877
-0.00155747
0.0224002
0.0157624
0.00944324
0.00374235
-0.000543512
-0.00353404
-0.00490629
-0.0049022
-0.00367535
-0.00142742
0.0230144
0.0163451
0.0101541
0.0045173
0.00027617
-0.00273673
-0.00419821
-0.00433714
-0.00329443
-0.00127939
0.0238501
0.0171019
0.0110108
0.00540337
0.001177
-0.00188171
-0.00345232
-0.00374659
-0.00289911
-0.00111802
0.0248577
0.0179904
0.0119795
0.00637484
0.00213769
-0.000984129
-0.00267952
-0.00313751
-0.00249369
-0.00094827
0.0260094
0.0189887
0.0130384
0.00741526
0.00314147
-5.7001e-05
-0.00189029
-0.00251736
-0.00208321
-0.000776107
0.0272749
0.0200759
0.0141645
0.00850815
0.00417293
0.000887461
-0.0010942
-0.00189345
-0.0016722
-0.000605927
0.0286285
0.021237
0.0153373
0.00963904
0.00521891
0.00183831
-0.00029955
-0.00127253
-0.00126464
-0.000440821
0.030044
0.0224575
0.0165351
0.0107932
0.00626775
0.00278569
0.000486737
-0.000660229
-0.000863713
-0.000282748
0.0314772
0.0237131
0.0177344
0.0119553
0.00730995
0.00372165
0.00125954
-6.07604e-05
-0.000471707
-0.000132539
0.0329248
0.02503
0.0189569
0.0131387
0.00835407
0.00464825
0.00201832
0.000523988
-8.96702e-05
1.00528e-05
0.0345562
0.0265805
0.0203096
0.0144105
0.00944001
0.0055838
0.00277006
0.00109571
0.000283703
0.000145179
0.0359514
0.0281051
0.0215875
0.0156282
0.0104904
0.00648436
0.00349977
0.00165083
0.000650241
0.000269654
0.0356794
0.0295822
0.0232705
0.0176043
0.0125166
0.00837758
0.0051555
0.00294207
0.00150249
0.000538537
0.035277
0.0296608
0.0239089
0.0187557
0.014023
0.010065
0.00682259
0.00439449
0.0025368
0.000960763
0.0362515
0.0307423
0.0251281
0.0201336
0.0154801
0.011529
0.00817693
0.00554642
0.00337042
0.0013348
0.0374947
0.0319646
0.0264039
0.0214633
0.0168017
0.0127916
0.00931313
0.00651791
0.00410763
0.00170509
0.03919
0.0334442
0.0278002
0.0227884
0.0180363
0.0139169
0.0103069
0.00738435
0.00480481
0.00208841
0.0412927
0.0352063
0.0293537
0.0241447
0.0192409
0.0149753
0.0112372
0.0081985
0.00547122
0.00246427
0.0436702
0.0371745
0.0309929
0.0255052
0.0204345
0.0160105
0.0121457
0.0089606
0.00603743
0.00270863
0.0459689
0.038793
0.0324706
0.0268062
0.0215995
0.0170195
0.0130126
0.00959519
0.00635443
0.0026946
0.0478474
0.0408584
0.0341096
0.0280166
0.0225815
0.0178497
0.0136894
0.00998273
0.00636634
0.00245945
0.0493946
0.0413412
0.0344551
0.0284199
0.023056
0.0183223
0.0140825
0.0101796
0.00632571
0.0022912
0.0396434
0.0394072
0.0402449
0.0413762
0.0432038
0.0454701
0.0479837
0.0512405
0.0524199
0.0551891
0.0408127
0.0410384
0.0419953
0.0432283
0.0452233
0.0476321
0.0503033
0.0534862
0.0549478
0.0573034
0.0415556
0.0422274
0.0435001
0.045089
0.0474256
0.050126
0.0530769
0.0560414
0.057953
0.0594196
0.042451
0.0433533
0.044852
0.0467975
0.0494549
0.0524461
0.0556776
0.0586587
0.0608844
0.0619368
0.0434909
0.0446284
0.0462952
0.0485171
0.0514128
0.0546264
0.0580833
0.0612449
0.0636813
0.0647855
0.0445536
0.0460059
0.0478919
0.0503671
0.0534607
0.0568531
0.0604857
0.0638546
0.0664597
0.0677936
0.0456177
0.0474142
0.0495909
0.0523435
0.0556473
0.0592254
0.0630229
0.0665725
0.0693254
0.0708651
0.0467117
0.0488435
0.0513532
0.0544026
0.0579451
0.0617395
0.0657223
0.0694377
0.0723236
0.0739889
0.0478538
0.0503059
0.0531734
0.0565181
0.0603213
0.0643574
0.0685544
0.0724434
0.0754558
0.0771893
0.0490486
0.0518012
0.0550553
0.0586802
0.0627614
0.0670502
0.0714855
0.0755655
0.0787074
0.0804875
0.0502995
0.0533137
0.0569969
0.0608782
0.0652612
0.0698037
0.0744988
0.0787864
0.0820667
0.0838925
0.0516079
0.0548168
0.0589865
0.0630929
0.0678127
0.0726083
0.0775863
0.082096
0.0855277
0.0874043
0.052949
0.0562908
0.0609957
0.0653064
0.070398
0.0754649
0.0807485
0.0854946
0.0890948
0.0910281
0.0542773
0.0577289
0.0629807
0.0675086
0.0729908
0.0783772
0.0839783
0.0889818
0.0927723
0.0947793
0.0555377
0.0591325
0.0648928
0.0696988
0.0755625
0.0813696
0.0872822
0.092564
0.0965596
0.0986466
0.0566666
0.0605054
0.06666
0.0719199
0.0781269
0.0843495
0.0906126
0.096211
0.100438
0.102619
0.0576024
0.0618491
0.0683691
0.0740689
0.0806505
0.0872948
0.0939671
0.0999232
0.104411
0.106708
0.0582346
0.0632062
0.0699099
0.0760505
0.0830378
0.090134
0.0972733
0.103647
0.108449
0.110904
0.0586538
0.0644764
0.0713101
0.0779322
0.0853533
0.0929452
0.100585
0.107413
0.112571
0.115234
0.0586054
0.0652774
0.0722501
0.0793363
0.0871861
0.0953263
0.103568
0.111007
0.116679
0.119664
0.0605154
0.0691129
0.0764542
0.0844564
0.0931564
0.10236
0.111736
0.120359
0.127061
0.130744
0.0704984
0.0787463
0.086542
0.0959538
0.106184
0.117146
0.128332
0.138605
0.146572
0.150876
0.0810322
0.0898518
0.0987619
0.109801
0.121718
0.134666
0.147712
0.159546
0.168626
0.173546
0.0917683
0.101657
0.112271
0.125204
0.139132
0.154392
0.169355
0.18274
0.192832
0.198144
0.102743
0.114073
0.126695
0.141717
0.157948
0.175681
0.192549
0.207479
0.218454
0.224312
0.114348
0.127217
0.142027
0.159276
0.177996
0.198176
0.216886
0.233266
0.244793
0.250493
0.126055
0.140637
0.157573
0.177032
0.198219
0.220562
0.241029
0.258565
0.270235
0.276278
0.137631
0.153731
0.17266
0.194232
0.217727
0.241908
0.264247
0.282864
0.294143
0.298165
0.146304
0.163682
0.184116
0.207291
0.232502
0.258099
0.282186
0.30169
0.312612
0.317517
0.152481
0.170517
0.191997
0.216292
0.242681
0.269482
0.295465
0.317991
0.332178
0.32073
0.0577981
0.0670888
0.0764289
0.0864043
0.0964501
0.107456
0.118149
0.129265
0.137171
0.143244
0.0573978
0.0670171
0.0760311
0.0857103
0.0954027
0.106079
0.116301
0.127029
0.134253
0.1401
0.0576329
0.0677565
0.0767109
0.0862864
0.0957906
0.10615
0.115933
0.126041
0.132395
0.137747
0.0575809
0.067898
0.0767709
0.0863117
0.0956778
0.105799
0.115217
0.124827
0.130617
0.135502
0.0574199
0.0676937
0.076439
0.0858556
0.0950285
0.104886
0.113952
0.12318
0.128668
0.133223
0.0572634
0.0674409
0.0761349
0.0853683
0.094316
0.103866
0.112569
0.121442
0.126719
0.131044
0.0570883
0.0671834
0.0759354
0.0850038
0.0937672
0.103031
0.111396
0.11993
0.125003
0.129136
0.0568886
0.0669531
0.0757555
0.0847291
0.0933808
0.102418
0.110528
0.118748
0.123649
0.127589
0.0566862
0.0667646
0.0756036
0.0845151
0.0931183
0.101969
0.10995
0.117854
0.122683
0.126406
0.0565112
0.0666318
0.0755123
0.0843907
0.0929569
0.101688
0.109592
0.117232
0.122064
0.12555
0.0563927
0.0665671
0.075504
0.0843796
0.0929188
0.101581
0.109428
0.116889
0.121724
0.125029
0.0563203
0.0665527
0.0755718
0.0844783
0.0930157
0.101654
0.109466
0.116822
0.121649
0.124839
0.0562556
0.0665538
0.0756954
0.0846697
0.0932436
0.101906
0.109719
0.11703
0.121851
0.124973
0.056179
0.0665626
0.0758672
0.0849432
0.0935965
0.102332
0.110187
0.117504
0.122333
0.125418
0.0560757
0.0665846
0.0760842
0.0852945
0.0940739
0.102929
0.110872
0.118246
0.1231
0.126165
0.0559118
0.0666127
0.0763283
0.0857077
0.0946599
0.103676
0.111756
0.119232
0.124131
0.127207
0.0556506
0.0666449
0.0765873
0.0861775
0.0953546
0.10458
0.112854
0.120469
0.125438
0.128539
0.0551981
0.0666176
0.0767943
0.0866395
0.0960873
0.105565
0.114094
0.121895
0.126974
0.130158
0.0546246
0.0666159
0.0770181
0.0871563
0.0969238
0.106697
0.115537
0.123554
0.128778
0.132068
0.0533802
0.0661441
0.0768423
0.0873193
0.0974482
0.107575
0.11684
0.125211
0.130717
0.134262
0.0540336
0.0675405
0.0786337
0.0897204
0.100614
0.11139
0.121474
0.13041
0.136548
0.140363
0.0643469
0.0766795
0.0873062
0.0990403
0.110874
0.122851
0.134317
0.144428
0.151449
0.155393
0.0751721
0.0875799
0.0987971
0.111724
0.124813
0.138488
0.151698
0.163372
0.171464
0.175687
0.0855022
0.0986312
0.111363
0.126135
0.141215
0.157448
0.1731
0.1871
0.196972
0.201917
0.0953458
0.109696
0.124519
0.141518
0.159264
0.178826
0.197738
0.21523
0.228096
0.234658
0.104975
0.120867
0.138189
0.157679
0.178761
0.202246
0.225347
0.247826
0.265728
0.276247
0.113885
0.131686
0.151376
0.173624
0.198506
0.226098
0.254474
0.283858
0.309848
0.32917
0.122386
0.141882
0.163917
0.189113
0.217771
0.249707
0.284762
0.323206
0.361996
0.399964
0.127206
0.148116
0.171989
0.199429
0.231312
0.267933
0.310668
0.360636
0.420354
0.491629
0.130727
0.153887
0.179512
0.209203
0.244443
0.286272
0.337364
0.402025
0.491595
0.609555
0.0497727
0.0591907
0.0683672
0.0776679
0.0865977
0.0958536
0.103301
0.111487
0.115721
0.117353
0.0486724
0.0580819
0.0669941
0.0758733
0.0843394
0.0932561
0.100072
0.108058
0.111768
0.113934
0.048268
0.0578275
0.0666868
0.0753528
0.0834138
0.0918099
0.098067
0.105574
0.108647
0.112233
0.0477589
0.0571188
0.0657061
0.0742684
0.0819522
0.0898637
0.0956661
0.10266
0.10524
0.109596
0.0472652
0.0561208
0.0642862
0.0725158
0.0798551
0.0872735
0.092652
0.099158
0.10133
0.105666
0.0468705
0.0550886
0.0628064
0.0705188
0.0775385
0.0844286
0.0893903
0.0953966
0.097197
0.101082
0.0465592
0.0540647
0.0613295
0.0685431
0.0751432
0.081589
0.0861906
0.0916712
0.0931637
0.0965214
0.046314
0.0530427
0.0598145
0.0665775
0.0727528
0.0787235
0.0831334
0.0880811
0.0894032
0.0923118
0.0461187
0.0520373
0.0582516
0.0645666
0.070354
0.0758869
0.080103
0.0845901
0.0859399
0.0884629
0.0459424
0.0510705
0.0566573
0.0625014
0.0679252
0.0730913
0.0770631
0.0812021
0.0826682
0.0848418
0.0336334
0.0355771
0.0363661
0.036902
0.0371506
0.0371215
0.0368459
0.0363392
0.0356193
0.0346275
0.0331043
0.035184
0.0359274
0.036346
0.0364164
0.0361602
0.0356232
0.0348334
0.0338337
0.0326563
0.0326946
0.0348437
0.0355242
0.0358169
0.035711
0.0352426
0.0344756
0.0334579
0.0322603
0.0309341
0.0324512
0.0345941
0.0352003
0.0353672
0.035097
0.0344415
0.0334815
0.0322817
0.030929
0.0294582
0.0324219
0.0344791
0.0350053
0.0350529
0.0346363
0.0338224
0.0327058
0.0313638
0.0298886
0.0282926
0.0326509
0.0345441
0.0349887
0.0349258
0.034381
0.0334356
0.0321943
0.0307421
0.0291699
0.0274728
0.0331747
0.0348312
0.0351931
0.0350266
0.0343683
0.0333126
0.0319711
0.0304335
0.0287846
0.0270116
0.0340188
0.0353744
0.035649
0.0353803
0.0346168
0.033465
0.0320408
0.0304356
0.0287276
0.0269045
0.0351912
0.0361933
0.0363694
0.0359934
0.0351264
0.0338863
0.0323906
0.0307311
0.0289775
0.0271129
0.0366623
0.0372805
0.0373461
0.0368531
0.0358787
0.0345536
0.0329941
0.03129
0.0295032
0.0276164
0.0383567
0.0385994
0.0385507
0.0379286
0.0368438
0.0354337
0.0338146
0.0320731
0.0302649
0.0283716
0.0403243
0.0401544
0.0399549
0.0391841
0.0379793
0.0364834
0.0348082
0.033036
0.0312177
0.0293285
0.042483
0.0418809
0.0415037
0.0405681
0.0392374
0.0376562
0.0359292
0.0341331
0.0323156
0.0304402
0.0447479
0.0437103
0.0431354
0.0420239
0.0405652
0.0389023
0.0371297
0.0353177
0.0335123
0.0316626
0.0470344
0.04557
0.0447842
0.0434925
0.0419092
0.0401718
0.0383623
0.0365442
0.034764
0.0329553
0.0492537
0.0473831
0.0463833
0.0449161
0.0432179
0.0414173
0.0395825
0.03777
0.0360294
0.0342806
0.0513165
0.0490736
0.0478694
0.0462417
0.0444449
0.0425969
0.0407513
0.0389568
0.0372689
0.0355959
0.0531389
0.0505711
0.0491861
0.0474236
0.0455516
0.0436763
0.041837
0.0400718
0.0384405
0.0368525
0.0546464
0.0518139
0.0502858
0.0484258
0.0465094
0.0446313
0.0428158
0.0410821
0.0394927
0.0380114
0.0557767
0.0527518
0.0511319
0.049223
0.047303
0.0454547
0.0436856
0.0419825
0.0404169
0.0390913
0.0564832
0.0533474
0.0516965
0.0497973
0.0479264
0.0461616
0.0445085
0.04294
0.0415372
0.0406492
0.0567332
0.0535734
0.0519583
0.0501295
0.0483569
0.0467116
0.0451966
0.0437765
0.0425032
0.0416865
0.0565088
0.0534187
0.0519077
0.0502084
0.0485789
0.0470838
0.0457239
0.0444635
0.0433251
0.0425308
0.055817
0.0528886
0.0515481
0.0500349
0.0485926
0.0472813
0.0461025
0.0450248
0.0440549
0.0433555
0.0546858
0.0520044
0.0508957
0.0496226
0.0484103
0.0473173
0.0463482
0.0454769
0.0447005
0.0441468
0.0531614
0.0508011
0.0499787
0.048995
0.0480531
0.0472114
0.0464792
0.0458364
0.0452738
0.0448908
0.0513046
0.0493251
0.048834
0.048183
0.0475478
0.0469874
0.0465167
0.0461231
0.0457939
0.0456028
0.0491853
0.04763
0.0475042
0.0472214
0.0469239
0.0466705
0.0464827
0.0463559
0.0462782
0.0463015
0.0468793
0.0457725
0.0460343
0.0461459
0.0462106
0.0462851
0.0463972
0.0465514
0.0467397
0.046998
0.0444787
0.0438147
0.0444701
0.0449917
0.0454354
0.0458527
0.0462773
0.0467228
0.0471877
0.047698
0.0421045
0.0418335
0.0428637
0.0437953
0.0446253
0.0453935
0.0461381
0.0468807
0.0476279
0.0484031
0.0397096
0.0398373
0.0412376
0.0425779
0.0437968
0.0449195
0.0459871
0.0470287
0.0480589
0.0491074
0.0373709
0.0378772
0.0396275
0.0413638
0.0429663
0.0444409
0.0458296
0.0471669
0.048474
0.049795
0.0351512
0.0359972
0.0380649
0.0401732
0.0421458
0.0439636
0.0456661
0.0472911
0.0488616
0.0504424
0.0330807
0.0342344
0.0365726
0.0390215
0.0413432
0.0434897
0.0454941
0.0473943
0.049209
0.0510234
0.0311976
0.0326202
0.0351533
0.0379205
0.0405632
0.0430188
0.0453092
0.0474701
0.049507
0.0515119
0.0295177
0.0311577
0.033851
0.0368696
0.0398076
0.0425495
0.0451071
0.0475146
0.0497578
0.0518921
0.028051
0.0298586
0.0326635
0.0358873
0.0390783
0.0420795
0.0448832
0.047524
0.0499742
0.0521726
0.0268022
0.0287323
0.0315963
0.0349737
0.0383754
0.0416063
0.0446372
0.0474999
0.0501611
0.052483
0.0257711
0.0277822
0.0306548
0.0341301
0.0376963
0.0411228
0.0443554
0.0474236
0.0503223
0.0529061
0.0249492
0.0270056
0.02984
0.0333569
0.0370381
0.0406234
0.0440353
0.0473085
0.050574
0.0538187
0.0243022
0.0263879
0.0291488
0.0326544
0.0363959
0.0400869
0.0436171
0.0469804
0.0502815
0.0535079
0.0238415
0.0259319
0.0285839
0.0320263
0.0357722
0.0395131
0.043106
0.0465073
0.0497803
0.0529194
0.0235609
0.0256319
0.0281454
0.0314791
0.0351801
0.0389277
0.0425539
0.0459948
0.0492897
0.0524082
0.0234451
0.0254768
0.0278314
0.0310194
0.0346344
0.0383544
0.0419931
0.0454695
0.0488033
0.0519395
0.0234779
0.0254548
0.027638
0.030652
0.034146
0.0378077
0.0414368
0.0449338
0.0482986
0.0514668
0.0236428
0.025553
0.0275595
0.0303791
0.0337229
0.037298
0.0408955
0.0443978
0.0477832
0.0509856
0.0239232
0.0257575
0.0275877
0.0302004
0.0333709
0.0368343
0.0403799
0.0438736
0.0472712
0.050506
0.0243027
0.0260531
0.0277127
0.030113
0.0330934
0.036424
0.0398991
0.043371
0.0467737
0.0500395
0.024774
0.026431
0.0279263
0.0301131
0.0328915
0.0360715
0.0394586
0.0428963
0.0462974
0.049595
0.0253436
0.0268967
0.0282328
0.0302065
0.0327727
0.0357852
0.0390665
0.0424559
0.0458475
0.0491773
0.0259456
0.0274
0.0285947
0.030368
0.0327239
0.0355599
0.0387216
0.0420499
0.0454223
0.048779
0.0265821
0.0279402
0.0290072
0.030593
0.0327422
0.0353948
0.0384235
0.0416763
0.0450163
0.0483863
0.0272503
0.0285123
0.0294634
0.0308744
0.0328224
0.0352869
0.0381698
0.0413315
0.0446231
0.0479886
0.0279421
0.0291076
0.0299539
0.0312038
0.032959
0.0352335
0.0379594
0.0410135
0.0442381
0.0475762
0.0286505
0.0297186
0.0304702
0.0315734
0.0331463
0.0352318
0.0377917
0.0407221
0.0438575
0.0471366
0.0293701
0.0303396
0.0310059
0.0319768
0.0333796
0.0352802
0.0376676
0.0404595
0.0434818
0.0466607
0.0300965
0.0309661
0.0315557
0.0324086
0.033655
0.0353773
0.0375889
0.0402314
0.0431195
0.046145
0.0308262
0.0315948
0.0321157
0.0328646
0.0339695
0.0355228
0.0375591
0.0400488
0.0428008
0.0456312
0.0315575
0.032223
0.0326829
0.0333418
0.0343206
0.035716
0.0375776
0.039908
0.0425494
0.04519
0.0322849
0.0328476
0.0332541
0.0338363
0.0347049
0.0359566
0.0376507
0.0398292
0.0425097
0.0453952
0.0330052
0.0334641
0.0338256
0.0343456
0.0351204
0.0362396
0.0377611
0.0397214
0.0421645
0.0448655
0.033714
0.0340707
0.0343964
0.0348686
0.035566
0.0365654
0.0379185
0.0396533
0.0418104
0.0442498
0.0344043
0.0346632
0.034963
0.0354026
0.0360416
0.036941
0.0381459
0.0396849
0.0415986
0.0437806
0.0350666
0.035235
0.0355202
0.0359433
0.0365443
0.0373675
0.038449
0.0398178
0.0415137
0.0434532
0.0356883
0.0357782
0.0360608
0.0364837
0.0370675
0.0378387
0.038822
0.0400427
0.0415367
0.0432487
0.0362553
0.0362828
0.0365754
0.0370141
0.0376003
0.0383429
0.0392539
0.0403507
0.0416621
0.0431604
0.0367512
0.0367372
0.0370523
0.0375215
0.038128
0.0388636
0.0397271
0.0407259
0.041878
0.0431786
0.0371586
0.0371287
0.0374782
0.0379902
0.0386313
0.0393783
0.0402168
0.041143
0.0421617
0.0432829
0.0374615
0.0374458
0.0378399
0.0384035
0.0390889
0.0398605
0.0406918
0.0415679
0.04248
0.0434414
)
;

boundaryField
{
    inlet
    {
        type            zeroGradient;
    }
    outlet
    {
        type            fixedValue;
        value           uniform 0;
    }
    cylinder
    {
        type            zeroGradient;
    }
    top
    {
        type            symmetryPlane;
    }
    bottom
    {
        type            symmetryPlane;
    }
    defaultFaces
    {
        type            empty;
    }
}


// ************************************************************************* //
