# Probe 0 (1 0 0.5)
# Probe 1 (2 0 0.5)
# Probe 2 (3 0 0.5)
# Probe 3 (1 0.5 0.5)
# Probe 4 (2 0.5 0.5)
# Probe 5 (3 0.5 0.5)
# Probe 6 (1 -0.5 0.5)
# Probe 7 (2 -0.5 0.5)
# Probe 8 (3 -0.5 0.5)
# Probe 9 (1 -1.5 0.5)
# Probe 10 (2 -1.5 0.5)
# Probe 11 (3 -1.5 0.5)
# Probe 12 (1 1.5 0.5)
# Probe 13 (2 1.5 0.5)
# Probe 14 (3 1.5 0.5)
#       Probe             0             1             2             3             4             5             6             7             8             9            10            11            12            13            14
#        Time
         0.03      -105.002      -92.7807      -82.2826      -95.9518      -84.8262      -76.8716      -111.349      -97.6203      -88.0958      -120.374      -106.552       -95.943       -77.174      -71.0922      -64.1781
         0.06       25.4956       27.4048       26.9778       23.5069       25.8952        25.542       27.6775       28.8081        28.208       30.6886       29.8034       29.1828       20.4895       22.2294       21.6921
         0.09      -35.1336      -36.9276      -37.4979      -32.2434      -34.6149      -35.1633      -37.9987      -39.7848      -40.0681      -42.2765      -44.1432      -44.5339       -26.793      -29.8538      -30.2075
         0.12       34.7876       36.4663       37.0724       31.7477       33.8684       34.4242       37.7105       39.4012        39.762       42.0416       43.8134       44.2627       26.0459       28.5959        29.078
         0.15      -29.9398       -31.045      -29.7915      -27.3034      -28.8148      -27.8527      -32.5571      -33.4284       -32.013      -36.4918      -37.3695      -35.5891      -22.5015      -24.6293      -23.6672
         0.18       30.2361       31.5347       31.5335       27.4178       29.1087       29.1808       32.9545       34.1787        33.961        36.973       38.2179       37.9933       22.2797       24.4125       24.3062
         0.21      -22.8313      -23.4442      -22.0535      -20.6908      -21.5626      -20.4448      -24.9829      -25.3819       -23.976      -28.3654      -28.7932      -27.1846      -16.8718      -18.2483      -17.1028
         0.24       24.8228       25.8595        25.828       22.4851       23.8718       23.9459       27.0711       28.0107       27.7506       30.3946       31.3169       30.9385       18.2606       20.0188       19.9955
         0.27      -16.4588      -16.7571      -15.4168      -14.8852      -15.3319      -14.2435      -18.0745      -18.1827      -16.8603      -20.7069      -20.8061      -19.2932      -12.0792      -12.9521      -11.8129
          0.3       18.0114       18.7943       18.8112       16.3522       17.4212       17.5586       19.5834       20.2562        20.039       21.8771       22.4494       22.0052       13.3723       14.7065       14.8375
         0.33      -8.34626      -8.41807      -7.24405      -7.53717      -7.66404      -6.70325      -9.27093      -9.13668      -7.98248      -10.7971      -10.5638       -9.1614      -6.20033      -6.55482      -5.53371
         0.36       12.2143       12.8989       13.3243       11.1498       12.0615       12.5015       13.2034       13.8218       14.0601       14.5239       15.0521       15.1998       9.19791       10.2398       10.7175
         0.39      -2.76521      -2.66793      -1.78573      -2.51775      -2.40533      -1.67094      -3.09071      -2.86596      -2.02075      -3.67855       -3.3569      -2.32123      -2.12331      -2.15767      -1.33432
         0.42       10.2935       10.9754       11.6653       9.42607       10.2984       10.9165       11.0855       11.7877       12.3346       12.1475        12.837       13.4498        7.7686       8.72196       9.37425
         0.45      -1.88468        -1.764      -1.10191      -1.71006      -1.56913      -1.00886      -2.10607        -1.907        -1.297      -2.54575      -2.28288      -1.57907      -1.41704      -1.38486     -0.737157
         0.48       9.98879       10.6297       11.2161       9.13879       9.96071       10.4842       10.7725       11.4304       11.8856       11.8359       12.5066        13.008       7.52475        8.4423       8.98705
         0.51      -1.80459      -1.73408      -1.25191      -1.64845      -1.55378      -1.14349      -2.00746      -1.88226      -1.44297      -2.40588      -2.21665       -1.7325      -1.34696      -1.33723     -0.861788
         0.54        9.2296       9.80093       10.2468       8.45148         9.189       9.59139       9.94387       10.5189       10.8525       10.9121       11.5028       11.8614       6.97943       7.82575       8.23725
         0.57      -2.13652      -2.10767      -1.74887      -1.92843      -1.89486      -1.58884      -2.37389      -2.31048      -1.98432      -2.80935      -2.71209      -2.37634      -1.54895       -1.5794      -1.23374
          0.6       8.99297        9.5086       9.85263       8.22787       8.90211       9.21659       9.70472       10.2087       10.4539       10.6834       11.2074       11.4683       6.79679       7.58726       7.89943
         0.63      -2.20877      -2.22297      -1.91895      -1.99857      -2.00696        -1.754      -2.45721         -2.44      -2.15288      -2.89642      -2.84227      -2.52818      -1.59904       -1.6707      -1.39066
         0.66       8.04201       8.49482       8.76194       7.36593       7.96179       8.20958       8.66602       9.10084       9.28523       9.51871       9.96366       10.1522       6.10886       6.81061       7.05169
         0.69       -2.0195      -2.03461      -1.76617      -1.81894       -1.8332      -1.60973      -2.24173      -2.23688      -1.98303      -2.64237      -2.61397      -2.33651      -1.43895       -1.5122      -1.27737
         0.72       7.90149       8.33028       8.59721       7.23241       7.79665       8.03874       8.52607         8.942       9.13466       9.39676       9.83164       10.0445       5.98763       6.65209       6.87964
         0.75      -2.27692      -2.32455      -2.08757      -2.05473      -2.10423       -1.9097      -2.52673      -2.55271        -2.324      -2.95893      -2.96684      -2.71042      -1.62605       -1.7419      -1.53192
         0.78       7.26591       7.65219       7.85534       6.65453       7.16521       7.35466       7.83476        8.2007       8.33728       8.61961         8.997       9.13721        5.5241        6.1268       6.30357
         0.81      -2.06797      -2.11034      -1.88524      -1.86008      -1.90793      -1.72446      -2.29456      -2.31835      -2.10143       -2.6888       -2.6993      -2.45542      -1.46587      -1.57615      -1.38559
         0.84       7.20795       7.58398       7.80389       6.59927       7.09458       7.29544       7.77946       8.14155       8.29832        8.5815       8.96244       9.13698       5.46736       6.05185       6.23672
         0.87      -2.56512      -2.62934      -2.43277      -2.30503      -2.38846      -2.23082      -2.82997      -2.87913      -2.68982      -3.27144      -3.32447      -3.11813      -1.81809      -1.97361      -1.80609
          0.9       6.70066       7.03856       7.18043        6.1378       6.58603       6.72466       7.22956       7.54155       7.62432       7.96268       8.28655       8.36265       5.09794       5.63246       5.76074
         0.93      -2.03219      -2.09014      -1.88631      -1.82453      -1.89161      -1.72942      -2.26072      -2.29415       -2.0924      -2.64292      -2.66654      -2.42899      -1.43968      -1.56641       -1.3937
         0.96       6.54072       6.87446       7.06276       5.99199       6.43123       6.60424        7.0595       7.37758       7.51036       7.78752       8.12378       8.26944       4.96823       5.48752       5.64672
         0.99       -2.7437      -2.82283      -2.67608       -2.4627      -2.57096       -2.4527      -3.02339      -3.09247      -2.93996      -3.48522      -3.57153      -3.41064      -1.94504      -2.12707      -1.99239
         1.02       6.31052       6.61192       6.71221       5.77854       6.18007         6.282       6.81442       7.08878       7.13376       7.52425       7.81258       7.84364       4.79579       5.28203       5.37636
         1.05       -2.0599      -2.12352      -1.93914      -1.84433      -1.92321      -1.77517       -2.2976       -2.3319      -2.14181       -2.6809      -2.71193      -2.47303      -1.45834      -1.59555      -1.43383
         1.08       5.80499       6.09644       6.24145       5.32289       5.70762       5.84355        6.2627       6.53329       6.63343        6.9056       7.18691       7.27952       4.42346       4.88009        5.0118
         1.11      -2.44643      -2.51791      -2.39664      -2.19336      -2.29325      -2.19296      -2.69868      -2.75785      -2.63564       -3.1153      -3.19923      -3.04064      -1.72924      -1.89909      -1.77971
         1.14       5.91164       6.19191       6.29729        5.4136       5.78538       5.88676       6.38777       6.64434       6.70719       7.06809       7.34406       7.39472        4.4883       4.93731       5.03267
         1.17      -2.21171      -2.28221      -2.12625      -1.97872      -2.07295       -1.9461      -2.45768      -2.50598      -2.34342      -2.85254      -2.90371      -2.69923      -1.56582      -1.71945      -1.57627
          1.2       5.38524       5.64791       5.75022       4.93886       5.28606       5.38659       5.81263       6.04876       6.10872       6.40809       6.65375        6.7012        4.1072       4.52362       4.62406
         1.23      -2.29696      -2.36974       -2.2516      -2.05746      -2.15651      -2.06022      -2.53112      -2.60049      -2.47492      -2.91474      -2.99099      -2.84661      -1.62158      -1.78372      -1.67322
         1.26       5.51874       5.78045       5.87735       5.05617       5.40104       5.49428       5.96352       6.20567       6.26006       6.59348       6.84914       6.90663       4.19249       4.60838       4.69891
         1.29      -2.35257       -2.4322      -2.29999      -2.10729      -2.21021       -2.1045      -2.59918      -2.66738      -2.52794      -2.99304      -3.06882      -2.90617      -1.66481       -1.8294      -1.70839
         1.32       4.98865       5.22415       5.28216       4.57581       4.88724       4.95167        5.3855       5.59227       5.61033       5.93909       6.15123       6.15098       3.80862       4.18675       4.25454
         1.35      -2.07663       -2.1409      -2.01986       -1.8558      -1.94314      -1.84686      -2.29048      -2.34913       -2.2223      -2.64237      -2.70813         -2.56      -1.45769      -1.60339      -1.49682
         1.38       5.02567       5.26623        5.3553       4.60786       4.92159       5.00831       5.43049       5.65079       5.70181       6.00283       6.23558       6.28768       3.82438       4.20387       4.28851
         1.41      -2.31351      -2.38693      -2.27341      -2.07041      -2.16964       -2.0799      -2.54827      -2.61663      -2.49831      -2.92503      -3.00943      -2.87422      -1.62782      -1.79061      -1.68805
         1.44       4.66825       4.88508       4.92526        4.2818       4.56909       4.61671       5.04005       5.23051       5.23352       5.56369       5.75684       5.74174       3.56432       3.91359       3.96521
         1.47      -1.85654      -1.92183      -1.80361      -1.65887       -1.7423      -1.64911      -2.05844      -2.11172      -1.98771      -2.38431      -2.44216      -2.29005       -1.3061      -1.43942      -1.33605
          1.5       4.60379       4.82633       4.91081       4.22369       4.51314       4.59493       4.97225       5.17599       5.22575       5.49455       5.70631       5.75752       3.50994       3.85798        3.9388
         1.53      -2.26613      -2.33866      -2.24749      -2.02678      -2.12701      -2.05512      -2.49425      -2.56566      -2.46896      -2.85877      -2.95166      -2.84417      -1.59258       -1.7544      -1.66832
         1.56       4.46087       4.66499       4.69174       4.08991       4.35831       4.39574       4.81801       4.99737        4.9907       5.32851       5.50997       5.48589       3.40278       3.73171       3.77167
         1.59      -1.78425      -1.84204      -1.72565      -1.58901      -1.66863      -1.57644      -1.98083       -2.0255      -1.90208      -2.28928      -2.34343      -2.19018      -1.25014       -1.3768      -1.27521
         1.62       4.18455       4.38737       4.45279       3.84172       4.10536       4.17224       4.51648       4.69893       4.73239       4.98776       5.17139       5.20032        3.1998       3.51612        3.5848
         1.65      -2.03315      -2.09561      -2.01511      -1.81574      -1.90413      -1.84045      -2.23898      -2.30222      -2.21529      -2.56533      -2.65136      -2.55437      -1.42233      -1.56876      -1.49105
         1.68        4.2179       4.41421       4.44818         3.868       4.12343       4.16381       4.55869       4.73197       4.73514       5.04758        5.2236       5.21575       3.21619       3.52659       3.56965
         1.71      -1.77729      -1.83289      -1.72801      -1.58259      -1.66115      -1.57722      -1.97078      -2.01611      -1.90396      -2.27317       -2.3332      -2.19428      -1.24356       -1.3692      -1.27464
         1.74       3.90002       4.08798       4.13394       3.58133       3.82545       3.87656       4.20919       4.37519        4.3911       4.65004       4.81267       4.81824       2.98726       3.28004       3.33465
         1.77      -1.85173      -1.90619      -1.83016      -1.65243      -1.73033      -1.67102      -2.04044      -2.09565      -2.01303       -2.3374      -2.41568      -2.32118      -1.29165      -1.42532      -1.35245
          1.8       3.97736       4.16518       4.20282       3.64835       3.89146       3.93373       4.29832        4.4653       4.47455        4.7619       4.93022       4.93226       3.03579        3.3286       3.37302
         1.83      -1.80064       -1.8533      -1.76015      -1.60509      -1.67892      -1.60626      -1.98853        -2.037      -1.93806      -2.28212      -2.35038       -2.2321      -1.25381      -1.38099      -1.29769
         1.86       3.64561        3.8185        3.8416       3.34733       3.57286       3.60531       3.93382       4.08366       4.07936       4.34937       4.49192       4.47182       2.79584       3.06623       3.10452
         1.89      -1.63722      -1.68106      -1.60252      -1.45764      -1.52236       -1.4613      -1.80666      -1.85033      -1.76513      -2.07145      -2.13692      -2.03704      -1.13302       -1.2505      -1.17835
         1.92       3.69539       3.87304       3.91505       3.39079       3.62054       3.66575       3.99109       4.15046       4.16695       4.42249       4.57992       4.59199       2.82469       3.09794       3.14592
         1.95      -1.80101      -1.85295      -1.77984      -1.60703      -1.68032       -1.6236      -1.98566      -2.03802      -1.95785      -2.27094      -2.34901      -2.25717      -1.25246      -1.38156      -1.31145
         1.98       3.47591       3.63897       3.64739       3.19001       3.40311       3.42271       3.75155       3.89185       3.87527       4.15442       4.28559       4.25123       2.66549       2.92003       2.94623
         2.01      -1.49815      -1.53657       -1.4564      -1.33188      -1.38875      -1.32674      -1.65619      -1.69268      -1.60526      -1.90009      -1.95733       -1.8524      -1.03248      -1.13925        -1.067
         2.04       3.41933       3.58591       3.62381       3.13829       3.35423        3.3959       3.69052       3.83952       3.85439       4.09007       4.23283       4.24301       2.61915       2.87252       2.91872
         2.07      -1.71852      -1.76696      -1.70497      -1.53336      -1.60171      -1.55339      -1.89575      -1.94547      -1.87674      -2.16553      -2.24515      -2.16847      -1.19099       -1.3145      -1.25246
          2.1       3.34028       3.49673       3.50228       3.06374       3.26851       3.28469        3.6062       3.74179       3.72427       4.00113       4.12658       4.09276       2.55896       2.80191        2.8247
         2.13      -1.43714      -1.47414      -1.39533      -1.27821       -1.3314      -1.27032      -1.59199      -1.62492      -1.53883      -1.82573      -1.88059      -1.77589     -0.989751      -1.09168      -1.02097
         2.16       3.18846       3.34474        3.3744       2.92697       3.13015       3.16499       3.43959       3.57843       3.58616       3.81309       3.94108       3.94092       2.44738       2.68403       2.72434
         2.19      -1.58913      -1.63169      -1.57611       -1.4176      -1.47802      -1.43454      -1.75461      -1.79826      -1.73591      -2.00099      -2.07676      -2.00694      -1.09767      -1.21202      -1.15486
         2.22       3.19323       3.34439       3.35258       2.92798       3.12572       3.14297       3.44731       3.58003         3.567       3.83033       3.95167       3.92546       2.44602       2.67794       2.70149
         2.25      -1.41245      -1.44602      -1.37159      -1.25725      -1.30523      -1.24836      -1.56481      -1.59423      -1.51331      -1.78953       -1.8456      -1.74773     -0.969977      -1.06926      -1.00225
         2.28       3.00339       3.15065       3.16986       2.75668       2.94899       2.97523       3.23876       3.36863       3.36701       3.59348       3.70842       3.69545       2.30831       2.53073       2.56372
         2.31      -1.44791      -1.48359      -1.42939      -1.29087      -1.34219      -1.30007      -1.60073      -1.63654      -1.57578      -1.82312      -1.89171       -1.8223     -0.995742       -1.0995       -1.0445
         2.34       3.02515       3.17133       3.18393       2.77402       2.96471       2.98455       3.26523       3.39481       3.38734       3.63092        3.7472        3.7292        2.3189       2.53995         2.566
         2.37      -1.37755      -1.40877      -1.34288      -1.22699      -1.27182      -1.22128      -1.52601      -1.55408      -1.48171      -1.73977      -1.79883      -1.71247     -0.944363      -1.04114     -0.979513
          2.4       2.84253       2.98191       2.99212       2.60836       2.79105       2.80962        3.0644       3.18701        3.1776       3.40431       3.50871       3.48568       2.18661       2.39629        2.4225
         2.43       -1.3155      -1.34493      -1.29021       -1.1714      -1.21458      -1.17239      -1.45665      -1.48509      -1.42418      -1.65842      -1.71959      -1.64854     -0.899771     -0.993159     -0.939215
         2.46       2.87385       3.01521       3.03222       2.63514       2.81993        2.8427       3.09975       3.22732       3.22575       3.45018       3.56187       3.55199        2.2047        2.4158       2.44477
         2.49      -1.37569      -1.40685      -1.35206      -1.22688      -1.27136      -1.22911      -1.52288      -1.55236      -1.49077      -1.73041      -1.79506      -1.72355      -0.94347      -1.04067     -0.985914
         2.52       2.73383       2.86744       2.86892       2.50745       2.68308       2.69409       2.94689       3.06463       3.04755       3.27942       3.37643       3.34398       2.10306       2.30358       2.32276
         2.55      -1.22292      -1.24774      -1.19162      -1.08838      -1.12494      -1.08187      -1.35669      -1.37856      -1.31641      -1.54259      -1.59769      -1.52357     -0.833047     -0.918767     -0.864674
         2.58       2.72366       2.85986       2.87753       2.49759       2.67574       2.69868       2.93618       3.06001       3.06013        3.2711         3.376       3.36837       2.09202       2.29321       2.32282
         2.61      -1.35733      -1.38796      -1.34172      -1.21133      -1.25461      -1.21879      -1.50319      -1.53234      -1.47961      -1.70395      -1.77209      -1.71272      -0.93069      -1.02629     -0.977013
         2.64       2.66199       2.79198       2.78954       2.44009       2.61119       2.61841       2.86962       2.98538       2.96531       3.20014       3.29355        3.2582       2.04583       2.24019       2.25566
         2.67      -1.18382      -1.20679      -1.14989      -1.05388      -1.08719      -1.04388      -1.31577      -1.33337       -1.2706      -1.49306      -1.54559      -1.46987     -0.805872     -0.887982     -0.834055
          2.7        2.5935       2.72442       2.73833       2.37827       2.54984        2.5695       2.79391       2.91355       2.91091       3.11598       3.21317       3.20136       1.99429       2.18638        2.2136
         2.73       -1.3063      -1.33436      -1.29235      -1.16595      -1.20578       -1.1731      -1.44821      -1.47388      -1.42555      -1.63756      -1.70496      -1.65121     -0.894591     -0.985826     -0.939573
         2.76       2.59552       2.72314        2.7215        2.3782       2.54596       2.55316       2.79789       2.91335       2.89494       3.12632       3.21802       3.18586       1.99291       2.18229       2.19759
         2.79      -1.18796      -1.20866      -1.15391      -1.05812      -1.08918      -1.04722      -1.32059      -1.33517      -1.27431      -1.49313      -1.54677      -1.47343     -0.808999      -0.88983     -0.837254
         2.82       2.49851       2.62497       2.63298       2.29092       2.45674       2.47156       2.69062       2.80652       2.79837       3.00535       3.09541       3.07583       1.92213       2.10719       2.13018
         2.85      -1.24079      -1.26509       -1.2232      -1.10709      -1.14251      -1.11002      -1.37728      -1.39766      -1.34977      -1.55337      -1.61687      -1.56274     -0.848275     -0.933986     -0.888534
         2.88       2.50981       2.63502       2.63575       2.29971       2.46373       2.47231        2.7046       2.81959       2.80423       3.02657       3.11575         3.088       1.92712       2.11106       2.12764
         2.91      -1.17879      -1.19855      -1.14734      -1.05013      -1.08033      -1.04112      -1.31089       -1.3241      -1.26688      -1.47837      -1.53345      -1.46553     -0.803208      -0.88277      -0.83249
         2.94       2.41825       2.54129       2.54529       2.21718       2.37798        2.3894       2.60403       2.71733       2.70528       2.91376       2.99846       2.97362       1.86037       2.03962       2.05938
         2.97      -1.18644      -1.20669      -1.16436      -1.05764      -1.08909      -1.05635      -1.31813      -1.33335      -1.28495      -1.48268       -1.5424      -1.48714     -0.809752     -0.890411     -0.845259
            3       2.43803       2.56158       2.56483       2.23428       2.39521       2.40536       2.62644       2.74159       2.72922       2.94351       3.03074       3.00713       1.87182       2.05152       2.06956
         3.03      -1.19001      -1.20925      -1.16286      -1.06034      -1.09101      -1.05534      -1.32268      -1.33549      -1.28316      -1.48705      -1.54502      -1.48392     -0.812327     -0.892079     -0.844653
         3.06       2.36248       2.48296       2.48222       2.16598       2.32266          2.33       2.54378       2.65547       2.63899       2.85189       2.93256       2.90199       1.81672       1.99164       2.00767
         3.09      -1.14722      -1.16441      -1.12067      -1.02177      -1.05024      -1.01664      -1.27594      -1.28647      -1.23682      -1.43184      -1.48809      -1.43038     -0.782201     -0.858765     -0.813228
         3.12       2.36896       2.49085       2.49552       2.17171       2.32932       2.34034       2.55121       2.66618       2.65554       2.86345       2.94803       2.92653       1.81901       1.99474       2.01371
         3.15       -1.2055      -1.22525      -1.18389      -1.07423      -1.10644      -1.07459      -1.33967      -1.35264      -1.30554      -1.50176      -1.56311      -1.50946     -0.824821     -0.905266     -0.860964
         3.18       2.32943       2.44852       2.44435       2.13569       2.28938        2.2936       2.50844       2.61986       2.60024        2.8181       2.89667       2.86241       1.78954        1.9618       1.97486
         3.21      -1.13697      -1.15246      -1.10741       -1.0118      -1.03932      -1.00487      -1.26527      -1.27261      -1.22177      -1.41666      -1.47125      -1.41152     -0.775696     -0.850192     -0.804246
         3.24       2.31146       2.43164       2.43522       2.11982       2.27393       2.28401        2.4883       2.60278       2.59155        2.7974       2.87882        2.8561       1.77491       1.94704       1.96539
         3.27        -1.213      -1.23244        -1.194       -1.0804      -1.11351      -1.08397      -1.34797      -1.35999      -1.31599      -1.50712      -1.57009      -1.52091     -0.831321     -0.911536     -0.869203
          3.3       2.31038        2.4292        2.4241       2.11842       2.27021       2.27335       2.48834       2.60081       2.58054        2.8011       2.87926       2.84471       1.77258       1.94355       1.95545
         3.33      -1.15971      -1.17448      -1.12937       -1.0312      -1.05982      -1.02545      -1.28975      -1.29591      -1.24485      -1.44085      -1.49634      -1.43676     -0.793007     -0.867792     -0.821974
         3.36       2.27579       2.39482       2.39548       2.08785       2.23889       2.24662       2.44985       2.56386       2.54975       2.75913       2.83753       2.81063       1.74666       1.91651       1.93282
         3.39      -1.21269      -1.23034        -1.192      -1.07904      -1.11205      -1.08267      -1.34707      -1.35693      -1.31288      -1.50251      -1.56489      -1.51586     -0.832295      -0.91124     -0.869108
         3.42       2.28899       2.40792       2.40349       2.09963       2.24964       2.25306       2.46553       2.57937       2.55992       2.78038       2.85824       2.82495       1.75451       1.92447       1.93651
         3.45      -1.19045      -1.20543      -1.16139      -1.05783      -1.08873      -1.05519      -1.32336      -1.32893      -1.27914      -1.47505      -1.53268      -1.47522      -0.81641     -0.892423     -0.847371
         3.48       2.25683       2.37552       2.37371       2.07138       2.21997       2.22557       2.43032       2.54448       2.52747       2.74224       2.81874       2.78788       1.73074       1.89947       1.91365
         3.51       -1.2178      -1.23415      -1.19461      -1.08238      -1.11589      -1.08572      -1.35276      -1.36006      -1.31488      -1.50555      -1.56694      -1.51632      -0.83725     -0.915396     -0.872853
         3.54       2.26878       2.38798       2.38417       2.08239       2.23051       2.23428         2.444       2.55915       2.54027        2.7607       2.83797       2.80528        1.7379       1.90709        1.9193
         3.57      -1.22222      -1.23753      -1.19498      -1.08534      -1.11886      -1.08645      -1.35791      -1.36314      -1.31503       -1.5102      -1.57009       -1.5153     -0.840768     -0.918216     -0.874057
          3.6       2.24944       2.36841       2.36449       2.06558       2.21227        2.2161       2.42306       2.53818       2.51901       2.73906       2.81478       2.78107       1.72326       1.89161       1.90403
         3.63      -1.23408      -1.24903      -1.20806      -1.09543      -1.13001      -1.09885      -1.36982      -1.37518      -1.32871       -1.5216      -1.58261      -1.53029     -0.850135     -0.928049      -0.88477
         3.66       2.25698       2.37682       2.37311       2.07297       2.21942       2.22325       2.43174       2.54834       2.52943       2.75134       2.82815       2.79519       1.72756       1.89656       1.90871
         3.69      -1.25676       -1.2724      -1.23097      -1.11515      -1.15159      -1.11999      -1.39531      -1.40023      -1.35338       -1.5486      -1.61057      -1.55782     -0.867177     -0.946276     -0.902763
         3.72       2.25358       2.37358        2.3684       2.07054       2.21596       2.21871       2.42843       2.54528       2.52472       2.74987        2.8258       2.79035       1.72438        1.8933       1.90449
         3.75      -1.26639      -1.28114      -1.23927      -1.12296      -1.15999      -1.12811      -1.40492      -1.40913      -1.36185      -1.55783      -1.61964      -1.56639     -0.874743     -0.953846     -0.910069
         3.78       2.25916       2.38011       2.37576       2.07636       2.22158       2.22493       2.43489       2.55321       2.53342       2.75935       2.83612       2.80177       1.72758       1.89724        1.9088
         3.81      -1.29789      -1.31391      -1.27278       -1.1507       -1.1904      -1.15898      -1.43983      -1.44447      -1.39799      -1.59525      -1.65908      -1.60716      -0.89832     -0.979442      -0.93607
         3.84       2.27126       2.39302       2.38721         2.088       2.23287       2.23512       2.44864        2.5679        2.5465       2.77722       2.85419       2.81771        1.7356       1.90613       1.91656
         3.87       -1.3186      -1.33455      -1.29233      -1.16846      -1.20959      -1.17735      -1.46232      -1.46635      -1.41875      -1.61914       -1.6831      -1.62973      -0.91397     -0.995932     -0.951948
          3.9       2.28329       2.40671       2.40122       2.09981       2.24495       2.24752       2.46297       2.58355       2.56227       2.79552       2.87319       2.83677       1.74378       1.91564       1.92629
         3.93      -1.35695      -1.37389      -1.33229      -1.20225      -1.24618      -1.21436      -1.50387       -1.5087      -1.46174      -1.66413      -1.73024      -1.67801     -0.942454      -1.02678     -0.983081