/*--------------------------------*- C++ -*----------------------------------*\
  =========                 |
  \\      /  F ield         | OpenFOAM: The Open Source CFD Toolbox
   \\    /   O peration     | Website:  https://openfoam.org
    \\  /    A nd           | Version:  7
     \\/     M anipulation  |
\*---------------------------------------------------------------------------*/
FoamFile
{
    version     2.0;
    format      ascii;
    class       volScalarField;
    location    "6.1";
    object      p;
}
// * * * * * * * * * * * * * * * * * * * * * * * * * * * * * * * * * * * * * //

dimensions      [0 2 -2 0 0 0 0];

internalField   nonuniform List<scalar> 
18000
(
0.652671
0.652957
0.653152
0.653336
0.653528
0.653772
0.654131
0.654667
0.655425
0.656432
0.657708
0.659267
0.661124
0.663285
0.665742
0.668476
0.671463
0.674677
0.678092
0.681677
0.685398
0.689218
0.6931
0.697012
0.700924
0.704809
0.708644
0.712412
0.716083
0.719568
0.652037
0.652243
0.652404
0.652559
0.65273
0.652955
0.653296
0.65381
0.654536
0.655506
0.656736
0.658236
0.660019
0.66209
0.66444
0.667054
0.669911
0.672984
0.676244
0.679663
0.683207
0.686844
0.690537
0.694256
0.697971
0.701659
0.705297
0.708871
0.712348
0.715665
0.651399
0.651525
0.651651
0.651778
0.651933
0.652147
0.652479
0.652979
0.653683
0.654621
0.65581
0.657259
0.658973
0.660958
0.663207
0.665704
0.66843
0.67136
0.674463
0.677712
0.681076
0.684523
0.688019
0.691536
0.695046
0.698526
0.701958
0.705325
0.708593
0.711727
0.650737
0.650783
0.650882
0.650989
0.651136
0.651349
0.65168
0.652174
0.652864
0.653777
0.654932
0.656334
0.657986
0.65989
0.662039
0.664422
0.667019
0.669804
0.672748
0.675824
0.679002
0.682252
0.685545
0.688851
0.692147
0.695411
0.698624
0.701772
0.704818
0.707751
0.650071
0.650041
0.650115
0.650205
0.650349
0.650566
0.650901
0.651395
0.652076
0.652973
0.6541
0.655459
0.657052
0.658878
0.660932
0.663203
0.665672
0.668311
0.671094
0.673993
0.676981
0.68003
0.683112
0.686202
0.689275
0.692312
0.695295
0.698212
0.701023
0.70374
0.649391
0.649285
0.649337
0.649417
0.649562
0.649788
0.650133
0.650633
0.651316
0.652203
0.653307
0.654628
0.656166
0.657919
0.659883
0.662046
0.664387
0.666879
0.669497
0.672217
0.675011
0.677855
0.680721
0.683587
0.686429
0.68923
0.691973
0.694647
0.697213
0.6997
0.648697
0.64852
0.648554
0.648627
0.648778
0.649018
0.649378
0.649891
0.650581
0.651464
0.65255
0.653837
0.655323
0.657008
0.658887
0.660944
0.663157
0.665502
0.667955
0.670493
0.673091
0.675725
0.678371
0.681007
0.683612
0.686167
0.68866
0.69108
0.693391
0.695635
0.647985
0.647744
0.647763
0.647832
0.647991
0.648248
0.64863
0.649163
0.649866
0.650751
0.651822
0.653079
0.65452
0.656142
0.657939
0.659892
0.661979
0.664176
0.666463
0.668818
0.671217
0.673639
0.676062
0.678463
0.680824
0.683127
0.685361
0.687519
0.689565
0.691554
0.647251
0.646952
0.646959
0.647027
0.647197
0.647476
0.647885
0.648444
0.649165
0.650056
0.651118
0.65235
0.65375
0.655314
0.657032
0.658883
0.660845
0.662896
0.665017
0.667188
0.669388
0.671596
0.673793
0.675956
0.678068
0.680113
0.682082
0.683971
0.685747
0.687468
0.646492
0.646142
0.646138
0.646208
0.646393
0.646697
0.647138
0.647727
0.648472
0.649373
0.650431
0.651643
0.653007
0.654518
0.65616
0.657911
0.65975
0.661657
0.663613
0.6656
0.667601
0.669595
0.671564
0.673487
0.675347
0.67713
0.678831
0.680446
0.681947
0.683389
0.645704
0.64531
0.645297
0.645372
0.645575
0.645908
0.646383
0.647008
0.647779
0.648696
0.649754
0.650952
0.652286
0.653746
0.655314
0.656969
0.658689
0.660454
0.662246
0.664051
0.665853
0.667634
0.669375
0.671056
0.672663
0.674184
0.675614
0.676954
0.678178
0.679333
0.644884
0.644452
0.644433
0.644514
0.644738
0.645103
0.645618
0.64628
0.647082
0.648018
0.649082
0.650271
0.651578
0.652991
0.65449
0.656053
0.657656
0.659281
0.660912
0.662538
0.664143
0.665712
0.667225
0.668666
0.670021
0.67128
0.672439
0.673503
0.674452
0.675315
0.644026
0.643563
0.643541
0.643631
0.643879
0.64428
0.644836
0.645539
0.646375
0.647334
0.648407
0.64959
0.650875
0.652246
0.65368
0.655153
0.656643
0.658132
0.659606
0.661055
0.662467
0.663826
0.665114
0.666316
0.667422
0.668422
0.669313
0.670102
0.670782
0.671351
0.643128
0.64264
0.642617
0.64272
0.642993
0.643432
0.644032
0.644778
0.645652
0.646636
0.647722
0.648904
0.65017
0.651502
0.652875
0.654263
0.655643
0.657
0.658321
0.659599
0.660821
0.661973
0.66304
0.664007
0.664866
0.665612
0.666239
0.666762
0.66718
0.667459
0.642187
0.641679
0.641658
0.641775
0.642078
0.642556
0.643202
0.643993
0.644905
0.645918
0.64702
0.648204
0.649456
0.650753
0.652068
0.653374
0.654649
0.655878
0.657052
0.658163
0.659201
0.660151
0.661
0.661737
0.662355
0.662852
0.663224
0.663487
0.663656
0.663653
0.641199
0.640676
0.64066
0.640793
0.641127
0.641648
0.64234
0.643178
0.64413
0.645173
0.646294
0.647484
0.648724
0.649989
0.65125
0.652478
0.653652
0.654759
0.655791
0.656741
0.6576
0.658353
0.65899
0.659502
0.659887
0.660143
0.660269
0.660285
0.660219
0.659948
0.640162
0.639628
0.639618
0.639771
0.640138
0.640702
0.641442
0.642327
0.64332
0.644395
0.645538
0.646736
0.647968
0.649204
0.650413
0.651566
0.652644
0.653635
0.654531
0.655327
0.656011
0.656574
0.657004
0.657299
0.657458
0.657484
0.657376
0.657158
0.656874
0.656353
0.639074
0.638532
0.638532
0.638706
0.639107
0.639715
0.640503
0.641434
0.642469
0.643579
0.644747
0.645955
0.64718
0.648388
0.649548
0.650631
0.651618
0.652498
0.653265
0.653911
0.654428
0.654806
0.655037
0.655122
0.655066
0.654873
0.654544
0.654107
0.653624
0.652876
0.637933
0.637386
0.637397
0.637595
0.638032
0.638683
0.639518
0.640496
0.641574
0.642719
0.643913
0.645134
0.646353
0.647535
0.648648
0.649664
0.650565
0.651339
0.651982
0.652486
0.652842
0.65304
0.65308
0.652965
0.652705
0.652305
0.65177
0.651129
0.650465
0.649518
0.636736
0.636186
0.63621
0.636435
0.636909
0.637603
0.638484
0.639508
0.640629
0.641812
0.643033
0.644267
0.645481
0.646638
0.647706
0.648657
0.649475
0.65015
0.650675
0.651041
0.651241
0.651268
0.651125
0.650821
0.650366
0.649774
0.649048
0.648221
0.647394
0.646277
0.635481
0.63493
0.634969
0.635223
0.635735
0.636472
0.637399
0.638467
0.63963
0.640851
0.642101
0.643347
0.644556
0.645688
0.646711
0.647601
0.64834
0.648919
0.64933
0.649564
0.649614
0.649477
0.649161
0.648676
0.648041
0.647269
0.646368
0.645372
0.644402
0.643145
0.634164
0.633614
0.633671
0.633956
0.634506
0.635287
0.636258
0.63737
0.638575
0.639833
0.64111
0.642369
0.64357
0.644677
0.645657
0.646486
0.647149
0.647634
0.647934
0.64804
0.647946
0.647653
0.647171
0.646517
0.645712
0.644774
0.643715
0.642568
0.641473
0.640109
0.632783
0.632236
0.632313
0.632631
0.633221
0.634045
0.635059
0.636214
0.63746
0.638754
0.640055
0.641323
0.642517
0.643597
0.644533
0.645303
0.64589
0.646283
0.646475
0.646456
0.646222
0.645778
0.645138
0.644324
0.64336
0.642269
0.641067
0.639788
0.638588
0.637149
0.631336
0.630794
0.630892
0.631244
0.631874
0.632742
0.6338
0.634996
0.63628
0.637607
0.638931
0.640206
0.641387
0.642439
0.643331
0.64404
0.64455
0.644852
0.644936
0.644793
0.644423
0.643832
0.64304
0.642072
0.640957
0.639724
0.638393
0.637002
0.635718
0.63424
0.629821
0.629285
0.629406
0.629793
0.630465
0.631375
0.632475
0.633712
0.635033
0.63639
0.637732
0.639008
0.640175
0.641195
0.642039
0.642686
0.643118
0.643326
0.643301
0.643035
0.642528
0.641792
0.64085
0.639732
0.638472
0.637103
0.635655
0.634169
0.632824
0.631348
0.628235
0.627708
0.627853
0.628276
0.628989
0.629942
0.631083
0.632358
0.633714
0.635097
0.636451
0.637724
0.638871
0.639855
0.640648
0.641228
0.641579
0.64169
0.641553
0.641161
0.640516
0.639634
0.638541
0.637272
0.635865
0.634362
0.632802
0.631232
0.629848
0.628425
0.626573
0.626058
0.62623
0.626691
0.627446
0.628441
0.629621
0.630932
0.632319
0.633723
0.635083
0.636346
0.637467
0.63841
0.639146
0.639654
0.639919
0.639928
0.639674
0.639152
0.638365
0.637332
0.636083
0.634656
0.633095
0.631449
0.629768
0.628116
0.626708
0.625393
0.624832
0.624335
0.624536
0.625036
0.625834
0.626869
0.628086
0.62943
0.630843
0.632261
0.63362
0.634866
0.635954
0.636849
0.637521
0.637951
0.638122
0.638024
0.637647
0.636988
0.636053
0.634862
0.633446
0.631848
0.630115
0.628303
0.626476
0.624724
0.623298
0.62216
0.623009
0.622535
0.622768
0.623311
0.62415
0.625223
0.626474
0.627848
0.629281
0.630706
0.632056
0.633277
0.634323
0.63516
0.635761
0.636104
0.636174
0.63596
0.635453
0.63465
0.633559
0.632201
0.630607
0.628819
0.626883
0.624857
0.622819
0.620896
0.61944
0.618604
0.621103
0.620659
0.620928
0.621514
0.622395
0.623503
0.624784
0.626181
0.627627
0.629051
0.630383
0.631569
0.632564
0.633334
0.633853
0.6341
0.634059
0.633721
0.633076
0.632122
0.630869
0.629335
0.627552
0.625554
0.623377
0.621061
0.618662
0.616293
0.61434
0.61328
0.730755
0.745451
0.755171
0.763187
0.768471
0.77266
0.775513
0.777528
0.778814
0.779539
0.779778
0.779616
0.779111
0.778308
0.777269
0.776006
0.774547
0.772953
0.771201
0.769297
0.767261
0.765071
0.762775
0.760366
0.757872
0.755311
0.752731
0.750202
0.748002
0.74637
0.726593
0.741049
0.750862
0.759092
0.764582
0.768934
0.771929
0.774084
0.775465
0.776261
0.776568
0.776472
0.776024
0.775289
0.774283
0.77306
0.771655
0.770084
0.768365
0.766499
0.764476
0.762321
0.760033
0.757641
0.755153
0.752597
0.750017
0.747488
0.74527
0.743631
0.72233
0.736558
0.746464
0.754929
0.760645
0.76518
0.768334
0.770634
0.772114
0.772985
0.773361
0.77333
0.772937
0.772269
0.771297
0.770116
0.768768
0.767222
0.765536
0.76371
0.761703
0.759586
0.757309
0.754938
0.752462
0.749915
0.747338
0.744813
0.742577
0.740931
0.717942
0.731977
0.741984
0.750694
0.756652
0.761409
0.764734
0.767171
0.768756
0.769715
0.770162
0.770191
0.769855
0.769237
0.768318
0.767184
0.765878
0.764371
0.762719
0.760924
0.758949
0.756857
0.754608
0.752258
0.7498
0.747267
0.744697
0.742172
0.739926
0.738267
0.713435
0.727301
0.737409
0.746385
0.752609
0.757616
0.761126
0.763701
0.765398
0.766449
0.766967
0.767056
0.766777
0.766203
0.765344
0.764259
0.762989
0.761529
0.759911
0.758145
0.756209
0.754141
0.751926
0.749601
0.747165
0.74465
0.742091
0.739566
0.737314
0.735638
0.708815
0.722525
0.732725
0.742004
0.74852
0.753798
0.757509
0.760231
0.762042
0.763184
0.763775
0.763923
0.763703
0.763175
0.762371
0.761336
0.760105
0.75869
0.757111
0.755377
0.753481
0.751442
0.749261
0.746964
0.744555
0.742063
0.739517
0.736997
0.73474
0.733046
0.704081
0.717648
0.72793
0.737547
0.744385
0.749956
0.753883
0.756761
0.758692
0.759924
0.760589
0.760796
0.760634
0.760155
0.759403
0.758418
0.757228
0.755858
0.754319
0.752621
0.750764
0.748759
0.746614
0.74435
0.74197
0.739506
0.736977
0.734463
0.732203
0.730491
0.699236
0.712669
0.723022
0.73301
0.740202
0.746089
0.75025
0.753294
0.755346
0.756669
0.757409
0.757675
0.75757
0.757141
0.75644
0.755507
0.75436
0.753033
0.751536
0.749876
0.748059
0.746093
0.743986
0.741759
0.739411
0.736977
0.734469
0.731964
0.729704
0.727974
0.694283
0.707591
0.718001
0.728393
0.735969
0.742197
0.746609
0.749827
0.752007
0.753421
0.754236
0.754561
0.754513
0.754135
0.753484
0.752602
0.7515
0.750217
0.748763
0.747143
0.745367
0.743443
0.741377
0.739189
0.736877
0.734475
0.731993
0.729502
0.727241
0.725494
0.689233
0.702419
0.712871
0.723693
0.731684
0.73828
0.74296
0.746364
0.748674
0.750181
0.751071
0.751456
0.751465
0.751138
0.750537
0.749706
0.748649
0.74741
0.745999
0.744421
0.742689
0.740808
0.738787
0.736642
0.734369
0.732002
0.72955
0.727075
0.724815
0.723052
0.6841
0.697163
0.707635
0.718911
0.727348
0.734337
0.739305
0.742905
0.74535
0.746952
0.747916
0.748362
0.748426
0.748151
0.747599
0.746818
0.745807
0.744613
0.743244
0.741711
0.740024
0.738189
0.736215
0.734115
0.731885
0.729556
0.727138
0.724685
0.722428
0.720649
0.678903
0.691835
0.702305
0.714049
0.722962
0.730369
0.735644
0.73945
0.742035
0.743736
0.744773
0.745279
0.745398
0.745174
0.744672
0.743939
0.742974
0.741825
0.7405
0.739012
0.737373
0.735585
0.73366
0.731609
0.729425
0.727139
0.724759
0.72233
0.720079
0.718284
0.673664
0.686454
0.696892
0.709111
0.718526
0.726376
0.731978
0.736001
0.738732
0.740532
0.741643
0.742209
0.742381
0.742209
0.741755
0.74107
0.740152
0.739046
0.737767
0.736325
0.734736
0.732996
0.731124
0.729123
0.726989
0.724749
0.722411
0.720012
0.71777
0.715961
0.66841
0.681041
0.691415
0.704103
0.714043
0.722357
0.728307
0.732558
0.73544
0.737343
0.738527
0.739152
0.739378
0.739257
0.738851
0.738211
0.737339
0.736278
0.735045
0.73365
0.732113
0.730423
0.728604
0.726657
0.724577
0.722386
0.720096
0.71773
0.715502
0.713679
0.663172
0.675624
0.685895
0.699036
0.709518
0.718314
0.724631
0.729121
0.732162
0.734167
0.735426
0.73611
0.736389
0.736318
0.73596
0.735364
0.734538
0.733521
0.732335
0.730987
0.729503
0.727864
0.726101
0.724211
0.722188
0.720051
0.717812
0.715486
0.713275
0.71144
0.657983
0.670234
0.680359
0.693921
0.704956
0.71425
0.720952
0.725693
0.728898
0.731007
0.732341
0.733083
0.733414
0.733394
0.733082
0.732528
0.731747
0.730774
0.729636
0.728336
0.726905
0.72532
0.723613
0.721783
0.71982
0.717741
0.715559
0.713279
0.711091
0.709247
0.652877
0.664903
0.674837
0.688776
0.700364
0.710168
0.71727
0.722273
0.725648
0.727863
0.729272
0.730074
0.730456
0.730484
0.730217
0.729703
0.728967
0.728039
0.726949
0.725697
0.72432
0.72279
0.72114
0.719372
0.717472
0.715455
0.713335
0.711108
0.708952
0.7071
0.647889
0.659669
0.669361
0.683621
0.695751
0.706072
0.713587
0.718863
0.722414
0.724738
0.726222
0.727082
0.727514
0.727589
0.727365
0.726892
0.726199
0.725315
0.724273
0.72307
0.721745
0.720273
0.718681
0.716975
0.715142
0.713192
0.711141
0.708976
0.706859
0.705004
0.643056
0.654567
0.663967
0.678478
0.691129
0.701968
0.709905
0.715465
0.719198
0.721632
0.723192
0.72411
0.72459
0.724709
0.724527
0.724094
0.723443
0.722603
0.721608
0.720454
0.719181
0.717768
0.716234
0.714591
0.712828
0.710951
0.708975
0.706881
0.704814
0.70296
0.638411
0.649635
0.658689
0.673371
0.686513
0.697862
0.706227
0.712078
0.715999
0.718548
0.720183
0.721159
0.721684
0.721844
0.721703
0.721309
0.720699
0.719902
0.718952
0.717849
0.716627
0.715272
0.713797
0.712219
0.710529
0.708729
0.706837
0.704824
0.702819
0.700975
0.633984
0.644904
0.653565
0.668325
0.681918
0.693761
0.702556
0.708704
0.712818
0.715487
0.717197
0.71823
0.718798
0.718997
0.718894
0.718538
0.717968
0.717212
0.716307
0.715254
0.714083
0.712785
0.71137
0.709858
0.708243
0.706527
0.704725
0.702806
0.700877
0.699052
0.629805
0.640403
0.648628
0.663368
0.677359
0.689672
0.698894
0.705344
0.709656
0.712447
0.714233
0.715322
0.715931
0.716167
0.7161
0.71578
0.715248
0.714533
0.713672
0.712668
0.711546
0.710305
0.70895
0.707505
0.705969
0.704341
0.702638
0.700826
0.698992
0.697199
0.625898
0.636156
0.643907
0.658524
0.672855
0.685606
0.695245
0.701999
0.706514
0.70943
0.711292
0.712437
0.713085
0.713356
0.713324
0.713036
0.712541
0.711867
0.711047
0.710091
0.709017
0.707831
0.706537
0.70516
0.703704
0.702169
0.700573
0.698883
0.697165
0.695421
0.622284
0.632181
0.639428
0.653823
0.668422
0.681574
0.691614
0.698671
0.703392
0.706436
0.708375
0.709575
0.710261
0.710564
0.710564
0.710307
0.709846
0.709211
0.708432
0.70752
0.706494
0.705363
0.704128
0.70282
0.701446
0.700009
0.698529
0.696976
0.695399
0.693728
0.618982
0.628488
0.635209
0.649287
0.664081
0.677587
0.688006
0.695365
0.700293
0.703467
0.705485
0.706739
0.70746
0.707792
0.707821
0.707592
0.707165
0.706567
0.705826
0.704957
0.703976
0.702899
0.701724
0.700485
0.699193
0.697857
0.6965
0.695102
0.693695
0.692132
0.616013
0.625084
0.631264
0.644942
0.659853
0.673659
0.684432
0.692086
0.69722
0.700526
0.702624
0.703929
0.704684
0.705041
0.705097
0.704895
0.704498
0.703934
0.703228
0.702401
0.701464
0.700437
0.699321
0.698151
0.696942
0.695709
0.694483
0.693256
0.692054
0.690648
0.613402
0.621966
0.627602
0.640808
0.65576
0.669806
0.680901
0.688837
0.694175
0.697615
0.699793
0.701147
0.701933
0.702312
0.702391
0.702213
0.701844
0.701311
0.700639
0.69985
0.698955
0.697977
0.696919
0.695817
0.694691
0.693562
0.692472
0.691432
0.690474
0.689294
0.611189
0.619134
0.624228
0.636884
0.65178
0.665987
0.677367
0.68558
0.691126
0.694709
0.696972
0.698376
0.699192
0.699593
0.699692
0.699538
0.699195
0.69869
0.69805
0.697297
0.696443
0.695513
0.694511
0.693477
0.692432
0.691408
0.690458
0.68962
0.68895
0.688093
0.609401
0.616529
0.621089
0.63309
0.647798
0.662078
0.673713
0.682213
0.687988
0.691735
0.6941
0.695564
0.696418
0.696847
0.696969
0.696841
0.696524
0.69605
0.695442
0.694726
0.693914
0.693032
0.692087
0.691119
0.690154
0.689236
0.688427
0.687804
0.687468
0.687079
0.608173
0.614012
0.618071
0.629494
0.644035
0.658368
0.67021
0.678952
0.684927
0.688817
0.69127
0.692785
0.693669
0.694121
0.694262
0.694156
0.693863
0.693415
0.692836
0.692153
0.69138
0.690541
0.68965
0.688744
0.687854
0.687034
0.686361
0.685954
0.685991
0.686267
0.604972
0.605877
0.608519
0.61948
0.634583
0.649585
0.662049
0.671283
0.677564
0.681582
0.684027
0.685463
0.686256
0.686633
0.686723
0.686596
0.686298
0.685863
0.685314
0.684677
0.683971
0.683219
0.682444
0.681681
0.680974
0.680395
0.680067
0.680236
0.681372
0.684139
0.584799
0.588899
0.594818
0.606648
0.620948
0.634589
0.646002
0.654692
0.660857
0.665014
0.667714
0.669425
0.670478
0.67109
0.671393
0.671466
0.67136
0.671115
0.670757
0.670312
0.669804
0.669257
0.6687
0.668174
0.667734
0.667471
0.667543
0.668269
0.670262
0.674193
0.564582
0.573001
0.581939
0.593847
0.606755
0.618875
0.629226
0.637404
0.643477
0.647792
0.650769
0.652789
0.654142
0.655031
0.655588
0.655898
0.656017
0.655987
0.655839
0.655601
0.655298
0.654959
0.654614
0.654307
0.654099
0.654085
0.654426
0.655438
0.657744
0.662009
0.545647
0.556757
0.56727
0.578837
0.590687
0.601834
0.611542
0.619443
0.625536
0.630058
0.633331
0.635669
0.637333
0.638515
0.639348
0.639918
0.640284
0.640488
0.640565
0.640544
0.640451
0.640317
0.640175
0.640069
0.640056
0.640233
0.640748
0.641902
0.644273
0.648588
0.527018
0.539395
0.550646
0.562022
0.573296
0.583856
0.593142
0.600866
0.607021
0.611772
0.615361
0.618045
0.620052
0.621562
0.622703
0.623562
0.624199
0.62466
0.624978
0.625184
0.625306
0.625375
0.625423
0.625493
0.625641
0.625956
0.626576
0.627779
0.630086
0.634293
0.508115
0.521076
0.532728
0.54404
0.55496
0.565101
0.574073
0.581679
0.587914
0.592896
0.596806
0.599851
0.602224
0.604089
0.605564
0.606737
0.607669
0.608404
0.608977
0.60942
0.609762
0.610032
0.61026
0.61049
0.61077
0.611186
0.611861
0.613055
0.615234
0.619257
0.488843
0.50208
0.513926
0.525164
0.535816
0.545654
0.554413
0.56196
0.568293
0.573499
0.577719
0.581118
0.58386
0.586086
0.587907
0.589407
0.590644
0.591664
0.592502
0.593189
0.593753
0.594223
0.594626
0.595003
0.5954
0.595894
0.596597
0.597748
0.599766
0.603558
0.469165
0.482506
0.494395
0.505533
0.515987
0.525622
0.534254
0.541789
0.548232
0.553652
0.558162
0.561897
0.564993
0.567574
0.569739
0.571566
0.573109
0.574416
0.575522
0.576455
0.577243
0.577911
0.578487
0.579007
0.579514
0.580079
0.580799
0.581895
0.583737
0.587266
0.449048
0.462389
0.474237
0.485273
0.495588
0.505094
0.513656
0.52121
0.527768
0.533391
0.538171
0.54222
0.545651
0.548571
0.551069
0.553213
0.555058
0.556648
0.558017
0.559194
0.560203
0.561068
0.561815
0.562476
0.563092
0.563725
0.564462
0.565505
0.567172
0.570406
0.428481
0.441763
0.453533
0.464476
0.474691
0.484115
0.492644
0.500237
0.506914
0.512729
0.517759
0.522099
0.525843
0.529083
0.531898
0.534348
0.536484
0.538349
0.539974
0.541388
0.542612
0.543671
0.544586
0.54539
0.546116
0.546822
0.547581
0.548577
0.550083
0.55303
0.407468
0.420656
0.432334
0.443191
0.453334
0.462707
0.471228
0.478874
0.485671
0.491667
0.496931
0.501539
0.505574
0.509114
0.512226
0.514966
0.517381
0.519509
0.52138
0.52302
0.524452
0.525696
0.526775
0.527718
0.528553
0.529335
0.530125
0.531085
0.532446
0.535091
0.386013
0.399087
0.410665
0.421446
0.431534
0.440879
0.449411
0.457122
0.464037
0.470205
0.475684
0.48054
0.484844
0.488662
0.492052
0.495066
0.497744
0.500121
0.502224
0.504081
0.505712
0.507136
0.508374
0.509452
0.510394
0.511249
0.512071
0.513007
0.514255
0.516647
0.36412
0.377065
0.388543
0.399255
0.409304
0.418638
0.427196
0.434976
0.442009
0.448339
0.454017
0.4591
0.46365
0.467724
0.471372
0.474641
0.477564
0.480174
0.482497
0.484556
0.486373
0.487965
0.489351
0.490557
0.491605
0.492538
0.493398
0.494312
0.495446
0.497562
0.341791
0.354598
0.365978
0.376631
0.386652
0.395988
0.40458
0.412434
0.41958
0.426061
0.431921
0.437213
0.441986
0.446293
0.450177
0.453679
0.456828
0.459656
0.462184
0.464435
0.466427
0.468177
0.469703
0.471025
0.472162
0.473156
0.474049
0.474959
0.476029
0.477928
0.319028
0.331687
0.342976
0.35358
0.363585
0.37293
0.381562
0.389489
0.396744
0.403364
0.40939
0.414868
0.419843
0.424359
0.428455
0.432166
0.435522
0.438547
0.441261
0.443684
0.445834
0.447728
0.449384
0.450822
0.452057
0.453118
0.454037
0.454911
0.455873
0.457525
0.295835
0.308336
0.319546
0.330111
0.340106
0.349466
0.358138
0.366136
0.373491
0.380238
0.386412
0.392055
0.397206
0.401906
0.406189
0.410085
0.413625
0.416827
0.419711
0.422294
0.424588
0.426608
0.42837
0.429892
0.431192
0.432304
0.43326
0.434145
0.435069
0.436514
0.272219
0.284553
0.295698
0.306234
0.316223
0.325597
0.334307
0.342371
0.349817
0.356674
0.362976
0.368761
0.374063
0.378918
0.383359
0.387415
0.391109
0.39446
0.397487
0.400204
0.402627
0.40477
0.406645
0.408261
0.409625
0.410761
0.411694
0.412514
0.413339
0.414553
0.248203
0.260351
0.271448
0.281964
0.291945
0.301327
0.310069
0.318189
0.325712
0.332664
0.339072
0.344971
0.350394
0.355375
0.359942
0.364126
0.367948
0.371427
0.374576
0.377405
0.379924
0.382143
0.384081
0.385757
0.387183
0.388379
0.389355
0.390173
0.390934
0.391925
0.223832
0.235766
0.246828
0.257324
0.267284
0.276662
0.285425
0.293589
0.301174
0.308199
0.314689
0.320673
0.326186
0.331257
0.335914
0.340187
0.344098
0.347667
0.350908
0.353833
0.356451
0.358764
0.360771
0.362477
0.363892
0.365045
0.365959
0.366702
0.367376
0.36812
0.199207
0.210873
0.221891
0.232348
0.24226
0.251612
0.260379
0.268572
0.2762
0.283274
0.289814
0.295848
0.301409
0.30653
0.31124
0.315569
0.319537
0.323161
0.326449
0.329409
0.332053
0.334399
0.336456
0.338228
0.339707
0.340893
0.341793
0.342468
0.343036
0.343548
0.174515
0.185812
0.196728
0.20709
0.216902
0.226192
0.234941
0.243142
0.250789
0.257884
0.26444
0.270487
0.276057
0.281182
0.285892
0.29022
0.294197
0.297844
0.301172
0.30418
0.306859
0.309204
0.311222
0.312932
0.31435
0.315487
0.316335
0.316925
0.317364
0.317553
0.150067
0.160817
0.171484
0.18163
0.191257
0.200429
0.209127
0.217308
0.224942
0.232017
0.238543
0.244552
0.250078
0.255157
0.259822
0.264104
0.268028
0.271617
0.274885
0.27785
0.280522
0.2829
0.284966
0.286705
0.288108
0.289187
0.289947
0.290426
0.290732
0.290658
0.126297
0.136226
0.146374
0.156098
0.1654
0.174371
0.182965
0.191088
0.198672
0.205691
0.212148
0.218071
0.223492
0.228452
0.232998
0.237177
0.241025
0.244557
0.247766
0.250642
0.253189
0.255429
0.25738
0.259043
0.260399
0.261425
0.262088
0.262397
0.26246
0.261953
0.103694
0.112456
0.121694
0.130691
0.139466
0.148106
0.156509
0.164502
0.171967
0.178859
0.185178
0.190947
0.1962
0.200977
0.205325
0.209294
0.212935
0.216288
0.219373
0.222189
0.224712
0.226917
0.228794
0.230353
0.231607
0.232557
0.233155
0.23335
0.233192
0.232307
0.0827004
0.0899347
0.0978129
0.105709
0.11368
0.121795
0.129871
0.13764
0.144921
0.151634
0.157752
0.163286
0.168272
0.172777
0.176873
0.180614
0.184027
0.187123
0.189918
0.192444
0.194726
0.196761
0.198522
0.199977
0.201108
0.201916
0.202361
0.202351
0.201855
0.200399
0.0636255
0.0690459
0.07516
0.0815678
0.0884046
0.0957057
0.103195
0.110518
0.117441
0.123848
0.129671
0.134881
0.139499
0.143596
0.147272
0.150627
0.15373
0.156602
0.159226
0.161574
0.163638
0.165439
0.166999
0.168311
0.169346
0.170086
0.170475
0.170328
0.16946
0.167465
0.0465712
0.0500941
0.0542029
0.0587843
0.0641672
0.0703491
0.0769461
0.0835622
0.0899375
0.0958859
0.101268
0.106022
0.110173
0.113796
0.116973
0.119787
0.122327
0.124669
0.126846
0.128844
0.130626
0.132167
0.133468
0.134526
0.13533
0.135891
0.136188
0.135959
0.134728
0.132045
0.031408
0.0332031
0.0353565
0.0378962
0.0415148
0.046111
0.0512411
0.0566286
0.0620766
0.0673114
0.0720515
0.0761462
0.0796142
0.082579
0.0851785
0.0875122
0.0896318
0.09155
0.0932694
0.0948091
0.0961935
0.0974286
0.0984975
0.0993646
0.099987
0.100372
0.100576
0.10037
0.0989557
0.0958448
0.0177077
0.0181535
0.0186026
0.0193397
0.0215666
0.0244918
0.0277321
0.0313539
0.0353106
0.0393259
0.0430531
0.0462275
0.0487483
0.0506996
0.0522878
0.0537199
0.0550978
0.0564032
0.0575698
0.0585688
0.0594284
0.0601895
0.0608637
0.0614267
0.0618225
0.062011
0.0620638
0.0619382
0.0607053
0.0574688
0.00530348
0.00425581
0.00050287
-0.000317536
0.00206002
0.00382746
0.00517324
0.00676884
0.00875434
0.0109513
0.0131102
0.0150088
0.0165119
0.0176116
0.0184092
0.0190403
0.0196101
0.0201565
0.0206625
0.0211023
0.0214737
0.0217914
0.0220649
0.0222928
0.022454
0.0224943
0.0224157
0.0223871
0.0220697
0.0198355
0.586576
0.569929
0.551908
0.53374
0.515367
0.496474
0.477154
0.457443
0.437321
0.416786
0.395845
0.374494
0.352738
0.330581
0.308033
0.285114
0.261848
0.238297
0.214534
0.190694
0.166972
0.143646
0.121095
0.0997018
0.0798241
0.0617142
0.0454665
0.0309705
0.0177872
0.00563281
0.584782
0.566675
0.548251
0.529805
0.511336
0.492436
0.473149
0.453488
0.433426
0.412956
0.392087
0.370811
0.349135
0.327062
0.304602
0.28178
0.258615
0.235179
0.211547
0.187865
0.164341
0.141264
0.119022
0.0979887
0.078503
0.0607891
0.0449066
0.0307106
0.0177364
0.00570024
0.582182
0.563093
0.544474
0.525888
0.507369
0.488477
0.46922
0.449602
0.429594
0.409187
0.388386
0.367184
0.345587
0.323601
0.30123
0.278504
0.255444
0.232124
0.208626
0.185102
0.161772
0.138929
0.116967
0.096249
0.0771103
0.0597637
0.0442465
0.0303722
0.0176288
0.0057374
0.579143
0.559465
0.540695
0.522002
0.503438
0.484559
0.465337
0.445763
0.425808
0.405461
0.384727
0.363596
0.342077
0.320174
0.29789
0.275258
0.252301
0.229096
0.205731
0.182367
0.159235
0.136636
0.114966
0.0945791
0.075798
0.0588156
0.0436445
0.030065
0.0175287
0.00576045
0.575782
0.555787
0.536916
0.518155
0.499559
0.480697
0.46151
0.44198
0.422077
0.401786
0.381115
0.360054
0.338608
0.316786
0.294587
0.272047
0.249191
0.226101
0.20287
0.179667
0.156738
0.134389
0.113018
0.092971
0.0745554
0.0579392
0.0431029
0.0297955
0.0174421
0.00577336
0.572163
0.552067
0.533147
0.514351
0.495733
0.476893
0.457741
0.438253
0.418399
0.398162
0.377552
0.356558
0.335184
0.313438
0.291322
0.268873
0.246116
0.223139
0.200043
0.177005
0.154284
0.132192
0.111126
0.0914256
0.0733779
0.0571244
0.0426119
0.0295558
0.017366
0.00577729
0.568348
0.548312
0.529394
0.510592
0.491962
0.473147
0.454031
0.434583
0.414776
0.394593
0.374041
0.35311
0.331804
0.310132
0.288097
0.265736
0.243078
0.220212
0.197254
0.174384
0.151876
0.130047
0.109295
0.0899467
0.0722679
0.0563713
0.0421685
0.0293431
0.0172992
0.00577412
0.564392
0.544533
0.525659
0.506882
0.48825
0.46946
0.45038
0.430971
0.41121
0.391078
0.370582
0.349711
0.32847
0.30687
0.284913
0.262637
0.240076
0.217324
0.194504
0.171806
0.149516
0.127958
0.107527
0.0885369
0.0712265
0.0556798
0.0417719
0.0291568
0.0172411
0.00576631
0.560344
0.540742
0.521949
0.50322
0.484598
0.465832
0.446788
0.427418
0.407701
0.387619
0.367176
0.346363
0.325186
0.303654
0.281772
0.259578
0.237114
0.214475
0.191794
0.169273
0.147207
0.125927
0.105824
0.0871959
0.0702529
0.0550481
0.0414193
0.0289951
0.0171908
0.00575597
0.556247
0.536953
0.518269
0.499606
0.481006
0.462266
0.443256
0.423926
0.404252
0.384217
0.363824
0.343067
0.321952
0.300486
0.278675
0.256561
0.234194
0.211667
0.189127
0.166785
0.144949
0.123954
0.104185
0.0859225
0.0693449
0.0544729
0.041107
0.0288553
0.0171469
0.00574197
0.552137
0.533178
0.514626
0.496043
0.477475
0.458763
0.439787
0.420494
0.400863
0.380872
0.360529
0.339827
0.31877
0.297366
0.275624
0.25359
0.231316
0.208903
0.186505
0.164346
0.142744
0.122041
0.102611
0.0847153
0.0684996
0.0539504
0.0408311
0.0287346
0.0171083
0.00572677
0.548042
0.529426
0.511025
0.492532
0.474005
0.455323
0.436381
0.417124
0.397532
0.377585
0.35729
0.336641
0.31564
0.294296
0.272622
0.250665
0.228484
0.206184
0.18393
0.161958
0.140597
0.12019
0.101103
0.083574
0.0677153
0.0534776
0.0405884
0.0286305
0.0170744
0.00571153
0.543986
0.525708
0.50747
0.489075
0.470598
0.451948
0.433039
0.413815
0.394262
0.374358
0.354109
0.33351
0.312563
0.291277
0.26967
0.247789
0.2257
0.203513
0.181406
0.159626
0.13851
0.118406
0.0996638
0.0824997
0.066991
0.0530519
0.0403764
0.0285411
0.0170447
0.00569703
0.539988
0.522035
0.503968
0.485677
0.467255
0.448638
0.429762
0.410571
0.391054
0.371192
0.350987
0.330436
0.30954
0.288312
0.266769
0.244963
0.222965
0.200892
0.178935
0.157353
0.136489
0.11669
0.0982948
0.0814937
0.0663259
0.0526713
0.0401925
0.0284648
0.0170188
0.00568383
0.536061
0.518417
0.500524
0.482339
0.463979
0.445395
0.426551
0.407392
0.38791
0.368088
0.347924
0.327419
0.306573
0.2854
0.263922
0.242189
0.220281
0.198323
0.176522
0.155142
0.134534
0.115046
0.0969981
0.0805563
0.0657187
0.0523333
0.0400341
0.0283997
0.0169961
0.00567225
0.532219
0.514863
0.497145
0.479066
0.460771
0.442222
0.42341
0.404281
0.384832
0.365048
0.344922
0.32446
0.303663
0.282545
0.261128
0.239467
0.217649
0.195809
0.174166
0.152994
0.132648
0.113475
0.0957739
0.0796866
0.0651671
0.0520347
0.0398983
0.0283441
0.0169763
0.00566244
0.528469
0.511382
0.493836
0.47586
0.457632
0.43912
0.420338
0.40124
0.381822
0.362072
0.341983
0.321562
0.300812
0.279745
0.258388
0.236798
0.21507
0.193351
0.171869
0.150909
0.130831
0.111977
0.094622
0.0788819
0.064668
0.0517721
0.0397823
0.0282963
0.0169593
0.0056545
0.52482
0.50798
0.490601
0.472726
0.454565
0.43609
0.417339
0.398269
0.37888
0.359162
0.339108
0.318726
0.298021
0.277003
0.255704
0.234183
0.212547
0.190949
0.169632
0.148888
0.129083
0.110552
0.0935414
0.0781396
0.0642182
0.0515421
0.0396834
0.0282553
0.0169459
0.00564845
0.521278
0.504665
0.487445
0.469666
0.451572
0.433134
0.414413
0.39537
0.376008
0.35632
0.3363
0.315955
0.295292
0.27432
0.253077
0.231625
0.21008
0.188605
0.167456
0.146934
0.127405
0.109198
0.0925304