/*--------------------------------*- C++ -*----------------------------------*\
  =========                 |
  \\      /  F ield         | OpenFOAM: The Open Source CFD Toolbox
   \\    /   O peration     | Website:  https://openfoam.org
    \\  /    A nd           | Version:  7
     \\/     M anipulation  |
\*---------------------------------------------------------------------------*/
FoamFile
{
    version     2.0;
    format      ascii;
    class       surfaceScalarField;
    location    "6.1";
    object      phi;
}
// * * * * * * * * * * * * * * * * * * * * * * * * * * * * * * * * * * * * * //

dimensions      [0 3 -1 0 0 0 0];

internalField   nonuniform List<scalar> 
35640
(
3.36895e-06
-0.000138882
0.000135513
9.86137e-06
-0.000107054
0.000100562
1.84172e-05
0.000172384
-0.00018094
2.95159e-05
0.000613428
-0.000624527
4.428e-05
0.00116066
-0.00117543
6.40451e-05
0.00177738
-0.00179715
9.01005e-05
0.00243831
-0.00246437
0.000123552
0.00312539
-0.00315884
0.000165284
0.00382549
-0.00386722
0.000215943
0.00452851
-0.00457916
0.00027593
0.00522625
-0.00528624
0.000345403
0.00591166
-0.00598113
0.000424347
0.00657844
-0.00665738
0.000512585
0.00722088
-0.00730912
0.000609801
0.00783384
-0.00793106
0.000715583
0.00841268
-0.00851846
0.000829444
0.00895339
-0.00906725
0.000950842
0.00945258
-0.00957398
0.0010792
0.00990756
-0.0100359
0.00121393
0.0103163
-0.0104511
0.00135445
0.0106776
-0.0108181
0.00150023
0.0109907
-0.0111365
0.00165076
0.0112556
-0.0114062
0.00180561
0.0114727
-0.0116276
0.00196441
0.0116429
-0.0118017
0.00212683
0.011767
-0.0119294
0.00229254
0.0118462
-0.0120119
0.00246113
0.0118816
-0.0120502
0.00263183
0.0118756
-0.0120463
0.0118315
0.00280338
-0.0120031
1.28386e-06
-0.000140166
3.21739e-06
-0.000108988
5.46463e-06
0.000170137
8.99252e-06
0.0006099
1.5255e-05
0.0011544
2.57791e-05
0.00176686
4.20334e-05
0.00242206
6.52858e-05
0.00310214
9.65524e-05
0.00379422
0.000136576
0.00448848
0.000185852
0.00517697
0.000244641
0.00585287
0.000313007
0.00651007
0.000390856
0.00714303
0.000477962
0.00774674
0.000573976
0.00831667
0.000678471
0.0088489
0.000790962
0.00934009
0.00091093
0.00978759
0.00103783
0.0101894
0.00117111
0.0105443
0.00131024
0.0108516
0.0014547
0.0111112
0.00160403
0.0113234
0.0017578
0.0114891
0.00191558
0.0116092
0.00207688
0.0116849
0.00224108
0.0117174
0.00240721
0.0117094
0.0116651
0.00257369
-7.3532e-07
-0.000139431
-3.16962e-06
-0.000106554
-6.94268e-06
0.000173911
-1.06163e-05
0.000613574
-1.24039e-05
0.00115619
-1.05483e-05
0.00176501
-3.40553e-06
0.00241492
1.03895e-05
0.00308835
3.19638e-05
0.00377265
6.21691e-05
0.00445828
0.000101596
0.00513755
0.00015059
0.00580388
0.000209294
0.00645137
0.000277684
0.00707464
0.000355581
0.00766884
0.000442703
0.00822954
0.000538694
0.0087529
0.000643124
0.00923566
0.0007555
0.00967521
0.000875298
0.0100696
0.00100199
0.0104176
0.00113506
0.0107185
0.00127398
0.0109722
0.00141823
0.0111792
0.00156731
0.01134
0.00172067
0.0114559
0.00187767
0.0115279
0.00203748
0.0115576
0.00219888
0.011548
0.0115039
0.00236004
-2.64004e-06
-0.000136791
-9.3398e-06
-9.9854e-05
-1.88891e-05
0.00018346
-2.93425e-05
0.000624028
-3.86068e-05
0.00116545
-4.4743e-05
0.00177114
-4.59616e-05
0.00241614
-4.07714e-05
0.00308316
-2.79608e-05
0.00375984
-6.59509e-06
0.00443691
2.4003e-05
0.00510695
6.42562e-05
0.00576363
0.000114359
0.00640126
0.000174348
0.00701466
0.000244113
0.00759907
0.000323422
0.00815024
0.000411954
0.00866437
0.000509315
0.0091383
0.000615047
0.00956948
0.000728657
0.00995601
0.000849635
0.0102966
0.000977447
0.0105907
0.00111156
0.0108381
0.00125141
0.0110393
0.0013964
0.011195
0.00154587
0.0113064
0.001699
0.0113748
0.00185476
0.0114018
0.00201167
0.0113911
0.0113479
0.00216769
-4.49354e-06
-0.000132298
-1.52112e-05
-8.91362e-05
-3.01407e-05
0.000198389
-4.6856e-05
0.000640743
-6.2966e-05
0.00118156
-7.63214e-05
0.0017845
-8.50308e-05
0.00242485
-8.75032e-05
0.00308563
-8.24403e-05
0.00375477
-6.88304e-05
0.0044233
-4.59406e-05
0.00508406
-1.32854e-05
0.00573097
2.94031e-05
0.00635857
8.22036e-05
0.00696185
0.000145042
0.00753624
0.000217731
0.00807755
0.000299988
0.00858211
0.000391445
0.00904684
0.000491669
0.00946926
0.000600189
0.00984749
0.000716505
0.0101803
0.000840084
0.0104671
0.000970365
0.0107079
0.00110675
0.0109029
0.00124855
0.0110532
0.001395
0.0111599
0.0015451
0.0112247
0.00169762
0.0112493
0.00185085
0.0112379
0.0111962
0.00200248
-6.22164e-06
-0.000126076
-2.07067e-05
-7.46511e-05
-4.06085e-05
0.000218291
-6.30032e-05
0.000663138
-8.52275e-05
0.00120379
-0.000104968
0.00180424
-0.000120223
0.0024401
-0.000129312
0.00309472
-0.000130876
0.00375634
-0.000123847
0.00441627
-0.000107429
0.00506764
-8.10808e-05
0.00570462
-4.44938e-05
0.00632199
2.44845e-06
0.00691491
5.97128e-05
0.00747897
0.000127144
0.00801012
0.00020448
0.00850478
0.00029137
0.00895995
0.000387408
0.00937322
0.000492143
0.00974276
0.000605078
0.0100674
0.000725682
0.0103465
0.000853379
0.0105802
0.00098753
0.0107688
0.00112739
0.0109133
0.00127207
0.0110153
0.00142042
0.0110763
0.00157101
0.0110987
0.00172191
0.011087
0.0110476
0.00187052
-7.83945e-06
-0.000118237
-2.57814e-05
-5.67089e-05
-5.01559e-05
0.000242666
-7.75793e-05
0.000690562
-0.000105127
0.00123134
-0.000130319
0.00182943
-0.00015107
0.00246085
-0.000165641
0.00310929
-0.000172612
0.00376331
-0.000170863
0.00441452
-0.000159558
0.00505633
-0.000138115
0.00568318
-0.000106186
0.00629006
-6.36225e-05
0.00687235
-1.04285e-05
0.00742578
5.32587e-05
0.00794643
0.000127191
0.00843085
0.000211038
0.00887611
0.000304411
0.00927984
0.000406871
0.0096403
0.000517934
0.00995632
0.000637074
0.0102274
0.000763712
0.0104535
0.000897188
0.0106353
0.00103671
0.0107738
0.00118129
0.0108707
0.00132965
0.010928
0.00148018
0.0109482
0.00163072
0.0109365
0.0109
0.0017784
-9.32402e-06
-0.000108912
-3.03736e-05
-3.56592e-05
-5.86866e-05
0.000270979
-9.0425e-05
0.0007223
-0.000122421
0.00126333
-0.000152057
0.00185907
-0.000177178
0.00248598
-0.000195991
0.0031281
-0.000207037
0.00377436
-0.000209162
0.00441665
-0.000201494
0.00504867
-0.000183421
0.00566511
-0.000154568
0.0062612
-0.000114759
0.00683254
-6.39789e-05
0.007375
-2.35383e-06
0.0078848
6.98773e-05
0.00835862
0.000152399
0.00879358
0.000244833
0.00918741
0.000346755
0.00953837
0.000457699
0.00984538
0.000577157
0.0101079
0.00070456
0.0103261
0.00083925
0.0105006
0.000980408
0.0106327
0.00112699
0.0107241
0.00127764
0.0107773
0.00143056
0.0107953
0.00158339
0.0107836
0.0107504
0.00173292
-1.06651e-05
-9.82472e-05
-3.44453e-05
-1.18788e-05
-6.61162e-05
0.000302651
-0.000101407
0.000757591
-0.000136923
0.00129885
-0.000169929
0.00189207
-0.000198208
0.00251426
-0.000219934
0.00314983
-0.000233626
0.00378805
-0.000238106
0.00442113
-0.000232479
0.00504304
-0.000216113
0.00564874
-0.000188612
0.0062337
-0.000149781
0.00679371
-9.95943e-05
0.00732481
-3.81722e-05
0.00782338
3.42534e-05
0.00828619
0.000117372
0.00871047
0.000210819
0.00909396
0.000314185
0.00943501
0.000427025
0.00973254
0.000548861
0.00998609
0.00067916
0.0101958
0.00081729
0.0103625
0.000962448
0.0104875
0.00111358
0.010573
0.00126927
0.0106216
0.00142762
0.0106369
0.00158604
0.0106252
0.0105955
0.00174097
-1.18517e-05
-8.63954e-05
-3.79647e-05
1.42346e-05
-7.23883e-05
0.000337074
-0.000110436
0.000795639
-0.000148501
0.00133691
-0.000183743
0.00192732
-0.000213902
0.00254441
-0.000237134
0.00317306
-0.000251948
0.00380286
-0.000257159
0.00442634
-0.00025186
0.00503774
-0.000235409
0.00563229
-0.000207395
0.00620569
-0.00016761
0.00675392
-0.000116025
0.00727322
-5.27609e-05
0.00776012
2.19538e-05
0.00821147
0.000107815
0.0086246
0.000204465
0.00899731
0.000311509
0.00932796
0.000428537
0.00961551
0.000555112
0.00985951
0.000690755
0.0100602
0.000834891
0.0102183
0.000986784
0.0103356
0.00114542
0.0104143
0.00130939
0.0104577
0.00147672
0.0104696
0.00164466
0.0104573
0.0104309
0.00180921
-1.28753e-05
-7.352e-05
-4.09158e-05
4.22755e-05
-7.74734e-05
0.000373632
-0.000117462
0.000835628
-0.000157075
0.00137653
-0.000193383
0.00196362
-0.00022409
0.00257512
-0.000247353
0.00319632
-0.000261687
0.0038172
-0.00026591
0.00443056
-0.000259118
0.00503095
-0.000240663
0.00561383
-0.000210128
0.00617515
-0.0001673
0.0067111
-0.000112154
0.00721808
-4.48101e-05
0.00769277
3.45038e-05
0.00813216
0.000125483
0.00853363
0.000227774
0.00889502
0.000341004
0.00921473
0.000464796
0.00949171
0.00059877
0.00972554
0.00074252
0.00991642
0.000895564
0.0100653
0.00105727
0.0101739
0.00122674
0.0102449
0.00140262
0.0102818
0.00158296
0.0102893
0.00176483
0.0102754
0.010252
0.00194383
-1.37338e-05
-5.97861e-05
-4.32965e-05
7.18384e-05
-8.13691e-05
0.000411705
-0.00012248
0.000876739
-0.000162633
0.00141668
-0.000198812
0.0019998
-0.000228702
0.00260501
-0.000250473
0.00321809
-0.000262658
0.00382938
-0.000264091
0.004432
-0.000253883
0.00502074
-0.00023139
0.00559134
-0.000196193
0.00613996
-0.000148083
0.00666299
-8.70386e-05
0.00715703
-1.31825e-05
0.00761892
7.32526e-05
0.00804573
0.000171959
0.00843492
0.000282588
0.00878439
0.000404786
0.00909253
0.000538214
0.00935829
0.000682554
0.0095812
0.000837484
0.00976149
0.00100264
0.00990014
0.00117755
0.009999
0.00136148
0.0100609
0.00155323
0.01009
0.00175091
0.0100916
0.00195153
0.0100748
0.0100533
0.00215021
-1.44304e-05
-4.53554e-05
-4.51214e-05
0.00010253
-8.41038e-05
0.000450687
-0.000125534
0.00091817
-0.000165224
0.00145637
-0.000200082
0.00203466
-0.000227778
0.00263271
-0.000246503
0.00323682
-0.000254823
0.0038377
-0.000251602
0.00442878
-0.000235972
0.00500511
-0.000207301
0.00556267
-0.00016518
0.00609783
-0.000109406
0.00660721
-3.99624e-05
0.00708759
4.30223e-05
0.00753593
0.000139309
0.00794944
0.000248584
0.00832564
0.000370504
0.00866247
0.000504731
0.00895831
0.000650957
0.00921206
0.000808923
0.00942323
0.000978405
0.00959201
0.00115918
0.00971937
0.00135094
0.00980724
0.00155317
0.00985871
0.00176493
0.00987827
0.00198449
0.00987202
0.00220884
0.00985042
0.00982942
0.00243269
-1.49738e-05
-3.03813e-05
-4.64199e-05
0.000133976
-8.57358e-05
0.000490003
-0.000126713
0.000959147
-0.000164969
0.00149463
-0.000197332
0.00206703
-0.000221466
0.00265684
-0.00023559
0.00325095
-0.000238307
0.00384042
-0.000228525
0.00441899
-0.000205406
0.00498199
-0.000168341
0.0055256
-0.000116933
0.00604643
-5.09893e-05
0.00654127
2.94992e-05
0.0070071
0.000124398
0.00744103
0.000233459
0.00784038
0.000356364
0.00820274
0.000492767
0.00852607
0.00064234
0.00880873
0.0008048
0.0090496
0.000979939
0.00924809
0.00116761
0.00940433
0.00136774
0.00951924
0.0015802
0.00959477
0.00180476
0.00963415
0.00204075
0.00964228
0.00228671
0.00962606
0.00253977
0.00959735
0.00957495
0.00279424
-1.53778e-05
-1.50031e-05
-4.72364e-05
0.000165835
-8.63514e-05
0.000529118
-0.000126151
0.000998947
-0.000162047
0.00153052
-0.00019079
0.00209577
-0.000210031
0.00267608
-0.000218019
0.00325893
-0.000213405
0.00383581
-0.000195146
0.00440073
-0.000162443
0.00494929
-0.000114716
0.00547788
-5.15858e-05
0.0059833
2.7125e-05
0.00646256
0.000121419
0.00691281
0.000231154
0.0073313
0.000356073
0.00771546
0.000495849
0.00806296
0.000650135
0.00837178
0.000818596
0.00864027
0.00100096
0.00886723
0.00119705
0.009052
0.0014068
0.00919459
0.00163021
0.00929583
0.00186738
0.0093576
0.00211833
0.00938321
0.00238273
0.00937788
0.00265949
0.0093493
0.00294599
0.00931086
0.00928467
0.00323627
-1.56607e-05
6.57776e-07
-4.76279e-05
0.000197802
-8.60616e-05
0.000567552
-0.000124021
0.00103691
-0.000156703
0.0015632
-0.000180767
0.00211983
-0.000193848
0.00268916
-0.000194222
0.00325931
-0.00018059
0.00382217
-0.000151964
0.00437211
-0.000107591
0.00490492
-4.69217e-05
0.00541721
3.0393e-05
0.00590598
0.000124518
0.00636843
0.000235447
0.00680188
0.000363028
0.00720372
0.000506997
0.00757149
0.000667016
0.00790294
0.000842724
0.00819608
0.00103378
0.00844922
0.0012399
0.00866111
0.0014609
0.008831
0.00169675
0.00895875
0.00194753
0.00904504
0.00221348
0.00909165
0.00249486
0.00910183
0.00279171
0.00908103
0.00310335
0.00903765
0.00342756
0.00898665
0.00895392
0.00375831
-1.58441e-05
1.6502e-05
-4.76614e-05
0.000229619
-8.49967e-05
0.000604887
-0.000120529
0.00107244
-0.000149227
0.0015919
-0.000167646
0.00213825
-0.000173394
0.00269491
-0.000164765
0.00325068
-0.00014051
0.00379792
-9.9696e-05
0.00433129
-4.16194e-05
0.00484684
3.42283e-05
0.00534136
0.000128169
0.00581204
0.000240348
0.00625626
0.000370747
0.00667148
0.000519206
0.00705526
0.00068545
0.00740525
0.00086913
0.00771926
0.00106986
0.00799534
0.00128728
0.0082318
0.00152107
0.00842732
0.00177103
0.00858104
0.00203708
0.00869269
0.00231934
0.00876278
0.00261812
0.00879287
0.00293386
0.00878609
0.00326694
0.00874796
0.00361713
0.00868745
0.00398273
0.00862106
0.00857879
0.00435785
-1.59524e-05
3.24544e-05
-4.74105e-05
0.000261078
-8.32998e-05
0.000640776
-0.000115905
0.00110504
-0.000139951
0.00161595
-0.000151872
0.00215017
-0.00014923
0.00269227
-0.000130331
0.00323178
-9.39689e-05
0.00376156
-3.92627e-05
0.00427659
3.44412e-05
0.00477313
0.000127608
0.00524819
0.000240527
0.00569912
0.000373319
0.00612346
0.000525953
0.00651885
0.000698256
0.00688295
0.000889942
0.00721356
0.00110065
0.00750856
0.00132995
0.00776603
0.00157746
0.0079843
0.00184278
0.00816199
0.00212566
0.00829817
0.00242594
0.00839241
0.00274369
0.00844503
0.00307921
0.00845735
0.00343303
0.00843227
0.00380576
0.00837522
0.00419764
0.00829557
0.00460755
0.00821115
0.00815631
0.00503003
-1.60104e-05
4.84649e-05
-4.69509e-05
0.000292018
-8.11187e-05
0.000674944
-0.000110388
0.00113431
-0.000129226
0.00163479
-0.000133922
0.00215487
-0.000121979
0.00268033
-9.16984e-05
0.0032015
-4.19054e-05
0.00371176
2.82344e-05
0.00420645
0.000119326
0.00468204
0.000231788
0.00513573
0.000365874
0.00556504
0.000521678
0.00596766
0.000699148
0.00634138
0.000898098
0.006684
0.00111822
0.00699343
0.00135913
0.00726765
0.00162037
0.0075048
0.00190146
0.0077032
0.00220197
0.00786149
0.0025215
0.00797864
0.00285978
0.00805413
0.00321676
0.00808805
0.00359261
0.00808149
0.00398784
0.00803704
0.00440319
0.00795987
0.00483928
0.00785948
0.00529562
0.00775481
0.00768451
0.00576742
-1.60423e-05
6.45072e-05
-4.63553e-05
0.000322331
-7.85959e-05
0.000707184
-0.000104214
0.00115993
-0.0001174
0.00164797
-0.000114285
0.00215176
-9.22898e-05
0.00265833
-4.96959e-05
0.00315891
1.46539e-05
0.00364741
0.000101559
0.00411954
0.000211576
0.00457203
0.000345081
0.00500223
0.000502285
0.00540783
0.00068325
0.00578669
0.000887898
0.00613673
0.00111602
0.00645588
0.00136728
0.00674217
0.00164125
0.00699368
0.00193744
0.00720861
0.00225527
0.00738537
0.00259419
0.00752256
0.00295368
0.00761916
0.00333328
0.00767452
0.00373272
0.00768861
0.00415199
0.00766222
0.00459143
0.0075976
0.00505178
0.00749952
0.00553389
0.00737737
0.00603791
0.00725079
0.00716251
0.00655991
-1.60695e-05
8.05767e-05
-4.56874e-05
0.000351949
-7.58582e-05
0.000737355
-9.75944e-05
0.00118167
-0.000104801
0.00165518
-9.34271e-05
0.00214038
-6.07978e-05
0.00262571
-5.15581e-06
0.00310327
7.46541e-05
0.0035676
0.000179407
0.00401479
0.00030962
0.00444181
0.000465623
0.00484622
0.000647585
0.00522587
0.000855527
0.00557875
0.00108934
0.00590292
0.00134877
0.00619645
0.00163345
0.00645749
0.00194291
0.00668423
0.00227655
0.00687497
0.00263373
0.00702819
0.00301373
0.00714256
0.00341585
0.00721704
0.00383942
0.00725096
0.00428389
0.00724414
0.00474895
0.00719716
0.00523467
0.00711189
0.00574161
0.00699257
0.00627076
0.00684822
0.00682279
0.00669876
0.00659049
0.00739481
-1.61089e-05
9.66856e-05
-4.49966e-05
0.000380837
-7.30053e-05
0.000765364
-9.07026e-05
0.00119936
-9.16994e-05
0.00165618
-7.1753e-05
0.00212044
-2.80731e-05
0.00258203
4.11503e-05
0.00303404
0.000137088
0.00347167
0.000260502
0.00389137
0.000411877
0.00429044
0.000591499
0.0046666
0.000799488
0.00501788
0.00103582
0.00534242
0.00130034
0.0056384
0.00159275
0.00590404
0.00191262
0.00613762
0.00225939
0.00633745
0.0026324
0.00650196
0.00303086
0.00662973
0.0034539
0.00671952
0.00390057
0.00677036
0.00436995
0.00678158
0.00486115
0.00675294
0.00537349
0.00668482
0.00590665
0.00657873
0.0064609
0.00643832
0.00703718
0.00627194
0.0076366
0.00609934
0.00596971
0.00825738
-1.6171e-05
0.000112857
-4.43128e-05
0.000408978
-7.01e-05
0.000791151
-8.36543e-05
0.00121292
-7.82915e-05
0.00165081
-4.95679e-05
0.00209171
5.4302e-06
0.00252703
8.85827e-05
0.00295089
0.000201088
0.00335916
0.000343706
0.00374876
0.000516896
0.00411725
0.0007209
0.0044626
0.000955788
0.00478299
0.00122148
0.00507672
0.00151776
0.00534212
0.00184427
0.00557754
0.00220051
0.00578139
0.00258582
0.00595214
0.00299941
0.00608837
0.00344036
0.00618879
0.00390758
0.0062523
0.00439989
0.00627804
0.00491605
0.00626542
0.00545479
0.0062142
0.00601497
0.00612464
0.00659579
0.0059979
0.00719709
0.00583703
0.00781958
0.00564945
0.00846471
0.00545421
0.00530251
0.00913191
-1.62585e-05
0.000129115
-4.36415e-05
0.000436361
-6.71584e-05
0.000814667
-7.64911e-05
0.00122225
-6.46663e-05
0.00163899
-2.70385e-05
0.00205409
3.94335e-05
0.00246056
0.000136709
0.00285362
0.000266024
0.00322985
0.000428145
0.00358663
0.00062351
0.00392188
0.000852319
0.00423379
0.00111459
0.00452072
0.00141017
0.00478114
0.00173878
0.00501351
0.00209998
0.00521634
0.00249316
0.0053882
0.00291758
0.00552772
0.00337229
0.00563365
0.0038562
0.00570488
0.00436801
0.00574049
0.00490626
0.00573979
0.00546936
0.00570232
0.00605562
0.00562794
0.00666338
0.00551688
0.00729124
0.00537005
0.00793842
0.00518984
0.00860524
0.00498263
0.00929331
0.00476614
0.00459245
0.0100034
-1.63647e-05
0.00014548
-4.29606e-05
0.000462957
-6.41424e-05
0.000835849
-6.91668e-05
0.00122728
-5.07851e-05
0.00162061
-4.15853e-06
0.00200746
7.3881e-05
0.00238252
0.000185374
0.00274212
0.000331602
0.00308362
0.00051334
0.00340489
0.000731007
0.00370421
0.000984759
0.00398004
0.00127455
0.00423093
0.00160017
0.00445552
0.00196125
0.00465243
0.00235724
0.00482035
0.00278744
0.004958
0.00325097
0.0050642
0.00374674
0.00513788
0.00427348
0.00517815
0.00482965
0.00518431
0.00541353
0.00515591
0.00602315
0.0050927
0.00665635
0.00499474
0.00731088
0.00486235
0.00798461
0.00469632
0.00867593
0.00449853
0.00938441
0.00427414
0.0101115
0.00403901
0.00384453
0.0108595
-1.6473e-05
0.000161953
-4.22178e-05
0.000488702
-6.09544e-05
0.000854586
-6.1538e-05
0.00122786
-3.64655e-05
0.00159554
1.92791e-05
0.00195172
0.000108982
0.00229281
0.000234763
0.00261634
0.000397949
0.00292043
0.000599323
0.00320352
0.000839283
0.00346425
0.00111794
0.00370138
0.00143519
0.00391368
0.00179073
0.00409998
0.00218409
0.00425907
0.00261464
0.0043898
0.00308155
0.00449109
0.00358379
0.00456195
0.00412015
0.00460152
0.00468916
0.00460914
0.00528908
0.00458439
0.00591791
0.00452707
0.00657333
0.00443729
0.0072527
0.00431537
0.00795311
0.00416194
0.00867153
0.0039779
0.00940517
0.00376488
0.0101523
0.00352697
0.0109137
0.00327766
0.00306563
0.0116926
-1.65568e-05
0.000178509
-4.13307e-05
0.000513476
-5.74366e-05
0.000870692
-5.33606e-05
0.00122378
-2.13731e-05
0.00156355
4.36953e-05
0.00188665
0.000145237
0.00219127
0.000285441
0.00247614
0.000465675
0.0027402
0.000686724
0.00298247
0.000948961
0.00320202
0.00125245
0.00339789
0.001597
0.00356913
0.00198225
0.00371473
0.00240761
0.0038337
0.00287233
0.00392508
0.00337546
0.00398796
0.00391585
0.00402156
0.00449213
0.00402524
0.00510269
0.00399859
0.0057456
0.00394147
0.00641864
0.00385403
0.00711919
0.00373674
0.00784416
0.0035904
0.00858997
0.00341613
0.00935252
0.00321536
0.0101274
0.00298995
0.0109109
0.00274351
0.0117013
0.00248731
0.00226523
0.0125017
-1.65803e-05
0.00019509
-4.01884e-05
0.000537084
-5.3374e-05
0.000883877
-4.42941e-05
0.0012147
-5.02736e-06
0.00152428
6.97231e-05
0.0018119
0.000183437
0.00207756
0.00033836
0.00232121
0.00053589
0.00254267
0.000776805
0.00274155
0.00106144
0.00291738
0.00138981
0.00306952
0.00176166
0.00319728
0.00217649
0.0032999
0.00263364
0.00337656
0.00313221
0.00342651
0.00367115
0.00344903
0.00424916
0.00344354
0.00486476
0.00340964
0.00551619
0.00334716
0.00620141
0.00325625
0.00691806
0.00313739
0.00766331
0.00299149
0.00843379
0.00281992
0.00922534
0.00262458
0.0100328
0.00240791
0.0108497
0.00217299
0.011669
0.00192422
0.0124842
0.00167215
0.00145506
0.0132944
-1.65e-05
0.000211589
-3.86555e-05
0.000559239
-4.85016e-05
0.000893723
-3.39133e-05
0.00120012
1.31852e-05
0.00147718
9.81885e-05
0.00172689
0.000224643
0.0019511
0.000394837
0.00215102
0.000610178
0.00232733
0.000871429
0.0024803
0.00117889
0.00260992
0.00153249
0.00271592
0.00193188
0.00279789
0.00237648
0.00285529
0.00286549
0.00288756
0.00339788
0.00289411
0.00397246
0.00287445
0.0045878
0.00282819
0.00524231
0.00275514
0.0059341
0.00265536
0.00666109
0.00252926
0.00742084
0.00237763
0.00821055
0.00220178
0.00902683
0.00200364
0.00986545
0.00178596
0.0107207
0.00155266
0.0115844
0.00130926
0.0124446
0.00106402
0.0132842
0.000832576
0.000645781
0.0140935
-1.62669e-05
0.000227856
-3.65776e-05
0.00057955
-4.25148e-05
0.00089966
-2.17253e-05
0.00117933
3.39838e-05
0.00142147
0.000130073
0.0016308
0.000270135
0.00181104
0.00045648
0.00196467
0.000690509
0.0020933
0.000972953
0.00219786
0.00130405
0.00227883
0.00168364
0.00233632
0.00211129
0.00237024
0.00258626
0.00238032
0.00310761
0.00236621
0.00367418
0.00232755
0.00428459
0.00226404
0.00493728
0.0021755
0.00563049
0.00206193
0.00636225
0.00192361
0.00713038
0.00176113
0.0079325
0.00157551
0.00876598
0.0013683
0.00962791
0.00114171
0.0105149
0.00089894
0.0114229
0.000644704
0.0123459
0.000386262
0.0132729
0.000137034
0.0141735
-6.80598e-05
0.0149552
-0.000135933
0.00333641
0.0638516
-0.0643847
0.00392512
0.059512
-0.0601007
0.00450452
0.0541154
-0.0546948
0.00509231
0.0494215
-0.0500093
0.00563831
0.0460232
-0.0465692
0.0060987
0.0439145
-0.0443749
0.0064402
0.0428377
-0.0431792
0.00665105
0.0424416
-0.0426524
0.00673961
0.0424551
-0.0425437
0.00672526
0.0427148
-0.0427004
0.00663025
0.0431478
-0.0430528
0.00647444
0.0437129
-0.0435571
0.00627241
0.0443835
-0.0441814
0.0060348
0.0451256
-0.044888
0.00576934
0.045903
-0.0456376
0.00548183
0.0466882
-0.0464007
0.00517687
0.0474602
-0.0471553
0.00485868
0.0482011
-0.0478829
0.00453035
0.0489048
-0.0485765
0.00419425
0.0495645
-0.0492284
0.00385278
0.0501731
-0.0498317
0.003507
0.0507332
-0.0503874
0.0031585
0.0512377
-0.0508892
0.00280773
0.0516892
-0.0513384
0.00245523
0.0520831
-0.0517306
0.00210105
0.0524213
-0.0520671
0.00174504
0.0527063
-0.0523503
0.00138804
0.0529575
-0.0526005
0.0010324
0.0531848
-0.0528292
0.0533453
-0.0529951
0.00315264
0.0632727
0.0038019
0.0588627
0.00444092
0.0534764
0.00509009
0.0487723
0.00569128
0.045422
0.00619696
0.0434088
0.0065725
0.0424622
0.00680674
0.0422073
0.00690935
0.0423525
0.00690192
0.0427222
0.00680868
0.0432411
0.00665121
0.0438704
0.00644494
0.0445898
0.00620186
0.0453687
0.00592936
0.0461755
0.00563377
0.0469838
0.00532016
0.0477738
0.00499228
0.0485289
0.00465364
0.0492435
0.00430703
0.0499111
0.00395414
0.050526
0.00359709
0.0510902
0.00323674
0.051598
0.00287411
0.0520518
0.00250965
0.0524475
0.00214354
0.0527874
0.00177574
0.0530741
0.00140746
0.0533257
0.00104076
0.0535515
0.0537065
0.00297535
0.0626574
0.00368004
0.0581581
0.0043765
0.0527799
0.00508623
0.0480626
0.00574277
0.0447654
0.00629422
0.0428574
0.00670431
0.0420521
0.0069624
0.0419492
0.00707944
0.0422355
0.00707923
0.0427224
0.00698792
0.0433324
0.00682891
0.0440294
0.00661853
0.0448001
0.00637001
0.0456172
0.00609064
0.0464549
0.00578709
0.0472874
0.00546495
0.048096
0.00512751
0.0488664
0.00477863
0.0495923
0.00442152
0.0502682
0.00405723
0.0508903
0.00368886
0.0514586
0.00331661
0.0519703
0.00294207
0.0524264
0.00256555
0.052824
0.0021874
0.0531656
0.00180765
0.0534539
0.00142791
0.0537055
0.00104984
0.0539296
0.0540789
0.0028095
0.0620156
0.00356352
0.057404
0.00431424
0.0520292
0.0050827
0.0472941
0.00579396
0.0440542
0.00639109
0.0422602
0.00683587
0.0416073
0.00711805
0.0416671
0.0072498
0.0421037
0.00725702
0.0427152
0.00716781
0.0434216
0.00700727
0.0441899
0.00679305
0.0450144
0.00653902
0.0458712
0.00625299
0.0467409
0.00594171
0.0475987
0.00561098
0.0484267
0.0052642
0.0492132
0.00490522
0.0499513
0.00453747
0.0506359
0.0041621
0.0512657
0.00378218
0.0518385
0.00339815
0.0523543
0.00301155
0.052813
0.0026229
0.0532127
0.00223259
0.0535559
0.00184082
0.0538457
0.00144931
0.054097
0.00105969
0.0543192
0.0544631
0.00266074
0.0613573
0.00345684
0.0566079
0.00425757
0.0512284
0.00508177
0.0464699
0.00584608
0.0432899
0.00648818
0.0416181
0.00696744
0.041128
0.00727367
0.0413608
0.00742028
0.0419571
0.0074351
0.0427004
0.00734812
0.0435086
0.00718612
0.0443519
0.00696827
0.0452322
0.00670868
0.0461308
0.00641616
0.0470334
0.00609739
0.0479174
0.00575807
0.048766
0.00540214
0.0495691
0.00503324
0.0503202
0.00465481
0.0510144
0.00426852
0.051652
0.00387696
0.0522301
0.00348117
0.0527501
0.00308249
0.0532117
0.00268162
0.0536136
0.0022791
0.0539584
0.00187519
0.0542496
0.00147164
0.0545005
0.00107026
0.0547206
0.0548593
0.00253554
0.0606923
0.00336519
0.0557783
0.00421022
0.0503834
0.00508586
0.0455943
0.00590063
0.0424751
0.00658619
0.0409326
0.00709924
0.040615
0.00742929
0.0410308
0.00759081
0.0417956
0.00761327
0.0426779
0.00752867
0.0435932
0.0073653
0.0445152
0.00714389
0.0454536
0.0068789
0.0463958
0.00657997
0.0473324
0.00625384
0.0482436
0.00590612
0.0491138
0.00554114
0.0499341
0.00516246
0.0506989
0.00477346
0.0514034
0.00437627
0.0520492
0.00397318
0.0526332
0.00356559
0.0531577
0.00315483
0.0536224
0.00274168
0.0540267
0.00232687
0.0543732
0.0019107
0.0546657
0.00149493
0.0549163
0.00108152
0.055134
0.0552681
0.00244096
0.0600297
0.00329422
0.054925
0.00417637
0.0495013
0.00509768
0.044673
0.00595916
0.0416136
0.0066859
0.0402058
0.00723158
0.0400693
0.00758495
0.0406774
0.00776125
0.0416193
0.00779136
0.0426478
0.00770924
0.0436753
0.0075446
0.0446799
0.00731968
0.0456786
0.00704947
0.046666
0.00674421
0.0476376
0.00641087
0.0485769
0.00605494
0.0494697
0.00568102
0.050308
0.00529269
0.0510872
0.00489328
0.0518028
0.0044852
0.0524572
0.00407069
0.0530477
0.0036513
0.0535771
0.00322846
0.0540453
0.002803
0.0544522
0.00237583
0.0548004
0.0019473
0.0550943
0.00151914
0.0553445
0.00109344
0.0555597
0.0556897
0.00238448
0.0593782
0.00325003
0.0540595
0.00416054
0.0485907
0.00512017
0.0437133
0.00602338
0.0407104
0.00678818
0.039441
0.00736479
0.0394927
0.00774067
0.0403015
0.00793149
0.0414285
0.00796922
0.0426101
0.00788964
0.0437549
0.00772381
0.0448457
0.00749546
0.0459069
0.00722017
0.0469413
0.00690869
0.0479491
0.00656829
0.0489173
0.00620433
0.0498337
0.00582161
0.0506907
0.00542376
0.0514851
0.0050141
0.0522124
0.0045952
0.0528761
0.00416935
0.0534735
0.0037382
0.0540082
0.00330329
0.0544802
0.00286549
0.05489
0.0024259
0.0552399
0.00198493
0.0555352
0.00154422
0.0557852
0.00110598
0.0559979
0.0561243
0.00237383
0.0587453
0.00323902
0.0531943
0.00416753
0.0476622
0.00515653
0.0427243
0.00609516
0.0397718
0.00689399
0.0386422
0.00749926
0.0388874
0.00789652
0.0399043
0.00810142
0.0412236
0.00814666
0.0425648
0.00806964
0.0438319
0.00790273
0.0450126
0.00767101
0.0461386
0.00739079
0.0472215
0.00707323
0.0482667
0.00672589
0.0492646
0.00635409
0.0502055
0.00596272
0.0510821
0.0055555
0.0518923
0.00513574
0.0526322
0.00470612
0.0533057
0.00426901
0.0539106
0.00382616
0.0544511
0.0033792
0.0549271
0.00292907
0.0553401
0.002477
0.055692
0.00202351
0.0559887
0.00157013
0.0562386
0.00111909
0.056449
0.0565724
0.00241663
0.0581379
0.00326778
0.0523431
0.00420234
0.0467277
0.00521015
0.0417165
0.00617654
0.0388054
0.00700442
0.0378143
0.00763543
0.0382564
0.00805262
0.0394871
0.00827093
0.0410053
0.00832352
0.0425122
0.00824905
0.0439064
0.00808114
0.0451805
0.00784615
0.0463736
0.00756112
0.0475065
0.00723762
0.0485902
0.00688349
0.0496188
0.00650402
0.0505849
0.00610419
0.0514819
0.00568773
0.0523087
0.00525802
0.0530619
0.00481781
0.053746
0.00436953
0.0543589
0.00391505
0.0549056
0.00345607
0.0553861
0.00299363
0.0558025
0.00252905
0.0561566
0.00206296
0.0564548
0.00159681
0.0567047
0.00113276
0.056913
0.0570341
0.00252012
0.0575616
0.00334286
0.0515204
0.00427006
0.0458005
0.0052846
0.040702
0.00626971
0.0378203
0.00712064
0.0369634
0.00777382
0.0376032
0.00820906
0.0390518
0.00843996
0.0407744
0.00849962
0.0424526
0.00842765
0.0439784
0.00825883
0.0453493
0.00802067
0.0466118
0.00773096
0.0477962
0.00740167
0.0489195
0.0070409
0.0499795
0.00665395
0.0509719
0.00624582
0.05189
0.0058203
0.0527343
0.00538078
0.0535014
0.00493012
0.0541966
0.00447078
0.0548183
0.00400474
0.0553716
0.00353379
0.0558571
0.00305907
0.0562773
0.00258195
0.0566337
0.00210321
0.0569336
0.00162419
0.0571837
0.00114694
0.0573903
0.0575096
0.00269078
0.057021
0.0034705
0.0507407
0.00437574
0.0448952
0.00538356
0.0396942
0.006377
0.0368268
0.00724394
0.0360965
0.00791502
0.0369322
0.00836603
0.0386008
0.00860842
0.040532
0.00867479
0.0423862
0.00860524
0.0440479
0.00843558
0.045519
0.00819435
0.046853
0.00790009
0.0480905
0.00756518
0.0492544
0.00719794
0.0503468
0.00680369
0.0513661
0.00638744
0.0523063
0.00595304
0.0531687
0.00550386
0.0539506
0.00504291
0.0546576
0.00457259
0.0552886
0.00409512
0.0558491
0.00361223
0.05634
0.00312527
0.0567642
0.00263561
0.0571234
0.00214418
0.057425
0.00165221
0.0576757
0.0011616
0.0578809
0.0579992
0.00293394
0.0565198
0.00365635
0.0500183
0.00452423
0.0440274
0.00551068
0.0387077
0.00650084
0.0358367
0.00737568
0.0352216
0.00805967
0.0362482
0.00852369
0.0381368
0.00877628
0.0402794
0.00884886
0.0423136
0.00878162
0.0441151
0.00861117
0.0456895
0.00836698
0.0470972
0.00806834
0.0483891
0.00772798
0.0495948
0.00735441
0.0507203
0.00695306
0.0517675
0.00652888
0.0527305
0.00608579
0.0536118
0.00562711
0.0544093
0.00515603
0.0551287
0.00467486
0.0557698
0.00418603
0.0563379
0.00369128
0.0568347
0.00319213
0.0572634
0.00268993
0.0576256
0.00218578
0.0579291
0.0016808
0.0581807
0.0011767
0.058385
0.058503
0.00325344
0.0560606
0.00390512
0.0493666
0.0047199
0.0432126
0.00566948
0.0377581
0.00664367
0.0348625
0.00751734
0.0343479
0.00820849
0.035557
0.00868227
0.037663
0.0089435
0.0400182
0.00902165
0.0422355
0.00895658
0.0441802
0.00878539