/*--------------------------------*- C++ -*----------------------------------*\
  =========                 |
  \\      /  F ield         | OpenFOAM: The Open Source CFD Toolbox
   \\    /   O peration     | Website:  https://openfoam.org
    \\  /    A nd           | Version:  7
     \\/     M anipulation  |
\*---------------------------------------------------------------------------*/
FoamFile
{
    version     2.0;
    format      ascii;
    class       volScalarField;
    location    "7.5";
    object      p;
}
// * * * * * * * * * * * * * * * * * * * * * * * * * * * * * * * * * * * * * //

dimensions      [0 2 -2 0 0 0 0];

internalField   nonuniform List<scalar> 
18000
(
0.491801
0.492694
0.493211
0.493696
0.494075
0.494374
0.494648
0.494955
0.495347
0.495866
0.496553
0.497447
0.498587
0.500005
0.501715
0.503721
0.506023
0.508617
0.511497
0.514648
0.518049
0.521668
0.525474
0.529433
0.533515
0.537685
0.541915
0.546175
0.550423
0.554592
0.491315
0.492143
0.492618
0.493055
0.493388
0.493639
0.493865
0.494123
0.494461
0.494925
0.495553
0.496379
0.497441
0.498768
0.500376
0.502272
0.504456
0.506924
0.50967
0.512678
0.515929
0.519395
0.523045
0.526847
0.530771
0.534785
0.538863
0.542975
0.54707
0.551106
0.490847
0.491603
0.49203
0.492416
0.492703
0.492912
0.493098
0.493314
0.493608
0.494024
0.4946
0.495369
0.496363
0.49761
0.499127
0.500921
0.502995
0.505345
0.507963
0.510835
0.513941
0.517256
0.520751
0.524395
0.52816
0.532017
0.535938
0.539894
0.543829
0.547723
0.490381
0.491056
0.491437
0.491776
0.492023
0.492198
0.492351
0.492534
0.492792
0.493169
0.493702
0.494423
0.495359
0.496536
0.49797
0.499672
0.501645
0.503885
0.506382
0.509123
0.512088
0.515255
0.518595
0.522082
0.525687
0.529383
0.533143
0.536937
0.540703
0.544446
0.489933
0.490522
0.490857
0.491149
0.491359
0.491504
0.49163
0.491786
0.492016
0.492363
0.492863
0.493543
0.49443
0.495545
0.496908
0.498528
0.500409
0.502546
0.504927
0.507541
0.51037
0.513391
0.51658
0.51991
0.523354
0.526886
0.530479
0.534105
0.537695
0.541277
0.489497
0.489994
0.490281
0.49053
0.490706
0.490826
0.490932
0.491069
0.49128
0.491606
0.492081
0.492728
0.493574
0.494638
0.49594
0.49749
0.499287
0.501326
0.503598
0.506091
0.508788
0.511668
0.514708
0.517882
0.521164
0.524528
0.527951
0.531402
0.534809
0.538221
0.489077
0.489476
0.489717
0.489923
0.490069
0.490168
0.49026
0.490386
0.490588
0.490901
0.491357
0.49198
0.492793
0.493818
0.49507
0.496558
0.498279
0.500227
0.502395
0.504773
0.507344
0.510086
0.51298
0.515999
0.519118
0.522312
0.525559
0.528829
0.532047
0.535281
0.488671
0.488969
0.489163
0.489328
0.489445
0.489528
0.489613
0.489737
0.489936
0.490244
0.49069
0.491297
0.492088
0.493083
0.494295
0.495729
0.497381
0.499246
0.501319
0.503588
0.506037
0.508646
0.511396
0.514262
0.517218
0.520239
0.523306
0.52639
0.529413
0.532461
0.488274
0.48847
0.488617
0.488742
0.488834
0.488906
0.488991
0.48912
0.489324
0.489635
0.490078
0.490678
0.491457
0.492432
0.493613
0.495001
0.496592
0.498383
0.500366
0.502532
0.504865
0.507347
0.509957
0.512671
0.515463
0.518311
0.521195
0.524089
0.526912
0.529766
0.487886
0.487977
0.488077
0.488164
0.488234
0.488301
0.488391
0.488531
0.488749
0.48907
0.48952
0.490123
0.490899
0.491863
0.493021
0.494371
0.49591
0.497633
0.499534
0.501604
0.503828
0.506187
0.508661
0.511225
0.513855
0.516528
0.519228
0.521929
0.524549
0.527201
0.487501
0.487486
0.487541
0.487591
0.487644
0.48771
0.487812
0.48797
0.488207
0.488547
0.489012
0.489627
0.49041
0.491371
0.492513
0.493834
0.495329
0.496994
0.498821
0.500801
0.502922
0.505164
0.507506
0.509923
0.512392
0.514892
0.517406
0.519912
0.522327
0.524771
0.487115
0.486995
0.487005
0.487022
0.487062
0.487132
0.48725
0.487433
0.487697
0.488062
0.488551
0.489187
0.489984
0.490951
0.492086
0.493387
0.494847
0.49646
0.49822
0.500119
0.502143
0.504274
0.506489
0.508763
0.511075
0.513403
0.515732
0.518041
0.52025
0.52248
0.486723
0.486497
0.486465
0.486453
0.486484
0.486563
0.486703
0.486915
0.487212
0.48761
0.488131
0.488795
0.489616
0.490596
0.491733
0.493021
0.494454
0.496024
0.497725
0.499551
0.501486
0.503512
0.505605
0.507741
0.509899
0.512058
0.514204
0.516318
0.518321
0.520335
0.486319
0.485988
0.485917
0.485879
0.485905
0.485998
0.486165
0.486412
0.486748
0.487186
0.487746
0.488446
0.489297
0.4903
0.491447
0.49273
0.494143
0.495678
0.497329
0.499089
0.500943
0.50287
0.504848
0.506852
0.508861
0.510856
0.512821
0.514743
0.516545
0.518339
0.485896
0.485462
0.485356
0.485296
0.485322
0.485432
0.48563
0.485918
0.486298
0.486782
0.487388
0.488132
0.489022
0.490053
0.491217
0.492503
0.493903
0.495411
0.497021
0.498724
0.500505
0.502341
0.50421
0.506089
0.507955
0.50979
0.511582
0.513316
0.514923
0.516498
0.485449
0.484915
0.484776
0.484698
0.484728
0.48486
0.485094
0.485426
0.485856
0.486391
0.487049
0.487844
0.488779
0.489846
0.491033
0.492329
0.493725
0.495215
0.496792
0.498446
0.500161
0.501914
0.503681
0.50544
0.507171
0.508856
0.51048
0.512035
0.513456
0.514814
0.484972
0.484341
0.484173
0.484081
0.484118
0.484276
0.484548
0.484929
0.485413
0.486006
0.486722
0.487574
0.48856
0.489668
0.490885
0.492198
0.493597
0.495076
0.496629
0.498242
0.499898
0.501575
0.503247
0.504896
0.5065
0.508042
0.509509
0.510895
0.512139
0.513287
0.484459
0.483735
0.483542
0.48344
0.483488
0.483674
0.483988
0.484421
0.484963
0.485618
0.486399
0.487313
0.488354
0.489509
0.490761
0.492097
0.493506
0.494983
0.496518
0.498097
0.499702
0.501308
0.502894
0.50444
0.505927
0.507338
0.508659
0.509886
0.510968
0.511913
0.483903
0.483091
0.482876
0.482768
0.482831
0.483047
0.483406
0.483893
0.484497
0.48522
0.48607
0.48705
0.488151
0.489356
0.490648
0.492013
0.493439
0.49492
0.496444
0.497996
0.499555
0.501098
0.502604
0.504056
0.505436
0.506727
0.507914
0.508997
0.509931
0.510685
0.483298
0.482404
0.482171
0.482062
0.482142
0.482391
0.482796
0.483339
0.484008
0.484802
0.485726
0.486776
0.48794
0.489199
0.490535
0.491932
0.493381
0.49487
0.496389
0.497918
0.499437
0.500923
0.502358
0.503724
0.505008
0.50619
0.507257
0.508209
0.509014
0.509593
0.482636
0.481666
0.48142
0.481313
0.481414
0.481699
0.48215
0.482752
0.483489
0.484358
0.485357
0.48648
0.487709
0.489024
0.490406
0.491841
0.493315
0.494818
0.496335
0.497846
0.499329
0.500763
0.502132
0.503422
0.504618
0.505704
0.506664
0.507502
0.508196
0.508618
0.481911
0.480872
0.480617
0.480517
0.480642
0.480963
0.481464
0.482125
0.482931
0.483876
0.484953
0.486149
0.487444
0.488817
0.490248
0.491722
0.493226
0.494744
0.496261
0.497756
0.499207
0.500594
0.501903
0.503122
0.504239
0.505239
0.506106
0.506846
0.50745
0.50774
0.481117
0.480017
0.479756
0.479666
0.479818
0.480179
0.480729
0.481451
0.482328
0.48335
0.484505
0.485774
0.487135
0.488566
0.490047
0.491562
0.493094
0.494629
0.496148
0.497628
0.499048
0.50039
0.501642
0.502796
0.50384
0.504763
0.505549
0.506208
0.506746
0.506931
0.480247
0.479094
0.478832
0.478756
0.478936
0.479338
0.47994
0.480723
0.481671
0.482769
0.484001
0.485342
0.486768
0.488257
0.489788
0.491342
0.492904
0.494454
0.495973
0.497437
0.498827
0.500124
0.501321
0.502411
0.503386
0.504238
0.504953
0.505547
0.506041
0.506154
0.479295
0.4781
0.477839
0.477781
0.477992
0.478436
0.479089
0.479934
0.480953
0.482127
0.483433
0.484843
0.486332
0.487877
0.489456
0.491049
0.492637
0.4942
0.495716
0.497163
0.498518
0.49977
0.500909
0.501934
0.50284
0.503622
0.504272
0.504814
0.505286
0.505367
0.478257
0.477029
0.476774
0.476736
0.47698
0.477467
0.478173
0.479079
0.480168
0.481415
0.482792
0.484268
0.485817
0.487414
0.489038
0.490666
0.492276
0.493848
0.495357
0.496781
0.498098
0.499298
0.500375
0.501329
0.50216
0.502869
0.503454
0.503949
0.50442
0.504514
0.477128
0.475877
0.475633
0.475618
0.475896
0.476427
0.477185
0.478153
0.479309
0.480626
0.482069
0.483607
0.485211
0.486856
0.48852
0.490177
0.491805
0.493379
0.494876
0.49627
0.497542
0.498681
0.499686
0.500559
0.501304
0.501927
0.502436
0.502881
0.503359
0.503521
0.475903
0.474642
0.474412
0.474424
0.474739
0.475313
0.476123
0.47715
0.478371
0.479753
0.481257
0.48285
0.484504
0.486192
0.48789
0.48957
0.491207
0.492777
0.494252
0.495607
0.496824
0.497893
0.498813
0.499588
0.500226
0.500739
0.501147
0.501517
0.502
0.502302
0.474579
0.473321
0.47311
0.473153
0.473505
0.474122
0.474983
0.476067
0.477348
0.478789
0.480349
0.481991
0.483688
0.485411
0.487134
0.488828
0.490466
0.492021
0.493465
0.494771
0.495922
0.496906
0.497724
0.498379
0.498881
0.499245
0.499502
0.499748
0.500227
0.500819
0.473155
0.471913
0.471727
0.471803
0.472194
0.472853
0.473762
0.4749
0.476236
0.47773
0.479337
0.481022
0.482752
0.484502
0.48624
0.487938
0.489566
0.491095
0.492496
0.493741
0.494812
0.495698
0.496394
0.496902
0.497224
0.497369
0.497363
0.497314
0.497488
0.498062
0.568548
0.587223
0.601093
0.611435
0.618443
0.623518
0.626989
0.629416
0.631016
0.632006
0.632505
0.632582
0.632302
0.63173
0.630908
0.629853
0.628603
0.627195
0.625632
0.623919
0.622073
0.620098
0.61801
0.615829
0.613555
0.611219
0.608856
0.606505
0.604424
0.602669
0.565023
0.583395
0.597391
0.607815
0.614936
0.620118
0.623688
0.626215
0.62791
0.628988
0.629558
0.629717
0.629519
0.629022
0.628251
0.627254
0.626063
0.624699
0.623177
0.62151
0.619697
0.617756
0.615697
0.61353
0.61128
0.608952
0.606605
0.604261
0.602177
0.600426
0.561552
0.579571
0.593667
0.604166
0.611402
0.616697
0.620372
0.623009
0.624802
0.625972
0.626613
0.626854
0.626738
0.626317
0.625597
0.624661
0.623529
0.622211
0.620731
0.61911
0.617331
0.615426
0.613398
0.61125
0.609026
0.60671
0.60438
0.602047
0.599958
0.598213
0.55813
0.575754
0.589925
0.600491
0.607844
0.613256
0.617043
0.619793
0.621689
0.622954
0.623679
0.624
0.62396
0.623606
0.622952
0.622077
0.621001
0.619732
0.618297
0.616717
0.614977
0.613106
0.611111
0.608993
0.606792
0.604498
0.602182
0.599859
0.59777
0.596026
0.554756
0.571947
0.586165
0.59679
0.604259
0.609797
0.613704
0.616571
0.618572
0.619937
0.620755
0.621153
0.621186
0.620897
0.620316
0.619501
0.618478
0.617261
0.615872
0.614332
0.612635
0.610798
0.608838
0.606755
0.604579
0.602313
0.60001
0.597699
0.595612
0.593866
0.551434
0.568157
0.582384
0.593062
0.600649
0.60632
0.610355
0.613345
0.615457
0.616924
0.617835
0.618311
0.618418
0.618196
0.617684
0.616931
0.615961
0.614796
0.613456
0.611957
0.610304
0.608504
0.60658
0.604535
0.602386
0.60015
0.597864
0.595566
0.593483
0.591734
0.548165
0.564386
0.578581
0.589308
0.597013
0.602824
0.606996
0.610117
0.612344
0.613914
0.614921
0.615475
0.615658
0.615504
0.615059
0.614367
0.613452
0.61234
0.611049
0.609593
0.607983
0.606225
0.604338
0.602331
0.600214
0.598009
0.595744
0.59346
0.591383
0.589632
0.544948
0.56064
0.574758
0.585526
0.59335
0.599309
0.603627
0.606887
0.609236
0.61091
0.612014
0.612648
0.612907
0.612821
0.612442
0.611812
0.610952
0.609892
0.608652
0.60724
0.605675
0.603959
0.602113
0.600146
0.598062
0.595891
0.59365
0.591382
0.589312
0.587558
0.541784
0.556923
0.570914
0.581716
0.589657
0.595774
0.600248
0.603654
0.606131
0.607914
0.609115
0.609831
0.610166
0.610149
0.609835
0.609267
0.608463
0.607455
0.606264
0.604899
0.603378
0.601708
0.599903
0.597979
0.595931
0.593795
0.591582
0.589332
0.587269
0.585514
0.538677
0.553242
0.567053
0.577878
0.585933
0.592216
0.596857
0.600419
0.60303
0.604926
0.606226
0.607025
0.607436
0.607489
0.607239
0.606733
0.605984
0.605029
0.603886
0.602569
0.601095
0.59947
0.59771
0.59583
0.593821
0.591721
0.58954
0.587311
0.585256
0.583499
0.535631
0.549603
0.563177
0.574011
0.582176
0.588635
0.593455
0.597182
0.599935
0.601947
0.603348
0.604232
0.604718
0.60484
0.604654
0.604209
0.603516
0.602613
0.601519
0.600251
0.598824
0.597247
0.595533
0.593699
0.591731
0.58967
0.587524
0.585317
0.583272
0.581512
0.532651
0.546014
0.559288
0.570116
0.578386
0.585029
0.59004
0.593943
0.596846
0.59898
0.600483
0.601452
0.602013
0.602205
0.602083
0.601697
0.601059
0.600208
0.599163
0.597943
0.596567
0.595037
0.593371
0.591585
0.589663
0.587641
0.585533
0.583352
0.581318
0.579556
0.529743
0.542483
0.555394
0.566193
0.574559
0.581394
0.586611
0.590702
0.593763
0.596025
0.597632
0.598688
0.599323
0.599583
0.599524
0.599197
0.598613
0.597814
0.596818
0.595648
0.594322
0.592841
0.591225
0.589488
0.587614
0.585636
0.583569
0.581416
0.579395
0.577631
0.526915
0.539019
0.5515
0.562243
0.570696
0.577729
0.583166
0.587459
0.590689
0.593083
0.594796
0.595939
0.596649
0.596977
0.59698
0.596709
0.596179
0.595431
0.594485
0.593364
0.59209
0.590659
0.589093
0.587409
0.585585
0.583653
0.58163
0.579509
0.577504
0.575737
0.524176
0.535631
0.547615
0.558268
0.566795
0.574032
0.579705
0.584213
0.587622
0.590154
0.591975
0.593206
0.593991
0.594387
0.594451
0.594234
0.593757
0.59306
0.592164
0.591092
0.589871
0.58849
0.586977
0.585346
0.583576
0.581692
0.579717
0.577632
0.575645
0.573877
0.521534
0.532332
0.54375
0.554271
0.562857
0.570301
0.576225
0.580962
0.584563
0.587238
0.589172
0.590492
0.591351
0.591814
0.591937
0.591773
0.591347
0.5907
0.589856
0.588831
0.587664
0.586335
0.584875
0.583298
0.581586
0.579753
0.577829
0.575785
0.57382
0.57205
0.518999
0.529131
0.539917
0.550257
0.558882
0.566536
0.572725
0.577708
0.581511
0.584337
0.586385
0.587796
0.588729
0.589258
0.589439
0.589325
0.58895
0.588352
0.587559
0.586583
0.585468
0.584193
0.582786
0.581265
0.579612
0.577834
0.575965
0.573967
0.572028
0.570259
0.516581
0.526042
0.536129
0.546235
0.554874
0.562738
0.569204
0.57445
0.578467
0.581451
0.583617
0.58512
0.586126
0.586718
0.586955
0.586891
0.586566
0.586016
0.585273
0.584345
0.583283
0.582062
0.58071
0.579245
0.577653
0.575935
0.574125
0.572179
0.570273
0.568505
0.514289
0.523077
0.532403
0.542213
0.550837
0.558907
0.565663
0.571187
0.575431
0.578581
0.58087
0.582465
0.583544
0.584196
0.584488
0.584472
0.584195
0.583691
0.582999
0.58212
0.581108
0.579942
0.578645
0.577237
0.575708
0.574053
0.572308
0.570422
0.568555
0.566792
0.512131
0.520249
0.528753
0.538202
0.546778
0.555046
0.562102
0.567919
0.572404
0.575729
0.578143
0.579832
0.580982
0.581693
0.582036
0.582069
0.581838
0.581379
0.580735
0.579905
0.578943
0.577832
0.576589
0.575239
0.573776
0.572189
0.570513
0.568695
0.566877
0.565123
0.510115
0.51757
0.5252
0.534216
0.542706
0.551157
0.558521
0.564644
0.569384
0.572894
0.575437
0.577222
0.578441
0.579209
0.579602
0.579681
0.579495
0.579079
0.578482
0.577701
0.576787
0.57573
0.574543
0.573251
0.571855
0.57034
0.56874
0.566999
0.56524
0.563501
0.508248
0.515051
0.521761
0.530268
0.538631
0.547247
0.554921
0.561363
0.566371
0.570075
0.572753
0.574634
0.575922
0.576745
0.577186
0.577308
0.577165
0.576792
0.57624
0.575506
0.57464
0.573635
0.572504
0.571272
0.569945
0.568506
0.566987
0.565333
0.563647
0.561933
0.506537
0.5127
0.518454
0.526377
0.534568
0.543322
0.551306
0.558077
0.563364
0.567273
0.570091
0.572069
0.573426
0.574302
0.574788
0.574951
0.574848
0.574517
0.574008
0.573321
0.5725
0.571548
0.570471
0.5693
0.568043
0.566684
0.565253
0.563697
0.562101
0.560423
0.504989
0.510525
0.515295
0.522562
0.530531
0.539394
0.54768
0.554787
0.560365
0.564486
0.567449
0.569528
0.570952
0.57188
0.572409
0.57261
0.572547
0.572256
0.571788
0.571145
0.570368
0.569466
0.568444
0.567334
0.566147
0.564872
0.563535
0.56209
0.560602
0.558978
0.503611
0.50853
0.512301
0.518845
0.526537
0.535473
0.544048
0.551496
0.557374
0.561717
0.564831
0.567012
0.568503
0.56948
0.57005
0.570286
0.57026
0.570007
0.569577
0.568977
0.568242
0.567389
0.566421
0.565372
0.564256
0.563067
0.561831
0.560509
0.559152
0.557609
0.502413
0.506718
0.509484
0.515248
0.522608
0.531573
0.54042
0.548207
0.554393
0.558967
0.562236
0.56452
0.566079
0.567102
0.56771
0.56798
0.567988
0.56777
0.567376
0.566816
0.566122
0.565317
0.564402
0.563413
0.562367
0.561265
0.560137
0.558951
0.557751
0.556326
0.501408
0.505086
0.506856
0.51179
0.518767
0.527712
0.536808
0.54493
0.551425
0.556237
0.559668
0.562056
0.56368
0.564747
0.56539
0.565692
0.565731
0.565546
0.565184
0.564663
0.564008
0.563247
0.562383
0.561455
0.560479
0.559465
0.558447
0.55741
0.556399
0.555145
0.500603
0.503629
0.504431
0.508498
0.515041
0.523907
0.533216
0.541653
0.548456
0.553512
0.557109
0.559604
0.561294
0.562405
0.563081
0.563413
0.563482
0.563327
0.562996
0.56251
0.561893
0.561176
0.560363
0.559493
0.558586
0.557659
0.556755
0.555879
0.55509
0.554086
0.499974
0.502288
0.502177
0.505356
0.511402
0.520107
0.529565
0.538294
0.545405
0.55072
0.5545
0.557115
0.558881
0.560042
0.560756
0.56112
0.561218
0.561095
0.560795
0.560345
0.559766
0.559092
0.55833
0.557518
0.556678
0.555839
0.55505
0.554345
0.553813
0.553174
0.499935
0.501027
0.500001
0.502248
0.507706
0.51619
0.525787
0.534834
0.54229
0.5479
0.551888
0.554637
0.556486
0.5577
0.558448
0.558843
0.558968
0.558873
0.558601
0.558182
0.557639
0.557005
0.55629
0.55553
0.554754
0.553996
0.553318
0.552784
0.55254
0.552425
0.503144
0.498215
0.493538
0.492568
0.496257
0.504531
0.515096
0.525505
0.5342
0.540713
0.545246
0.54826
0.550203
0.551427
0.552158
0.552539
0.552659
0.552573
0.552323
0.551943
0.551458
0.550898
0.550282
0.549644
0.549019
0.548458
0.548057
0.547978
0.548577
0.550442
0.483627
0.480764
0.476711
0.476113
0.480241
0.488991
0.500137
0.511124
0.520328
0.527249
0.532091
0.535334
0.537453
0.538818
0.539671
0.540167
0.5404
0.540435
0.540312
0.540069
0.539731
0.539326
0.53888
0.538427
0.538011
0.5377
0.537612
0.53796
0.5392
0.541942
0.460816
0.461363
0.460036
0.46167
0.467039
0.476054
0.487045
0.497834
0.506947
0.513899
0.518849
0.522229
0.524487
0.525979
0.526953
0.527565
0.527917
0.528073
0.528079
0.52797
0.527773
0.527515
0.527225
0.526936
0.526695
0.526571
0.526683
0.527236
0.528691
0.531654
0.43956
0.443401
0.445195
0.448944
0.455255
0.46418
0.474602
0.484818
0.493572
0.500397
0.505381
0.508869
0.511255
0.512876
0.513974
0.51471
0.515186
0.51547
0.515608
0.515633
0.515574
0.515458
0.51531
0.515165
0.515066
0.515079
0.515313
0.515957
0.517442
0.520411
0.420374
0.426903
0.431344
0.436697
0.443687
0.452456
0.462222
0.471718
0.479967
0.486565
0.491536
0.495132
0.497673
0.499457
0.500714
0.501602
0.502227
0.502655
0.502934
0.503097
0.503173
0.503188
0.503167
0.503142
0.503152
0.503259
0.503561
0.504229
0.505653
0.50851
0.402523
0.410849
0.417203
0.4238
0.431391
0.440074
0.449259
0.458065
0.465807
0.472167
0.477126
0.480851
0.483587
0.485585
0.487048
0.488131
0.488936
0.489532
0.489967
0.490276
0.490487
0.490627
0.490719
0.490793
0.490887
0.491055
0.491386
0.492038
0.493363
0.496062
0.385367
0.394757
0.402404
0.409951
0.418016
0.426625
0.435347
0.443608
0.450949
0.457129
0.462108
0.465989
0.468955
0.471204
0.472914
0.474228
0.475244
0.476033
0.476642
0.477108
0.477459
0.477721
0.477918
0.478078
0.478237
0.478445
0.478783
0.479399
0.48061
0.48313
0.368537
0.378538
0.387024
0.395213
0.403564
0.412084
0.420472
0.428355
0.435424
0.441498
0.44653
0.450585
0.453794
0.456313
0.458295
0.459865
0.461116
0.462118
0.462918
0.463553
0.464051
0.464439
0.464739
0.464981
0.465197
0.465435
0.465769
0.466338
0.467432
0.469769
0.351804
0.362148
0.371134
0.379704
0.388202
0.396638
0.404802
0.412437
0.419331
0.425352
0.430459
0.43469
0.43814
0.440933
0.443193
0.44503
0.446529
0.447758
0.448763
0.449578
0.450233
0.450752
0.45116
0.451484
0.451756
0.452023
0.452352
0.452871
0.453843
0.455976
0.335017
0.345525
0.35478
0.363562
0.372134
0.380502
0.388509
0.395976
0.402759
0.408762
0.413951
0.418351
0.42203
0.425085
0.427618
0.429721
0.431473
0.432935
0.434151
0.435154
0.435973
0.436632
0.437155
0.437568
0.437901
0.438199
0.438525
0.439
0.439858
0.441784
0.318076
0.328633
0.338015
0.34691
0.355514
0.363822
0.371712
0.379061
0.385772
0.391778
0.397051
0.401606
0.405496
0.408795
0.411584
0.413945
0.415944
0.417637
0.419064
0.420259
0.421246
0.422051
0.422696
0.423205
0.423609
0.423947
0.424277
0.424708
0.425452
0.427156
0.300918
0.311453
0.320879
0.329824
0.338433
0.346684
0.354483
0.361748
0.368414
0.374436
0.379789
0.384486
0.388564
0.392083
0.39511
0.397711
0.399945
0.40186
0.403494
0.404877
0.406035
0.406988
0.407758
0.408369
0.408848
0.409233
0.409578
0.409985
0.410637
0.412124
0.283503
0.29397
0.30339
0.312345
0.32094
0.329141
0.33687
0.344075
0.350715
0.356758
0.362186
0.367008
0.371253
0.374969
0.37821
0.381031
0.383482
0.385605
0.387434
0.388998
0.39032
0.391421
0.39232
0.393039
0.393601
0.39404
0.394404
0.394784
0.395347
0.396621
0.265798
0.276169
0.285556
0.294497
0.303071
0.311228
0.318903
0.326064
0.33269
0.338757
0.344253
0.349184
0.353575
0.357463
0.360893
0.363911
0.366558
0.368872
0.370883
0.372617
0.374094
0.375334
0.376354
0.377176
0.377823
0.378327
0.378729
0.379109
0.379614
0.380686
0.247781
0.258038
0.267383
0.276302
0.28485
0.292969
0.300602
0.30773
0.314347
0.320438
0.325994
0.331019
0.335534
0.33957
0.343163
0.346352
0.349173
0.351658
0.353832
0.35572
0.357343
0.358716
0.359857
0.360782
0.361508
0.362065
0.362491
0.362859
0.363309
0.36419
0.229444
0.239573
0.24888
0.257775
0.266296
0.274381
0.281978
0.289081
0.295692
0.301803
0.307407
0.31251
0.317127
0.321285
0.325016
0.328351
0.331322
0.333955
0.336274
0.338297
0.340044
0.341531
0.342776
0.343797
0.34461
0.345237
0.34571
0.346089
0.346503
0.347209
0.210793
0.220785
0.230065
0.238938
0.247427
0.255476
0.26304
0.270121
0.276725
0.28285
0.288491
0.293652
0.29835
0.302606
0.306447
0.3099
0.312993
0.31575
0.318192
0.320337
0.3222
0.323793
0.325129
0.326223
0.327091
0.327757
0.328251
0.328624
0.329
0.329526
0.191866
0.201703
0.210965
0.219814
0.228261
0.236267
0.243797
0.250855
0.257448
0.263577
0.269239
0.274439
0.279192
0.283517
0.287439
0.290983
0.294172
0.297025
0.299561
0.301795
0.303743
0.305421
0.306843
0.308019
0.308958
0.309676
0.310196
0.310568
0.310912
0.311279
0.172745
0.182391
0.191629
0.200436
0.20882
0.21677
0.22426
0.231289
0.237862
0.243982
0.249648
0.254865
0.259648
0.264014
0.267984
0.271585
0.274838
0.277765
0.280379
0.28269
0.284708
0.286441
0.287904
0.289112
0.290079
0.290817
0.291341
0.29169
0.291981
0.292152
0.153572
0.162959
0.172127
0.18085
0.189134
0.197003
0.20444
0.21143
0.217971
0.224063
0.229709
0.234913
0.239692
0.244065
0.248053
0.251677
0.254957
0.257912
0.260557
0.262909
0.264977
0.26677
0.268291
0.269545
0.270541
0.271293
0.271815
0.272141
0.272384
0.272387
0.134565
0.14357
0.152563
0.161119
0.169242
0.176993
0.184354
0.191289
0.197779
0.203824
0.209424
0.214588
0.219332
0.223673
0.227637
0.231248
0.234529
0.237494
0.240151
0.242506
0.244568
0.246351
0.247866
0.24912
0.250115
0.250852
0.251337
0.251594
0.251742
0.251504
0.116005
0.124441
0.133076
0.141327
0.1492
0.156777
0.164027
0.170879
0.17729
0.183251
0.188766
0.193848
0.198514
0.202783
0.206678
0.210221
0.21344
0.216357
0.218988
0.221341
0.223414
0.225205
0.226719
0.227964
0.228947
0.229672
0.230131
0.230331
0.230378
0.229923
0.0981877
0.105816
0.113834
0.121591
0.129088
0.13641
0.143495
0.150226
0.156526
0.162375
0.167773
0.172734
0.177273
0.181418
0.185201
0.188648
0.191777
0.194602
0.197133
0.199388
0.201379
0.20311
0.204577
0.205775
0.206706
0.207369
0.207752
0.207844
0.207728
0.206951
0.0813705
0.0879326
0.0950338
0.102063
0.109024
0.115976
0.122808
0.129345
0.135469
0.141141
0.146364
0.151146
0.155501
0.159456
0.163048
0.166316
0.169296
0.172006
0.174453
0.176635
0.178553
0.180211
0.181615
0.182764
0.183656
0.184282
0.184613
0.184605
0.184299
0.183219
0.06572
0.0709881
0.0768859
0.0829399
0.0891723
0.0956052
0.102074
0.108337
0.114227
0.119675
0.124666
0.129205
0.133312
0.137025
0.140381
0.143411
0.146143
0.148608
0.150836
0.152837
0.154607
0.156135
0.157416
0.158447
0.159232
0.159771
0.160026
0.159894
0.159327
0.157796
0.0512998
0.0551405
0.0596183
0.0644643
0.06975
0.0754599
0.0813632
0.0871701
0.0926825
0.0978005
0.102473
0.10668
0.110437
0.113799
0.116832
0.119585
0.122084
0.124341
0.126365
0.128171
0.129767
0.131155
0.132324
0.133258
0.133952
0.134417
0.134626
0.134417
0.133585
0.131652
0.0380794
0.0405079
0.0434596
0.046898
0.051054
0.0558738
0.0610341
0.0662175
0.0712139
0.0758828
0.0801303
0.0839123
0.0872347
0.0901422
0.0927
0.0949815
0.0970485
0.0989318
0.100634
0.102153
0.103486
0.104636
0.1056
0.106365
0.106914
0.107261
0.107407
0.107144
0.106036
0.103594
0.0259504
0.0271331
0.0286139
0.0304861
0.0332999
0.036922
0.0409669
0.0451941
0.0494264
0.0534547
0.0571031
0.0602989
0.0630633
0.0654636
0.06757
0.0694377
0.0711071
0.0726055
0.0739523
0.0751591
0.0762261
0.0771462
0.0779121
0.0785118
0.0789234
0.0791563
0.0792658
0.0790679
0.077848
0.075119
0.0146855
0.0148838
0.015037
0.0155424
0.0173591
0.0197637
0.0224191
0.0253555
0.0284944
0.0315854
0.0343706
0.0367062
0.0385921
0.0401353
0.0414669
0.0426681
0.0437587
0.0447341
0.0455983
0.0463671
0.0470495
0.0476403
0.0481287
0.0485043
0.0487423
0.0488239
0.0488256
0.0487306
0.0477244
0.0449847
0.00434844
0.00328382
-1.30264e-05
-0.000772066
0.00126934
0.00281954
0.00404607
0.0054939
0.00723043
0.00905445
0.0107395
0.0121378
0.0132117
0.0140177
0.0146496
0.0151831
0.0156557
0.0160756
0.0164453
0.0167722
0.0170619
0.0173125
0.0175188
0.0176794
0.0177824
0.0177832
0.0176908
0.0176748
0.0174591
0.0156292
0.484855
0.465728
0.445789
0.426784
0.409157
0.392175
0.375469
0.358878
0.342285
0.325606
0.30878
0.291753
0.274497
0.256985
0.239212
0.221186
0.202928
0.184506
0.166004
0.147564
0.129379
0.111682
0.0947286
0.0787205
0.0638057
0.0500423
0.0373942
0.0257399
0.0148461
0.00464934
0.482946
0.462197
0.442372
0.423368
0.405749
0.388792
0.372135
0.355613
0.339094
0.322488
0.305738
0.288786
0.271606
0.254171
0.236477
0.218536
0.200367
0.182048
0.163668
0.145379
0.127385
0.109918
0.0932321
0.0775131
0.0628953
0.0494179
0.0370251
0.0255757
0.0148281
0.00471481
0.480588
0.458212
0.438629
0.419779
0.402273
0.385409
0.36883
0.352382
0.335937
0.319404
0.302725
0.285846
0.268742
0.251385
0.233771
0.215916
0.197838
0.179623
0.161363
0.14322
0.125402
0.108142
0.0916912
0.0762294
0.0618869
0.0486914
0.0365667
0.0253434
0.0147589
0.00475704
0.47762
0.454139
0.434878
0.416219
0.398824
0.382057
0.36556
0.349188
0.332816
0.316354
0.299747
0.28294
0.26591
0.24863
0.231094
0.213322
0.195335
0.177225
0.159089
0.141096
0.123463
0.10642
0.0902154
0.0750172
0.0609484
0.0480231
0.0361477
0.0251313
0.0146933
0.00478678
0.474208
0.450074
0.431132
0.412683
0.3954
0.378736
0.362325
0.346033
0.329734
0.313343
0.296805
0.280069
0.263112
0.245907
0.228448
0.210759
0.192862
0.174856
0.156846
0.139007
0.121565
0.104746
0.0887945
0.0738666
0.0600737
0.0474127
0.0357722
0.0249442
0.0146357
0.00480648
0.470417
0.446028
0.427389
0.40917
0.392005
0.37545
0.359129
0.342917
0.326692
0.31037
0.293902
0.277236
0.260348
0.243217
0.225833
0.208226
0.19042
0.172519
0.154638
0.136958
0.119711
0.103122
0.087428
0.0727733
0.0592547
0.0468508
0.0354321
0.024776
0.0145836
0.0048174
0.466294
0.442007
0.423652
0.405685
0.388642
0.372202
0.355974
0.339841
0.32369
0.307438
0.291038
0.27444
0.257621
0.240561
0.223251
0.205725
0.18801
0.170215
0.152467
0.13495
0.117904
0.101551
0.086119
0.0717396
0.058492
0.046336
0.0351251
0.0246247
0.0145362
0.00482091
0.461902
0.438015
0.419929
0.402229
0.385317
0.368992
0.35286
0.336807
0.32073
0.304548
0.288215
0.271684
0.254932
0.237941
0.220704
0.203257
0.185633
0.167947
0.150334
0.132986
0.116147
0.100034
0.0848696
0.0707671
0.0577862
0.0458682
0.0348506
0.0244902
0.0144937
0.00481871
0.45731
0.434051
0.416226
0.398803
0.382032
0.365822
0.349787
0.333816
0.317813
0.301701
0.285435
0.268968
0.252282
0.235359
0.218193
0.200823
0.183291
0.165715
0.148242
0.131067
0.11444
0.0985749
0.0836807
0.0698552
0.0571357
0.0454457
0.0346068
0.0243714
0.0144557
0.00482528
0.452585
0.430117
0.412551
0.395408
0.378789
0.362693
0.346758
0.33087
0.314941
0.298898
0.282697
0.266295
0.249674
0.232816
0.215719
0.198426
0.180987
0.163524
0.146192
0.129196
0.112787
0.0971729
0.0825518
0.0690021
0.0565381
0.0450654
0.0343908
0.0242666
0.014421
0.00481668
0.44779
0.426211
0.408911
0.392046
0.375589
0.359608
0.343772
0.327968
0.312113
0.296139
0.280003
0.263665
0.247107
0.230313
0.213284
0.196068
0.178722
0.161373
0.144188
0.127374
0.111188
0.0958295
0.0814825
0.0682056
0.0559901
0.0447237
0.0341995
0.0241741
0.0143894
0.00480682
0.442977
0.422335
0.405311
0.388719
0.372432
0.356569
0.340832
0.325111
0.30933
0.293425
0.277353
0.26108
0.244583
0.227851
0.210889
0.19375
0.176498
0.159267
0.14223
0.125605
0.109646
0.0945459
0.0804726
0.0674643
0.0554893
0.0444176
0.0340303
0.0240922
0.0143607
0.00479667
0.438192
0.418491
0.401757
0.385431
0.369321
0.353576
0.337938
0.3223
0.306593
0.290756
0.274749
0.258538
0.242102
0.225431
0.208537
0.191474
0.174318
0.157205
0.140323
0.123891
0.108163
0.0933242
0.0795229
0.0667775
0.0550336
0.0441446
0.0338813
0.0240199
0.0143347
0.00478651
0.433472
0.414687
0.398253
0.382186
0.366257
0.350631
0.335091
0.319536
0.303903
0.288135
0.272191
0.256041
0.239664
0.223055
0.206228
0.189242
0.172182
0.155192
0.138469
0.122236
0.106744
0.0921662
0.0786341
0.0661448
0.0546214
0.0439024
0.0337506
0.0239561
0.0143113
0.00477691
0.428847
0.410928
0.394805
0.378986
0.363242
0.347735
0.332294
0.316822
0.301262
0.285562
0.26968
0.253589
0.237271
0.220723
0.203963
0.187054
0.170092
0.153229
0.13667
0.120642
0.105388
0.091073
0.0778063
0.0655655
0.0542507
0.0436885
0.0336362
0.0238997
0.0142903
0.00476809
0.424335
0.407221
0.391414
0.375837
0.360277
0.34489
0.329547
0.314158
0.29867
0.283037
0.267217
0.251184
0.234924
0.218436
0.201743
0.184912
0.16805
0.151317
0.134928
0.119109
0.104097
0.0900446
0.0770386
0.0650376
0.0539188
0.0435002
0.0335361
0.0238495
0.0142714
0.00476018
0.419952
0.403575
0.388086
0.37274
0.357364
0.342098
0.326853
0.311547
0.29613
0.280563
0.264802
0.248827
0.232625
0.216195
0.199569
0.182817
0.166057
0.149459
0.133244
0.117638
0.102871
0.0890804
0.0763293
0.0645583
0.0536226
0.0433346
0.0334482
0.0238047
0.0142544
0.00475325
0.415706
0.399997
0.384822
0.369699
0.354503
0.339359
0.324212
0.308988
0.293643
0.278139
0.262438
0.246519
0.230373
0.214001
0.197441
0.180768
0.164115
0.147655
0.131619
0.11623
0.10171
0.0881789
0.075676
0.0641246
0.0533588
0.0431888
0.0333708
0.0237644
0.0142392
0.00474734
0.411601
0.396491
0.381625
0.366716
0.351698
0.336675
0.321625
0.306482
0.291208
0.275768
0.260125
0.244262
0.228171
0.211855
0.19536
0.17877
0.162225
0.145908
0.130054
0.114886