/*--------------------------------*- C++ -*----------------------------------*\
  =========                 |
  \\      /  F ield         | OpenFOAM: The Open Source CFD Toolbox
   \\    /   O peration     | Website:  https://openfoam.org
    \\  /    A nd           | Version:  7
     \\/     M anipulation  |
\*---------------------------------------------------------------------------*/
FoamFile
{
    version     2.0;
    format      ascii;
    class       surfaceScalarField;
    location    "7.5";
    object      phi;
}
// * * * * * * * * * * * * * * * * * * * * * * * * * * * * * * * * * * * * * //

dimensions      [0 3 -1 0 0 0 0];

internalField   nonuniform List<scalar> 
35640
(
1.65928e-05
-0.000272382
0.000255789
5.76458e-05
-0.000517542
0.000476489
0.00011905
-0.000503842
0.000442438
0.000198563
-0.000298951
0.000219437
0.000295036
4.98833e-05
-0.000146355
0.000407907
0.000508276
-0.000621147
0.000536893
0.00105005
-0.00117904
0.000681774
0.0016548
-0.00179968
0.000842304
0.00230647
-0.002467
0.00101812
0.00299214
-0.00316796
0.00120869
0.00370111
-0.00389167
0.00141323
0.00442419
-0.00462873
0.00163078
0.00515328
-0.00537082
0.00186013
0.00588105
-0.0061104
0.00209987
0.00660077
-0.00684051
0.00234839
0.00730619
-0.00755472
0.00260394
0.00799155
-0.0082471
0.00286466
0.00865154
-0.00891225
0.0031286
0.00928141
-0.00954535
0.00339383
0.009877
-0.0101422
0.00365846
0.0104348
-0.0106994
0.00392071
0.0109519
-0.0112142
0.00417895
0.0114262
-0.0116845
0.00443176
0.0118562
-0.012109
0.00467799
0.0122409
-0.0124871
0.00491679
0.0125797
-0.0128185
0.00514767
0.0128724
-0.0131032
0.00537053
0.0131181
-0.013341
0.00558554
0.013316
-0.013531
0.0134631
0.00579304
-0.0136706
1.5226e-05
-0.000287608
5.27357e-05
-0.000555052
0.000108642
-0.000559748
0.000180978
-0.000371287
0.000268844
-3.79822e-05
0.000371868
0.000405252
0.000489961
0.000931962
0.000623085
0.00152168
0.000771141
0.00215841
0.000933887
0.00282939
0.00111091
0.00352409
0.00130158
0.00423352
0.00150506
0.00494979
0.0017203
0.0056658
0.00194607
0.00637501
0.0021809
0.00707136
0.0024232
0.00774924
0.00267127
0.00840347
0.00292333
0.00902935
0.00317759
0.00962275
0.00343226
0.0101801
0.00368566
0.0106985
0.00393623
0.0111757
0.00418258
0.0116098
0.0044236
0.0119998
0.00465842
0.0123449
0.00488651
0.0126443
0.00510765
0.012897
0.00532187
0.0131018
0.0132558
0.00552915
1.37626e-05
-0.000301371
4.75204e-05
-0.000588809
9.76697e-05
-0.000609897
0.000162553
-0.00043617
0.000241573
-0.000117002
0.000334608
0.000312217
0.000441775
0.000824795
0.00056318
0.00140027
0.00069886
0.00202273
0.000848713
0.00267954
0.00101245
0.00336036
0.00118956
0.00405641
0.00137934
0.00476001
0.00158087
0.00546427
0.00179303
0.00616285
0.00201452
0.00684987
0.00224391
0.00751985
0.00247964
0.00816774
0.00272007
0.00878893
0.0029635
0.00937931
0.00320828
0.00993533
0.00345281
0.010454
0.00369561
0.0109329
0.00393534
0.0113701
0.00417088
0.0117643
0.00440137
0.0121144
0.00462622
0.0124194
0.00484511
0.0126781
0.00505787
0.012889
0.0130496
0.00526414
1.2219e-05
-0.00031359
4.19238e-05
-0.000618514
8.59917e-05
-0.000653965
0.000143159
-0.000493337
0.000213146
-0.000186988
0.000296074
0.000229289
0.000392265
0.000728605
0.000502007
0.00129053
0.000625467
0.00189927
0.000762662
0.00254235
0.000913419
0.0032096
0.00107735
0.00389248
0.00125385
0.00458352
0.00144211
0.00527601
0.00164116
0.00596381
0.00184981
0.00664122
0.00206676
0.0073029
0.00229058
0.00794392
0.00251974
0.00855977
0.00275268
0.00914637
0.00298784
0.00970017
0.0032237
0.0102181
0.00345884
0.0106977
0.00369197
0.011137
0.00392198
0.0115343
0.00414798
0.0118884
0.00436934
0.0121981
0.0045856
0.0124618
0.00479638
0.0126783
0.0128449
0.00500101
1.05339e-05
-0.000324123
3.59593e-05
-0.00064394
7.36981e-05
-0.000691704
0.000122914
-0.000542552
0.000183679
-0.000247754
0.000256414
0.000156554
0.000341632
0.000643387
0.00043979
0.00119237
0.000551202
0.00178786
0.000676003
0.00241755
0.000814121
0.00307148
0.00096527
0.00374133
0.00112896
0.00441983
0.00130448
0.00510048
0.00149095
0.00577733
0.00168733
0.00644484
0.0018924
0.00709783
0.00210486
0.00773147
0.00232328
0.00834134
0.00254621
0.00892344
0.00277219
0.0094742
0.00299976
0.00999056
0.00322755
0.0104699
0.00345432
0.0109102
0.00367895
0.0113096
0.00390053
0.0116668
0.00411835
0.0119803
0.00433182
0.0122483
0.00454034
0.0124697
0.0126424
0.00474292
8.74854e-06
-0.000332872
2.96555e-05
-0.000664847
6.08037e-05
-0.000722852
0.000101864
-0.000583612
0.00015328
-0.00029917
0.000215757
9.40774e-05
0.000290029
0.000569114
0.000376731
0.00110567
0.000476306
0.00168828
0.000589005
0.00230485
0.000714861
0.00294562
0.000853688
0.0036025
0.00100508
0.00426844
0.00116843
0.00493713
0.00134295
0.00560281
0.00152769
0.0062601
0.00172155
0.00690396
0.00192332
0.00752971
0.00213166
0.00813299
0.00234523
0.00870987
0.00256262
0.00925681
0.00278245
0.00977072
0.00300341
0.010249
0.00322425
0.0106894
0.00344387
0.01109
0.00366131
0.0114494
0.00387576
0.0117658
0.00408649
0.0120376
0.00429267
0.0122636
0.0124421
0.00449296
6.84099e-06
-0.000339713
2.3025e-05
-0.00068103
4.7381e-05
-0.000747208
8.01205e-05
-0.000616351
0.000122089
-0.000341138
0.000174305
4.18611e-05
0.00023772
0.000505699
0.000313134
0.00103026
0.000401134
0.00160028
0.000502084
0.0022039
0.000616111
0.0028316
0.000743117
0.0034755
0.000882787
0.00412877
0.0010346
0.00478532
0.00119786
0.00543956
0.00137169
0.00608627
0.0015551
0.00672056
0.00174694
0.00733786
0.00194599
0.00793394
0.00215096
0.0085049
0.00236052
0.00904725
0.00257335
0.00955789
0.00278815
0.0100342
0.00300371
0.0104738
0.0032189
0.0108748
0.00343269
0.0112356
0.00364417
0.0115543
0.00385244
0.0118293
0.0040564
0.0120596
0.0122441
0.00425441
4.8235e-06
-0.000344536
1.61069e-05
-0.000692314
3.34956e-05
-0.000764596
5.77991e-05
-0.000640655
9.02877e-05
-0.000373626
0.000132292
-1.43724e-07
0.000184991
0.000453001
0.000249355
0.000965895
0.000326107
0.00152353
0.000415716
0.00211429
0.000518403
0.00272891
0.000634157
0.00335974
0.000762741
0.00400018
0.000903715
0.00464434
0.00105646
0.00528681
0.0012202
0.00592253
0.00139399
0.00654677
0.00157679
0.00715507
0.00176743
0.00774329
0.00196471
0.00830762
0.00216735
0.00884461
0.00237406
0.00935118
0.00258359
0.00982465
0.0027947
0.0102627
0.00300623
0.0106633
0.00321709
0.0110247
0.00342623
0.0113452
0.00363255
0.011623
0.0038347
0.0118574
0.0120481
0.0040307
2.70324e-06
-0.00034724
8.93607e-06
-0.000698546
1.92315e-05
-0.000774891
3.50368e-05
-0.00065646
5.80682e-05
-0.000396658
8.99765e-05
-3.20518e-05
0.000132171
0.000410807
0.00018579
0.000912275
0.000251687
0.00145764
0.000330432
0.00203554
0.000422339
0.002637
0.000527474
0.00325461
0.000645675
0.00388198
0.000776581
0.00451344
0.000919651
0.00514374
0.00107417
0.00576801
0.00123928
0.00638166
0.001414
0.00698035
0.00159725
0.00756005
0.00178786
0.00811701
0.0019846
0.00864786
0.00218624
0.00914954
0.00239152
0.00961937
0.0025992
0.010055
0.00280808
0.0104544
0.00301695
0.0108158
0.00322461
0.0111375
0.00342977
0.0114179
0.00363079
0.0116564
0.0118535
0.00382535
4.93214e-07
-0.000347733
1.55951e-06
-0.000699612
4.68007e-06
-0.000778012
1.19805e-05
-0.00066376
2.56415e-05
-0.000410318
4.7639e-05
-5.40489e-05
7.96119e-05
0.000378835
0.000122865
0.000869023
0.000178373
0.00140213
0.000246809
0.00196711
0.000328566
0.00255525
0.000423785
0.00315939
0.000532381
0.00377339
0.000654064
0.00439175
0.000788361
0.00500944
0.000934627
0.00562175
0.00109207
0.00622421
0.00125977
0.00681264
0.00143672
0.0073831
0.00162179
0.00793194
0.00181381
0.00845584
0.00201156
0.00895179
0.00221379
0.00941714
0.00241924
0.00984956
0.00262664
0.010247
0.00283468
0.0106078
0.00304199
0.0109302
0.00324705
0.0112128
0.00344793
0.0114555
0.0116595
0.00364198
-1.78988e-06
-0.000345943
-5.97496e-06
-0.000695427
-1.00601e-05
-0.000773926
-1.12102e-05
-0.00066261
-6.76649e-06
-0.000414762
5.57444e-06
-6.63895e-05
2.76856e-05
0.000356724
6.10269e-05
0.000835682
0.000106693
0.00135646
0.000165448
0.00190835
0.000237763
0.00248293
0.000323851
0.0030733
0.000423696
0.00367354
0.000537076
0.00427837
0.000663582
0.00488294
0.000802633
0.00548269
0.000953505
0.00607334
0.00111534
0.0066508
0.00128718
0.00721127
0.00146795
0.00775117
0.00165652
0.00826727
0.00185168
0.00875662
0.0020522
0.00921662
0.00225678
0.00964498
0.00246408
0.0100397
0.00267268
0.0103992
0.00288102
0.0107219
0.00308734
0.0110065
0.00328942
0.0112535
0.0114646
0.00348424
-4.12859e-06
-0.000341814
-1.36113e-05
-0.000685944
-2.48823e-05
-0.000762656
-3.43692e-05
-0.000653123
-3.8922e-05
-0.000410209
-3.59065e-05
-6.94046e-05
-2.32261e-05
0.000344044
7.35359e-07
0.000811721
3.71826e-05
0.00132002
8.69674e-05
0.00185857
0.000150631
0.00241927
0.000228452
0.00299548
0.00032048
0.00358151
0.000426557
0.0041723
0.000546333
0.00476316
0.000679291
0.00534974
0.000824769
0.00592786
0.000981968
0.00649361
0.00114997
0.00704326
0.00132777
0.00757337
0.00151426
0.00808078
0.00170827
0.00856262
0.00190855
0.00901634
0.00211377
0.00943976
0.00232253
0.00983099
0.00253327
0.0101885
0.00274428
0.0105109
0.00295353
0.0107972
0.0031585
0.0110485
0.0112673
0.0033558
-6.50481e-06
-0.000335309
-2.12936e-05
-0.000671155
-3.96771e-05
-0.000744272
-5.73253e-05
-0.000635474
-7.05871e-05
-0.000396947
-7.64981e-05
-6.34934e-05
-7.27397e-05
0.000340286
-5.75488e-05
0.00079653
-2.96155e-05
0.00129208
1.19899e-05
0.00181696
6.78743e-05
0.00236338
0.000138377
0.00292498
0.000223607
0.00349628
0.000323461
0.00407244
0.000437649
0.00464897
0.000565715
0.00522167
0.000707054
0.00578652
0.000860922
0.00633974
0.00102646
0.00687772
0.0012027
0.00739713
0.00138858
0.0078949
0.00158295
0.00836824
0.00178457
0.00881473
0.00199208
0.00923225
0.00220402
0.00961905
0.00241871
0.00997376
0.00263426
0.0102953
0.00284841
0.0105831
0.00305834
0.0108386
0.0110654
0.00326026
-8.89975e-06
-0.000326409
-2.8963e-05
-0.000651091
-5.43327e-05
-0.000718902
-7.99058e-05
-0.000609901
-0.000101523
-0.00037533
-0.000115891
-4.91254e-05
-0.000120475
0.00034487
-0.00011337
0.000789426
-9.31684e-05
0.00127188
-5.887e-05
0.00178267
-9.80961e-06
0.00231432
5.44066e-05
0.00286076
0.000133939
0.00341675
0.000228737
0.00397764
0.000338564
0.00453915
0.000463021
0.00509721
0.000601556
0.00564799
0.000753482
0.00618781
0.00091799
0.00671321
0.00109416
0.00722096
0.00128098
0.00770808
0.00147733
0.0081719
0.00168196
0.00861009
0.00189353
0.00902068
0.0021105
0.00940208
0.00233113
0.00975313
0.00255335
0.0100731
0.00277469
0.0103618
0.00299199
0.0106213
0.0108563
0.00320111
-1.12943e-05
-0.000315114
-3.65598e-05
-0.000625826
-6.87366e-05
-0.000686726
-0.000101938
-0.0005767
-0.000131492
-0.000345776
-0.000153781
-2.68364e-05
-0.00016606
0.00035715
-0.000166285
0.000789652
-0.000152959
0.00125855
-0.000125018
0.00175472
-8.17458e-05
0.00227105
-2.2701e-05
0.00280171
5.23205e-05
0.00334173
0.000143315
0.00388665
0.000250095
0.00443237
0.00037231
0.004975
0.00050946
0.00551084
0.000660911
0.00603636
0.000825906
0.00654822
0.00100358
0.00704329
0.00119295
0.0075187
0.00139295
0.0079719
0.00160237
0.00840067
0.00181986
0.00880319
0.00204386
0.00917808
0.00227256
0.00952443
0.00250378
0.00984189
0.00273484
0.0101307
0.00296231
0.0103938
0.010637
0.00318162
-1.36692e-05
-0.000301445
-4.40236e-05
-0.000595471
-8.27761e-05
-0.000647973
-0.00012325
-0.000536226
-0.000160263
-0.000308762
-0.000189875
2.77591e-06
-0.000209137
0.000376411
-0.00021587
0.000796386
-0.000208494
0.00125118
-0.000185889
0.00173212
-0.000147291
0.00223245
-9.22218e-05
0.00274664
-2.04393e-05
0.00326995
6.80907e-05
0.00379812
0.000173224
0.00432723
0.000294654
0.00485357
0.000431925
0.00537357
0.000584452
0.00588383
0.000751527
0.00638114
0.000932336
0.00686248
0.00112596
0.00732508
0.00133137
0.00776649
0.00154739
0.00818464
0.00177272
0.00857786
0.00200583
0.00894498
0.00224486
0.00928539
0.00248758
0.00959917
0.00273113
0.00988714
0.00297185
0.0101531
0.0104041
0.00320473
-1.6005e-05
-0.00028544
-5.12937e-05
-0.000560182
-9.63387e-05
-0.000602928
-0.000143673
-0.000488892
-0.000187609
-0.000264827
-0.000223888
3.90559e-05
-0.000249361
0.000401885
-0.000261722
0.000808747
-0.000259308
0.00124876
-0.000240951
0.00171376
-0.000205845
0.00219735
-0.000153479
0.00269428
-8.35823e-05
0.00320005
3.91155e-06
0.00371063
0.000108887
0.00422226
0.000231077
0.00473138
0.000370065
0.00523458
0.000525307
0.00572859
0.000696142
0.00621031
0.000881807
0.00667681
0.00108144
0.00712545
0.00129406
0.00755387
0.00151858
0.00796012
0.00175374
0.0083427
0.00199807
0.00870065
0.00224977
0.00903369
0.00250657
0.00934237
0.00276555
0.00962816
0.00302282
0.00989579
0.010154
0.00327296
-1.8282e-05
-0.000267158
-5.83091e-05
-0.000520155
-0.000109312
-0.000551925
-0.000163039
-0.000435164
-0.000213306
-0.00021456
-0.000255544
8.12943e-05
-0.000286405
0.000432746
-0.000303459
0.000825801
-0.000304968
0.00125027
-0.000289712
0.0016985
-0.000256852
0.00216448
-0.000205848
0.00264327
-0.00013641
0.00313061
-4.84485e-05
0.00362266
5.79495e-05
0.00411586
0.000182539
0.00460679
0.000324935
0.00509218
0.000484626
0.0055689
0.000660993
0.00603394
0.000853318
0.00648449
0.00106079
0.00691798
0.0012825
0.00733216
0.00151744
0.00772519
0.00176444
0.0080957
0.00202214
0.00844295
0.00228884
0.00876699
0.00256235
0.00906887
0.00283973
0.00935078
0.00311697
0.00961855
0.00988269
0.00338825
-2.04807e-05
-0.000246677
-6.50086e-05
-0.000475627
-0.000121585
-0.000495349
-0.000181184
-0.000375566
-0.000237138
-0.000158605
-0.000284575
0.000128732
-0.000319953
0.000468125
-0.000340721
0.00084657
-0.000345066
0.00125462
-0.000331717
0.00168516
-0.000299803
0.00213257
-0.000248764
0.00259224
-0.00017829
0.00306014
-8.82778e-05
0.00353265
2.12007e-05
0.00400638
0.000149919
0.00447807
0.000297509
0.00494459
0.000463485
0.00540292
0.000647255
0.00585017
0.000848137
0.00628361
0.00106537
0.00670075
0.00129811
0.00709942
0.00154543
0.00747786
0.0018063
0.00783483
0.00207949
0.00816975
0.00236348
0.008483
0.00265623
0.00877611
0.00295493
0.00905208
0.00325553
0.00931796
0.00958637
0.00355185
-2.25808e-05
-0.000224096
-7.13305e-05
-0.000426877
-0.000133043
-0.000433636
-0.000197939
-0.000310669
-0.000258885
-9.76594e-05
-0.000310714
0.000180561
-0.000349696
0.000507107
-0.00037316
0.000870034
-0.000379216
0.00126067
-0.000366542
0.00167248
-0.000334235
0.00210026
-0.000281715
0.00253971
-0.000208659
0.00298708
-0.000114953
0.00343895
-6.61065e-07
0.00389209
0.000133996
0.00434341
0.000288662
0.00478993
0.000462859
0.00522873
0.00065601
0.00565702
0.000867454
0.00607216
0.00109646
0.00647174
0.00134225
0.00685363
0.00160398
0.00721613
0.00188074
0.00755807
0.00217149
0.007879
0.00247493
0.00817956
0.0027893
0.00846174
0.00311202
0.00872936
0.00343912
0.00899085
0.00926126
0.00376423
-2.45616e-05
-0.000199535
-7.72113e-05
-0.000374228
-0.000143572
-0.000367276
-0.000213137
-0.000241104
-0.000278328
-3.24684e-05
-0.000333695
0.000235929
-0.000375326
0.000548738
-0.000400431
0.000895139
-0.000407043
0.00126729
-0.000393783
0.00165922
-0.000359715
0.0020662
-0.000304237
0.00248424
-0.000227014
0.00290986
-0.000127924
0.00333986
-7.02953e-06
0.00377119
0.00013545
0.00420093
0.000299154
0.00462622
0.000483604
0.00504428
0.000688219
0.0054524
0.000912337
0.00584804
0.00115524
0.00622883
0.00141618
0.00659269
0.00169439
0.00693793
0.00198907
0.00726339
0.00229937
0.0075687
0.00262427
0.00785466
0.00296235
0.00812365
0.00331141
0.00838031
0.00366776
0.0086345
0.00890403
0.00402499
-2.64016e-05
-0.000173133
-8.25854e-05
-0.000318044
-0.000153051
-0.000296811
-0.000226601
-0.000167554
-0.000295236
3.61676e-05
-0.00035324
0.000293933
-0.000396525
0.000592023
-0.000422183
0.000920798
-0.000428166
0.00127327
-0.000413036
0.00164409
-0.000375819
0.00202898
-0.000315888
0.00242431
-0.00023289
0.00282686
-0.0001267
0.00323367
2.62471e-06
0.00364187
0.000154857
0.0040487
0.000329627
0.00445145
0.00052644
0.00484746
0.000744695
0.00523415
0.00098371
0.00560903
0.00124275
0.00596979
0.00152105
0.00631439
0.00181788
0.0066411
0.00213252
0.00694875
0.00246428
0.00723695
0.00281242
0.00750652
0.00317593
0.00776014
0.00355312
0.00800312
0.00394082
0.0082468
0.00851203
0.00433282
-2.80787e-05
-0.000145054
-8.7385e-05
-0.000258738
-0.000161356
-0.00022284
-0.000238147
-9.07634e-05
-0.00030937
0.000107391
-0.000369055
0.000353618
-0.000412951
0.000635919
-0.000438037
0.000945883
-0.000442177
0.00127741
-0.000423874
0.00162579
-0.000382105
0.00198721
-0.000316214
0.00235841
-0.000225828
0.00273648
-0.00011081
0.00311865
2.87846e-05
0.00350227
0.000192724
0.00388476
0.000380624
0.00426355
0.000591964
0.00463612
0.00082611
0.005
0.00108233
0.00535281
0.00135984
0.00569228
0.00165783
0.0060164
0.00197551
0.00632341
0.00231218
0.00661208
0.00266724
0.00688189
0.00304017
0.00713359
0.00343039
0.00736991
0.00383683
0.00759668
0.00425705
0.00782658
0.00808361
0.00468548
-2.95698e-05
-0.000115484
-9.15391e-05
-0.000196769
-0.000168356
-0.000146023
-0.000247581
-1.1539e-05
-0.000320468
0.000180278
-0.00038082
0.000413969
-0.000424231
0.000679331
-0.000447571
0.000969223
-0.000448619
0.00127846
-0.00042581
0.00160298
-0.000378071
0.00193947
-0.000304708
0.00228505
-0.000205322
0.00263709
-7.97554e-05
0.00299308
7.19434e-05
0.00335058
0.000249541
0.00370716
0.00045264
0.00406045
0.000680693
0.00440807
0.000933019
0.00474768
0.00120883
0.005077
0.00150724
0.00539387
0.00182733
0.0056963
0.00216821
0.00598253
0.00252906
0.00625123
0.00290924
0.00650171
0.00330831
0.00673451
0.00372604
0.00695219
0.00416199
0.00716073
0.00461477
0.0073738
0.00761848
0.00507991
-3.08505e-05
-8.46339e-05
-9.49738e-05
-0.000132645
-0.000173915
-6.70818e-05
-0.000254695
6.92408e-05
-0.000328252
0.000253836
-0.000388182
0.0004739
-0.000429945
0.000721094
-0.000450305
0.000989583
-0.000446958
0.00127511
-0.000418271
0.00157429
-0.000363116
0.00188431
-0.000280756
0.00220269
-0.000170754
0.00252709
-3.29272e-05
0.00285525
0.000132691
0.00318496
0.000325875
0.00351398
0.00054622
0.00384011
0.000793158
0.00416113
0.00106596
0.00447487
0.00136376
0.0047792
0.00168557
0.00507206
0.00203031
0.00535156
0.00239687
0.00561597
0.00278419
0.0058639
0.00319139
0.00609452
0.00361787
0.00630803
0.00406347
0.00650658
0.00452832
0.00669588
0.00501224
0.00688988
0.0071181
0.00551261
-3.18959e-05
-5.27381e-05
-9.76128e-05
-6.69285e-05
-0.000177888
1.31929e-05
-0.000259267
0.00015062
-0.000332416
0.000326984
-0.000390752
0.000532236
-0.000429617
0.000759959
-0.000445682
0.00100565
-0.000436563
0.00126599
-0.000400561
0.00153829
-0.000336493
0.00182025
-0.000243572
0.00210977
-0.00012132
0.00240484
3.04784e-05
0.00270345
0.000211819
0.00300362
0.000422491
0.00330331
0.000662095
0.0036005
0.000930053
0.00389318
0.0012256
0.00417932
0.00154781
0.00445699
0.00189557
0.00472431
0.0022676
0.00497953
0.00266252
0.00522105
0.00307887
0.00544755
0.00351527
0.00565813
0.00397059
0.00585271
0.00444428
0.00603289
0.00493659
0.00620358
0.00544856
0.00637791
0.00658627
0.00598039
-3.26807e-05
-2.00574e-05
-9.93779e-05
-2.31234e-07
-0.000180125
9.394e-05
-0.000261065
0.00023156
-0.000332632
0.000398552
-0.000388102
0.000587706
-0.000422714
0.000794572
-0.000433061
0.00101599
-0.000416687
0.00124961
-0.000371835
0.00149344
-0.000297268
0.00174568
-0.00019215
0.00200465
-5.59572e-05
0.00226864
0.000111563
0.00253593
0.000310441
0.00280474
0.000540493
0.00307326
0.000801343
0.00333965
0.00109242
0.0036021
0.00141295
0.00385879
0.00176196
0.00410798
0.00213825
0.00434802
0.00254037
0.00457741
0.00296661
0.00479481
0.00341502
0.00499913
0.00388348
0.00518967
0.00436983
0.00536636
0.00487234
0.00553038
0.00539039
0.00568553
0.00592561
0.00584269
0.00602976
0.00648212
-3.31798e-05
1.31223e-05
-0.000100191
6.67801e-05
-0.000180475
0.000174224
-0.000259846
0.000310931
-0.000328555
0.000467261
-0.000379768
0.000638919
-0.000408645
0.000823449
-0.000411715
0.00101906
-0.000386465
0.00122436
-0.000331088
0.00143806
-0.000244301
0.00165889
-0.000125223
0.00188557
2.67108e-05
0.00211671
0.000211794
0.00235085
0.000430091
0.00258644
0.000681456
0.00282189
0.00096555
0.00305556
0.00128183
0.00328582
0.00162956
0.00351106
0.00200776
0.00372977
0.00241521
0.00394057
0.00285036
0.00414227
0.00331126
0.0043339
0.0037955
0.00451489
0.00430008
0.0046851
0.00482138
0.00484506
0.00535545
0.00499631
0.00589886
0.00514212
0.00645144
0.00529011
0.00545799
0.00702321
-3.33694e-05
4.64916e-05
-9.99762e-05
0.000133387
-0.000178788
0.000253035
-0.000255365
0.000387508
-0.000319827
0.000531723
-0.000365261
0.000684354
-0.000386773
0.00084496
-0.000380843
0.00101313
-0.000344919
0.00118844
-0.000277157
0.0013703
-0.000176241
0.00155798
-4.12518e-05
0.00175058
0.000128396
0.00194706
0.000333041
0.00214621
0.000572778
0.0023467
0.000847503
0.00254717
0.00115692
0.00274615
0.00150054
0.00294219
0.0018777
0.00313391
0.00228749
0.00331998
0.00272875
0.00349931
0.00320002
0.003671
0.00369934
0.00383458
0.00422413
0.0039901
0.00477083
0.0041384
0.00533445
0.00428143
0.00590813
0.00442263
0.00648284
0.00456742
0.0070496
0.00472335
0.00487876
0.00762882
-3.32272e-05
7.97187e-05
-9.86609e-05
0.00019882
-0.000174915
0.00032929
-0.000247379
0.000459972
-0.000306086
0.00059043
-0.000344079
0.000722347
-0.000356428
0.00085731
-0.000339589
0.000996295
-0.000290986
0.00113984
-0.000208758
0.00128807
-9.15686e-05
0.00144079
6.15143e-05
0.0015975
0.000251106
0.00175747
0.000477549
0.00191976
0.000740968
0.00208328
0.00104129
0.00224684
0.00137826
0.00240917
0.00175148
0.00256898
0.00216035
0.00272504
0.00260412
0.00287621
0.00308184
0.00302159
0.00359231
0.00316053
0.00413399
0.0032929
0.00470485
0.00341924
0.00530201
0.00354123
0.00592117
0.00366227
0.00655558
0.00378822
0.00719351
0.00392949
0.0078112
0.00410566
0.00837602
0.00431395
0.0060324
0.0763946
-0.0766339
0.00607385
0.075759
-0.0758004
0.00604089
0.0719745
-0.0719416
0.00600451
0.067409
-0.0673726
0.00599861
0.0630649
-0.063059
0.00602274
0.059407
-0.0594311
0.00605648
0.056539
-0.0565727
0.00607537
0.0543574
-0.0543763
0.00606139
0.0527412
-0.0527272
0.00600543
0.0515796
-0.0515236
0.00590734
0.0508013
-0.0507032
0.0057708
0.0503473
-0.0502107
0.00560135
0.0501704
-0.0500009
0.00540402
0.0502132
-0.0500158
0.00518328
0.0504221
-0.0502014
0.00494258
0.0507479
-0.0505072
0.0046849
0.0511477
-0.05089
0.00441334
0.0515878
-0.0513163
0.00412995
0.0520464
-0.051763
0.00383686
0.0525052
-0.0522121
0.00353576
0.0529505
-0.0526494
0.00322809
0.0533746
-0.053067
0.00291485
0.0537705
-0.0534573
0.00259688
0.0541313
-0.0538133
0.00227452
0.0544554
-0.0541331
0.00194782
0.0547376
-0.0544109
0.00161634
0.0549842
-0.0546528
0.0012801
0.0552023
-0.0548661
0.000940575
0.0553985
-0.055059
0.0555211
-0.0551821
0.00586433
0.0760594
0.00598567
0.0756376
0.00601069
0.0719495
0.00601765
0.067402
0.00604522
0.0630373
0.00609762
0.0593546
0.00615582
0.0564808
0.00619531
0.0543179
0.00619709
0.0527395
0.00615201
0.0516247
0.0060599
0.0508935
0.00592565
0.0504815
0.0057552
0.0503408
0.00555465
0.0504137
0.00532855
0.0506482
0.00508117
0.0509953
0.00481584
0.051413
0.00453562
0.0518681
0.00424288
0.0523391
0.00394022
0.0528078
0.00362891
0.0532618
0.00331088
0.0536927
0.00298715
0.0540943
0.00265827
0.0544602
0.00232518
0.0547885
0.00198744
0.0550753
0.00164509
0.0553266
0.00129817
0.0555493
0.000948099
0.0557486
0.0558705
0.00569009
0.0756334
0.00588878
0.0754389
0.00597019
0.0718681
0.00602024
0.067352
0.00608213
0.0629754
0.00616442
0.0592723
0.006249
0.0563962
0.00631097
0.0542559
0.00633018
0.0527202
0.00629741
0.0516574
0.00621232
0.0509786
0.00608106
0.0506128
0.00591003
0.0505119
0.00570653
0.0506172
0.0054753
0.0508794
0.00522133
0.0512492
0.00494837
0.051686
0.00465947
0.052157
0.00435734
0.0526412
0.00404495
0.0531202
0.00372332
0.0535835
0.00339479
0.0540212
0.00306038
0.0544287
0.00272049
0.0548001
0.00237652
0.0551325
0.00202762
0.0554242
0.00167428
0.0556799
0.00131657
0.055907
0.000955825
0.0561094
0.0562305
0.00551163
0.0751228
0.00578442
0.0751661
0.00591991
0.0717326
0.00601239
0.0672595
0.00610924
0.0628786
0.00622291
0.0591586
0.00633576
0.0562834
0.00642214
0.0541696
0.00646056
0.0526818
0.00644145
0.0516765
0.00636444
0.0510556
0.00623673
0.0507405
0.00606575
0.0506828
0.00585952
0.0508234
0.00562347
0.0511155
0.00536302
0.0515097
0.0050824
0.0519666
0.00478483
0.0524545
0.00447334
0.0529527
0.00415099
0.0534426
0.00381907
0.0539154
0.00347986
0.0543604
0.0031346
0.0547739
0.00278367
0.055151
0.0024285
0.0554877
0.00206844
0.0557843
0.00170391
0.0560444
0.00133532
0.0562756
0.00096383
0.0564809
0.0566013
0.00533116
0.0745346
0.00567393
0.0748234
0.00586065
0.0715459
0.00599449
0.0671256
0.00612661
0.0627465
0.006273
0.0590122
0.00641602
0.0561403
0.00652868
0.0540569
0.00658797
0.0526225
0.0065838
0.0516807
0.00651605
0.0511233
0.00639261
0.0508639
0.0062222
0.0508533
0.00601343
0.0510322
0.00577285
0.0513561
0.00550612
0.0517764
0.00521784
0.0522549
0.00491166
0.0527607
0.00459085
0.0532735
0.00425838
0.053775
0.00391615
0.0542576
0.00356611
0.0547105
0.00320981
0.0551302
0.00284778
0.055513
0.0024812
0.0558542
0.00210993
0.0561556
0.0017341
0.0564203
0.00135444
0.0566552
0.000972129
0.0568632
0.056983
0.00515117
0.0738764
0.00555906
0.0744155
0.00579343
0.0713115
0.0059671
0.066952
0.00613452
0.062579
0.00631476
0.058832
0.00648966
0.0559654
0.00663042
0.0539161
0.00671225
0.0525407
0.00672435
0.0516686
0.00666693
0.0511807
0.00654849
0.0509824
0.00637914
0.0510226
0.00616821
0.0512431
0.00592331
0.051601
0.00565046
0.0520493
0.00535465
0.0525507
0.00503989
0.0530755
0.00470975
0.0536037
0.00436716
0.0541176
0.00401448
0.0546103
0.00365354
0.0550714
0.00328607
0.0554977
0.00291281
0.0558863
0.00253471
0.0562324
0.00215208
0.0565382
0.00176485
0.0568075
0.00137399
0.0570461
0.000980736
0.0572564
0.0573757
0.00497437
0.0731564
0.00544181
0.073948
0.00571966
0.0710337
0.00593108
0.0667405
0.00613346
0.0623766
0.00634838
0.0586171
0.00655665
0.0557572
0.00672721
0.0537456
0.00683321
0.0524347
0.00686292
0.0516389
0.00681684
0.0512268
0.00670417
0.051095
0.00653636
0.0511904
0.00632368
0.0514558
0.00607467
0.05185
0.0057959
0.052328
0.0054927
0.0528539
0.00516944
0.0533987
0.00482996
0.0539431
0.00447728
0.0544703
0.00411405
0.0549735
0.00374217
0.0554433
0.00336342
0.0558764
0.00297879
0.0562709
0.00258908
0.0566221
0.00219495
0.0569323
0.00179622
0.0572062
0.00139402
0.0574483
0.000989671
0.0576608
0.0577798
0.0048037
0.0723834
0.00532448
0.0734272
0.00564108
0.0707171
0.00588763
0.066494
0.00612416
0.0621401
0.00637424
0.058367
0.00661712
0.0555143
0.00681898
0.0535437
0.0069507
0.052303
0.00699931
0.0515903
0.0069656
0.0512605
0.00685942
0.0512012
0.00669367
0.0513562
0.00647963
0.0516699
0.00622677
0.0521028
0.00594228
0.0526125
0.00563185
0.0531643
0.00530019
0.0537304
0.00495141
0.0542919
0.00458868
0.0548331
0.00421484
0.0553473
0.00383196
0.0558262
0.00344184
0.0562666
0.00304574
0.056667
0.00264431
0.0570235
0.00223855
0.0573381
0.00182823
0.0576166
0.00141456
0.057862
0.000998953
0.0580764
0.0581954
0.00464238
0.0715664
0.00520968
0.0728599
0.00555985
0.0703669
0.00583828
0.0662156
0.00610762
0.0618708
0.00639287
0.0580818
0.00667127
0.0552359
0.00690575
0.0533092
0.00706458
0.0521442
0.00713333
0.0515215
0.00711297
0.0512809
0.00701404
0.0513001
0.00685086
0.0515193
0.00663585
0.0518849
0.00637942
0.0523593
0.00608942
0.0529025
0.00577194
0.0534818
0.00543202
0.0540703
0.00507399
0.0546499
0.00470127
0.0552058
0.00431681
0.0557318
0.00392288
0.0562201
0.00352134
0.0566681
0.00311367
0.0570747
0.00270044
0.0574367
0.00228291
0.0577556
0.0018609
0.0580386
0.00143563
0.0582872
0.00100861
0.0585034
0.0586226
0.00449393
0.0707144
0.00510037
0.0722535
0.00547847
0.0699888
0.00578495
0.0659091
0.00608514
0.0615706
0.00640503
0.0577619
0.00671944
0.0549215
0.00698757
0.0530411
0.00717476
0.051957
0.00726481
0.0514315
0.00725875
0.0512869
0.00716781
0.0513911
0.00700772
0.0516794
0.00679213
0.0521005
0.00653242
0.052619
0.00623715
0.0531978
0.0059128
0.0538061
0.00556479
0.0544183
0.0051976
0.0550171
0.00481495
0.0555884
0.00441988
0.0561269
0.0040149
0.0566251
0.00360188
0.0570811
0.00318255
0.057494
0.00275746
0.0578618
0.00232804
0.058185
0.00189426
0.0584724
0.00145727
0.0587242
0.00101866
0.058942
0.0590617
0.00436211
0.0698366
0.00499988
0.0716157
0.00539989
0.0695888
0.00572992
0.0655791
0.00605833
0.0612422
0.0064117
0.0574085
0.00676211
0.0545711
0.00706461
0.0527386
0.00728118
0.0517404
0.0073936
0.0513191
0.00740274
0.0512778
0.00732052
0.0514733
0.00716403
0.0518359
0.00694825
0.0523162
0.00668556
0.0528817
0.00638526
0.0534981
0.00605425
0.0541371
0.00569833
0.0547743
0.0053221
0.0553934
0.00492961
0.0559809
0.00452399
0.0565325
0.00410794
0.0570411
0.00368343
0.0575056
0.00325238
0.0579251
0.00281538
0.0582988
0.00237397
0.0586264
0.0019283
0.058918
0.00147948
0.059173
0.00102912
0.0593924
0.0595129
0.00425094
0.0689414
0.00491187
0.0709548
0.00532745
0.0691732
0.00567588
0.0652306
0.00602911
0.0608889
0.00641408
0.0570235
0.00679992
0.0541852
0.00713708
0.0524015
0.00738381
0.0514937
0.00751955
0.0511833
0.00754473
0.0512526
0.00747193
0.0515461
0.00731957
0.0519883
0.00710399
0.0525318
0.00683863
0.053147
0.00653356
0.0538032
0.00619611
0.0544746
0.00583246
0.0551379
0.00544736
0.0557785
0.00504512
0.0563832
0.00462904
0.0569486
0.00420195
0.0574682
0.00376595
0.0579416
0.00332311
0.0583679
0.00287417
0.0587478
0.00242067
0.0590799
0.00196305
0.0593756
0.00150228
0.0596338
0.00104001
0.0598546
0.0599763
0.00416463
0.0680371
0.00484031
0.0702791
0.0052649
0.0687486
0.00562589
0.0648696
0.00599976
0.0605151
0.00641363
0.0566097
0.00683366
0.0537652
0.00720533
0.0520298
0.00748271
0.0512163
0.00764254
0.0510235
0.00768453
0.0512106
0.00762184
0.0516088
0.00747412
0.052136
0.00725912
0.0527468
0.00699142
0.0534147
0.00668185
0.0541127
0.00633819
0.0548182
0.00596702
0.0555091
0.00557324
0.0561722
0.00516137
0.056795
0.00473492
0.057375
0.00429682
0.0579063
0.00384937
0.0583891
0.00339472
0.0588225
0.0029338
0.0592087
0.00246816
0.0595456
0.0019985
0.0598453
0.00152567
0.0601066
0.00105135
0.060329
0.0604522
0.00410754
0.0671306
0.00478946
0.0695972
0.00521631
0.0683218