/*--------------------------------*- C++ -*----------------------------------*\
  =========                 |
  \\      /  F ield         | OpenFOAM: The Open Source CFD Toolbox
   \\    /   O peration     | Website:  https://openfoam.org
    \\  /    A nd           | Version:  7
     \\/     M anipulation  |
\*---------------------------------------------------------------------------*/
FoamFile
{
    version     2.0;
    format      ascii;
    class       volVectorField;
    location    "7.5";
    object      U;
}
// * * * * * * * * * * * * * * * * * * * * * * * * * * * * * * * * * * * * * //

dimensions      [0 1 -1 0 0 0 0];

internalField   nonuniform List<vector> 
18000
(
(0.000478436 -0.00793556 5.63356e-21)
(0.00242136 -0.0149215 0)
(0.00576983 -0.0141707 0)
(0.00976138 -0.00770799 0)
(0.0142957 0.00306537 -1.86122e-21)
(0.0192544 0.017125 9.41611e-21)
(0.0245663 0.033688 -1.90374e-21)
(0.0301768 0.0521426 1.91681e-21)
(0.03604 0.0720054 0)
(0.0421159 0.0928865 -5.79661e-21)
(0.0483623 0.114462 -1.93828e-21)
(0.0547359 0.136451 0)
(0.0611906 0.158608 3.87081e-21)
(0.0676756 0.18071 3.87835e-21)
(0.0741386 0.202549 -7.75077e-21)
(0.0805276 0.223935 -7.74032e-21)
(0.0867917 0.244692 0)
(0.0928816 0.264659 -1.15872e-20)
(0.0987505 0.283691 3.84491e-21)
(0.104355 0.301662 -1.15425e-20)
(0.109657 0.318468 3.8276e-21)
(0.114626 0.334023 0)
(0.119237 0.348265 -3.79139e-21)
(0.123476 0.361149 -3.80003e-21)
(0.127334 0.372652 0)
(0.130812 0.382763 0)
(0.133921 0.391475 -7.54627e-21)
(0.136687 0.398772 -7.52229e-21)
(0.139124 0.404631 -7.54772e-21)
(0.141143 0.408962 8.19432e-21)
(0.000676593 -0.00838077 8.03272e-21)
(0.00267299 -0.0160086 1.39957e-20)
(0.0057281 -0.0157712 -1.43324e-20)
(0.00920094 -0.00974314 -1.4617e-20)
(0.0130492 0.000638241 -3.71633e-21)
(0.0172033 0.0143291 1.12702e-20)
(0.0216267 0.0305385 -1.51869e-20)
(0.0262917 0.0486492 -1.52988e-20)
(0.0311755 0.0681791 1.53801e-20)
(0.0362538 0.0887428 1.5438e-20)
(0.0414954 0.11002 -7.73215e-21)
(0.0468691 0.131737 -1.54853e-20)
(0.0523394 0.153651 -7.7609e-21)
(0.0578642 0.175545 1.5478e-20)
(0.0634005 0.197217 -1.54648e-20)
(0.0689051 0.218481 1.5454e-20)
(0.0743336 0.239164 -3.08762e-20)
(0.0796425 0.259108 2.30755e-20)
(0.0847915 0.278169 -1.53419e-20)
(0.0897426 0.296221 7.68142e-21)
(0.0944617 0.313156 -1.52684e-20)
(0.0989189 0.328885 0)
(0.103092 0.343342 7.71748e-21)
(0.106965 0.356475 -1.51277e-20)
(0.110529 0.368254 1.51035e-20)
(0.113783 0.378657 0)
(0.116736 0.38767 -7.4628e-21)
(0.119411 0.395265 7.42339e-21)
(0.121799 0.40141 2.97938e-20)
(0.123807 0.406014 1.63234e-20)
(0.000894937 -0.00881193 -1.28609e-20)
(0.00296642 -0.0170383 -1.39954e-20)
(0.00573637 -0.0172552 2.14966e-20)
(0.00869705 -0.0116251 3.65114e-20)
(0.0118661 -0.00161511 0)
(0.0152274 0.011716 -1.50392e-20)
(0.0187813 0.0275688 1.51867e-20)
(0.0225247 0.0453278 4.58466e-20)
(0.0264551 0.0645135 -1.538e-20)
(0.0305637 0.084742 -1.54354e-20)
(0.0348323 0.105699 4.63499e-20)
(0.0392386 0.127117 1.54852e-20)
(0.0437564 0.148759 0)
(0.0483525 0.170413 -3.09615e-20)
(0.0529907 0.191882 4.6256e-20)
(0.057635 0.212986 -1.54053e-20)
(0.0622482 0.233554 1.54082e-20)
(0.0667932 0.253432 1.53919e-20)
(0.0712347 0.272476 6.53927e-23)
(0.0755388 0.29056 0)
(0.0796747 0.307576 4.58442e-20)
(0.0836159 0.323432 -3.02986e-20)
(0.0873411 0.338055 1.51894e-20)
(0.0908348 0.351392 0)
(0.0940877 0.363401 -1.51036e-20)
(0.0970973 0.374057 6.011e-20)
(0.0998713 0.383332 -4.4676e-20)
(0.10243 0.391193 -1.49579e-20)
(0.104741 0.397599 1.4729e-20)
(0.106708 0.402459 1.63745e-20)
(0.001129 -0.00916937 0)
(0.00328765 -0.0179096 6.98864e-21)
(0.00577047 -0.0185465 5.24547e-24)
(0.00822086 -0.0132955 -3.64864e-20)
(0.0107207 -0.00365105 0)
(0.013303 0.0093172 -2.99912e-20)
(0.0160047 0.024804 0)
(0.0188503 0.0421959 -4.58134e-20)
(0.0218559 0.0610161 1.53371e-20)
(0.0250266 0.080887 -3.0764e-20)
(0.0283558 0.101499 -3.08805e-20)
(0.0318303 0.122591 -1.54544e-20)
(0.0354309 0.143931 1.54243e-20)
(0.0391319 0.165312 1.53737e-20)
(0.0429048 0.186545 -1.54635e-20)
(0.0467198 0.207451 -3.07418e-20)
(0.0505451 0.227866 3.06286e-20)
(0.0543485 0.247636 0)
(0.0580999 0.26662 0)
(0.0617701 0.284693 0)
(0.0653315 0.301745 0)
(0.0687602 0.317682 0)
(0.0720364 0.332428 0)
(0.0751451 0.345924 -3.00286e-20)
(0.078077 0.358123 -3.00969e-20)
(0.0808283 0.368991 -1.79116e-22)
(0.083406 0.378494 -2.99137e-20)
(0.0858282 0.386591 -4.17771e-22)
(0.0880388 0.393236 -3.00425e-20)
(0.0899392 0.39834 6.46892e-20)
(0.00137345 -0.00948288 0)
(0.00362645 -0.0186722 6.27764e-20)
(0.00582331 -0.0196824 4.56585e-24)
(0.0077662 -0.0147822 -2.18547e-20)
(0.00960211 -0.00549113 7.39564e-20)
(0.0114183 0.00711396 4.49776e-20)
(0.0132878 0.0222278 4.53471e-20)
(0.0152598 0.0392391 0)
(0.017369 0.0576771 0)
(0.0196347 0.0771698 4.6141e-20)
(0.0220595 0.0974135 1.84267e-23)
(0.024638 0.118152 -1.07853e-19)
(0.0273586 0.139162 9.2379e-20)
(0.0302022 0.160241 -3.08226e-20)
(0.0331458 0.181205 3.06355e-20)
(0.0361651 0.20188 3.06122e-20)
(0.039233 0.222105 -3.0603e-20)
(0.0423225 0.241729 3.06068e-20)
(0.0454079 0.260613 6.09698e-20)
(0.0484637 0.278633 -3.02814e-20)
(0.0514657 0.295678 -6.04392e-20)
(0.0543924 0.311654 6.02382e-20)
(0.0572256 0.326481 -6.00304e-20)
(0.059951 0.340095 3.00288e-20)
(0.062559 0.352446 0)
(0.0650456 0.363489 0)
(0.0674169 0.373188 3.42982e-22)
(0.0696881 0.381494 -1.17695e-19)
(0.0717809 0.388358 5.86075e-20)
(0.0735937 0.393698 -6.48842e-20)
(0.00162441 -0.00973534 0)
(0.00397342 -0.0192928 -5.57949e-20)
(0.00587927 -0.0206324 5.70548e-20)
(0.00731467 -0.0160626 0)
(0.00849507 -0.00711832 -1.18241e-19)
(0.00955934 0.00512047 -1.49656e-20)
(0.0106161 0.0198496 -3.02581e-20)
(0.0117409 0.0364642 -1.5214e-20)
(0.012985 0.0545002 0)
(0.0143793 0.0735916 -3.07061e-20)
(0.0159364 0.0934413 3.07361e-20)
(0.0176581 0.113801 6.15987e-20)
(0.0195388 0.134452 -6.15868e-20)
(0.0215646 0.155199 0)
(0.023718 0.175863 -6.14309e-20)
(0.0259789 0.196273 6.11846e-20)
(0.0283247 0.216273 6.11592e-20)
(0.0307327 0.235714 9.13845e-20)
(0.0331812 0.254462 -9.11205e-20)
(0.0356482 0.272391 1.21176e-19)
(0.0381122 0.289391 6.05148e-20)
(0.040554 0.305367 -6.02387e-20)
(0.0429571 0.320235 1.19852e-19)
(0.0453079 0.33393 0)
(0.0475966 0.346395 5.9352e-20)
(0.0498185 0.357582 1.18527e-19)
(0.051979 0.367447 -5.85154e-20)
(0.0540906 0.37594 5.88738e-20)
(0.0560532 0.383006 2.80126e-23)
(0.0577613 0.388575 -6.45861e-20)
(0.00187649 -0.00992731 -6.40378e-21)
(0.00431689 -0.0197749 0)
(0.00592685 -0.0214015 -7.13124e-20)
(0.0068557 -0.0171396 1.45294e-20)
(0.00738782 -0.00853623 4.43188e-20)
(0.00771584 0.0033304 1.49423e-20)
(0.00798312 0.0176635 6.03082e-20)
(0.00828883 0.0338649 0)
(0.00870043 0.051478 3.05544e-20)
(0.00926014 0.0701451 3.06162e-20)
(0.00998899 0.0895767 -3.07251e-20)
(0.0108951 0.109531 9.21194e-20)
(0.011978 0.129796 0)
(0.0132287 0.150183 0)
(0.0146339 0.170516 9.18932e-20)
(0.0161771 0.190631 -1.52779e-19)
(0.0178396 0.210373 6.09126e-20)
(0.0196029 0.229598 -6.08554e-20)
(0.0214487 0.248174 -6.053e-20)
(0.0233574 0.265976 -1.8133e-19)
(0.0253103 0.282896 -2.38812e-22)
(0.0272905 0.298834 5.98674e-20)
(0.0292827 0.31371 -1.19451e-19)
(0.0312739 0.327451 5.93825e-20)
(0.0332543 0.339998 -2.25173e-22)
(0.035218 0.351299 -5.91053e-20)
(0.0371694 0.361306 5.88491e-20)
(0.039118 0.369965 0)
(0.0409429 0.377222 5.80049e-20)
(0.0425329 0.383018 4.66523e-22)
(0.00212497 -0.0100562 -1.27968e-20)
(0.00464689 -0.0201129 1.39144e-20)
(0.0059533 -0.0219834 -8.54019e-20)
(0.00637631 -0.018011 -4.35117e-20)
(0.00627004 -0.00974465 5.89301e-20)
(0.00587998 0.00174399 -8.95103e-20)
(0.00538281 0.0156674 -3.01765e-20)
(0.00490056 0.0314373 -6.06609e-20)
(0.00451563 0.0486068 6.09702e-20)
(0.00428027 0.0668268 -1.22428e-19)
(0.00422301 0.0858159 -6.12901e-20)
(0.00435761 0.105339 -8.12983e-23)
(0.00468793 0.125192 3.07051e-20)
(0.00520911 0.145191 -9.18458e-20)
(0.0059109 0.165164 -1.22342e-19)
(0.00678027 0.184953 -5.01256e-23)
(0.00780231 0.204407 -1.5653e-22)
(0.00896173 0.223386 6.06174e-20)
(0.0102428 0.241757 6.05305e-20)
(0.0116287 0.2594 -7.4882e-23)
(0.0131027 0.276205 -2.99994e-22)
(0.0146498 0.292075 5.94683e-20)
(0.0162563 0.306924 5.96295e-20)
(0.017909 0.320681 6.952e-23)
(0.019598 0.333281 -1.77169e-19)
(0.021316 0.344671 1.17213e-19)
(0.0230659 0.354798 1.17272e-19)
(0.0248534 0.36361 -1.16001e-19)
(0.0265383 0.371051 -5.80053e-20)
(0.0280009 0.377075 -6.41604e-20)
(0.0023645 -0.0101184 -1.15036e-19)
(0.0049526 -0.0203038 -1.38994e-20)
(0.00594657 -0.0223774 7.11447e-20)
(0.00586542 -0.0186763 5.80235e-20)
(0.00513243 -0.0107448 -5.89298e-20)
(0.00404503 0.000357604 5.9659e-20)
(0.00281186 0.013857 -3.00997e-20)
(0.00157618 0.029177 9.09681e-20)
(0.00043392 0.0458819 -6.09702e-20)
(-0.000553799 0.0636322 6.11748e-20)
(-0.00135179 0.0821547 3.06456e-20)
(-0.00194151 0.101222 -3.07036e-20)
(-0.00231553 0.120638 -1.83802e-19)
(-0.00247567 0.140221 1.22375e-19)
(-0.00242927 0.159809 6.11263e-20)
(-0.00218627 0.179244 0)
(-0.00175847 0.198381 0)
(-0.00115854 0.217083 -2.63478e-22)
(-0.000400003 0.23522 -6.0371e-20)
(0.000502623 0.252673 0)
(0.00153474 0.269334 0)
(0.00268277 0.285104 -5.97075e-20)
(0.00393352 0.299899 0)
(0.00527441 0.313643 -1.18033e-19)
(0.00669456 0.326272 0)
(0.0081852 0.337729 -5.86382e-20)
(0.00974661 0.34796 1.1678e-19)
(0.0113803 0.356914 -1.15514e-19)
(0.0129281 0.364536 0)
(0.0142589 0.370796 0)
(0.00258984 -0.0101126 1.02249e-19)
(0.00522361 -0.0203462 0)
(0.00589523 -0.0225829 -1.42085e-20)
(0.00531262 -0.0191373 1.44787e-20)
(0.003967 -0.0115403 -8.81578e-20)
(0.0022063 -0.000833281 4.77191e-24)
(0.000269118 0.0122271 -3.0056e-20)
(-0.00168193 0.0270787 0)
(-0.00353868 0.0432982 0)
(-0.00523239 0.0605565 -3.05471e-20)
(-0.00672226 0.0785898 3.05771e-20)
(-0.00798583 0.0971784 -6.12713e-20)
(-0.00901298 0.116131 6.1283e-20)
(-0.00980307 0.135275 0)
(-0.0103607 0.15445 0)
(-0.0106933 0.173506 0)
(-0.0108103 0.1923 6.05032e-20)
(-0.0107222 0.210698 -8.13969e-23)
(-0.0104402 0.228574 6.04669e-20)
(-0.00997706 0.245809 -1.19928e-19)
(-0.00934563 0.262297 5.98989e-20)
(-0.00855843 0.277941 -2.97507e-19)
(-0.00762826 0.292655 -1.54818e-22)
(-0.00656759 0.306362 1.18034e-19)
(-0.00538823 0.318998 -4.70637e-22)
(-0.00410138 0.330504 1.16354e-19)
(-0.00271004 0.340827 -1.15816e-19)
(-0.00121762 0.349918 -1.15647e-19)
(0.000201836 0.357724 -4.46127e-23)
(0.00140148 0.36423 -1.26491e-19)
(0.00279577 -0.0100378 -1.27659e-20)
(0.00544983 -0.02024 0)
(0.00578833 -0.0226018 2.83845e-20)
(0.00470854 -0.0193977 -2.89244e-20)
(0.00276728 -0.0121361 2.64375e-19)
(0.000360707 -0.00183444 5.09236e-24)
(-0.00224471 0.0107714 -3.002e-20)
(-0.0048691 0.025136 3.02475e-20)
(-0.00739364 0.04085 -1.51912e-19)
(-0.00974319 0.0575953 0)
(-0.0118725 0.0751175 0)
(-0.0137561 0.0932048 -6.1058e-20)
(-0.0153818 0.111673 6.12506e-20)
(-0.0167471 0.130354 -6.11373e-20)
(-0.0178542 0.149093 6.08778e-20)
(-0.0187086 0.167745 0)
(-0.0193177 0.186171 -2.42446e-19)
(-0.0196902 0.204241 1.2073e-19)
(-0.0198355 0.221829 6.02847e-20)
(-0.0197643 0.238821 1.79883e-19)
(-0.0194885 0.255112 0)
(-0.0190198 0.270605 1.18871e-19)
(-0.0183707 0.285214 1.17908e-19)
(-0.0175538 0.298864 1.17289e-19)
(-0.0165824 0.311488 -3.17217e-22)
(-0.0154706 0.323029 -1.1612e-19)
(-0.0142256 0.333435 1.15817e-19)
(-0.0128563 0.34266 0)
(-0.0115507 0.350658 -2.32345e-23)
(-0.0104756 0.357425 2.52646e-19)
(0.00297699 -0.00989346 -1.02005e-19)
(0.00562148 -0.0199864 0)
(0.00561583 -0.0224373 -1.13344e-19)
(0.0040449 -0.0194625 -1.44394e-19)
(0.0015281 -0.0125388 -8.80902e-20)
(-0.00149319 -0.00265317 2.97059e-20)
(-0.0047271 0.00948255 9.2465e-24)
(-0.00797874 0.0233423 -3.02013e-20)
(-0.0111204 0.0385315 1.23981e-22)
(-0.0140717 0.0547439 6.09715e-20)
(-0.0167842 0.0717349 6.10405e-20)
(-0.0192305 0.0893004 -6.10526e-20)
(-0.0213968 0.107262 6.10379e-20)
(-0.023279 0.125459 -1.83071e-19)
(-0.0248779 0.143742 1.82575e-19)
(-0.0261971 0.161969 1.21434e-19)
(-0.0272425 0.180005 3.0286e-19)
(-0.0280212 0.197723 -6.03527e-20)
(-0.028541 0.215001 -1.20128e-19)
(-0.0288113 0.231728 -1.49653e-22)
(-0.0288425 0.247798 -1.19373e-19)
(-0.0286462 0.263118 3.55547e-19)
(-0.0282345 0.277601 -2.36098e-19)
(-0.0276207 0.291174 2.34223e-19)
(-0.0268198 0.303772 -1.16791e-19)
(-0.0258494 0.315336 2.31922e-19)
(-0.0247218 0.32582 4.27709e-22)
(-0.0234517 0.335182 -2.28989e-19)
(-0.022239 0.343381 2.26993e-19)
(-0.0212753 0.350429 1.25617e-19)
(0.00312833 -0.00968004 1.02004e-19)
(0.00572915 -0.0195881 0)
(0.00536843 -0.0220947 2.54882e-19)
(0.00331458 -0.0193388 8.66423e-20)
(0.000245697 -0.0127563 0)
(-0.0033553 -0.00329797 0)
(-0.00717389 0.00835235 0)
(-0.0110026 0.02169 0)
(-0.0147065 0.0363364 6.07057e-20)
(-0.0182018 0.0519978 6.08601e-20)
(-0.0214375 0.0684393 -1.22073e-19)
(-0.0243852 0.0854648 1.22166e-19)
(-0.0270305 0.102903 1.83149e-19)
(-0.0293682 0.120597 6.10768e-20)
(-0.0313977 0.138404 6.08535e-20)
(-0.0331216 0.156186 -1.82051e-19)
(-0.0345446 0.173812 -2.4202e-19)
(-0.035672 0.191158 -1.20615e-19)
(-0.0365106 0.208107 1.20129e-19)
(-0.0370684 0.224547 -2.39371e-19)
(-0.037355 0.240377 1.18736e-19)
(-0.0373816 0.255504 -2.37064e-19)
(-0.0371602 0.269843 1.17631e-19)
(-0.0367048 0.283324 2.74787e-22)
(-0.0360326 0.29588 -1.16126e-19)
(-0.0351652 0.307459 -2.31693e-19)
(-0.0341206 0.318017 2.29728e-19)
(-0.0329198 0.327519 0)
(-0.0317723 0.335933 8.45393e-24)
(-0.0308999 0.343285 -2.50886e-19)
(0.00324477 -0.00939876 1.27348e-20)
(0.00576403 -0.0190494 0)
(0.00503776 -0.0215806 -1.13218e-19)
(0.00251165 -0.019035 2.88252e-20)
(-0.00108236 -0.012798 -2.92693e-20)
(-0.00522409 -0.00377844 0)
(-0.00957943 0.00737168 -2.99298e-20)
(-0.0139308 0.0201711 3.01363e-20)
(-0.0181383 0.0342583 6.06398e-20)
(-0.0221156 0.0493523 -1.8242e-19)
(-0.0258108 0.0652285 -6.1006e-20)
(-0.0291952 0.0816984 -9.68653e-23)
(-0.0322543 0.0985966 -3.09466e-23)
(-0.0349824 0.115773 -1.21879e-19)
(-0.0373783 0.133088 -6.09254e-20)
(-0.0394437 0.150408 0)
(-0.0411821 0.167608 -1.48756e-22)
(-0.0425979 0.184565 1.20523e-19)
(-0.0436965 0.201166 -1.19775e-19)
(-0.0444852 0.217302 0)
(-0.0449726 0.232874 0)
(-0.0451694 0.24779 0)
(-0.0450879 0.26197 0)
(-0.0447427 0.275342 -1.90557e-22)
(-0.0441535 0.287847 0)
(-0.043346 0.299432 0)
(-0.0423446 0.310062 1.14452e-19)
(-0.0411771 0.319709 1.13615e-19)
(-0.0400598 0.328354 1.13109e-19)
(-0.0392507 0.336033 -4.82997e-24)
(0.0033215 -0.00905158 1.27238e-20)
(0.00571793 -0.0183759 -2.76202e-20)
(0.00461653 -0.0209034 1.6947e-19)
(0.00163147 -0.0185608 -2.87917e-20)
(-0.00245708 -0.0126747 2.92384e-20)
(-0.00709659 -0.00410505 9.38305e-24)
(-0.0119367 0.00653089 8.96086e-20)
(-0.0167524 0.0187772 -1.20394e-19)
(-0.0214006 0.0322904 1.81646e-19)
(-0.0257943 0.046803 4.32983e-23)
(-0.0298815 0.0621005 -6.09141e-20)
(-0.0336342 0.0780019 1.21918e-19)
(-0.0370385 0.0943476 -1.21909e-19)
(-0.0400886 0.110993 1.21784e-19)
(-0.0427833 0.127803 0)
(-0.0451236 0.14465 1.21244e-19)
(-0.0471123 0.161409 0)
(-0.0487531 0.177964 5.62155e-23)
(-0.0500504 0.194202 -1.19874e-19)
(-0.0510103 0.21002 -1.19307e-19)
(-0.0516412 0.225318 1.18695e-19)
(-0.051953 0.240009 -1.18041e-19)
(-0.0519579 0.254014 -1.17347e-19)
(-0.0516716 0.267265 -2.33389e-19)
(-0.0511158 0.279706 -1.15841e-19)
(-0.0503206 0.291292 1.1534e-19)
(-0.0493172 0.30199 -2.28566e-19)
(-0.0481406 0.311788 -1.13616e-19)
(-0.0470112 0.320679 0)
(-0.0462295 0.328713 -1.248e-19)
(0.00335403 -0.00864121 0)
(0.00558351 -0.0175747 1.10303e-19)
(0.00409861 -0.0200726 -8.47368e-20)
(0.000670804 -0.0179276 -1.43702e-19)
(-0.00387806 -0.0123977 0)
(-0.00896837 -0.00428901 0)
(-0.0142373 0.00581976 -1.79227e-19)
(-0.0194551 0.0174995 2.4062e-19)
(-0.0244776 0.030426 -1.81535e-19)
(-0.0292182 0.0443457 0)
(-0.0336263 0.0590538 6.08695e-20)
(-0.0376754 0.0743766 -6.10275e-20)
(-0.0413527 0.0901605 5.75979e-23)
(-0.0446531 0.106266 -6.10012e-20)
(-0.0475756 0.122562 -6.08241e-20)
(-0.0501211 0.138925 -3.75589e-23)
(-0.0522921 0.155234 1.20815e-19)
(-0.0540915 0.171376 1.20392e-19)
(-0.055523 0.187241 -1.70889e-22)
(-0.0565923 0.202728 2.38384e-19)
(-0.0573066 0.21774 -2.37558e-19)
(-0.0576755 0.232193 2.35827e-19)
(-0.0577108 0.246011 1.17347e-19)
(-0.0574289 0.25913 1.16613e-19)
(-0.0568537 0.271497 1.66035e-22)
(-0.056019 0.283074 0)
(-0.0549633 0.29384 1.14241e-19)
(-0.0537292 0.303791 -3.39666e-19)
(-0.0525382 0.312943 1.11488e-19)
(-0.0517397 0.321355 1.24014e-19)
(0.00333825 -0.0081711 -7.61445e-20)
(0.00535436 -0.0166541 -2.48029e-19)
(0.00347921 -0.0190994 7.5968e-24)
(-0.000372097 -0.0171475 1.50995e-22)
(-0.00534331 -0.0119797 -8.74145e-20)
(-0.0108336 -0.00434212 0)
(-0.0164715 0.00522773 -5.95547e-20)
(-0.0220255 0.0163294 -3.60641e-19)
(-0.0273522 0.0286586 1.81369e-19)
(-0.032367 0.0419761 -1.21326e-19)
(-0.0370215 0.0560869 1.82522e-19)
(-0.0412917 0.0708243 -6.0855e-20)
(-0.0451666 0.0860403 1.21854e-19)
(-0.0486422 0.1016 -3.0437e-19)
(-0.0517182 0.117377 1.82195e-19)
(-0.0543961 0.13325 1.55175e-22)
(-0.0566781 0.149104 -3.62232e-19)
(-0.0585668 0.164826 1.20524e-19)
(-0.0600656 0.180311 -1.19621e-19)
(-0.0611793 0.195459 0)
(-0.0619146 0.210177 1.1857e-19)
(-0.0622801 0.224383 0)
(-0.0622874 0.238003 -1.17376e-19)
(-0.0619531 0.250978 1.16223e-19)
(-0.0613024 0.263262 1.15676e-19)
(-0.0603728 0.274823 1.14665e-19)
(-0.0592101 0.285648 0)
(-0.0578644 0.295753 0)
(-0.0565554 0.305175 -2.24424e-19)
(-0.0556881 0.31399 3.71136e-19)
(0.00327051 -0.00764538 7.61907e-20)
(0.00502524 -0.0156236 1.37717e-19)
(0.00275501 -0.0179961 -1.12526e-19)
(-0.0014973 -0.016234 2.2944e-19)
(-0.00684919 -0.0114337 2.92861e-20)
(-0.0126847 -0.00427654 2.95174e-20)
(-0.0186282 0.00474416 1.86569e-22)
(-0.0244491 0.015258 -1.19965e-19)
(-0.0300065 0.0269818 -6.03688e-20)
(-0.0352195 0.0396906 9.81866e-23)
(-0.0400429 0.0531991 -8.1605e-23)
(-0.0444559 0.0673474 -1.82661e-19)
(-0.0484499 0.0819931 -6.09283e-20)
(-0.0520224 0.0970056 3.8714e-23)
(-0.0551747 0.112262 1.21458e-19)
(-0.0579088 0.127645 1.21158e-19)
(-0.0602275 0.143041 1.93389e-23)
(-0.0621332 0.158342 -1.20306e-19)
(-0.0636293 0.173444 1.19973e-19)
(-0.06472 0.18825 -1.19003e-19)
(-0.0654113 0.202668 -2.37102e-19)
(-0.0657108 0.21662 -1.18036e-19)
(-0.0656293 0.230035 2.33988e-19)
(-0.0651833 0.242858 0)
(-0.0643989 0.255048 -1.15413e-19)
(-0.0633161 0.266581 -2.29182e-19)
(-0.0619878 0.277459 -2.27596e-19)
(-0.0604716 0.287712 1.12526e-19)
(-0.0589828 0.29741 -3.35419e-19)
(-0.0579877 0.306644 1.2325e-19)
(0.00314774 -0.00706888 -1.26635e-19)
(0.00459213 -0.0144939 2.75124e-20)
(0.00192435 -0.0167759 1.12528e-19)
(-0.00270304 -0.0152012 -8.60008e-20)
(-0.00839021 -0.0107734 2.91543e-20)
(-0.0145127 -0.00410446 -3.49866e-23)
(-0.0206949 0.00435874 2.97513e-19)
(-0.02671 0.0142774 1.20023e-19)
(-0.0324218 0.02539 1.20729e-19)
(-0.037754 0.0374862 1.81874e-19)
(-0.042666 0.0503903 -1.82256e-19)
(-0.0471407 0.063949 1.21722e-19)
(-0.0511723 0.0780252 2.43629e-19)
(-0.0547608 0.0924924 1.21792e-19)
(-0.0579089 0.107231 1.54002e-22)
(-0.0606203 0.122126 -2.42139e-19)
(-0.0628983 0.137068 2.41715e-19)
(-0.0647458 0.151951 1.88552e-22)
(-0.0661663 0.166672 -1.19952e-19)
(-0.0671639 0.181137 1.18983e-19)
(-0.0677435 0.195256 1.18531e-19)
(-0.067912 0.208951 -1.17781e-19)
(-0.0676791 0.222157 -2.34274e-19)
(-0.0670607 0.234821 -3.26573e-22)
(-0.0660825 0.246908 1.15304e-19)
(-0.0647863 0.258403 1.14517e-19)
(-0.0632313 0.269318 2.27231e-19)
(-0.0614827 0.279708 -2.24581e-19)
(-0.0597481 0.289679 0)
(-0.0585609 0.299342 1.23068e-19)
(0.00296746 -0.00644705 1.32687e-22)
(0.00405247 -0.013277 0)
(0.00098738 -0.0154533 -8.41312e-20)
(-0.00398557 -0.0140637 -2.86027e-20)
(-0.00995886 -0.0100124 -1.16093e-19)
(-0.0163064 -0.00383776 0)
(-0.0226572 0.00406182 -1.78409e-19)
(-0.0287909 0.0133803 5.98772e-20)
(-0.0345778 0.0238786 0)
(-0.0399479 0.0353609 -1.21023e-19)
(-0.0448659 0.0476612 0)
(-0.0493186 0.0606329 -1.82468e-19)
(-0.053304 0.0741439 1.82412e-19)
(-0.0568247 0.0880715 -1.21624e-19)
(-0.0598859 0.102299 -1.21403e-19)
(-0.0624926 0.116714 0)
(-0.0646497 0.13121 0)
(-0.0663609 0.145682 1.20472e-19)
(-0.0676301 0.16003 3.67667e-22)
(-0.0684615 0.17416 1.19507e-19)
(-0.0688595 0.187984 -1.18305e-19)
(-0.0688298 0.201427 2.3571e-19)
(-0.0683812 0.214424 -1.16811e-19)
(-0.0675282 0.226926 0)
(-0.0662956 0.238902 3.46095e-19)
(-0.0647254 0.250346 -5.71548e-19)
(-0.0628819 0.261283 1.13175e-19)
(-0.0608375 0.27179 1.12416e-19)
(-0.0587897 0.282021 1.11177e-19)
(-0.0573431 0.292112 2.45221e-19)
(0.00272791 -0.00578588 -1.00891e-19)
(0.00340521 -0.0119853 2.19089e-19)
(-5.37826e-05 -0.014043 1.12202e-19)
(-0.00533895 -0.0128366 2.56813e-19)
(-0.0115454 -0.00916421 3.18923e-19)
(-0.0180526 -0.00348771 5.87743e-20)
(-0.0244987 0.00384479 -2.96578e-19)
(-0.0306726 0.012561 0)
(-0.0364531 0.0224445 -2.40708e-19)
(-0.0417775 0.0333144 -1.20793e-19)
(-0.0466164 0.0450144 0)
(-0.0509617 0.0574047 -1.2143e-19)
(-0.054815 0.0703578 1.34147e-22)
(-0.0581822 0.0837548 -3.64471e-19)
(-0.0610711 0.0974817 1.21404e-19)
(-0.0634891 0.111429 1.21289e-19)
(-0.0654425 0.125491 -2.41083e-19)
(-0.0669365 0.139565 -2.40553e-19)
(-0.067976 0.153552 -3.65223e-22)
(-0.0685655 0.16736 -1.90348e-22)
(-0.0687094 0.180901 0)
(-0.0684125 0.194101 -1.17884e-19)
(-0.0676824 0.206895 -1.17033e-19)
(-0.0665322 0.219236 0)
(-0.0649849 0.231097 0)
(-0.0630812 0.242478 3.42919e-19)
(-0.0608892 0.253417 -3.39237e-19)
(-0.0584873 0.264015 0)
(-0.0560605 0.274481 3.331e-19)
(-0.0542869 0.284983 -2.44087e-19)
(0.00242808 -0.0050918 2.91374e-22)
(0.002651 -0.0106321 -2.1913e-19)
(-0.00119484 -0.0125606 -2.79897e-20)
(-0.00675485 -0.0115349 -2.85284e-19)
(-0.0131376 -0.00824193 -1.73928e-19)
(-0.0197356 -0.0030646 5.86886e-20)
(-0.0262006 0.0037005 1.18702e-19)
(-0.0323337 0.0118154 2.98604e-19)
(-0.038024 0.021087 2.40712e-19)
(-0.0432171 0.0313489 2.41821e-19)
(-0.0478905 0.042455 0)
(-0.052041 0.0542722 1.76391e-22)
(-0.0556746 0.0666779 0)
(-0.058801 0.0795565 2.43075e-19)
(-0.0614308 0.0927966 0)
(-0.0635739 0.106291 -1.21265e-19)
(-0.0652388 0.119935 1.20583e-19)
(-0.0664326 0.133629 0)
(-0.0671616 0.147274 0)
(-0.0674312 0.160777 -3.57482e-19)
(-0.0672461 0.174053 1.18259e-19)
(-0.0666111 0.187026 0)
(-0.065533 0.19963 2.33456e-19)
(-0.0640234 0.211819 2.32059e-19)
(-0.0621027 0.223566 -4.60304e-19)
(-0.0598093 0.234876 4.5641e-19)
(-0.0572132 0.245798 3.19191e-22)
(-0.0543975 0.256454 2.2391e-19)
(-0.0515318 0.267116 -2.22009e-19)
(-0.0493678 0.277995 0)
(0.00206778 -0.0043717 2.52131e-19)
(0.00179236 -0.00923151 -2.73475e-20)
(-0.00242914 -0.0110219 -2.23246e-19)
(-0.0082223 -0.0101735 0)
(-0.0147205 -0.0072579 -2.3104e-19)
(-0.0213368 -0.00257737 0)
(-0.0277413 0.00362373 -2.95759e-19)
(-0.0337502 0.0111423 -1.79252e-19)
(-0.0392643 0.0198082 -2.40112e-19)
(-0.0442388 0.02947 0)
(-0.0486584 0.0399917 6.06427e-20)
(-0.0525257 0.0512472 6.11386e-20)
(-0.0558511 0.0631187 -1.21309e-19)
(-0.058648 0.0754938 -2.42825e-19)
(-0.0609307 0.0882639 -1.21051e-19)
(-0.0627116 0.101324 -4.84113e-19)
(-0.0640018 0.114571 2.41022e-19)
(-0.0648106 0.127905 -3.71139e-22)
(-0.0651464 0.14123 -3.61731e-22)
(-0.0650162 0.154453 3.57102e-19)
(-0.0644257 0.167487 0)
(-0.0633805 0.180256 0)
(-0.0618873 0.192692 2.06756e-22)
(-0.0599569 0.204745 3.42348e-22)
(-0.0576074 0.216388 -2.29879e-19)
(-0.0548739 0.227626 -2.28181e-19)
(-0.0518264 0.238512 -4.32203e-23)
(-0.0485505 0.249192 -2.23908e-19)
(-0.0451973 0.26 -2.21576e-19)
(-0.0425882 0.271198 1.41271e-22)
(0.00164779 -0.00363288 0)
(0.00083377 -0.00779787 2.17885e-19)
(-0.00374745 -0.00944276 1.95373e-19)
(-0.00972751 -0.00876698 2.84076e-20)
(-0.016276 -0.00622345 4.61649e-19)
(-0.0228345 -0.00203331 -5.84986e-20)
(-0.0290961 0.00361171 4.72587e-19)
(-0.0348946 0.0105432 2.3806e-19)
(-0.0401445 0.018614 3.60101e-19)
(-0.0448113 0.0276875 1.80775e-19)
(-0.0488876 0.0376379 6.05851e-20)
(-0.052382 0.0483462 3.03544e-19)
(-0.0553096 0.0596995 3.63454e-22)
(-0.057688 0.0715889 1.21638e-19)
(-0.0595348 0.0839083 2.4254e-19)
(-0.0608656 0.0965544 2.42031e-19)
(-0.0616941 0.109427 0)
(-0.0620324 0.122426 0)
(-0.0618913 0.135458 0)
(-0.06128 0.148428 0)
(-0.0602064 0.161251 2.3661e-19)
(-0.0586779 0.173846 0)
(-0.0567026 0.186144 -3.48583e-22)
(-0.0542917 0.198089 4.62997e-19)
(-0.0514622 0.209649 2.29559e-19)
(-0.0482464 0.220824 2.27572e-19)
(-0.0447124 0.231666 4.51298e-19)
(-0.0409462 0.242335 0)
(-0.0370756 0.253227 -4.42308e-19)
(-0.0339826 0.264663 4.83346e-19)
(0.00116989 -0.00288304 2.00621e-19)
(-0.000218124 -0.00634613 -2.1789e-19)
(-0.00513788 -0.00783933 0)
(-0.0112537 -0.00732929 -2.26537e-19)
(-0.0177831 -0.00514869 -5.80934e-20)
(-0.0242038 -0.00143764 -1.74851e-19)
(-0.0302367 0.00366449 -5.30876e-19)
(-0.0357358 0.0100235 -5.22881e-22)
(-0.0406309 0.0175149 -1.79568e-19)
(-0.0448991 0.0260166 -4.21369e-19)
(-0.0485411 0.0354131 -6.03495e-20)
(-0.0515718 0.0455925 -2.4215e-19)
(-0.0540114 0.056447 -2.42436e-19)
(-0.0558816 0.0678712 0)
(-0.0572037 0.0797615 -2.42211e-19)
(-0.0579962 0.0920173 -3.62852e-19)
(-0.0582761 0.10454 1.20376e-19)
(-0.0580581 0.117232 -2.40171e-19)
(-0.0573559 0.129998 -2.391e-19)
(-0.0561818 0.142748 0)
(-0.0545466 0.155393 -4.73046e-19)
(-0.0524611 0.167852 0)
(-0.0499367 0.18005 -4.66894e-19)
(-0.0469874 0.191927 -2.31666e-19)
(-0.0436316 0.203438 -4.59014e-19)
(-0.0399009 0.214576 2.27631e-19)
(-0.0358619 0.225381 -6.75878e-19)
(-0.0315984 0.236014 2.22954e-19)
(-0.0272093 0.246924 3.54295e-22)
(-0.0236187 0.258492 -2.40513e-19)
(0.000636923 -0.00213015 -2.00625e-19)
(-0.00135446 -0.00489143 2.71405e-20)
(-0.00658567 -0.00622745 1.94052e-19)
(-0.0127808 -0.00587375 2.26542e-19)
(-0.0192171 -0.00404237 -2.30143e-19)
(-0.025416 -0.000793416 4.90046e-22)
(-0.0311306 0.00378525 2.35708e-19)
(-0.0362382 0.00959279 -4.75097e-19)
(-0.0406855 0.0165264 -5.94708e-20)
(-0.0444617 0.0244785 5.40997e-19)
(-0.0475765 0.0333438 -3.62117e-19)
(-0.0500514 0.0430176 6.04816e-19)
(-0.0519118 0.0533968 6.05951e-19)
(-0.0531838 0.0643797 -1.20968e-19)
(-0.0538921 0.0758658 2.42212e-19)
(-0.0540586 0.087757 3.62762e-19)
(-0.0537031 0.0999566 1.20567e-19)
(-0.0528434 0.11237 1.99475e-22)
(-0.0514962 0.124902 1.19422e-19)
(-0.0496773 0.137465 1.18709e-19)
(-0.0474015 0.149969 -1.18078e-19)
(-0.0446844 0.162334 1.17236e-19)
(-0.0415429 0.17448 -2.32869e-19)
(-0.0379973 0.186338 2.31316e-19)
(-0.0340721 0.197856 3.50626e-22)
(-0.029803 0.209007 2.26928e-19)
(-0.0252588 0.219808 4.10234e-22)
(-0.0205221 0.230402 -2.22611e-19)
(-0.0156557 0.241268 2.92539e-22)
(-0.0115917 0.252836 0)
(5.28513e-05 -0.00138238 0)
(-0.0025641 -0.00344896 0)
(-0.00807318 -0.00462269 -2.49521e-19)
(-0.0142856 -0.00441287 2.82215e-20)
(-0.0205498 -0.00291176 0)
(-0.0264384 -0.000101442 2.32697e-19)
(-0.0317414 0.00398029 5.88094e-20)
(-0.0363617 0.00926459 1.78117e-19)
(-0.0402647 0.0156695 2.39003e-19)
(-0.0434528 0.0231015 -2.40293e-19)
(-0.0459451 0.0314651 2.41233e-19)
(-0.0477702 0.0406624 -2.41847e-19)
(-0.0489589 0.0505953 -2.42162e-19)
(-0.0495417 0.0611658 0)
(-0.0495468 0.0722765 0)
(-0.0489994 0.083832 0)
(-0.0479221 0.0957381 -2.40853e-19)
(-0.0463357 0.107902 3.60083e-19)
(-0.04426 0.120233 -1.19209e-19)
(-0.0417142 0.132643 0)
(-0.038718 0.145047 3.54373e-19)
(-0.0352926 0.157362 -1.17097e-19)
(-0.031463 0.169508 2.32867e-19)
(-0.0272595 0.181413 -4.61585e-19)
(-0.022719 0.193011 4.57656e-19)
(-0.0178903 0.204255 -9.80801e-23)
(-0.0128546 0.215129 3.41791e-22)
(-0.00770164 0.225729 2.22113e-19)
(-0.00245451 0.236516 -1.4019e-22)
(0.00200525 0.247931 2.38535e-19)
(-0.000577196 -0.000648008 2.48962e-20)
(-0.00383356 -0.00203389 -2.70495e-20)
(-0.0095798 -0.0030403 5.52502e-20)
(-0.0157415 -0.00295838 -3.37528e-19)
(-0.0217493 -0.00176279 5.71883e-20)
(-0.0272344 0.000639614 0)
(-0.0320279 0.00425899 2.34203e-19)
(-0.0360611 0.00905678 -2.36342e-19)
(-0.0393194 0.0149708 0)
(-0.0418197 0.0219207 2.99433e-19)
(-0.043591 0.0298203 -6.00677e-20)
(-0.0446696 0.0385785 0)
(-0.0450917 0.0481014 -1.2104e-19)
(-0.0448927 0.058295 2.41732e-19)
(-0.0441042 0.0690647 -1.20561e-19)
(-0.0427545 0.0803181 1.20755e-19)
(-0.040869 0.0919638 -2.40436e-19)
(-0.0384711 0.103912 -3.70078e-22)
(-0.0355834 0.116075 -3.41509e-22)
(-0.0322284 0.128368 -1.18561e-19)
(-0.02843 0.140709 -2.35981e-19)
(-0.0242159 0.153021 -4.67658e-22)
(-0.01962 0.165225 3.837e-23)
(-0.0146861 0.177249 2.30592e-19)
(-0.00947027 0.189023 -2.28437e-19)
(-0.00404736 0.200483 2.26485e-19)
(0.00146972 0.211574 -4.47879e-19)
(0.0069578 0.222315 -3.8339e-22)
(0.0124194 0.23307 -4.38563e-19)
(0.0171278 0.2442 2.37275e-19)
(-0.00124671 6.44502e-05 0)
(-0.0051467 -0.000661486 -2.1519e-19)
(-0.0110818 -0.00149528 0)
(-0.0171185 -0.00152135 6.22176e-22)
(-0.02278 -0.000600177 5.70971e-20)
(-0.0277634 0.00143293 9.00096e-23)
(-0.0319446 0.00463346 -4.67715e-19)
(-0.0352863 0.00899103 1.77395e-19)
(-0.0377951 0.0144618 0)
(-0.0395035 0.0209778 -2.99321e-19)
(-0.0404514 0.0284616 5.99516e-20)
(-0.0406828 0.0368276 0)
(-0.0402406 0.0459865 -1.20842e-19)
(-0.0391643 0.0558472 1.20458e-19)
(-0.0374898 0.0663184 1.20156e-19)
(-0.035248 0.0773103 2.40736e-19)
(-0.032467 0.0887345 -1.1984e-19)
(-0.0291724 0.100504 0)
(-0.0253888 0.112535 0)
(-0.0211411 0.124747 2.36995e-19)
(-0.0164566 0.137065 -2.35531e-19)
(-0.0113674 0.149416 2.33391e-19)
(-0.00591544 0.161733 2.32041e-19)
(-0.000157646 0.173952 2.29922e-19)
(0.0058268 0.186012 -2.27587e-19)
(0.0119245 0.197855 2.2583e-19)
(0.0179602 0.209411 2.23259e-19)
(0.0237122 0.220629 -2.20834e-19)
(0.0290937 0.231738 2.58621e-22)
(0.0336462 0.242828 4.71652e-19)
(-0.00194887 0.000747466 2.47612e-20)
(-0.006486 0.000654332 1.88352e-19)
(-0.0125532 -1.13526e-06 0)
(-0.0183838 -0.000111151 2.24342e-19)
(-0.0236035 0.00057333 0)
(-0.0279815 0.00228411 0)
(-0.0314425 0.00511876 1.75253e-19)
(-0.0339829 0.00909275 -1.53334e-22)
(-0.0356324 0.0141791 5.92401e-20)
(-0.0364397 0.0203209 5.97704e-20)
(-0.0364566 0.0274484 -1.79894e-19)
(-0.035736 0.0354811 1.19996e-19)
(-0.0343273 0.0443332 0)
(-0.032275 0.0539164 0)
(-0.0296188 0.0641421 -2.40961e-19)
(-0.0263928 0.0749228 0)