/*--------------------------------*- C++ -*----------------------------------*\
  =========                 |
  \\      /  F ield         | OpenFOAM: The Open Source CFD Toolbox
   \\    /   O peration     | Website:  https://openfoam.org
    \\  /    A nd           | Version:  7
     \\/     M anipulation  |
\*---------------------------------------------------------------------------*/
FoamFile
{
    version     2.0;
    format      ascii;
    class       surfaceScalarField;
    location    "9.5";
    object      phi;
}
// * * * * * * * * * * * * * * * * * * * * * * * * * * * * * * * * * * * * * //

dimensions      [0 3 -1 0 0 0 0];

internalField   nonuniform List<scalar> 
63520
(
6.79639e-06
-0.000145443
0.000138647
2.6112e-05
-0.000319155
0.00029984
5.76543e-05
-0.000388823
0.00035728
0.000101332
-0.000373929
0.000330251
0.000157175
-0.000289136
0.000233294
0.000225295
-0.000145669
7.75487e-05
0.000305844
4.74097e-05
-0.000127959
0.000398992
0.000282796
-0.000375944
0.000504899
0.000554439
-0.000660346
0.000623707
0.000857332
-0.00097614
0.000755513
0.00118726
-0.00131906
0.000900343
0.00154059
-0.00168542
0.00105815
0.00191415
-0.00207195
0.00122879
0.00230506
-0.0024757
0.00141201
0.00271068
-0.0028939
0.00160743
0.00312849
-0.00332391
0.00181457
0.00355604
-0.00376318
0.00203278
0.00399095
-0.00420916
0.00226131
0.00443083
-0.00465936
0.00249927
0.00487331
-0.00511126
0.00274562
0.00531603
-0.00556239
0.00299926
0.00575665
-0.00601029
0.00325896
0.00619285
-0.00645255
0.0035234
0.00662238
-0.00688682
0.00379123
0.00704306
-0.00731089
0.00406106
0.00745281
-0.00772264
0.00433147
0.00784971
-0.00812013
0.00460109
0.00823199
-0.00850161
0.00486856
0.00859805
-0.00886552
0.00513259
0.00894652
-0.00921055
0.00539197
0.00927622
-0.0095356
0.00564559
0.00958623
-0.00983985
0.00589247
0.00987581
-0.0101227
0.00613173
0.0101445
-0.0103838
0.00636267
0.010392
-0.0106229
0.00658472
0.0106181
-0.0108401
0.00679749
0.0108227
-0.0110355
0.00700082
0.0110055
-0.0112088
0.00719477
0.0111656
-0.0113595
0.0113005
0.0073797
-0.0114854
6.54288e-06
-0.000151986
2.51472e-05
-0.00033776
5.54058e-05
-0.000419081
9.71839e-05
-0.000415707
0.000150506
-0.000342458
0.000215489
-0.000210653
0.000292288
-2.93894e-05
0.000381097
0.000193987
0.0004821
0.000453436
0.000595461
0.00074397
0.000721306
0.00106141
0.000859699
0.0014022
0.00101063
0.00176322
0.00117399
0.00214169
0.00134962
0.00253506
0.00153719
0.00294091
0.0017363
0.00335693
0.00194641
0.00378084
0.00216684
0.00421039
0.00239681
0.00464333
0.00263542
0.00507743
0.00288164
0.00551043
0.00313435
0.00594014
0.00339236
0.00636437
0.00365439
0.00678102
0.00391915
0.00718806
0.00418528
0.00758358
0.00445147
0.0079658
0.00471639
0.00833313
0.00497879
0.00868412
0.00523746
0.00901755
0.00549129
0.0093324
0.00573926
0.00962784
0.00598048
0.00990327
0.00621417
0.0101583
0.00643973
0.0103925
0.0066567
0.0106057
0.00686482
0.0107973
0.00706406
0.0109664
0.0111099
0.00725464
6.29528e-06
-0.000158282
2.41585e-05
-0.000355623
5.30911e-05
-0.000448014
9.29339e-05
-0.00045555
0.000143699
-0.000393224
0.000205523
-0.000272476
0.000278575
-0.000102441
0.000363071
0.00010949
0.000459216
0.000357291
0.000567197
0.000635989
0.000687164
0.000941444
0.000819212
0.00127015
0.000963368
0.00161906
0.00111958
0.00198547
0.00128772
0.00236692
0.00146755
0.00276109
0.0016587
0.00316577
0.00186074
0.0035788
0.00207308
0.00399805
0.00229502
0.00442139
0.00252577
0.00484668
0.00276439
0.00527181
0.00300988
0.00569465
0.00326114
0.00611312
0.00351699
0.00652517
0.0037762
0.00692885
0.00403752
0.00732226
0.00429968
0.00770365
0.00456141
0.0080714
0.00482148
0.00842405
0.00507872
0.00876032
0.005332
0.00907912
0.0055803
0.00937954
0.0058227
0.00966087
0.00605839
0.00992257
0.00628671
0.0101642
0.00650715
0.0103853
0.00671939
0.0105851
0.00692329
0.0107625
0.0109143
0.00711891
6.05522e-06
-0.000164337
2.31229e-05
-0.000372691
5.06666e-05
-0.000475558
8.85079e-05
-0.000493392
0.000136668
-0.000441384
0.000195293
-0.000331102
0.000264577
-0.000171725
0.000344758
2.93091e-05
0.000436066
0.000265982
0.00053871
0.000533345
0.000652864
0.00082729
0.000778655
0.00114436
0.000916143
0.00148157
0.00106532
0.0018363
0.00122608
0.00220616
0.00139826
0.00258892
0.00158156
0.00298247
0.0017756
0.00338477
0.00197988
0.00379378
0.00219379
0.00420748
0.00241661
0.00462386
0.00264753
0.00504089
0.00288561
0.00545656
0.00312987
0.00586886
0.00337921
0.00627583
0.00363249
0.00667556
0.00388854
0.00706621
0.00414615
0.00744604
0.00440411
0.00781344
0.00466122
0.00816693
0.00491634
0.0085052
0.00516837
0.00882709
0.00541626
0.00913164
0.0056591
0.00941803
0.00589605
0.00968563
0.0061264
0.00993385
0.0063496
0.0101621
0.00656526
0.0103695
0.00677314
0.0105546
0.0107143
0.00697317
5.7987e-06
-0.000170136
2.20207e-05
-0.000388913
4.81089e-05
-0.000501646
8.38773e-05
-0.00052916
0.000129363
-0.000486869
0.000184732
-0.000386471
0.000250212
-0.000237205
0.000326059
-4.65381e-05
0.000412532
0.000179509
0.000509866
0.000436011
0.000618259
0.000718897
0.000737861
0.00102476
0.000868764
0.00135067
0.00101099
0.00169407
0.00116449
0.00205265
0.00132913
0.00242428
0.00150467
0.00280693
0.00169079
0.00319864
0.00188707
0.0035975
0.00209296
0.00400159
0.00230784
0.00440898
0.00253097
0.00481776
0.00276153
0.005226
0.00299859
0.0056318
0.00324117
0.00603326
0.0034882
0.00642853
0.00373858
0.00681582
0.00399118
0.00719344
0.00424484
0.00755977
0.00449843
0.00791335
0.00475082
0.00825281
0.00500092
0.00857698
0.00524773
0.00888483
0.0054903
0.00917546
0.00572779
0.00944814
0.00595945
0.00970218
0.0061847
0.00993684
0.00640309
0.0101511
0.00661429
0.0103434
0.0105105
0.00681811
5.52685e-06
-0.000175663
2.08439e-05
-0.00040423
4.53941e-05
-0.000526197
7.90022e-05
-0.000562768
0.000121731
-0.000529598
0.000173773
-0.000438513
0.000235389
-0.000298821
0.000306865
-0.000118014
0.000388488
9.78863e-05
0.000480517
0.000343982
0.000583176
0.000616238
0.000696641
0.000911292
0.000821032
0.00122628
0.000956403
0.0015587
0.00110274
0.00190632
0.00125993
0.00226708
0.00142781
0.00263905
0.0016061
0.00302035
0.00179444
0.00340917
0.00199236
0.00380367
0.00219931
0.00420203
0.00241462
0.00460244
0.00263756
0.00500306
0.00286729
0.00540207
0.0031029
0.00579765
0.00334342
0.00618801
0.00358781
0.00657143
0.003835
0.00694624
0.00408393
0.00731085
0.00433348
0.0076638
0.00458257
0.00800372
0.00483016
0.00832939
0.00507525
0.00863974
0.00531689
0.00893382
0.00555423
0.0092108
0.00578653
0.00946989
0.00601314
0.00971022
0.00623357
0.00993063
0.00644744
0.0101295
0.0103035
0.00665438
5.22829e-06
-0.000180891
1.95745e-05
-0.000418576
4.24993e-05
-0.000549121
7.38502e-05
-0.000594119
0.000113724
-0.000569473
0.000162352
-0.00048714
0.000220033
-0.000356502
0.000287084
-0.000185066
0.000363822
2.1148e-05
0.000450537
0.000257267
0.000547477
0.000519298
0.000654842
0.000803926
0.000772777
0.00110834
0.000901364
0.00143012
0.00104062
0.00176707
0.00119047
0.00211723
0.00135079
0.00247873
0.00152134
0.0028498
0.00170183
0.00322868
0.00189184
0.00361365
0.00209089
0.00400299
0.00229839
0.00439495
0.00251366
0.00478779
0.00273597
0.00517977
0.00296446
0.00556915
0.00319825
0.00595422
0.00343638
0.0063333
0.00367786
0.00670476
0.00392165
0.00706706
0.00416672
0.00741873
0.00441204
0.0077584
0.00465657
0.00808485
0.00489936
0.00839696
0.00513946
0.00869372
0.00537603
0.00897423
0.0056083
0.00923761
0.00583562
0.0094829
0.00605744
0.00970881
0.0062733
0.00991364
0.0100941
0.00648273
4.89756e-06
-0.000185788
1.82014e-05
-0.00043188
3.94031e-05
-0.000570323
6.83883e-05
-0.000623105
0.000105301
-0.000606385
0.000150415
-0.000532255
0.000204073
-0.00041016
0.000266632
-0.000247624
0.00033844
-5.066e-05
0.000419815
0.000175892
0.000511035
0.000428079
0.000612322
0.000702639
0.000723845
0.000996821
0.000845712
0.00130825
0.000977962
0.00163482
0.00112057
0.00197462
0.00127342
0.00232588
0.00143633
0.00268688
0.00160906
0.00305596
0.00179124
0.00343147
0.00198244
0.00381178
0.00218215
0.00419524
0.00238976
0.00458018
0.00260458
0.00496494
0.00282587
0.00534787
0.00305278
0.00572731
0.00328445
0.00610163
0.00351994
0.00646928
0.00375829
0.00682871
0.00399851
0.00717851
0.00423961
0.0075173
0.00448062
0.00784385
0.00472058
0.008157
0.00495859
0.00845571
0.0051938
0.00873902
0.00542544
0.00900597
0.00565285
0.0092555
0.00587543
0.00948623
0.00609265
0.00969641
0.0098828
0.00630394
4.53063e-06
-0.000190319
1.67129e-05
-0.000444062
3.60865e-05
-0.000589697
6.25892e-05
-0.000649607
9.64227e-05
-0.000640219
0.000137914
-0.000573746
0.000187453
-0.000459699
0.000245439
-0.00030561
0.000312257
-0.000117478
0.000388256
9.98921e-05
0.00047374
0.000342595
0.000568958
0.000607421
0.000674101
0.000891678
0.000789299
0.00119305
0.000914616
0.0015095
0.00105005
0.00183919
0.00119553
0.0021804
0.00135091
0.0025315
0.00151597
0.0028909
0.00169041
0.00325704
0.00187384
0.00362835
0.00206581
0.00400327
0.00226577
0.00438022
0.0024731
0.00475761
0.00268712
0.00513385
0.00290707
0.00550736
0.00313212
0.00587658
0.00336142
0.00623997
0.00359407
0.00659607
0.00382913
0.00694345
0.00406566
0.00728077
0.00430273
0.00760678
0.00453942
0.00792031
0.00477484
0.00822029
0.00500817
0.0085057
0.00523863
0.00877551
0.00546554
0.00902859
0.00568829
0.00926348
0.00590627
0.00947842
0.00967027
0.00611881
4.12411e-06
-0.000194443
1.51001e-05
-0.000455038
3.25335e-05
-0.00060713
5.64304e-05
-0.000673504
8.70597e-05
-0.000670848
0.000124809
-0.000611496
0.000170123
-0.000505013
0.000223447
-0.000358934
0.000285205
-0.000179236
0.000355779
2.93175e-05
0.000435503
0.000262871
0.000524648
0.000518276
0.00062343
0.000792897
0.000731999
0.00108448
0.000850444
0.00139106
0.000978787
0.00171085
0.00111698
0.0020422
0.00126492
0.00238356
0.00142242
0.0027334
0.00158921
0.00309024
0.00176496
0.0034526
0.00194926
0.00381897
0.00214162
0.00418786
0.00234149
0.00455775
0.00254822
0.00492711
0.00276114
0.00529444
0.00297949
0.00565823
0.00320246
0.00601701
0.0034292
0.00636932
0.00365886
0.00671379
0.00389052
0.0070491
0.00412331
0.00737399
0.00435634
0.00768728
0.00458875
0.00798788
0.00481973
0.00827472
0.00504851
0.00854673
0.00527441
0.0088027
0.00549677
0.00904112
0.00571495
0.00926024
0.00945705
0.00592817
3.67513e-06
-0.000198118
1.3356e-05
-0.000464719
2.87321e-05
-0.000622507
4.98937e-05
-0.000694666
7.71879e-05
-0.000698142
0.000111072
-0.00064538
0.000152048
-0.000545989
0.000200613
-0.0004075
0.000257234
-0.000235856
0.000322328
-3.57765e-05
0.000396255
0.000188943
0.000479315
0.000435216
0.000571744
0.000700467
0.000673716
0.00098251
0.000785339
0.00127943
0.000906659
0.00158953
0.00103766
0.0019112
0.00117825
0.00224297
0.00132828
0.00258337
0.00148753
0.002931
0.00165569
0.00328444
0.00183241
0.00364226
0.00201724
0.00400303
0.00220968
0.0043653
0.00240916
0.00472763
0.00261504
0.00508856
0.00282662
0.00544665
0.00304316
0.00580046
0.00326388
0.00614861
0.00348794
0.00648973
0.00371452
0.00682252
0.00394275
0.00714575
0.0041718
0.00745823
0.00440084
0.00775884
0.00462907
0.00804649
0.00485574
0.00832006
0.00508015
0.00857829
0.00530163
0.00881964
0.00551949
0.00904238
0.00924369
0.00573285
3.18259e-06
-0.000201301
1.14751e-05
-0.000473012
2.46734e-05
-0.000635705
4.29677e-05
-0.00071296
6.67927e-05
-0.000721967
9.66824e-05
-0.000675269
0.000133205
-0.000582512
0.000176911
-0.000451206
0.000228312
-0.000287257
0.000287862
-9.53261e-05
0.000355951
0.000120854
0.000432905
0.000358262
0.000518983
0.000614389
0.000614379
0.000887114
0.000719222
0.00117459
0.000833581
0.00147517
0.000957459
0.00178733
0.00109079
0.00210963
0.00123346
0.00244071
0.00138526
0.0027792
0.00154594
0.00312375
0.00171518
0.00347302
0.00189257
0.00382563
0.00207766
0.00418021
0.00226993
0.00453536
0.00246879
0.0048897
0.0026736
0.00524184
0.00288368
0.00559039
0.00309827
0.00593401
0.00331663
0.00627138
0.00353794
0.00660121
0.00376141
0.00692228
0.00398623
0.00723341
0.0042116
0.00753348
0.00443674
0.00782135
0.00466093
0.00809587
0.00488345
0.00835577
0.00510361
0.00859947
0.00532068
0.00882531
0.00903066
0.00553371
2.64494e-06
-0.000203946
9.45473e-06
-0.000479822
2.03532e-05
-0.000646603
3.5646e-05
-0.000728253
5.58662e-05
-0.000742188
8.16335e-05
-0.000701037
0.000113585
-0.000614463
0.00015233
-0.000489952
0.000198426
-0.000333353
0.000252365
-0.000149266
0.00031457
5.86486e-05
0.000385393
0.000287439
0.000465114
0.000534667
0.00055395
0.000798278
0.00065205
0.00107649
0.000759502
0.00136772
0.00087633
0.0016705
0.00100249
0.00198347
0.00113789
0.00230531
0.00128236
0.00263473
0.00143566
0.00297045
0.00159752
0.00331116
0.00176758
0.00365558
0.00194541
0.00400238
0.00213054
0.00435023
0.00232244
0.00469781
0.00252051
0.00504377
0.00272411
0.00538679
0.00293255
0.00572557
0.00314512
0.00605881
0.00336107
0.00638526
0.00357963
0.00670372
0.00380003
0.00701302
0.0040215
0.007312
0.0042433
0.00759955
0.00446469
0.00787448
0.00468498
0.00813548
0.00490346
0.00838099
0.00511933
0.00860943
0.0088184
0.0053316
2.06195e-06
-0.000206008
7.29367e-06
-0.000485053
1.57703e-05
-0.00065508
2.79286e-05
-0.000740412
4.44107e-05
-0.00075867
6.59284e-05
-0.000722555
9.31936e-05
-0.000641729
0.000126876
-0.000523634
0.000167583
-0.000374059
0.000215845
-0.000197528
0.000272118
2.37587e-06
0.00033678
0.000222777
0.000410137
0.00046131
0.000492424
0.00071599
0.000583812
0.000985102
0.000684407
0.00126712
0.000794251
0.00156065
0.000913325
0.00186439
0.00104155
0.00217708
0.00117878
0.0024975
0.00132483
0.0028244
0.00147942
0.00315657
0.00164225
0.00349275
0.00181293
0.0038317
0.00199103
0.00417214
0.00217604
0.00451279
0.00236743
0.00485238
0.00256459
0.00518963
0.0027669
0.00552326
0.00297367
0.00585204
0.00318419
0.00617474
0.00339775
0.00649017
0.0036136
0.00679716
0.00383102
0.00709459
0.00404927
0.0073813
0.00426764
0.00765611
0.00448542
0.00791769
0.00470189
0.00816452
0.00491623
0.00839509
0.00860726
0.00512737
1.43383e-06
-0.000207442
4.99309e-06
-0.000488613
1.09278e-05
-0.000661015
1.98216e-05
-0.000749306
3.24362e-05
-0.000771285
4.95822e-05
-0.000739701
7.205e-05
-0.000664197
0.000100574
-0.000552158
0.000135809
-0.000409295
0.00017833
-0.00024005
0.000228624
-4.79178e-05
0.000287097
0.000164304
0.00035408
0.000394328
0.000429829
0.000640242
0.000514532
0.000900398
0.000608316
0.00117334
0.000711239
0.00145773
0.000823302
0.00175233
0.000944445
0.00205594
0.00107455
0.00236739
0.00121345
0.0026855
0.0013609
0.00300911
0.00151663
0.00333703
0.00168027
0.00366805
0.00185144
0.00400097
0.00202968
0.00433455
0.00221447
0.00466758
0.00240528
0.00499882
0.00260149
0.00532705
0.00280248
0.00565105
0.00300758
0.00596964
0.0032161
0.00628164
0.00342735
0.00658592
0.00364061
0.00688133
0.00385517
0.00716673
0.00407035
0.00744093
0.00428542
0.00770262
0.00449964
0.00795029
0.00471217
0.00818257
0.00839756
0.00492187
7.61435e-07
-0.000208203
2.55597e-06
-0.000490407
5.83269e-06
-0.000664292
1.13377e-05
-0.000754811
1.99622e-05
-0.000779909
3.26215e-05
-0.00075236
5.01885e-05
-0.000681764
7.34632e-05
-0.000575433
0.000103154
-0.000438986
0.000139874
-0.00027677
0.000184147
-9.21902e-05
0.000236406
0.000112044
0.000297007
0.000333727
0.000366227
0.000571021
0.000444274
0.000822351
0.000531291
0.00108632
0.000627355
0.00136167
0.000732484
0.0016472
0.000846637
0.00194179
0.000969721
0.00224431
0.00110158
0.00255364
0.00124202
0.00286868
0.00139076
0.00318828
0.00154751
0.00351131
0.00171188
0.0038366
0.00188346
0.00416297
0.00206178
0.00448926
0.00224632
0.00481428
0.00243653
0.00513684
0.00263181
0.00545577
0.00283153
0.00576992
0.00303503
0.00607814
0.00324166
0.00637929
0.00345072
0.00667227
0.00366154
0.00695592
0.00387341
0.00722906
0.00408562
0.00749041
0.00429742
0.00773849
0.00450792
0.00797208
0.00818954
0.00471594
4.40435e-08
-0.000208247
-1.25962e-08
-0.000490351
4.97328e-07
-0.000664802
2.49593e-06
-0.000756809
7.01702e-06
-0.00078443
1.50848e-05
-0.000760428
2.7658e-05
-0.000694337
4.56039e-05
-0.000593379
6.96835e-05
-0.000463065
0.000100553
-0.00030764
0.000138769
-0.000130406
0.000184796
6.6017e-05
0.000239012
0.000279511
0.000301716
0.000508317
0.000373136
0.00075093
0.000453432
0.00100602
0.000542698
0.0012724
0.00064097
0.00154893
0.000748226
0.00183453
0.00086439
0.00212814
0.000989334
0.0024287
0.00112288
0.00273514
0.00126478
0.00304638
0.00141476
0.00336133
0.00157247
0.00367888
0.00173754
0.00399791
0.00190951
0.00431728
0.00208793
0.00463587
0.00227224
0.00495252
0.00246191
0.0052661
0.00265634
0.0055755
0.00285489
0.00587958
0.00305694
0.00617724
0.00326182
0.00646738
0.00346887
0.00674887
0.00367739
0.00702054
0.00388668
0.00728113
0.00409594
0.00752922
0.00430426
0.00776376
0.00798337
0.00451043
-7.11272e-07
-0.000207536
-2.70577e-06
-0.000488356
-5.06729e-06
-0.00066244
-6.67855e-06
-0.000755198
-6.36192e-06
-0.000784747
-2.9777e-06
-0.000763813
4.52151e-06
-0.000701836
1.70715e-05
-0.000605929
3.54866e-05
-0.000481481
6.0466e-05
-0.000332619
9.2601e-05
-0.000162541
0.000132385
2.62329e-05
0.000180221
0.000231676
0.000236429
0.000452109
0.000301257
0.000686102
0.00037488
0.000932401
0.000457412
0.00118987
0.000548905
0.00145744
0.000649356
0.00173408
0.000758708
0.00201879
0.000876853
0.00231055
0.00100363
0.00260836
0.00113883
0.00291118
0.00128219
0.00321797
0.0014334
0.00352767
0.0015921
0.00383921
0.00175789
0.0041515
0.00193032
0.00446344
0.00210889
0.00477394
0.00229309
0.00508191
0.00248234
0.00538625
0.00267605
0.00568586
0.00287361
0.00597968
0.00307438
0.00626661
0.0032777
0.00654555
0.00348289
0.00681535
0.00368923
0.00707479
0.00389591
0.00732255
0.00410197
0.0075577
0.00777916
0.00430618
-1.50691e-06
-0.000206029
-5.51435e-06
-0.000484349
-1.08378e-05
-0.000657117
-1.61536e-05
-0.000749883
-2.01284e-05
-0.000780772
-2.15045e-05
-0.000762437
-1.91437e-05
-0.000704197
-1.20413e-05
-0.000613031
6.71067e-07
-0.000494193
1.97354e-05
-0.000351684
4.57781e-05
-0.000188584
7.93211e-05
-7.31013e-06
0.000120792
0.000190206
0.000170532
0.000402368
0.000228809
0.000627825
0.000295816
0.000865394
0.000371683
0.001114
0.00045648
0.00137264
0.000550222
0.00164034
0.000652871
0.00191614
0.000764339
0.00219909
0.000884486
0.00248821
0.00101313
0.00278254
0.00115002
0.00308108
0.00129488
0.00338281
0.00144739
0.0036867
0.00160715
0.00399173
0.00177377
0.00429683
0.00194676
0.00460095
0.00212565
0.00490303
0.00230988
0.00520201
0.00249889
0.00549685
0.0026921
0.00578648
0.00288887
0.00606984
0.00308856
0.00634586
0.00329049
0.00661342
0.00349392
0.00687136
0.00369803
0.00711844
0.00390183
0.0073539
0.00757695
0.00410404
-2.33825e-06
-0.000203691
-8.42737e-06
-0.00047826
-1.67927e-05
-0.000648752
-2.58911e-05
-0.000740784
-3.42275e-05
-0.000772436
-4.04228e-05
-0.000756241
-4.32466e-05
-0.000701373
-4.16253e-05
-0.000614653
-3.4636e-05
-0.000501183
-2.14944e-05
-0.000364826
-1.53952e-06
-0.000208539
2.57791e-05
-3.46287e-05
6.09132e-05
0.000155071
0.000104227
0.000359054
0.000156005
0.000576047
0.000216459
0.000804939
0.000285738
0.00104472
0.000363928
0.00129445
0.000451063
0.0015532
0.000547124
0.00182008
0.000652041
0.00209417
0.000765696
0.00237456
0.000887924
0.00266031
0.00101851
0.00295049
0.0011572
0.00324412
0.00130368
0.00354022
0.0014576
0.0038378
0.00161859
0.00413585
0.00178619
0.00443334
0.00195995
0.00472927
0.00213934
0.00502262
0.00232384
0.00531235
0.00251286
0.00559746
0.00270579
0.00587691
0.00290199
0.00614965
0.00310079
0.00641463
0.00330141
0.00667073
0.00350303
0.00691682
0.0037046
0.00715233
0.00737671
0.00390483
-3.20168e-06
-0.000200489
-1.14317e-05
-0.00047003
-2.29045e-05
-0.000637279
-3.58469e-05
-0.000727842
-4.8596e-05
-0.000759687
-5.9649e-05
-0.000745189
-6.76829e-05
-0.00069334
-7.1555e-05
-0.000610781
-7.02888e-05
-0.000502449
-6.30579e-05
-0.000372057
-4.91675e-05
-0.000222429
-2.8039e-05
-5.57571e-05
8.03414e-07
0.000126229
3.77448e-05
0.000322113
8.30895e-05
0.000530702
0.000137068
0.00075096
0.000199846
0.000981944
0.000271528
0.00122277
0.000352166
0.00147257
0.000441759
0.00173049
0.000540259
0.00199567
0.000647567
0.00226725
0.000763538
0.00254434
0.000887982
0.00282605
0.00102066
0.00311144
0.00116131
0.00339958
0.00130959
0.00368952
0.00146514
0.0039803
0.00162755
0.00427093
0.00179638
0.00456044
0.00197115
0.00484785
0.00215133
0.00513217
0.00233636
0.00541243
0.00252565
0.00568762
0.00271855
0.00595675
0.00291437
0.00621881
0.00311235
0.00647276
0.0033116
0.00671757
0.00351106
0.00695287
0.00717836
0.00370941
-4.09299e-06
-0.000196396
-1.45121e-05
-0.000459611
-2.91422e-05
-0.000622649
-4.59708e-05
-0.000711014
-6.31625e-05
-0.000742495
-7.90893e-05
-0.000729262
-9.23355e-05
-0.000680094
-0.00010169
-0.000601426
-0.000106124
-0.000498015
-0.000104769
-0.000373411
-9.68987e-05
-0.0002303
-8.19059e-05
-7.07498e-05
-5.92912e-05
0.000103614
-2.86488e-05
0.00029147
1.03446e-05
0.000491708
5.79382e-05
0.000703366
0.000114315
0.000925567
0.0001796
0.00115748
0.000253862
0.0013983
0.000337119
0.00164723
0.000429343
0.00190345
0.000530454
0.00216614
0.000640331
0.00243446
0.000758806
0.00270757
0.000885668
0.00298458
0.00102066
0.00326459
0.00116349
0.00354669
0.00131382
0.00382997
0.00147126
0.00411349
0.00163539
0.00439631
0.00180576
0.00467749
0.00198185
0.00495608
0.00216312
0.00523115
0.00234899
0.00550176
0.0025388
0.00576694
0.00273187
0.00602574
0.00292739
0.00627724
0.00312446
0.0065205
0.00332199
0.00675534
0.00698174
0.00351861
-5.00732e-06
-0.000191389
-1.76513e-05
-0.000446967
-3.54713e-05
-0.000604829
-5.62075e-05
-0.000690278
-7.78483e-05
-0.000720855
-9.86404e-05
-0.00070847
-0.000117076
-0.000661658
-0.000131877
-0.000586625
-0.000141962
-0.00048793
-0.000146425
-0.000368949
-0.000144504
-0.00023222
-0.00013557
-7.96846e-05
-0.000119097
8.71415e-05
-9.46596e-05
0.000267033
-6.19161e-05
0.000458965
-2.05983e-05
0.000662048
2.94956e-05
0.000875473
8.85083e-05
0.00109847
0.000156528
0.00133028
0.000233592
0.00157016
0.000319691
0.00181735
0.000414768
0.00207106
0.000518721
0.00233051
0.000631407
0.00259489
0.000752637
0.00286335
0.000882182
0.00313504
0.00101977
0.0034091
0.00116509
0.00368465
0.00131778
0.0039608
0.00147744
0.00423664
0.00164364
0.00451129
0.00181589
0.00478383
0.00199366
0.00505339
0.00217635
0.00531906
0.00236334
0.00557995
0.0025539
0.00583519
0.00274721
0.00608392
0.00294234
0.00632537
0.00313815
0.00655953
0.00678664
0.00333325
-5.93923e-06
-0.00018545
-2.08304e-05
-0.000432075
-4.18537e-05
-0.000583806
-6.64962e-05
-0.000665635
-9.25678e-05
-0.000694783
-0.00011819
-0.000682848
-0.000141764
-0.000638084
-0.000161947
-0.000566443
-0.000177608
-0.000472269
-0.000187801
-0.000358757
-0.000191736
-0.000228286
-0.000188755
-8.26651e-05
-0.000178314
7.66999e-05
-0.000159964
0.000248683
-0.000133347
0.000432347
-9.81747e-05
0.000626876
-5.42271e-05
0.000831526
-1.34302e-06
0.00104559
6.0585e-05
0.00126836
0.000131614
0.00149913
0.000211754
0.00173721
0.000300969
0.00198185
0.00039918
0.0022323
0.000506265
0.0024878
0.000622061
0.00274755
0.000746363
0.00301074
0.000878923
0.00327654
0.00101945
0.00354412
0.00116763
0.00381263
0.00132307
0.0040812
0.00148535
0.004349
0.00165401
0.00461517
0.00182854
0.00487887
0.00200834
0.00513926
0.00219277
0.00539552
0.00238109
0.00564686
0.00257248
0.00589254
0.00276594
0.00613191
0.00296031
0.00636516
0.00659278
0.00315417
-6.88264e-06
-0.000178567
-2.40286e-05
-0.00041493
-4.82485e-05
-0.000559586
-7.67717e-05
-0.000637112
-0.000107229
-0.000664326
-0.000137617
-0.00065246
-0.000166251
-0.00060945
-0.000191722
-0.000540972
-0.000212853
-0.000451138
-0.00022866
-0.000342949
-0.000238325
-0.00021862
-0.000241167
-7.98234e-05
-0.000236618
7.21512e-05
-0.000224213
0.000236278
-0.000203572
0.000411706
-0.000174391
0.000597694
-0.00013643
0.000793565
-8.95095e-05
0.000998665
-3.35027e-05
0.00121235
3.16673e-05
0.00143396
0.00010603
0.00166284
0.000189571
0.00189831
0.000282232
0.00213964
0.000383916
0.00238612
0.000494484
0.00263698
0.000613754
0.00289147
0.000741507
0.00314879
0.000877481
0.00340815
0.00102137
0.00366874
0.00117283
0.00392975
0.00133145
0.00419038
0.00149679
0.00444983
0.00166834
0.00470732
0.00184553
0.00496207
0.0020277
0.00521335
0.00221411
0.00546046
0.00240388
0.00570277
0.002596
0.00593978
0.00278926
0.0061719
0.00639984
0.00298221
-7.8309e-06
-0.000170736
-2.72235e-05
-0.000395537
-5.46119e-05
-0.000532197
-8.69644e-05
-0.000604759
-0.000121734
-0.000629557
-0.000156795
-0.000617399
-0.000190378
-0.000575867
-0.000221012
-0.000510339
-0.000247474
-0.000424676
-0.000268748
-0.000321675
-0.000283988
-0.00020338
-0.000292489
-7.13225e-05
-0.000293664
7.33266e-05
-0.000287029
0.000229642
-0.000272187
0.000396863
-0.000248814
0.000574322
-0.000216654
0.000761404
-0.000175508
0.000957518
-0.000125228
0.00116207
-6.57206e-05
0.00137446
3.06587e-06
0.00159406
8.11371e-05
0.00182023
0.000168458
0.00205232
0.000264954
0.00228962
0.000370509
0.00253143
0.00048497
0.00277701
0.000608141
0.00302562
0.000739787
0.0032765
0.000879631
0.00352889
0.00102735
0.00378203
0.00118256
0.00403516
0.00134485
0.00428754
0.00151371
0.00453846
0.00168858
0.0047872
0.0018688
0.00503313
0.0020536
0.00527565
0.0022421
0.00551427
0.00243324
0.00574864
0.00262576
0.00597937
0.00620743
0.00281817
-8.7768e-06
-0.00016196
-3.03916e-05
-0.000373922
-6.08974e-05
-0.000501692
-9.70012e-05
-0.000568656
-0.00013598
-0.000590577
-0.00017559
-0.000577789
-0.000213979
-0.000537478
-0.000249616
-0.000474702
-0.000281239
-0.000393054
-0.000307798
-0.000295115
-0.000328423
-0.000182756
-0.000342386
-5.73591e-05
-0.000349084
8.00242e-05
-0.000348013
0.000228572
-0.00033876
0.000387609
-0.000320983
0.000556545
-0.000294407
0.000734829
-0.000258816
0.000921927
-0.000214044
0.0011173
-0.000159975
0.00132039
-9.6541e-05
0.00153062
-2.37134e-05
0.00174741
5.84945e-05
0.00197011
0.00015003
0.00219808
0.000250803
0.00243065
0.000360684
0.00266713
0.000479504
0.0029068
0.000607057
0.00314895
0.000743092
0.00339286
0.000887313
0.00363781
0.00103937
0.0038831
0.00119886
0.00412806
0.0013653
0.00437202
0.00153813
0.00461437
0.00171671
0.00485455
0.00190025
0.00509211
0.00208784
0.00532668
0.00227838
0.0055581
0.00247058
0.00578718
0.00601512
0.00266289
-9.71276e-06
-0.000152247
-3.35081e-05
-0.000350127
-6.70567e-05
-0.000468143
-0.000106806
-0.000528907
-0.000149862
-0.000547522
-0.000193863
-0.000533787
-0.00023688
-0.000494461
-0.000277328
-0.000434254
-0.000313904
-0.000356478
-0.000345532
-0.000263488
-0.000371316
-0.000156972
-0.000390509
-3.81657e-05
-0.000402491
9.20061e-05
-0.000406743
0.000232823
-0.000402832
0.000383699
-0.000390403
0.000544116
-0.000369163
0.000713589
-0.000338876
0.00089164
-0.000299359
0.00107778
-0.000250478
0.00127151
-0.000192144
0.00147229
-0.000124309
0.00167957
-4.69642e-05
0.00189277
3.98595e-05
0.00211126
0.000136095
0.00233442
0.000241639
0.00256158
0.000356349
0.00279209
0.000480046
0.00302525
0.000612508
0.0032604
0.000753468
0.00349685
0.000902605
0.00373397
0.00105954
0.00397112
0.00122382
0.00420774
0.0013949
0.00444329
0.00157214
0.00467732
0.00175474
0.0049095
0.00194179
0.00513964
0.00213214
0.00536774
0.00232447
0.00559485
0.00582242
0.00251717
-1.06309e-05
-0.000141616
-3.65471e-05
-0.000324211
-7.30394e-05
-0.000431651
-0.0001163
-0.000485646
-0.000163268
-0.000500553
-0.000211472
-0.000485584
-0.000258905
-0.000447028
-0.000303935
-0.000389225
-0.000345221
-0.000315191
-0.000381662
-0.000227047
-0.00041234
-0.000126294
-0.000436492
-1.40135e-05
-0.000453481
0.000108995
-0.000462774
0.000242116
-0.000463924
0.000384848
-0.000456556
0.000536749
-0.000440363
0.000697396
-0.000415092
0.000866369
-0.000380543
0.00104323
-0.000336563
0.00122753
-0.000283045
0.00141877
-0.000219921
0.00161645
-0.000147162
0.00182001
-6.47786e-05
0.00202888
2.71859e-05
0.00224245
0.000128651
0.00246012
0.000239502
0.00268124
0.000359585
0.00290517
0.000488709
0.00313127
0.000626636
0.00335892
0.000773078
0.00358752
0.000927687
0.00381651
0.00109004
0.00404539
0.00125962
0.0042737
0.0014358
0.00450114
0.0016178
0.0047275
0.00180466
0.00495277
0.00199525
0.00517715
0.00218818
0.00540193
0.00562881
0.00238179
-1.15229e-05
-0.000130093
-3.9482e-05
-0.000296252
-7.87944e-05
-0.000392339
-0.000125403
-0.000439038
-0.000176089
-0.000449868
-0.00022827
-0.000433403
-0.000279873
-0.000395425
-0.000329217
-0.00033988
-0.000374932
-0.000269477
-0.00041589
-0.000186089
-0.000451158
-9.1026e-05
-0.000479957
1.47852e-05
-0.000501636
0.000130674
-0.000515647
0.000256127
-0.000521529
0.00039073
-0.000518895
0.000534114
-0.00050742
0.000685921
-0.000486835
0.000845784
-0.000456925
0.00101332
-0.00041752
0.00118812
-0.000368495
0.00136975
-0.000309765
0.00155772
-0.000241281
0.00175152
-0.000163035
0.00195063
-7.50489e-05
0.00215447
2.26184e-05
0.00236245
0.000129876
0.00257398
0.000246597
0.00278845
0.000372617
0.00300525
0.000507732
0.00322381
0.000651689
0.00344357
0.000804176
0.00366403
0.000964808
0.00388475
0.00113311
0.00410541
0.00130847
0.00432578
0.00149015
0.00454583
0.00167719
0.00476573
0.00186844
0.00498591
0.00206245
0.00520791
0.00543373
0.00225753
-1.23806e-05
-0.000117713
-4.22859e-05
-0.000266347
-8.42699e-05
-0.000350355
-0.000134036
-0.000389272
-0.000188209
-0.000395694
-0.00024411
-0.000377503
-0.000299599
-0.000339936
-0.000352954
-0.000286525
-0.000402776
-0.000219655
-0.000447917
-0.000140948
-0.000487428
-5.15149e-05
-0.000520518
4.78746e-05
-0.000546522
0.000156678
-0.000564882
0.000274487
-0.000575125
0.000400973
-0.000576848
0.000535838
-0.000569714
0.000678786
-0.00055344
0.00082951
-0.000527794
0.000987676
-0.000492592
0.00115292
-0.000447693
0.00132485
-0.000392996
0.00150302
-0.000328436
0.00168696
-0.000253985
0.00187618
-0.000169651
0.00207013
-7.54716e-05
0.00226827
2.84824e-05
0.00247003
0.000142108
0.00267482
0.000265267
0.00288209
0.000397787
0.00309129
0.00053945
0.0033019
0.000689989
0.00351349
0.000849065
0.00372568
0.00101625
0.00393822
0.001191
0.00415103
0.00137259
0.00436423
0.00156012
0.0045782
0.00175242
0.00479361
0.00194803
0.00501231
0.0052366
0.00214516
-1.31953e-05
-0.000104517
-4.49319e-05
-0.00023461
-8.94144e-05
-0.000305872
-0.000142116
-0.00033657
-0.000199518
-0.000338292
-0.000258845
-0.000318176
-0.0003179