/*--------------------------------*- C++ -*----------------------------------*\
  =========                 |
  \\      /  F ield         | OpenFOAM: The Open Source CFD Toolbox
   \\    /   O peration     | Website:  https://openfoam.org
    \\  /    A nd           | Version:  7
     \\/     M anipulation  |
\*---------------------------------------------------------------------------*/
FoamFile
{
    version     2.0;
    format      ascii;
    class       volVectorField;
    location    "9.5";
    object      U;
}
// * * * * * * * * * * * * * * * * * * * * * * * * * * * * * * * * * * * * * //

dimensions      [0 1 -1 0 0 0 0];

internalField   nonuniform List<vector> 
32000
(
(0.000223154 -0.0056853 -1.62256e-22)
(0.00140796 -0.0123819 0)
(0.00373811 -0.0149062 -1.45776e-21)
(0.00683978 -0.0140427 0)
(0.0106699 -0.0103748 1.52432e-21)
(0.0151431 -0.00435114 0)
(0.0202001 0.00366634 1.57952e-21)
(0.0257924 0.0133852 -1.2021e-21)
(0.0318774 0.0245629 6.96514e-25)
(0.0384158 0.0369981 7.21745e-25)
(0.0453711 0.0505212 -4.14825e-22)
(0.0527088 0.0649854 1.67602e-21)
(0.060395 0.0802615 0)
(0.0683938 0.0962327 -4.26186e-22)
(0.0766664 0.112791 4.27953e-22)
(0.0851724 0.129832 0)
(0.0938688 0.147255 2.16803e-21)
(0.102711 0.164962 -4.35219e-22)
(0.111651 0.182855 0)
(0.120641 0.200836 8.84377e-22)
(0.129629 0.218807 8.86861e-22)
(0.138563 0.236671 0)
(0.147392 0.254334 0)
(0.156065 0.271704 0)
(0.164531 0.288691 0)
(0.172744 0.305211 0)
(0.18066 0.321187 0)
(0.188237 0.336546 0)
(0.195441 0.351227 -1.86507e-21)
(0.20224 0.365174 0)
(0.208609 0.378342 1.8942e-21)
(0.214527 0.390695 0)
(0.21998 0.402206 0)
(0.22496 0.412858 0)
(0.229462 0.422643 -1.9559e-21)
(0.23349 0.431556 -9.96921e-22)
(0.237052 0.439596 3.0004e-21)
(0.240169 0.446754 4.87389e-24)
(0.24286 0.453002 2.0394e-21)
(0.245012 0.458242 4.44478e-24)
(0.000336716 -0.00593986 0)
(0.00162667 -0.0130958 2.84353e-21)
(0.00393214 -0.0160555 7.27393e-22)
(0.00689893 -0.015609 -1.64335e-24)
(0.0104979 -0.0123473 -7.62432e-22)
(0.0146582 -0.0067228 0)
(0.019332 0.000899558 1.58095e-21)
(0.0244808 0.0102257 -1.60413e-21)
(0.0300709 0.0210122 0)
(0.0360713 0.0330582 -3.2869e-21)
(0.0424523 0.0461951 0)
(0.0491855 0.0602787 -5.02651e-21)
(0.0562429 0.0751818 0)
(0.0635939 0.0907905 0)
(0.0712055 0.107 1.71461e-21)
(0.0790437 0.12371 -1.72013e-21)
(0.0870712 0.140825 -1.73333e-21)
(0.0952486 0.158251 0)
(0.103535 0.175893 5.25174e-21)
(0.111887 0.193657 -1.75477e-21)
(0.120259 0.211451 3.26487e-24)
(0.128605 0.229182 -5.32226e-21)
(0.136879 0.246757 -3.56938e-21)
(0.145033 0.264086 -1.80591e-21)
(0.153022 0.281082 5.41196e-21)
(0.160803 0.297662 -5.46325e-21)
(0.168333 0.313747 5.50953e-21)
(0.175574 0.329266 -7.3535e-21)
(0.182491 0.344153 -1.84265e-21)
(0.189053 0.35835 3.49875e-23)
(0.195235 0.37181 -5.60903e-21)
(0.201013 0.384491 -3.78016e-21)
(0.206373 0.396363 7.6807e-21)
(0.211304 0.407403 -7.68903e-21)
(0.215798 0.417597 -1.92389e-21)
(0.219856 0.426934 -7.86239e-21)
(0.223483 0.435407 -1.02135e-23)
(0.226699 0.442998 2.01086e-21)
(0.229508 0.449671 -7.98311e-21)
(0.231782 0.455312 -1.12499e-20)
(0.000461084 -0.00619506 -6.51761e-22)
(0.00187342 -0.0138049 -1.42134e-21)
(0.00416683 -0.0171757 -6.57211e-21)
(0.00701165 -0.0171242 0)
(0.0103927 -0.014248 7.63643e-22)
(0.014254 -0.00900555 -7.7663e-22)
(0.0185603 -0.00176408 -9.48376e-21)
(0.0232837 0.00718051 3.20694e-21)
(0.0283985 0.0175854 -1.62587e-21)
(0.0338816 0.0292499 9.85893e-21)
(0.0397103 0.042006 3.32055e-21)
(0.0458617 0.0557113 1.67681e-21)
(0.052313 0.0702414 -6.75205e-21)
(0.0590395 0.0854853 0)
(0.0660133 0.101341 0)
(0.0732047 0.117714 3.44641e-21)
(0.0805821 0.134509 1.11342e-23)
(0.0881116 0.151638 -3.47101e-21)
(0.0957575 0.169011 -3.49718e-21)
(0.103482 0.186539 -7.01447e-21)
(0.111245 0.204131 1.05857e-20)
(0.119005 0.2217 1.586e-23)
(0.12672 0.239154 -7.68219e-24)
(0.134348 0.256409 3.56936e-21)
(0.141849 0.273377 -7.23048e-21)
(0.14918 0.289978 1.44768e-20)
(0.156304 0.306132 0)
(0.163184 0.321769 3.68175e-21)
(0.169786 0.33682 3.70769e-21)
(0.17608 0.351228 7.48007e-21)
(0.182041 0.364939 3.49732e-23)
(0.187645 0.377911 0)
(0.192876 0.390107 3.84211e-21)
(0.19772 0.401502 -3.77025e-21)
(0.202169 0.412074 -3.81907e-21)
(0.20622 0.421808 1.17488e-20)
(0.209877 0.43069 -1.16646e-20)
(0.213158 0.438695 7.95423e-21)
(0.216051 0.445777 -1.18287e-20)
(0.218418 0.451812 4.3714e-21)
(0.000594894 -0.00642811 5.21545e-21)
(0.00214398 -0.0144589 -5.70101e-21)
(0.00443477 -0.0182207 1.16923e-20)
(0.00716684 -0.0185468 0)
(0.0103406 -0.0160415 4.58315e-21)
(0.0139151 -0.0111693 7.77932e-21)
(0.0178676 -0.00429808 1.57885e-21)
(0.0221808 0.00427314 2.05166e-24)
(0.0268378 0.0143019 4.87736e-21)
(0.0318227 0.0255883 -1.64388e-21)
(0.0371192 0.0379655 8.29979e-21)
(0.0427104 0.0512929 -1.00505e-20)
(0.0485787 0.0654488 1.01249e-20)
(0.0547035 0.0803247 -3.40164e-21)
(0.0610615 0.0958217 3.41578e-21)
(0.0676279 0.111847 -6.87322e-21)
(0.0743759 0.128313 -1.03688e-20)
(0.0812762 0.145133 3.46652e-21)
(0.0882976 0.16222 -3.4957e-21)
(0.0954073 0.179491 1.05106e-20)
(0.10257 0.196859 -7.04733e-21)
(0.109749 0.214239 -7.06374e-21)
(0.116907 0.231545 0)
(0.124007 0.248692 0)
(0.131012 0.265599 -7.16747e-21)
(0.137882 0.282183 -7.23497e-21)
(0.144584 0.298369 -7.24694e-21)
(0.151083 0.314084 0)
(0.157346 0.32926 0)
(0.163346 0.343837 -1.48282e-20)
(0.169056 0.35776 -8.82226e-23)
(0.174454 0.370983 7.53072e-21)
(0.179522 0.383468 -7.51261e-21)
(0.184246 0.395182 -7.66367e-21)
(0.188615 0.406101 7.67716e-21)
(0.192624 0.416203 0)
(0.196277 0.425469 7.8121e-21)
(0.199589 0.433865 -1.56888e-20)
(0.202535 0.441339 1.57572e-20)
(0.204964 0.447755 -1.76815e-20)
(0.000737238 -0.00665319 -2.60375e-21)
(0.00243535 -0.0150847 4.27718e-21)
(0.00473177 -0.0192156 -5.84936e-21)
(0.00735913 -0.0198987 0)
(0.0103337 -0.0177469 -7.64112e-21)
(0.013631 -0.0132296 -4.66918e-21)
(0.0172413 -0.00671716 6.32698e-21)
(0.0211575 0.00149024 0)
(0.0253719 0.0111501 -9.75437e-21)
(0.0298758 0.0220637 -3.28919e-21)
(0.0346593 0.0340658 -3.31838e-21)
(0.0397108 0.0470175 6.70261e-21)
(0.0450169 0.0607991 -6.7489e-21)
(0.0505618 0.0753048 3.39423e-21)
(0.0563262 0.0904389 0)
(0.0622894 0.106112 1.03127e-20)
(0.0684286 0.122239 3.45998e-21)
(0.0747188 0.138738 -6.94781e-21)
(0.0811331 0.155527 1.39335e-20)
(0.0876427 0.172524 -1.3993e-20)
(0.0942168 0.189647 1.40272e-20)
(0.100823 0.206815 7.06375e-21)
(0.10743 0.223945 0)
(0.114002 0.240957 7.14698e-21)
(0.120507 0.257769 3.9237e-23)
(0.126909 0.274304 0)
(0.133177 0.290484 7.24697e-21)
(0.139279 0.306239 -7.31013e-21)
(0.145186 0.321501 7.2797e-21)
(0.150868 0.336208 1.47864e-20)
(0.156303 0.350304 -1.48218e-20)
(0.161467 0.36374 1.48983e-20)
(0.166342 0.376475 0)
(0.170914 0.388473 0)
(0.175171 0.399705 1.52292e-20)
(0.179106 0.410144 0)
(0.182721 0.419765 0)
(0.186032 0.428529 -1.55803e-20)
(0.189 0.436374 1.55419e-20)
(0.191461 0.443157 8.81245e-21)
(0.000886958 -0.00686274 1.30655e-21)
(0.00274431 -0.0156664 0)
(0.00505211 -0.020143 1.17248e-20)
(0.00757972 -0.0211637 1.49997e-21)
(0.0103613 -0.0193493 1.53293e-21)
(0.0133891 -0.0151737 9.35356e-21)
(0.0166663 -0.00900978 1.26684e-20)
(0.0201969 -0.00115828 0)
(0.0239823 0.00813882 3.25374e-21)
(0.0280208 0.0186837 9.86816e-21)
(0.0323085 0.030313 1.32823e-20)
(0.036839 0.0428896 -3.35053e-21)
(0.0416033 0.0562962 -1.01213e-20)
(0.0465894 0.0704296 0)
(0.0517816 0.0851968 1.36572e-20)
(0.0571628 0.100511 0)
(0.0627142 0.116292 2.06982e-20)
(0.0684143 0.13246 -6.91825e-21)
(0.0742396 0.148937 0)
(0.0801653 0.165644 -7.00037e-21)
(0.0861649 0.182504 -2.20599e-23)
(0.0922102 0.199439 -7.00766e-21)
(0.0982722 0.216371 -7.04955e-21)
(0.104321 0.233219 7.12625e-21)
(0.110326 0.249908 -7.10758e-21)
(0.116257 0.26636 0)
(0.122084 0.2825 -7.23698e-21)
(0.127779 0.29826 7.20933e-21)
(0.133313 0.31357 0)
(0.138661 0.328369 0)
(0.143798 0.342599 0)
(0.148705 0.356211 -1.4919e-20)
(0.153362 0.369159 1.48402e-20)
(0.157754 0.381405 0)
(0.161869 0.392915 -7.58772e-21)
(0.1657 0.403659 0)
(0.169248 0.413605 1.54204e-20)
(0.172527 0.42271 -7.58291e-21)
(0.175486 0.430904 -1.56128e-20)
(0.17795 0.438037 1.73182e-20)
(0.00104304 -0.00705824 9.16619e-21)
(0.00306723 -0.0162058 -1.28744e-20)
(0.00539027 -0.021005 -2.19973e-20)
(0.0078217 -0.0223432 -1.20085e-20)
(0.0104142 -0.0208497 -3.06398e-21)
(0.0131777 -0.017003 -6.23155e-21)
(0.0161295 -0.0111778 -2.85109e-20)
(0.0192842 -0.00367439 -9.64088e-21)
(0.0226523 0.00526544 -1.62673e-20)
(0.0262394 0.0154454 -1.64453e-20)
(0.0300475 0.026704 -2.32469e-20)
(0.0340747 0.0389063 -1.33944e-20)
(0.0383162 0.0519372 1.51383e-24)
(0.0427635 0.0656962 -1.35765e-20)
(0.0474044 0.0800928 -1.36571e-20)
(0.052225 0.095044 -2.0589e-20)
(0.0572095 0.110471 1.37781e-20)
(0.0623395 0.126299 -6.91259e-21)
(0.067595 0.142452 0)
(0.0729546 0.158856 1.39436e-20)
(0.0783952 0.175438 0)
(0.0838922 0.192121 2.81142e-20)
(0.08942 0.208831 0)
(0.0949521 0.225492 -7.10797e-21)
(0.100462 0.242029 7.15974e-21)
(0.105921 0.258369 -1.42373e-20)
(0.111304 0.274439 0)
(0.116584 0.290168 -1.44972e-20)
(0.121736 0.305492 1.44369e-20)
(0.126735 0.320346 0)
(0.131559 0.334674 0)
(0.136188 0.348424 0)
(0.140604 0.361548 -1.48029e-20)
(0.144792 0.374005 0)
(0.14874 0.385759 -1.51179e-20)
(0.15244 0.396775 3.0242e-20)
(0.155892 0.407016 -3.04301e-20)
(0.159112 0.416434 1.50661e-20)
(0.162033 0.424953 3.0795e-20)
(0.164472 0.432417 -1.72063e-20)
(0.00120421 -0.00723797 -1.17847e-20)
(0.00340066 -0.0166996 -1.42641e-23)
(0.00574062 -0.0217969 1.17376e-20)
(0.00807704 -0.0234327 2.40288e-20)
(0.0104825 -0.0222445 -3.06644e-21)
(0.0129854 -0.0187144 -1.24886e-20)
(0.0156175 -0.0132183 1.26734e-20)
(0.0184044 -0.00605638 1.92843e-20)
(0.0213658 0.00253085 6.50644e-21)
(0.0245143 0.012349 1.64506e-20)
(0.0278574 0.0232385 1.32838e-20)
(0.0313979 0.0350666 2.00895e-20)
(0.0351348 0.0477208 4.04734e-20)
(0.0390628 0.0611032 2.03672e-20)
(0.0431727 0.0751258 0)
(0.0474534 0.0897086 6.85442e-21)
(0.0518918 0.104776 6.87506e-21)
(0.0564724 0.120255 6.90291e-21)
(0.0611778 0.136075 1.38877e-20)
(0.0659898 0.152164 -6.96939e-21)
(0.0708884 0.168451 0)
(0.0758519 0.184865 -1.95966e-23)
(0.0808579 0.201334 -1.40748e-20)
(0.0858833 0.217786 1.41257e-20)
(0.0909039 0.234148 2.83899e-20)
(0.0958955 0.250348 2.85438e-20)
(0.100834 0.266317 3.68626e-23)
(0.105697 0.281985 1.43589e-20)
(0.110459 0.297289 1.44259e-20)
(0.1151 0.312164 -1.44966e-20)
(0.119597 0.326554 1.45708e-20)
(0.123933 0.340406 1.46483e-20)
(0.12809 0.35367 2.95316e-20)
(0.132053 0.366303 -1.24573e-22)
(0.135812 0.378266 4.47707e-20)
(0.139356 0.389521 4.4562e-23)
(0.142688 0.400025 -1.50667e-20)
(0.145822 0.409727 -1.52552e-20)
(0.148679 0.418547 1.52338e-20)
(0.151066 0.426322 1.71431e-20)
(0.00136932 -0.0074005 1.05052e-20)
(0.00374097 -0.0171448 1.43259e-20)
(0.00609731 -0.0225153 8.82707e-21)
(0.00833788 -0.0244289 -9.01205e-21)
(0.0105565 -0.0235305 -1.53416e-20)
(0.012801 -0.0203053 1.24855e-20)
(0.0151176 -0.0151299 0)
(0.0175436 -0.00830341 1.2869e-20)
(0.0201074 -6.46539e-05 0)
(0.0228288 0.00939395 -2.63284e-20)
(0.0257206 0.0199151 6.64621e-21)
(0.0287901 0.0313688 -3.34888e-20)
(0.0320397 0.0436451 -1.34908e-20)
(0.035467 0.0566484 6.79108e-21)
(0.0390656 0.0702935 9.59838e-24)
(0.0428267 0.0845032 -6.85116e-21)
(0.0467398 0.0992047 -1.3775e-20)
(0.0507916 0.114328 -2.7654e-20)
(0.0549672 0.129805 0)
(0.0592509 0.145567 2.07384e-23)
(0.0636255 0.161547 -1.39438e-20)
(0.0680719 0.177677 -1.40259e-20)
(0.0725706 0.193888 1.40749e-20)
(0.077101 0.21011 -1.41799e-20)
(0.0816421 0.226273 1.41549e-20)
(0.0861724 0.242309 -2.84062e-20)
(0.0906705 0.25815 3.866e-23)
(0.0951153 0.273728 -2.86385e-20)
(0.099486 0.288981 -1.4426e-20)
(0.103762 0.303845 -4.34326e-23)
(0.107924 0.318263 -1.0014e-22)
(0.111955 0.332182 -1.46484e-20)
(0.115838 0.345552 -1.47287e-20)
(0.119561 0.358326 -7.2795e-23)
(0.12311 0.370464 -1.48955e-20)
(0.126478 0.381923 -8.4163e-23)
(0.129667 0.39266 -1.51512e-20)
(0.132692 0.402618 4.50867e-20)
(0.135461 0.411711 -1.52339e-20)
(0.137772 0.419775 -1.71679e-20)
(0.00153712 -0.0075443 -1.05081e-20)
(0.00408446 -0.0175385 2.86649e-21)
(0.00645433 -0.0231569 -8.81949e-21)
(0.00859644 -0.0253283 -3.00769e-21)
(0.0106268 -0.0247049 1.22757e-20)
(0.0126134 -0.0217736 -3.12602e-21)
(0.0146177 -0.016911 3.17314e-21)
(0.0166883 -0.0104146 -1.9307e-20)
(0.0188629 -0.0025212 6.51307e-21)
(0.0211677 0.00657934 1.31665e-20)
(0.0236209 0.0167325 0)
(0.0262342 0.027811 2.67986e-20)
(0.029013 0.0397074 0)
(0.0319576 0.0523289 -2.71502e-20)
(0.0350639 0.0655929 -1.36477e-20)
(0.0383257 0.079425 0)
(0.0417339 0.0937548 0)
(0.0452773 0.108515 2.76448e-20)
(0.0489436 0.12364 1.3892e-20)
(0.052719 0.139066 -2.7835e-20)
(0.0565886 0.154728 1.39341e-20)
(0.0605354 0.17056 0)
(0.0645426 0.186496 -1.40858e-20)
(0.068592 0.202469 2.81739e-20)
(0.0726653 0.218414 -1.40989e-20)
(0.0767433 0.234264 -1.42425e-20)
(0.0808073 0.249951 1.41934e-20)
(0.0848383 0.265413 0)
(0.0888176 0.280585 2.87661e-20)
(0.0927268 0.295408 -1.43591e-20)
(0.0965484 0.309823 -1.45602e-20)
(0.100266 0.323776 -1.4586e-22)
(0.103865 0.337218 5.85727e-20)
(0.107333 0.3501 -4.39916e-20)
(0.110658 0.36238 0)
(0.113833 0.374012 -1.48968e-20)
(0.116861 0.384948 -3.00407e-20)
(0.119756 0.395133 1.47948e-20)
(0.122415 0.404473 1.50403e-20)
(0.124628 0.412804 0)
(0.00170618 -0.00766787 -2.1072e-20)
(0.00442724 -0.0178777 -2.87053e-21)
(0.00680574 -0.0237181 2.35826e-20)
(0.00884487 -0.0261278 -2.41142e-20)
(0.010684 -0.0257648 0)
(0.0124121 -0.023117 0)
(0.0141062 -0.0185601 -6.35428e-21)
(0.0158261 -0.0123895 -3.00921e-24)
(0.0176186 -0.00483907 6.51678e-21)
(0.0195167 0.00390428 0)
(0.0215436 0.013689 0)
(0.0237147 0.0243908 -6.69733e-21)
(0.0260385 0.0359051 4.9987e-24)
(0.0285178 0.0481417 6.79021e-21)
(0.0311506 0.0610209 1.36477e-20)
(0.0339323 0.0744706 0)
(0.0368558 0.088423 1.37834e-20)
(0.0399117 0.102814 -1.37881e-20)
(0.0430892 0.11758 -2.77366e-20)
(0.0463766 0.13266 2.78245e-20)
(0.0497606 0.147992 5.29862e-23)
(0.0532265 0.163513 -1.39655e-20)
(0.0567594 0.17916 1.40722e-20)
(0.0603434 0.19487 -2.81281e-20)
(0.0639624 0.210578 0)
(0.0675997 0.226219 1.42183e-20)
(0.0712385 0.241732 -2.84407e-20)
(0.0748622 0.257051 1.42169e-20)
(0.078454 0.272117 -1.43425e-20)
(0.0819974 0.28687 -1.44477e-20)
(0.0854767 0.301252 -1.46458e-20)
(0.0888772 0.315209 5.80375e-20)
(0.0921851 0.328691 -4.36072e-20)
(0.0953888 0.34165 -2.944e-20)
(0.0984784 0.354039 2.92714e-20)
(0.101446 0.365811 0)
(0.104296 0.376918 2.9879e-20)
(0.107044 0.3873 -2.96919e-20)
(0.109573 0.396861 -1.50405e-20)
(0.111668 0.405437 0)
(0.00187509 -0.00776967 4.48215e-20)
(0.00476537 -0.0181596 2.0159e-20)
(0.00714535 -0.0241957 -2.35825e-20)
(0.00907536 -0.026824 2.10971e-20)
(0.0107191 -0.0267075 -3.0789e-21)
(0.0121871 -0.0243335 6.2583e-21)
(0.013572 -0.0200762 0)
(0.0149454 -0.0142277 -6.44569e-21)
(0.0163625 -0.0070186 6.52078e-21)
(0.017863 0.00136761 6.59214e-21)
(0.019475 0.0107828 -6.6498e-21)
(0.0212176 0.0211059 -6.70597e-21)
(0.0231018 0.0322353 6.74804e-21)
(0.0251326 0.0440837 0)
(0.02731 0.0565739 0)
(0.029631 0.0696363 -1.37263e-20)
(0.0320898 0.0832058 1.37587e-20)
(0.0346785 0.0972205 -1.38379e-20)
(0.037388 0.11162 1.38491e-20)
(0.0402079 0.126346 1.39324e-20)
(0.0431264 0.141339 -2.79018e-20)
(0.0461307 0.156538 2.79809e-20)
(0.0492075 0.171883 6.64888e-23)
(0.0523431 0.187314 -1.4033e-20)
(0.0555231 0.202768 0)
(0.058733 0.218183 1.41998e-20)
(0.061958 0.2335 9.81092e-23)
(0.0651834 0.248655 -1.41946e-20)
(0.0683943 0.26359 0)
(0.0715762 0.278247 2.8824e-20)
(0.0747147 0.292568 -2.86865e-20)
(0.0777967 0.306501 0)
(0.0808101 0.319994 2.91956e-20)
(0.083744 0.332998 -2.90347e-20)
(0.0865895 0.345465 0)
(0.0893398 0.357349 0)
(0.0919995 0.368596 0)
(0.0945857 0.379148 -2.98641e-20)
(0.0969697 0.388904 2.96726e-20)
(0.0989283 0.397702 3.40053e-20)
(0.00204219 -0.00784807 -2.11081e-20)
(0.00509464 -0.0183812 -2.30335e-20)
(0.00746705 -0.0245865 -2.95436e-21)
(0.0092803 -0.0274142 9.05769e-21)
(0.0107233 -0.0275306 -1.23146e-20)
(0.0119287 -0.0254216 1.25304e-20)
(0.0130051 -0.0214582 -1.27243e-20)
(0.0140354 -0.015929 -1.93574e-20)
(0.0150835 -0.00906039 0)
(0.0161953 -0.001032 -6.59571e-21)
(0.0174036 0.00801194 6.6534e-21)
(0.0187307 0.0179538 0)
(0.0201902 0.0286951 1.35111e-20)
(0.0217891 0.0401514 -1.35811e-20)
(0.023529 0.0522483 -4.09874e-20)
(0.0254082 0.0649186 -2.07093e-23)
(0.027422 0.0780996 2.75522e-20)
(0.0295639 0.0917321 -1.38103e-20)
(0.031826 0.105759 0)
(0.034199 0.120122 0)
(0.0366725 0.134766 2.79026e-20)
(0.039235 0.149633 1.40175e-20)
(0.0418749 0.164664 -1.39945e-20)
(0.0445801 0.179802 -1.41006e-20)
(0.0473379 0.194987 2.82068e-20)
(0.0501355 0.21016 -1.41e-20)
(0.05296 0.225262 2.84652e-20)
(0.0557985 0.240233 -5.69172e-20)
(0.0586378 0.255015 5.71031e-20)
(0.0614649 0.269551 -5.72994e-20)
(0.0642672 0.283787 5.7506e-20)
(0.0670331 0.297668 -5.77221e-20)
(0.0697515 0.311144 2.88377e-20)
(0.0724131 0.324165 2.92297e-20)
(0.0750098 0.336683 2.90361e-22)
(0.0775355 0.348648 2.98606e-22)
(0.0799959 0.360007 -2.92979e-20)
(0.0824086 0.370702 2.10027e-22)
(0.0846337 0.380628 -2.95329e-20)
(0.0864414 0.389626 0)
(0.00220581 -0.00790166 2.64503e-21)
(0.00541076 -0.0185397 -2.88628e-21)
(0.00776456 -0.0248874 8.87093e-21)
(0.00945211 -0.0278955 -1.20884e-20)
(0.0106882 -0.0282319 6.16178e-21)
(0.0116281 -0.0263795 0)
(0.012396 -0.0227054 0)
(0.0130865 -0.0174934 2.58052e-20)
(0.0137716 -0.0109651 3.26637e-20)
(0.0145034 -0.00329575 -6.59777e-21)
(0.0153189 0.00537467 3.33028e-20)
(0.0162435 0.0149323 -6.70954e-21)
(0.0172932 0.0252818 0)
(0.0184765 0.0363418 0)
(0.0197965 0.0480407 2.73214e-20)
(0.0212525 0.0603137 0)
(0.0228409 0.0731008 1.37774e-20)
(0.0245562 0.086345 -1.38536e-20)
(0.0263915 0.0999913 0)
(0.0283385 0.113985 -2.78387e-20)
(0.0303876 0.128272 -1.39235e-20)
(0.0325287 0.142797 -4.19507e-20)
(0.0347515 0.157504 -1.40592e-20)
(0.0370451 0.172337 1.40289e-20)
(0.0393986 0.187239 2.81994e-20)
(0.0418005 0.202154 0)
(0.0442396 0.217024 2.83468e-20)
(0.0467045 0.231791 5.69582e-20)
(0.0491836 0.2464 2.11492e-22)
(0.0516654 0.260795 -2.84978e-20)
(0.0541388 0.274922 -2.88244e-20)
(0.0565936 0.288727 2.86793e-20)
(0.05902 0.30216 2.90375e-20)
(0.06141 0.315171 -5.80256e-20)
(0.0637562 0.327712 5.82421e-20)
(0.0660533 0.339732 -2.92738e-20)
(0.0683082 0.351177 2.9196e-20)
(0.0705387 0.361988 5.89174e-20)
(0.0725945 0.372062 2.94978e-20)
(0.0742389 0.381238 3.34366e-20)
(0.00236411 -0.00792899 -2.1216e-20)
(0.00570927 -0.0186327 2.0237e-20)
(0.00803166 -0.0250958 -1.77791e-20)
(0.00958341 -0.0282655 1.81654e-20)
(0.0106056 -0.0288095 3.08582e-20)
(0.0112766 -0.0272063 -2.51171e-20)
(0.0117361 -0.0238174 3.18747e-20)
(0.0120899 -0.0189211 1.93877e-20)
(0.0124182 -0.0127336 -4.57481e-20)
(0.0127786 -0.00542503 1.32165e-20)
(0.0132124 0.00286918 6.6808e-21)
(0.0137476 0.012039 1.34342e-20)
(0.014402 0.0219927 1.35362e-20)
(0.0151859 0.032652 -2.72161e-20)
(0.0161034 0.0439479 2.73584e-20)
(0.0171548 0.0558184 4.1231e-20)
(0.0183374 0.0682059 -4.13528e-20)
(0.0196463 0.0810559 5.53623e-20)
(0.0210754 0.0943154 2.77789e-20)
(0.022617 0.107932 4.17847e-20)
(0.0242627 0.121854 1.39947e-20)
(0.0260031 0.136028 2.7987e-20)
(0.027829 0.1504 -2.80735e-20)
(0.0297308 0.164917 0)
(0.0316988 0.179525 -8.4688e-20)
(0.0337228 0.194167 5.65502e-20)
(0.035793 0.20879 -2.81701e-20)
(0.0378994 0.223337 -2.82346e-20)
(0.0400317 0.237755 9.62671e-23)
(0.0421799 0.251988 0)
(0.0443342 0.265984 0)
(0.0464856 0.27969 2.87459e-20)
(0.0486258 0.293057 -2.89816e-20)
(0.0507476 0.306035 2.88218e-20)
(0.0528447 0.318573 -2.9185e-20)
(0.0549124 0.330622 -2.92933e-20)
(0.0569586 0.342128 0)
(0.0590011 0.353033 -2.92227e-20)
(0.0608798 0.36323 -2.92178e-20)
(0.0623511 0.372565 -1.00444e-19)
(0.00251517 -0.00792874 2.12139e-20)
(0.00598558 -0.0186578 -2.02371e-20)
(0.00826211 -0.0252092 2.36977e-20)
(0.00966699 -0.0285221 -4.24037e-20)
(0.010468 -0.0292621 -3.08647e-20)
(0.0108665 -0.0279011 2.5117e-20)
(0.0110177 -0.024794 -5.10253e-20)
(0.0110382 -0.0202126 -2.58457e-20)
(0.011016 -0.0143668 3.26935e-20)
(0.011014 -0.00742113 -5.94753e-20)
(0.0110771 0.000493732 -4.00003e-20)
(0.0112359 0.00927197 -1.34545e-20)
(0.0115099 0.0188255 -4.05927e-20)
(0.0119107 0.0290792 4.08243e-20)
(0.0124432 0.0399672 -2.73585e-20)
(0.0131086 0.0514298 -2.74838e-20)
(0.0139047 0.0634121 0)
(0.0148273 0.0758619 -2.76917e-20)
(0.0158707 0.0887283 -4.16935e-20)
(0.017028 0.101961 1.39162e-20)
(0.0182912 0.11551 -2.79336e-20)
(0.0196519 0.129324 0)
(0.0211017 0.143353 2.80737e-20)
(0.022632 0.157544 2.82199e-20)
(0.0242341 0.171845 -2.81654e-20)
(0.0258991 0.186203 0)
(0.0276182 0.200564 0)
(0.0293826 0.214876 0)
(0.0311832 0.229085 9.06179e-25)
(0.0330114 0.243138 0)
(0.0348585 0.256984 -5.74102e-20)
(0.0367168 0.270572 -1.27659e-22)
(0.0385789 0.28385 -5.7748e-20)
(0.0404388 0.296771 5.7814e-20)
(0.042291 0.309285 -2.88664e-20)
(0.0441312 0.321339 2.91167e-20)
(0.0459682 0.332883 0)
(0.0478197 0.343859 5.87126e-20)
(0.0495162 0.35416 -2.92131e-20)
(0.050807 0.363633 0)
(0.00265695 -0.0078997 2.65887e-21)
(0.00623503 -0.018613 0)
(0.00844973 -0.0252256 -2.96947e-20)
(0.0096959 -0.0286638 3.63736e-20)
(0.0102681 -0.0295884 1.85588e-20)
(0.0103906 -0.0284633 -2.51643e-20)
(0.0102338 -0.0256352 2.55239e-20)
(0.00992485 -0.0213683 -2.58906e-20)
(0.00955881 -0.0158655 0)
(0.00920377 -0.00928539 2.64444e-20)
(0.00890775 -0.00175331 -2.67061e-20)
(0.00870356 0.00662923 -2.40478e-23)
(0.00861221 0.015778 0)
(0.00864626 0.0256214 2.72664e-20)
(0.00881143 0.0360962 -1.37036e-20)
(0.00910936 0.0471456 2.75597e-20)
(0.00953847 0.0587171 1.38452e-20)
(0.0100949 0.0707607 -2.77498e-20)
(0.0107732 0.0832276 0)
(0.0115671 0.0960697 4.18917e-20)
(0.0124691 0.109239 1.40286e-20)
(0.0134713 0.122686 0)
(0.0145661 0.136362 0)
(0.0157457 0.150217 0)
(0.0170023 0.164201 2.82286e-20)
(0.0183279 0.178262 0)
(0.0197147 0.19235 -2.84546e-20)
(0.0211549 0.206412 5.68724e-20)
(0.0226406 0.220397 -5.69051e-20)
(0.0241641 0.234254 0)
(0.0257179 0.247933 2.86472e-20)
(0.0272953 0.261382 -2.87201e-20)
(0.02889 0.274553 2.88073e-20)
(0.0304967 0.287396 0)
(0.0321105 0.299863 0)
(0.0337278 0.311903 2.91663e-20)
(0.0353576 0.323464 -2.89885e-20)
(0.0370175 0.334491 5.86564e-20)
(0.0385293 0.344876 -5.82803e-20)
(0.0396348 0.35447 0)
(0.00278734 -0.00784087 1.86654e-20)
(0.00645288 -0.0184966 5.80349e-21)
(0.00858846 -0.0251434 2.37582e-20)
(0.00966348 -0.0286893 2.42995e-20)
(0.00999918 -0.029788 -2.474e-20)
(0.00984259 -0.028893 2.51644e-20)
(0.00937861 -0.0263415 2.55713e-20)
(0.0087445 -0.0223891 2.58907e-20)
(0.00804203 -0.017231 0)
(0.00734377 -0.0110191 2.64918e-20)
(0.00670064 -0.00387344 2.67062e-20)
(0.00614731 0.00410922 2.69168e-20)
(0.00570598 0.0128487 0)
(0.00539004 0.0222768 3.00553e-23)
(0.0052057 0.0323333 2.74113e-20)
(0.00515501 0.0429642 -1.37496e-20)
(0.00523673 0.0541193 -1.37864e-20)
(0.00544717 0.0657509 4.16502e-20)
(0.00578121 0.0778123 3.60713e-23)
(0.00623274 0.0902571 -1.39094e-20)
(0.00679479 0.103039 -2.79942e-20)
(0.00746001 0.116111 0)
(0.00822126 0.129427 0)
(0.00907142 0.142937 0)
(0.0100034 0.156594 0)
(0.01101 0.170348 0)
(0.0120842 0.18415 0)
(0.0132192 0.19795 2.85489e-20)
(0.0144079 0.211698 -2.84301e-20)
(0.0156435 0.225343 0)
(0.0169197 0.238838 0)
(0.0182303 0.252132 2.87204e-20)
(0.0195701 0.265177 0)
(0.0209344 0.277924 2.89798e-20)
(0.022319 0.290326 -2.88139e-20)
(0.0237201 0.302331 0)
(0.0251473 0.313889 5.84101e-20)
(0.0266174 0.32495 -5.80444e-20)
(0.0279444 0.335403 0)
(0.0288618 0.345101 0)
(0.00290422 -0.00775142 -2.13289e-20)
(0.00663439 -0.0183072 -5.81182e-21)
(0.00867235 -0.0249615 5.9511e-21)
(0.00956344 -0.028598 -2.42996e-20)
(0.00965513 -0.0298607 0)
(0.00921674 -0.0291905 0)
(0.00844713 -0.0269136 -1.91751e-20)
(0.00749298 -0.0232759 -6.48133e-21)
(0.00646219 -0.0184642 -1.31178e-20)
(0.00543132 -0.0126235 -1.3241e-20)
(0.00445375 -0.00586792 -1.33757e-20)
(0.00356571 0.00171071 1.34755e-20)
(0.00279033 0.0100364 1.35827e-20)
(0.00214153 0.0190443 -1.3647e-20)
(0.00162591 0.0286775 0)
(0.0012457 0.0388847 0)
(0.000999826 0.049618 -2.76864e-20)
(0.000884703 0.060832 0)
(0.000895317 0.0724818 0)
(0.00102576 0.0845231 2.80729e-20)
(0.0012694 0.0969114 9.63456e-23)
(0.00161927 0.109602 7.76084e-23)
(0.00206869 0.122548 -2.82575e-20)
(0.00261105 0.135706 2.81969e-20)
(0.00323975 0.149027 2.83462e-20)
(0.00394834 0.162464 -2.84044e-20)
(0.00473054 0.175969 0)
(0.00558011 0.189495 2.85834e-20)
(0.00649088 0.202992 1.83016e-22)
(0.00745686 0.216413 -2.85194e-20)
(0.00847236 0.229709 0)
(0.00953209 0.242832 0)
(0.0106313 0.255734 2.89104e-20)
(0.0117661 0.268369 -2.8751e-20)
(0.0129324 0.280688 -2.9043e-20)
(0.0141264 0.292641 2.88711e-20)
(0.0153576 0.304181 0)
(0.0166418 0.315257 0)
(0.0177861 0.325763 0)
(0.0185149 0.335552 -3.32486e-20)
(0.00300538 -0.00763069 2.6752e-20)
(0.00677488 -0.0180442 -1.16425e-20)
(0.00869571 -0.0246794 5.95932e-21)
(0.0093899 -0.02839 0)
(0.00923047 -0.029807 3.10185e-20)
(0.0085083 -0.0293566 2.0314e-25)
(0.00743543 -0.0273525 2.56218e-20)
(0.00616726 -0.0240299 -1.94648e-20)
(0.00481719 -0.0195665 2.62594e-20)
(0.00346517 -0.0140998 -1.32642e-20)
(0.00216666 -0.00773776 0)
(0.000959075 -0.000567145 1.34993e-20)
(-0.000133826 0.00734036 -4.07463e-20)
(-0.00109779 0.0159236 0)
(-0.00192604 0.0251286 4.12775e-20)
(-0.00261629 0.034907 -2.7628e-20)
(-0.00316963 0.0452135 -2.77497e-20)
(-0.00358966 0.0560043 1.39107e-20)
(-0.00388136 0.0672369 0)
(-0.00405054 0.0788688 -2.80064e-20)
(-0.00410358 0.090857 -2.81611e-20)
(-0.00404714 0.103159 -2.54736e-23)
(-0.00388755 0.11573 2.82804e-20)
(-0.00363105 0.128526 2.83801e-20)
(-0.00328379 0.141502 -5.66524e-20)
(-0.00285168 0.154613 2.84047e-20)
(-0.00234041 0.167812 0)
(-0.00175556 0.181053 -2.85717e-20)
(-0.00110268 0.194288 2.86258e-20)
(-0.000387126 0.207471 2.86799e-20)
(0.000386017 0.220554 -2.87339e-20)
(0.00121206 0.233492 2.87876e-20)
(0.00208681 0.246238 0)
(0.00300659 0.258745 2.89891e-20)
(0.00396734 0.270965 5.82174e-20)
(0.00496518 0.282851 -5.7751e-20)
(0.00600884 0.294356 5.83253e-20)
(0.00711307 0.305435 4.60283e-22)
(0.00807876 0.315979 -2.89164e-20)
(0.00862045 0.325845 6.65691e-20)
(0.00308863 -0.00747826 -1.60537e-20)
(0.00686977 -0.017707 -3.49922e-20)
(0.00865313 -0.0242972 2.3883e-20)
(0.00913748 -0.0280658 -1.82893e-20)
(0.00872038 -0.0296278 -6.1816e-21)
(0.00771332 -0.0293925 6.31309e-21)
(0.00634063 -0.0276595 -1.28035e-20)
(0.00476552 -0.0246524 -1.29882e-20)
(0.00310626 -0.0205389 1.31448e-20)
(0.00144557 -0.0154489 -2.65609e-20)
(-0.000159487 -0.00948367 -7.02813e-24)
(-0.00167063 -0.00272477 1.35062e-20)
(-0.00306377 0.00476056 0)
(-0.00432458 0.0129148 -1.37024e-20)
(-0.00544625 0.0216873 -1.37586e-20)
(-0.0064266 0.0310324 2.76521e-20)
(-0.0072669 0.040907 0)
(-0.00797082 0.0512697 0)
(-0.00854343 0.0620798 2.80411e-20)
(-0.00899048 0.0732965 -2.80447e-20)
(-0.00931823 0.0848788 0)
(-0.00953304 0.0967852 2.83e-20)
(-0.00964102 0.108974 -2.81605e-20)
(-0.00964812 0.121402 -5.67556e-20)
(-0.00956013 0.134026 -1.39268e-22)
(-0.00938252 0.146801 2.84618e-20)
(-0.00912046 0.159684 -5.7054e-20)
(-0.008779 0.172629 2.85721e-20)
(-0.0083632 0.185592 -2.86262e-20)
(-0.00787792 0.198525 1.20566e-22)
(-0.00732774 0.211385 7.06823e-23)
(-0.00671691 0.224124 -2.87879e-20)
(-0.00604931 0.236699 -2.88852e-20)
(-0.00532855 0.249064 -2.89318e-20)
(-0.00455886 0.261172 3.09709e-23)
(-0.0037447 0.272977 0)
(-0.00287826 0.284434 -2.9064e-20)
(-0.00194626 0.295502 5.84096e-20)
(-0.00115323 0.306074 -8.71648e-20)
(-0.000795465 0.316007 4.99825e-22)
(0.00315179 -0.00729393 -5.36646e-21)
(0.0069146 -0.0172959 4.66974e-20)
(0.00853953 -0.0238155 -2.3881e-20)
(0.00880132 -0.0276265 1.82845e-20)
(0.00812079 -0.0293247 -4.97114e-20)
(0.00682878 -0.0292999 6.31955e-21)
(0.00516086 -0.0278364 -2.5672e-20)
(0.00328714 -0.0251449 0)
(0.00132994 -0.0213829 0)
(-0.000625841 -0.0166717 -2.66047e-20)
(-0.00252201 -0.0111061 1.34227e-20)
(-0.00431979 -0.00476211 1.6442e-23)
(-0.00599505 0.00229754 1.36192e-20)
(-0.00753366 0.0100191 0)
(-0.00892892 0.0183551 -4.14089e-20)
(-0.0101789 0.0272627 1.3848e-20)
(-0.0112851 0.0367012 -2.78722e-20)
(-0.0122515 0.0466312 0)
(-0.0130833 0.0570139 0)
(-0.0137862 0.0678103 1.54524e-23)
(-0.0143663 0.078981 -2.81835e-20)
(-0.0148299 0.0904863 2.83465e-20)
(-0.0151829 0.102286 -2.84438e-20)
(-0.0154311 0.114339 2.83827e-20)
(-0.0155799 0.126602 3.24111e-23)
(-0.0156344 0.139035 3.67574e-23)
(-0.0155993 0.151593 2.85834e-20)
(-0.0154794 0.164234 -2.87104e-20)
(-0.0152792 0.176913 0)
(-0.0150033 0.189586 -2.88637e-20)
(-0.0146558 0.20221 2.87261e-20)
(-0.0142406 0.214739 0)
(-0.0137617 0.227131 2.88856e-20)
(-0.0132227 0.239342 -2.91854e-20)
(-0.0126282 0.251325 2.88075e-20)
(-0.0119837 0.263035 0)
(-0.0112827 0.274433 8.74368e-20)
(-0.0105136 0.28548 -5.80069e-20)
(-0.0098856 0.29607 0)
(-0.00970689 0.306059 3.33563e-20)
(0.00319272 -0.00707773 4.30459e-20)
(0.00690513 -0.0168116 -2.33653e-20)
(0.00835027 -0.0232358 -5.97957e-21)
(0.0083772 -0.0270741 6.10778e-21)
(0.00742842 -0.0288997 2.48692e-20)
(0.00585259 -0.029081 0)
(0.00389538 -0.0278852 2.56722e-20)
(0.00173267 -0.0255091 3.90707e-20)
(-0.000509936 -0.0220995 1.3169e-20)
(-0.002746 -0.0177689 1.3291e-20)
(-0.00491674 -0.0126052 1.34305e-20)
(-0.00698323 -0.00667863 -4.0627e-20)
(-0.00892159 -4.74938e-05 1.36383e-20)
(-0.0107181 0.00723833 5.4984e-20)
(-0.0123664 0.0151346 1.3778e-20)
(-0.0138649 0.0236012 1.38724e-20)
(-0.0152155 0.0325998 2.78725e-20)
(-0.0164225 0.0420931 0)
(-0.0174912 0.0520441 0)
(-0.0184275 0.0624154 5.64495e-20)
(-0.0192374 0.0731696 -1.13294e-19)
(-0.0199271 0.0842684 -1.90173e-23)
(-0.0205023 0.0956731 0)
(-0.0209686 0.107344 0)
(-0.0213314 0.119241 2.85471e-20)
(-0.0215952 0.131323 0)
(-0.0217647 0.143548 0)
(-0.0218439 0.155875 -2.88789e-20)
(-0.0218374 0.168261 -5.76877e-20)
(-0.0217492 0.180664 0)
(-0.0215833 0.193041 -5.78687e-20)
(-0.0213436 0.20535 -1.16015e-19)
(-0.0210338 0.217548 5.77572e-20)
(-0.0206582 0.229592 -5.81006e-20)