/*--------------------------------*- C++ -*----------------------------------*\
  =========                 |
  \\      /  F ield         | OpenFOAM: The Open Source CFD Toolbox
   \\    /   O peration     | Website:  https://openfoam.org
    \\  /    A nd           | Version:  7
     \\/     M anipulation  |
\*---------------------------------------------------------------------------*/
FoamFile
{
    version     2.0;
    format      ascii;
    class       volScalarField;
    location    "7";
    object      p;
}
// * * * * * * * * * * * * * * * * * * * * * * * * * * * * * * * * * * * * * //

dimensions      [0 2 -2 0 0 0 0];

internalField   nonuniform List<scalar> 
2000
(
0.197924
0.20239
0.205757
0.209416
0.213082
0.216632
0.220014
0.223194
0.226157
0.228905
0.19583
0.200577
0.204088
0.207816
0.211465
0.214921
0.21815
0.221123
0.223814
0.226315
0.19369
0.198783
0.202483
0.206317
0.20998
0.213369
0.216464
0.219247
0.221677
0.223901
0.191516
0.197013
0.200936
0.20491
0.208616
0.211962
0.214946
0.217563
0.219753
0.221674
0.189265
0.195238
0.199422
0.203568
0.207345
0.210675
0.213575
0.216055
0.218047
0.21965
0.186881
0.193424
0.197908
0.202257
0.206131
0.209469
0.21231
0.214693
0.216551
0.217848
0.184317
0.19154
0.196363
0.200941
0.204929
0.20829
0.211094
0.213418
0.215228
0.216285
0.181528
0.189559
0.194752
0.199577
0.203686
0.207075
0.209849
0.212148
0.214049
0.215052
0.178484
0.187459
0.193045
0.198118
0.202337
0.205735
0.208468
0.210797
0.213079
0.214557
0.175177
0.185227
0.191216
0.19652
0.200804
0.204128
0.206698
0.208906
0.211454
0.213746
0.234807
0.24317
0.248187
0.252853
0.256246
0.258958
0.261018
0.262459
0.263343
0.26378
0.232316
0.240227
0.245178
0.249772
0.253156
0.255898
0.257975
0.259446
0.260357
0.260827
0.229801
0.237381
0.2422
0.246711
0.250084
0.252851
0.254954
0.25646
0.257402
0.257907
0.227224
0.234637
0.239262
0.243682
0.247037
0.249824
0.251958
0.253501
0.254478
0.255016
0.224549
0.231986
0.236369
0.240691
0.244022
0.246822
0.248989
0.250571
0.251582
0.25215
0.221757
0.229409
0.233525
0.237741
0.241043
0.24385
0.246049
0.247669
0.248712
0.249303
0.218846
0.226866
0.230729
0.234833
0.238102
0.240911
0.243138
0.244793
0.245865
0.246472
0.215757
0.22422
0.227924
0.231928
0.235172
0.237985
0.240245
0.241936
0.243036
0.24365
0.212588
0.221287
0.224987
0.22894
0.232205
0.235046
0.237354
0.239089
0.24022
0.240834
0.211279
0.218823
0.222328
0.226188
0.229466
0.232302
0.234606
0.236331
0.237445
0.238024
0.218535
0.218171
0.219391
0.222199
0.224862
0.227113
0.228903
0.230196
0.230993
0.231369
0.199562
0.202925
0.20619
0.210147
0.213429
0.215908
0.217757
0.21906
0.219868
0.220247
0.17775
0.184661
0.19025
0.19576
0.200112
0.203226
0.205411
0.206884
0.207773
0.208186
0.154424
0.16417
0.171957
0.179095
0.184741
0.18876
0.191505
0.193306
0.19438
0.19487
0.12938
0.141167
0.150932
0.159665
0.166677
0.171739
0.175157
0.177321
0.178552
0.179107
0.102586
0.115742
0.127061
0.137146
0.145405
0.151561
0.155855
0.158675
0.160347
0.161093
0.0756149
0.0890659
0.10129
0.112152
0.121088
0.127785
0.132415
0.135369
0.137056
0.137839
0.0473893
0.0606899
0.0729329
0.083912
0.0931153
0.100277
0.105508
0.109069
0.111232
0.112181
0.0235794
0.0341866
0.0448128
0.0539562
0.0612968
0.0667517
0.0705176
0.0729432
0.07437
0.075106
-0.00653862
0.00438712
0.0127186
0.0196632
0.0254185
0.0299201
0.0331504
0.0352716
0.0364772
0.0368921
0.200447
0.183512
0.164582
0.142223
0.118133
0.0918581
0.0668372
0.0380923
0.0209476
-0.0171748
0.199152
0.179477
0.159958
0.136942
0.112663
0.0864416
0.0621139
0.0335501
0.0192019
-0.0215586
0.196906
0.17476
0.154658
0.13122
0.106899
0.0809152
0.0572674
0.0292032
0.0171055
-0.0256055
0.193179
0.169719
0.149244
0.12562
0.10137
0.0757242
0.0527269
0.0253031
0.0149919
-0.0297283
0.188642
0.164696
0.143888
0.120191
0.0960681
0.0708282
0.0484574
0.0218265
0.0128173
-0.0344726
0.183637
0.1598
0.138673
0.11497
0.091016
0.0662372
0.0444789
0.0188256
0.0106782
-0.0388792
0.178456
0.155101
0.133694
0.11002
0.0862637
0.0619866
0.0408375
0.0163512
0.00896058
-0.0377664
0.173434
0.150675
0.129038
0.105403
0.0818553
0.0581022
0.0375622
0.0143929
0.00777562
-0.0315314
0.168896
0.14661
0.124781
0.101168
0.0778252
0.0545993
0.0346601
0.0128821
0.00698082
-0.0258074
0.165117
0.142997
0.120983
0.0973595
0.0742007
0.0514865
0.0321285
0.011689
0.00572097
-0.0204926
0.1623
0.139931
0.117693
0.0940104
0.0710015
0.048768
0.0299627
0.010764
0.00477977
-0.0160655
0.160577
0.137504
0.114951
0.091147
0.068241
0.046443
0.0281644
0.01026
0.0040433
-0.0124277
0.160016
0.135813
0.112796
0.0887935
0.0659305
0.0445093
0.0267169
0.00995852
0.00361781
-0.00941875
0.160637
0.134943
0.111261
0.0869659
0.0640758
0.0429622
0.0255932
0.00984844
0.00343946
-0.00694053
0.162399
0.134921
0.110333
0.0856504
0.0626702
0.0417998
0.0247874
0.00991129
0.00345379
-0.00491834
0.165154
0.135663
0.10994
0.0847941
0.0616826
0.0409908
0.0242809
0.010137
0.0036282
-0.0032812
0.168727
0.137238
0.110136
0.0844228
0.0610799
0.0405032
0.024037
0.0105044
0.00393545
-0.00196074
0.173453
0.140492
0.111507
0.0848473
0.0610246
0.0403831
0.0240468
0.0109973
0.00435567
-0.000889923
0.179823
0.146057
0.114621
0.0864927
0.0618418
0.0408658
0.0244457
0.0116907
0.00490258
-7.55998e-06
0.183375
0.149761
0.116935
0.0880111
0.063037
0.0419618
0.0254108
0.012771
0.00562062
0.000700038
0.178576
0.148061
0.116581
0.088664
0.0650994
0.0451602
0.0288383
0.0162494
0.00771228
0.00194079
0.169132
0.139286
0.107582
0.0808912
0.0591927
0.0417775
0.0280246
0.0173934
0.00933919
0.00285107
0.162172
0.132222
0.103206
0.0791558
0.0595011
0.0435363
0.0305578
0.0200048
0.0112671
0.00359318
0.158841
0.129368
0.102485
0.0805512
0.0622569
0.0469936
0.0340578
0.0229665
0.013217
0.00427665
0.160407
0.131552
0.10583
0.0847573
0.0666718
0.0512081
0.0377288
0.025826
0.0150338
0.00490318
0.166447
0.137676
0.112036
0.0906917
0.0720079
0.0557983
0.0414501
0.0285912
0.0167431
0.00548388
0.175365
0.146037
0.11969
0.0973642
0.0776703
0.0604686
0.0451198
0.0312497
0.018355
0.00602719
0.185193
0.154894
0.127527
0.103979
0.0831582
0.0648938
0.048528
0.0336769
0.019809
0.00651601
0.19377
0.162478
0.134188
0.109547
0.0877299
0.0685276
0.0512871
0.0356195
0.0209624
0.0069019
0.198828
0.166913
0.138105
0.112809
0.0903967
0.0706276
0.0528712
0.0367265
0.0216117
0.00711458
0.212756
0.208228
0.198051
0.192073
0.190395
0.193526
0.200305
0.208875
0.216837
0.221729
0.221983
0.215714
0.207204
0.201697
0.200221
0.203447
0.21019
0.218673
0.226555
0.231492
0.229803
0.222323
0.213221
0.208201
0.207537
0.211648
0.219059
0.227911
0.235918
0.240935
0.238091
0.229776
0.220283
0.215428
0.2152
0.219866
0.227765
0.236946
0.245106
0.25021
0.246522
0.237592
0.228275
0.223701
0.22376
0.228688
0.236797
0.24612
0.25434
0.259476
0.254805
0.245497
0.236562
0.2324
0.232767
0.237881
0.246078
0.255427
0.263619
0.268724
0.262692
0.253406
0.244949
0.241238
0.241919
0.247186
0.255419
0.264736
0.272849
0.277875
0.27023
0.261217
0.253341
0.250112
0.251094
0.256472
0.264695
0.273935
0.281938
0.286849
0.277371
0.268795
0.261597
0.258899
0.260183
0.265642
0.273814
0.28294
0.290807
0.295581
0.28386
0.275998
0.269566
0.267448
0.26905
0.274582
0.282679
0.291665
0.299379
0.304001
0.289646
0.282713
0.277109
0.275614
0.277559
0.28317
0.291184
0.300017
0.307574
0.312039
0.294712
0.288847
0.284114
0.283271
0.285582
0.291289
0.299228
0.307908
0.315309
0.319625
0.29906
0.294333
0.290499
0.290321
0.293021
0.298842
0.306722
0.315257
0.322511
0.32669
0.302721
0.299137
0.296213
0.296695
0.299798
0.305756
0.313595
0.321999
0.329118
0.333178
0.305744
0.303252
0.301235
0.302358
0.30587
0.31198
0.319798
0.328086
0.335083
0.339043
0.308198
0.306705
0.305578
0.307306
0.311222
0.317495
0.325308
0.333493
0.340378
0.344256
0.310149
0.309537
0.309264
0.311556
0.315862
0.322304
0.330125
0.338219
0.344997
0.348805
0.311625
0.311753
0.312272
0.315075
0.319761
0.326386
0.334242
0.342267
0.348949
0.3527
0.312612
0.313384
0.314614
0.317862
0.322898
0.329719
0.337646
0.345641
0.352255
0.355966
0.313424
0.315065
0.317055
0.320713
0.326004
0.332888
0.340742
0.348575
0.355017
0.358636
0.31614
0.320979
0.325591
0.330825
0.336808
0.343399
0.350118
0.35628
0.361069
0.363689
0.320394
0.325776
0.331444
0.337502
0.343863
0.350256
0.356237
0.361304
0.364986
0.366917
0.324591
0.329963
0.335897
0.342043
0.348167
0.353955
0.359014
0.362992
0.365666
0.366987
0.327758
0.333292
0.339353
0.345426
0.351198
0.356325
0.360451
0.36334
0.364981
0.365635
0.329516
0.335416
0.341621
0.347663
0.353185
0.357808
0.361178
0.363111
0.363731
0.363606
0.330064
0.336531
0.342957
0.34907
0.354504
0.358828
0.361646
0.362731
0.36222
0.360899
0.329836
0.337133
0.34381
0.350093
0.355597
0.359831
0.362298
0.362611
0.360683
0.357024
0.329948
0.337946
0.344792
0.351319
0.356971
0.361223
0.363412
0.362862
0.358717
0.349839
0.331775
0.339981
0.346991
0.353911
0.359785
0.364033
0.365802
0.364423
0.358851
0.340601
0.338308
0.346531
0.354729
0.363472
0.371603
0.378862
0.385494
0.390527
0.37696
0.291425
0.312182
0.31551
0.31961
0.323122
0.325383
0.326963
0.328025
0.329451
0.330769
0.335637
0.310318
0.314295
0.318425
0.321869
0.32413
0.325691
0.326805
0.328419
0.329652
0.334094
0.308605
0.313707
0.317861
0.3211
0.323135
0.324428
0.325294
0.326739
0.327872
0.331943
0.306936
0.312976
0.317099
0.320211
0.322029
0.323095
0.323743
0.324998
0.325999
0.329688
0.305345
0.31209
0.316137
0.319165
0.320803
0.321688
0.32218
0.323298
0.324187
0.327537
0.303867
0.311065
0.315173
0.318048
0.319519
0.320237
0.320594
0.321595
0.322398
0.325471
0.302548
0.309986
0.314169
0.316897
0.318211
0.318764
0.318992
0.319878
0.320608
0.323451
0.301343
0.308843
0.313135
0.315727
0.316895
0.317286
0.31739
0.318162
0.318829
0.321469
0.300234
0.307629
0.312099
0.314556
0.315589
0.315823
0.315804
0.316457
0.317077
0.319534
0.299207
0.306356
0.311078
0.313407
0.314316
0.314393
0.314248
0.314785
0.315361
0.317649
0.298239
0.305041
0.310089
0.312299
0.313096
0.313013
0.312736
0.313156
0.313689
0.315832
0.297292
0.3037
0.309143
0.311252
0.311948
0.311701
0.311278
0.311573
0.312066
0.314098
0.296314
0.30235
0.308246
0.310284
0.310889
0.310472
0.309886
0.310043
0.3105
0.312456
0.295238
0.301007
0.307393
0.309408
0.309935
0.30934
0.308569
0.308571
0.309
0.310919
0.293979
0.299685
0.306575
0.308634
0.309097
0.308318
0.307336
0.30716
0.307572
0.309504
0.292445
0.298396
0.305779
0.307964
0.308384
0.307418
0.306195
0.305812
0.30622
0.308232
0.290551
0.297156
0.305001
0.307408
0.307807
0.30665
0.305149
0.304526
0.30495
0.30713
0.288148
0.295942
0.304237
0.306981
0.307382
0.30601
0.304161
0.303243
0.303735
0.30623
0.284739
0.29451
0.303362
0.306611
0.307073
0.305481
0.303207
0.301909
0.302519
0.305558
0.280351
0.29264
0.302074
0.305982
0.306722
0.305203
0.302806
0.301255
0.301809
0.30521
0.274272
0.288929
0.298627
0.303871
0.305994
0.306104
0.305496
0.305275
0.305785
0.306984
0.280251
0.292013
0.300065
0.304404
0.305766
0.305196
0.304015
0.303592
0.304264
0.305321
0.284602
0.294873
0.301827
0.305397
0.306068
0.304858
0.303211
0.302605
0.3034
0.304541
0.287712
0.297107
0.303447
0.306491
0.3066
0.304915
0.303207
0.303271
0.305288
0.307076
0.290568
0.299471
0.305363
0.307844
0.307197
0.30486
0.30328
0.30511
0.310363
0.314386
0.293356
0.302094
0.307714
0.309574
0.307889
0.304724
0.303651
0.309167
0.321266
0.330937
0.296104
0.305051
0.310773
0.312224
0.309493
0.305397
0.306208
0.318676
0.343598
0.365775
0.298817
0.308488
0.315099
0.317167
0.314743
0.311758
0.31702
0.341561
0.389302
0.440104
0.301372
0.312356
0.320956
0.325359
0.325502
0.326062
0.338718
0.382275
0.467126
0.577816
0.303459
0.316044
0.327425
0.335827
0.341494
0.351488
0.381619
0.454889
0.601973
0.826106
0.263534
0.272549
0.276916
0.280996
0.284525
0.287662
0.290366
0.292622
0.294297
0.295553
0.258613
0.269258
0.273759
0.278252
0.28194
0.285119
0.287749
0.289827
0.291229
0.292191
0.255404
0.266891
0.27131
0.27593
0.279526
0.282561
0.285013
0.286892
0.288106
0.288858
0.252694
0.264413
0.268784
0.273483
0.276983
0.27988
0.282178
0.283894
0.284968
0.285569
0.25008
0.261623
0.266016
0.270809
0.274261
0.277063
0.27926
0.280856
0.28183
0.282326
0.247473
0.258657
0.263125
0.267982
0.271417
0.274142
0.276277
0.277791
0.278698
0.279127
0.244894
0.255538
0.260243
0.265058
0.268501
0.271138
0.273251
0.274711
0.275579
0.275973
0.242343
0.252396
0.257269
0.262079
0.265557
0.268062
0.2702
0.271628
0.272479
0.272862
0.23981
0.249278
0.254249
0.259026
0.26245
0.265067
0.267143
0.26855
0.269405
0.269795
0.237299
0.246195
0.251215
0.255943
0.259345
0.262022
0.264076
0.265496
0.266359
0.266768
0.171618
0.182861
0.189249
0.194753
0.199035
0.202147
0.204257
0.205526
0.205602
0.202778
0.167825
0.180374
0.187151
0.192821
0.197062
0.199939
0.201628
0.202241
0.201293
0.197918
0.163916
0.177819
0.184948
0.190742
0.194913
0.197561
0.198907
0.199097
0.197788
0.194716
0.160014
0.175254
0.182678
0.188543
0.192605
0.195014
0.196044
0.195886
0.194364
0.191567
0.15626
0.172753
0.180399
0.186272
0.190182
0.192337
0.193069
0.192616
0.190954
0.188362
0.15282
0.170415
0.178191
0.184004
0.187723
0.189613
0.190061
0.189349
0.187573
0.185091
0.149884
0.168357
0.176162
0.181845
0.185338
0.186956
0.187131
0.186177
0.184274
0.18179
0.147665
0.166725
0.174447
0.179933
0.183171
0.184514
0.184423
0.18323
0.181168
0.178578
0.146379
0.165682
0.173204
0.178431
0.181391
0.182458
0.182106
0.180672
0.178414
0.175627
0.146144
0.165349
0.172574
0.177495
0.180166
0.180962
0.180354
0.178673
0.176185
0.173137
0.14688
0.165727
0.172625
0.177238
0.179634
0.180179
0.179326
0.177396
0.174651
0.171306
0.14931
0.167299
0.173739
0.177974
0.180064
0.180338
0.179223
0.177022
0.173988
0.170322
0.15348
0.170132
0.176009
0.179816
0.181574
0.181559
0.180161
0.177664
0.174312
0.170321
0.159436
0.174308
0.179543
0.182879
0.184274
0.183943
0.182231
0.179403
0.1757
0.17139
0.167237
0.179919
0.184436
0.187251
0.188241
0.187553
0.185483
0.182276
0.17818
0.173554
0.176876
0.187003
0.190732
0.192967
0.193501
0.192405
0.189925
0.186283
0.181739
0.176776
0.18827
0.195538
0.19841
0.200007
0.200028
0.198472
0.195531
0.1914
0.186327
0.180939
0.201252
0.20543
0.207389
0.20829
0.207747
0.205685
0.202239
0.197541
0.191773
0.185768
0.215578
0.216519
0.217519
0.217678
0.216542
0.213966
0.210006
0.204646
0.197836
0.190849
0.230921
0.228578
0.228588
0.22798
0.226261
0.223245
0.218923
0.21309
0.205395
0.197306
0.246942
0.241346
0.240347
0.238951
0.236668
0.233326
0.228944
0.223386
0.21668
0.212076
0.263476
0.254585
0.25251
0.25028
0.247412
0.243724
0.239223
0.233824
0.227774
0.223872
0.279868
0.267854
0.264707
0.261635
0.258169
0.254111
0.249432
0.244068
0.238268
0.23416
0.295608
0.280776
0.276604
0.272711
0.268659
0.264233
0.259367
0.253994
0.248304
0.243954
0.310275
0.293012
0.287891
0.28323
0.278632
0.273869
0.268837
0.263461
0.25786
0.253337
0.323497
0.30425
0.298292
0.292948
0.287874
0.282832
0.277684
0.27235
0.266889
0.262287
0.334969
0.314229
0.307574
0.301662
0.296209
0.290968
0.285776
0.28055
0.275306
0.270724
0.344465
0.322746
0.315558
0.309218
0.303501
0.298159
0.293007
0.287962
0.283012
0.278561
0.35184
0.32966
0.322122
0.31551
0.309658
0.304319
0.299295
0.294508
0.289925
0.285714
0.357013
0.334885
0.327196
0.32048
0.314628
0.309401
0.304592
0.300131
0.295979
0.292094
0.35998
0.338398
0.330773
0.324125
0.31841
0.313399
0.308884
0.304806
0.301135
0.29765
0.361029
0.340318
0.332903
0.32647
0.321013
0.316315
0.312168
0.308523
0.305367
0.302344
0.360254
0.34072
0.333666
0.327589
0.322503
0.318205
0.314489
0.311314
0.308692
0.306173
0.357822
0.339732
0.333178
0.327582
0.322968
0.319145
0.315912
0.313233
0.311148
0.309159
0.353956
0.337516
0.331577
0.326566
0.322509
0.319221
0.316513
0.314351
0.312796
0.311346
0.348895
0.334249
0.329013
0.32467
0.321237
0.318535
0.316383
0.314748
0.313709
0.312794
0.342885
0.330115
0.325644
0.322031
0.31927
0.317189
0.315616
0.314515
0.313971
0.313575
0.336166
0.325297
0.321627
0.318781
0.316726
0.315287
0.314306
0.313742
0.313671
0.313761
0.328965
0.31997
0.317114
0.315052
0.313716
0.31293
0.312543
0.312514
0.312898
0.313425
0.321496
0.3143
0.312245
0.310962
0.310344
0.310208
0.310412
0.310917
0.31176
0.312694
0.313925
0.308422
0.307137
0.306611
0.306694
0.307195
0.307975
0.309017
0.310395
0.311707
0.306267
0.302407
0.301878
0.302086
0.302846
0.303957
0.305278
0.306795
0.308596
0.310174
0.298762
0.296407
0.296585
0.297479
0.298873
0.300557
0.302383
0.30433
0.30649
0.308309
0.291552
0.290521
0.291338
0.292858
0.294838
0.297053
0.299351
0.301702
0.304191
0.30626
0.284686
0.284835
0.2862
0.288278
0.29079
0.293493
0.29623
0.298958
0.301753
0.304099
0.27825
0.279372
0.281214
0.283784
0.286769
0.289916
0.293058
0.296135
0.299215
0.301883
0.272266
0.274168
0.276414
0.279406
0.282806
0.286349
0.28986
0.293262
0.296592
0.299464
0.266736
0.269241
0.271818
0.275164
0.278922
0.282814
0.286658
0.29036
0.293925
0.297036
0.26165
0.264588
0.26743
0.271066
0.275126
0.279322
0.283463
0.287438
0.291219
0.294593
0.257079
0.260247
0.263271
0.267129
0.271432
0.275884
0.280284
0.2845
0.288469
0.292109
0.253234
0.256343
0.259417
0.263398
0.267869
0.272515
0.277127
0.281548
0.285673
0.289566
0.249511
0.252568
0.255697
0.25978
0.264385
0.269191
0.273981
0.278576
0.282824
0.286946
0.245993
0.248974
0.252137
0.256287
0.260988
0.265913
0.270842
0.275575
0.279909
0.284223
0.24271
0.245574
0.248739
0.25292
0.257676
0.26268
0.267708
0.272542
0.27692
0.28137
0.239621
0.242343
0.245485
0.249665
0.254444
0.259489
0.264576
0.269475
0.273851
0.278357
0.236684
0.239254
0.242356
0.246514
0.251287
0.256341
0.261452
0.26638
0.270707
0.275158
0.233864
0.236285
0.23934
0.243458
0.248203
0.25324
0.258347
0.263276
0.267516
0.271784
0.231132
0.23342
0.236423
0.240491
0.245192
0.250195
0.255278
0.260193
0.264326
0.268289
0.228462
0.230644
0.233597
0.237609
0.242258
0.247216
0.252263
0.257144
0.261129
0.26461
0.225839
0.227949
0.230855
0.234809
0.239406
0.244328
0.249352
0.254228
0.258234
0.261334
0.223235
0.225316
0.228181
0.232079
0.236625
0.24154
0.246628
0.251845
0.257451
0.263102
0.220524
0.22269
0.225549
0.229399
0.233878
0.238727
0.243748
0.248869
0.254436
0.25999
0.217796
0.220114
0.222981
0.226778
0.23116
0.235884
0.240747
0.245627
0.250735
0.256014
0.215085
0.217604
0.220485
0.224226
0.228499
0.23307
0.237752
0.242453
0.247363
0.251916
0.2124
0.215161
0.218068
0.221758
0.225917
0.230327
0.234816
0.23931
0.243927
0.247926
0.209756
0.212792
0.21574
0.219388
0.223437
0.227684
0.231978
0.236255
0.24059
0.244307
0.207169
0.210506
0.213511
0.21713
0.221075
0.225164
0.229266
0.233325
0.237387
0.240907
0.204649
0.208305
0.211386
0.214992
0.218846
0.222785
0.226698
0.230537
0.234326
0.237668
0.202208
0.206187
0.209365
0.212979
0.216759
0.220559
0.224289
0.227908
0.231423
0.234585
0.199913
0.204183
0.207468
0.211105
0.214826
0.218498
0.222053
0.225453
0.228694
0.231661
)
;

boundaryField
{
    inlet
    {
        type            zeroGradient;
    }
    outlet
    {
        type            fixedValue;
        value           uniform 0;
    }
    cylinder
    {
        type            zeroGradient;
    }
    top
    {
        type            symmetryPlane;
    }
    bottom
    {
        type            symmetryPlane;
    }
    defaultFaces
    {
        type            empty;
    }
}


// ************************************************************************* //
