/*--------------------------------*- C++ -*----------------------------------*\
  =========                 |
  \\      /  F ield         | OpenFOAM: The Open Source CFD Toolbox
   \\    /   O peration     | Website:  https://openfoam.org
    \\  /    A nd           | Version:  7
     \\/     M anipulation  |
\*---------------------------------------------------------------------------*/
FoamFile
{
    version     2.0;
    format      ascii;
    class       surfaceScalarField;
    location    "7";
    object      phi;
}
// * * * * * * * * * * * * * * * * * * * * * * * * * * * * * * * * * * * * * //

dimensions      [0 3 -1 0 0 0 0];

internalField   nonuniform List<scalar> 
3880
(
0.000138413
0.0034679
-0.00360631
0.000501282
0.00829272
-0.00865559
0.00104547
0.0119909
-0.0125351
0.00173299
0.0149383
-0.0156258
0.00252967
0.0173491
-0.0181458
0.00340416
0.0193504
-0.0202249
0.00432704
0.0210215
-0.0219444
0.00527006
0.0224146
-0.0233576
0.00620534
0.0235642
-0.0244995
0.0244894
0.00710542
-0.0253895
0.000146488
0.00332141
0.00053962
0.00789959
0.00113806
0.0113924
0.00190423
0.0141721
0.00280375
0.0164496
0.00380451
0.0183496
0.00487552
0.0199505
0.00598591
0.0213042
0.00710382
0.0224463
0.023397
0.00819618
0.000153888
0.00316753
0.000577528
0.00747595
0.00123053
0.0107394
0.00207527
0.0133274
0.00307714
0.0154477
0.00420372
0.0172231
0.00542345
0.0187308
0.00670396
0.0200237
0.00801009
0.0211402
0.0221047
0.00930244
0.000161512
0.00300601
0.000617591
0.00701987
0.0013276
0.0100294
0.00225303
0.012402
0.00335868
0.0143421
0.00461218
0.0159696
0.00598239
0.0173606
0.00743701
0.0185691
0.00893907
0.0196381
0.020601
0.0104428
0.000170711
0.0028353
0.000663668
0.00652691
0.0014364
0.00925669
0.00244826
0.0113901
0.00366275
0.0131276
0.00504734
0.014585
0.00657208
0.0158358
0.00820672
0.0169344
0.00991522
0.0179296
0.0188694
0.0116468
0.000183221
0.00265208
0.000720679
0.00598945
0.00156615
0.00841122
0.0026754
0.0102808
0.00400932
0.0117937
0.00553434
0.0130599
0.0072216
0.0141486
0.00904462
0.0151114
0.0109727
0.0160016
0.0168877
0.0129543
0.000201017
0.00245106
0.000794182
0.00539629
0.00172746
0.00747795
0.00295157
0.00905672
0.0044233
0.0103219
0.00610614
0.0113771
0.00797063
0.0122841
0.00999416
0.0130879
0.0121562
0.0138396
0.0146296
0.0144142
0.000226071
0.00222499
0.000889675
0.00473269
0.00193101
0.00643661
0.00329475
0.00769299
0.00493236
0.00868432
0.00680217
0.00950728
0.00887033
0.0102159
0.0111138
0.0108444
0.0135244
0.011429
0.0120632
0.0160908
0.000260074
0.00196492
0.00101169
0.00398108
0.00218559
0.0052627
0.00372038
0.0061582
0.00556268
0.00684202
0.00766512
0.00740484
0.00998564
0.00789542
0.0124901
0.00833994
0.0151687
0.0087504
0.00913857
0.0180933
0.000304126
0.00166079
0.00116272
0.00312248
0.00249559
0.00392983
0.00423633
0.00441746
0.00633026
0.00474809
0.0087307
0.00500439
0.0113961
0.00523004
0.0142846
0.00545138
0.0173479
0.00568715
0.0206155
0.00587094
0.00784612
0.0933425
-0.0940832
0.00794272
0.0997337
-0.0998303
0.00731788
0.103249
-0.102624
0.00626844
0.10608
-0.10503
0.00501045
0.109027
-0.107769
0.00371575
0.112449
-0.111154
0.00251546
0.116252
-0.115052
0.00149065
0.120101
-0.119076
0.000667945
0.123414
-0.122592
0.12541
-0.124742
0.00930795
0.0922307
0.00967318
0.0993685
0.00917942
0.103742
0.00813193
0.107127
0.00676337
0.110396
0.00526492
0.113947
0.00377808
0.117739
0.0023914
0.121488
0.00114033
0.124665
0.126551
0.0107529
0.0907802
0.0113798
0.0987415
0.0110281
0.104094
0.00999439
0.108161
0.00852213
0.111868
0.00681954
0.11565
0.00504191
0.119517
0.00328929
0.12324
0.00160951
0.126345
0.12816
0.0121861
0.0890369
0.0130535
0.0978742
0.0128481
0.1043
0.0118393
0.10917
0.0102735
0.113434
0.00837133
0.117552
0.00630333
0.121585
0.00418394
0.12536
0.00207623
0.128453
0.130236
0.0136254
0.0870583
0.0146942
0.0968054
0.0146289
0.104365
0.0136528
0.110146
0.0120049
0.115082
0.0099118
0.119645
0.00755814
0.123939
0.00507433
0.127844
0.00254077
0.130986
0.132777
0.0151019
0.0849107
0.0163132
0.095594
0.0163672
0.104311
0.0154241
0.111089
0.0137047
0.116801
0.0114322
0.121917
0.00880141
0.126569
0.00595867
0.130686
0.00300297
0.133942
0.13578
0.0166552
0.0826698
0.0179314
0.0943178
0.0180657
0.104177
0.0171456
0.112009
0.0153621
0.118585
0.0129229
0.124356
0.0100269
0.129465
0.006834
0.133879
0.00346194
0.137314
0.139242
0.0183225
0.0804382
0.019573
0.0930672
0.0197304
0.104019
0.0188107
0.112929
0.0169648
0.120431
0.0143721
0.126949
0.0112258
0.132612
0.00769539
0.13741
0.00391578
0.141094
0.143158
0.0201597
0.0783717
0.0212738
0.0919531
0.0213734
0.10392
0.0204155
0.113887
0.0185012
0.122345
0.0157663
0.129684
0.0123868
0.135991
0.00853532
0.141261
0.00436113
0.145268
0.147519
0.0223444
0.0766429
0.0231293
0.0911682
0.0230286
0.104021
0.0219654
0.11495
0.0199582
0.124352
0.0170831
0.132559
0.0134862
0.139588
0.00933526
0.145412
0.00478823
0.149815
0.152307
0.0530547
0.0918709
-0.0682827
0.0454137
0.0988092
0.041358
0.108076
0.0380806
0.118227
0.0340891
0.128344
0.0288986
0.13775
0.0225849
0.145902
0.015461
0.152536
0.00784201
0.157434
0.160149
0.0870158
0.110515
-0.105659
0.072277
0.113548
0.0614752
0.118878
0.0529566
0.126746
0.0451694
0.136131
0.0371662
0.145753
0.0285786
0.154489
0.0194092
0.161706
0.00981354
0.16703
0.169963
0.114823
0.128402
-0.13271
0.0976218
0.130749
0.0824769
0.134023
0.0693944
0.139828
0.0576348
0.14789
0.0463956
0.156992
0.0351362
0.165749
0.023634
0.173208
0.0118832
0.17878
0.181846
0.134637
0.143501
-0.149735
0.117853
0.147532
0.101017
0.15086
0.0850688
0.155776
0.0701436
0.162816
0.055929
0.171207
0.042025
0.179653
0.0281412
0.187092
0.0141359
0.192786
0.195982
0.147974
0.155294
-0.159767
0.132908
0.162598
0.116141
0.167627
0.0989441
0.172973
0.0819618
0.179798
0.0653101
0.187858
0.0488659
0.196097
0.0325208
0.203437
0.0162293
0.209077
0.212211
0.156241
0.163179
-0.164126
0.143551
0.175288
0.12782
0.183357
0.110481
0.190312
0.092512
0.197767
0.0743861
0.205984
0.0561576
0.214325
0.0377055
0.221889
0.0189755
0.227807
0.231187
0.161799
0.165754
-0.164374
0.152495
0.184592
0.138558
0.197294
0.121663
0.207207
0.102878
0.216552
0.0829194
0.225943
0.0623457
0.234899
0.0415555
0.242679
0.0207277
0.248635
0.251914
0.161525
0.160707
-0.156478
0.157251
0.188867
0.146324
0.20822
0.131205
0.222326
0.11349
0.234266
0.0937941
0.245639
0.0722973
0.256396
0.0492219
0.265754
0.0249914
0.272865
0.276906
0.159756
0.146385
-0.145435
0.16356
0.185064
0.156935
0.214845
0.14235
0.236912
0.122732
0.253883
0.100312
0.268059
0.0763425
0.280366
0.0514092
0.290688
0.025799
0.298476
0.302705
0.141544
-0.115615
0.15743
0.162359
0.156793
0.142338
0.121078
0.0948604
0.065155
0.0332046
0.0369331
-0.0796819
-0.0255339
0.0453508
-0.114077
0.0503503
-0.137709
0.0526958
-0.152081
0.0529202
-0.159992
0.0513554
-0.162562
0.0475302
-0.160549
0.041803
-0.150751
0.0328238
-0.136455
-0.1061
0.0387873
-0.0903807
-0.0280884
0.0464292
-0.121719
0.0506775
-0.141958
0.052357
-0.15376
0.051941
-0.159576
0.0496728
-0.160293
0.0450931
-0.155969
0.038647
-0.144305
0.0291025
-0.126911
-0.0963465
0.0404247
-0.100541
-0.0302643
0.047171
-0.128465
0.0506169
-0.145404
0.0515961
-0.15474
0.0505166
-0.158496
0.0475214
-0.157298
0.0422375
-0.150685
0.0351247
-0.137192
0.0253021
-0.117088
-0.0863493
0.0415377
-0.110018
-0.0320612
0.0473424
-0.13427
0.0499904
-0.148052
0.0502838
-0.155033
0.0485532
-0.156765
0.0448613
-0.153606
0.038946
-0.14477
0.0313037
-0.12955
0.0213597
-0.107144
-0.0762308
0.0420193
-0.118636
-0.033401
0.0468472
-0.139098
0.0487228
-0.149927
0.0483662
-0.154676
0.0460195
-0.154419
0.0416901
-0.149277
0.0352415
-0.138322
0.0272134
-0.121522
0.0173339
-0.0972647
-0.0661132
0.0417672
-0.126247
-0.0341564
0.0456276
-0.142958
0.0467829
-0.151083
0.0458307
-0.153724
0.042922
-0.15151
0.0380362
-0.144391
0.0311659
-0.131451
0.0228815
-0.113237
0.0132454
-0.0876286
-0.0562226
0.0407118
-0.132756
-0.0342021
0.0436663
-0.145913
0.0441776
-0.151594
0.0426987
-0.152245
0.0392981
-0.14811
0.0339543
-0.139047
0.0267825
-0.124279
0.0183629
-0.104818
0.00900498
-0.0782707
-0.0470973
0.0388334
-0.138144
-0.0334461
0.0409839
-0.148063
0.0409437
-0.151554
0.0390172
-0.150319
0.0352085
-0.144301
0.029519
-0.133358
0.022173
-0.116933
0.0137513
-0.0963959
0.00477252
-0.0692919
-0.0391042
0.0361599
-0.142457
-0.0318468
0.0376321
-0.149536
0.0371419
-0.151063
0.0348546
-0.148031
0.0307335
-0.14018
0.0248201
-0.127444
0.0174341
-0.109547
0.00915365
-0.0881155
0.000507544
-0.0606458
-0.0324882
0.0327593
-0.145798
-0.0294183
0.0336885
-0.150465
0.0328526
-0.150227
0.0302973
-0.145476
0.0259682
-0.135851
0.0199569
-0.121433
0.0126627
-0.102253
0.00469362
-0.0801464
-0.00299558
-0.0529566
-0.026666
0.0287391
-0.1483
-0.0262364
0.0292586
-0.150984
0.0281795
-0.149148
0.0254521
-0.142749
0.0210222
-0.131421
0.0150343
-0.115445
0.00795278
-0.0951718
0.000463468
-0.072657
-0.00646255
-0.0460306
-0.0217412
0.0241963
-0.15011
-0.0223865
0.0244341
-0.151222
0.0232144
-0.147929
0.0204153
-0.13995
0.0159946
-0.127
0.0101455
-0.109596
0.00337524
-0.0884015
-0.00365808
-0.0656237
-0.00975425
-0.0399344
-0.0176668
0.0192668
-0.151369
-0.0180083
0.0193402
-0.151296
0.0180782
-0.146667
0.0153057
-0.137177
0.0109972
-0.122692
0.00538623
-0.103985
-0.000997613
-0.0820177
-0.00746024
-0.0591611
-0.0128155
-0.0345791
-0.0143383
0.0140806
-0.152205
-0.0132446
0.0140952
-0.15131
0.0128847
-0.145456
0.0102326
-0.134525
0.0061288
-0.118588
0.000839409
-0.0986956
-0.00508559
-0.0760927
-0.0109648
-0.053282
-0.0156362
-0.0299077
-0.0116383
0.00876372
-0.152729
-0.00823978
0.00881059
-0.151357
0.00774137
-0.144387
0.00529661
-0.13208
0.00147634
-0.114767
-0.00343579
-0.0937835
-0.00887672
-0.0706517
-0.0141665
-0.0479922
-0.0182198
-0.0258544
-0.009448
0.00342619
-0.153025
-0.00312992
0.00358807
-0.151519
0.0027459
-0.143545
0.000589475
-0.129924
-0.00288991
-0.111288
-0.00738517
-0.0892882
-0.0123357
-0.0657012
-0.0170644
-0.0432635
-0.0205764
-0.0223424
-0.00765246
-0.00180865
-0.153184
0.0019682
-0.00146527
-0.151862
-0.00200821
-0.143002
-0.00382445
-0.128108
-0.00691323
-0.108199
-0.0109751
-0.0852264
-0.0154493
-0.061227
-0.0196646
-0.0390481
-0.0227209
-0.0192861
-0.00614307
-0.00674349
-0.153411
0.00697015
-0.00621137
-0.152394
-0.00641977
-0.142793
-0.0078599
-0.126668
-0.0105465
-0.105513
-0.0141831
-0.0815897
-0.0182144
-0.0571957
-0.021979
-0.0352835
-0.0246706
-0.0165946
-0.00481849
-0.0113665
-0.153895
0.0118499
-0.0106272
-0.153134
-0.0104593
-0.142961
-0.011488
-0.125639
-0.013764
-0.103237
-0.0169969
-0.0783568
-0.020634
-0.0535586
-0.0240215
-0.031896
-0.0264444
-0.0141717
-0.00358385
-0.0159351
-0.154584
0.0166243
-0.014927
-0.154142
-0.01425
-0.143638
-0.0147596
-0.125129
-0.0165738
-0.101423
-0.019416
-0.0755146
-0.0227061
-0.0502685
-0.0258128
-0.0287893
-0.0280569
-0.0119276
-0.00234128
0.036379
-0.147843
-0.0431201
0.0217629
-0.139526
-0.000239376
-0.121636
-0.0269271
-0.0984415
-0.0550485
-0.0733012
-0.0808388
-0.0497244
-0.101094
-0.0300134
-0.114584
-0.0152994
-0.121001
-0.00551058
-0.000695554
-0.00831841
-0.136422
-0.00310199
-0.0297644
-0.11808
-0.0554202
-0.0959803
-0.0819497
-0.071912
-0.105754
-0.0494974
-0.124334
-0.0311438
-0.136755
-0.0175929
-0.143589
-0.00846541
-0.1462
-0.00289888
-0.000264845
-0.0624678
-0.118126
0.0441713
-0.0857735
-0.094774
-0.110445
-0.0713088
-0.132365
-0.0499918
-0.149259
-0.0326035
-0.160579
-0.019824
-0.167078
-0.0110941
-0.170132
-0.0054109
-0.171122
-0.00190862
-0.000156741
-0.118295
-0.0971772
0.0973468
-0.140851
-0.0722181
-0.160592
-0.0515684
-0.175662
-0.0349213
-0.185653
-0.0226122
-0.191494
-0.0139832
-0.194538
-0.00805055
-0.195935
-0.00401404
-0.196426
-0.00141679
-9.78677e-05
-0.171284
-0.0768064
0.150913
-0.189703
-0.0537994
-0.203119
-0.0381518
-0.212125
-0.025915
-0.21752
-0.0172175
-0.220583
-0.0109206
-0.222264
-0.00636926
-0.223124
-0.00315451
-0.223453
-0.00108757
-6.47575e-05
-0.217836
-0.0590415
0.200072
-0.231338
-0.0402984
-0.239976
-0.029513
-0.245566
-0.0203249
-0.249001
-0.0137828
-0.251178
-0.00874396
-0.252479
-0.00506839
-0.253148
-0.00248467
-0.253383
-0.000853083
-5.02416e-05
-0.258021
-0.043863
0.242842
-0.268269
-0.0300495
-0.274936
-0.022847
-0.279563
-0.0156975
-0.282651
-0.0106951
-0.284683
-0.00671152
-0.285857
-0.00389447
-0.286431
-0.00191027
-0.286625
-0.000659673
-3.81669e-05
-0.29299
-0.0297399
0.278867
-0.302389
-0.020651
-0.309213
-0.0160229
-0.314061
-0.0108489
-0.31734
-0.00741685
-0.319417
-0.0046338
-0.320594
-0.00271779
-0.321174
-0.00133067
-0.321375
-0.000458619
-2.52381e-05
-0.3212
-0.0152161
0.306677
-0.331192
-0.0106592
-0.338886
-0.00832939
-0.344166
-0.00556882
-0.347744
-0.00383813
-0.34998
-0.00239849
-0.351279
-0.00141847
-0.351922
-0.000688233
-0.352145
-0.000235156
-1.20389e-05
-0.337616
0.3224
-0.348275
-0.356605
-0.362174
-0.366012
-0.36841
-0.369829
-0.370517
-0.370752
-0.0302365
-0.0352337
0.0223502
-0.0363899
0.00305135
-0.040086
0.0478675
-0.0408862
0.098147
-0.0389491
0.148976
-0.0347295
0.195852
-0.0285758
0.236688
-0.0205898
0.270881
-0.0108895
0.296976
0.311511
-0.0327655
-0.0282311
0.0257629
-0.038128
0.00841381
-0.0408755
0.0506149
-0.0408979
0.0981694
-0.0383939
0.146472
-0.0338559
0.191314
-0.0276082
0.230441
-0.0197448
0.263018
-0.0103803
0.287612
0.30113
-0.0351817
-0.0215616
0.0285123
-0.0398681
0.0131002
-0.041882
0.0526289
-0.0411856
0.097473
-0.0381165
0.143403
-0.0332182
0.186416
-0.0268262
0.224049
-0.0190357
0.255227
-0.00994975
0.278526
0.29118
-0.0370541
-0.0151927
0.0306851
-0.0411682
0.0172143
-0.0426032
0.054064
-0.0413313
0.096201
-0.0377843
0.139856
-0.0325627
0.181194
-0.0260377
0.217524
-0.0183243
0.247514
-0.00951891
0.26972
0.281662
-0.0383719
-0.00912715
0.0323064
-0.0420037
0.020846
-0.0429708
0.0550311
-0.0412617
0.0944919
-0.0373463
0.13594
-0.0318658
0.175714
-0.0252393
0.210897
-0.017616
0.239891
-0.00909297
0.261197
0.272569
-0.0391449
-0.0033519
0.0333696
-0.0423863
0.0240875
-0.0430035
0.0556483
-0.0409844
0.0924728
-0.0368056
0.131762
-0.0311325
0.170041
-0.0244389
0.204204
-0.0169188
0.232371
-0.00867738
0.252956
0.263891
-0.0393761
0.0021594
0.0338648
-0.0423101
0.0270215
-0.0426967
0.0560348
-0.0404965
0.0902726
-0.0361637
0.127429
-0.0303707
0.164248
-0.0236473
0.19748
-0.0162428
0.224966
-0.00827826
0.244991
0.255613
-0.0390587
0.00740854
0.0338096
-0.0417696
0.0297323
-0.0420326
0.0562979
-0.0397772
0.0880171
-0.0354061
0.123058
-0.029577
0.158419
-0.0228696
0.190773
-0.0155954
0.217692
-0.00790075
0.237297
0.247712
-0.0382117
0.0123932
0.033227
-0.040767
0.0322877
-0.0409972
0.0565281
-0.038801
0.085821
-0.0345088
0.118765
-0.0287377
0.152647
-0.0221027
0.184138
-0.0149791
0.210568
-0.00754784
0.229865
0.240164
-0.0368729
0.017117
0.032149
-0.0393193
0.0347341
-0.0395859
0.0567947
-0.0375463
0.0837814
-0.033444
0.114663
-0.0278314
0.147035
-0.021336
0.177642
-0.0143913
0.203624
-0.00721995
0.222694
0.232944
-0.035093
0.0215797
0.0306303
-0.0374617
0.0371028
-0.0378118
0.0571448
-0.0360041
0.0819738
-0.0321902
0.110849
-0.0268368
0.141682
-0.0205562
0.171362
-0.0138268
0.196894
-0.0069163
0.215783
0.226028
-0.0329319
0.0257738
0.0287378
-0.0352364
0.0394073
-0.0356934
0.0576017
-0.0341659
0.0804463
-0.0307182
0.107401
-0.025718
0.136681
-0.0197331
0.165377
-0.0132666
0.190428
-0.00662827
0.209145
0.2194
-0.0304671
0.0296905
0.0265504
-0.0327078
0.041648
-0.033277
0.0581709
-0.0320528
0.0792221
-0.0290252
0.104374
-0.0244577
0.132114
-0.0188479
0.159767
-0.0126976
0.184278
-0.00634986
0.202797
0.21305
-0.0277809
0.0333205
0.0241509
-0.0299482
0.0438153
-0.0306203
0.0588431
-0.0296993
0.078301
-0.0271192
0.101794
-0.0230433
0.128038
-0.0178797
0.154603
-0.0121022
0.1785
-0.00607166
0.196767
0.206978
-0.0249564
0.0366557
0.0216211
-0.0270344
0.0458933
-0.0277908
0.0595994
-0.0271547
0.0776648
-0.0250244
0.0996635
-0.0214749
0.124488
-0.0168148
0.149943
-0.0114645
0.17315
-0.00578384
0.191086
0.201194
-0.0220722
0.0396909
0.0190371
-0.0240418
0.0478629
-0.0248589
0.0604166
-0.0244773
0.0772832
-0.0227787
0.0979649
-0.0197661
0.121476
-0.0156483
0.145825
-0.0107726
0.168274
-0.00547761
0.185791
0.195717
-0.0191985
0.0424246
0.0164648
-0.0210399
0.0497042
-0.0218925
0.0612692
-0.0217283
0.077119
-0.0204279
0.0966646
-0.0179415
0.118989
-0.0143847
0.142269
-0.0100204
0.16391
-0.00514619
0.180917
0.190571
-0.0163976
0.0448629
0.0139592
-0.0180927
0.0513994
-0.018955
0.0621314
-0.018967
0.077131
-0.0180203
0.0957179
-0.016031
0.117
-0.0130348
0.139273
-0.00920549
0.16008
-0.00478461
0.176496
0.185786
-0.0137139
0.0470111
0.0115657
-0.0152438
0.0529293
-0.0160889
0.0629766
-0.0162345
0.0772766
-0.01559
0.0950734
-0.0140554
0.115465
-0.0116035
0.136821
-0.00832238
0.156799
-0.00438618
0.17256
0.1814
-0.0111215
0.0488122
0.00932038
-0.0124442
0.054252
-0.0132392
0.0637716
-0.0134762
0.0775136
-0.0130871
0.0946844
-0.0119678
0.114346
-0.010046
0.134899
-0.00733228
0.154086
-0.00392785
0.169155
0.177472
-0.0888388
0.0488578
0.0887932
-0.0903569
0.0557702
-0.0914693
0.064884
-0.0907026
0.0767468
-0.0868343
0.090816
-0.0787313
0.106243
-0.065619
0.121787
-0.0473936
0.13586
-0.0249074
0.146669
0.152565
-0.0818302
0.046524
0.0841639
-0.0803627
0.0543027
-0.078703
0.0632243
-0.0757533
0.0737972
-0.0706295
0.0856922
-0.0626112
0.0982248
-0.0512525
0.110428
-0.0365388
0.121146
-0.0190557
0.129186
0.133509
-0.0737865
0.0432961
0.0770144
-0.0708025
0.0513186
-0.0674784
0.0599002
-0.0631306
0.0694494
-0.0572164
0.079778
-0.0493633
0.0903717
-0.0394267
0.100491
-0.0275447
0.109264
-0.0141709
0.115812
0.119338
-0.0657931
0.0399217
0.0691675
-0.0620373
0.0475628
-0.0577249
0.0555878
-0.0525328
0.0642573
-0.046208
0.0734532
-0.0386462
0.0828098
-0.0299274
0.0917725
-0.0203235
0.0996606
-0.0102303
0.105719
0.109108
-0.0587597
0.0363944
0.062287
-0.0544443
0.0432474
-0.0493917
0.0505352
-0.0435577
0.0584234
-0.0369234
0.0668189
-0.0295956
0.0754819
-0.0218397
0.0840166
-0.014071
0.0918919
-0.00673735
0.0983856
0.10237
-0.0548415
0.0321421
0.0590939
-0.0495159
0.0379218
-0.0433948
0.0444141
-0.036576
0.0516046
-0.0292273
0.0594702
-0.0216459
0.0679005
-0.0143022
0.0766728
-0.00784915
0.0854389
-0.00304246
0.0935789
0.0993278
-0.0600545
0.0257879
0.0664086
-0.0526313
0.0304986
-0.0443408
0.0361236
-0.0352805
0.0425442
-0.0257776
0.0499673
-0.0163317
0.0584547
-0.00774578
0.0680869
-0.00123645
0.0789295
0.00156767
0.0907748
0.100895
-0.0885578
0.0163761
0.0979696
-0.0780299
0.0199707
-0.0661311
0.0242248
-0.0528626
0.0292758
-0.0384953
0.0356
-0.0235167
0.0434761
-0.00895325
0.0535234
0.00294438
0.0670319
0.00754278
0.0861764
0.108438
-0.163669
0.00553316
0.174512
-0.151236
0.0075375
-0.136543
0.0095318
-0.119364
0.0120972
-0.0993524
0.0155884
-0.0762204
0.0203441
-0.049782
0.0270851
-0.0209586
0.0382084
0.00362546
0.0615923
0.112064
-0.304049
0.309582
-0.296511
-0.286979
-0.274882
-0.259294
-0.23895
-0.211865
-0.173656
-0.112064
-0.00560244
0.0870766
0.00731902
-0.00351334
0.0820748
-0.00148742
0.0749885
0.000232793
0.0674473
0.00142492
0.0610949
0.00159861
0.0589202
0.000343052
0.0676642
-0.00213194
0.100445
-0.00367963
0.176059
0.305902
-0.00422382
0.0857838
0.00551662
-0.0025499
0.0804009
-0.000850212
0.0732888
0.000613576
0.0659835
0.00154035
0.0601681
0.00154155
0.058919
0.00026238
0.0689433
-0.00205336
0.10276
-0.00338311
0.177389
0.302519
-0.00292121
0.0848198
0.00388523
-0.0016027
0.0790824
-0.000214584
0.0719007
0.000988103
0.0647808
0.00169051
0.0594657
0.00154463
0.0590649
0.000261169
0.0702268
-0.00188145
0.104903
-0.00306881
0.178577
0.29945
-0.00176133
0.0841335
0.00244765
-0.000754938
0.078076
0.000371846
0.0707739
0.00133774
0.0638149
0.00185344
0.05895
0.0016006
0.0593177
0.000345647
0.0714818
-0.00162404
0.106873
-0.00270217
0.179655
0.296748
-0.000755326
0.0836716
0.00121729
-4.00934e-05
0.0773608
0.000892713
0.0698411
0.00166135
0.0630463
0.00203062
0.0585807
0.00171161
0.0596367
0.000514969
0.0726784
-0.00128197
0.10867
-0.0022857
0.180658
0.294462
0.000101876
0.0833572
0.000212506
0.000636797
0.0768258
0.00135628
0.0691216
0.00196554
0.0624371
0.00222642
0.0583198
0.00187789
0.0599852
0.000764437
0.0737919
-0.000862719
0.110297
-0.00182521
0.181621
0.292637
0.000808984
0.0831562
-0.000608046
0.00119397
0.0764409
0.00176603
0.0685495
0.00225386
0.0619492
0.00244209
0.0581316
0.00209719
0.0603301
0.00108778
0.0748013
-0.000375612
0.11176
-0.00132674
0.182572
0.29131
0.00136932
0.0829939
-0.00120693
0.00165644
0.0761537
0.00212223
0.0680838
0.00252542
0.061546
0.00267511
0.0579819
0.00236407
0.0606412
0.00147661
0.0756887
0.000170692
0.113066
-0.000796
0.183539
0.290514
0.00178787
0.0828074
-0.00160141
0.00202554
0.0759161
0.00242377
0.0676855
0.00277677
0.061193
0.00291993
0.0578387
0.00267019
0.0608909
0.00192028
0.0764386
0.000771573
0.114215
-0.000237124
0.184547
0.290277
0.0020709
0.0825445
-0.00180805
0.00230166
0.0756853
0.00266774
0.0673194
0.00300238
0.0608584
0.00316854
0.0576726
0.00300482
0.0610547
0.0024058
0.0770376
0.00140624
0.115214
0.000336523
0.185617
0.290614
0.00221986
0.0821664
-0.00184169
0.0024819
0.0754233
0.00284704
0.0669543
0.00319258
0.0605129
0.00340881
0.0574564
0.00335337
0.0611101
0.00291709
0.0774739
0.00206338
0.116068
0.000919131
0.186761
0.291533
0.00225417
0.081653
-0.0017408
0.00257787
0.0750996
0.00296447
0.0665677
0.00334472
0.0601326
0.00363384
0.0571672
0.00370617
0.0610378
0.00344362
0.0777365
0.00273496
0.116777
0.00150951
0.187987
0.293042
0.00218106
0.0810023
-0.00153038
0.00258994
0.0746907
0.00301421
0.0661434
0.00344853
0.0596983
0.00382986
0.0567859
0.00404698
0.0608206
0.00396817
0.0778153
0.00340575
0.117339
0.00209718
0.189295
0.29514
0.00201817
0.0802325
-0.00124836
0.00252603
0.0741828
0.00299628
0.0656732
0.00349762
0.0591969
0.00398565
0.0562979
0.00436164
0.0604447
0.00447577
0.0777012
0.00406275
0.117752
0.00267444
0.190684
0.297814
0.00179021
0.0793819
-0.000939573
0.0023986
0.0735745
0.0029146
0.0651572
0.00348806
0.0586235
0.00409129
0.0556946
0.00463661
0.0598993
0.00495196
0.0773858
0.00469326
0.118011
0.00323354
0.192143
0.301048
0.00153126
0.0785051
-0.0006545
0.00222605
0.0728797
0.00277846
0.0646048
0.00341962
0.0579823
0.00413907
0.0549752
0.00485947
0.0591789
0.00538304
0.0768622
0.00528502
0.118109
0.00376666
0.193662
0.304814
0.00128719
0.0776623
-0.000444343
0.00203453
0.0721323
0.00260416
0.0640351
0.00329731
0.0572892
0.00412436
0.0541481
0.00501899
0.0582843
0.00575572
0.0761255
0.00582588
0.118039
0.00426579
0.195222
0.30908
0.00110914
0.0769017
-0.000348527
0.00185608
0.0713854
0.00241445
0.0634768
0.00313166
0.056572
0.0040455
0.0532343
0.00510424
0.0572256
0.00605587
0.0751739
0.0063029
0.117792
0.0047221
0.196803
0.313802
0.00102643
0.0762417
-0.000366455
0.00172057
0.0706912
0.00223064
0.0629667
0.00293327
0.0558693
0.00390163
0.0522659
0.00510544
0.0560218
0.00627185
0.0740075
0.00670743
0.117356
0.00512815
0.198382
0.31893
0.00110432
0.0755368
-0.000399486
0.00165682
0.0701387
0.00206932
0.0625542
0.00270763
0.055231
0.00369782
0.0512758
0.0050294
0.0546902
0.00641497
0.0726219
0.00705957
0.116712
0.00549561
0.199946
0.324426
-0.0638919
0.0578202
0.0816086
-0.0480662
0.0543131
-0.0340944
0.0485824
-0.0220671
0.0432037
-0.0121272
0.0413358
-0.00470873
0.0472717
-0.000303792
0.068217
0.0010231
0.115385
0.000385099
0.200584
0.324811
-0.0722791
0.0423802
0.0877191
-0.0568417
0.0388757
-0.0423559
0.0340966
-0.029341
0.0301889
-0.0182079
0.0302027
-0.00951324
0.0385771
-0.00382258
0.0625263
-0.00108442
0.112646
-0.000294292
0.199794
0.324517
-0.0776648
0.028147
0.091898
-0.0630845
0.0242954
-0.0487086
0.0197207
-0.0351754
0.0166556
-0.0231671
0.0181944
-0.0135055
0.0289154
-0.00681422
0.0558351
-0.00297169
0.108804
-0.00105588
0.197878
0.323461
-0.0825875
0.0155765
0.095158
-0.0689446
0.0106525
-0.0548332
0.00560923
-0.0409296
0.00275202
-0.0281948
0.00545959
-0.0177394
0.0184601
-0.0102445
0.0483401
-0.00533159
0.103891
-0.00202495
0.194571
0.321436
-0.0884062
0.00451643
0.0994663
-0.0758472
-0.00190654
-0.0621577
-0.00808023
-0.0480479
-0.0113577
-0.0347573
-0.00783106
-0.023662
0.00736476
-0.0154853
0.0401634
-0.009328
0.0977338
-0.00386651
0.18911
0.317569
-0.0963622
-0.00477264
0.105651
-0.0853849
-0.0128838
-0.0728197
-0.0206454
-0.0592989
-0.0248786
-0.0461589
-0.020971
-0.0348364
-0.00395772
-0.0257887
0.0311157
-0.0175258
0.0894709
-0.0080402
0.179624
0.309529
-0.107563
-0.0113925
0.114182
-0.0996507
-0.0207957
-0.0902648
-0.0300314
-0.0797275
-0.0354159
-0.0688895
-0.031809
-0.0585778
-0.0142694
-0.0480344
0.0205723
-0.0351591
0.0765956
-0.0174321
0.161897
0.292097
-0.122731
-0.0136367
0.124975
-0.120636
-0.0228897
-0.118387
-0.0322806
-0.115651
-0.0381526
-0.111813
-0.0356462
-0.105598
-0.0204846
-0.093922
0.00889617
-0.0732324
0.0559061
-0.0394866
0.128151
0.25261
-0.140652
-0.00975161
0.136767
-0.147505
-0.0160366
-0.157129
-0.0226566
-0.168203
-0.0270784
-0.177693
-0.0261564
-0.180565
-0.0176128
-0.173417
0.00174847
-0.145414
0.0279025
-0.0886384
0.0713763
0.163972
-0.155459
0.145707
-0.171495
-0.194152
-0.22123
-0.247387
-0.264999
-0.263251
-0.235348
-0.163972
-0.00374351
0.0843432
0.0010089
-0.00583917
0.0898148
-0.0072095
0.0932683
-0.00820545
0.0961539
-0.00895406
0.100215
-0.00933499
0.106032
-0.00903803
0.113885
-0.00758779
0.123524
-0.00452485
0.133704
0.141182
-0.00323308
0.0867422
0.000834103
-0.00516076
0.0917424
-0.00645192
0.0945595
-0.00741461
0.0971166
-0.00811418
0.100914
-0.00843232
0.10635
-0.00809524
0.113548
-0.00671693
0.122146
-0.00395662
0.130943
0.137225
-0.0024465
0.0887913
0.000397339
-0.00419212
0.0934881
-0.0054289
0.0957963
-0.00638401
0.0980717
-0.00707117
0.101602
-0.007374
0.106653
-0.00705586
0.11323
-0.00580895
0.120899
-0.00339167
0.128526
0.133834
-0.0014874
0.0905274
-0.000248635
-0.00305231
0.095053
-0.00423384
0.0969778
-0.0051906
0.0990285
-0.00588759
0.102299
-0.00621255
0.106978
-0.00596196
0.11298
-0.00489377
0.119831
-0.00284214
0.126475
0.130992
-0.000405675
0.0919976
-0.00106454
-0.00177773
0.096425
-0.00289458
0.0980946
-0.00385616
0.09999
-0.0045818
0.103024
-0.00496318
0.10736
-0.00482404
0.112841
-0.00397548
0.118982
-0.00230741
0.124806
0.128684
0.000793172
0.0931514
-0.00194699
-0.000403609
0.0976218
-0.00142341
0.0991144
-0.0023937
0.10096
-0.0031677
0.103798
-0.00363888
0.107831
-0.0036511
0.112853
-0.00305728
0.118389
-0.0017864
0.123536
0.126898
0.00209557
0.0939571
-0.00290127
0.00116681
0.0985506
0.000165519
0.100116
-0.000821983
0.101948
-0.00165954
0.104636
-0.00225169
0.108423
-0.00245066
0.113052
-0.00214112
0.118079
-0.00127766
0.122672
0.12562
0.0034782
0.0943901
-0.0039112
0.00279811
0.0992307
0.00187273
0.101041
0.000860018
0.102961
-9.31458e-05
0.105589
-0.000814344
0.109144
-0.00122902
0.113466
-0.00122802
0.118078
-0.000779524
0.122224
0.124841
0.00491512
0.0944342
-0.00495922
0.00448572
0.0996601
0.00364451
0.101882
0.00261679
0.103988
0.00158215
0.106624
0.000669968
0.110056
7.8458e-06
0.114129
-0.000319143
0.118405
-0.000290429
0.122195
0.12455
0.00638067
-0.00602964
0.00621043
0.00546894
0.0044269
0.00328137
0.00218377
0.00126011
0.000588865
0.000192217
0.000358574
0.00130222
0.00134377
0.00213729
0.00286135
0.00241225
0.00484026
0.00243855
0.00722844
0.00235991
0.00999095
0.00224188
0.0131137
0.00210729
0.0166212
0.00194387
0.020641
0.00166731
0.000978068
0.000423875
0.000878344
0.00155001
0.00101115
0.00326816
0.000694102
0.00550074
0.00020596
0.00819491
-0.000334256
0.0113188
-0.000881968
0.0148614
-0.00143537
0.0188358
-0.00203051
0.0232693
-0.00276622