/*--------------------------------*- C++ -*----------------------------------*\
  =========                 |
  \\      /  F ield         | OpenFOAM: The Open Source CFD Toolbox
   \\    /   O peration     | Website:  https://openfoam.org
    \\  /    A nd           | Version:  7
     \\/     M anipulation  |
\*---------------------------------------------------------------------------*/
FoamFile
{
    version     2.0;
    format      ascii;
    class       volVectorField;
    location    "3.1";
    object      U;
}
// * * * * * * * * * * * * * * * * * * * * * * * * * * * * * * * * * * * * * //

dimensions      [0 1 -1 0 0 0 0];

internalField   nonuniform List<vector> 
2000
(
(-0.00586857 0.0370185 -1.08662e-20)
(-0.0062464 0.0865814 0)
(0.00513125 0.120278 0)
(0.0243418 0.142516 -5.38404e-20)
(0.0469572 0.155499 1.705e-20)
(0.0697331 0.161812 2.51005e-22)
(0.090633 0.164078 -2.93222e-20)
(0.108614 0.164455 0)
(0.123378 0.164476 0)
(0.135235 0.165147 0)
(-0.00997269 0.0384471 0)
(-0.015757 0.0827914 -4.16106e-20)
(-0.0080256 0.109936 3.83702e-20)
(0.00974613 0.126759 7.1931e-20)
(0.0327615 0.136429 0)
(0.0573438 0.141535 6.28886e-20)
(0.0809236 0.144266 -5.84764e-20)
(0.101989 0.14623 0)
(0.119874 0.148444 1.03434e-19)
(0.134695 0.151482 -1.95166e-19)
(-0.0141961 0.0403272 0)
(-0.0239622 0.0793246 3.30115e-19)
(-0.0180413 0.099491 0)
(-0.000267457 0.110229 2.86204e-19)
(0.0240819 0.115845 0)
(0.0508641 0.11908 -2.49351e-19)
(0.0770899 0.121786 0)
(0.100912 0.125065 2.19345e-19)
(0.121419 0.12941 -2.05418e-19)
(0.138685 0.134831 -1.93364e-19)
(-0.0184841 0.0423532 -8.65216e-20)
(-0.0305253 0.0759993 -1.65139e-19)
(-0.0241113 0.089114 -7.63198e-20)
(-0.00437494 0.0935917 -1.42684e-19)
(0.0226598 0.0948414 -1.32547e-19)
(0.0523006 0.0958456 1.24598e-19)
(0.0812159 0.0982032 1.15986e-19)
(0.107377 0.102558 -9.34469e-22)
(0.12979 0.108923 2.04335e-19)
(0.148793 0.116539 1.93067e-19)
(-0.0226858 0.0441508 -8.59251e-20)
(-0.034975 0.0724975 -1.64793e-19)
(-0.025353 0.0789893 -3.05812e-19)
(-0.00124614 0.0775865 1.41376e-19)
(0.0301857 0.0747332 0)
(0.0635545 0.0736344 0)
(0.0952455 0.0756461 -2.31615e-19)
(0.123233 0.0809859 -2.16798e-19)
(0.146617 0.0892479 2.02428e-19)
(0.166507 0.0987372 5.71778e-19)
(-0.0265556 0.0453039 8.56393e-20)
(-0.0367622 0.0684613 8.24961e-20)
(-0.0209168 0.0692036 -4.51501e-19)
(0.0101974 0.0629151 7.03975e-19)
(0.0478584 0.0568896 -1.30892e-19)
(0.0858128 0.0544073 0)
(0.120256 0.0565091 0)
(0.149417 0.0629893 1.07345e-18)
(0.172635 0.0730522 -1.00862e-18)
(0.192473 0.084118 1.89584e-19)
(-0.0297492 0.0454062 6.75295e-19)
(-0.0353201 0.0635323 0)
(-0.0101437 0.0597659 6.04753e-19)
(0.030518 0.0501578 -5.62205e-19)
(0.0759294 0.0424783 0)
(0.118929 0.0398545 2.43689e-19)
(0.15573 0.042871 -6.7851e-19)
(0.185176 0.0509136 -8.53644e-19)
(0.206967 0.0627253 3.98982e-19)
(0.225735 0.0752735 3.75518e-19)
(-0.0318482 0.0441498 -1.34448e-18)
(-0.030058 0.0574191 -1.61466e-19)
(0.00736367 0.0506942 -2.96127e-19)
(0.059568 0.0397237 -6.9013e-19)
(0.113447 0.0322487 -2.5873e-19)
(0.161165 0.0309603 -2.38424e-19)
(0.199353 0.035854 5.19738e-21)
(0.227868 0.0460322 0)
(0.246909 0.059603 0)
(0.263399 0.0739943 -1.89601e-21)
(-0.0324227 0.0414242 6.69199e-19)
(-0.0203592 0.0500004 -6.35463e-19)
(0.0317346 0.0421027 4.46403e-19)
(0.0964706 0.0318995 9.64114e-19)
(0.158333 0.0264645 -2.54309e-19)
(0.209462 0.0277823 2.43928e-19)
(0.247568 0.0352545 2.25183e-19)
(0.273845 0.0479727 0)
(0.289017 0.0632803 0)
(0.301447 0.0808873 -2.6542e-21)
(-0.0310535 0.0372891 -8.2383e-20)
(-0.0056378 0.0414686 7.94105e-19)
(0.0628103 0.0343581 -1.46205e-19)
(0.139679 0.0269518 0)
(0.20766 0.0249811 0)
(0.259985 0.0295646 4.72273e-19)
(0.296339 0.0396999 0)
(0.319593 0.0547268 -4.09526e-19)
(0.331326 0.07144 -3.3666e-22)
(0.337986 0.0943425 3.57226e-19)
(0.153296 0.172601 7.34387e-21)
(0.158367 0.190648 -7.46342e-21)
(0.154397 0.204904 -7.55747e-21)
(0.153741 0.218897 -7.68837e-21)
(0.114504 0.2298 -7.82619e-21)
(0.135597 0.243837 -1.9896e-23)
(0.051678 0.244707 3.94525e-21)
(0.109604 0.261786 1.21604e-20)
(-0.0112357 0.251707 0)
(0.0674708 0.293129 -8.28007e-21)
(0.158029 0.166459 2.91102e-20)
(0.163715 0.18859 -2.99077e-20)
(0.159155 0.206331 5.27758e-20)
(0.158613 0.222633 7.70111e-21)
(0.118788 0.234941 1.54286e-20)
(0.139175 0.250331 2.36567e-20)
(0.0548148 0.251708 -7.95383e-21)
(0.111159 0.268888 -8.10504e-21)
(-0.00981279 0.260087 1.61901e-20)
(0.0657666 0.300787 8.26091e-21)
(0.165277 0.159105 0)
(0.170457 0.186113 -2.97309e-20)
(0.164792 0.207509 -1.51153e-20)
(0.164145 0.226196 0)
(0.123483 0.240065 -4.64505e-20)
(0.143123 0.256813 1.5464e-20)
(0.0581283 0.258918 1.55661e-20)
(0.112936 0.276162 4.7902e-20)
(-0.00848363 0.268849 -1.61374e-20)
(0.0643991 0.308338 3.25015e-20)
(0.175632 0.150929 0)
(0.178656 0.183394 2.99836e-20)
(0.17132 0.208497 0)
(0.170358 0.229703 6.10513e-20)
(0.128602 0.245169 -6.1362e-20)
(0.147483 0.263311 -3.11563e-20)
(0.061641 0.26635 -5.05827e-23)
(0.11503 0.28364 -4.76602e-20)
(-0.00716257 0.27795 -7.96304e-21)
(0.0634151 0.315827 -4.0309e-20)
(0.189758 0.142547 3.53756e-22)
(0.188468 0.180437 -8.92889e-20)
(0.1788 0.209196 3.34807e-22)
(0.1773 0.233074 -6.07221e-20)
(0.134187 0.250091 0)
(0.152314 0.269796 -3.09792e-20)
(0.0653712 0.273961 -1.16891e-22)
(0.117508 0.291348 6.27922e-20)
(-0.00578451 0.287356 7.87398e-21)
(0.0628341 0.323333 -7.90491e-21)
(0.208114 0.13489 -2.37729e-19)
(0.200066 0.177372 1.5052e-19)
(0.187292 0.209587 6.07795e-20)
(0.185015 0.236241 -6.07368e-20)
(0.140301 0.254616 -3.0371e-20)
(0.157704 0.276072 0)
(0.0693544 0.281499 -6.15437e-20)
(0.120435 0.299096 3.08277e-20)
(-0.00428185 0.296914 3.10124e-20)
(0.0626564 0.330846 3.10343e-20)
(0.230663 0.129063 -2.97416e-20)
(0.213571 0.174531 0)
(0.196841 0.209718 0)
(0.193506 0.239306 0)
(0.14698 0.258929 -3.06993e-20)
(0.163688 0.282458 6.09741e-20)
(0.0735967 0.28918 6.12088e-20)
(0.123785 0.307124 -9.18475e-20)
(-0.00267499 0.306709 1.52743e-20)
(0.0629029 0.338511 -4.58747e-20)
(0.2566 0.125998 1.82312e-19)
(0.228982 0.172374 1.23621e-19)
(0.207489 0.209558 -1.22453e-19)
(0.202828 0.241906 1.22641e-19)
(0.154304 0.262319 -1.51792e-19)
(0.170505 0.288139 0)
(0.0782672 0.296231 -3.00649e-20)
(0.127824 0.314875 2.27327e-22)
(-0.000675433 0.316394 -2.98413e-20)
(0.0634515 0.346344 -2.97692e-20)
(0.284307 0.125821 -1.5481e-19)
(0.246102 0.17112 0)
(0.219 0.209574 -1.39851e-19)
(0.212603 0.24535 2.4586e-19)
(0.161998 0.266948 -9.09611e-20)
(0.177442 0.295387 -1.5109e-20)
(0.0828189 0.304265 2.99994e-20)
(0.131911 0.323546 1.40309e-22)
(0.00101906 0.326529 4.41905e-20)
(0.06472 0.354265 4.38602e-20)
(0.31203 0.125527 -1.27316e-19)
(0.267175 0.16752 1.25589e-19)
(0.233593 0.204914 1.55893e-20)
(0.224638 0.243141 0)
(0.171363 0.265582 0)
(0.187009 0.298202 1.48615e-20)
(0.0891946 0.30907 5.83228e-20)
(0.137661 0.330777 -5.71442e-20)
(0.00425283 0.335819 -1.41234e-20)
(0.0654 0.363696 1.386e-20)
(0.343394 0.147623 0)
(0.311448 0.185923 0)
(0.276691 0.228208 0)
(0.252836 0.272858 0)
(0.191425 0.295752 0)
(0.198628 0.328981 0)
(0.0946524 0.335519 0)
(0.146594 0.356007 0)
(0.0050077 0.361961 0)
(0.074324 0.377713 0)
(0.37973 0.188555 0)
(0.343544 0.221708 0)
(0.30779 0.257434 0)
(0.281835 0.29852 0)
(0.22181 0.325933 0)
(0.221884 0.362773 0)
(0.11224 0.37408 0)
(0.159941 0.399473 0)
(0.00196596 0.409398 0)
(0.0821407 0.448689 0)
(0.414384 0.228255 0)
(0.372837 0.261326 0)
(0.336467 0.297264 0)
(0.30913 0.335875 0)
(0.24958 0.365111 0)
(0.246156 0.39946 0)
(0.134887 0.416356 0)
(0.176707 0.442797 0)
(0.0181007 0.449775 0)
(0.0986519 0.427335 0)
(0.450983 0.265181 0)
(0.409538 0.302226 0)
(0.372186 0.340557 0)
(0.343121 0.38132 0)
(0.279021 0.412538 0)
(0.276143 0.448834 0)
(0.159982 0.461643 0)
(0.207951 0.493538 0)
(0.0350592 0.505458 0)
(0.10238 0.614928 0)
(0.492311 0.306502 0)
(0.450715 0.347587 0)
(0.413874 0.388277 0)
(0.381793 0.428943 0)
(0.314856 0.467688 0)
(0.295155 0.502831 0)
(0.171097 0.530576 0)
(0.181047 0.55298 0)
(-0.0111644 0.55056 0)
(0.0777065 0.47345 0)
(0.53649 0.328773 0)
(0.491998 0.373295 0)
(0.450636 0.41731 0)
(0.423694 0.467033 0)
(0.353085 0.507098 0)
(0.356331 0.557879 0)
(0.237336 0.579034 0)
(0.304618 0.638137 0)
(0.163649 0.662926 0)
(0.159829 0.78398 0)
(0.58792 0.389105 0)
(0.552158 0.442138 0)
(0.512853 0.489481 0)
(0.472983 0.530928 0)
(0.389487 0.57753 0)
(0.343321 0.612912 0)
(0.190097 0.643824 0)
(0.162627 0.64748 0)
(-0.0647319 0.643427 0)
(0.0710677 0.66774 0)
(0.617375 0.367172 0)
(0.571779 0.423661 0)
(0.536574 0.487406 0)
(0.528924 0.561756 0)
(0.465954 0.624977 0)
(0.472259 0.702351 0)
(0.344461 0.753253 0)
(0.367917 0.830234 0)
(0.171032 0.863422 0)
(0.128169 0.90852 0)
(0.752312 0.492875 0)
(0.706177 0.543 0)
(0.632975 0.585051 0)
(0.569684 0.627779 0)
(0.466459 0.679827 0)
(0.422484 0.733092 0)
(0.271172 0.77199 0)
(0.269914 0.815556 0)
(0.0885399 0.822494 0)
(0.124314 0.861304 0)
(0.661743 0.37689 0)
(0.713982 0.50236 0)
(0.710378 0.606539 0)
(0.709691 0.700752 0)
(0.624918 0.78716 0)
(0.600322 0.879221 0)
(0.43505 0.95355 0)
(0.401194 1.03153 0)
(0.167033 1.07486 0)
(0.139377 1.14815 0)
(0.395812 0.133856 1.10386e-19)
(0.428635 0.169677 -1.09287e-19)
(0.464592 0.207394 1.16377e-20)
(0.4981 0.242036 0)
(0.536162 0.278445 0)
(0.579419 0.301856 7.06027e-21)
(0.619733 0.351323 -1.91532e-20)
(0.663435 0.343932 1.87378e-20)
(0.756037 0.446221 1.2153e-21)
(0.611411 0.289094 -1.19944e-21)
(0.410888 0.13731 -1.43779e-19)
(0.440219 0.17226 0)
(0.477071 0.207733 7.74334e-20)
(0.508868 0.240493 -1.65777e-19)
(0.546848 0.272985 9.41915e-20)
(0.589832 0.296608 -7.44108e-21)
(0.628427 0.341049 1.11322e-20)
(0.676423 0.337205 1.34671e-20)
(0.748853 0.426611 -8.33601e-22)
(0.582437 0.251194 -8.34239e-22)
(0.425904 0.140416 1.64224e-19)
(0.453186 0.17066 -9.57423e-20)
(0.492149 0.203012 9.48051e-20)
(0.522006 0.234153 -7.46519e-20)
(0.559857 0.263745 5.65155e-20)
(0.601921 0.287463 0)
(0.638927 0.328179 -1.11559e-20)
(0.688749 0.327396 -4.83235e-22)
(0.739463 0.402814 -3.95967e-21)
(0.551646 0.212058 -2.77665e-22)
(0.439693 0.143225 -2.61174e-20)
(0.462685 0.169288 0)
(0.50374 0.198419 0)
(0.531301 0.228692 0)
(0.569125 0.255242 4.64544e-20)
(0.610238 0.279504 -2.99788e-20)
(0.646538 0.316488 1.53282e-21)
(0.696639 0.317785 -5.12957e-21)
(0.723004 0.377464 -8.23013e-22)
(0.515652 0.17203 1.10781e-21)
(0.452353 0.144762 -6.02503e-21)
(0.471309 0.166562 -7.382e-20)
(0.515289 0.191494 -3.97303e-20)
(0.541023 0.22149 3.96929e-20)
(0.579052 0.245319 -1.62392e-20)
(0.619207 0.269967 0)
(0.655106 0.303878 -1.02302e-20)
(0.702472 0.30569 1.14705e-20)
(0.703519 0.348651 -4.78138e-21)
(0.477401 0.131117 -2.9868e-22)
(0.463234 0.143551 -1.91256e-19)
(0.478197 0.163094 2.82981e-20)
(0.525109 0.183294 4.57908e-21)
(0.549297 0.214129 3.85746e-20)
(0.587356 0.235289 0)
(0.626546 0.260552 0)
(0.661966 0.291251 0)
(0.704214 0.2924 5.81515e-21)
(0.67914 0.317579 0)
(0.437015 0.0900111 0)
(0.471574 0.138311 0)
(0.483916 0.159103 6.37428e-20)
(0.533806 0.173554 -4.20531e-20)
(0.557154 0.206087 -3.25728e-20)
(0.595224 0.224615 3.27355e-20)
(0.633503 0.250285 1.06018e-20)
(0.668233 0.277883 -1.22215e-20)
(0.702409 0.27663 -2.0677e-20)
(0.651899 0.283169 1.87551e-21)
(0.396763 0.0496479 1.60336e-21)
(0.477067 0.128105 0)
(0.488691 0.155185 -2.17082e-20)
(0.540672 0.162726 -9.7185e-21)
(0.563899 0.197786 0)
(0.601724 0.213674 5.90015e-21)
(0.639122 0.239698 -1.90454e-20)
(0.672459 0.263927 1.24186e-20)
(0.69622 0.258744 1.93425e-21)
(0.621202 0.245917 -9.92997e-22)
(0.353668 0.0116679 -1.46618e-21)
(0.479872 0.113345 2.3423e-20)
(0.492953 0.151938 2.02017e-20)
(0.545383 0.151094 -5.89475e-21)
(0.569554 0.18903 4.19861e-21)
(0.607077 0.20232 7.24728e-21)
(0.643694 0.228429 8.60497e-21)
(0.67485 0.24906 -2.04986e-21)
(0.686102 0.23824 -1.1858e-21)
(0.587532 0.206162 9.9622e-22)
(0.299083 -0.0230322 -4.38295e-22)
(0.48085 0.0959538 -5.42796e-21)
(0.497178 0.149336 5.51227e-21)
(0.547656 0.138996 -4.78683e-21)
(0.574011 0.179734 -4.19063e-21)
(0.611067 0.190653 3.14121e-21)
(0.646871 0.216617 -5.98645e-21)
(0.674735 0.233234 2.83636e-21)
(0.671926 0.215523 3.93505e-22)
(0.55025 0.16582 0)
(0.261173 -0.0552238 4.39003e-22)
(0.481136 0.0789366 5.43831e-21)
(0.501671 0.146358 -5.51307e-21)
(0.547853 0.126726 -4.76086e-21)
(0.577671 0.169714 -4.12643e-21)
(0.614014 0.178695 -3.08919e-21)
(0.648786 0.204128 4.16465e-22)
(0.672308 0.216304 1.1526e-21)
(0.654192 0.190876 1.8064e-21)
(0.510568 0.125097 0)
(0.222484 -0.0857371 3.7519e-22)
(0.481356 0.0649077 0)
(0.50612 0.141138 -2.00757e-20)
(0.546498 0.114582 3.45701e-20)
(0.580621 0.158926 4.13078e-21)
(0.615919 0.166552 6.88189e-21)
(0.649371 0.190965 8.017e-21)
(0.667604 0.198265 -1.90237e-21)
(0.633625 0.164735 -1.04736e-21)
(0.470246 0.0843681 6.30011e-22)
(0.18658 -0.114405 -3.74119e-22)
(0.481005 0.0547193 0)
(0.509647 0.132193 -2.15605e-20)
(0.543949 0.1029 -9.59631e-21)
(0.582683 0.147413 0)
(0.616837 0.154214 -1.90039e-20)
(0.64884 0.176999 6.88358e-21)
(0.661151 0.179041 4.36606e-21)
(0.611344 0.137106 6.48092e-21)
(0.432286 0.0444191 -6.27938e-22)
(0.154682 -0.141123 -1.10972e-21)
(0.479087 0.0471964 0)
(0.511451 0.119602 2.17273e-20)
(0.540496 0.0918835 0)
(0.58402 0.135236 3.02707e-20)
(0.617268 0.141585 -3.04336e-20)
(0.647757 0.16214 -8.69074e-21)
(0.653587 0.158641 1.62595e-21)
(0.588174 0.108096 -6.00649e-21)
(0.395229 0.00427912 -1.14923e-21)
(0.124432 -0.167485 1.10352e-21)
(0.474982 0.0406296 1.95917e-19)
(0.511879 0.104872 -7.42853e-20)
(0.537638 0.0812499 -5.66404e-21)
(0.585144 0.122354 -3.66489e-20)
(0.6183 0.128531 0)
(0.646991 0.146386 -8.50015e-21)
(0.645441 0.137231 3.49734e-21)
(0.564662 0.0781406 8.48879e-21)
(0.360091 -0.0348487 -1.85274e-24)
(0.0969635 -0.193171 1.84899e-24)
(0.469338 0.0337769 8.81597e-21)
(0.51236 0.0893529 1.19427e-19)
(0.53669 0.0706316 3.71699e-20)
(0.58665 0.108897 -3.71548e-20)
(0.620105 0.114938 -1.38073e-20)
(0.646258 0.130012 0)
(0.635977 0.115207 -1.13243e-20)
(0.54062 0.0476476 5.98083e-21)
(0.326934 -0.072575 1.88814e-21)
(0.0726859 -0.217517 -6.22374e-22)
(0.463177 0.0265319 -2.68085e-20)
(0.512554 0.073625 0)
(0.535914 0.0597632 0)
(0.586725 0.0951972 0)
(0.619549 0.101142 -1.02634e-20)
(0.64237 0.113496 2.40522e-20)
(0.623272 0.0929261 1.12149e-20)
(0.515174 0.0169725 -1.07395e-20)
(0.295284 -0.108806 7.02923e-25)
(0.0515428 -0.240407 6.1361e-22)
(0.453927 0.0196964 -5.94465e-20)
(0.506903 0.0582831 9.3105e-20)
(0.528903 0.0489949 -9.2269e-20)
(0.57891 0.0819815 6.54e-20)
(0.610887 0.0876395 -7.97901e-20)
(0.630724 0.0969177 0)
(0.604364 0.070139 -6.89567e-21)
(0.486435 -0.0143844 -1.07612e-22)
(0.264462 -0.144197 -4.97052e-22)
(0.0335286 -0.262343 4.0455e-22)
(0.436763 0.0154007 -2.91316e-20)
(0.490641 0.0444664 0)
(0.512018 0.0387932 -9.65642e-20)
(0.561401 0.0695502 1.53614e-19)
(0.594446 0.0743092 -5.38575e-20)
(0.612596 0.0799101 -5.65775e-21)
(0.580561 0.0461442 6.87848e-21)
(0.455552 -0.0473088 1.24295e-21)
(0.23459 -0.18001 2.26347e-21)
(0.0185964 -0.284374 -3.67347e-22)
(0.424562 0.0151317 -1.33132e-19)
(0.480583 0.0325898 1.30309e-19)
(0.505146 0.0287317 1.33093e-20)
(0.555783 0.057266 0)
(0.590764 0.0606207 0)
(0.606615 0.0621988 6.43613e-21)
(0.566785 0.0208761 1.14168e-20)
(0.431716 -0.0817651 -1.09426e-20)
(0.208525 -0.216743 -4.67676e-23)
(0.0066662 -0.307451 4.43252e-23)
(0.444838 0.0111633 0)
(0.503546 0.00404433 0)
(0.542877 -0.000384756 0)
(0.593597 0.0241225 0)
(0.627656 0.0258801 0)
(0.63329 0.0198287 0)
(0.569226 -0.0367054 0)
(0.401999 -0.159126 0)
(0.159659 -0.300199 0)
(-0.020816 -0.364333 0)
(0.447151 -0.0599716 0)
(0.506909 -0.0477057 0)
(0.554269 -0.0605958 0)
(0.603936 -0.0248829 0)
(0.616974 -0.0370345 0)
(0.573872 -0.0718284 0)
(0.435898 -0.175286 0)
(0.223724 -0.323999 0)
(0.0342013 -0.435697 0)
(-0.0347541 -0.458925 0)
(0.458767 -0.115828 0)
(0.519046 -0.104283 0)
(0.567985 -0.113347 0)
(0.611894 -0.0929502 0)
(0.595238 -0.121593 0)
(0.502293 -0.192453 0)
(0.330727 -0.323362 0)
(0.130206 -0.45929 0)
(-0.0180677 -0.525684 0)
(-0.0285561 -0.521437 0)
(0.474145 -0.181808 0)
(0.535117 -0.181755 0)
(0.584866 -0.186413 0)
(0.59843 -0.179731 0)
(0.532688 -0.239898 0)
(0.383523 -0.345344 0)
(0.189041 -0.490511 0)
(0.0251711 -0.595758 0)
(-0.0431739 -0.611955 0)
(-0.00777451 -0.591741 0)
(0.467167 -0.252354 0)
(0.52717 -0.257088 0)
(0.56987 -0.271617 0)
(0.547787 -0.297115 0)
(0.431504 -0.397099 0)
(0.253525 -0.528847 0)
(0.0811284 -0.657107 0)
(-0.0211308 -0.706535 0)
(-0.0309345 -0.683257 0)
(0.00863382 -0.669415 0)
(0.455697 -0.332953 0)
(0.520519 -0.351604 0)
(0.552171 -0.39211 0)
(0.482342 -0.463502 0)
(0.318596 -0.594645 0)
(0.134594 -0.718989 0)
(0.0100095 -0.798264 0)
(-0.0249505 -0.790074 0)
(-0.00216127 -0.75354 0)
(0.0135101 -0.755881 0)
(0.446284 -0.430216 0)
(0.508927 -0.479715 0)
(0.500353 -0.55657 0)
(0.37098 -0.6634 0)
(0.187568 -0.794402 0)
(0.0450174 -0.879411 0)
(-0.00800372 -0.8996 0)
(0.0017175 -0.859509 0)
(0.0176509 -0.841245 0)
(0.0070507 -0.856309 0)
(0.41211 -0.549495 0)
(0.430834 -0.621947 0)
(0.374273 -0.733991 0)
(0.222582 -0.867312 0)
(0.0800031 -0.983702 0)
(0.0112857 -1.02487 0)
(0.013272 -1.00271 0)
(0.0249969 -0.966532 0)
(0.0148943 -0.979437 0)
(-0.00184994 -0.99352 0)
(0.242815 -0.625669 0)
(0.28124 -0.758838 0)
(0.222185 -0.957002 0)
(0.0994027 -1.12948 0)
(0.0246672 -1.21708 0)
(0.0228074 -1.20563 0)
(0.0328957 -1.17727 0)
(0.0159318 -1.18232 0)
(-0.00203964 -1.20897 0)
(-0.00273612 -1.20649 0)
(0.22995 -0.76747 0)
(0.177101 -1.02105 0)
(0.0405342 -1.24088 0)
(-0.0220296 -1.30902 0)
(0.0175277 -1.33429 0)
(0.0419688 -1.36809 0)
(0.0108528 -1.39024 0)
(-0.0106057 -1.39336 0)
(-0.00238949 -1.39583 0)
(0.00196826 -1.39321 0)
(0.391226 0.00363747 1.39381e-19)
(0.401242 -0.0757389 -1.36733e-19)
(0.413552 -0.140744 1.7475e-20)
(0.417467 -0.209038 0)
(0.413327 -0.279826 0)
(0.39745 -0.353006 1.86148e-20)
(0.379936 -0.426804 -7.77529e-20)
(0.35675 -0.538128 7.74585e-20)
(0.184786 -0.576025 2.18542e-20)
(0.221371 -0.645877 -2.17178e-20)
(0.374457 -0.00890514 -1.67214e-19)
(0.38317 -0.0853005 0)
(0.395473 -0.146577 1.17638e-19)
(0.393812 -0.212204 -2.67405e-19)
(0.391353 -0.280343 1.67781e-19)
(0.37353 -0.351186 -1.71887e-20)
(0.351255 -0.417008 3.63204e-20)
(0.333184 -0.525374 7.51934e-20)
(0.160083 -0.550768 2.19708e-20)
(0.211628 -0.598219 2.04476e-20)
(0.360579 -0.0224535 1.98727e-19)
(0.366176 -0.100202 -1.33373e-19)
(0.379164 -0.156319 1.3207e-19)
(0.370921 -0.217021 -1.37008e-19)
(0.370108 -0.280233 1.01748e-19)
(0.349696 -0.34696 0)
(0.322668 -0.405729 -3.64084e-20)
(0.309012 -0.505633 6.19445e-22)
(0.134733 -0.523985 -4.02108e-20)
(0.197146 -0.552126 -4.0954e-20)
(0.347943 -0.0355444 -3.26144e-20)
(0.350248 -0.112681 0)
(0.364279 -0.16601 0)
(0.349547 -0.222735 0)
(0.349985 -0.28219 1.06363e-19)
(0.326525 -0.344419 -7.0866e-20)
(0.295252 -0.397212 -2.06414e-22)
(0.285442 -0.486395 -3.86687e-20)
(0.110763 -0.500404 -2.06733e-20)
(0.18093 -0.509815 -2.0868e-20)
(0.336148 -0.047858 1.06338e-21)
(0.335729 -0.12119 -9.79259e-20)
(0.350389 -0.172439 -6.78619e-20)
(0.330241 -0.225929 6.78126e-20)
(0.331085 -0.283248 -3.50127e-20)
(0.304493 -0.341542 0)
(0.269388 -0.389525 -3.78803e-20)
(0.263197 -0.468966 7.89485e-20)
(0.0898989 -0.479625 -4.02349e-20)
(0.165488 -0.472696 4.20286e-20)
(0.324632 -0.0593298 -2.64489e-19)
(0.322646 -0.127357 3.19852e-20)
(0.337342 -0.176125 -1.24406e-21)
(0.313509 -0.225925 6.84003e-20)
(0.313742 -0.281637 0)
(0.284373 -0.336349 0)
(0.245519 -0.380253 0)
(0.242794 -0.451752 3.9494e-20)
(0.0730069 -0.459764 0)
(0.152002 -0.439962 0)
(0.312827 -0.0695929 0)
(0.310649 -0.131997 1.0059e-19)
(0.32474 -0.178288 -6.73944e-20)
(0.299295 -0.223893 -7.07085e-20)
(0.298197 -0.277798 7.10735e-20)
(0.266917 -0.328962 3.80319e-20)
(0.224282 -0.369172 -3.8088e-20)
(0.22471 -0.434018 -1.39383e-19)
(0.0599286 -0.440231 9.97566e-21)
(0.140274 -0.410649 -3.18802e-20)
(0.300535 -0.0783945 0)
(0.299375 -0.135146 -3.32576e-20)
(0.312027 -0.179256 -1.71581e-20)
(0.286888 -0.220735 0)
(0.284161 -0.272553 1.85794e-20)
(0.252241 -0.320324 -5.59345e-20)
(0.205981 -0.357247 5.89226e-20)
(0.209225 -0.416359 2.00582e-20)
(0.0496996 -0.421485 -2.11134e-20)
(0.129324 -0.384345 4.27872e-20)
(0.2879 -0.0857998 3.32279e-20)
(0.288657 -0.136913 3.38726e-20)
(0.298962 -0.178914 -8.42866e-21)
(0.275468 -0.216707 8.89239e-21)
(0.271022 -0.266196 1.82042e-20)
(0.239802 -0.310927 2.83354e-20)
(0.190272 -0.34502 -9.90165e-21)
(0.196221 -0.3993 -1.00717e-20)
(0.0411168 -0.403724 2.11829e-20)
(0.118288 -0.360865 1.06704e-20)
(0.275234 -0.0919948 -8.41194e-21)
(0.278443 -0.137568 8.41754e-21)
(0.285747 -0.177229 -8.61536e-21)
(0.26454 -0.211965 -8.88055e-21)
(0.258297 -0.258825 9.31489e-21)
(0.228877 -0.300903 -1.88814e-20)
(0.176449 -0.332509 1.4888e-20)
(0.185254 -0.382726 5.05559e-21)
(0.0332951 -0.386592 0)
(0.106975 -0.340105 -1.06944e-20)
(0.262898 -0.0971907 8.47393e-21)
(0.268661 -0.137471 -8.48594e-21)
(0.272778 -0.1744 -8.75717e-21)
(0.253943 -0.206859 -9.00884e-21)
(0.245841 -0.250744 -9.36491e-21)
(0.218947 -0.290488 -1.1457e-22)
(0.163886 -0.319819 4.97097e-21)
(0.175812 -0.366404 1.51421e-20)
(0.0259134 -0.36971 0)
(0.0958305 -0.322043 -1.06218e-20)
(0.251286 -0.101317 0)
(0.259252 -0.136848 -3.47042e-20)
(0.26044 -0.170646 6.14277e-20)
(0.243691 -0.201629 9.02366e-21)
(0.23376 -0.242288 1.86814e-20)
(0.209789 -0.279977 2.87535e-20)
(0.152265 -0.307222 -9.95946e-21)
(0.167527 -0.350342 -1.00957e-20)
(0.0191168 -0.353003 2.09829e-20)
(0.0855431 -0.306591 1.05972e-20)
(0.240884 -0.104182 0)
(0.25023 -0.135688 -3.49128e-20)
(0.24907 -0.166008 -1.77393e-20)
(0.233885 -0.196213 0)
(0.222263 -0.233585 -5.65551e-20)
(0.201368 -0.269454 1.89083e-20)
(0.141518 -0.294887 1.99174e-20)
(0.16021 -0.334643 6.04185e-20)
(0.0132098 -0.336556 -2.09147e-20)
(0.0766789 -0.293472 4.19377e-20)
(0.232175 -0.105915 0)
(0.241725 -0.134072 3.52083e-20)
(0.238948 -0.160587 0)
(0.224673 -0.190505 7.43101e-20)
(0.211572 -0.224722 -7.46929e-20)
(0.193729 -0.258887 -3.90929e-20)
(0.131697 -0.282866 -5.58197e-22)
(0.153777 -0.319371 -5.99788e-20)
(0.00837808 -0.320481 -1.0113e-20)
(0.0695102 -0.282279 -5.20711e-20)
(0.225463 -0.106696 2.83788e-19)
(0.233895 -0.132175 -1.06034e-19)
(0.230266 -0.154718 1.12834e-21)
(0.216215 -0.184538 -7.36057e-20)
(0.201868 -0.215891 0)
(0.186929 -0.248357 -3.91515e-20)
(0.122876 -0.271272 -5.81453e-22)
(0.148186 -0.304617 7.99436e-20)
(0.00459079 -0.304922 1.02555e-20)
(0.0640507 -0.272589 -1.02961e-20)
(0.220812 -0.106493 -1.48249e-21)
(0.226835 -0.12999 1.81021e-19)
(0.223061 -0.148721 7.43933e-20)
(0.208648 -0.178387 -7.43455e-20)
(0.193251 -0.207293 -3.81976e-20)
(0.181 -0.23796 0)
(0.115101 -0.260262 -7.94265e-20)
(0.143409 -0.290505 3.92315e-20)
(0.00166341 -0.290053 4.01996e-20)
(0.0601801 -0.264031 4.05084e-20)
(0.218045 -0.105258 -3.69261e-20)
(0.220603 -0.127401 0)
(0.217196 -0.142719 0)
(0.202025 -0.172051 0)
(0.185736 -0.199066 -3.89283e-20)
(0.175933 -0.227715 7.7007e-20)
(0.108359 -0.249884 7.92302e-20)
(0.139407 -0.277064 -1.18403e-19)
(-0.000635711 -0.275987 2.00579e-20)
(0.0577529 -0.256266 -6.00016e-20)
(0.21677 -0.102965 -7.49249e-20)
(0.215254 -0.124317 1.52776e-19)
(0.212453 -0.136739 -1.51314e-19)
(0.196312 -0.165454 1.54764e-19)
(0.179252 -0.191274 -1.92063e-19)
(0.171677 -0.21766 0)
(0.102588 -0.240161 -3.94294e-20)
(0.136127 -0.264309 5.89188e-23)
(-0.00249556 -0.262809 -3.95961e-20)
(0.0566659 -0.24905 -3.9224e-20)
(0.216596 -0.100282 -3.90238e-20)
(0.210627 -0.121001 0)
(0.208528 -0.131087 -1.75999e-19)
(0.191396 -0.158715 3.111e-19)
(0.173666 -0.183977 -1.15581e-19)
(0.16814 -0.207818 -1.94375e-20)
(0.0976636 -0.230953 3.93419e-20)
(0.133445 -0.252033 -3.4019e-22)
(-0.00405302 -0.250506 5.83434e-20)
(0.0568885 -0.241988 5.79059e-20)
(0.21738 -0.0971403 -1.63334e-19)
(0.205244 -0.117102 1.59197e-19)
(0.2045 -0.125776 1.99059e-20)
(0.186315 -0.151763 0)
(0.168391 -0.17752 0)
(0.165148 -0.19828 1.9418e-20)
(0.0937715 -0.222912 7.78192e-20)
(0.131739 -0.240842 -7.63081e-20)
(-0.00502894 -0.23933 -1.90767e-20)
(0.0583892 -0.235575 1.87852e-20)
(0.220387 -0.0761933 0)
(0.184602 -0.101691 0)
(0.191207 -0.106434 0)
(0.164572 -0.13144 0)
(0.147985 -0.156392 0)
(0.145191 -0.174293 0)
(0.0753747 -0.199994 0)
(0.11897 -0.210882 0)
(-0.0116569 -0.213004 0)
(0.0698068 -0.215901 0)
(0.206466 -0.0925413 0)
(0.17034 -0.109028 0)
(0.177776 -0.124147 0)
(0.152636 -0.138935 0)
(0.135106 -0.155947 0)
(0.13289 -0.169237 0)
(0.0633032 -0.183196 0)
(0.11051 -0.191434 0)
(-0.0151767 -0.189576 0)
(0.0778793 -0.190009 0)
(0.182706 -0.0589403 0)
(0.155941 -0.072286 0)
(0.155318 -0.0919743 0)
(0.133786 -0.108112 0)
(0.115633 -0.126124 0)
(0.118442 -0.143078 0)
(0.050089 -0.155607 0)
(0.102491 -0.168424 0)
(-0.0197992 -0.167403 0)
(0.0757377 -0.164576 0)
(0.167798 -0.0581252 0)
(0.144423 -0.070188 0)
(0.141239 -0.0853125 0)
(0.121666 -0.0968435 0)
(0.101311 -0.109272 0)
(0.107118 -0.123463 0)
(0.0376445 -0.132098 0)
(0.0939656 -0.145009 0)
(-0.025508 -0.145268 0)
(0.070365 -0.141356 0)
(0.150073 -0.0465089 0)
(0.131895 -0.057486 0)
(0.126989 -0.0720488 0)
(0.110282 -0.0831917 0)
(0.0885334 -0.0940057 0)
(0.0976681 -0.107165 0)
(0.0273424 -0.113697 0)
(0.0862496 -0.125846 0)
(-0.0304633 -0.126899 0)
(0.0654083 -0.123852 0)
(0.137162 -0.0379306 0)
(0.121357 -0.0468756 0)
(0.114867 -0.0585823 0)
(0.0999821 -0.0683592 0)
(0.0766742 -0.0776949 0)
(0.0887281 -0.0898163 0)
(0.0175034 -0.0962705 0)
(0.0783947 -0.10835 0)
(-0.0355064 -0.1112 0)
(0.0606156 -0.110789 0)
(0.126419 -0.0302499 0)
(0.112788 -0.0371847 0)
(0.105124 -0.0462126 0)
(0.0913762 -0.0542507 0)
(0.0665106 -0.0620954 0)
(0.0803484 -0.0720691 0)
(0.00761295 -0.0799072 0)
(0.0699379 -0.0914642 0)
(-0.0421648 -0.0983096 0)
(0.0549423 -0.10452 0)
(0.119201 -0.0227929 0)
(0.106851 -0.0272279 0)
(0.0980037 -0.0337281 0)
(0.0845537 -0.0399529 0)
(0.058568 -0.0471269 0)
(0.0724591 -0.0539115 0)
(-0.00270111 -0.0644699 0)
(0.0604063 -0.0741219 0)
(-0.0550227 -0.0871387 0)
(0.0453885 -0.0924768 0)
(0.12839 -0.0146795 0)
(0.1188 -0.0161817 0)
(0.107707 -0.0198371 0)
(0.0923343 -0.023988 0)
(0.06507 -0.0312308 0)
(0.077317 -0.0276965 0)
(-0.00643693 -0.0502462 0)
(0.0580852 -0.0475833 0)
(-0.0716472 -0.0708034 0)
(0.017542 -0.138614 0)
(0.350374 -0.0049424 0)
(0.342814 -0.00569664 0)
(0.33067 -0.00704202 0)
(0.315095 -0.00879735 0)
(0.298642 -0.0116604 0)
(0.285817 -0.00981151 0)
(0.230749 -0.0251225 0)
(0.251677 -0.0217185 0)
(0.109109 -0.0498396 0)
(0.19505 -0.110647 0)
(0.229761 -0.0563167 1.70124e-19)
(0.20303 -0.0790107 -1.65367e-19)
(0.186716 -0.0444053 2.04405e-20)
(0.167975 -0.0480813 0)
(0.151026 -0.0362372 0)
(0.138477 -0.0304006 1.92829e-20)
(0.128139 -0.0242391 -7.57171e-20)
(0.122177 -0.0180383 7.4238e-20)
(0.136296 -0.0134412 1.82541e-20)
(0.360319 -0.00544632 -1.84237e-20)
(0.23257 -0.0480031 -1.9115e-19)
(0.19845 -0.0721619 0)
(0.186949 -0.0389795 1.32799e-19)
(0.166749 -0.0437691 -2.9985e-19)
(0.150997 -0.0320633 1.8529e-19)
(0.138823 -0.0273114 -1.83716e-20)
(0.128931 -0.0217565 3.62641e-20)
(0.123595 -0.0160547 7.16825e-20)
(0.139669 -0.0129936 1.76967e-20)
(0.36494 -0.00578783 1.73931e-20)
(0.235017 -0.039359 2.21971e-19)
(0.193658 -0.0628993 -1.49294e-19)
(0.187268 -0.0338387 1.4792e-19)
(0.165319 -0.0391589 -1.48115e-19)
(0.151142 -0.0279032 1.09996e-19)
(0.13925 -0.0241578 0)
(0.129874 -0.0192325 -3.63492e-20)
(0.125101 -0.0141183 -5.92587e-23)
(0.143143 -0.0125721 -3.58323e-20)
(0.369878 -0.00621218 -3.54049e-20)
(0.236861 -0.0329581 -3.60553e-20)
(0.189746 -0.0514989 0)
(0.18829 -0.0286518 0)
(0.164388 -0.0340313 0)
(0.151597 -0.0236383 1.09549e-19)
(0.13973 -0.0208432 -7.27778e-20)
(0.13077 -0.0166372 -3.16787e-23)
(0.126384 -0.0122513 -3.62171e-20)
(0.146188 -0.0121069 -1.80388e-20)
(0.374771 -0.00666845 -1.78517e-20)
(0.237514 -0.0319945 1.57383e-21)
(0.186449 -0.0398734 -1.06103e-19)
(0.188824 -0.0235709 -7.20125e-20)
(0.163604 -0.0284187 7.19844e-20)
(0.151954 -0.0192813 -3.62771e-20)
(0.140054 -0.0173863 0)
(0.131443 -0.0140113 -3.63864e-20)
(0.127299 -0.0104782 7.27654e-20)
(0.148594 -0.0115259 -3.63778e-20)
(0.379394 -0.00711231 3.6231e-20)
(0.237167 -0.0363799 -2.76274e-19)
(0.18491 -0.0299105 3.39179e-20)
(0.188489 -0.0188697 -4.72398e-22)
(0.162926 -0.0225657 7.1311e-20)
(0.152085 -0.0149562 0)
(0.140204 -0.0138907 0)
(0.131893 -0.0114315 0)
(0.127876 -0.00883179 3.64505e-20)
(0.150449 -0.0107807 0)
(0.383688 -0.00750126 0)
(0.235973 -0.0415221 0)
(0.186038 -0.021882 1.04107e-19)
(0.187702 -0.0145109 -6.98996e-20)
(0.162553 -0.0167013 -7.11105e-20)
(0.152051 -0.0107674 7.1485e-20)
(0.140238 -0.0104509 3.61349e-20)
(0.132149 -0.00894868 -3.62988e-20)
(0.128159 -0.00733288 -1.27988e-19)
(0.151787 -0.00986559 9.20258e-21)
(0.387631 -0.00778688 -2.75611e-20)
(0.233996 -0.041978 0)
(0.189404 -0.0146806 -3.42864e-20)
(0.186774 -0.0101003 -1.74013e-20)
(0.162508 -0.0109387 0)
(0.151856 -0.00673712 1.78962e-20)
(0.14015 -0.00711022 -5.39802e-20)
(0.132193 -0.00656577 5.45556e-20)
(0.128169 -0.00596643 1.83404e-20)
(0.152559 -0.00881122 -1.84403e-20)
(0.391239 -0.00792528 3.70157e-20)
(0.231529 -0.0353888 3.29431e-20)
(0.193667 -0.00717037 3.41679e-20)
(0.18571 -0.00517054 -8.46956e-21)
(0.162641 -0.00530105 8.76349e-21)
(0.151467 -0.00281887 1.78007e-20)
(0.139911 -0.00386693 2.69711e-20)
(0.132007 -0.00425649 -9.07563e-21)
(0.127917 -0.00467573 -9.15604e-21)
(0.15274 -0.0076372 1.85009e-20)
(0.394457 -0.00788855 9.27016e-21)
(0.228739 -0.0228214 -8.32842e-21)
(0.197733 0.00108624 8.41738e-21)
(0.184486 0.000512833 -8.63224e-21)
(0.162768 0.000232993 -8.75146e-21)
(0.150895 0.00106236 8.88302e-21)
(0.139503 -0.000694175 -1.79434e-20)
(0.131577 -0.00197803 1.36169e-20)
(0.127418 -0.00339738 4.58655e-21)
(0.152388 -0.00634017 0)
(0.397159 -0.00764444 -9.29076e-21)
(0.225617 -0.00692907 8.30735e-21)
(0.200947 0.00989767 -8.39685e-21)
(0.183169 0.00697358 -8.59983e-21)
(0.162699 0.00570003 -8.72487e-21)
(0.150179 0.0049693 -8.87124e-21)
(0.138908 0.00244822 -6.19666e-24)
(0.130915 0.000304404 4.52455e-21)
(0.126687 -0.00208616 1.3717e-20)
(0.151583 -0.00490617 0)