/*--------------------------------*- C++ -*----------------------------------*\
  =========                 |
  \\      /  F ield         | OpenFOAM: The Open Source CFD Toolbox
   \\    /   O peration     | Website:  https://openfoam.org
    \\  /    A nd           | Version:  7
     \\/     M anipulation  |
\*---------------------------------------------------------------------------*/
FoamFile
{
    version     2.0;
    format      ascii;
    class       surfaceScalarField;
    location    "42";
    object      phi;
}
// * * * * * * * * * * * * * * * * * * * * * * * * * * * * * * * * * * * * * //

dimensions      [0 3 -1 0 0 0 0];

internalField   nonuniform List<scalar> 
3880
(
-9.08144e-06
0.000498855
-0.000489774
0.00016008
0.000458844
-0.000628005
0.000553756
0.000245557
-0.000639234
0.00118073
0.00017117
-0.000798147
0.00203848
0.000392223
-0.00124997
0.00311958
0.000979194
-0.00206029
0.00441153
0.00195467
-0.00324662
0.00589405
0.00331328
-0.0047958
0.0075357
0.00503153
-0.00667318
0.00707371
0.00928756
-0.00882558
1.87589e-05
0.000480096
0.000242903
0.000234699
0.000697483
-0.000209024
0.00137849
-0.000509832
0.00227675
-0.000506042
0.00338451
-0.00012857
0.00469482
0.000644368
0.00619726
0.00181083
0.00787227
0.00335652
0.00526493
0.00968106
5.61272e-05
0.000423969
0.00035279
-6.19635e-05
0.000889478
-0.000745713
0.00164544
-0.00126579
0.00260115
-0.00146176
0.00374529
-0.00127271
0.0050743
-0.000684645
0.00658749
0.000297646
0.0082795
0.00166451
0.00341754
0.0101269
0.000103799
0.00032017
0.00049132
-0.000449484
0.00113329
-0.00138768
0.00198866
-0.00212116
0.00302421
-0.0024973
0.00422152
-0.00247002
0.00557722
-0.00204035
0.00709821
-0.00122334
0.00879366
-3.09481e-05
0.00155081
0.0106604
0.000161437
0.000158732
0.000657811
-0.000945858
0.00142775
-0.00215762
0.00240732
-0.00310073
0.00354726
-0.00363725
0.0048194
-0.00374216
0.00621713
-0.00343808
0.00775144
-0.00275764
0.00944366
-0.00172318
-0.000318891
0.0113134
0.000228106
-6.9374e-05
0.000848639
-0.00156639
0.00176491
-0.0030739
0.00288834
-0.00422417
0.00415282
-0.00490173
0.00551944
-0.00510878
0.00697628
-0.00489492
0.00853485
-0.00431621
0.0102244
-0.00341274
-0.00218019
0.0120857
0.000302052
-0.000371426
0.00105689
-0.00232123
0.00212916
-0.00414616
0.00340458
-0.00549958
0.00480095
-0.00629809
0.00626987
-0.0065777
0.00779423
-0.00641928
0.00938402
-0.00590601
0.0110721
-0.00510083
-0.00402278
0.0129147
0.000380748
-0.000752175
0.00127257
-0.00321305
0.00249784
-0.00537144
0.00391626
-0.006918
0.00543184
-0.00781367
0.00698999
-0.00813585
0.00857072
-0.008
0.0101824
-0.00751765
0.0118582
-0.0067767
-0.00582682
0.0136623
0.000460979
-0.00121315
0.00148313
-0.0042352
0.00284313
-0.00673144
0.00437555
-0.00845042
0.00597453
-0.00941265
0.00758408
-0.00974541
0.0091851
-0.00960102
0.0107853
-0.00911781
0.0124155
-0.00840695
-0.00755054
0.0141392
0.000538916
-0.00175207
0.00167427
-0.00537056
0.00313477
-0.00819193
0.00473288
-0.0100485
0.00635869
-0.0110385
0.00796099
-0.0113477
0.00952626
-0.0111663
0.0110634
-0.010655
0.0125973
-0.00994081
0.0141819
-0.00913514
0.0128981
0.0459221
-0.0495327
0.0149021
0.0829846
-0.0849885
0.0147174
0.115967
-0.115783
0.0131373
0.142935
-0.141355
0.0109662
0.166974
-0.164803
0.00862496
0.190896
-0.188554
0.00631794
0.218337
-0.21603
0.00403939
0.25158
-0.249302
0.00184949
0.292876
-0.290686
0.339191
-0.337341
0.0135622
0.042041
0.0161742
0.0803725
0.0165051
0.115636
0.0151746
0.144265
0.0130317
0.169117
0.0105654
0.193362
0.00801865
0.220884
0.00537419
0.254225
0.00262995
0.29562
0.341821
0.0141429
0.0380249
0.0173308
0.0771847
0.0182214
0.114746
0.0171963
0.14529
0.0151133
0.1712
0.0125336
0.195942
0.00973778
0.22368
0.00671598
0.257246
0.00341389
0.298922
0.345235
0.0146384
0.0340469
0.0183315
0.0734916
0.0198145
0.113263
0.0191527
0.145952
0.0171699
0.173183
0.0144953
0.198616
0.0114595
0.226716
0.0080648
0.260641
0.00420067
0.302787
0.349435
0.0150643
0.0302959
0.0191456
0.0694103
0.0212363
0.111172
0.0210013
0.146187
0.0191706
0.175013
0.0164265
0.20136
0.01316
0.229982
0.00939637
0.264405
0.0049782
0.307205
0.354413
0.0154449
0.0269368
0.0197565
0.0650987
0.0224427
0.108486
0.0226849
0.145945
0.0210589
0.176639
0.0182864
0.204133
0.0148191
0.233449
0.0107066
0.268517
0.0057452
0.312166
0.360159
0.0157942
0.0240572
0.0201624
0.0607305
0.0234111
0.105237
0.0241957
0.14516
0.0228414
0.177994
0.0200742
0.2069
0.01642
0.237104
0.0119703
0.272967
0.00648686
0.31765
0.366646
0.0160908
0.0216287
0.0203701
0.0564513
0.0240854
0.101522
0.0254118
0.143834
0.0243913
0.179014
0.0217077
0.209583
0.0179294
0.240882
0.0131856
0.277711
0.00720495
0.32363
0.37385
0.0162242
0.0195437
0.0203961
0.0522794
0.0245814
0.0973366
0.0265206
0.141895
0.0258714
0.179664
0.0232656
0.212189
0.0193607
0.244787
0.0143296
0.282742
0.00788409
0.330076
0.381735
0.0159395
0.017786
0.0200658
0.0481531
0.0245798
0.0928227
0.0271474
0.139327
0.0270606
0.17975
0.0247003
0.21455
0.0207943
0.248693
0.0154815
0.288055
0.00861014
0.336947
0.390345
0.043758
0.0269108
-0.0528827
0.0367463
0.0551647
0.0330785
0.0964905
0.0308933
0.141512
0.0279267
0.182717
0.0232164
0.21926
0.0171707
0.254738
0.0106682
0.294557
0.00452606
0.343089
0.394871
0.0368328
0.0358113
-0.0457332
0.0291624
0.0628351
0.0253599
0.100293
0.0241633
0.142709
0.0228197
0.184061
0.0198045
0.222275
0.01499
0.259553
0.00930954
0.300238
0.00385784
0.348541
0.398729
0.0280757
0.0435917
-0.0358562
0.020611
0.0702998
0.0163411
0.104563
0.0152629
0.143787
0.0152241
0.184099
0.0141788
0.223321
0.011322
0.26241
0.00726441
0.304295
0.00296769
0.352838
0.401696
0.0179107
0.0506333
-0.0249522
0.0109507
0.0772597
0.00676942
0.108744
0.00608837
0.144468
0.00733781
0.18285
0.00809218
0.222566
0.00720455
0.263297
0.00480812
0.306692
0.00184521
0.355801
0.403542
0.00849314
0.0570845
-0.0149443
0.00162581
0.084127
-0.00282725
0.113197
-0.00379108
0.145432
-0.00193025
0.180989
0.000642443
0.219993
0.00220834
0.261731
0.00181578
0.307084
0.000548317
0.357068
0.40409
0.000921761
0.0627346
-0.00657183
-0.00535815
0.090407
-0.00959033
0.117429
-0.0105876
0.146429
-0.00861517
0.179017
-0.00518558
0.216564
-0.00219759
0.258743
-0.000838121
0.305725
-0.000639891
0.35687
0.40345
-0.00488379
0.0681617
-0.000543357
-0.0112314
0.0967546
-0.0159984
0.122196
-0.0174212
0.147852
-0.0153955
0.176991
-0.0111247
0.212293
-0.0066159
0.254235
-0.0035277
0.302637
-0.00185454
0.355197
0.401595
-0.00708748
0.0724392
0.00280995
-0.0122372
0.101904
-0.0165947
0.126554
-0.0185087
0.149766
-0.0173429
0.175825
-0.0136427
0.208593
-0.0090853
0.249677
-0.00529723
0.298849
-0.00274965
0.352649
0.398846
-0.00887577
0.0769056
0.0044094
-0.0144214
0.10745
-0.0191965
0.131329
-0.0213421
0.151912
-0.0202583
0.174741
-0.0163565
0.204691
-0.0113072
0.244628
-0.00677562
0.294317
-0.00348739
0.349361
0.395358
-0.00549285
0.00252579
-0.0100258
-0.0147718
-0.017779
-0.0180254
-0.015593
-0.0114528
-0.00734063
-0.00370398
0.0132513
-0.0523988
-0.0137352
0.012206
-0.0446879
0.0112657
-0.0349159
0.01084
-0.0245265
0.0110223
-0.0151266
0.0116766
-0.00722609
0.0126573
-0.00152415
0.0136955
0.00177181
0.0148935
0.00321135
0.0016951
0.0119983
-0.0516055
-0.0127916
0.0107382
-0.0434278
0.00978565
-0.0339634
0.0093624
-0.0241033
0.00949028
-0.0152545
0.0100271
-0.00776294
0.0108255
-0.00232248
0.0116732
0.0009241
0.0126108
0.00227367
0.00110788
0.0103978
-0.0505839
-0.0114194
0.00905149
-0.0420815
0.00809078
-0.0330027
0.00764397
-0.0236565
0.00770429
-0.0153148
0.0081314
-0.00819004
0.00877323
-0.00296431
0.00946486
0.000232468
0.0101933
0.00154524
0.000704997
0.00843496
-0.0494
-0.00961883
0.00707805
-0.0407246
0.00614611
-0.0320708
0.00568562
-0.023196
0.00568065
-0.0153098
0.00600543
-0.00851482
0.00652217
-0.00348106
0.00709434
-0.000339701
0.00766028
0.000979299
0.000438612
0.00613604
-0.0480968
-0.00743925
0.00479946
-0.039388
0.00392272
-0.031194
0.00347104
-0.0227443
0.00342205
-0.0152608
0.0036715
-0.00876427
0.00409478
-0.00390434
0.00458766
-0.000832583
0.00503145
0.000535514
0.000265365
0.00356087
-0.0467028
-0.00495489
0.00226121
-0.0380883
0.00145228
-0.0303851
0.00103219
-0.0223242
0.000961334
-0.01519
0.0011682
-0.00897113
0.00153536
-0.00427149
0.00196832
-0.00126554
0.00233385
0.000169986
0.000148596
0.000808028
-0.045261
-0.00224988
-0.000451159
-0.0368292
-0.00122276
-0.0296135
-0.00161098
-0.021936
-0.00166947
-0.0151315
-0.0014651
-0.00917551
-0.00111635
-0.00462023
-0.000709557
-0.00167234
-0.000396964
-0.000142608
5.9601e-05
-0.00213457
-0.043716
0.00058962
-0.00334735
-0.0356164
-0.00402817
-0.0289327
-0.00436799
-0.0215962
-0.00438991
-0.0151096
-0.00417066
-0.00939475
-0.00381651
-0.00497439
-0.00342575
-0.00206311
-0.0031251
-0.000443251
-2.73144e-05
-0.00507229
-0.0420964
0.00345272
-0.00620477
-0.0344839
-0.00682285
-0.0283146
-0.00711482
-0.0213042
-0.00709846
-0.0151259
-0.00685209
-0.00964112
-0.00648622
-0.00534026
-0.00609686
-0.00245247
-0.00580671
-0.000733397
-0.000129191
-0.00788121
-0.0404664
0.0062512
-0.00895162
-0.0334135
-0.00952079
-0.0277454
-0.009768
-0.021057
-0.00971843
-0.0151755
-0.00944528
-0.00991427
-0.00907036
-0.00571518
-0.00868217
-0.00284065
-0.00839586
-0.00101971
-0.000253778
-0.0104862
-0.0388715
0.00889132
-0.0115064
-0.0323933
-0.0120466
-0.0272053
-0.0122499
-0.0208537
-0.0121797
-0.0152457
-0.0118897
-0.0102042
-0.0115164
-0.00608849
-0.0111352
-0.00322184
-0.0108525
-0.00130239
-0.000401957
-0.0128549
-0.0373315
0.0113149
-0.0138153
-0.0314329
-0.014341
-0.0266796
-0.014504
-0.0206906
-0.0144306
-0.0153192
-0.0141381
-0.0104967
-0.0137813
-0.00644525
-0.0134175
-0.00358571
-0.0131441
-0.00157571
-0.000567186
-0.0149399
-0.0358653
0.0134737
-0.0158383
-0.0305344
-0.0163606
-0.0261573
-0.0164946
-0.0205566
-0.0164344
-0.0153794
-0.0161578
-0.0107732
-0.0158339
-0.00676915
-0.015501
-0.00391861
-0.0152479
-0.00182887
-0.000735945
-0.0167201
-0.0344832
0.015338
-0.0175527
-0.0297017
-0.018083
-0.0256271
-0.0182028
-0.0204367
-0.0181712
-0.0154111
-0.0179311
-0.0110133
-0.017656
-0.00704422
-0.0173701
-0.00420449
-0.0171517
-0.00204727
-0.00088923
-0.0181926
-0.03318
0.0168894
-0.0189542
-0.0289402
-0.0195018
-0.0250795
-0.0196257
-0.0203128
-0.0196352
-0.0154016
-0.0194526
-0.011196
-0.0192416
-0.00725524
-0.0190207
-0.00442538
-0.0188545
-0.00221352
-0.00100419
-0.0193674
-0.0319285
0.0181159
-0.0200545
-0.028253
-0.0206222
-0.0245118
-0.020772
-0.020163
-0.0208317
-0.0153419
-0.0207276
-0.0113001
-0.0205953
-0.00738749
-0.0204589
-0.00456179
-0.0203643
-0.00230817
-0.00105558
-0.0202585
-0.0306769
0.019007
-0.0208754
-0.0276362
-0.021456
-0.0239311
-0.0216568
-0.0199622
-0.0217736
-0.0152251
-0.0217687
-0.011305
-0.0217302
-0.00742598
-0.0216988
-0.00459323
-0.0216966
-0.00231036
-0.001017
-0.0208493
-0.0293821
0.0195544
-0.0214261
-0.0270593
-0.0220104
-0.0233469
-0.0222944
-0.0196782
-0.022478
-0.0150415
-0.0225934
-0.0111896
-0.0226652
-0.00735424
-0.0227598
-0.00449857
-0.0228721
-0.00219808
-0.000861654
-0.0210996
-0.028056
0.0197734
-0.0217173
-0.0264416
-0.022299
-0.0227652
-0.0226997
-0.0192775
-0.0229643
-0.0147769
-0.0232199
-0.010934
-0.0234202
-0.00715398
-0.0236631
-0.00425563
-0.0239136
-0.00194756
-0.000562495
-0.0210435
-0.0267786
0.0197662
-0.0217752
-0.0257099
-0.0223046
-0.0222358
-0.0228306
-0.0187514
-0.0232013
-0.0144062
-0.0236256
-0.0105097
-0.0239924
-0.00678712
-0.0244182
-0.0038299
-0.0248479
-0.00151782
-9.51101e-05
-0.0831129
-0.0233626
0.0796969
-0.0885164
-0.0203064
-0.0926753
-0.0180769
-0.0965777
-0.014849
-0.099269
-0.0117149
-0.101291
-0.00848726
-0.102397
-0.00568117
-0.103013
-0.00321414
-0.103203
-0.0013284
-9.50157e-05
-0.102148
-0.0201522
0.0989374
-0.105719
-0.0167353
-0.108773
-0.0150229
-0.111717
-0.0119047
-0.113869
-0.0095631
-0.115551
-0.00680495
-0.116551
-0.0046817
-0.117142
-0.00262296
-0.117319
-0.00115163
-8.82466e-05
-0.120452
-0.0173905
0.117691
-0.123201
-0.0139869
-0.125754
-0.0124697
-0.128034
-0.00962449
-0.129792
-0.00780489
-0.131135
-0.00546279
-0.131953
-0.00386325
-0.132423
-0.0021534
-0.132547
-0.00102765
-7.71554e-05
-0.140731
-0.0151253
0.138466
-0.142969
-0.0117484
-0.145072
-0.0103673
-0.146885
-0.00781092
-0.14831
-0.00638062
-0.14938
-0.00439237
-0.150035
-0.00320774
-0.150401
-0.00178773
-0.150489
-0.000939827
-6.71625e-05
-0.164818
-0.0129314
0.162624
-0.166739
-0.00982771
-0.168511
-0.00859497
-0.17001
-0.006312
-0.171203
-0.00518724
-0.172094
-0.00350117
-0.172666
-0.00263655
-0.173005
-0.00144803
-0.173121
-0.000824509
-3.53978e-05
-0.193932
-0.0106669
0.191668
-0.195697
-0.00806318
-0.197379
-0.00691271
-0.198751
-0.00493994
-0.199852
-0.00408678
-0.200673
-0.00267991
-0.201271
-0.00203826
-0.201693
-0.00102642
-0.201932
-0.00058525
2.97946e-05
-0.226548
-0.00820037
0.224082
-0.228837
-0.00577422
-0.230761
-0.00498917
-0.232107
-0.00359422
-0.233174
-0.00301898
-0.234001
-0.00185348
-0.234688
-0.00135082
-0.235231
-0.000483703
-0.235581
-0.000235748
0.000114447
-0.260822
-0.00558227
0.258204
-0.262175
-0.004421
-0.26349
-0.0036747
-0.26467
-0.00241376
-0.265761
-0.00192871
-0.266583
-0.00103076
-0.267258
-0.000675845
-0.267718
-2.35305e-05
-0.267995
4.09136e-05
0.000163697
-0.282555
-0.002828
0.279801
-0.285363
-0.00161309
-0.287644
-0.00139388
-0.289085
-0.000972797
-0.290181
-0.000832482
-0.290765
-0.000446495
-0.291192
-0.000248666
-0.291299
8.32029e-05
-0.291353
9.42724e-05
9.71981e-05
-0.297878
0.29505
-0.299491
-0.300885
-0.301858
-0.30269
-0.303137
-0.303386
-0.303302
-0.303208
-0.0225816
0.0815079
0.0207706
-0.0233424
0.0996982
-0.0235527
0.117901
-0.0232492
0.138162
-0.0224367
0.161812
-0.0207571
0.189988
-0.0180546
0.221379
-0.0120792
0.252229
-0.00730709
0.275029
0.287743
-0.0213354
0.0824985
0.0203448
-0.0219548
0.100318
-0.022044
0.11799
-0.0216229
0.137741
-0.0206978
0.160886
-0.0189864
0.188277
-0.0162145
0.218607
-0.0117405
0.247755
-0.00643218
0.26972
0.281311
-0.0203089
0.0832578
0.0195497
-0.02077
0.100779
-0.0207414
0.117962
-0.0202579
0.137257
-0.0193077
0.159936
-0.0176443
0.186613
-0.0149463
0.215909
-0.0108919
0.2437
-0.00584245
0.264671
0.275468
-0.0191597
0.0839244
0.0184931
-0.0194735
0.101092
-0.019309
0.117797
-0.0187482
0.136697
-0.017771
0.158959
-0.0161552
0.184998
-0.0135907
0.213345
-0.00991474
0.240024
-0.00523456
0.259991
0.270234
-0.0178522
0.0845212
0.0172553
-0.0180491
0.101289
-0.0177722
0.11752
-0.0171461
0.136071
-0.0161505
0.157964
-0.0145885
0.183436
-0.0121948
0.210951
-0.00885966
0.236689
-0.00464359
0.255775
0.26559
-0.0163977
0.0850301
0.0158888
-0.0164783
0.10137
-0.0161108
0.117153
-0.0154404
0.1354
-0.0144447
0.156968
-0.0129561
0.181947
-0.0107615
0.208757
-0.00776681
0.233695
-0.00406147
0.252069
0.261529
-0.0148308
0.0854305
0.0144303
-0.0147871
0.101326
-0.0143358
0.116701
-0.0136331
0.134697
-0.0126531
0.155988
-0.0112599
0.180554
-0.00928727
0.206784
-0.00665521
0.231063
-0.00347406
0.248888
0.258055
-0.0131832
0.0857022
0.0129116
-0.0130152
0.101158
-0.0124819
0.116168
-0.0117509
0.133966
-0.0107952
0.155032
-0.00951377
0.179272
-0.00778007
0.20505
-0.00553336
0.228816
-0.00287857
0.246233
0.255176
-0.0114843
0.0858214
0.011365
-0.0111982
0.100872
-0.0105843
0.115554
-0.009828
0.13321
-0.0089006
0.154105
-0.00774117
0.178113
-0.00625671
0.203566
-0.00440778
0.226967
-0.0022787
0.244104
0.252897
-0.00976091
0.085758
0.00982435
-0.00936957
0.100481
-0.00867176
0.114856
-0.00789499
0.132433
-0.00699671
0.153206
-0.00596671
0.177083
-0.00473678
0.202336
-0.00328871
0.225519
-0.00168204
0.242498
0.251215
-0.0080475
0.0854737
0.00833178
-0.00756998
0.100003
-0.00677673
0.114063
-0.00598555
0.131642
-0.00511253
0.152333
-0.00421489
0.176185
-0.00323861
0.201359
-0.00218675
0.224467
-0.0010946
0.241405
0.250121
-0.00641013
0.0849722
0.00691162
-0.00583668
0.0994299
-0.00495284
0.113179
-0.00414188
0.130831
-0.00329199
0.151484
-0.00251615
0.17541
-0.00178164
0.200625
-0.00111576
0.223801
-0.000523615
0.240813
0.249597
-0.00489652
0.0842701
0.00559866
-0.00420962
0.098743
-0.0032494
0.112219
-0.002409
0.129991
-0.00158629
0.150661
-0.000921927
0.174745
-0.000420144
0.200123
-0.000121456
0.223502
-6.16937e-06
0.240698
0.249591
-0.00353448
0.0833938
0.00441084
-0.00270972
0.0979182
-0.00170259
0.111212
-0.000825393
0.129114
-7.76873e-05
0.149913
0.000575525
0.174092
0.000897469
0.199801
0.000866777
0.223533
0.000529813
0.241035
0.250121
-0.00234286
0.0823822
0.00335445
-0.00135586
0.0969312
-0.000357563
0.110214
0.000655569
0.128101
0.001513
0.149056
0.00204297
0.173562
0.00215743
0.199687
0.00179756
0.223893
0.00102455
0.241808
0.251145
-0.00133111
0.0812896
0.00242369
-0.000196325
0.0957964
0.00097535
0.109042
0.00205885
0.127017
0.00289762
0.148217
0.00335699
0.173103
0.00329716
0.199747
0.00264263
0.224548
0.00147233
0.242978
0.252618
-0.000502103
0.0801938
0.00159791
0.00094061
0.0943537
0.00217027
0.107812
0.0032944
0.125893
0.00414514
0.147366
0.00456144
0.172686
0.00435766
0.19995
0.0034366
0.225469
0.00189604
0.244519
0.254514
0.000174572
0.0791767
0.000842462
0.00187688
0.0926514
0.00314051
0.106549
0.00430814
0.124725
0.00517155
0.146503
0.00555696
0.172301
0.00524088
0.200266
0.00410204
0.226607
0.00224728
0.246374
0.256761
0.00101145
0.0780727
9.25988e-05
0.00275396
0.0909089
0.00406467
0.105238
0.00527564
0.123514
0.00616123
0.145617
0.00652694
0.171935
0.00610649
0.200687
0.0047554
0.227959
0.00259596
0.248533
0.259357
0.00132588
0.0773669
-0.000620067
0.00313069
0.0891041
0.00449291
0.103876
0.00572916
0.122278
0.00663488
0.144712
0.00701365
0.171556
0.00656495
0.201136
0.00511463
0.229409
0.00277578
0.250872
0.262133
-0.0693098
0.0694265
0.0772501
-0.0616463
0.0814406
-0.0561692
0.0983986
-0.0503793
0.116488
-0.0444398
0.138772
-0.0378694
0.164986
-0.0301265
0.193393
-0.0209987
0.220281
-0.010733
0.240606
0.2514
-0.0807016
0.0631161
0.0870121
-0.0740853
0.0748242
-0.0679666
0.0922799
-0.0611589
0.10968
-0.0543868
0.132
-0.0465753
0.157174
-0.0372207
0.184038
-0.0261406
0.209201
-0.0136348
0.2281
0.237765
-0.0939648
0.0568317
0.100249
-0.087488
0.0683474
-0.0806186
0.0854106
-0.0731351
0.102197
-0.0653098
0.124175
-0.0557437
0.147608
-0.0443749
0.172669
-0.0309254
0.195751
-0.0157034
0.212878
0.222062
-0.110474
0.0508234
0.116483
-0.103762
0.0616349
-0.0964205
0.0780692
-0.088295
0.0940714
-0.0790217
0.114901
-0.0673894
0.135976
-0.0536967
0.158977
-0.0375358
0.179591
-0.019549
0.194892
0.202513
-0.129805
0.0442226
0.136406
-0.122964
0.0547936
-0.114831
0.0699362
-0.105181
0.0844213
-0.0935086
0.103229
-0.0791666
0.121634
-0.0625546
0.142365
-0.0430258
0.160062
-0.0215484
0.173414
0.180964
-0.154692
0.0381487
0.160765
-0.146927
0.0470293
-0.137367
0.0603762
-0.125675
0.0727287
-0.111443
0.0889971
-0.0943648
0.104556
-0.0744025
0.122402
-0.0512565
0.136916
-0.0267009
0.148858
0.154264
-0.181115
0.0305512
0.188712
-0.171998
0.037912
-0.160348
0.0487267
-0.145984
0.0583647
-0.128516
0.0715286
-0.107554
0.0835942
-0.0827496
0.0975984
-0.0549463
0.109112
-0.026512
0.120424
0.127752
-0.21187
0.0225112
0.21991
-0.201054
0.0270962
-0.187301
0.0349736
-0.170367
0.0414306
-0.149799
0.0509613
-0.125123
0.0589176
-0.0964892
0.0689648
-0.0656753
0.0782985
-0.0346897
0.0894386
0.0930618
-0.235019
0.0108834
0.246647
-0.221292
0.0133691
-0.203751
0.017433
-0.182944
0.0206238
-0.157621
0.0256378
-0.128276
0.0295729
-0.0946068
0.0352954
-0.0566754
0.0403671
-0.0172972
0.0500603
0.0757646
-0.308124
0.319007
-0.294755
-0.277322
-0.256698
-0.23106
-0.201488
-0.166192
-0.125825
-0.0757646
-0.0018641
0.0790965
1.77567e-05
-0.00342677
0.0885748
-0.00464211
0.101465
-0.00554703
0.117388
-0.00608489
0.136944
-0.0062048
0.160885
-0.00570395
0.188212
-0.00448454
0.21869
-0.00343086
0.245593
0.315577
-0.00139538
0.0811359
-0.000644046
-0.00311816
0.0902975
-0.00442799
0.102774
-0.00535683
0.118316
-0.00593038
0.137518
-0.00605194
0.161007
-0.00560771
0.187767
-0.00440866
0.217491
-0.00313888
0.244323
0.312438
-0.000724482
0.0831127
-0.00125228
-0.00243643
0.0920095
-0.00375808
0.104096
-0.0046823
0.119241
-0.00528366
0.138119
-0.00542437
0.161148
-0.00507911
0.187422
-0.0039768
0.216389
-0.00286766
0.243214
0.30957
-9.6392e-05
0.0850719
-0.00186286
-0.00174403
0.0936571
-0.0029649
0.105317
-0.00385601
0.120132
-0.00443616
0.138699
-0.00462339
0.161335
-0.00435502
0.187154
-0.00343245
0.215466
-0.0025153
0.242297
0.307055
0.000553898
0.0870144
-0.00249641
-0.00107615
0.0952872
-0.00220256
0.106443
-0.00303345
0.120963
-0.00357235
0.139238
-0.00377523
0.161538
-0.00357286
0.186951
-0.00282951
0.214723
-0.00211654
0.241584
0.304938
0.00123781
0.0889193
-0.0031427
-0.000353085
0.0968781
-0.00137691
0.107467
-0.00214841
0.121734
-0.00265007
0.13974
-0.0028619
0.16175
-0.00274161
0.186831
-0.00217144
0.214153
-0.00168144
0.241094
0.303257
0.00196488
0.0907507
-0.00379625
0.000500643
0.0983423
-0.000460665
0.108428
-0.0011698
0.122443
-0.00163452
0.140204
-0.00185823
0.161973
-0.00182559
0.186798
-0.00145117
0.213778
-0.00120702
0.24085
0.30205
0.00272794
0.092477
-0.00445423
0.00142287
0.0996474
0.000536493
0.109315
-0.000124398
0.123104
-0.000530359
0.14061
-0.000772153
0.162215
-0.000812847
0.186839
-0.000674724
0.21364
-0.000689998
0.240865
0.30136
0.00351526
0.0940706
-0.0051089
0.00235954
0.100803
0.00157463
0.1101
0.00102786
0.123651
0.00064973
0.140988
0.000384598
0.16248
0.000274626
0.186949
0.000143037
0.213772
-0.00012276
0.241131
0.301237
0.00432116
0.0954954
-0.00574589
0.00331281
0.101811
0.00263631
0.110776
0.00218746
0.1241
0.00185941
0.141316
0.00159752
0.162742
0.00134736
0.187199
0.00104303
0.214076
0.000422746
0.241751
0.30166
0.00512388
0.0967079
-0.0063364
0.00426463
0.102671
0.00370237
0.111338
0.00335091
0.124451
0.00308047
0.141587
0.00281064
0.163012
0.00245689
0.187553
0.00193151
0.214601
0.000986101
0.242697
0.302646
0.00591448
0.0976677
-0.00687432
0.0052072
0.103378
0.00476314
0.111783
0.00451085
0.124704
0.00430052
0.141797
0.00402977
0.163283
0.00357628
0.188006
0.00282941
0.215348
0.00156302
0.243963
0.304209
0.00666313
0.0983474
-0.00734279
0.00611118
0.10393
0.005787
0.112107
0.00563488
0.124856
0.00549205
0.14194
0.00522941
0.163545
0.00468297
0.188553
0.00372771
0.216304
0.00214193
0.245549
0.306351
0.00734964
0.0987282
-0.00773046
0.00695645
0.104323
0.00674897
0.112314
0.00669585
0.124909
0.00662903
0.142007
0.00638166
0.163793
0.00575527
0.189179
0.00460679
0.217452
0.0027105
0.247445
0.309061
0.00795878
0.0987956
-0.00802623
0.00772845
0.104553
0.0076307
0.112412
0.00767308
0.124866
0.00768724
0.141993
0.0074691
0.164011
0.00678509
0.189863
0.00545944
0.218778
0.0032682
0.249637
0.31233
0.00847057
0.0985489
-0.00822378
0.00840569
0.104618
0.00840765
0.11241
0.00853845
0.124736
0.00863498
0.141896
0.00845577
0.16419
0.00773704
0.190582
0.00625667
0.220258
0.00379714
0.252096
0.316127
0.00889315
0.0979829
-0.0083272
0.00900024
0.104511
0.00908789
0.112322
0.009298
0.124525
0.00948009
0.141714
0.0093547
0.164315
0.00862319
0.191314
0.00701146
0.22187
0.00430608
0.254801
0.320433
0.00916626
0.0971617
-0.00834503
0.00944264
0.104235
0.0096072
0.112158
0.00988305
0.12425
0.0101447
0.141452
0.01008
0.16438
0.00936406
0.192029
0.00766619
0.223568
0.00475958
0.257708
0.325192
0.00948099
0.0960179
-0.00833719
0.00992445
0.103791
0.0101255
0.111957
0.0104398
0.123935
0.0107701
0.141122
0.0107685
0.164382
0.0100723
0.192726
0.00829044
0.225349
0.00519092
0.260808
0.330383
0.00931027
0.09497
-0.00826241
0.00989688
0.103205
0.010199
0.111655
0.0105545
0.12358
0.0109619
0.140715
0.0110451
0.164298
0.010454
0.193317
0.00867618
0.227127
0.00551266
0.263971
0.335896
-0.0504692
0.0886543
0.056785
-0.0431681
0.0959037
-0.0373626
0.105849
-0.0317232
0.11794
-0.0261142
0.135106
-0.020301
0.158485
-0.0142329
0.187249
-0.00817876
0.221073
-0.00376906
0.259561
0.332127
-0.0686825
0.0817391
0.0755976
-0.0613655
0.0885868
-0.0541239
0.0986075
-0.046271
0.110087
-0.0385343
0.127369
-0.0304736
0.150424
-0.0218833
0.178659
-0.0132213
0.212411
-0.00615394
0.252494
0.325973
-0.0887973
0.0743316
0.0962048
-0.0802906
0.08008
-0.0709665
0.0892833
-0.0614281
0.100549
-0.0521172
0.118058
-0.0417535
0.140061
-0.0304435
0.167349
-0.0187494
0.200717
-0.0084553
0.2422
0.317518
-0.110943
0.0656325
0.119642
-0.0999105
0.0690479
-0.089293
0.0786658
-0.0787708
0.0900268
-0.0674813
0.106769
-0.0543114
0.126891
-0.0400692
0.153106
-0.0250317
0.185679
-0.0111864
0.228355
0.306331
-0.133603
0.0548711
0.144365
-0.121964
0.0574088
-0.111266
0.067968
-0.0990308
0.0777912
-0.0852432
0.0929809
-0.0693872
0.111035
-0.0521064
0.135826
-0.0329434
0.166516
-0.0144631
0.209874
0.291868
-0.160256
0.0443968
0.17073
-0.148518
0.0456714
-0.136789
0.0562389
-0.122339
0.0633412
-0.106471
0.0771129
-0.0878634
0.0924271
-0.0668457
0.114808
-0.0429612
0.142632
-0.0197782
0.186691
0.27209
-0.191867
0.0322912
0.203972
-0.180646
0.0344512
-0.167293
0.0428858
-0.151439
0.0474866
-0.133774
0.0594487
-0.112037
0.0706902
-0.0868405
0.0896109
-0.0580857
0.113877
-0.0280572
0.156663
0.244033
-0.230839
0.0211832
0.241947
-0.218436
0.0220477
-0.203255
0.0277054
-0.186313
0.0305449
-0.166246
0.0393815
-0.141891
0.0463352
-0.113587
0.061307
-0.0806341
0.0809238
-0.0431286
0.119157
0.200904
-0.281678
0.00904702
0.293814
-0.26926
0.0096291
-0.253729
0.0121752
-0.237111
0.0139269
-0.216129
0.0183992
-0.192183
0.0223888
-0.162351
0.031475
-0.124826
0.0433995
-0.0735828
0.0679137
0.127321
-0.346629
0.355676
-0.337
-0.324824
-0.310897
-0.292498
-0.270109
-0.238634
-0.195235
-0.127321
0.00574361
0.0585587
-0.00751734
0.00290265
0.0784386
-0.000111879
0.0992193
-0.00207827
0.121608
-0.003823
0.146109
-0.00521241
0.17212
-0.00576553
0.204525
-0.00575074
0.241932
-0.00390277
0.291966
0.351773
0.00610133
0.0600081
-0.00755074
0.00356794
0.0809719
0.000871242
0.101916
-0.00141922
0.123899
-0.00329458
0.147985
-0.00475174
0.173577
-0.00544514
0.205219
-0.00545186
0.241939
-0.00375967
0.290274
0.348013
0.00676236
0.0608182
-0.00757246
0.00458828
0.083146
0.00205101
0.104453
-0.000392807
0.126342
-0.00228888
0.149881
-0.00381271
0.175101
-0.00463785
0.206044
-0.00469765
0.241999
-0.00339937
0.288976
0.344614
0.00744886
0.0609868
-0.00761745
0.00567753
0.0849173
0.00330582
0.106825
0.000892238
0.128756
-0.00110978
0.151883
-0.00270292
0.176694
-0.00363247
0.206973
-0.00386213
0.242228
-0.00294534
0.288059
0.341668
0.00815196
0.060538
-0.00770311
0.0068168
0.0862525
0.00463335
0.109008
0.00229713
0.131092
0.000118458
0.154062
-0.00149921
0.178311
-0.00252384
0.207998
-0.00297277
0.242677
-0.00240179
0.287488
0.339267
0.00890771
0.0594704
-0.00784017
0.00805345
0.0871068
0.00608584
0.110976
0.00381947
0.133359
0.00170432
0.156177
-0.00022498
0.180241
-0.00131247
0.209086
-0.00201518
0.24338
-0.00179553
0.287269
0.337471
0.00971005
0.0577957
-0.00803534
0.00938181
0.087435
0.00767232
0.112686
0.00548703
0.135544
0.00335744
0.158306
0.0014181
0.18218
8.25425e-06
0.210495
-0.000983244
0.244372
-0.00113296
0.287418
0.336338
0.0105378
0.0555462
-0.00828824
0.0107691
0.0872037
0.00936648
0.114088
0.00728434
0.137626
0.00513509
0.160456
0.0031161
0.184199
0.00149832
0.212113
0.00010325
0.245767
-0.000411861
0.287933
0.335926
0.0113657
0.0527703
-0.00858986
0.0121778
0.0863917
0.0111304
0.115135
0.00918062
0.139576
0.00701435
0.162622
0.00488732
0.186326
0.00304364
0.213957
0.00143636
0.247374
0.000333046
0.289037
0.336259
0.0121644
-0.00892674
0.0135676
0.0129204
0.0111417
0.0089607
0.00673239
0.00465902
0.00273135
0.00108189
0.000611736
-0.00236381
0.00183268
-0.0065915
0.00334365
-0.0097029
0.00494175
-0.0116466
0.00652147
-0.0126182
0.0080438
-0.01287
0.00950697
-0.0126295
0.0109263
-0.0120743
0.0123238
-0.0113383
-0.0105465
0.000667693
-0.0030315
0.00193314
-0.00785695
0.00343458
-0.0112043
0.00496264
-0.0131747
0.00642463
-0.0140802
0.00779982
-0.0142452
0.00910215
-0.0139318
0.0103564
-0.0133286
0.011585
-0.0125669
-0.0117532
0.000705197
-0.0037367
0.00196796
-0.00911971
0.00339395
-0.0126303
0.00477972
-0.0145605
0.0060544
-0.0153549
0.00722023
-0.0154111
0.00830884
-0.0150204
0.00935634
-0.0143761
0.0103904
-0.013601
-0.0127821
0.000718924
-0.00445562
0.00192655
-0.0103273
0.00321153
-0.0139153
0.00438991
-0.0157388
0.00541987
-0.0163848
0.00632822
-0.0163194
0.00716307
-0.0158552
0.0079702
-0.0151832
0.00878319
-0.014414
-0.0136177
0.000704486
-0.00516011
0.00180329
-0.0114261
0.00288797
-0.015
0.00380675
-0.0166576
0.00455073
-0.0171288
0.00516958
-0.0169383
0.00572393
-0.0164096
0.00626516
-0.0157245
0.00682975
-0.0149785
-0.0142272
0.000659062
-0.00581917
0.00159835
-0.0123654
0.00243442
-0.0158361
0.0030572
-0.0172804
0.00349079
-0.0175624
0.00380313
-0.0172506
0.00406167
-0.0166681
0.00431845
-0.0159812
0.00460889
-0.015269
-0.0145732
0.000581881
-0.00640105
0.00131779
-0.0131013
0.00187057
-0.0163888
0.00217714
-0.017587
0.00229102
-0.0176763
0.00229201
-0.0172516
0.00224844
-0.0166246
0.00220829
-0.0159411
0.0022022
-0.0152629
-0.0146209
0.000474448
-0.0068755
0.000972662
-0.0135996
0.00122188
-0.0166381
0.00120662
-0.0175717
0.00100359
-0.0174732
0.000697694
-0.0169457
0.000352922
-0.0162798
1.02743e-05
-0.0155984
-0.000306964
-0.0149457
-0.0143383
0.000340427
-0.00721592
0.000577704
-0.0138368
0.000516647
-0.016577
0.000185587
-0.0172406
-0.000322103
-0.0169656
-0.000922871
-0.0163449
-0.00156076
-0.0156419
-0.00220405
-0.0149552
-0.00283707
-0.0143126
-0.0137226
0.000185004
-0.00740093
0.000150352
-0.0138022
-0.000216499
-0.0162102
-0.000847263
-0.0166099
-0.00164102
-0.0161718
-0.0025196
-0.0154663
-0.00343648
-0.014725
-0.00436859
-0.014023
-0.00530688
-0.0133744
-0.0127783
4.84625e-05
-0.00744939
-0.00024852
-0.0135052
-0.000907302
-0.0155514
-0.00182126
-0.0156959
-0.00288404
-0.015109
-0.0040248
-0.0143256
-0.00520628
-0.0135435
-0.00641272
-0.0128166
-0.00764008
-0.012147
-0.0115271
-0.000119211
-0.00733018
-0.000679955
-0.0129444
-0.00160982
-0.0146215
-0.0027773
-0.0145284
-0.0040777
-0.0138086
-0.00545
-0.0129533
-0.00686584
-0.0121277
-0.00831513
-0.0113673
-0.00979685
-0.0106653
-0.010009
-0.000286478
-0.0070437
-0.00109578
-0.0121351
-0.00227153
-0.0134458
-0.00366309
-0.0131369
-0.00517166
-0.0123001
-0.00674673