/*--------------------------------*- C++ -*----------------------------------*\
  =========                 |
  \\      /  F ield         | OpenFOAM: The Open Source CFD Toolbox
   \\    /   O peration     | Website:  https://openfoam.org
    \\  /    A nd           | Version:  7
     \\/     M anipulation  |
\*---------------------------------------------------------------------------*/
FoamFile
{
    version     2.0;
    format      ascii;
    class       volScalarField;
    location    "22.6";
    object      p;
}
// * * * * * * * * * * * * * * * * * * * * * * * * * * * * * * * * * * * * * //

dimensions      [0 2 -2 0 0 0 0];

internalField   nonuniform List<scalar> 
2000
(
-0.0123188
-0.00866536
-0.0062404
-0.00341422
-0.000293468
0.00299572
0.00637274
0.0097711
0.0131569
0.0165222
-0.0111921
-0.00780773
-0.00562397
-0.00314782
-0.000437553
0.00243988
0.00543736
0.00850082
0.0115905
0.0146999
-0.0100176
-0.00696253
-0.00499929
-0.00283466
-0.000510239
0.00194856
0.00452885
0.00720148
0.00993644
0.0127351
-0.00883425
-0.00615176
-0.00439344
-0.00249945
-0.000518598
0.00154107
0.00368951
0.00592459
0.00823826
0.0106521
-0.00768257
-0.00539465
-0.00382724
-0.00216385
-0.000473586
0.001231
0.00296353
0.00473739
0.00656742
0.00848559
-0.00659685
-0.00470263
-0.00331164
-0.0018426
-0.000387977
0.00102208
0.00238656
0.00371228
0.00502581
0.00628447
-0.00560762
-0.00408193
-0.00285053
-0.00154461
-0.000276382
0.000904112
0.00197187
0.00290686
0.00372972
0.00412146
-0.00474254
-0.00353809
-0.00244628
-0.00127692
-0.000156022
0.000851855
0.00170007
0.00234207
0.00276633
0.00212963
-0.00402538
-0.00307957
-0.00210365
-0.00104798
-4.65121e-05
0.000829032
0.00152168
0.00198357
0.00212196
0.000387082
-0.00347442
-0.00272246
-0.00183033
-0.000868188
3.30039e-05
0.000801827
0.00138789
0.00177442
0.00178527
-0.000548263
0.0237553
0.0344014
0.043199
0.050001
0.0550953
0.0589848
0.0611644
0.0632863
0.0632357
0.0645857
0.0214538
0.0320202
0.0406783
0.0472496
0.0521997
0.0559661
0.057999
0.0600034
0.0600124
0.0612596
0.0188883
0.0295662
0.0381114
0.044485
0.0493494
0.0530153
0.0549199
0.0568214
0.0568347
0.0580538
0.0160996
0.027082
0.0354901
0.0417215
0.0465638
0.0501404
0.0519343
0.0537303
0.0537288
0.0549759
0.0131965
0.0246481
0.0328304
0.0389934
0.0438605
0.0473523
0.0490474
0.050731
0.0507254
0.0520285
0.0103392
0.0222468
0.0300878
0.0363122
0.0412441
0.0446624
0.0462675
0.0478195
0.0478173
0.0492068
0.00783405
0.019941
0.0273321
0.0337349
0.0387233
0.0420775
0.0436023
0.0450125
0.0450301
0.0465153
0.0058475
0.0174287
0.0244709
0.0312212
0.0362847
0.0396129
0.041062
0.0422871
0.0423144
0.0439448
0.0048315
0.0149921
0.0217932
0.028835
0.0339323
0.03726
0.0386551
0.0397033
0.0397467
0.0415091
0.00337252
0.0117631
0.0189154
0.0263471
0.0316361
0.0350591
0.0363951
0.0371612
0.0371972
0.0391671
0.00734534
0.00805396
0.0138816
0.0208663
0.02623
0.0297512
0.0312606
0.0318272
0.0318826
0.0338017
0.00112564
0.00146436
0.00756365
0.014227
0.0194428
0.0228547
0.0241507
0.0244359
0.0242301
0.02574
-0.00476998
-0.00309943
0.00342268
0.00963684
0.01433
0.0175001
0.0181136
0.0179584
0.0178907
0.0191923
-0.00824737
-0.00572873
0.000547555
0.0062251
0.0104609
0.0132159
0.0141341
0.0138357
0.0136852
0.0154011
-0.00877745
-0.00598086
-0.000695586
0.00390269
0.00767609
0.0102457
0.0114448
0.0116209
0.0119192
0.0143519
-0.0078104
-0.00498593
-0.000906754
0.00263137
0.00586529
0.0082544
0.00975932
0.0106147
0.011493
0.0141514
-0.00489003
-0.0027824
-0.000730773
0.00182908
0.00442905
0.00654992
0.00821796
0.00958886
0.0109013
0.0132635
-0.00214095
-0.00033414
0.000362383
0.00183923
0.00338087
0.00485014
0.00625488
0.00764179
0.00892932
0.0106666
0.000269882
0.000735166
0.000728318
0.00151681
0.00235233
0.00320052
0.0040656
0.0049948
0.00582406
0.00685025
0.00148622
0.00162485
0.00089865
0.000547436
0.000897211
0.00123781
0.00155443
0.00187471
0.00204484
0.00226466
0.00101334
-0.000981051
-0.00507022
-0.00800646
-0.00836492
-0.0072446
-0.00440912
-0.00156762
0.00108326
0.00125594
0.000538975
-0.00165347
-0.00568645
-0.00845521
-0.00875899
-0.0076105
-0.00467991
-0.00186175
0.000992061
0.00100722
0.000382861
-0.00252823
-0.00659538
-0.00922994
-0.00940581
-0.0080559
-0.0050021
-0.0021568
0.000782207
0.000762895
-9.94627e-05
-0.00370593
-0.00776873
-0.0102234
-0.0101842
-0.00856845
-0.00536562
-0.00244588
0.000578213
0.000554583
-0.00103718
-0.00523744
-0.00926495
-0.0114537
-0.0111026
-0.00916976
-0.00577723
-0.00274549
0.000375885
0.000374868
-0.00250361
-0.00714931
-0.0110323
-0.0128581
-0.0121099
-0.00981697
-0.00621298
-0.00304931
0.000164067
0.000222828
-0.00443973
-0.00935012
-0.0129149
-0.0143052
-0.0131171
-0.0104592
-0.00665036
-0.00335076
-6.18057e-05
9.38491e-05
-0.00659345
-0.0116076
-0.0147028
-0.0156449
-0.0140353
-0.0110515
-0.00706835
-0.00364173
-0.000302006
-2.41194e-05
-0.00859715
-0.0136207
-0.016194
-0.0167459
-0.0147902
-0.0115532
-0.00744229
-0.00390166
-0.000547454
-0.000134143
-0.0101203
-0.0151347
-0.0172422
-0.0175204
-0.0153262
-0.0119255
-0.00774383
-0.00414541
-0.000789909
-0.000196722
-0.010983
-0.016034
-0.0177738
-0.0179273
-0.0156082
-0.0121347
-0.00795642
-0.00433576
-0.00104707
-0.000199845
-0.011146
-0.0163194
-0.0177988
-0.0179642
-0.0156346
-0.0121958
-0.00807802
-0.0044715
-0.00128769
-0.000225626
-0.0106767
-0.0160017
-0.017426
-0.0176635
-0.0154331
-0.0120803
-0.00810167
-0.00456626
-0.00150054
-0.000281516
-0.00970917
-0.0152307
-0.0167062
-0.017089
-0.0150404
-0.0118448
-0.00804829
-0.00462671
-0.00168763
-0.000352849
-0.00837506
-0.0141435
-0.0157406
-0.0163076
-0.0145092
-0.0115219
-0.00793976
-0.00465977
-0.00185021
-0.000427402
-0.00680601
-0.0128469
-0.0146295
-0.015386
-0.0138904
-0.0111428
-0.00779522
-0.00467231
-0.00198897
-0.000498312
-0.0051226
-0.0114281
-0.0134538
-0.014387
-0.0132197
-0.0106973
-0.00763183
-0.00466936
-0.00210524
-0.000562024
-0.00337634
-0.00992869
-0.0122614
-0.013363
-0.0125321
-0.0104409
-0.00746581
-0.00465341
-0.00220097
-0.000617432
-0.00151085
-0.0082909
-0.0110503
-0.0123346
-0.0118493
-0.00994486
-0.00729026
-0.0046323
-0.00228107
-0.000664727
4.72627e-05
-0.00658742
-0.00982312
-0.0112575
-0.0111297
-0.00951614
-0.00714047
-0.00460266
-0.00234787
-0.000698919
0.00104679
-0.00326603
-0.00692791
-0.00860743
-0.0090499
-0.0080123
-0.00634041
-0.00430533
-0.00238241
-0.000730817
0.00246055
-0.00107414
-0.00400983
-0.00558604
-0.0063191
-0.00587066
-0.00487801
-0.00345351
-0.00198523
-0.000585713
0.00502312
0.00162485
-0.00126812
-0.00295975
-0.00399654
-0.00401659
-0.00356417
-0.00259261
-0.00146587
-0.00033067
0.0075575
0.00425282
0.00130893
-0.000593496
-0.00193486
-0.00236895
-0.00232837
-0.0016983
-0.000839914
8.6591e-06
0.0102128
0.00674052
0.00368786
0.00154663
-0.000110298
-0.000909725
-0.00120682
-0.000807673
-8.94442e-05
0.000483264
0.0130501
0.00926548
0.00590888
0.00344855
0.00148595
0.000350979
-0.000189337
0.000113874
0.000768818
0.00105042
0.0158701
0.0116617
0.00794636
0.00513229
0.00286243
0.00144877
0.000772272
0.00104624
0.00167076
0.00164968
0.0184463
0.0136695
0.0097306
0.00661533
0.00408268
0.0024619
0.00172249
0.00195893
0.0024671
0.00207035
0.0207765
0.0161282
0.0115766
0.00787964
0.00508368
0.00335914
0.00258833
0.00262666
0.00274742
0.00192049
0.0233112
0.0164851
0.0116974
0.00816107
0.00558153
0.00396029
0.00316518
0.00289962
0.00254644
0.00144805
0.00426186
0.00589413
0.00796659
0.0101555
0.012965
0.0158918
0.0188463
0.022188
0.0235642
0.0290374
0.00564914
0.00748992
0.00947666
0.0116582
0.0146243
0.0176142
0.0206971
0.0240919
0.0257001
0.0302857
0.00689004
0.00883059
0.0109238
0.0133787
0.0166353
0.0198269
0.0231518
0.0265557
0.0286985
0.0309223
0.00794506
0.00986086
0.0120758
0.0148536
0.0183959
0.0218483
0.02544
0.0289754
0.0315096
0.0323866
0.00886829
0.0108121
0.0131597
0.0162101
0.0199801
0.0236635
0.0274853
0.0311933
0.0340087
0.0347376
0.00966314
0.0117671
0.01433
0.0176412
0.0216132
0.0254904
0.0294995
0.0333527
0.036402
0.0375531
0.0103199
0.012703
0.0155843
0.0191927
0.0233918
0.0274677
0.0316578
0.0356361
0.038885
0.0405019
0.0108414
0.0136032
0.0168828
0.020828
0.0252998
0.0296088
0.0340086
0.0381288
0.0415493
0.0434763
0.0112379
0.0144769
0.0182129
0.0225152
0.0273015
0.0318767
0.0365254
0.0408265
0.0444096
0.0465082
0.0115202
0.015339
0.0195807
0.0242443
0.029383
0.0342398
0.0391721
0.0436896
0.0474481
0.0496589
0.0116987
0.0161988
0.0209914
0.02601
0.0315477
0.0366847
0.0419333
0.0466903
0.0506498
0.052969
0.0117783
0.0170528
0.0224343
0.0278004
0.0337894
0.0392066
0.0448051
0.0498147
0.0540059
0.0564477
0.0117537
0.0178805
0.023875
0.0296111
0.036078
0.0418186
0.0477892
0.0530817
0.0575223
0.060096
0.0116065
0.0186471
0.0252715
0.0314417
0.0383743
0.0445132
0.0508926
0.0564963
0.0611979
0.0639083
0.0113017
0.0193114
0.026587
0.0332854
0.0406968
0.0472947
0.0540865
0.0600507
0.0650402
0.067894
0.0107859
0.0198291
0.0278395
0.0350965
0.0429994
0.0500942
0.0573269
0.0637047
0.0690299
0.0720482
0.0100448
0.0202387
0.028988
0.0368298
0.0452676
0.052904
0.0606356
0.0674849
0.0731875
0.0763953
0.00899607
0.020462
0.0299409
0.038404
0.0474087
0.0556302
0.0639134
0.0713073
0.0774668
0.0809189
0.00772978
0.0206005
0.0307726
0.0399054
0.0494952
0.0583558
0.0672403
0.0752406
0.0819072
0.0856651
0.00565326
0.0200667
0.0310315
0.0408612
0.0510449
0.0606022
0.0701717
0.0789557
0.0863492
0.0905843
0.00510403
0.0213402
0.0336087
0.0449972
0.0563999
0.0675297
0.0786161
0.0890909
0.0979533
0.103253
0.0153616
0.031152
0.0435391
0.0563973
0.0698045
0.083302
0.0970759
0.1103
0.121606
0.1282
0.0280328
0.0439142
0.0565924
0.0710188
0.0865418
0.10291
0.119756
0.136136
0.150215
0.158564
0.041209
0.0571974
0.0709359
0.0875626
0.105865
0.125893
0.146357
0.166544
0.183861
0.194026
0.0539689
0.0704221
0.0859195
0.105343
0.127386
0.151863
0.176778
0.201435
0.222358
0.234801
0.0664619
0.0839983
0.102009
0.124828
0.151387
0.181026
0.211279
0.240971
0.265745
0.279949
0.0788119
0.0981568
0.119337
0.146078
0.177579
0.2128
0.248866
0.283904
0.312369
0.329182
0.092236
0.113075
0.137807
0.168866
0.205404
0.246204
0.288285
0.329063
0.360799
0.37667
0.10326
0.125846
0.153748
0.188356
0.228982
0.274332
0.321722
0.36808
0.402823
0.421088
0.11125
0.134929
0.165209
0.202361
0.245727
0.294227
0.346264
0.399078
0.438828
0.442922
-0.0011275
0.00810386
0.0187055
0.0307978
0.0423906
0.0544479
0.0657117
0.0795366
0.0905546
0.099315
-0.00332266
0.00662667
0.016857
0.0285562
0.039654
0.0513906
0.0624301
0.0759897
0.086961
0.0955865
-0.00451223
0.00639743
0.0168082
0.0284627
0.0394046
0.0509243
0.0620121
0.0752387
0.0856485
0.0936888
-0.00531488
0.00577328
0.0162155
0.027934
0.0389228
0.0504842
0.0617542
0.0748836
0.0847838
0.0922586
-0.00580782
0.0050351
0.0153186
0.0269566
0.0379448
0.0495862
0.0610253
0.0741591
0.0837524
0.0908159
-0.00586748
0.00460075
0.0147433
0.0262253
0.0371401
0.0487972
0.0603134
0.0733904
0.0827492
0.0894802
-0.00546332
0.00458747
0.0147027
0.026096
0.0369646
0.0486531
0.0601996
0.0731389
0.0822121
0.0885856
-0.00457299
0.00503006
0.0152464
0.026602
0.0375337
0.0493305
0.0609502
0.0737237
0.0824471
0.0883958
-0.00315745
0.00601035
0.016414
0.0277393
0.0388308
0.0508037
0.0625582
0.0751768
0.0835207
0.088993
-0.0011789
0.0076049
0.0182513
0.0295364
0.0408429
0.053018
0.0649177
0.0773929
0.0853346
0.0903094
0.00138333
0.00982983
0.0207763
0.0320064
0.0435597
0.055934
0.0679257
0.0802592
0.0877521
0.0922202
0.00450969
0.0126095
0.0239414
0.0350939
0.0469349
0.0594942
0.0714933
0.0836895
0.0906654
0.0946147
0.00807963
0.0158383
0.0276104
0.0386967
0.0508852
0.0635995
0.0755475
0.08761
0.0940138
0.0974284
0.0119202
0.019417
0.0316309
0.0427104
0.0552936
0.0681417
0.0800201
0.0919231
0.0977334
0.100638
0.0158453
0.0232406
0.0358512
0.04703
0.0600272
0.0730133
0.0848452
0.0965088
0.1018
0.104201
0.0196628
0.0271783
0.040107
0.0515247
0.0649304
0.0780835
0.0899163
0.101226
0.106166
0.108047
0.0231975
0.0311019
0.0442567
0.0560733
0.0698737
0.0832429
0.0951348
0.105974
0.110811
0.112095
0.0262495
0.0348311
0.0481184
0.0604776
0.0746637
0.0883082
0.100326
0.110712
0.11552
0.116259
0.0287986
0.0383534
0.0517063
0.0647192
0.079282
0.0932445
0.105438
0.115453
0.120233
0.120511
0.030351
0.0410743
0.0544469
0.0681408
0.0831227
0.0974988
0.109999
0.119898
0.124677
0.124809
0.0364353
0.0501381
0.0634432
0.0783448
0.0938154
0.108759
0.121644
0.131155
0.135497
0.135299
0.0542207
0.0681508
0.0818239
0.0972611
0.112486
0.127141
0.13944
0.148092
0.151773
0.151447
0.0694205
0.0839613
0.0983763
0.113969
0.12872
0.142912
0.154498
0.162688
0.166369
0.166534
0.0814699
0.0963001
0.111304
0.126795
0.141373
0.155342
0.166759
0.175386
0.180244
0.181845
0.0906732
0.105679
0.120872
0.13617
0.150948
0.165032
0.177115
0.18742
0.194986
0.199557
0.0978997
0.112832
0.128027
0.14325
0.158473
0.173144
0.186967
0.200772
0.213848
0.224878
0.102712
0.117858
0.132962
0.148206
0.164098
0.180064
0.196917
0.216622
0.239318
0.263209
0.107184
0.12229
0.137507
0.153274
0.170123
0.188326
0.209993
0.239524
0.279282
0.327377
0.108197
0.123179
0.138425
0.154624
0.172925
0.194859
0.224745
0.269311
0.33601
0.425743
0.110822
0.126966
0.143944
0.162753
0.185323
0.214515
0.256165
0.320261
0.42212
0.565275
0.0307449
0.0459211
0.0601248
0.0719047
0.0809664
0.0888353
0.0932107
0.0979206
0.0986934
0.10097
0.0310771
0.0453606
0.0585905
0.0696369
0.0781687
0.0857718
0.0897526
0.0943232
0.0948366
0.0972814
0.0329302
0.0471225
0.059203
0.0691032
0.0767063
0.0834432
0.0868733
0.0910219
0.0911661
0.0938768
0.0330765
0.0471658
0.0585897
0.0678124
0.0748049
0.0808474
0.0839073
0.0876854
0.0875322
0.0902283
0.0323524
0.045848
0.0567737
0.0656107
0.0722672
0.0778585
0.0807218
0.0842323
0.0838773
0.0863582
0.0314658
0.044231
0.05464
0.0630977
0.0694768
0.0746908
0.0774425
0.0807139
0.0802276
0.0824582
0.0304425
0.0425885
0.0525131
0.0605514
0.0666283
0.0715435
0.0741783
0.0771874
0.0766331
0.0786668
0.0291722
0.0408162
0.0503448
0.0579991
0.063779
0.0683638
0.0709362
0.0736706
0.073134
0.0750178
0.0276177
0.0388402
0.0480624
0.0553939
0.0609069
0.0651968
0.0676699
0.0701608
0.0697533
0.0714794
0.0258046
0.0366831
0.0456672
0.0527218
0.0580068
0.0620661
0.0643984
0.0666776
0.0664758
0.068005
-0.00311654
-0.00246479
-0.00163213
-0.000747935
6.55184e-05
0.000742913
0.00125509
0.00165002
0.00208744
0.00215517
-0.00295361
-0.00230272
-0.00151577
-0.000692796
3.73642e-05
0.000613424
0.00101094
0.00125029
0.00137689
0.00117645
-0.00297491
-0.00223084
-0.00146703
-0.000694126
-4.35431e-05
0.000425067
0.000687073
0.000735829
0.000509497
-6.36803e-06
-0.00314873
-0.00223116
-0.00146684
-0.000732201
-0.000154784
0.000211376
0.000348647
0.000254895
-0.000129372
-0.000845664
-0.00342922
-0.00227903
-0.00149243
-0.000786349
-0.000279116
-1.50171e-05
7.08581e-07
-0.000220886
-0.000703039
-0.0014714
-0.00377066
-0.00234567
-0.00152472
-0.000844944
-0.000414471
-0.000265154
-0.000384687
-0.000743593
-0.00131849
-0.00208879
-0.00412138
-0.00240961
-0.00155301
-0.000907962
-0.000572683
-0.000564662
-0.000849861
-0.00137758
-0.00208897
-0.00290624
-0.00442942
-0.00245305
-0.00157132
-0.000979118
-0.000765087
-0.000930328
-0.00141641
-0.00215047
-0.00304922
-0.00399792
-0.00464473
-0.00245735
-0.00157006
-0.00105225
-0.000982522
-0.00134307
-0.00204954
-0.00300717
-0.0041126
-0.00525066
-0.00472831
-0.00240449
-0.00153168
-0.00110252
-0.00118427
-0.00173754
-0.00265177
-0.00381183
-0.0051007
-0.00642641
-0.00466147
-0.0022802
-0.00142946
-0.00108511
-0.00130122
-0.00201491
-0.00309089
-0.00439756
-0.00581552
-0.00727301
-0.00434686
-0.00201457
-0.00119531
-0.000924215
-0.00124395
-0.00206916
-0.00324428
-0.00462841
-0.00610994
-0.00762028
-0.00375753
-0.00157526
-0.000784428
-0.000562359
-0.000944959
-0.0018273
-0.00303922
-0.00443796
-0.00592304
-0.00741565
-0.00287423
-0.000928233
-0.000155469
4.3764e-05
-0.000364995
-0.00126057
-0.00246333
-0.00383266
-0.00527598
-0.00670212
-0.00169016
-4.86267e-05
0.00071467
0.000909087
0.00049691
-0.000387135
-0.00155739
-0.00287473
-0.00424779
-0.00558248
-0.000220803
0.00106777
0.00182257
0.00201689
0.00160632
0.000738856
-0.0003951
-0.00165667
-0.0029481
-0.00418259
0.00149311
0.00240075
0.00313869
0.00332268
0.002906
0.00204507
0.00093604
-0.000279524
-0.00149417
-0.00263338
0.00338826
0.00390887
0.0046092
0.00476552
0.00432648
0.00345467
0.00235144
0.00116105
-9.80118e-07
-0.00106416
0.0053978
0.00551465
0.0061633
0.00627708
0.0058022
0.00490303
0.00378147
0.00257553
0.00140785
0.0003862
0.00741142
0.00715059
0.00772628
0.00778992
0.00728207
0.00636044
0.00521395
0.00394295
0.00264557
0.00164554
0.00933593
0.00873095
0.0092187
0.00923431
0.00871725
0.00782097
0.00673241
0.00555417
0.00440841
0.00384141
0.0110981
0.0101757
0.0105609
0.0105315
0.0100235
0.00917804
0.00817036
0.00709941
0.00609635
0.00559916
0.0125924
0.0114025
0.0116814
0.0116103
0.011119
0.0103303
0.00940183
0.00842738
0.00751804
0.00701109
0.0137459
0.0123515
0.0125273
0.0124187
0.0119476
0.0112166
0.0103672
0.00948962
0.00867383
0.00817739
0.0145147
0.0129846
0.013067
0.0129275
0.0124803
0.0118093
0.0110433
0.0102708
0.00956572
0.00911865
0.0148798
0.0132848
0.0132891
0.013128
0.0127101
0.0121039
0.0114285
0.010772
0.0101958
0.00983367
0.014846
0.0132548
0.0131994
0.0130276
0.0126453
0.0121098
0.0115332
0.0110032
0.0105719
0.0103254
0.014438
0.0129134
0.0128172
0.0126442
0.0123036
0.0118438
0.0113725
0.0109775
0.0107043
0.0106012
0.0136963
0.0122917
0.0121715
0.0120052
0.011708
0.0113259
0.0109636
0.0107088
0.0106034
0.0106689
0.0126722
0.0114287
0.0112974
0.0111409
0.010885
0.0105777
0.0103238
0.0102106
0.0102788
0.0105353
0.0114267
0.0103698
0.0102383
0.0100908
0.00986897
0.00962802
0.00947588
0.00950024
0.00974158
0.0102058
0.0100156
0.00915677
0.0090211
0.00887184
0.00867175
0.0084862
0.00842812
0.00858504
0.00899599
0.00967874
0.00849262
0.00783152
0.00768382
0.00751776
0.00732218
0.00717607
0.00719934
0.0074796
0.0080499
0.00894818
0.00691121
0.0064343
0.00626116
0.0060586
0.00584642
0.0057201
0.00580785
0.00619884
0.00691413
0.00800224
0.00532119
0.00500229
0.00478458
0.00452159
0.00426856
0.00413986
0.00427216
0.00475766
0.00560421
0.0068419
0.00376628
0.00357139
0.0032842
0.00293385
0.00261335
0.00245855
0.00261464
0.00317133
0.00411993
0.00551972
0.00229227
0.00217044
0.00178849
0.00132276
0.000909188
0.000704412
0.000861014
0.00146741
0.00248847
0.00398513
0.000936295
0.000830561
0.000328039
-0.000279276
-0.000811544
-0.0010912
-0.000958839
-0.000324845
0.000741389
0.00226094
-0.000267535
-0.000418843
-0.00106571
-0.00183689
-0.00250994
-0.00288791
-0.00280575
-0.00216576
-0.00106148
0.000436264
-0.00128884
-0.00154909
-0.00235873
-0.00330908
-0.00413884
-0.00463624
-0.00463679
-0.00403497
-0.00289232
-0.00138243
-0.00210338
-0.00253288
-0.00351493
-0.00464956
-0.00564184
-0.00626885
-0.0063688
-0.00582532
-0.00449978
-0.00251029
-0.00269399
-0.00334576
-0.00449794
-0.00580848
-0.00695632
-0.00771728
-0.00793518
-0.00752949
-0.00636356
-0.00438426
-0.00304586
-0.00396752
-0.00527439
-0.00673887
-0.00802255
-0.00890341
-0.00924075
-0.00896829
-0.00799086
-0.0060397
-0.00315933
-0.00438985
-0.005819
-0.00740009
-0.00878361
-0.0097537
-0.0101828
-0.0100003
-0.00913132
-0.00762214
-0.00307214
-0.00459348
-0.00611921
-0.00777061
-0.00920541
-0.0102194
-0.0106989
-0.0105793
-0.0098087
-0.00851765
-0.00280071
-0.00460567
-0.00618019
-0.00784736
-0.00927833
-0.0102855
-0.0107704
-0.0106833
-0.00999831
-0.00882769
-0.00239121
-0.00445329
-0.00602177
-0.00764587
-0.00901605
-0.00996467
-0.0104102
-0.010323
-0.00970391
-0.00861533
-0.00190334
-0.00417569
-0.00567812
-0.0071978
-0.00844989
-0.00928871
-0.00965013
-0.00952554
-0.00893927
-0.00789873
-0.00140397
-0.0038235
-0.00519496
-0.00654688
-0.00762332
-0.00830088
-0.00853148
-0.00832465
-0.007722
-0.00668257
-0.000954715
-0.00344994
-0.00462348
-0.00574366
-0.00658702
-0.00705114
-0.00710078
-0.00675777
-0.00607376
-0.00497159
-0.000598407
-0.00309908
-0.00401159
-0.00483823
-0.00539257
-0.00559125
-0.0054072
-0.00486736
-0.00402668
-0.00278635
-0.000444221
-0.0028535
-0.00343175
-0.00389902
-0.00410712
-0.00398714
-0.00351438
-0.00271355
-0.00163863
-0.00018206
-0.000534658
-0.00275661
-0.00293312
-0.00298036
-0.00278982
-0.00230256
-0.00149048
-0.00037003
0.00100694
0.00274419
-0.00089895
-0.00284205
-0.00255899
-0.0021339
-0.00150021
-0.000605096
0.000587757
0.00207461
0.00380477
0.00586673
-0.00155332
-0.00313373
-0.00234564
-0.00140694
-0.000295835
0.00103716
0.00263995
0.00452426
0.00663897
0.00904901
-0.00249336
-0.00363928
-0.00231713
-0.000837678
0.000772425
0.00256027
0.0045869
0.00687982
0.00938591
0.0121453
-0.00369205
-0.00434747
-0.00248232
-0.000451897
0.00166426
0.00390986
0.0063592
0.00905372
0.0119355
0.015023
-0.00510118
-0.00522843
-0.00283396
-0.000261306
0.00235224
0.00504332
0.00789775
0.0109653
0.0141754
0.0175382
-0.00665405
-0.00623515
-0.00334893
-0.000262951
0.00282364
0.00593408
0.00916482
0.0125737
0.0160634
0.019636
-0.00826879
-0.00730627
-0.00398977
-0.00043991
0.00308033
0.00657031
0.0101319
0.0138356
0.0175383
0.0211562
-0.0098625
-0.00837395
-0.00470895
-0.000764818
0.00313659
0.00695804
0.0107974
0.0147574
0.0187276
0.0224404
-0.0113903
-0.00937787
-0.00545914
-0.00120109
0.00301709
0.00711366
0.0111676
0.0152945
0.0194741
0.023432
-0.012729
-0.0102171
-0.00618883
-0.00170149
0.00275482
0.00706349
0.0112801
0.0155104
0.0197838
0.0239761
-0.0138013
-0.0108539
-0.00680915
-0.00221667
0.00238734
0.00683874
0.0111657
0.0154552
0.0197517
0.0239613
-0.0145562
-0.0112438
-0.00728029
-0.00269981
0.00195413
0.00647199
0.0108497
0.0151468
0.0194088
0.0235612
-0.0149653
-0.011361
-0.00757257
-0.00311411
0.00149162
0.0059962
0.0103619
0.0146222
0.0188149
0.0228771
-0.0150241
-0.0112103
-0.00766504
-0.00342748
0.00103251
0.00544366
0.0097365
0.01392
0.0180273
0.0220093
-0.014751
-0.0108207
-0.00755484
-0.00361754
0.000605031
0.00484346
0.00900381
0.013069
0.0170635
0.020952
-0.0141835
-0.0102386
-0.00726064
-0.00367567
0.000231446
0.00422036
0.00818509
0.0120825
0.0159187
0.0196719
-0.0133623
-0.00951151
-0.00681552
-0.00360807
-7.52226e-05
0.00359399
0.00729777
0.0109742
0.0146074
0.0181855
)
;

boundaryField
{
    inlet
    {
        type            zeroGradient;
    }
    outlet
    {
        type            fixedValue;
        value           uniform 0;
    }
    cylinder
    {
        type            zeroGradient;
    }
    top
    {
        type            symmetryPlane;
    }
    bottom
    {
        type            symmetryPlane;
    }
    defaultFaces
    {
        type            empty;
    }
}


// ************************************************************************* //
