/*--------------------------------*- C++ -*----------------------------------*\
  =========                 |
  \\      /  F ield         | OpenFOAM: The Open Source CFD Toolbox
   \\    /   O peration     | Website:  https://openfoam.org
    \\  /    A nd           | Version:  7
     \\/     M anipulation  |
\*---------------------------------------------------------------------------*/
FoamFile
{
    version     2.0;
    format      ascii;
    class       volScalarField;
    location    "5.2";
    object      p;
}
// * * * * * * * * * * * * * * * * * * * * * * * * * * * * * * * * * * * * * //

dimensions      [0 2 -2 0 0 0 0];

internalField   nonuniform List<scalar> 
32000
(
0.54212
0.541734
0.541592
0.541454
0.541413
0.541499
0.541719
0.542062
0.542519
0.5431
0.543833
0.54474
0.545815
0.547037
0.548388
0.549857
0.551446
0.553158
0.554994
0.556946
0.559001
0.561143
0.563357
0.565631
0.567956
0.57032
0.572709
0.575107
0.577499
0.579871
0.582213
0.584514
0.586769
0.58897
0.59111
0.593183
0.59519
0.597137
0.599013
0.600714
0.542037
0.541612
0.54145
0.541295
0.541249
0.541337
0.541562
0.541907
0.542358
0.54293
0.543652
0.544543
0.545598
0.546795
0.548113
0.549543
0.551084
0.55274
0.554512
0.556394
0.558373
0.560432
0.562557
0.564736
0.56696
0.569218
0.571499
0.573787
0.576069
0.578332
0.580563
0.582755
0.584901
0.586993
0.589026
0.590994
0.592898
0.594744
0.596519
0.598137
0.541934
0.541476
0.541296
0.541126
0.541077
0.54117
0.541401
0.541748
0.542196
0.542763
0.543476
0.544353
0.545387
0.546557
0.547842
0.549232
0.550726
0.552327
0.554037
0.555847
0.557746
0.55972
0.561753
0.563836
0.565957
0.568106
0.570274
0.572449
0.574616
0.576763
0.57888
0.580958
0.582991
0.58497
0.586891
0.58875
0.590547
0.592289
0.593961
0.595491
0.541803
0.541313
0.541117
0.540938
0.540891
0.540992
0.54123
0.541582
0.542032
0.542598
0.543305
0.544169
0.545182
0.546323
0.547574
0.548924
0.550372
0.551919
0.553564
0.555301
0.557119
0.559005
0.560945
0.562928
0.564942
0.56698
0.569032
0.571088
0.573137
0.575165
0.577163
0.579123
0.581037
0.582899
0.584704
0.586451
0.588137
0.589771
0.591336
0.592774
0.541653
0.541139
0.540933
0.540747
0.540704
0.540814
0.541059
0.541415
0.54187
0.542437
0.543139
0.54399
0.54498
0.546092
0.547308
0.548619
0.55002
0.551512
0.553092
0.554754
0.55649
0.558286
0.56013
0.56201
0.563914
0.565836
0.567769
0.569705
0.571631
0.573537
0.575412
0.577248
0.579039
0.58078
0.582466
0.584096
0.585668
0.587191
0.588646
0.589988
0.541476
0.540941
0.540727
0.540541
0.540504
0.540624
0.540877
0.541241
0.541703
0.542273
0.542971
0.543809
0.544778
0.54586
0.547042
0.548314
0.549668
0.551104
0.552618
0.554205
0.555857
0.557563
0.559307
0.561079
0.56287
0.564674
0.566486
0.568298
0.570099
0.571878
0.573625
0.575334
0.576998
0.578614
0.580178
0.581687
0.583142
0.584549
0.585892
0.587133
0.541272
0.540723
0.540508
0.540326
0.540297
0.540427
0.54069
0.541063
0.541534
0.542108
0.542804
0.543629
0.544577
0.545631
0.546779
0.54801
0.549316
0.550694
0.552142
0.553654
0.555222
0.556833
0.558474
0.560135
0.56181
0.563494
0.565182
0.566867
0.568539
0.570188
0.571804
0.573381
0.574915
0.576402
0.57784
0.579226
0.58056
0.581849
0.583077
0.584211
0.541041
0.540485
0.540272
0.540099
0.54008
0.540221
0.540496
0.54088
0.54136
0.541941
0.542635
0.543449
0.544376
0.545402
0.546516
0.547705
0.548962
0.550282
0.551663
0.5531
0.554581
0.556096
0.557631
0.559178
0.560735
0.562296
0.563858
0.565414
0.566953
0.568467
0.569948
0.57139
0.57279
0.574146
0.575456
0.576715
0.577926
0.579094
0.580205
0.581228
0.540782
0.540224
0.540018
0.539858
0.539851
0.540004
0.540293
0.540689
0.54118
0.541768
0.542461
0.543265
0.544173
0.545172
0.546251
0.547398
0.548605
0.549867
0.551182
0.552541
0.553935
0.555349
0.556776
0.558208
0.559644
0.561082
0.562516
0.563939
0.565342
0.566717
0.568059
0.569363
0.570627
0.57185
0.573028
0.574159
0.575243
0.576288
0.57728
0.578188
0.540492
0.539941
0.539745
0.5396
0.539609
0.539777
0.540079
0.540489
0.540992
0.541586
0.542281
0.543077
0.543967
0.544939
0.545982
0.547086
0.548243
0.549447
0.550695
0.551978
0.553281
0.554593
0.555909
0.557226
0.55854
0.559852
0.561155
0.562442
0.563707
0.564941
0.566141
0.567304
0.56843
0.569517
0.570561
0.571561
0.572517
0.573437
0.574309
0.575099
0.540171
0.539631
0.539449
0.539324
0.539352
0.539537
0.539855
0.540279
0.540793
0.541396
0.542092
0.542882
0.543756
0.544702
0.545709
0.546769
0.547875
0.549023
0.550204
0.551407
0.552618
0.553828
0.555033
0.556232
0.557424
0.558608
0.559778
0.560927
0.56205
0.56314
0.564196
0.565217
0.566202
0.567151
0.568061
0.568928
0.569754
0.570548
0.571301
0.571969
0.539817
0.539296
0.539131
0.539029
0.53908
0.539285
0.539619
0.540056
0.540582
0.541195
0.541895
0.54268
0.543538
0.544457
0.545429
0.546446
0.547502
0.548593
0.549707
0.55083
0.551947
0.553054
0.554148
0.555229
0.556298
0.557352
0.558387
0.559397
0.560375
0.56132
0.56223
0.563106
0.56395
0.564759
0.565532
0.566266
0.566961
0.56763
0.568264
0.568809
0.539431
0.538933
0.538788
0.538713
0.538791
0.539017
0.539368
0.539819
0.540358
0.540982
0.541687
0.542468
0.543312
0.544206
0.545142
0.546116
0.547124
0.548158
0.549204
0.550245
0.551269
0.552273
0.553256
0.554219
0.555164
0.556087
0.556985
0.557853
0.558686
0.559483
0.560246
0.560977
0.561678
0.562347
0.562982
0.563583
0.564148
0.564691
0.565211
0.565632
0.539013
0.538541
0.538419
0.538376
0.538483
0.538733
0.539101
0.539567
0.54012
0.540756
0.541468
0.542246
0.543076
0.543945
0.544848
0.54578
0.54674
0.547717
0.548694
0.549653
0.550584
0.551485
0.552358
0.553204
0.554024
0.554816
0.555577
0.556301
0.556987
0.557636
0.558252
0.558838
0.559395
0.559923
0.560421
0.560888
0.561324
0.561745
0.562152
0.56245
0.538563
0.538123
0.538026
0.538017
0.538156
0.53843
0.538817
0.539299
0.539868
0.540517
0.541236
0.542013
0.54283
0.543676
0.544546
0.545439
0.54635
0.547269
0.548176
0.549054
0.549893
0.550693
0.551457
0.552187
0.552882
0.553543
0.554165
0.554746
0.555285
0.555787
0.556255
0.556695
0.557109
0.557497
0.557858
0.558193
0.558502
0.558801
0.559101
0.559278
0.538083
0.537677
0.537609
0.537636
0.537808
0.538108
0.538514
0.539014
0.539599
0.540262
0.54099
0.541765
0.542571
0.543396
0.544236
0.54509
0.545954
0.546814
0.547651
0.548448
0.549197
0.549898
0.550555
0.551169
0.551741
0.552271
0.552755
0.553192
0.553586
0.553942
0.554264
0.55456
0.554831
0.555079
0.555305
0.55551
0.555693
0.555875
0.556071
0.556131
0.537574
0.537205
0.537168
0.537233
0.537439
0.537765
0.538193
0.538711
0.539314
0.539991
0.540727
0.541503
0.5423
0.543106
0.543919
0.544736
0.545552
0.546353
0.54712
0.547837
0.548498
0.549102
0.549654
0.550154
0.550605
0.551004
0.551352
0.551649
0.551899
0.55211
0.552289
0.552441
0.552571
0.552681
0.552774
0.552851
0.552913
0.55298
0.553079
0.553026
0.537037
0.536709
0.536703
0.536807
0.537047
0.537402
0.537852
0.538391
0.539011
0.539703
0.540448
0.541225
0.542015
0.542806
0.543593
0.544375
0.545144
0.545886
0.546583
0.547222
0.547797
0.548308
0.548757
0.549147
0.549477
0.549749
0.549963
0.550122
0.550232
0.550302
0.550339
0.55035
0.550341
0.550316
0.550278
0.55023
0.550174
0.550131
0.550138
0.54998
0.536474
0.536188
0.536214
0.536358
0.536633
0.537017
0.537492
0.538052
0.538691
0.539398
0.540151
0.540931
0.541716
0.542495
0.543259
0.544007
0.544729
0.545413
0.546042
0.546606
0.547097
0.547517
0.547867
0.548149
0.548363
0.54851
0.548593
0.548618
0.548593
0.548525
0.548424
0.548298
0.548154
0.547996
0.547831
0.547662
0.547492
0.547343
0.547264
0.547007
0.535887
0.535645
0.535703
0.535886
0.536196
0.53661
0.537112
0.537695
0.538354
0.539075
0.539838
0.540621
0.541404
0.542172
0.542916
0.543631
0.544308
0.544935
0.545499
0.545989
0.546401
0.546734
0.546988
0.547164
0.547264
0.547291
0.547249
0.547146
0.546989
0.546788
0.546554
0.546295
0.546019
0.545734
0.545446
0.545161
0.544881
0.544631
0.544472
0.544124
0.535278
0.53508
0.53517
0.53539
0.535737
0.536183
0.536712
0.53732
0.537999
0.538736
0.539509
0.540297
0.541079
0.541839
0.542564
0.543249
0.543882
0.544454
0.544954
0.545374
0.545709
0.545958
0.546121
0.546196
0.546187
0.546098
0.545936
0.545709
0.545426
0.545098
0.544736
0.54435
0.543949
0.543541
0.543135
0.542739
0.542355
0.542009
0.541774
0.541343
0.534649
0.534495
0.534615
0.534873
0.535255
0.535733
0.536293
0.536927
0.537627
0.538379
0.539163
0.539958
0.540741
0.541494
0.542203
0.542858
0.54345
0.54397
0.544409
0.544761
0.545024
0.545193
0.545267
0.545246
0.545132
0.544934
0.544658
0.544314
0.543911
0.543462
0.542979
0.542472
0.541952
0.541427
0.54091
0.540408
0.539925
0.539488
0.539183
0.538678
0.534002
0.53389
0.534039
0.534332
0.53475
0.535263
0.535854
0.536515
0.537238
0.538007
0.538803
0.539605
0.54039
0.541137
0.541831
0.54246
0.543013
0.543482
0.543863
0.544152
0.544345
0.544438
0.544428
0.544316
0.544104
0.543802
0.543418
0.542963
0.542448
0.541885
0.541288
0.540668
0.540035
0.539402
0.538779
0.538178
0.537602
0.537079
0.536708
0.536136
0.533337
0.533265
0.533442
0.53377
0.534223
0.53477
0.535394
0.536085
0.536831
0.537618
0.538427
0.539237
0.540025
0.540768
0.541449
0.542052
0.542569
0.542991
0.543317
0.543546
0.543673
0.543694
0.543606
0.543407
0.543103
0.542703
0.542218
0.541659
0.541038
0.54037
0.539667
0.538941
0.538205
0.53747
0.53675
0.536057
0.535394
0.53479
0.534356
0.533726
0.532655
0.53262
0.532823
0.533185
0.533673
0.534255
0.534913
0.535635
0.536406
0.537212
0.538036
0.538855
0.539647
0.540386
0.541055
0.541635
0.542117
0.542496
0.54277
0.542942
0.543007
0.542961
0.542799
0.542519
0.542129
0.541638
0.541059
0.540403
0.539684
0.538917
0.538117
0.537295
0.536463
0.535635
0.534825
0.534047
0.533305
0.532626
0.532132
0.531451
0.531954
0.531953
0.532182
0.532577
0.5331
0.533718
0.534412
0.535165
0.535963
0.53679
0.537628
0.538457
0.539253
0.539991
0.540648
0.541208
0.541658
0.541995
0.542221
0.542339
0.542347
0.542238
0.542006
0.541651
0.54118
0.540605
0.539938
0.539193
0.538384
0.537527
0.536637
0.535727
0.534808
0.533895
0.533004
0.532149
0.531335
0.530587
0.530037
0.529311
0.531236
0.531266
0.53152
0.531946
0.532504
0.533158
0.533888
0.534675
0.535501
0.53635
0.537203
0.538043
0.538843
0.53958
0.540228
0.540768
0.541188
0.541487
0.541669
0.541737
0.54169
0.541521
0.541224
0.540799
0.540254
0.539601
0.538853
0.538025
0.537133
0.536194
0.535223
0.534232
0.533235
0.532246
0.531282
0.53036
0.529481
0.528671
0.52807
0.527306
0.5305
0.530558
0.530835
0.531293
0.531885
0.532576
0.533343
0.534165
0.53502
0.535891
0.536761
0.537611
0.538417
0.539153
0.539792
0.540315
0.540707
0.54097
0.54111
0.541131
0.541033
0.540808
0.540449
0.539959
0.539344
0.538619
0.537796
0.536892
0.535925
0.534911
0.533866
0.532804
0.531737
0.53068
0.529653
0.528671
0.527738
0.526873
0.526225
0.52543
0.529746
0.529828
0.530128
0.530615
0.531242
0.531971
0.532775
0.533632
0.534518
0.535412
0.536299
0.53716
0.537972
0.538708
0.53934
0.539845
0.540212
0.540441
0.540541
0.540519
0.540371
0.540092
0.539676
0.539124
0.538445
0.537652
0.53676
0.535787
0.534751
0.533669
0.532558
0.531431
0.530302
0.529188
0.528106
0.527074
0.526094
0.525183
0.524496
0.523677
0.528974
0.529076
0.529398
0.529915
0.530576
0.531342
0.532184
0.533077
0.533994
0.534913
0.535818
0.53669
0.537508
0.538243
0.538867
0.539355
0.539698
0.539896
0.539959
0.539894
0.539699
0.539369
0.538897
0.538287
0.537547
0.536692
0.535736
0.534699
0.5336
0.532456
0.531285
0.530101
0.528918
0.527754
0.526628
0.525555
0.524538
0.523592
0.522872
0.52204
0.528181
0.528301
0.528644
0.529191
0.529887
0.53069
0.531569
0.532498
0.533446
0.53439
0.535313
0.536197
0.53702
0.537754
0.538369
0.538842
0.53916
0.539328
0.539356
0.53925
0.53901
0.538629
0.538104
0.537439
0.536642
0.535728
0.534713
0.533617
0.53246
0.53126
0.530035
0.5288
0.527571
0.526365
0.525203
0.524099
0.523055
0.522085
0.521344
0.520509
0.527366
0.527501
0.527866
0.528443
0.529174
0.530014
0.53093
0.531894
0.532874
0.533842
0.534783
0.535678
0.536506
0.537238
0.537844
0.538299
0.538595
0.538733
0.538727
0.538581
0.538296
0.537866
0.537289
0.53657
0.535718
0.534748
0.533679
0.532528
0.531317
0.530066
0.528792
0.527513
0.526244
0.525004
0.523813
0.522687
0.521628
0.520646
0.519897
0.519077
0.526526
0.526674
0.527062
0.52767
0.528436
0.529313
0.530265
0.531263
0.532273
0.533265
0.534223
0.535129
0.535961
0.53669
0.537285
0.537723
0.537994
0.538104
0.538063
0.537878
0.537548
0.53707
0.536441
0.53567
0.534765
0.533742
0.53262
0.531419
0.530158
0.528859
0.527541
0.526221
0.524919
0.523652
0.52244
0.521301
0.520237
0.519258
0.518517
0.51773
0.525659
0.525819
0.52623
0.526869
0.527671
0.528584
0.529573
0.530604
0.531641
0.532656
0.533631
0.534547
0.535381
0.536105
0.536687
0.537106
0.537353
0.537434
0.537358
0.537133
0.536758
0.536231
0.535552
0.534728
0.533771
0.532698
0.531526
0.530275
0.528968
0.527625
0.526265
0.52491
0.523577
0.522288
0.521063
0.519919
0.518862
0.517899
0.517184
0.516456
0.524762
0.524933
0.525368
0.52604
0.526877
0.527827
0.528851
0.529912
0.530975
0.532012
0.533002
0.533926
0.534761
0.535478
0.536046
0.536444
0.536664
0.536714
0.536604
0.536338
0.535918
0.535341
0.534611
0.533735
0.532727
0.531603
0.530382
0.529085
0.527732
0.526347
0.52495
0.523561
0.522202
0.520894
0.519659
0.518517
0.517475
0.516544
0.515876
0.515238
0.523831
0.524013
0.524473
0.525178
0.526052
0.527039
0.528096
0.529186
0.530273
0.53133
0.532333
0.533264
0.534097
0.534804
0.535355
0.535729
0.535922
0.535939
0.535792
0.535484
0.535017
0.53439
0.533608
0.53268
0.53162
0.530446
0.529177
0.527834
0.526439
0.525013
0.523579
0.522158
0.520773
0.519447
0.518204
0.517066
0.516047
0.515159
0.514558
0.514047
0.522862
0.523058
0.523543
0.524283
0.525194
0.526217
0.527306
0.528423
0.529532
0.530606
0.531621
0.532555
0.533384
0.534078
0.534608
0.534957
0.535119
0.535102
0.534915
0.534563
0.534048
0.53337
0.532535
0.531554
0.530443
0.529219
0.527902
0.526514
0.525077
0.523611
0.52214
0.520686
0.519273
0.517926
0.516671
0.515535
0.514538
0.5137
0.513183
0.512839
0.521853
0.522063
0.522575
0.523351
0.524301
0.525359
0.526478
0.52762
0.528749
0.529838
0.530861
0.531795
0.532616
0.533294
0.533801
0.53412
0.534249
0.534195
0.533966
0.533568
0.533003
0.532272
0.531383
0.530348
0.529185
0.527912
0.526548
0.525116
0.523636
0.522131
0.520623
0.519134
0.517688
0.516312
0.515034
0.513888
0.512903
0.512115
0.511702
0.511584
0.520799
0.521026
0.521568
0.522382
0.523371
0.524463
0.52561
0.526774
0.527921
0.529022
0.53005
0.530982
0.531791
0.532449
0.532929
0.533215
0.533307
0.533212
0.532939
0.532492
0.531874
0.531088
0.530145
0.529057
0.527842
0.526519
0.52511
0.523634
0.522113
0.520567
0.51902
0.517492
0.516007
0.514588
0.513266
0.512076
0.511062
0.510291
0.510018
0.510274
0.519702
0.519948
0.520522
0.521376
0.522402
0.523527
0.524699
0.525883
0.527045
0.528154
0.529184
0.530109
0.530903
0.531537
0.531985
0.532235
0.532286
0.532148
0.531827
0.531329
0.530656
0.529815
0.528817
0.527676
0.52641
0.525039
0.523584
0.522066
0.520504
0.518919
0.517331
0.515761
0.514227
0.51275
0.511351
0.510058
0.508902
0.507957
0.507517
0.507861
0.606086
0.614411
0.619728
0.625062
0.628718
0.632093
0.634722
0.637003
0.638867
0.640436
0.641748
0.642864
0.643791
0.644548
0.645168
0.645658
0.646031
0.646275
0.646421
0.646456
0.646397
0.646245
0.64601
0.645685
0.645274
0.644774
0.644166
0.643463
0.642657
0.641737
0.640714
0.639565
0.638307
0.636931
0.635437
0.633837
0.632154
0.630394
0.628743
0.627016
0.603404
0.611785
0.617259
0.62278
0.62659
0.630109
0.632842
0.635195
0.637109
0.638732
0.640086
0.641219
0.642162
0.642953
0.6436
0.644098
0.644488
0.644764
0.644932
0.644987
0.644943
0.644806
0.644587
0.644292
0.64389
0.643397
0.642807
0.642114
0.641318
0.640413
0.639394
0.638262
0.637012
0.635642
0.634157
0.632566
0.630894
0.629139
0.627503
0.625792
0.600623
0.609093
0.614726
0.620459
0.624435
0.628109
0.63095
0.63338
0.635351
0.637026
0.638422
0.639574
0.640534
0.641358
0.642029
0.642538
0.642944
0.643248
0.643438
0.643514
0.643485
0.643366
0.643164
0.642894
0.642505
0.64202
0.641448
0.640767
0.639982
0.639093
0.63808
0.636965
0.635725
0.634362
0.63289
0.631311
0.629654
0.627906
0.626285
0.62459
0.597741
0.606334
0.612124
0.618096
0.622257
0.626091
0.629048
0.631563
0.633597
0.635316
0.636748
0.637928
0.638912
0.639758
0.640449
0.64098
0.641404
0.641729
0.641937
0.642034
0.642026
0.641927
0.641742
0.641487
0.641118
0.640646
0.64009
0.639423
0.638651
0.637775
0.636773
0.635671
0.634444
0.633095
0.631636
0.630071
0.62843
0.626696
0.625089
0.623406
0.594754
0.603506
0.609455
0.61569
0.620052
0.624055
0.627135
0.629743
0.631843
0.633604
0.635069
0.636282
0.637294
0.638155
0.638864
0.639422
0.639864
0.640205
0.640431
0.64055
0.640565
0.640488
0.640322
0.640076
0.639729
0.639276
0.638733
0.638083
0.637324
0.636461
0.635475
0.634384
0.63317
0.63184
0.630395
0.628846
0.627222
0.625505
0.623912
0.62224
0.591658
0.600609
0.606722
0.613241
0.617818
0.622002
0.625212
0.627917
0.630087
0.631892
0.63339
0.634634
0.635673
0.636552
0.637278
0.637861
0.638321
0.638679
0.638924
0.639066
0.639102
0.639046
0.6389
0.638667
0.638341
0.637906
0.637379
0.636746
0.636002
0.635152
0.634184
0.633106
0.631907
0.630597
0.629168
0.627637
0.62603
0.62433
0.62275
0.621089
0.588452
0.597642
0.603922
0.610748
0.615554
0.619932
0.623281
0.626086
0.628328
0.630179
0.631712
0.632986
0.634051
0.634949
0.635693
0.636297
0.636776
0.637153
0.637416
0.63758
0.637638
0.637603
0.637478
0.637259
0.636953
0.636538
0.636026
0.635411
0.634684
0.63385
0.632899
0.631838
0.630656
0.629365
0.627956
0.626442
0.624853
0.623171
0.621605
0.619954
0.585137
0.594605
0.601057
0.608212
0.61326
0.617845
0.62134
0.62425
0.626566
0.628466
0.630035
0.631339
0.632428
0.633346
0.634108
0.634733
0.635229
0.635626
0.63591
0.636094
0.636174
0.636158
0.636055
0.635853
0.635566
0.635171
0.634676
0.634079
0.63337
0.632553
0.631621
0.63058
0.629415
0.628145
0.626757
0.625262
0.623692
0.622026
0.620475
0.618835
0.581717
0.591501
0.598127
0.605631
0.610936
0.615739
0.61939
0.62241
0.624803
0.626753
0.628358
0.629691
0.630805
0.631743
0.632523
0.633168
0.633683
0.6341
0.634404
0.634607
0.63471
0.634713
0.634631
0.634448
0.63418
0.633805
0.633328
0.63275
0.632061
0.631263
0.630351
0.62933
0.628187
0.626937
0.625571
0.624097
0.622546
0.620897
0.619359
0.617731
0.578196
0.588332
0.595133
0.603006
0.608581
0.613615
0.617429
0.620566
0.623037
0.62504
0.626682
0.628044
0.629182
0.630141
0.630939
0.631604
0.632138
0.632574
0.632899
0.633121
0.633245
0.633267
0.633208
0.633044
0.632794
0.632441
0.631982
0.631425
0.630756
0.629978
0.629088
0.628089
0.626969
0.625742
0.624399
0.622946
0.621413
0.619784
0.618259
0.616642
0.574583
0.585103
0.592079
0.600337
0.606196
0.611473
0.615459
0.618716
0.62127
0.623326
0.625005
0.626398
0.627559
0.628539
0.629354
0.630039
0.630593
0.631048
0.631395
0.631636
0.631782
0.631823
0.631785
0.631642
0.631409
0.631079
0.630639
0.630102
0.629455
0.6287
0.627834
0.626858
0.625763
0.624558
0.62324
0.62181
0.620296
0.618686
0.617175
0.615569
0.570887
0.581819
0.588969
0.597626
0.603781
0.609311
0.613478
0.616861
0.6195
0.621612
0.623329
0.624751
0.625936
0.626936
0.62777
0.628474
0.629048
0.629523
0.629892
0.630152
0.63032
0.63038
0.630362
0.630241
0.630026
0.629718
0.629299
0.628784
0.628161
0.627429
0.626587
0.625636
0.624567
0.623386
0.622093
0.620687
0.619192
0.617603
0.616106
0.61451
0.567121
0.578489
0.585808
0.594875
0.601337
0.607131
0.611487
0.615
0.617727
0.619896
0.621653
0.623105
0.624314
0.625334
0.626185
0.62691
0.627505
0.628
0.62839
0.62867
0.628858
0.628939
0.628941
0.628841
0.628644
0.628359
0.627963
0.627469
0.626871
0.626164
0.625347
0.624421
0.623382
0.622226
0.620957
0.619578
0.618104
0.616536
0.615053
0.613466
0.563299
0.575121
0.582603
0.592085
0.598865
0.604931
0.609485
0.613133
0.615952
0.618181
0.619978
0.621459
0.622692
0.623731
0.624602
0.625346
0.625962
0.626477
0.626888
0.627188
0.627397
0.6275
0.62752
0.627443
0.627265
0.627002
0.626629
0.626158
0.625586
0.624905
0.624113
0.623215
0.622205
0.621075
0.619833
0.618482
0.61703
0.615483
0.614016
0.612437
0.559439
0.571727
0.579363
0.589261
0.596368
0.602713
0.607472
0.611261
0.614174
0.616464
0.618304
0.619815
0.621071
0.62213
0.62302
0.623784
0.624421
0.624956
0.625388
0.625708
0.625938
0.626061
0.626101
0.626046
0.625887
0.625647
0.625299
0.624851
0.624305
0.623651
0.622887
0.622016
0.621037
0.619935
0.61872
0.617398
0.615971
0.614445
0.612994
0.611424
0.555561
0.568318
0.576097
0.586407
0.593847
0.600477
0.605448
0.609382
0.612393
0.614748
0.616632
0.618172
0.619453
0.620531
0.621441
0.622224
0.622882
0.623436
0.623888
0.624229
0.624479
0.624625
0.624683
0.62465
0.624512
0.624293
0.623972
0.623548
0.623027
0.622402
0.621667
0.620824
0.619875
0.618804
0.617618
0.616326
0.614925
0.613422
0.611989
0.610426
0.551685
0.564909
0.572817
0.583529
0.591306
0.598225
0.603414
0.607497
0.61061
0.613032
0.614961
0.616531
0.617837
0.618935
0.619864
0.620667
0.621344
0.621918
0.62239
0.622752
0.623022
0.62319
0.623266
0.623255
0.623139
0.622941
0.622646
0.622248
0.621752
0.621157
0.620452
0.619637
0.61872
0.617681
0.616526
0.615266
0.613894
0.612413
0.611
0.609444
0.547836
0.561514
0.569533
0.580632
0.588747
0.595957
0.60137
0.605607
0.608825
0.611317
0.613292
0.614893
0.616223
0.617341
0.61829
0.619112
0.619809
0.620402
0.620893
0.621277
0.621565
0.621756
0.62185
0.62186
0.621769
0.621592
0.621323
0.620951
0.620481
0.619915
0.619242
0.618456
0.617572
0.616566
0.615444
0.614216
0.612875
0.611418
0.610026
0.608477
0.544037
0.558148
0.56626
0.577723
0.586175
0.593675
0.599316
0.60371
0.607037
0.609602
0.611625
0.613258
0.614613
0.615751
0.616719
0.61756
0.618275
0.618888
0.619398
0.619803
0.62011
0.620323
0.620437
0.620466
0.6204
0.620244
0.620001
0.619657
0.619213
0.618677
0.618035
0.61728
0.616429
0.615458
0.614371
0.613177
0.611869
0.610438
0.609066
0.607525
0.540312
0.554827
0.563012
0.57481
0.583593
0.591382
0.597253
0.601808
0.605247
0.607887
0.609959
0.611625
0.613005
0.614163
0.61515
0.61601
0.616743
0.617376
0.617905
0.618331
0.618656
0.618891
0.619025
0.619074
0.619034
0.618899
0.61868
0.618366
0.617949
0.617442
0.616833
0.616109
0.615291
0.614356
0.613306
0.612147
0.610875
0.609471
0.608122
0.606589
0.536686
0.551567
0.559801
0.5719
0.581007
0.589078
0.595182
0.599901
0.603455
0.606172
0.608296
0.609996
0.6114
0.612579
0.613584
0.614463
0.615215
0.615866
0.616415
0.61686
0.617204
0.61746
0.617615
0.617683
0.617668
0.617556
0.617362
0.617076
0.616686
0.616209
0.615632
0.61494
0.614158
0.61326
0.612249
0.611127
0.609893
0.608517
0.607192
0.605667
0.533182
0.548383
0.556643
0.569002
0.57842
0.586767
0.593105
0.597989
0.601661
0.604458
0.606634
0.60837
0.6098
0.610999
0.612022
0.612919
0.61369
0.61436
0.614927
0.615392
0.615755
0.61603
0.616207
0.616293
0.616303
0.616214
0.616045
0.615787
0.615426
0.614978
0.614434
0.613775
0.613028
0.61217
0.611199
0.610116
0.608921
0.607578
0.606278
0.604763
0.529823
0.545289
0.553551
0.566125
0.575839
0.584452
0.591021
0.596073
0.599864
0.602746
0.604976
0.606748
0.608205
0.609424
0.610466
0.61138
0.61217
0.612857
0.613442
0.613926
0.614309
0.614602
0.614801
0.614905
0.614939
0.614874
0.61473
0.6145
0.614166
0.613748
0.613237
0.612612
0.611902
0.611084
0.610156
0.609114
0.607962
0.606653
0.60538
0.603875
0.526628
0.542297
0.550538
0.563277
0.573269
0.582137
0.588933
0.594153
0.598066
0.601034
0.603321
0.605132
0.606616
0.607855
0.608915
0.609846
0.610654
0.611358
0.61196
0.612462
0.612865
0.613176
0.613397
0.613519
0.613576
0.613534
0.613415
0.613213
0.612908
0.612518
0.612041
0.611451
0.610778
0.610003
0.609119
0.608121
0.607013
0.605742
0.604499
0.603006
0.523613
0.53942
0.547616
0.560468
0.570715
0.579824
0.586842
0.592231
0.596266
0.599325
0.601669
0.60352
0.605032
0.606291
0.607371
0.608319
0.609144
0.609864
0.610482
0.611002
0.611424
0.611752
0.611994
0.612134
0.612214
0.612196
0.6121
0.611926
0.611649
0.611289
0.610845
0.610292
0.609657
0.608926
0.608088
0.607136
0.606076
0.604848
0.603636
0.602157
0.520792
0.536667
0.544795
0.557707
0.568184
0.577517
0.584751
0.590306
0.594466
0.597617
0.600022
0.601914
0.603454
0.604735
0.605833
0.606797
0.607639
0.608374
0.609008
0.609544
0.609986
0.610331
0.610592
0.610751
0.610852
0.610858
0.610786
0.610639
0.610391
0.610061
0.609649
0.609134
0.608539
0.607852
0.607063
0.60616
0.60515
0.603968
0.602793
0.601329
0.518171
0.534043
0.542085
0.555002
0.565681
0.57522
0.58266
0.588381
0.592667
0.595911
0.59838
0.600314
0.601883
0.603185
0.604303
0.605282
0.60614
0.606889
0.607538
0.608091
0.60855
0.608912
0.609191
0.60937
0.609491
0.609522
0.609471
0.609352
0.609131
0.608832
0.608452
0.607977
0.607421
0.60678
0.606042
0.605191
0.604235
0.603104
0.601969
0.600523
0.515757
0.531555
0.539492
0.55236
0.563213
0.572936
0.580574
0.586456
0.59087
0.59421
0.596743
0.59872
0.600319
0.601644
0.60278
0.603775
0.604646
0.605409
0.606073
0.606641
0.607117
0.607495
0.607793
0.607992
0.608131
0.608185
0.608157
0.608064
0.607871
0.607602
0.607254
0.606818
0.606305
0.60571
0.605023
0.604228
0.603329
0.602256
0.601168
0.599742
0.51355
0.529204
0.537022
0.54979
0.560785
0.57067
0.578493
0.584535
0.589076
0.592512
0.595112
0.597134
0.598764
0.600111
0.601266
0.602274
0.603159
0.603935
0.604613
0.605195
0.605686
0.606081
0.606396
0.606614
0.606772
0.606849
0.606843
0.606775
0.60661
0.606371
0.606056
0.605659
0.605187
0.604641
0.604007
0.603269
0.602433
0.601424
0.600389
0.598987
0.51155
0.526991
0.534679
0.547297
0.558401
0.568424
0.576419
0.582616
0.587285
0.59082
0.593489
0.595557
0.597219
0.598588
0.59976
0.600782
0.601679
0.602468
0.603158
0.603754
0.604259
0.604669
0.605001
0.605239
0.605413
0.605513
0.605528
0.605484
0.605347
0.605138
0.604855
0.604498
0.604069
0.60357
0.60299
0.602313
0.601545
0.600607
0.599634
0.598261
0.509756
0.524913
0.532465
0.544889
0.556065
0.566203
0.574356
0.580703
0.5855
0.589133
0.591873
0.593989
0.595683
0.597075
0.598263
0.599298
0.600206
0.601007
0.601708
0.602317
0.602835
0.603261
0.603607
0.603865
0.604055
0.604177
0.604213
0.604192
0.604082
0.603902
0.603653
0.603334
0.602947
0.602498
0.601973
0.60136
0.600665
0.599805
0.598904
0.597568
0.508166
0.522968
0.530378
0.542568
0.553782
0.564008
0.572305
0.578797
0.58372
0.587453
0.590265
0.592431
0.594159
0.595573
0.596776
0.597823
0.59874
0.599552
0.600264
0.600884
0.601415
0.601855
0.602215
0.602491
0.602698
0.602839
0.602897
0.602897
0.602814
0.602664
0.602447
0.602167
0.601823
0.601422
0.600953
0.600407
0.59979
0.599017
0.598201
0.596913
0.506781
0.52115
0.528418
0.540337
0.551554
0.561842
0.570269
0.576899
0.581948
0.585781
0.588668
0.590885
0.592646
0.594082
0.5953
0.596358
0.597284
0.598105
0.598826
0.599455
0.599998
0.600451
0.600825
0.601118
0.601342
0.601501
0.601579
0.6016
0.601545
0.601422
0.601238
0.600996
0.600694
0.600341
0.59993
0.599453
0.598919
0.598242
0.597525
0.596299
0.505602
0.519454
0.526579
0.538199
0.549384
0.559709
0.568251
0.575013
0.580187
0.584121
0.587082
0.589353
0.591147
0.592604
0.593836
0.594904
0.595836
0.596665
0.597394
0.598032
0.598585
0.599049
0.599436
0.599745
0.599986
0.60016
0.600261
0.6003
0.600272
0.600177
0.600025
0.59982
0.599559
0.599256
0.598902
0.598496
0.598049
0.59748
0.596877
0.595735
0.504638
0.517873
0.524859
0.536156
0.547275
0.557613
0.566255
0.573142
0.578439
0.582474
0.585512
0.587835
0.589662
0.591141
0.592386
0.593462
0.594399
0.595234
0.595969
0.596613
0.597176
0.59765
0.598049
0.598372
0.598629
0.598819
0.59894
0.598999
0.598996
0.598928
0.598808
0.598639
0.598419
0.598164
0.597868
0.597534
0.597178
0.596727
0.596259
0.595226
0.503898
0.516404
0.523254
0.53421
0.545235
0.555564
0.56429
0.571296
0.576712
0.580845
0.583959
0.586335
0.588194
0.589693
0.59095
0.592032
0.592974
0.593811
0.594551
0.5952
0.59577
0.596254
0.596665
0.597001
0.597273
0.597477
0.597619
0.597695
0.597717
0.597675
0.597586
0.597453
0.597272
0.597064
0.596826
0.596565
0.596304
0.595981
0.595671
0.594785
0.503396
0.515041
0.521761
0.532366
0.543269
0.553569
0.562363
0.569479
0.575011
0.57924
0.582429
0.584855
0.586746
0.588264
0.58953
0.590616
0.59156
0.592399
0.593142
0.593794
0.59437
0.594861
0.595283
0.59563
0.595917
0.596135
0.596295
0.59639
0.596434
0.596419
0.596359
0.59626
0.596117
0.595956
0.595774
0.595587
0.595421
0.595238
0.595111
0.594423
0.50317
0.513783
0.520356
0.530582
0.541322
0.551565
0.560415
0.567636
0.573285
0.577613
0.580881
0.583362
0.585288
0.586828
0.588104
0.589194
0.59014
0.590978
0.591723
0.592378
0.592959
0.593458
0.593889
0.594249
0.594549
0.594781
0.594959
0.595072
0.595139
0.59515
0.595118
0.595053
0.594948
0.594832
0.594705
0.594591
0.594522
0.594487
0.594573
0.594156
0.503253
0.512567
0.518959
0.528761
0.539294
0.549455
0.558353
0.565683
0.57146
0.575896
0.579253
0.581798
0.583767
0.585336
0.586629
0.587727
0.588679
0.589519
0.590267
0.590927
0.591514
0.592022
0.592464
0.592837
0.593152
0.5934
0.593597
0.59373
0.59382
0.593857
0.593854
0.593821
0.593755
0.593683
0.593611
0.593569
0.593598
0.593716
0.594048
0.594007
0.503544
0.511393
0.517663
0.527156
0.537546
0.547642
0.556563
0.56396
0.56982
0.57433
0.577746
0.580333
0.582326
0.583907
0.585203
0.5863
0.58725
0.58809
0.588838
0.589501
0.590091
0.590607
0.591058
0.591442
0.591768
0.592031
0.592242
0.592395
0.592504
0.592564
0.592587
0.592582
0.592552
0.592518
0.592497
0.592519
0.592639
0.592905
0.593501
0.593963
0.502214
0.507267
0.513419
0.522839
0.53343
0.543701
0.552792
0.560342
0.566344
0.570968
0.574449
0.577028
0.578942
0.580399
0.581562
0.582543
0.583408
0.584188
0.584896
0.585537
0.586111
0.586623
0.587072
0.587463
0.587798
0.588081
0.588313
0.588498
0.588642
0.588749
0.588826
0.588883
0.588931
0.588989
0.589082
0.589253
0.589578
0.5902
0.591497
0.593685
0.493766
0.499532
0.506639
0.515826
0.525606
0.53497
0.543346
0.550457
0.556264
0.560868
0.564442
0.567184
0.569296
0.570959
0.572318
0.573475
0.574495
0.575411
0.576243
0.577
0.577684
0.578303
0.578856
0.579349
0.579783
0.580163
0.580491
0.580771
0.581008
0.581207
0.581377
0.581527
0.581671
0.58183
0.582036
0.582339
0.582839
0.583747
0.585552
0.588545
0.484323
0.491374
0.499097
0.507864
0.516836
0.525436
0.533257
0.540048
0.545728
0.550349
0.554039
0.556958
0.559277
0.561154
0.562717
0.56406
0.565246