/*--------------------------------*- C++ -*----------------------------------*\
  =========                 |
  \\      /  F ield         | OpenFOAM: The Open Source CFD Toolbox
   \\    /   O peration     | Website:  https://openfoam.org
    \\  /    A nd           | Version:  7
     \\/     M anipulation  |
\*---------------------------------------------------------------------------*/
FoamFile
{
    version     2.0;
    format      ascii;
    class       surfaceScalarField;
    location    "5.2";
    object      phi;
}
// * * * * * * * * * * * * * * * * * * * * * * * * * * * * * * * * * * * * * //

dimensions      [0 3 -1 0 0 0 0];

internalField   nonuniform List<scalar> 
63520
(
-6.32099e-06
6.87037e-05
-6.23827e-05
-2.17725e-05
0.000294962
-0.00027951
-4.4306e-05
0.000593561
-0.000571028
-7.19643e-05
0.000933401
-0.000905743
-0.000102981
0.00129546
-0.00126444
-0.000135784
0.00166812
-0.00163532
-0.000168974
0.00204388
-0.00201069
-0.00020132
0.00241791
-0.00238557
-0.000231746
0.00278702
-0.00275659
-0.000259333
0.00314916
-0.00312157
-0.000283305
0.00350279
-0.00347881
-0.000303004
0.00384666
-0.00382697
-0.000317891
0.00417965
-0.00416477
-0.00032753
0.00450062
-0.00449098
-0.000331569
0.00480841
-0.00480437
-0.000329731
0.00510188
-0.00510371
-0.000321805
0.00537988
-0.0053878
-0.000307635
0.00564134
-0.00565551
-0.000287111
0.0058853
-0.00590582
-0.000260161
0.00611088
-0.00613783
-0.000226753
0.0063174
-0.00635081
-0.000186889
0.00650432
-0.00654418
-0.000140599
0.0066713
-0.00671759
-8.79291e-05
0.00681818
-0.00687085
-2.89543e-05
0.00694499
-0.00700396
3.62312e-05
0.00705192
-0.0071171
0.000107522
0.00713933
-0.00721063
0.000184801
0.00720774
-0.00728502
0.000267931
0.00725776
-0.00734089
0.000356764
0.00729011
-0.00737894
0.00045113
0.00730561
-0.00739997
0.000550844
0.00730512
-0.00740483
0.000655691
0.00728955
-0.00739439
0.000765422
0.00725982
-0.00736956
0.000879735
0.0072169
-0.00733121
0.000998269
0.0071617
-0.00728023
0.00112059
0.00709515
-0.00721747
0.00124615
0.00701809
-0.00714365
0.00137429
0.00693274
-0.00706088
0.00684207
0.00150417
-0.00697194
-6.8535e-06
7.5557e-05
-2.34009e-05
0.000311509
-4.74019e-05
0.000617561
-7.68303e-05
0.000962829
-0.000109876
0.0013285
-0.000144931
0.00170318
-0.000180563
0.00207951
-0.000215531
0.00245288
-0.000248762
0.00282025
-0.000279312
0.00317971
-0.000306381
0.00352986
-0.000329295
0.00386958
-0.000347491
0.00419785
-0.000360512
0.00451364
-0.000367994
0.00481589
-0.00036965
0.00510353
-0.000365253
0.00537548
-0.000354627
0.00563072
-0.000337644
0.00586832
-0.000314223
0.00608746
-0.00028432
0.00628749
-0.000247917
0.00646792
-0.000205027
0.00662841
-0.000155685
0.00676884
-9.99425e-05
0.00688924
-3.78661e-05
0.00698984
3.04617e-05
0.00707101
0.000104941
0.00713326
0.000185458
0.00717724
0.000271887
0.00720368
0.00036408
0.00721341
0.000461865
0.00720733
0.00056503
0.00718638
0.000673323
0.00715153
0.000786431
0.00710379
0.000903963
0.00704417
0.00102544
0.00697368
0.00115027
0.00689325
0.00127773
0.00680528
0.00671289
0.0014069
-7.28905e-06
8.2846e-05
-2.47406e-05
0.00032896
-4.99715e-05
0.000642792
-8.08727e-05
0.00099373
-0.000115583
0.00136321
-0.00015248
0.00174007
-0.000190141
0.00211718
-0.000227302
0.00249004
-0.000262883
0.00285583
-0.000295925
0.00321275
-0.000325618
0.00355955
-0.000351273
0.00389523
-0.00037231
0.00421889
-0.000388259
0.00452959
-0.000398737
0.00482637
-0.000403437
0.00510823
-0.000402118
0.00537416
-0.000394598
0.0056232
-0.00038074
0.00585446
-0.000360447
0.00606717
-0.000333659
0.00626071
-0.000300347
0.0064346
-0.000260507
0.00658857
-0.000214152
0.00672248
-0.000161314
0.00683641
-0.000102043
0.00693057
-3.63987e-05
0.00700536
3.5549e-05
0.00706131
0.000113718
0.00709907
0.000198003
0.0071194
0.000288276
0.00712314
0.000384382
0.00711123
0.000486124
0.00708464
0.000593248
0.00704441
0.000705426
0.00699161
0.000822246
0.00692735
0.000943187
0.00685274
0.0010676
0.00676884
0.00119471
0.00667818
0.00658408
0.00132352
-7.62437e-06
9.04702e-05
-2.58367e-05
0.000347172
-5.2075e-05
0.00066903
-8.41532e-05
0.00102581
-0.000120189
0.00139925
-0.000158547
0.00177843
-0.0001978
0.00215643
-0.000236689
0.00252893
-0.000274138
0.00289328
-0.000309177
0.00324779
-0.000340983
0.00359135
-0.000368857
0.00392311
-0.000392211
0.00424224
-0.000410557
0.00454793
-0.000423499
0.00483931
-0.000430722
0.00511545
-0.000431974
0.00537541
-0.00042706
0.00561828
-0.000415831
0.00584323
-0.000398183
0.00604952
-0.000374046
0.00623657
-0.000343373
0.00640393
-0.000306145
0.00655134
-0.000262361
0.0066787
-0.000212034
0.00678608
-0.000155185
0.00687372
-9.18492e-05
0.00694203
-2.20679e-05
0.00699153
5.41009e-05
0.0070229
0.000136582
0.00703692
0.000225276
0.00703445
0.000320049
0.00701645
0.000420719
0.00698397
0.000527034
0.00693809
0.000638666
0.00687998
0.00075518
0.00681083
0.000876015
0.0067319
0.00100047
0.00664438
0.00112769
0.00655096
0.00645515
0.00125662
-7.88791e-06
9.83581e-05
-2.667e-05
0.000365954
-5.36596e-05
0.00069602
-8.6601e-05
0.00105875
-0.000123585
0.00143623
-0.000162979
0.00181783
-0.000203373
0.00219682
-0.000243514
0.00256907
-0.000282315
0.00293208
-0.000318821
0.00328429
-0.000352202
0.00362473
-0.000381748
0.00395265
-0.000406859
0.00426735
-0.000427043
0.00456812
-0.000441892
0.00485416
-0.000451078
0.00512464
-0.00045434
0.00537868
-0.000451476
0.00561542
-0.000442331
0.00583408
-0.00042679
0.00603398
-0.000404772
0.00621455
-0.000376221
0.00637538
-0.000341101
0.00651622
-0.000299395
0.00663699
-0.000251092
0.00673778
-0.000196195
0.00681882
-0.000134709
0.00688054
-6.66483e-05
0.00692347
7.96203e-06
0.00694829
8.90785e-05
0.0069558
0.000176632
0.00694689
0.000270515
0.00692257
0.000370564
0.00688392
0.000476545
0.00683211
0.000588126
0.0067684
0.000704856
0.0066941
0.00082614
0.00661062
0.00095123
0.00651929
0.00107919
0.006423
0.00632549
0.00120885
-8.06053e-06
0.000106418
-2.72398e-05
0.000385133
-5.47228e-05
0.000723502
-8.82005e-05
0.00109223
-0.000125759
0.00147379
-0.000165771
0.00185784
-0.000206839
0.00223789
-0.000247732
0.00260996
-0.000287367
0.00297171
-0.000324794
0.00332172
-0.000359181
0.00365912
-0.000389815
0.00398329
-0.000416095
0.00429363
-0.000437516
0.00458954
-0.000453661
0.00487031
-0.000464197
0.00513518
-0.000468856
0.00538334
-0.000467428
0.00561399
-0.000459753
0.00582641
-0.000445708
0.00601994
-0.000425206
0.00619405
-0.000398177
0.00634835
-0.000364573
0.00648262
-0.000324359
0.00659678
-0.000277508
0.00669092
-0.000223995
0.00676531
-0.0001638
0.00682035
-9.69073e-05
0.00685658
-2.3309e-05
0.00687469
5.6985e-05
0.0068755
0.000143941
0.00685994
0.000237483
0.00682903
0.000337475
0.00678393
0.000443701
0.00672589
0.000555837
0.00665626
0.000673425
0.00657652
0.000795843
0.0064882
0.000922286
0.00639285
0.00105174
0.00629355
0.00619429
0.00118293
-8.15703e-06
0.000114575
-2.75454e-05
0.000404522
-5.52546e-05
0.000751212
-8.89364e-05
0.00112591
-0.000126676
0.00151153
-0.000166865
0.00189803
-0.00020813
0.00227916
-0.000249259
0.00265109
-0.000289178
0.00301163
-0.00032695
0.00335949
-0.000361749
0.00369392
-0.00039286
0.0040144
-0.000419677
0.00432045
-0.000441691
0.00461155
-0.000458481
0.0048871
-0.000469706
0.0051464
-0.000475092
0.00538872
-0.000474427
0.00561333
-0.000467545
0.00581953
-0.00045432
0.00600671
-0.000434652
0.00617438
-0.000408465
0.00632217
-0.000375699
0.00644985
-0.000336304
0.00655738
-0.000290234
0.00664485
-0.00023744
0.00671252
-0.000177875
0.00676078
-0.000111495
0.0067902
-3.82593e-05
0.00680146
4.18622e-05
0.00679538
0.00012887
0.00677293
0.000222725
0.00673517
0.000323325
0.00668333
0.000430482
0.00661873
0.000543889
0.00654285
0.000663087
0.00645732
0.000787434
0.00636385
0.000916077
0.0062642
0.00104792
0.00616171
0.00606065
0.00118156
-8.17879e-06
0.000122754
-2.75904e-05
0.000423933
-5.52518e-05
0.000778873
-8.8793e-05
0.00115945
-0.000126315
0.00154905
-0.000166233
0.00193794
-0.000207198
0.00232012
-0.000248024
0.00269192
-0.000287661
0.00305127
-0.000325181
0.00339701
-0.000359766
0.0037285
-0.000390707
0.00404534
-0.000417395
0.00434714
-0.00043932
0.00463348
-0.000456056
0.00490384
-0.000467257
0.0051576
-0.000472648
0.00539411
-0.000472012
0.00561269
-0.000465183
0.0058127
-0.000452024
0.00599355
-0.000432433
0.00615479
-0.000406327
0.00629606
-0.000373633
0.00641716
-0.000334289
0.00651804
-0.00028823
0.00659879
-0.000235386
0.00665967
-0.000175687
0.00670108
-0.000109056
0.00672357
-3.5421e-05
0.00672782
4.52841e-05
0.00671468
0.000133101
0.00668511
0.000228031
0.00664025
0.00033001
0.00658135
0.000438885
0.00650985
0.000554377
0.00642736
0.000676038
0.00633566
0.000803217
0.00623668
0.000935015
0.00613241
0.00107025
0.00602647
0.00592351
0.00120739
-8.12775e-06
0.000130882
-2.73755e-05
0.000443181
-5.47156e-05
0.000806213
-8.77726e-05
0.00119251
-0.000124671
0.00158595
-0.000163859
0.00197713
-0.000204017
0.00236028
-0.000243993
0.00273189
-0.00028276
0.00309003
-0.000319406
0.00343366
-0.000353127
0.00376223
-0.00038322
0.00407543
-0.000409079
0.004373
-0.000430191
0.00465459
-0.00044613
0.00491977
-0.000456547
0.00516802
-0.000461165
0.00539873
-0.000459766
0.00561129
-0.000452178
0.00580511
-0.000438263
0.00597964
-0.000417913
0.00613444
-0.000391039
0.00626918
-0.000357561
0.00638368
-0.000317402
0.00647788
-0.000270483
0.00655187
-0.000216717
0.00660591
-0.000156007
0.00664037
-8.82526e-05
0.00665581
-1.33462e-05
0.00665291
6.88131e-05
0.00663252
0.000158305
0.00659562
0.000255174
0.00654338
0.000359403
0.00647712
0.000470881
0.00639838
0.000589364
0.00630888
0.000714432
0.00621059
0.000845434
0.00610567
0.00098144
0.0059964
0.00112119
0.00588672
0.00578172
0.00126298
-8.00537e-06
0.000138887
-2.69064e-05
0.000462082
-5.36547e-05
0.000832961
-8.58862e-05
0.00122474
-0.000121756
0.00162182
-0.000159752
0.00201513
-0.000198591
0.00239912
-0.000237157
0.00277046
-0.000274451
0.00312733
-0.000309584
0.00346879
-0.000341767
0.00379441
-0.000370307
0.00410397
-0.000394602
0.00439729
-0.000414141
0.00467413
-0.000428497
0.00493413
-0.000437321
0.00517684
-0.000440335
0.00540174
-0.000437319
0.00560828
-0.000428098
0.00579589
-0.000412531
0.00596407
-0.000390508
0.00611242
-0.000361935
0.00624061
-0.000326725
0.00634847
-0.000284791
0.00643595
-0.00023604
0.00650312
-0.000180369
0.00655024
-0.000117664
0.00657767
-4.77973e-05
0.00658595
2.9365e-05
0.00657575
0.000113957
0.00654793
0.000206098
0.00650348
0.000305878
0.0064436
0.000413323
0.00636967
0.000528377
0.00628332
0.000650842
0.00618641
0.000780337
0.00608109
0.000916227
0.00596978
0.00105756
0.00585507
0.00120301
0.00574128
0.00563402
0.0013507
-7.81231e-06
0.000146699
-2.6191e-05
0.00048046
-5.20853e-05
0.000858855
-8.31561e-05
0.00125581
-0.000117597
0.00165626
-0.000153941
0.00205147
-0.000190946
0.00243612
-0.000227536
0.00280705
-0.000262746
0.00316254
-0.000295712
0.00350176
-0.000325665
0.00382436
-0.000351921
0.00413023
-0.000373889
0.00441926
-0.00039106
0.0046913
-0.000403008
0.00494608
-0.000409386
0.00518322
-0.000409915
0.00540227
-0.000404372
0.00560273
-0.00039258
0.0057841
-0.000374398
0.00594589
-0.000349714
0.00608773
-0.000318428
0.00620933
-0.00028045
0.00631049
-0.000235684
0.00639118
-0.000184029
0.00645147
-0.000125369
0.00649158
-5.95744e-05
0.00651187
1.35012e-05
0.00651287
9.40155e-05
0.00649524
0.000182131
0.00645981
0.000278003
0.00640761
0.00038176
0.00633984
0.000493484
0.00625795
0.00061317
0.00616364
0.000740678
0.00605891
0.000875679
0.00594609
0.00101758
0.00582789
0.00116541
0.00570723
0.0013178
0.00558889
0.00547912
0.0014727
-7.55258e-06
0.000154252
-2.52408e-05
0.000498149
-5.00292e-05
0.000883644
-7.96162e-05
0.00128539
-0.000112239
0.00168888
-0.000146477
0.00208571
-0.000181138
0.00247078
-0.000215187
0.0028411
-0.000247696
0.00319504
-0.000277832
0.00353189
-0.000304845
0.00385137
-0.00032807
0.00415345
-0.000346923
0.00443811
-0.000360902
0.00470528
-0.000369584
0.00495476
-0.000372623
0.00518626
-0.000369738
0.00539939
-0.000360706
0.0055937
-0.000345349
0.00576874
-0.000323525
0.00592407
-0.000295119
0.00605933
-0.000260032
0.00617424
-0.000218167
0.00626863
-0.000169426
0.00634244
-0.0001137
0.00639574
-5.08668e-05
0.00642874
1.92142e-05
0.00644179
9.67016e-05
0.00643538
0.00018177
0.00641017
0.000274603
0.00636698
0.000375388
0.00630682
0.000484291
0.00623094
0.00060144
0.0061408
0.000726887
0.00603819
0.000860559
0.00592523
0.00100219
0.00580446
0.00115124
0.00567884
0.00130678
0.00555169
0.00146736
0.00542831
0.00531569
0.00163079
-7.2295e-06
0.000161482
-2.40706e-05
0.000514989
-4.75169e-05
0.00090709
-7.5312e-05
0.00131319
-0.000105739
0.00171931
-0.000137432
0.0021174
-0.000169248
0.0025026
-0.000200196
0.00287204
-0.00022939
0.00322424
-0.000256029
0.00355853
-0.000279387
0.00387473
-0.000298819
0.00417288
-0.000313751
0.00445304
-0.000323691
0.00471522
-0.000328219
0.00495929
-0.00032699
0.00518503
-0.000319726
0.00539212
-0.000306199
0.00558018
-0.000286231
0.00574877
-0.000259681
0.00589752
-0.000226434
0.00602608
-0.000186388
0.00613419
-0.000139444
0.00622168
-8.55034e-05
0.0062885
-2.44558e-05
0.00633469
4.3824e-05
0.00636046
0.00011948
0.00636614
0.000202677
0.00635219
0.000293599
0.00631925
0.000392444
0.00626813
0.000499418
0.00619985
0.000614719
0.00611564
0.000738518
0.006017
0.000870922
0.00590579
0.00101193
0.00578423
0.00116135
0.00565504
0.00131871
0.00552147
0.00148313
0.00538727
0.00165315
0.0052583
0.00514243
0.00182641
-6.84872e-06
0.00016833
-2.26992e-05
0.00053084
-4.45846e-05
0.000928975
-7.02992e-05
0.0013389
-9.81755e-05
0.00174719
-0.000126902
0.00214613
-0.000155386
0.00253108
-0.000182687
0.00289934
-0.000207959
0.00324951
-0.000230437
0.00358101
-0.000249424
0.00389372
-0.000264293
0.00418775
-0.000274489
0.00446324
-0.000279525
0.00472026
-0.000278991
0.00495876
-0.000272543
0.00517858
-0.0002599
0.00537948
-0.000240836
0.00556111
-0.000215172
0.00572311
-0.000182768
0.00586511
-0.000143508
0.00598682
-9.7288e-05
0.00608797
-4.40132e-05
0.00616841
1.64159e-05
0.00622807
8.41064e-05
0.006267
0.000159181
0.00628539
0.00024178
0.00628354
0.000332069
0.0062619
0.000430227
0.00622109
0.00053646
0.0061619
0.000650981
0.00608533
0.000774011
0.00599261
0.000905752
0.00588526
0.00104636
0.00576518
0.0011959
0.00563469
0.00135428
0.00549667
0.0015211
0.00535464
0.00169557
0.00521281
0.00187621
0.00507765
0.00495807
0.00206057
-6.41692e-06
0.000174747
-2.11488e-05
0.000545571
-4.12759e-05
0.000949102
-6.46447e-05
0.00136227
-8.96391e-05
0.00177218
-0.000115001
0.00217149
-0.000139691
0.00255577
-0.000162816
0.00292247
-0.000183574
0.00327027
-0.000201238
0.00359867
-0.000215143
0.00390763
-0.000224685
0.00419729
-0.000229325
0.00446788
-0.000228588
0.00471952
-0.000222072
0.00495224
-0.000209434
0.00516595
-0.000190395
0.00536044
-0.000164728
0.00553544
-0.000132254
0.00569063
-9.28342e-05
0.00582569
-4.63514e-05
0.00594034
7.29501e-06
0.00603433
6.81993e-05
0.00610751
0.000136454
0.00615981
0.000212161
0.0061913
0.000295435
0.00620212
0.000386406
0.00619256
0.000485227
0.00616308
0.000592071
0.00611424
0.000707132
0.00604684
0.000830625
0.00596184
0.000962773
0.00586046
0.0011038
0.00574423
0.0012539
0.00561507
0.00141321
0.00547538
0.00158171
0.00532817
0.00175911
0.00517724
0.00194471
0.00502721
0.0021371
0.00488526
0.00476146
0.00233371
-5.94198e-06
0.000180689
-1.94448e-05
0.000559074
-3.76396e-05
0.000967297
-5.84255e-05
0.00138306
-8.02366e-05
0.00179399
-0.000101866
0.00219312
-0.000122327
0.00257623
-0.000140772
0.00294091
-0.000156449
0.00328595
-0.000168667
0.00361089
-0.000176794
0.00391575
-0.000180254
0.00420075
-0.000178526
0.00446615
-0.00017115
0.00471214
-0.000157729
0.00493882
-0.000137928
0.00514615
-0.000111466
0.00533398
-7.81193e-05
0.0055021
-3.77088e-05
0.00565022
9.90601e-06
0.00577808
6.48396e-05
0.0058854
0.00012719
0.00597197
0.000197045
0.00603765
0.000274491
0.00608237
0.000359618
0.00610617
0.000452527
0.00610921
0.000553332
0.00609176
0.000662166
0.00605424
0.000779182
0.00599723
0.000904553
0.00592147
0.00103848
0.00582791
0.00118117
0.00571776
0.00133287
0.00559254
0.00149377
0.00545417
0.00166408
0.00530508
0.00184384
0.00514841
0.0020329
0.00498818
0.00223066
0.00482946
0.00243579
0.00468013
0.00455156
0.00264569
-5.43289e-06
0.000186122
-1.76153e-05
0.000571256
-3.37306e-05
0.000983412
-5.17277e-05
0.00140106
-7.00883e-05
0.00181235
-8.76528e-05
0.00221068
-0.000103483
0.00259206
-0.00011678
0.00295421
-0.000126837
0.003296
-0.000133003
0.00361706
-0.000134683
0.00391743
-0.000131327
0.0041974
-0.000122438
0.00445726
-0.000107569
0.00469728
-8.63359e-05
0.00491758
-5.84058e-05
0.00511821
-2.35026e-05
0.00529908
1.8597e-05
0.00546
6.80702e-05
0.00560075
0.000125057
0.00572109
0.00018967
0.00582079
0.000262001
0.00589964
0.000342131
0.00595752
0.000430134
0.00599436
0.000526088
0.00601022
0.000630072
0.00600522
0.000742178
0.00597965
0.000862509
0.00593391
0.00099119
0.00586855
0.00112836
0.0057843
0.00127419
0.00568208
0.00142887
0.00556308
0.00159261
0.0054288
0.00176563
0.00528114
0.00194815
0.00512256
0.00214031
0.00495625
0.00234203
0.00478645
0.00255287
0.00461862
0.00277162
0.00446138
0.0043275
0.00299568
-4.89931e-06
0.000191021
-1.56907e-05
0.000582048
-2.96082e-05
0.00099733
-4.46455e-05
0.00141609
-5.93266e-05
0.00182703
-7.25332e-05
0.00222389
-8.33724e-05
0.0026029
-9.10927e-05
0.00296193
-9.50298e-05
0.00329994
-9.45766e-05
0.0036166
-8.91734e-05
0.00391203
-7.8302e-05
0.00418653
-6.14868e-05
0.00444045
-3.83011e-05
0.00467409
-8.36989e-06
0.00488765
2.86305e-05
0.00508121
7.2972e-05
0.00525474
0.000124875
0.00540809
0.000184515
0.00554111
0.00025203
0.00565358
0.000327528
0.00574529
0.000411093
0.00581608
0.000502797
0.00586582
0.0006027
0.00589446
0.000710859
0.00590206
0.000827329
0.00588875
0.000952171
0.00585481
0.00108546
0.00580063
0.00122726
0.00572674
0.0013777
0.00563386
0.00153688
0.0055229
0.00170495
0.00539501
0.00188209
0.00525166
0.00206851
0.00509472
0.00226443
0.00492664
0.00247003
0.00475065
0.00268537
0.00457111
0.00291011
0.00439389
0.00314321
0.00422827
0.00408857
0.00338213
-4.35134e-06
0.000195372
-1.37032e-05
0.000591399
-2.53353e-05
0.00100896
-3.72793e-05
0.00142804
-4.80932e-05
0.00183785
-5.66938e-05
0.00223249
-6.22288e-05
0.00260844
-6.39895e-05
0.00296369
-6.13553e-05
0.0032973
-5.37612e-05
0.00360901
-4.06848e-05
0.00389895
-2.16402e-05
0.00416748
3.82226e-06
0.00441498
3.61098e-05
0.0046418
7.5583e-05
0.00484818
0.000122556
0.00503424
0.000177293
0.0052
0.000240011
0.00534538
0.000310881
0.00547024
0.000390036
0.00557442
0.000477578
0.00565775
0.000573583
0.00572007
0.000678107
0.00576129
0.000791194
0.00578137
0.000912875
0.00578038
0.00104318
0.00575845
0.00118213
0.00571586
0.00132975
0.005653
0.00148608
0.00557041
0.00165116
0.00546878
0.00182506
0.005349
0.00200787
0.00521221
0.0021997
0.00505982
0.00240073
0.00489369
0.00261117
0.0047162
0.00283122
0.00453059
0.00306102
0.00434132
0.00330036
0.00415455
0.00354839
0.00398024
0.00383427
0.00380269
-3.79926e-06
0.000199172
-1.16856e-05
0.000599285
-2.09772e-05
0.00101825
-2.97336e-05
0.00143679
-3.65374e-05
0.00184465
-4.03324e-05
0.00223629
-4.03011e-05
0.00260841
-3.57738e-05
0.00295916
-2.61712e-05
0.0032877
-1.09702e-05
0.00359381
1.03139e-05
0.00387767
3.81336e-05
0.00413966
7.29102e-05
0.00438021
0.000115029
0.00459968
0.000164833
0.00479838
0.000222624
0.00497645
0.000288658
0.00513396
0.000363142
0.00527089
0.000446242
0.00538714
0.000538083
0.00548258
0.000638758
0.00555707
0.000748331
0.0056105
0.00086684
0.00564278
0.000994307
0.00565391
0.00113074
0.00564395
0.00127612
0.00561307
0.00143044
0.00556154
0.00159368
0.00548977
0.00176581
0.00539828
0.00194681
0.00528777
0.00213669
0.00515913
0.00233546
0.00501344
0.00254317
0.00485212
0.00275992
0.00467693
0.0029859
0.00449023
0.00322129
0.0042952
0.00346628
0.00409633
0.00372081
0.00390002
0.0039842
0.00371685
0.00356427
0.0042542
-3.2533e-06
0.000202425
-9.67127e-06
0.000605703
-1.66003e-05
0.00102518
-2.21153e-05
0.00144231
-2.48125e-05
0.00184735
-2.36541e-05
0.00223513
-1.78504e-05
0.0026026
-6.76603e-06
0.00294808
1.01398e-05
0.0032708
3.33499e-05
0.0035706
6.33109e-05
0.00384771
0.000100441
0.00410253
0.000145131
0.00433552
0.00019774
0.00454707
0.000258594
0.00473752
0.000327977
0.00490707
0.00040613
0.00505581
0.000493252
0.00518377
0.000589498
0.00529089
0.000694982
0.0053771
0.000809784
0.00544227
0.00093395
0.00548633
0.0010675
0.00550923
0.00121043
0.00551098
0.0013627
0.00549167
0.00152428
0.00545149
0.00169509
0.00539073
0.00187507
0.00530979
0.00206413
0.00520922
0.00226217
0.00508973
0.00246912
0.00495217
0.00268492
0.00479765
0.00290953
0.0046275
0.00314298
0.00444348
0.00338537
0.00424784
0.00363688
0.0040437
0.00389769
0.00383551
0.00416786
0.00362985
0.00444689
0.00343783
0.00327842
0.00473273
-2.72331e-06
0.000205148
-7.69312e-06
0.000610672
-1.22703e-05
0.00102976
-1.45309e-05
0.00144457
-1.30725e-05
0.00184589
-6.86655e-06
0.00222892
4.85619e-06
0.00259088
2.27025e-05
0.00293023
4.71784e-05
0.00324632
7.8728e-05
0.00353905
0.00011776
0.00380868
0.000164659
0.00405563
0.000219781
0.0042804
0.000283459
0.0044834
0.000355995
0.00466499
0.000437652
0.00482541
0.000528656
0.00496481
0.000629189
0.00508324
0.000739391
0.00518069
0.000859364
0.00525712
0.000989166
0.00531247
0.00112883
0.00534668
0.00127833
0.00535972
0.00143765
0.00535166
0.00160672
0.0053226
0.00178544
0.00527277
0.00197369
0.00520247
0.00217136
0.00511213
0.00237827
0.00500231
0.00259427
0.00487373
0.0028192
0.00472725
0.0030529
0.00456395
0.00329525
0.00438516
0.00354617
0.00419255
0.00380569
0.00398832
0.00407391
0.00377548
0.00435103
0.0035584
0.00463715
0.00334373
0.00493196
0.00314302
0.00297674
0.00523363
-2.21857e-06
0.000207366
-5.78284e-06
0.000614237
-8.05111e-06
0.00103203
-7.08392e-06
0.0014436
-1.46843e-06
0.00184028
9.82421e-06
0.00221763
2.75519e-05
0.00257315
5.22979e-05
0.00290549
8.45375e-05
0.00321408
0.000124679
0.00349891
0.000173095
0.00376026
0.000230133
0.0039986
0.000296115
0.00421441
0.000371344
0.00440817
0.000456094
0.00458024
0.000550604
0.0047309
0.000655078
0.00486033
0.000769679
0.00496864
0.000894527
0.00505584
0.0010297
0.00512195
0.00117524
0.00516693
0.00133114
0.00519077
0.00149737
0.0051935
0.00167384
0.00517518
0.00186046
0.00513599
0.00205708
0.00507615
0.00226353
0.00499602
0.00247961
0.00489605
0.00270509
0.00477682
0.00293975
0.00463907
0.00318332
0.00448367
0.00343556
0.00431171
0.00369625
0.00412447
0.00396521
0.00392359
0.00424236
0.00371118
0.00452773
0.00349011
0.00482146
0.00326466
0.00512371
0.00304147
0.0054343
0.00283243
0.0026594
0.00575165
-1.74759e-06
0.000209114
-3.97006e-06
0.000616459
-4.002e-06
0.00103206
1.28173e-07
0.00143947
9.85612e-06
0.00183055
2.6221e-05
0.00220126
4.99777e-05
0.0025494
8.16922e-05
0.00287377
0.000121813
0.00317396
0.000170718
0.00345
0.000228741
0.00370224
0.000296194
0.00393114
0.000373365
0.00413724
0.000460521
0.00432101
0.000557905
0.00448285
0.00066573
0.00462308
0.00078417
0.00474189
0.000913363
0.00483944
0.0010534
0.0049158
0.00120435
0.00497101
0.0013662
0.00500508
0.00153892
0.00501805
0.00172245
0.00500997
0.00191666
0.00498097
0.0021214
0.00493125
0.00233647
0.00486108
0.00256164
0.00477085
0.00279664
0.00466105
0.00304118
0.00453228
0.00329494
0.00438531
0.00355757
0.00422104
0.00382875
0.00404053
0.00410814
0.00384508
0.00439546
0.00363627
0.00469052
0.00341612
0.00499325
0.00318738
0.00530374
0.00295418
0.00562214
0.00272307
0.00594838
0.00250619
0.00232669
0.00628108
-1.31801e-06
0.000210432
-2.28129e-06
0.000617422
-1.76432e-07
0.00102995
7.01671e-06
0.00143228
2.07691e-05
0.0018168
4.21402e-05
0.00217989
7.18898e-05
0.00251965
0.000110573
0.00283509
0.000158618
0.00312592
0.00021637
0.00339225
0.000284132
0.00363447
0.000362178
0.0038531
0.000450759
0.00404866
0.000550105
0.00422167
0.000660425
0.00437253
0.000781897
0.0045016
0.000914665
0.00460912
0.00105883
0.00469527
0.00121447
0.00476017
0.00138158
0.00480389
0.00156016
0.00482651
0.00175011
0.00482809
0.00195134
0.00480874
0.00216366
0.00476865
0.00238688
0.00470804
0.00262073
0.00462723
0.00286492
0.00452666
0.00311912
0.00440685
0.00338296
0.00426845
0.00365603
0.00411224
0.0039379
0.00393916
0.00422815
0.00375028
0.00452635
0.00354688
0.00483211
0.00333051
0.00514513
0.0031031
0.00546522
0.00286729
0.0057924
0.002627
0.0061268
0.00238868
0.00646841
0.00216458
0.00197904
0.00681606
-9.36593e-07
0.000211368
-7.39068e-07
0.000617224
3.37987e-06
0.00102584
1.35048e-05
0.00142215
3.11545e-05
0.00179915
5.7418e-05
0.00215363
9.30681e-05
0.002484
0.000138655
0.0027895
0.000194589
0.00306998
0.000261192
0.00332565
0.000338732
0.00355693
0.000427448
0.00376438
0.000527551
0.00394856
0.000639234
0.00410998
0.000762665
0.0042491
0.000897986
0.00436628
0.0010453
0.00446181
0.00120468
0.00453589
0.00137615
0.0045887
0.00155968
0.00462036
0.00175521
0.00463097
0.00196262
0.00462067
0.00218175
0.00458962
0.00241237
0.00453803
0.00265422
0.00446619
0.00290698
0.00437447
0.00317029
0.00426335
0.00344374
0.0041334
0.00372688
0.00398531
0.00401923
0.00381989
0.00432028
0.00363811
0.0046295
0.00344105
0.00494638
0.00323
0.00527042
0.00300646
0.00560121
0.00277231
0.00593846
0.00253004
0.00628207
0.00228339
0.00663214
0.00203861
0.00698871
0.00180801
0.00161698
0.00735077
-6.08679e-07
0.000211977
6.38884e-07
0.000615977
6.63045e-06
0.00101984
1.953e-05
0.00140925
4.09163e-05
0.00177776
7.1917e-05
0.00212263
0.000113324
0.00244259
0.000165689
0.00273714
0.000229409
0.00300626
0.000304785
0.00325027
0.000392054
0.00346966
0.000491417
0.00366502
0.000603049
0.00383693
0.000727098
0.00398593
0.000863693
0.00411251
0.00101293
0.00421705
0.00117487
0.00429987
0.00134955
0.00436122
0.00153693
0.00440132
0.00173696
0.00442033
0.00194952
0.00441842
0.00217443
0.00439576
0.00241149
0.00435256
0.0026604
0.00428911
0.00292085
0.00420574
0.00319244
0.00410288
0.00347475
0.00398104
0.0037673
0.00384085
0.00406955
0.00368305
0.00438096
0.00350849
0.00470091
0.00331816
0.0050288
0.00311316
0.00536402
0.00289478
0.00570597
0.00266451
0.00605414
0.00242415
0.00640811
0.00217607
0.00676771
0.00192379
0.00713295
0.00167337
0.0075039
0.00143705
0.00124119
0.00787969
-3.37716e-07
0.000212314
1.84053e-06
0.000613799
9.54948e-06
0.00101213
2.5047e-05
0.00139376
4.99833e-05
0.00175282
8.55315e-05
0.00208708
0.000132508
0.00239561
0.000191473
0.00267818
0.000262814
0.00293492
0.000346813
0.00316627
0.000443679
0.0033728
0.000553577
0.00355512
0.000676641
0.00371386
0.000812978
0.0038496
0.00096267
0.00396282
0.00112577
0.00405395
0.00130229
0.00412335
0.0014922
0.00417131
0.00169544
0.00419808
0.00191189
0.00420388
0.00214138
0.00418892
0.00238369
0.00415345
0.00263853
0.00409772
0.00290557
0.00402207
0.00318441
0.0039269
0.0034746
0.00381269
0.00377563
0.00368
0.00408696
0.00352953
0.00440797
0.00336204
0.00473802
0.00317844
0.00507644
0.00297974
0.00542252
0.00276707
0.00577557
0.00254174
0.00613489
0.0023052
0.00649985
0.00205919
0.00686995
0.00180597
0.00724489
0.00154885
0.00762462
0.00129365
0.00800921
0.00105246
0.000852482
0.00839792
-1.27242e-07
0.000212442
2.85963e-06
0.000610812
1.21232e-05
0.00100287
3.00302e-05
0.00137585
5.8312e-05
0.00172454
9.81931e-05
0.0020472
0.00015052
0.00234329
0.000215863
0.00261283
0.000294609
0.00285617
0.00038702
0.00307386
0.000493281
0.00326654
0.000613521
0.00343488
0.000747832
0.00357955
0.00089628
0.00370115
0.0010589
0.0038002
0.00123568
0.00387716
0.00142661
0.00393243
0.00163158
0.00396633
0.00185049
0.00397917
0.00208316
0.00397121
0.00232936
0.00394272
0.00258881
0.003894
0.00286117
0.00382537
0.00314602
0.00373722
0.00344291
0.00363001
0.00375132
0.00350428
0.00407067
0.00336066
0.00440032
0.00319987
0.00473961
0.00302276
0.00508779
0.00283025
0.00544412
0.00262341
0.0058078
0.0024034
0.00617803
0.00217151
0.00655403
0.00192919
0.00693507
0.00167815
0.00732054
0.0014205
0.00771001
0.00115938
0.00810336
0.000900296
0.00850066
0.000655159
0.000451853
0.00890129
2.42006e-08
0.000212417
3.69678e-06
0.000607139
1.4351e-05
0.000992217
3.44756e-05
0.00135572
6.589e-05
0.00169313
0.000109875
0.00200322
0.00016731
0.00228585
0.000238782
0.00254136
0.000324678
0.00277028
0.000425246
0.00297329
0.000540643
0.00315114
0.000670967
0.00330456
0.000816271
0.00343425
0.000976574
0.00354085
0.00115186
0.00362492
0.00134207
0.00368695
0.00154713
0.00372737
0.00176689
0.00374657
0.00200117
0.00374488
0.00224975
0.00372263
0.00251233
0.00368014
0.00278857
0.00361776
0.00307806
0.00353588
0.00338032
0.00343496
0.00369483
0.0033155
0.004021
0.00317812
0.00435817
0.00302349
0.00470563
0.0028524
0.00506263
0.00266576
0.00542836
0.00246453
0.00580196
0.00224981
0.00618256
0.0020228
0.00656926
0.00178481
0.00696117
0.00153728
0.00735746
0.00128186
0.00775738
0.00102058
0.00816041
0.00075635
0.00856632
0.000494384
0.00897518
0.0002463
4.05136e-05
0.00938652
1.1865e-07
0.000212299
4.35948e-06
0.000602898
1.62464e-05
0.00098033
3.84016e-05
0.00133357
7.27376e-05
0.00165879
0.000120594
0.00195536
0.000182888
0.00222356
0.000260227
0.00246402
0.000352997
0.00267751
0.000461435
0.00286486
0.000585675
0.0030269
0.000725784
0.00316445
0.000881775
0.00327826
0.00105362
0.003369
0.00124125
0.00343728
0.00144457
0.00348363
0.00166342
0.00350852
0.00189762
0.00351237
0.00214692
0.00349558
0.00241102
0.00345852
0.00268959
0.00340158
0.0029822
0.00332515
0.00328838
0.0032297
0.00360759
0.00311575
0.00393923
0.00298386
0.00428265
0.0028347
0.00463711
0.00266903
0.00500182
0.00248769
0.00537595
0.00229163
0.00575859
0.00208188
0.00614881
0.00185959
0.00654562
0.00162599
0.00694801
0.00138241
0.00735499
0.0011303
0.00776559
0.000871265
0.00817895
0.000607227
0.0085944
0.000340901
0.00901162
7.71672e-05
0.00943065
-0.000172736
-0.000380071
0.00985124
1.60704e-07
0.000212138
4.8624e-06
0.000598196
1.78372e-05
0.000967355
4.18504e-05
0.00130956
7.89096e-05
0.00162173
0.000130417
0.00190385
0.000197328
0.00215665
0.000280271
0.00238108
0.000379637
0.00257814
0.000495651
0.00274884
0.000628429
0.00289412
0.000778005
0.00301487
0.000944354
0.00311191
0.0011274
0.00318595
0.00132704
0.00323765
0.0015431
0.00326757
0.00177538