/*--------------------------------*- C++ -*----------------------------------*\
  =========                 |
  \\      /  F ield         | OpenFOAM: The Open Source CFD Toolbox
   \\    /   O peration     | Website:  https://openfoam.org
    \\  /    A nd           | Version:  7
     \\/     M anipulation  |
\*---------------------------------------------------------------------------*/
FoamFile
{
    version     2.0;
    format      ascii;
    class       surfaceScalarField;
    location    "15.6";
    object      phi;
}
// * * * * * * * * * * * * * * * * * * * * * * * * * * * * * * * * * * * * * //

dimensions      [0 3 -1 0 0 0 0];

internalField   nonuniform List<scalar> 
3880
(
0.000688641
-0.00013346
-0.00055518
0.00279679
0.00406865
-0.0061768
0.00617089
0.0103731
-0.0137472
0.0103423
0.0175761
-0.0217476
0.0146895
0.0246183
-0.0289655
0.0186759
0.0307284
-0.0347149
0.0219785
0.0355167
-0.0388193
0.0244915
0.0389193
-0.0414323
0.0262642
0.041099
-0.0428716
0.0422946
0.0274216
-0.043452
0.000567939
-0.000701399
0.00237451
0.00226208
0.00539144
0.00735621
0.00934417
0.0136234
0.0137526
0.0202099
0.0180959
0.0263852
0.0219669
0.0316456
0.0251395
0.0357467
0.0275591
0.0386794
0.0405856
0.0292681
0.000465598
-0.001167
0.00198708
0.000740598
0.00461381
0.00472948
0.00822378
0.0100134
0.0124978
0.0159359
0.0169982
0.0218847
0.0212986
0.0273453
0.0250814
0.0319639
0.0281833
0.0355775
0.0382294
0.0305394
0.00037501
-0.00154201
0.00162978
-0.000514169
0.00386039
0.00249887
0.00705019
0.00682365
0.0110244
0.0119617
0.015466
0.0174431
0.0199941
0.0228172
0.0242549
0.0277031
0.0279984
0.031834
0.0351724
0.0310554
0.000286837
-0.00182884
0.0012866
-0.00151393
0.00312749
0.000657982
0.00586004
0.0040911
0.0094188
0.00840295
0.0136093
0.0132526
0.0181395
0.018287
0.0226797
0.0231629
0.026937
0.0275767
0.0314376
0.0306718
0.000191087
-0.00201993
0.000936251
-0.00225909
0.00239264
-0.000798405
0.00465425
0.00182949
0.00772976
0.00532744
0.0115258
0.00945654
0.0158512
0.0139616
0.0204461
0.0185681
0.0250248
0.022998
0.0271325
0.0293299
8.02152e-05
-0.00210015
0.000560742
-0.00273962
0.00163
-0.00186766
0.00341319
4.62886e-05
0.0059679
0.00277273
0.00927447
0.00614997
0.0132332
0.0100028
0.0176748
0.0141265
0.0223644
0.0183083
0.0224247
0.0270722
-4.93769e-05
-0.00205077
0.000154295
-0.00294329
0.000828823
-0.00254219
0.00212442
-0.00124931
0.00413242
0.000764734
0.00688491
0.00339748
0.0103565
0.00653122
0.0144709
0.0100121
0.0190835
0.0136958
0.0175032
0.024005
-0.000190318
-0.00186045
-0.000269597
-0.00286401
7.85293e-06
-0.00281964
0.000811467
-0.00205293
0.00225252
-0.00067632
0.00439848
0.00125152
0.00728112
0.00364859
0.0109083
0.00638491
0.0152828
0.00932122
0.0123837
0.0204023
-0.000330903
-0.00152955
-0.000677359
-0.00251755
-0.000773647
-0.00272335
-0.000446549
-0.00238002
0.00042573
-0.0015486
0.00192345
-0.0002462
0.00410768
0.00146436
0.00703052
0.00346207
0.0108728
0.00547893
0.0161967
0.00705988
0.0220834
0.157713
-0.152375
0.0171562
0.150838
-0.145911
0.0130523
0.144443
-0.140339
0.00931662
0.140475
-0.136739
0.00578142
0.138342
-0.134807
0.00243802
0.137714
-0.13437
-0.000582815
0.139208
-0.136187
-0.00291129
0.144852
-0.142524
-0.00343914
0.157048
-0.15652
0.181885
-0.185324
0.024449
0.162532
0.0194976
0.15579
0.0151912
0.148749
0.0112442
0.144422
0.00753105
0.142055
0.00401245
0.141232
0.000829029
0.142392
-0.00169468
0.147376
-0.00261603
0.157969
0.179269
0.0266978
0.166374
0.021888
0.1606
0.0173992
0.153238
0.0132454
0.148576
0.00934742
0.145953
0.00565037
0.144929
0.00228111
0.145761
-0.000462423
0.150119
-0.00178357
0.159291
0.177485
0.0287244
0.168705
0.0242527
0.165071
0.0196201
0.15787
0.0152784
0.152917
0.0111979
0.150033
0.00731714
0.14881
0.00375275
0.149325
0.0007675
0.153105
-0.00094943
0.161007
0.176536
0.0304583
0.168918
0.026576
0.168954
0.0218468
0.1626
0.0173277
0.157436
0.0130609
0.1543
0.00898824
0.152883
0.00521588
0.153098
0.00197097
0.156349
-0.000103289
0.163082
0.176433
0.0317422
0.166506
0.0286768
0.172019
0.0239766
0.1673
0.0193373
0.162076
0.0148954
0.158742
0.0106381
0.15714
0.00666051
0.157075
0.00314756
0.159862
0.000597312
0.165632
0.17703
0.0326744
0.160904
0.0306845
0.174009
0.0260921
0.171892
0.0213259
0.166842
0.0166978
0.16337
0.0122456
0.161592
0.00804462
0.161276
0.00425425
0.163653
0.00129095
0.168595
0.178321
0.0327817
0.152127
0.0320796
0.174711
0.0279455
0.176026
0.0231821
0.171605
0.0184082
0.168144
0.0138012
0.166199
0.00941876
0.165659
0.0053696
0.167702
0.00198906
0.171976
0.18031
0.0329111
0.139618
0.0336189
0.174003
0.0298497
0.179796
0.0250053
0.17645
0.0200615
0.173088
0.0152409
0.17102
0.0106138
0.170286
0.00629025
0.172026
0.00255489
0.175711
0.182865
0.031039
0.124776
0.0340655
0.170977
0.0314276
0.182433
0.0267262
0.181151
0.0216959
0.178118
0.0167877
0.175928
0.0120568
0.175017
0.00748473
0.176598
0.00329745
0.179898
0.186162
0.009038
0.109088
0.00664945
0.0169145
0.1631
0.0205011
0.178847
0.0196847
0.181968
0.015572
0.182231
0.00990011
0.1816
0.00435526
0.180562
0.00026684
0.180686
-0.00147983
0.181645
0.184683
0.00249317
0.10288
0.00371514
0.00993856
0.155655
0.0114693
0.177316
0.0110441
0.182393
0.0118141
0.181461
0.0125464
0.180868
0.0114675
0.18164
0.00867827
0.183475
0.00425051
0.186073
0.188933
-0.00132505
0.108709
-0.00450439
0.00736678
0.146963
0.0125687
0.172114
0.0128199
0.182142
0.010219
0.184062
0.00728847
0.183798
0.00490595
0.184023
0.00312309
0.185258
0.00156375
0.187632
0.190497
-0.000667374
0.127798
-0.018421
0.000228026
0.146068
0.00542553
0.166917
0.0100426
0.177525
0.0125109
0.181594
0.0124226
0.183887
0.0105442
0.185901
0.00706362
0.188739
0.00329729
0.191399
0.193794
0.0137354
0.150288
-0.0362255
0.00655076
0.153252
0.00797433
0.165493
0.00944441
0.176055
0.00905173
0.181986
0.00721748
0.185721
0.00495236
0.188166
0.00264079
0.19105
0.000798694
0.193241
0.194593
0.0324308
0.170833
-0.0529757
0.0152155
0.170468
0.00950806
0.1712
0.011164
0.174399
0.0140775
0.179073
0.0150224
0.184776
0.0132255
0.189963
0.00952407
0.194752
0.00477345
0.197991
0.199366
0.0583693
0.178876
-0.0664128
0.0429702
0.185867
0.0284183
0.185752
0.0189766
0.18384
0.0142295
0.18382
0.0117961
0.187209
0.00967634
0.192083
0.00720623
0.197222
0.00399404
0.201203
0.20336
0.0709874
0.178493
-0.0706039
0.0606015
0.196252
0.0486788
0.197675
0.0391629
0.193356
0.0326892
0.190294
0.0277227
0.192176
0.0225134
0.197292
0.0164656
0.20327
0.00915086
0.208518
0.212511
0.0868779
0.163851
-0.072236
0.0834347
0.199696
0.0696982
0.211412
0.0532005
0.209854
0.0390497
0.204444
0.0287924
0.202433
0.0211399
0.204945
0.0145056
0.209904
0.00775468
0.215269
0.220266
0.081908
-0.0584541
0.0930283
0.092075
0.0829202
0.0696305
0.0552251
0.0410758
0.0273275
0.0137347
0.0117493
0.0025545
-0.00765439
0.0180627
-0.00259821
0.0266315
-0.0130732
0.0357008
-0.0274903
0.0427007
-0.0432253
0.0463173
-0.0565922
0.0454181
-0.0655137
0.0413862
-0.0665719
0.0336039
-0.0644538
-0.0510664
0.0103674
-0.0041582
-0.00365472
0.0197345
-0.0119653
0.0298495
-0.0231882
0.0386401
-0.0362809
0.0441023
-0.0486875
0.0456571
-0.058147
0.0429454
-0.0628021
0.0374553
-0.0610818
0.0291352
-0.0561336
-0.0436609
0.011937
-0.0136946
-0.00240064
0.0234771
-0.0235054
0.0337836
-0.0334947
0.0411263
-0.0436237
0.0444984
-0.0520596
0.0439416
-0.0575902
0.0396346
-0.058495
0.0330208
-0.054468
0.0244756
-0.0475885
-0.0364637
0.016393
-0.0258157
-0.00427188
0.0284462
-0.0355586
0.0374509
-0.0424994
0.0425624
-0.0487352
0.0436593
-0.0531565
0.0411511
-0.0550821
0.0355383
-0.0528822
0.0281718
-0.0471016
0.0197254
-0.0391421
-0.0296729
0.0225486
-0.0393437
-0.00902055
0.0333289
-0.0463389
0.0399643
-0.0491348
0.0425459
-0.0513167
0.0414932
-0.0521038
0.037353
-0.0509419
0.0307945
-0.0463237
0.0230666
-0.0393737
0.015019
-0.0310944
-0.0234554
0.0286848
-0.0524323
-0.0155962
0.0368839
-0.054538
0.0407443
-0.0529953
0.0409349
-0.0515074
0.0380706
-0.0492395
0.0327021
-0.0455734
0.0255864
-0.0392079
0.0178766
-0.0316639
0.0104881
-0.0237058
-0.0179481
0.0332681
-0.0632258
-0.0224745
0.0384058
-0.0596757
0.039621
-0.0542105
0.0378179
-0.0497042
0.0335782
-0.0449998
0.0274107
-0.0394059
0.0201241
-0.0319214
0.0127776
-0.0243174
0.0062476
-0.0171759
-0.0132651
0.0354867
-0.0705779
-0.0281347
0.0377091
-0.061898
0.0367338
-0.0532353
0.0334363
-0.0464066
0.0282752
-0.0398387
0.0217249
-0.0328556
0.0146283
-0.0248247
0.00794068
-0.0176298
0.00235683
-0.011592
-0.00953604
0.0351783
-0.0742976
-0.0314586
0.0349845
-0.0617042
0.0324051
-0.0506559
0.0281152
-0.0421167
0.0224573
-0.0341809
0.0159028
-0.026301
0.00931056
-0.0182325
0.00352215
-0.0118414
-0.00099067
-0.00707919
-0.00670346
0.0326304
-0.0749209
-0.0320071
0.0306544
-0.0597282
0.0270422
-0.0470436
0.0222089
-0.0372834
0.0164274
-0.0283994
0.0101949
-0.0200685
0.00435589
-0.0123935
-0.000361134
-0.00712439
-0.00371954
-0.00372079
-0.0045627
0.0284008
-0.0732893
-0.0300325
0.0252394
-0.0565668
0.0210748
-0.042879
0.0160715
-0.0322801
0.0104752
-0.0228032
0.00482825
-0.0144215
-0.000105798
-0.00745947
-0.00379039
-0.0034398
-0.00606902
-0.00144216
-0.00306951
0.0231159
-0.0702103
-0.0261949
0.0192628
-0.0527137
0.0149161
-0.0385324
0.0100253
-0.0273892
0.00485819
-0.017636
2.83755e-05
-0.00959169
-0.00392828
-0.00350282
-0.0065973
-0.000770775
-0.00802778
-1.16823e-05
-0.00209776
0.0173161
-0.0662753
-0.0212512
0.0131761
-0.0485737
0.00890676
-0.034263
0.00433996
-0.0228224
-0.000163021
-0.0131331
-0.00423918
-0.00551554
-0.00714364
-0.000598355
-0.00887868
0.000964269
-0.00965261
0.000762246
-0.00150529
0.0114205
-0.0618761
-0.0158197
0.00730256
-0.0444557
0.003317
-0.0302775
-0.000748072
-0.0187574
-0.00467849
-0.00920263
-0.00778991
-0.00240412
-0.00975147
0.00136321
-0.0107121
0.00192491
-0.0110299
0.00108007
-0.00116394
0.00576167
-0.0572909
-0.0103469
0.00189895
-0.040593
-0.00167588
-0.0267026
-0.00529862
-0.0151346
-0.00842131
-0.00607994
-0.0106661
-0.000159312
-0.0118157
0.0025128
-0.0122027
0.00231191
-0.0122424
0.00111975
-0.000967353
0.000528664
-0.0526736
-0.00514596
-0.00294075
-0.0371236
-0.00608488
-0.0235585
-0.00905664
-0.0121629
-0.0114379
-0.00369873
-0.0129206
0.00132346
-0.0134402
0.00303242
-0.0134516
0.0023233
-0.0133607
0.00102881
-0.000833758
-0.00399561
-0.0482091
-0.000468901
-0.00707347
-0.0340457
-0.00968205
-0.0209499
-0.0120572
-0.00978768
-0.0137733
-0.00198263
-0.0146427
0.0021928
-0.0147315
0.00312128
-0.0145494
0.00214116
-0.0144393
0.000918657
-0.000703399
-0.00772411
-0.0442175
0.00373258
-0.0104025
-0.0313674
-0.0125116
-0.0188408
-0.0143458
-0.00795344
-0.0155024
-0.000826066
-0.0159367
0.00262714
-0.0157895
0.00297408
-0.0155663
0.00191795
-0.0155143
0.000866703
-0.000532537
-0.0106309
-0.0409207
0.00733412
-0.0130028
-0.0289955
-0.0146124
-0.0172313
-0.0159817
-0.00658417
-0.0167148
-9.29246e-05
-0.0169002
0.0028125
-0.0166965
0.00277041
-0.0165493
0.00177074
-0.0166061
0.000923552
-0.000287038
-0.012902
-0.0384538
0.0104351
-0.0148194
-0.027078
-0.0159432
-0.0161075
-0.0169711
-0.00555626
-0.0175025
0.000438438
-0.0176272
0.00293726
-0.017521
0.00266423
-0.0175307
0.00178039
-0.017719
0.00111184
6.76393e-05
-0.0560348
-0.0260186
0.0435996
-0.0726264
-0.0104864
-0.0798624
-0.0088715
-0.0837734
-0.00164532
-0.0830697
-0.000265196
-0.0817838
0.00165128
-0.0800791
0.000959521
-0.0790382
0.000739582
-0.0783846
0.000458177
5.04276e-05
-0.108757
-0.0175631
0.100302
-0.110269
-0.00897411
-0.107982
-0.0111589
-0.106768
-0.00285919
-0.10433
-0.0027031
-0.10338
0.00070163
-0.102036
-0.000384876
-0.101387
9.05788e-05
-0.100722
-0.00020716
4.54309e-05
-0.121
-0.0154166
0.118854
-0.12095
-0.00902444
-0.124135
-0.0079739
-0.124157
-0.0028369
-0.12396
-0.00290061
-0.123369
0.00011076
-0.122188
-0.00156568
-0.121997
-0.00010002
-0.121434
-0.000770678
0.000116441
-0.143286
-0.0122506
0.14012
-0.144959
-0.00735111
-0.146531
-0.0064025
-0.145725
-0.00364206
-0.145666
-0.00296021
-0.144673
-0.000882149
-0.144241
-0.00199753
-0.144139
-0.000201834
-0.143659
-0.00125123
0.000275679
-0.167551
-0.00924417
0.164544
-0.168669
-0.00623268
-0.169504
-0.00556771
-0.169853
-0.00329265
-0.170138
-0.00267515
-0.169674
-0.00134679
-0.1699
-0.00177158
-0.169516
-0.000585657
-0.169582
-0.00118558
0.000378452
-0.195775
-0.00760395
0.194135
-0.196906
-0.0051013
-0.198091
-0.00438317
-0.198723
-0.00266069
-0.199058
-0.00233943
-0.199055
-0.00134983
-0.199274
-0.00155294
-0.199095
-0.000764319
-0.199338
-0.000942983
0.000172742
-0.231905
-0.00549457
0.229796
-0.233237
-0.00376933
-0.234304
-0.00331633
-0.234823
-0.00214156
-0.235305
-0.00185758
-0.235442
-0.00121303
-0.23567
-0.00132487
-0.235617
-0.000816861
-0.235785
-0.000774903
7.25529e-05
-0.280102
-0.00355141
0.278158
-0.281008
-0.0028624
-0.281911
-0.00241408
-0.282533
-0.00151959
-0.283047
-0.00134371
-0.283457
-0.000802869
-0.28386
-0.000921228
-0.284314
-0.000362873
-0.284916
-0.000173213
0.000157731
-0.33396
-0.0019251
0.332334
-0.335758
-0.00106424
-0.33729
-0.000881977
-0.338262
-0.000548215
-0.339054
-0.000550793
-0.339517
-0.000339939
-0.340122
-0.000316458
-0.340626
0.000141264
-0.340985
0.00018569
0.000159905
-0.375574
0.373649
-0.376638
-0.37752
-0.378069
-0.378619
-0.378959
-0.379276
-0.379135
-0.378949
-0.0203542
0.0493922
0.0145616
-0.0233267
0.103274
-0.0233928
0.11892
-0.0227094
0.139436
-0.0217731
0.163608
-0.0202783
0.19264
-0.0181522
0.22767
-0.014256
0.274262
-0.00852012
0.326598
0.365129
-0.0195555
0.0539096
0.015038
-0.0216944
0.105413
-0.021707
0.118932
-0.0208981
0.138627
-0.0199668
0.162677
-0.0184144
0.191087
-0.0162235
0.225479
-0.0126278
0.270666
-0.00733391
0.321304
0.357795
-0.0189063
0.0576959
0.01512
-0.0204186
0.106925
-0.0202887
0.118802
-0.0194553
0.137794
-0.0185107
0.161732
-0.0170326
0.189609
-0.0149054
0.223351
-0.0116295
0.267391
-0.00663683
0.316311
0.351158
-0.0180337
0.0608472
0.0148824
-0.0191223
0.108014
-0.0187901
0.11847
-0.0178947
0.136899
-0.0169303
0.160768
-0.0155068
0.188186
-0.0134859
0.221331
-0.0105073
0.264412
-0.00591563
0.31172
0.345243
-0.0168554
0.063321
0.0143815
-0.0176186
0.108777
-0.0171768
0.118028
-0.0162427
0.135964
-0.0152645
0.159789
-0.0138888
0.18681
-0.0120061
0.219448
-0.00930677
0.261713
-0.00520126
0.307614
0.340041
-0.0154167
0.0650552
0.0136825
-0.0158793
0.10924
-0.015417
0.117566
-0.014488
0.135035
-0.0135063
0.158808
-0.0121906
0.185494
-0.0104699
0.217727
-0.00805552
0.259298
-0.00448531
0.304044
0.335556
-0.0137931
0.0659922
0.0128561
-0.0139951
0.109442
-0.0135433
0.117114
-0.0126424
0.134135
-0.0116597
0.157825
-0.0104189
0.184254
-0.00887642
0.216185
-0.0067665
0.257188
-0.00375366
0.301031
0.331802
-0.0120477
0.0660575
0.0119824
-0.0120435
0.109438
-0.011607
0.116678
-0.0107411
0.133269
-0.00975022
0.156834
-0.00859127
0.183095
-0.00723537
0.214829
-0.00544986
0.255403
-0.00300453
0.298586
0.328798
-0.0102429
0.0651477
0.0111526
-0.0100728
0.109268
-0.00964555
0.11625
-0.00882188
0.132445
-0.00781091
0.155823
-0.00673432
0.182018
-0.00556498
0.213659
-0.00411701
0.253955
-0.00224397
0.296713
0.326554
-0.00844017
0.0631191
0.0104688
-0.00812698
0.108954
-0.00768277
0.115806
-0.00691686
0.131679
-0.00587025
0.154777
-0.00487714
0.181025
-0.00388509
0.212667
-0.00278496
0.252855
-0.00148358
0.295411
0.32507
-0.0068017
0.0598763
0.0100445
-0.00625868
0.108411
-0.00574657
0.115294
-0.00506386
0.130996
-0.00397027
0.153683
-0.00305186
0.180107
-0.00223357
0.211849
-0.00147127
0.252092
-0.00073256
0.294672
0.324338
-0.00546171
0.0553565
0.00998148
-0.00449091
0.107441
-0.00392089
0.114724
-0.0033053
0.130381
-0.00216283
0.152541
-0.00127387
0.179218
-0.000654311
0.21123
-0.000186227
0.251624
6.30314e-06
0.29448
0.324344
-0.00454285
0.0495318
0.0103675
-0.00285771
0.105755
-0.00228668
0.114153
-0.00167547
0.12977
-0.000518561
0.151384
0.000383104
0.178316
0.000880434
0.210732
0.0010608
0.251444
0.000714827
0.294826
0.325059
-0.00415079
0.0424421
0.0112405
-0.00138613
0.102991
-0.000888521
0.113655
-0.000215538
0.129097
0.00104673
0.150121
0.00198463
0.177378
0.0023597
0.210357
0.0022446
0.251559
0.00139347
0.295677
0.326452
-0.0043513
0.0342283
0.0125651
-4.65001e-05
0.0986859
0.000306621
0.113302
0.00115857
0.128245
0.00250042
0.14878
0.00345769
0.176421
0.00374103
0.210074
0.00337049
0.25193
0.00204425
0.297003
0.328497
-0.00515542
0.0251653
0.0142185
0.000692559
0.092838
0.0015121
0.112483
0.00235354
0.127403
0.00374945
0.147384
0.00476143
0.175409
0.00497899
0.209856
0.00439053
0.252518
0.00263674
0.298757
0.331133
-0.00650535
0.0156675
0.0160031
0.00111263
0.08522
0.00243425
0.111161
0.00336201
0.126476
0.00482922
0.145916
0.00593429
0.174304
0.00612644
0.209664
0.00535002
0.253294
0.00320331
0.300904
0.334337
-0.00829758
0.00627908
0.017686
0.00106485
0.0758576
0.00303841
0.109188
0.00409533
0.125419
0.00564192
0.14437
0.00684677
0.173099
0.00704855
0.209462
0.00614362
0.254199
0.0036753
0.303372
0.338012
-0.0102876
-0.0025364
0.0191031
0.000419428
0.0651505
0.00356304
0.106044
0.0047785
0.124203
0.00639821
0.14275
0.00773046
0.171767
0.00795523
0.209238
0.00691743
0.255237
0.0041448
0.306145
0.342157
-0.0124028
-0.0104739
0.0203403
-0.00123608
0.0539838
0.00323038
0.101578
0.00482352
0.12261
0.00655214
0.141021
0.00800877
0.17031
0.00834893
0.208897
0.00732515
0.256261
0.0044004
0.309069
0.346557
-0.0946719
-0.0215895
0.105788
-0.0776192
0.0369311
-0.0646013
0.0885596
-0.0562601
0.114269
-0.0452662
0.130028
-0.03558
0.160624
-0.0279729
0.20129
-0.0200355
0.248324
-0.0105133
0.299547
0.336044
-0.120111
-0.0309309
0.129452
-0.100536
0.0173563
-0.0788968
0.0669206
-0.0672484
0.10262
-0.0570439
0.119823
-0.0459333
0.149513
-0.0362313
0.191588
-0.0264868
0.238579
-0.0144268
0.287487
0.321617
-0.141589
-0.0376775
0.148335
-0.123825
-0.000406969
-0.0999194
0.0430145
-0.0818924
0.0845934
-0.0704892
0.10842
-0.0590132
0.138037
-0.0464913
0.179066
-0.0335185
0.225606
-0.0176377
0.271606
0.303979
-0.161572
-0.0384621
0.162356
-0.14942
-0.0125587
-0.127351
0.0209456
-0.104379
0.0616215
-0.0885004
0.092541
-0.075338
0.124875
-0.0605746
0.164303
-0.0439406
0.208972
-0.0234422
0.251108
0.280537
-0.175561
-0.0322787
0.169378
-0.171727
-0.0163928
-0.156916
0.00613456
-0.134229
0.0389341
-0.113358
0.07167
-0.0952263
0.106743
-0.0765118
0.145589
-0.0549215
0.187382
-0.028791
0.224977
0.251746
-0.182544
-0.0218243
0.17209
-0.186323
-0.0126139
-0.180534
0.000346008
-0.16499
0.0233903
-0.144217
0.0508963
-0.121441
0.0839675
-0.0969724
0.12112
-0.0692395
0.159649
-0.0377575
0.193496
0.213989
-0.182552
-0.0108249
0.171553
-0.189988
-0.00517806
-0.191942
0.00229987
-0.184353
0.0158018
-0.168361
0.0349041
-0.144733
0.0603391
-0.114914
0.0913015
-0.0790458
0.123781
-0.0385587
0.153008
0.17543
-0.181346
-0.000775232
0.171296
-0.189126
0.00260224
-0.19394
0.00711386
-0.192839
0.014701
-0.183726
0.0257904
-0.164661
0.0412748
-0.135262
0.0619018
-0.0966977
0.0852167
-0.0520757
0.108386
0.123354
-0.186094
0.00252003
0.182799
-0.187775
0.0042827
-0.187397
0.00673638
-0.183089
0.0103931
-0.173067
0.0157683
-0.155016
0.023223
-0.125919
0.032805
-0.0848225
0.0441205
-0.0350331
0.058597
0.0883212
-0.284247
0.286767
-0.279964
-0.273228
-0.262835
-0.247067
-0.223844
-0.191039
-0.146918
-0.0883212
-0.0340141
0.110944
0.0288579
-0.0359247
0.131363
-0.0349687
0.147379
-0.0311389
0.158527
-0.025498
0.163737
-0.0191612
0.165753
-0.0128803
0.165272
-0.00713273
0.165549
-0.00439134
0.180058
0.282376
-0.03376
0.113388
0.0313159
-0.0351878
0.13279
-0.0338665
0.146058
-0.0299619
0.154622
-0.0244992
0.158275
-0.0183173
0.159571
-0.0121393
0.159094
-0.00676149
0.160171
-0.00393024
0.177226
0.278446
-0.0337007
0.114844
0.0322443
-0.0342918
0.133382
-0.0322274
0.143993
-0.0280189
0.150414
-0.0226499
0.152906
-0.0167952
0.153716
-0.0110374
0.153336
-0.00610715
0.155241
-0.00357532
0.174695
0.27487
-0.0332275
0.115889
0.0321824
-0.0329482
0.133102
-0.030191
0.141236
-0.0257892
0.146012
-0.020602
0.147718
-0.0151267
0.148241
-0.00984348
0.148053
-0.00540489
0.150802
-0.00316347
0.172453
0.271707
-0.0322899
0.116719
0.0314599
-0.0313304
0.132143
-0.0280923
0.137998
-0.0236094
0.141529
-0.0186307
0.14274
-0.0135186
0.143129
-0.00866591
0.1432
-0.00468312
0.146819
-0.00270665
0.170477
0.269
-0.0308088
0.117302
0.0302262
-0.0293164
0.13065
-0.0258506
0.134532
-0.0214432
0.137121
-0.0167286
0.138025
-0.0119724
0.138373
-0.0075193
0.138747
-0.00394747
0.143247
-0.00221768
0.168747
0.266782
-0.0288572
0.117595
0.0285644
-0.0269402
0.128733
-0.0234365
0.131029
-0.0192321
0.132917
-0.0148402
0.133633
-0.0104539
0.133986
-0.00638962
0.134682
-0.00319702
0.140055
-0.00170462
0.167255
0.265078
-0.0265581
0.117608
0.0265445
-0.0243528
0.126528
-0.020945
0.127621
-0.0170115
0.128983
-0.0129695
0.129591
-0.00895991
0.129977
-0.00527387
0.130996
-0.00243471
0.137216
-0.00117191
0.165992
0.263906
-0.024025
0.117388
0.0242452
-0.0216838
0.124187
-0.0184707
0.124408
-0.0148403
0.125353
-0.0111496
0.1259
-0.00750731
0.126335
-0.00418115
0.12767
-0.00166882
0.134703
-0.000622282
0.164945
0.263284
-0.0213601
0.116992
0.0217561
-0.0190199
0.121847
-0.0160664
0.121454
-0.0127552
0.122042
-0.00940602
0.122551
-0.00611352
0.123042
-0.00312244
0.124679
-0.000910687
0.132492
-4.91563e-05
0.164084
0.263234
-0.0186593
0.116471
0.0191806
-0.0164353
0.119623
-0.0137661
0.118785
-0.0107791
0.119055
-0.00775741
0.11953
-0.00479414
0.120079
-0.00210969
0.121995
-0.000180993
0.130563
0.000487759
0.163415
0.263722
-0.0159791
0.115866
0.0165841
-0.0139645
0.117608
-0.0115786
0.116399
-0.00891543
0.116392
-0.00620501
0.116819
-0.00355115
0.117425
-0.00114496
0.119588
0.000577909
0.12884
0.00104697
0.162946
0.264769
-0.0134156
0.115248
0.0140336
-0.0116459
0.115838
-0.00953168
0.114285
-0.00718186
0.114042
-0.00476294
0.1144
-0.00239669
0.115059
-0.000236718
0.117428
0.0012879
0.127315
0.00159988
0.162634
0.266369
-0.011007
0.114683
0.0115716
-0.00948958
0.114321
-0.00763686
0.112432
-0.0055852
0.11199
-0.00343906
0.112254
-0.00134051
0.11296
0.000584859
0.115503
0.00195584
0.125944
0.00213709
0.162453
0.268506
-0.00876291
0.114226
0.0092205
-0.00749141
0.113049
-0.00589959
0.11084
-0.0041281
0.110219
-0.00223894
0.110365
-0.000395379
0.111117
0.00134193
0.113766
0.00257885
0.124707
0.00265369
0.162378
0.27116
-0.00670564
0.113924
0.00700724
-0.00565125
0.111995
-0.00432406
0.109513
-0.00281221
0.108707
-0.00116913
0.108722
0.000465749
0.109482
0.00202063
0.112211
0.00315048
0.123578
0.0031417
0.162387
0.274302
-0.00479625
0.113817
0.00490359
-0.00394462
0.111143
-0.00289792
0.108467
-0.00163257
0.107442
-0.000242019
0.107331
0.0012232
0.108016
0.0026154
0.110819
0.00366754
0.122525
0.00359754
0.162457
0.277899
-0.00314301
0.11397
0.00298938
-0.00242126
0.110422
-0.00164026
0.107686
-0.000608446
0.10641
0.000606345
0.106117
0.00186922
0.106754
0.0031205
0.109567
0.00412119
0.121525
0.00400277
0.162575
0.281902
-0.00142582
0.114417
0.000979283
-0.000927675
0.109923
-0.000453318
0.107211
0.000362674
0.105594
0.0013588
0.10512
0.00242945
0.105683
0.0035529
0.108444
0.00452754
0.12055
0.0043707
0.162732
0.286273
-0.000436178
0.115464
-0.000611164
8.9544e-05
0.109398
0.000462169
0.106839
0.00108636
0.10497
0.00188937
0.104317
0.00281546
0.104757
0.00384262
0.107417
0.00481094
0.119582
0.00466843
0.162874
0.290941
-0.0950339
0.100436
0.110062
-0.0763978
0.0907616
-0.0631025
0.0935433
-0.0491558
0.0910229
-0.0362
0.0913616
-0.0237534
0.0923101
-0.012614
0.0962774
-0.00395139
0.110919
-4.72538e-05
0.15897
0.290894
-0.0968386
0.085572
0.111703
-0.0785034
0.0724264
-0.0650695
0.0801094
-0.0500129
0.0759663
-0.0367982
0.0781469
-0.0241271
0.079639
-0.0131332
0.0852836
-0.0045301
0.102316
-0.000563629
0.155004
0.29033
-0.0956877
0.0679265
0.113333
-0.0789986
0.0557373
-0.0651128
0.0662236
-0.0500536
0.0609072
-0.0367374
0.0648307
-0.0239346
0.0668362
-0.0131083
0.0744573
-0.00502644
0.0942341
-0.000984595
0.150962
0.289346
-0.0949588
0.0498318
0.113053
-0.0793302
0.0401087
-0.0642717
0.0511652
-0.0496906
0.046326
-0.0363752
0.0515153
-0.0238332
0.0542942
-0.0131466
0.0637707
-0.00534556
0.0864331
-0.00131336
0.14693
0.288032
-0.0938318
0.0320556
0.111608
-0.0793111
0.025588
-0.0634349
0.035289
-0.0495382
0.0324293
-0.0366668
0.038644
-0.0251765
0.0428038
-0.0150469
0.053641
-0.00762242
0.0790087
-0.00297195
0.142279
0.28506
-0.0930242
0.0152196
0.10986
-0.0787374
0.0113012
-0.063009
0.0195606
-0.050104
0.0195243
-0.0385326
0.0270727
-0.0288369
0.0331081
-0.0198966
0.0447007
-0.0123281
0.0714402
-0.00619584
0.136147
0.278864
-0.094734
-0.00173049
0.111684
-0.0810791
-0.00235368
-0.0668154
0.00529692
-0.0559016
0.00861042
-0.0464791
0.0176502
-0.0391255
0.0257545
-0.0328218
0.038397
-0.0261507
0.0647691
-0.0161105
0.126107
0.262754
-0.112234
-0.014352
0.124856
-0.103249
-0.0113384
-0.0937725
-0.00417985
-0.0854117
0.000249524
-0.0767608
0.00899934
-0.0687759
0.0177696
-0.061633
0.0312541
-0.0527022
0.0558383
-0.0358435
0.109248
0.22691
-0.166671
-0.0144106
0.16673
-0.169411
-0.0085989
-0.169676
-0.00391458
-0.168838
-0.000588308
-0.163892
0.00405347
-0.156145
0.0100225
-0.144199
0.0193084
-0.123933
0.0355723
-0.0830541
0.0683689
0.143856
-0.26808
0.253669
-0.276679
-0.280594
-0.281182
-0.277128
-0.267106
-0.247797
-0.212225
-0.143856
0.00049934
0.112292
-0.00273007
-0.00099714
0.113199
-0.00224662
0.114583
-0.00329711
0.114104
-0.00446029
0.112771
-0.00611333
0.111513
-0.00826679
0.113837
-0.00998764
0.126576
-0.00877842
0.16552
0.244891
0.00232022
0.115191
-0.00521846
-3.99154e-05
0.115559
-0.00155927
0.116102
-0.00288903
0.115434
-0.00431453
0.114197
-0.00614499
0.113344
-0.00833612
0.116029
-0.010053
0.128293
-0.00830373
0.163771
0.236587
0.00430293
0.118505
-0.00761762
0.00165732
0.118205
-0.000467376
0.118227
-0.00209109
0.117057
-0.00381499
0.115921
-0.00584413
0.115373
-0.00809875
0.118283
-0.00974216
0.129937
-0.00806995
0.162099
0.228517
0.00626558
0.122254
-0.010014
0.00326875
0.121202
0.000833778
0.120662
-0.00114706
0.119038
-0.00312927
0.117903
-0.00535711
0.117601
-0.00767715
0.120603
-0.00929984
0.131559
-0.00775047
0.16055
0.220767
0.00823162
0.126478
-0.0124554
0.00489542
0.124538
0.0022361
0.123321
-0.000172669
0.121447
-0.00231334
0.120043
-0.00470866
0.119996
-0.00708922
0.122984
-0.0087223
0.133192
-0.00734781
0.159175
0.213419
0.0103101
0.131127
-0.0149594
0.00663436
0.128214
0.00372835
0.126227
0.00112998
0.124045
-0.00135559
0.122529
-0.0038991
0.12254
-0.00634515
0.12543
-0.00801557
0.134863
-0.00686857
0.158028
0.206551
0.0125213
0.136129
-0.017523
0.00851904
0.132216
0.00535908
0.129387
0.00253096
0.126874
-0.000268315
0.125328
-0.00292425
0.125196
-0.00544977
0.127955
-0.00718766
0.136601
-0.00631465
0.157155
0.200236
0.0148438
0.141408
-0.0201231
0.0105362
0.136524
0.00712486
0.132798
0.00406187
0.129937
0.00109405
0.128296
-0.00179042
0.12808
-0.00441109
0.130576
-0.00624776
0.138437
-0.00568665
0.156594
0.194549
0.0172459
0.14687
-0.0227081
0.0126632
0.141106
0.00900885
0.136453
0.00571921
0.133226
0.00255999
0.131455
-0.000528067
0.131168
-0.00324443
0.133292
-0.00520935
0.140402
-0.00498987
0.156374
0.189559
0.0196843
-0.0251888
0.0148794
0.0109935
0.00748049
0.00412908
0.000926694
-0.00196828
-0.00408952
-0.00423523
-0.000452268
-0.00107728
-0.00102007
-0.00194975
-0.00142928
-0.00231415
-0.00151332
-0.00229598
-0.0011609
-0.00190102
-0.000297415
-0.00110969
0.00110146
6.54896e-05
0.00301541
0.00154812
0.00530577
0.00318858
0.00471126
-0.000534253
-0.000543029
-0.0012411
-0.0012429
-0.0018493
-0.00170595
-0.00220799
-0.00193728
-0.00222256
-0.00188645
-0.00183474
-0.0014975
-0.00102578
-0.000743472
0.000180374
0.000341961
0.00174052
0.00162844
0.00279706
-0.000557913
1.48835e-05
-0.00129128
-0.000509534
-0.00193775
-0.00105948
-0.00236357
-0.00151145
-0.00249095
-0.00175908
-0.00227116
-0.00171729
-0.00167774
-0.00133689
-0.000707661
-0.000628115
0.000633823
0.000286953
0.00103024
-0.000515174
0.000530058
-0.00114647
0.000121761
-0.00164319
-0.000562759
-0.00188574
-0.0012689
-0.00181149
-0.00183333
-0.00138125
-0.00214753
-0.000566653
-0.00215149
0.000652003
-0.00184677
0.00228632
-0.00134736
-0.000955318
-0.000409388
0.000939446
-0.000813799
0.000526171
-0.00097612
-0.000400437
-0.000788818
-0.00145621
-0.000205127
-0.00241703
0.000794564
-0.00314722
0.00222376
-0.00358068
0.00409419
-0.00371721
0.00640069
-0.00365386
-0.00357518
-0.000254112
0.00119356
-0.000328467
0.000600527
-5.09689e-06
-0.000723807
0.000807386
-0.00226869
0.00213016
-0.0037398
0.00395117
-0.00496823
0.00624824
-0.00587775
0.00899618
-0.00646515
0.0121451
-0.00680276
-0.0070263
-6.8209e-05
0.00126177
0.000258587
0.000273731
0.00116804
-0.00163326
0.00271969
-0.00382035
0.00489101
-0.00591111
0.00761703
-0.00769425
0.0108208
-0.00908154
0.014427
-0.0100713
0.0183392
-0.0107149
-0.0111617
0.000132588
0.00112918
0.000896924
-0.000490606
0.00243702
-0.00317335
0.00475219
-0.00613552
0.00774642
-0.00890534
0.0112799
-0.0112277
0.0152087
-0.0130104
0.0194047
-0.0142673
0.0237461
-0.0150563
-0.0155503
0.000333243
0.000795937
0.00154649
-0.00170386
0.00371022
-0.00533708
0.00672552
-0.00915081
0.0103902
-0.01257
0.0144745
-0.015312
0.0187715
-0.0173074
0.0231149
-0.0186107
0.0273817
-0.0193231
-0.0196272
0.000529742
0.000266195
0.00217976
-0.00335388
0.00490994
-0.00806725
0.008478
-0.0127189
0.0125529
-0.0166449
0.0168217
-0.0195808
0.0210411
-0.0215268
0.0250435
-0.0226131
0.0287277
-0.0230073
-0.0229066
0.000727288
-0.000461093
0.00279264
-0.00541923
0.00598954
-0.0112642
0.00989308
-0.0166224
0.014049
-0.0208008
0.0180998
-0.0236317
0.0218153
-0.0252423
0.0250711
-0.0258688
0.0278143
-0.0257505
-0.0251248
0.000918034
-0.00137913
0.00333801
-0.0078392
0.0068369
-0.014763
0.0108001
-0.0205857
0.014696
-0.0246966
0.018185
-0.0271207
0.0211012
-0.0281584
0.0233916
-0.0281592
0.0250668
-0.0274257
-0.0262529
0.00109979
-0.00247891
0.00379015
-0.0105296
0.00739086
-0.0183638
0.011135
-0.0243298
0.0144898
-0.0280514
0.0171964
-0.0298273
0.0191829
-0.0301449
0.0204699
-0.0294462
0.0211214
-0.0280772
-0.0263826
0.00126324
-0.00374215
0.00411042
-0.0133767
0.00759937
-0.0218527
0.0108907
-0.0276211
0.0135289
-0.0306896
0.0153714
-0.0316698
0.0164387
-0.0312122