/*--------------------------------*- C++ -*----------------------------------*\
  =========                 |
  \\      /  F ield         | OpenFOAM: The Open Source CFD Toolbox
   \\    /   O peration     | Website:  https://openfoam.org
    \\  /    A nd           | Version:  7
     \\/     M anipulation  |
\*---------------------------------------------------------------------------*/
FoamFile
{
    version     2.0;
    format      ascii;
    class       volVectorField;
    location    "8.1";
    object      U;
}
// * * * * * * * * * * * * * * * * * * * * * * * * * * * * * * * * * * * * * //

dimensions      [0 1 -1 0 0 0 0];

internalField   nonuniform List<vector> 
32000
(
(0.000212519 -0.00438656 -2.46142e-22)
(0.00128238 -0.00857331 0)
(0.00331469 -0.00869549 -2.20459e-21)
(0.00592284 -0.0056195 0)
(0.00905388 3.91933e-05 2.29949e-21)
(0.0126254 0.00781357 0)
(0.0165855 0.0173289 2.37791e-21)
(0.0208962 0.0282787 -1.80821e-21)
(0.0255248 0.0404142 5.36458e-25)
(0.0304419 0.0535277 6.32962e-25)
(0.0356191 0.067446 -6.22835e-22)
(0.0410296 0.0820211 2.51408e-21)
(0.0466469 0.0971239 0)
(0.0524435 0.112639 -6.38704e-22)
(0.0583912 0.12846 6.41354e-22)
(0.0644607 0.14449 0)
(0.0706213 0.160635 3.24519e-21)
(0.0768421 0.176808 -6.51177e-22)
(0.0830914 0.192923 0)
(0.0893364 0.208899 1.31934e-21)
(0.0955447 0.224658 1.32262e-21)
(0.101684 0.240125 0)
(0.107724 0.255228 0)
(0.113634 0.269902 0)
(0.119387 0.284085 0)
(0.124956 0.297722 0)
(0.130316 0.310763 0)
(0.135447 0.323165 0)
(0.14033 0.334893 -2.72624e-21)
(0.14495 0.345917 0)
(0.149294 0.356217 2.7469e-21)
(0.153355 0.365776 0)
(0.157127 0.374587 0)
(0.160606 0.382646 0)
(0.163796 0.389954 -2.78491e-21)
(0.1667 0.396512 -1.40654e-21)
(0.169328 0.402318 4.21906e-21)
(0.171699 0.407359 4.84488e-24)
(0.173819 0.411617 2.8346e-21)
(0.17558 0.415042 4.27999e-24)
(0.000295531 -0.00462131 0)
(0.00140053 -0.00920292 4.30232e-21)
(0.00333026 -0.00967492 1.10115e-21)
(0.0057314 -0.00691637 -1.09163e-24)
(0.00856846 -0.00155581 -1.14985e-21)
(0.0117773 0.00593158 0)
(0.0153199 0.015167 2.37769e-21)
(0.0191692 0.0258415 -2.41066e-21)
(0.0233015 0.0377061 0)
(0.0276943 0.0505528 -4.93446e-21)
(0.0323264 0.0642091 0)
(0.0371767 0.0785289 -7.53911e-21)
(0.0422229 0.0933849 0)
(0.0474423 0.108664 0)
(0.0528112 0.124262 2.56887e-21)
(0.0583032 0.140084 -2.57715e-21)
(0.0638918 0.156039 -2.59478e-21)
(0.0695499 0.172042 0)
(0.0752491 0.188011 7.8533e-21)
(0.08096 0.203864 -2.62273e-21)
(0.0866539 0.219527 4.33931e-24)
(0.0923017 0.234926 -7.93635e-21)
(0.0978743 0.24999 -5.31403e-21)
(0.103345 0.264655 -2.67858e-21)
(0.108688 0.278859 8.02552e-21)
(0.113878 0.292546 -8.07404e-21)
(0.118893 0.305667 8.11301e-21)
(0.123712 0.318177 -1.08148e-20)
(0.128318 0.330038 -2.70694e-21)
(0.132695 0.341221 3.29075e-23)
(0.136832 0.351701 -8.17208e-21)
(0.140718 0.36146 -5.47821e-21)
(0.144347 0.370487 1.10536e-20)
(0.147717 0.378775 -1.10406e-20)
(0.150827 0.386321 -2.75792e-21)
(0.153681 0.393123 -1.11552e-20)
(0.156286 0.399174 -1.03187e-23)
(0.158662 0.404457 2.81703e-21)
(0.160801 0.40895 -1.11873e-20)
(0.162593 0.412598 -1.58934e-20)
(0.000388286 -0.00485658 -9.86553e-22)
(0.00154206 -0.00982808 -2.15106e-21)
(0.00337596 -0.0106251 -9.92628e-21)
(0.00557619 -0.0081632 0)
(0.0081264 -0.00308494 1.15034e-21)
(0.0109802 0.00412772 -1.16991e-21)
(0.0141133 0.0130921 -1.42658e-20)
(0.017511 0.0234979 4.82143e-21)
(0.0211585 0.0350944 -2.44129e-21)
(0.0250399 0.0476753 1.47996e-20)
(0.0291404 0.0610694 4.98188e-21)
(0.0334446 0.0751316 2.51455e-21)
(0.0379348 0.0897364 -1.01232e-20)
(0.0425921 0.104773 0)
(0.0473962 0.12014 0)
(0.0523252 0.135744 5.16279e-21)
(0.0573556 0.151499 1.45587e-23)
(0.0624632 0.167319 -5.19757e-21)
(0.0676233 0.183125 -5.23088e-21)
(0.0728098 0.19884 -1.04909e-20)
(0.0779964 0.214389 1.58128e-20)
(0.0831567 0.2297 1.76556e-23)
(0.088265 0.244704 -1.01152e-23)
(0.0932964 0.259338 5.3127e-21)
(0.0982271 0.273539 -1.07191e-20)
(0.103035 0.287253 2.14427e-20)
(0.107698 0.300428 0)
(0.112196 0.313021 5.41343e-21)
(0.116513 0.324991 5.43313e-21)
(0.120635 0.336308 1.09176e-20)
(0.124548 0.346944 3.29014e-23)
(0.128243 0.356879 0)
(0.131713 0.3661 5.53217e-21)
(0.134954 0.374596 -5.45383e-21)
(0.137966 0.382361 -5.49164e-21)
(0.14075 0.389388 1.66959e-20)
(0.143314 0.395667 -1.65867e-20)
(0.145675 0.401177 1.11902e-20)
(0.147813 0.405894 -1.66564e-20)
(0.149617 0.409759 6.24735e-21)
(0.000489621 -0.00506179 7.89255e-21)
(0.00170215 -0.0103825 -8.61398e-21)
(0.0034444 -0.0114853 1.76521e-20)
(0.00544748 -0.00930607 0)
(0.00771475 -0.00450025 6.90189e-21)
(0.0102193 0.00244406 1.17056e-20)
(0.0129512 0.0111403 2.37747e-21)
(0.0159061 0.0212783 1.36608e-24)
(0.0190788 0.0326057 7.32117e-21)
(0.0224608 0.0449179 -2.46869e-21)
(0.0260432 0.0580447 1.24495e-20)
(0.0298154 0.071843 -1.50702e-20)
(0.0337644 0.0861895 1.51805e-20)
(0.0378751 0.100975 -5.09892e-21)
(0.0421305 0.116101 5.12014e-21)
(0.0465117 0.131477 -1.03015e-20)
(0.0509985 0.147018 -1.55358e-20)
(0.0555697 0.162642 5.19286e-21)
(0.0602034 0.178272 -5.23163e-21)
(0.0648764 0.193832 1.57231e-20)
(0.0695651 0.209249 -1.05308e-20)
(0.0742459 0.224454 -1.05542e-20)
(0.0788951 0.239378 0)
(0.0834903 0.253958 0)
(0.0880101 0.268135 -1.06607e-20)
(0.0924334 0.281852 -1.07201e-20)
(0.0967401 0.295059 -1.07297e-20)
(0.100912 0.30771 0)
(0.104933 0.319765 0)
(0.108788 0.331192 -2.17233e-20)
(0.112466 0.341961 -8.74147e-23)
(0.115957 0.35205 1.09369e-20)
(0.119253 0.361442 -1.09037e-20)
(0.12235 0.370124 -1.10264e-20)
(0.125246 0.378088 1.10117e-20)
(0.127943 0.385322 0)
(0.130448 0.391813 1.10903e-20)
(0.132776 0.397537 -2.21918e-20)
(0.134896 0.402466 2.2197e-20)
(0.136694 0.406539 -2.51777e-20)
(0.000597772 -0.00525537 -3.9431e-21)
(0.00187774 -0.0109026 6.46168e-21)
(0.0035319 -0.0122892 -8.82805e-21)
(0.00534104 -0.0103753 0)
(0.0073297 -0.00582856 -1.15046e-20)
(0.00948991 0.000856677 -7.02427e-21)
(0.0118267 0.00929103 9.51146e-21)
(0.0143474 0.0191638 0)
(0.0170552 0.0302232 -1.46423e-20)
(0.0199489 0.0422655 -4.93474e-21)
(0.0230257 0.0551224 -4.97818e-21)
(0.0262799 0.0686528 1.00495e-20)
(0.0297026 0.0827357 -1.01183e-20)
(0.0332817 0.097264 5.08859e-21)
(0.0370036 0.112141 0)
(0.0408526 0.12728 1.54567e-20)
(0.0448108 0.142597 5.18357e-21)
(0.0488598 0.158013 -1.04087e-20)
(0.0529805 0.173452 2.08699e-20)
(0.0571523 0.188842 -2.09485e-20)
(0.061354 0.204112 2.09944e-20)
(0.065564 0.219192 1.05542e-20)
(0.0697614 0.234018 0)
(0.0739259 0.248525 1.06472e-20)
(0.0780379 0.262656 4.14053e-23)
(0.0820779 0.276355 0)
(0.0860274 0.289571 1.07297e-20)
(0.0898694 0.302258 -1.07884e-20)
(0.0935883 0.314376 1.07435e-20)
(0.0971704 0.325888 2.16881e-20)
(0.100604 0.336767 -2.1694e-20)
(0.10388 0.346987 2.17314e-20)
(0.10699 0.356529 0)
(0.10993 0.365377 0)
(0.112697 0.373519 2.19269e-20)
(0.115292 0.380942 0)
(0.117722 0.387629 0)
(0.120001 0.393552 -2.21011e-20)
(0.122086 0.39868 2.20118e-20)
(0.123861 0.402954 1.25703e-20)
(0.000711386 -0.00542769 1.97522e-21)
(0.00206484 -0.0113678 0)
(0.00363318 -0.0130149 1.76735e-20)
(0.00525013 -0.0113497 2.258e-21)
(0.00696242 -0.00705087 2.30346e-21)
(0.00878256 -0.000617481 1.40558e-20)
(0.0107304 0.00755921 1.90285e-20)
(0.0128241 0.0171682 0)
(0.0150762 0.0279588 4.88175e-21)
(0.0174927 0.0397287 1.47998e-20)
(0.0200763 0.0523118 1.99168e-20)
(0.0228261 0.0655692 -5.02337e-21)
(0.0257366 0.0793817 -1.51741e-20)
(0.0287993 0.0936448 0)
(0.0320034 0.108265 2.04773e-20)
(0.0353356 0.123156 0)
(0.0387807 0.138238 3.10333e-20)
(0.0423227 0.153434 -1.03712e-20)
(0.0459448 0.16867 0)
(0.0496287 0.183876 -1.04845e-20)
(0.0533552 0.198983 -2.62025e-23)
(0.0571053 0.213922 -1.04991e-20)
(0.0608601 0.228631 -1.05425e-20)
(0.0646013 0.243047 1.06297e-20)
(0.0683109 0.257113 -1.06019e-20)
(0.0719711 0.270772 0)
(0.075565 0.283976 -1.07291e-20)
(0.0790765 0.296677 1.06881e-20)
(0.0824911 0.308834 0)
(0.0857959 0.320411 0)
(0.0889797 0.331377 0)
(0.092033 0.341706 -2.17671e-20)
(0.0949483 0.351377 2.16522e-20)
(0.0977205 0.36037 0)
(0.100347 0.368672 -1.09408e-20)
(0.102827 0.376265 0)
(0.105168 0.383131 2.20126e-20)
(0.107384 0.389238 -1.08679e-20)
(0.109419 0.394556 -2.20775e-20)
(0.111156 0.399022 2.48826e-20)
(0.000829101 -0.00558137 1.38428e-20)
(0.00226006 -0.0117816 -1.94147e-20)
(0.00374327 -0.0136661 -3.31468e-20)
(0.0051689 -0.0122333 -1.8071e-20)
(0.00660699 -0.00817078 -4.60601e-21)
(0.00809046 -0.00198165 -9.36813e-21)
(0.00965444 0.00594119 -4.28175e-20)
(0.0113286 0.0152876 -1.44684e-20)
(0.0131341 0.0258086 -2.44042e-20)
(0.0150841 0.0373036 -2.46652e-20)
(0.0171868 0.0496088 -3.48562e-20)
(0.0194456 0.0625878 -2.00812e-20)
(0.0218587 0.0761238 1.87736e-24)
(0.0244201 0.0901144 -2.03568e-20)
(0.027122 0.104469 -2.04773e-20)
(0.0299534 0.119103 -3.08777e-20)
(0.0329014 0.13394 2.0668e-20)
(0.0359519 0.148904 -1.03663e-20)
(0.0390904 0.163926 0)
(0.0423006 0.178934 2.09076e-20)
(0.0455653 0.193863 0)
(0.0488675 0.208646 4.20996e-20)
(0.0521903 0.223222 0)
(0.0555174 0.237529 -1.06147e-20)
(0.0588321 0.25151 1.06615e-20)
(0.0621184 0.265111 -2.12276e-20)
(0.0653604 0.278282 0)
(0.0685435 0.290977 -2.14745e-20)
(0.0716539 0.303152 2.13852e-20)
(0.0746798 0.314772 0)
(0.0776104 0.325805 0)
(0.0804363 0.336222 0)
(0.0831501 0.346 -2.16329e-20)
(0.0857468 0.355119 0)
(0.0882233 0.363562 -2.18404e-20)
(0.0905788 0.371308 4.35923e-20)
(0.09282 0.378336 -4.36654e-20)
(0.0949606 0.384614 2.16519e-20)
(0.0969316 0.390109 4.37806e-20)
(0.098617 0.394761 -2.47953e-20)
(0.000949282 -0.0057142 -1.77974e-20)
(0.0024595 -0.0121412 -1.0524e-23)
(0.00385718 -0.0142395 1.76823e-20)
(0.00509137 -0.0130221 3.61499e-20)
(0.00625637 -0.00918477 -4.60753e-21)
(0.00740634 -0.00323341 -1.87511e-20)
(0.00859166 0.00443918 1.90309e-20)
(0.00985347 0.0135239 2.89387e-20)
(0.0112214 0.0237738 9.76124e-21)
(0.0127158 0.0349908 2.46667e-20)
(0.0143501 0.0470139 1.99169e-20)
(0.0161316 0.0597092 3.01178e-20)
(0.0180616 0.0729618 6.06816e-20)
(0.0201372 0.0866725 3.05408e-20)
(0.0223529 0.100753 0)
(0.0246999 0.115122 1.02784e-20)
(0.027167 0.129703 1.03182e-20)
(0.0297424 0.144426 1.03591e-20)
(0.0324132 0.15922 2.08322e-20)
(0.0351647 0.174018 -1.04424e-20)
(0.0379819 0.188755 0)
(0.0408496 0.203368 -1.38683e-23)
(0.0437528 0.217794 -2.10851e-20)
(0.0466765 0.231975 2.11405e-20)
(0.0496057 0.245855 4.24117e-20)
(0.0525256 0.259379 4.25667e-20)
(0.0554218 0.272499 4.84378e-23)
(0.0582807 0.285166 2.13456e-20)
(0.0610897 0.297341 2.13938e-20)
(0.0638377 0.308984 -2.14407e-20)
(0.0665144 0.320063 2.14861e-20)
(0.0691106 0.330548 2.15297e-20)
(0.0716192 0.340414 4.3204e-20)
(0.0740352 0.34964 -1.13398e-22)
(0.0763552 0.358204 6.50057e-20)
(0.0785781 0.366086 4.4377e-23)
(0.0807103 0.373262 -2.17064e-20)
(0.0827649 0.379698 -2.18199e-20)
(0.0846613 0.38536 2.17485e-20)
(0.0862829 0.390189 2.47495e-20)
(0.00107055 -0.0058254 1.58438e-20)
(0.00265952 -0.0124443 2.1587e-20)
(0.00396979 -0.0147323 1.32784e-20)
(0.00501157 -0.0137141 -1.35575e-20)
(0.00590417 -0.0100913 -2.30464e-20)
(0.00672344 -0.00437118 1.87496e-20)
(0.00753516 0.00305411 0)
(0.00839183 0.0118773 1.93007e-20)
(0.00933159 0.0218544 0)
(0.0103815 0.0327902 -3.94727e-20)
(0.01156 0.0445266 9.9635e-21)
(0.0128779 0.0569321 -5.02045e-20)
(0.0143399 0.0698949 -2.0227e-20)
(0.0159454 0.0833184 1.01865e-20)
(0.0176914 0.0971166 1.6433e-23)
(0.0195706 0.111211 -1.02771e-20)
(0.0215739 0.125528 -2.06662e-20)
(0.0236909 0.139998 -4.14988e-20)
(0.0259104 0.154553 0)
(0.0282193 0.169129 3.43251e-23)
(0.0306043 0.183662 -2.09225e-20)
(0.0330522 0.198089 -2.10269e-20)
(0.0355493 0.212351 2.10852e-20)
(0.0380819 0.226391 -2.12004e-20)
(0.0406365 0.240152 2.11759e-20)
(0.0431997 0.253583 -4.24212e-20)
(0.0457582 0.266633 4.95055e-23)
(0.0482996 0.279256 -4.26099e-20)
(0.0508121 0.29141 -2.13939e-20)
(0.0532855 0.303057 -5.08356e-23)
(0.05571 0.314163 -9.69592e-23)
(0.0580768 0.324697 -2.15298e-20)
(0.0603789 0.334633 -2.15711e-20)
(0.0626115 0.343947 -6.10711e-23)
(0.064771 0.352616 -2.16453e-20)
(0.0668557 0.360618 -7.18922e-23)
(0.0688721 0.367926 -2.17847e-20)
(0.0708322 0.374508 6.4868e-20)
(0.0726447 0.380326 -2.17486e-20)
(0.0741916 0.385326 -2.47803e-20)
(0.00119152 -0.00591374 -1.58455e-20)
(0.00285664 -0.012689 4.31881e-21)
(0.00407613 -0.0151428 -1.32738e-20)
(0.00492361 -0.0143075 -4.52215e-21)
(0.00554415 -0.0108888 1.84383e-20)
(0.00603551 -0.00539417 -4.69031e-21)
(0.00647869 0.00178615 4.76101e-21)
(0.00693766 0.0103478 -2.89537e-20)
(0.00745889 0.02005 9.76557e-21)
(0.00807581 0.030701 1.97382e-20)
(0.00881142 0.0421457 0)
(0.00968013 0.0542557 4.01737e-20)
(0.0106894 0.0669221 0)
(0.0118412 0.080051 -4.07174e-20)
(0.0131341 0.093559 -2.04738e-20)
(0.0145628 0.10737 0)
(0.0161196 0.121413 0)
(0.0177958 0.13562 4.1498e-20)
(0.0195811 0.149926 2.08567e-20)
(0.0214644 0.164268 -4.17887e-20)
(0.0234337 0.178583 2.09187e-20)
(0.0254774 0.192813 0)
(0.027583 0.206897 -2.11159e-20)
(0.0297383 0.22078 4.22306e-20)
(0.031931 0.234408 -2.11151e-20)
(0.0341488 0.247728 -2.12721e-20)
(0.0363795 0.260692 2.11988e-20)
(0.0386119 0.273253 0)
(0.0408352 0.285369 4.2739e-20)
(0.0430396 0.297002 -2.13142e-20)
(0.0452161 0.308116 -2.14919e-20)
(0.0473561 0.318682 -1.4561e-22)
(0.0494529 0.32867 8.60096e-20)
(0.0515018 0.338055 -6.44389e-20)
(0.053499 0.346813 0)
(0.0554424 0.354919 -2.16058e-20)
(0.0573382 0.362347 -4.33371e-20)
(0.0591975 0.369063 2.14169e-20)
(0.0609184 0.375028 2.15781e-20)
(0.0623815 0.380193 0)
(0.00131065 -0.0059781 -3.17365e-20)
(0.00304714 -0.0128738 -4.32186e-21)
(0.0041712 -0.0154693 3.54412e-20)
(0.00482195 -0.0148009 -3.62104e-20)
(0.00517041 -0.0115764 0)
(0.00533652 -0.00630206 0)
(0.00541663 0.000635358 -9.52717e-21)
(0.00548582 0.00893494 -2.26486e-24)
(0.00559856 0.0183599 9.76858e-21)
(0.00579433 0.0287222 0)
(0.0061006 0.0398703 0)
(0.00653493 0.0516788 -1.00388e-20)
(0.00710731 0.0640421 1.00133e-23)
(0.00782202 0.0768692 1.01847e-20)
(0.00867931 0.0900792 2.04738e-20)
(0.00967536 0.103598 0)
(0.0108038 0.117358 2.06936e-20)
(0.012057 0.131293 -2.06956e-20)
(0.0134263 0.145339 -4.16551e-20)
(0.0149016 0.159436 4.17905e-20)
(0.0164725 0.173522 7.56225e-23)
(0.0181287 0.187541 -2.09715e-20)
(0.0198589 0.201434 2.11094e-20)
(0.0216519 0.215147 -4.2179e-20)
(0.0234966 0.228627 0)
(0.0253819 0.241821 2.12561e-20)
(0.0272966 0.254683 -4.24829e-20)
(0.0292305 0.267165 2.12188e-20)
(0.0311736 0.279226 -2.13292e-20)
(0.0331169 0.290828 -2.14186e-20)
(0.0350517 0.301935 -2.15906e-20)
(0.0369699 0.312515 8.56629e-20)
(0.0388651 0.322538 -6.4211e-20)
(0.0407324 0.331978 -4.30822e-20)
(0.0425678 0.34081 4.28357e-20)
(0.0443689 0.349007 0)
(0.0461415 0.356542 4.31952e-20)
(0.0478956 0.363382 -4.29249e-20)
(0.0495193 0.369487 -2.15782e-20)
(0.0508911 0.37481 0)
(0.00142642 -0.00601766 6.74712e-20)
(0.00322746 -0.0129971 3.02956e-20)
(0.00425024 -0.0157104 -3.5441e-20)
(0.00470107 -0.0151933 3.16824e-20)
(0.00477732 -0.0121538 -4.6155e-21)
(0.0046212 -0.00709474 9.38689e-21)
(0.004344 -0.000398631 0)
(0.00403169 0.00763798 -9.65948e-21)
(0.0037466 0.0167829 9.77204e-21)
(0.00353385 0.0268525 9.87885e-21)
(0.00342484 0.0376989 -9.96528e-21)
(0.00344013 0.0492 -1.00536e-20)
(0.00359225 0.0612537 1.01167e-20)
(0.0038873 0.0737718 0)
(0.0043269 0.0866763 0)
(0.00490861 0.0998956 -2.06052e-20)
(0.00562728 0.113363 2.06538e-20)
(0.00647642 0.127016 -2.0786e-20)
(0.00744832 0.140793 2.08029e-20)
(0.00853429 0.154633 2.09336e-20)
(0.00972511 0.16848 -4.19201e-20)
(0.0110113 0.182276 4.20289e-20)
(0.012383 0.195966 8.75583e-23)
(0.0138301 0.209496 -2.10625e-20)
(0.0153423 0.222813 0)
(0.0169094 0.235868 2.12457e-20)
(0.0185215 0.248612 1.13416e-22)
(0.0201691 0.261 -2.12047e-20)
(0.0218432 0.272991 0)
(0.0235351 0.284546 4.27829e-20)
(0.0252367 0.295629 -4.25791e-20)
(0.0269402 0.306208 0)
(0.0286394 0.316251 4.29455e-20)
(0.0303294 0.325732 -4.27088e-20)
(0.032006 0.334623 0)
(0.0336659 0.342898 0)
(0.0353148 0.350529 0)
(0.0369611 0.357483 -4.30714e-20)
(0.0384839 0.363721 4.27954e-20)
(0.0397586 0.369199 4.92765e-20)
(0.00153725 -0.00603149 -3.17633e-20)
(0.00339388 -0.0130579 -3.46203e-20)
(0.00430843 -0.0158652 -4.43423e-21)
(0.00455581 -0.0154843 1.35892e-20)
(0.00435973 -0.0126207 -1.84673e-20)
(0.00388455 -0.0077726 1.87831e-20)
(0.00325638 -0.00131674 -1.90682e-20)
(0.0025716 0.00645576 -2.89955e-20)
(0.00189997 0.0153179 0)
(0.00129188 0.0250906 -9.88281e-21)
(0.000782457 0.03563 9.96927e-21)
(0.000394972 0.046818 0)
(0.000144042 0.0585557 2.02621e-20)
(3.74485e-05 0.0707579 -2.0367e-20)
(7.80752e-05 0.0833492 -6.1505e-20)
(0.000264586 0.0962607 -3.90454e-23)
(0.000592816 0.109428 4.13732e-20)
(0.00105732 0.12279 -2.0742e-20)
(0.00165144 0.136287 0)
(0.00236749 0.149862 0)
(0.00319721 0.163459 4.1943e-20)
(0.00413215 0.177021 2.10599e-20)
(0.00516344 0.190496 -2.10254e-20)
(0.00628193 0.20383 -2.11578e-20)
(0.00747825 0.216972 4.23036e-20)
(0.00874305 0.229873 -2.11365e-20)
(0.0100674 0.242486 4.25551e-20)
(0.0114426 0.254766 -8.50153e-20)
(0.0128604 0.266673 8.513e-20)
(0.0143127 0.278166 -8.52348e-20)
(0.0157914 0.28921 8.53293e-20)
(0.0172894 0.299772 -8.54126e-20)
(0.0188005 0.309821 4.261e-20)
(0.0203196 0.319329 4.29038e-20)
(0.0218422 0.328267 2.68032e-22)
(0.0233644 0.336608 2.69025e-22)
(0.0248909 0.344325 -4.26797e-20)
(0.026429 0.351386 1.83633e-22)
(0.0278491 0.357751 -4.26673e-20)
(0.0290225 0.363382 0)
(0.00164154 -0.00601898 3.97527e-21)
(0.00354283 -0.0130552 -4.33205e-21)
(0.00434115 -0.0159331 1.33091e-20)
(0.00438116 -0.0156736 -1.81278e-20)
(0.00391277 -0.0129777 9.23779e-21)
(0.00312224 -0.00833656 0)
(0.00215002 -0.00212013 0)
(0.00110245 0.00538678 3.86568e-20)
(5.63978e-05 0.013963 4.89186e-20)
(-0.000932931 0.0234346 -9.88263e-21)
(-0.0018271 0.033662 4.9897e-20)
(-0.00260036 0.0445311 -1.00547e-20)
(-0.00323624 0.0559466 0)
(-0.00372561 0.0678263 0)
(-0.00406456 0.0800975 4.09956e-20)
(-0.00425345 0.0926936 0)
(-0.0042955 0.105553 2.0688e-20)
(-0.0041953 0.118615 -2.08205e-20)
(-0.00395862 0.131824 0)
(-0.0035923 0.145124 -4.18531e-20)
(-0.00310375 0.15846 -2.09287e-20)
(-0.00250053 0.171779 -6.30636e-20)
(-0.00179057 0.185027 -2.11189e-20)
(-0.000982186 0.198153 2.10736e-20)
(-8.39651e-05 0.211108 4.23197e-20)
(0.000895624 0.223843 0)
(0.00194851 0.236312 4.24449e-20)
(0.00306684 0.248471 8.51068e-20)
(0.00424279 0.260279 2.31103e-22)
(0.00546862 0.271696 -4.24728e-20)
(0.0067368 0.282688 -4.27531e-20)
(0.00804033 0.29322 4.25379e-20)
(0.00937313 0.303262 4.28146e-20)
(0.0107299 0.312783 -8.54125e-20)
(0.0121054 0.321757 8.54339e-20)
(0.0134952 0.330154 -4.27573e-20)
(0.0149029 0.337949 4.25875e-20)
(0.0163341 0.34511 8.54144e-20)
(0.0176515 0.351598 4.26187e-20)
(0.0187213 0.35738 4.87706e-20)
(0.00173759 -0.00597954 -3.18413e-20)
(0.00367064 -0.0129887 3.03505e-20)
(0.00434392 -0.015914 -2.66435e-20)
(0.00417244 -0.0157618 2.72152e-20)
(0.00343204 -0.0132256 4.62219e-20)
(0.00233037 -0.00878794 -3.76099e-20)
(0.00102175 -0.00281055 4.77229e-20)
(-0.000378032 0.00442913 2.90228e-20)
(-0.00178553 0.0127164 -6.85016e-20)
(-0.00314113 0.0218826 1.97889e-20)
(-0.00440342 0.0317931 1.00007e-20)
(-0.00554451 0.0423379 2.01372e-20)
(-0.0065464 0.0534253 2.02965e-20)
(-0.00739884 0.0649762 -4.08199e-20)
(-0.00809711 0.0769205 4.10514e-20)
(-0.00864074 0.0891941 6.19007e-20)
(-0.00903211 0.101737 -6.21016e-20)
(-0.00927506 0.114493 8.31845e-20)
(-0.00937468 0.127405 4.17565e-20)
(-0.00933705 0.140421 6.28217e-20)
(-0.00916888 0.153488 2.10449e-20)
(-0.00887691 0.166552 4.20724e-20)
(-0.00846824 0.179563 -4.21942e-20)
(-0.00795044 0.192472 0)
(-0.00733135 0.205228 -1.27089e-19)
(-0.00661864 0.217785 8.47908e-20)
(-0.0058196 0.230097 -4.22382e-20)
(-0.0049414 0.242122 -4.22819e-20)
(-0.00399138 0.253818 1.1299e-22)
(-0.00297696 0.265148 0)
(-0.00190541 0.276074 0)
(-0.000783484 0.286564 4.26214e-20)
(0.000382693 0.296586 -4.27683e-20)
(0.00158744 0.30611 4.25326e-20)
(0.00282491 0.315108 -4.27768e-20)
(0.0040895 0.323553 -4.2775e-20)
(0.00538372 0.331418 0)
(0.00671126 0.338674 -4.24975e-20)
(0.00792803 0.345283 -4.23861e-20)
(0.00889363 0.351214 -1.46405e-19)
(0.00182378 -0.00591285 3.18415e-20)
(0.00377376 -0.012858 -3.03479e-20)
(0.0043124 -0.0158083 3.55204e-20)
(0.00392526 -0.0157498 -6.35131e-20)
(0.00291352 -0.0133659 -4.62264e-20)
(0.00150557 -0.0091286 3.76099e-20)
(-0.000130954 -0.00339007 -7.63778e-20)
(-0.00187145 0.00358061 -3.86929e-20)
(-0.00362645 0.0115757 4.89479e-20)
(-0.00533236 0.0204325 -8.90522e-20)
(-0.00694514 0.0300215 -5.99218e-20)
(-0.00843515 0.0402369 -2.01618e-20)
(-0.00978316 0.0509906 -6.08598e-20)
(-0.0109781 0.0622068 6.12247e-20)
(-0.0120145 0.0738179 -4.10515e-20)
(-0.0128913 0.0857625 -4.12586e-20)
(-0.0136102 0.0979827 0)
(-0.0141743 0.110424 -4.16094e-20)
(-0.0145882 0.123032 -6.26756e-20)
(-0.0148574 0.135756 2.09216e-20)
(-0.0149879 0.148544 -4.20029e-20)
(-0.0149858 0.161345 0)
(-0.0148574 0.17411 4.21944e-20)
(-0.0146097 0.18679 4.23791e-20)
(-0.0142497 0.199337 -4.23013e-20)
(-0.0137844 0.211705 0)
(-0.0132204 0.22385 0)
(-0.0125642 0.235729 0)
(-0.0118229 0.247302 1.14549e-23)
(-0.0110034 0.258531 0)
(-0.010113 0.26938 -8.53115e-20)
(-0.00915812 0.279815 -1.24122e-22)
(-0.00814515 0.289806 -8.53443e-20)
(-0.00708025 0.299323 8.52313e-20)
(-0.00597012 0.308337 -4.24878e-20)
(-0.00482153 0.316821 4.26158e-20)
(-0.00363354 0.324749 0)
(-0.00240448 0.332098 8.5196e-20)
(-0.0012844 0.338826 -4.23582e-20)
(-0.000421704 0.344907 0)
(0.00189844 -0.00581871 3.98505e-21)
(0.00384873 -0.0126636 0)
(0.00424248 -0.0156168 -4.44473e-20)
(0.00363551 -0.0156389 5.44584e-20)
(0.0023536 -0.0134005 2.77635e-20)
(0.000645001 -0.00936081 -3.7646e-20)
(-0.00131003 -0.00386115 3.81982e-20)
(-0.00337874 0.00283869 -3.87327e-20)
(-0.00546623 0.0105386 0)
(-0.00750541 0.0190822 3.95909e-20)
(-0.00945003 0.0283451 -3.99883e-20)
(-0.011269 0.0382263 -2.83345e-23)
(-0.0129423 0.0486414 0)
(-0.0144581 0.0595174 4.08865e-20)
(-0.0158105 0.0707897 -2.05526e-20)
(-0.0169979 0.0823992 4.13779e-20)
(-0.0180216 0.0942904 2.07964e-20)
(-0.018884 0.10641 -4.16933e-20)
(-0.0195892 0.118708 0)
(-0.0201425 0.131132 6.29836e-20)
(-0.0205492 0.143634 2.10921e-20)
(-0.0208147 0.156164 0)
(-0.0209447 0.168673 0)
(-0.0209455 0.181115 0)
(-0.0208236 0.193443 4.23772e-20)
(-0.0205852 0.205612 0)
(-0.0202362 0.217578 -4.25973e-20)
(-0.0197828 0.2293 8.5073e-20)
(-0.0192316 0.240739 -8.5017e-20)
(-0.0185894 0.251856 0)
(-0.017863 0.262616 4.25992e-20)
(-0.0170592 0.272987 -4.26077e-20)
(-0.0161844 0.282937 4.26101e-20)
(-0.0152455 0.292436 0)
(-0.0142502 0.301457 0)
(-0.0132066 0.309974 4.26474e-20)
(-0.0121157 0.317962 -4.23874e-20)
(-0.0109781 0.325399 8.51068e-20)
(-0.00994882 0.332246 -8.45613e-20)
(-0.00918588 0.338479 0)
(0.00195991 -0.0056971 2.79334e-20)
(0.00389218 -0.012406 8.68735e-21)
(0.0041303 -0.0153409 3.55598e-20)
(0.00329946 -0.015431 3.63384e-20)
(0.00174912 -0.0133318 -3.70151e-20)
(-0.000253654 -0.00948725 3.76461e-20)
(-0.00251679 -0.00422664 3.82364e-20)
(-0.00490013 0.00220049 3.87328e-20)
(-0.00730401 0.00960223 0)
(-0.00965833 0.017829 3.96392e-20)
(-0.011915 0.026762 3.99884e-20)
(-0.014042 0.0363047 4.03226e-20)
(-0.0160186 0.0463765 0)
(-0.0178327 0.0569075 3.78935e-23)
(-0.019478 0.0678361 4.11241e-20)
(-0.0209526 0.0791053 -2.06345e-20)
(-0.0222572 0.0906619 -2.07036e-20)
(-0.0233941 0.102455 6.25808e-20)
(-0.024367 0.114435 6.07645e-23)
(-0.0251806 0.126553 -2.09155e-20)
(-0.02584 0.138762 -4.20907e-20)
(-0.0263499 0.151012 0)
(-0.0267155 0.163259 0)
(-0.0269424 0.175454 0)
(-0.0270366 0.187554 0)
(-0.0270035 0.199514 0)
(-0.0268485 0.211292 0)
(-0.0265776 0.222847 4.26691e-20)
(-0.0261968 0.23414 -4.24917e-20)
(-0.0257128 0.245135 0)
(-0.0251322 0.255796 0)
(-0.0244618 0.266092 4.2608e-20)
(-0.0237087 0.275991 0)
(-0.0228804 0.285465 4.26809e-20)
(-0.0219856 0.294486 -4.24367e-20)
(-0.0210343 0.303029 0)
(-0.0200297 0.311072 8.51092e-20)
(-0.0189746 0.318596 -8.45765e-20)
(-0.0180282 0.325563 0)
(-0.0173599 0.331952 0)
(0.00200659 -0.00554823 -3.19194e-20)
(0.00390087 -0.0120862 -8.68954e-21)
(0.0039722 -0.0149824 8.89779e-21)
(0.00291374 -0.0151287 -3.63384e-20)
(0.00109737 -0.0131625 0)
(-0.00119217 -0.00951109 0)
(-0.00375194 -0.00448982 -2.86738e-20)
(-0.00643523 0.0016628 -9.68985e-21)
(-0.00913822 0.00876368 -1.96213e-20)
(-0.0117884 0.0166704 -1.9819e-20)
(-0.0143363 0.0252699 -2.00249e-20)
(-0.0167492 0.0344704 2.01744e-20)
(-0.0190061 0.0441949 2.03401e-20)
(-0.0210948 0.0543769 -2.04679e-20)
(-0.0230088 0.0649573 0)
(-0.024746 0.0758818 0)
(-0.0263069 0.0870992 -4.15725e-20)
(-0.0276936 0.0985605 0)
(-0.0289094 0.110218 0)
(-0.0299589 0.122024 4.21821e-20)
(-0.0308466 0.133933 1.43391e-22)
(-0.0315768 0.145897 1.05895e-22)
(-0.0321541 0.157873 -4.24439e-20)
(-0.0325839 0.169815 4.23529e-20)
(-0.0328711 0.181678 4.25277e-20)
(-0.0330208 0.193421 -4.25758e-20)
(-0.033038 0.205001 0)
(-0.0329281 0.21638 4.27099e-20)
(-0.032697 0.227518 1.97759e-22)
(-0.0323509 0.238381 -4.25391e-20)
(-0.0318966 0.248934 0)
(-0.031341 0.259145 0)
(-0.0306916 0.268984 4.27065e-20)
(-0.0299569 0.278424 -4.24711e-20)
(-0.0291469 0.287439 -4.26303e-20)
(-0.0282735 0.296003 4.23781e-20)
(-0.0273423 0.304098 0)
(-0.026359 0.311708 0)
(-0.0254855 0.318797 0)
(-0.0249048 0.325346 -4.84731e-20)
(0.00203693 -0.00537253 3.99557e-20)
(0.00387178 -0.0117059 -1.7394e-20)
(0.00376487 -0.0145435 8.90275e-21)
(0.00247538 -0.0147347 0)
(0.000396129 -0.0128962 4.63304e-20)
(-0.00217175 -0.00943594 1.06165e-24)
(-0.00501559 -0.00465432 3.8277e-20)
(-0.00798294 0.00122214 -2.90921e-20)
(-0.0109666 0.00801973 3.9257e-20)
(-0.0138921 0.0156036 -1.9833e-20)
(-0.0167092 0.0238666 0)
(-0.0193849 0.0327216 2.02147e-20)
(-0.0218981 0.0420956 -6.10334e-20)
(-0.0242366 0.0519253 0)
(-0.0263941 0.0621542 6.18961e-20)
(-0.0283683 0.0727303 -4.14339e-20)
(-0.0301598 0.0836047 -4.16528e-20)
(-0.0317705 0.0947301 2.08849e-20)
(-0.0332037 0.10606 0)
(-0.0344635 0.11755 -4.20857e-20)
(-0.0355542 0.129153 -4.23094e-20)
(-0.0364796 0.140826 -4.32187e-23)
(-0.0372441 0.152525 4.24604e-20)
(-0.0378523 0.164206 4.25843e-20)
(-0.0383088 0.175826 -8.50011e-20)
(-0.038618 0.187343 4.25761e-20)
(-0.0387844 0.198718 0)
(-0.0388133 0.209911 -4.26952e-20)
(-0.03871 0.220886 4.27061e-20)
(-0.0384807 0.231608 4.27061e-20)
(-0.0381321 0.242043 -4.26949e-20)
(-0.0376713 0.252161 4.26723e-20)
(-0.0371065 0.261932 0)
(-0.0364471 0.271331 4.26782e-20)
(-0.0357045 0.280332 8.53511e-20)
(-0.0348927 0.288913 -8.4745e-20)
(-0.0340206 0.297058 8.49738e-20)
(-0.0330963 0.304753 3.52854e-22)
(-0.0322837 0.311968 -4.20571e-20)
(-0.0317813 0.318681 9.69493e-20)
(0.00204942 -0.00517065 -2.39792e-20)
(0.00380208 -0.0112668 -5.2215e-20)
(0.00350532 -0.014027 3.56354e-20)
(0.00198183 -0.0142527 -2.72914e-20)
(-0.000356298 -0.0125367 -9.25347e-21)
(-0.00319306 -0.00926582 9.42654e-21)
(-0.00630722 -0.00472411 -1.91294e-20)
(-0.00954157 0.00087475 -1.94001e-20)
(-0.0127862 0.00736699 1.96466e-20)
(-0.0159655 0.0146256 -3.97081e-20)
(-0.0190286 0.0225497 -2.11234e-23)
(-0.0219427 0.0310569 2.02069e-20)
(-0.0246869 0.0400779 0)
(-0.0272495 0.0495527 -2.05353e-20)
(-0.0296242 0.0594275 -2.0637e-20)
(-0.0318089 0.0696527 4.14804e-20)
(-0.0338043 0.0801811 0)
(-0.0356123 0.0909675 0)
(-0.0372362 0.101967 4.21089e-20)
(-0.0386798 0.113136 -4.21144e-20)
(-0.0399472 0.12443 0)
(-0.041042 0.135807 4.24859e-20)
(-0.0419681 0.147224 -4.22993e-20)
(-0.0427296 0.158638 -8.51403e-20)
(-0.0433306 0.170008 -1.72855e-22)
(-0.043775 0.181294 4.26381e-20)
(-0.044067 0.192455 -8.53569e-20)
(-0.0442114 0.203455 4.26955e-20)
(-0.0442133 0.214259 -4.27064e-20)
(-0.0440786 0.224831 1.20125e-22)
(-0.043814 0.23514 7.27131e-23)
(-0.0434271 0.245156 -4.26725e-20)
(-0.0429266 0.254851 -4.26728e-20)
(-0.0423228 0.264202 -4.26187e-20)
(-0.0416289 0.273184 1.68307e-23)
(-0.0408611 0.281777 0)
(-0.0400317 0.289969 -4.2387e-20)
(-0.0391517 0.29775 8.47424e-20)
(-0.038386 0.305093 -1.26394e-19)
(-0.0379505 0.311977 3.31386e-22)
(0.00204269 -0.00494346 -8.00156e-21)
(0.00368916 -0.0107714 6.96391e-20)
(0.0031909 -0.0134363 -3.56332e-20)
(0.00143102 -0.0136865 2.72893e-20)
(-0.00116108 -0.0120883 -7.4177e-20)
(-0.00425616 -0.00900512 9.43048e-21)
(-0.0076257 -0.00470344 -3.83115e-20)
(-0.0111087 0.000616659 0)
(-0.0145936 0.00680196 0)
(-0.0180037 0.0137336 -3.97475e-20)
(-0.0212886 0.021317 2.00741e-20)
(-0.0244156 0.0294746 1.58108e-23)
(-0.0273646 0.0381409 2.03798e-20)
(-0.0301243 0.0472593 0)
(-0.0326888 0.0567784 -6.20488e-20)
(-0.0350564 0.066651 2.07569e-20)
(-0.0372279 0.0768317 -4.17967e-20)
(-0.0392055 0.0872769 0)
(-0.0409925 0.0979436 0)
(-0.0425925 0.108789 3.59009e-23)
(-0.0440094 0.119772 -4.2302e-20)
(-0.0452467 0.130849 4.25202e-20)
(-0.0463079 0.14198 -4.26533e-20)
(-0.0471966 0.153123 4.25618e-20)
(-0.0479166 0.164238 4.66191e-23)
(-0.0484711 0.175285 5.04171e-23)
(-0.0488642 0.186227 4.27416e-20)
(-0.0491001 0.197028 -4.28324e-20)
(-0.0491838 0.207652 0)
(-0.0491208 0.218066 -4.28835e-20)
(-0.0489178 0.228241 4.26792e-20)
(-0.0485828 0.238148 0)
(-0.0481252 0.24776 4.26731e-20)
(-0.0475563 0.257055 -4.28243e-20)
(-0.046891 0.266012 4.24014e-20)
(-0.046148 0.274613 0)
(-0.0453431 0.282849 1.27326e-19)
(-0.0444909 0.290715 -8.44072e-20)
(-0.0437558 0.298191 0)
(-0.0433738 0.305252 4.84475e-20)
(0.00201545 -0.00469202 6.40773e-20)
(0.00353069 -0.0102222 -3.48287e-20)
(0.00281937 -0.012775 -8.91264e-21)
(0.000821351 -0.0130405 9.10374e-21)
(-0.00201882 -0.0115557 3.70958e-20)
(-0.00536048 -0.00865855 0)
(-0.00896927 -0.00459686 3.83117e-20)
(-0.0126815 0.00044371 5.82863e-20)
(-0.0163844 0.006321 1.96573e-20)
(-0.0200014 0.0129246 1.98559e-20)
(-0.0234825 0.0201662 2.0066e-20)
(-0.026796 0.0279732 -6.07649e-20)
(-0.0299224 0.0362842 2.03996e-20)
(-0.0328512 0.0450454 8.22955e-20)
(-0.0355772 0.0542084 2.06418e-20)
(-0.038099 0.0637276 2.07843e-20)
(-0.0404179 0.07356 4.1797e-20)
(-0.0425363 0.0836633 0)
(-0.0444577 0.093996 0)
(-0.0461857 0.104517 8.46856e-20)
(-0.047724 0.115186 -1.69885e-19)
(-0.0490759 0.125961 -3.88902e-23)
(-0.0502448 0.136803 0)
(-0.0512339 0.147671 0)