1.11936e-18 	0.5125 	0.5 	0.0203221 	0.000379972 	0
1.11936e-18 	0.5375 	0.5 	0.0580523 	0.00319859 	0
1.11936e-18 	0.5625 	0.5 	0.0933058 	0.00883616 	-2.92523e-22
1.11936e-18 	0.5875 	0.5 	0.126272 	0.0159464 	0
1.11936e-18 	0.6125 	0.5 	0.157123 	0.0241867 	0
1.11936e-18 	0.6375 	0.5 	0.186008 	0.0331494 	-3.29375e-22
1.11936e-18 	0.6625 	0.5 	0.213058 	0.0425416 	0
1.11936e-18 	0.6875 	0.5 	0.238388 	0.052138 	0
1.11936e-18 	0.7125 	0.5 	0.262099 	0.0617649 	0
1.11936e-18 	0.7375 	0.5 	0.284285 	0.0712891 	0
1.11936e-18 	0.7625 	0.5 	0.30503 	0.0806093 	0
1.11936e-18 	0.7875 	0.5 	0.324414 	0.089649 	-3.7814e-22
1.11936e-18 	0.8125 	0.5 	0.34251 	0.0983518 	0
1.11936e-18 	0.8375 	0.5 	0.35939 	0.106677 	0
1.11936e-18 	0.8625 	0.5 	0.37512 	0.114598 	0
1.11936e-18 	0.8875 	0.5 	0.389764 	0.122097 	0
1.11936e-18 	0.9125 	0.5 	0.403385 	0.129165 	-9.99731e-23
1.11936e-18 	0.9375 	0.5 	0.416041 	0.135801 	1.00179e-22
1.11936e-18 	0.9625 	0.5 	0.427789 	0.142008 	0
1.11936e-18 	0.9875 	0.5 	0.438683 	0.147794 	0
1.11936e-18 	1.0125 	0.5 	0.448776 	0.153171 	4.05429e-22
1.11936e-18 	1.0375 	0.5 	0.458118 	0.158151 	0
1.11936e-18 	1.0625 	0.5 	0.466757 	0.162752 	0
1.11936e-18 	1.0875 	0.5 	0.474737 	0.166991 	0
1.11936e-18 	1.1125 	0.5 	0.482103 	0.170886 	0
1.11936e-18 	1.1375 	0.5 	0.488895 	0.174457 	0
1.11936e-18 	1.1625 	0.5 	0.495151 	0.177723 	0
1.11936e-18 	1.1875 	0.5 	0.500909 	0.180703 	4.01255e-22
1.11936e-18 	1.2125 	0.5 	0.506203 	0.183416 	0
1.11936e-18 	1.2375 	0.5 	0.511064 	0.185883 	-3.97362e-22
1.11936e-18 	1.2625 	0.5 	0.515523 	0.188121 	0
1.11936e-18 	1.2875 	0.5 	0.519607 	0.190148 	0
1.11936e-18 	1.3125 	0.5 	0.523342 	0.191981 	0
1.11936e-18 	1.3375 	0.5 	0.526752 	0.193637 	-1.93335e-22
1.11936e-18 	1.3625 	0.5 	0.529859 	0.195132 	1.92291e-22
1.11936e-18 	1.3875 	0.5 	0.532682 	0.19648 	0
1.11936e-18 	1.4125 	0.5 	0.535239 	0.197696 	0
1.11936e-18 	1.4375 	0.5 	0.537547 	0.198792 	0
1.11936e-18 	1.4625 	0.5 	0.53962 	0.19978 	0
1.11936e-18 	1.4875 	0.5 	0.541468 	0.200678 	0
1.11936e-18 	1.55625 	0.5 	0.545974 	0.202976 	1.33688e-22
1.11936e-18 	1.66875 	0.5 	0.551549 	0.20527 	0
1.11936e-18 	1.78125 	0.5 	0.555398 	0.206429 	0
1.11936e-18 	1.89375 	0.5 	0.558645 	0.207105 	1.25596e-22
1.11936e-18 	2.00625 	0.5 	0.561545 	0.207408 	1.21828e-22
1.11936e-18 	2.11875 	0.5 	0.564416 	0.207662 	-1.17768e-22
1.11936e-18 	2.23125 	0.5 	0.567301 	0.207875 	5.56651e-23
1.11936e-18 	2.34375 	0.5 	0.570199 	0.208101 	-1.64969e-22
