/*--------------------------------*- C++ -*----------------------------------*\
  =========                 |
  \\      /  F ield         | OpenFOAM: The Open Source CFD Toolbox
   \\    /   O peration     | Website:  https://openfoam.org
    \\  /    A nd           | Version:  7
     \\/     M anipulation  |
\*---------------------------------------------------------------------------*/
FoamFile
{
    version     2.0;
    format      ascii;
    class       volScalarField;
    location    "8.8";
    object      p;
}
// * * * * * * * * * * * * * * * * * * * * * * * * * * * * * * * * * * * * * //

dimensions      [0 2 -2 0 0 0 0];

internalField   nonuniform List<scalar> 
18000
(
0.375886
0.376938
0.377638
0.378343
0.378958
0.379481
0.379922
0.380312
0.380689
0.381098
0.381586
0.382197
0.382975
0.383957
0.385178
0.386666
0.388444
0.390529
0.392928
0.395641
0.398657
0.40196
0.405532
0.409349
0.413382
0.4176
0.421966
0.426444
0.43099
0.435535
0.375464
0.376468
0.377122
0.377772
0.378332
0.3788
0.379183
0.379511
0.379825
0.380168
0.380583
0.381114
0.381801
0.382682
0.38379
0.385154
0.386797
0.388736
0.390979
0.393526
0.396368
0.399493
0.402884
0.406522
0.41038
0.414428
0.418632
0.422955
0.427345
0.431753
0.37506
0.376005
0.376607
0.3772
0.377702
0.378115
0.378442
0.378711
0.378968
0.379252
0.379604
0.380063
0.38067
0.381461
0.382468
0.383721
0.385242
0.387048
0.389146
0.391537
0.394215
0.39717
0.400389
0.403853
0.40754
0.411419
0.415459
0.419625
0.423855
0.428119
0.374658
0.375535
0.376086
0.376623
0.377071
0.377429
0.377703
0.377921
0.378127
0.378359
0.378654
0.379051
0.379588
0.3803
0.381219
0.382373
0.383784
0.385468
0.387432
0.389678
0.392203
0.394998
0.398052
0.401349
0.404868
0.40858
0.412456
0.416462
0.420528
0.424645
0.374271
0.375076
0.375573
0.376053
0.376445
0.376749
0.376974
0.377147
0.377307
0.377492
0.377738
0.378082
0.378558
0.379202
0.380045
0.381113
0.382425
0.383998
0.385839
0.387953
0.390336
0.39298
0.395878
0.399015
0.402371
0.405919
0.409631
0.413474
0.417374
0.42134
0.373896
0.37462
0.375063
0.375486
0.375825
0.376078
0.376257
0.376389
0.37651
0.376655
0.376859
0.377157
0.377584
0.378172
0.37895
0.379942
0.381168
0.382641
0.384372
0.386365
0.388616
0.391121
0.393872
0.396856
0.400054
0.403441
0.40699
0.410672
0.414403
0.418213
0.373538
0.374176
0.374563
0.374928
0.375214
0.37542
0.375558
0.375654
0.375741
0.375851
0.376021
0.376283
0.376671
0.377214
0.377937
0.378865
0.380014
0.381401
0.383034
0.384917
0.387049
0.389424
0.392037
0.394876
0.397922
0.401152
0.404542
0.408062
0.411623
0.415275
0.373199
0.373744
0.374074
0.37438
0.374614
0.374776
0.374878
0.374943
0.375001
0.375084
0.375228
0.375464
0.375823
0.37633
0.37701
0.377883
0.378968
0.38028
0.381827
0.383612
0.385635
0.387893
0.390378
0.39308
0.39598
0.399058
0.402292
0.405652
0.409042
0.412533
0.372878
0.373324
0.373595
0.373842
0.374027
0.374149
0.374219
0.374258
0.374293
0.374357
0.374484
0.374703
0.375042
0.375523
0.376169
0.376999
0.378033
0.379282
0.380755
0.382453
0.384379
0.386529
0.388895
0.391468
0.394231
0.397163
0.400244
0.403447
0.406668
0.409995
0.372575
0.372914
0.373126
0.373315
0.373454
0.37354
0.373583
0.373601
0.37362
0.373673
0.373791
0.374003
0.374331
0.374796
0.375418
0.376217
0.37721
0.378408
0.379817
0.381442
0.383282
0.385334
0.387591
0.390044
0.392677
0.395469
0.398403
0.40145
0.404504
0.407666
0.372287
0.372514
0.372667
0.372799
0.372894
0.372949
0.372969
0.372972
0.372983
0.373033
0.373151
0.373363
0.37369
0.374148
0.374758
0.375537
0.3765
0.377657
0.379016
0.380578
0.382343
0.384308
0.386467
0.388809
0.39132
0.393979
0.39677
0.399666
0.402554
0.405552
0.372012
0.372121
0.372215
0.372293
0.372347
0.372374
0.372377
0.372372
0.372383
0.372437
0.372564
0.372786
0.373119
0.373582
0.374189
0.374958
0.375902
0.377031
0.37835
0.379862
0.381564
0.383452
0.385522
0.387764
0.390161
0.392693
0.395347
0.398095
0.400821
0.403655
0.371745
0.371732
0.371768
0.371793
0.37181
0.371814
0.371806
0.371799
0.371816
0.371884
0.372028
0.372268
0.372619
0.373095
0.37371
0.374479
0.375415
0.376527
0.377819
0.379291
0.380941
0.382765
0.384757
0.386906
0.389198
0.391611
0.394133
0.396739
0.399309
0.401979
0.371483
0.371343
0.371321
0.371296
0.371281
0.371266
0.371252
0.37125
0.371283
0.371372
0.371541
0.371808
0.372186
0.372684
0.373317
0.374097
0.375036
0.376141
0.377417
0.378862
0.380472
0.382242
0.384167
0.386234
0.388428
0.39073
0.393128
0.395598
0.398017
0.400526
0.37122
0.370949
0.370872
0.370801
0.370756
0.370727
0.370712
0.370723
0.370777
0.370896
0.371099
0.371403
0.371816
0.372347
0.373007
0.373807
0.374759
0.37587
0.377142
0.378572
0.380153
0.38188
0.383747
0.385741
0.387848
0.390047
0.392328
0.394669
0.396945
0.399294
0.370949
0.370546
0.370415
0.370301
0.370232
0.370193
0.370184
0.370213
0.370296
0.370452
0.370699
0.371047
0.371504
0.372076
0.372773
0.373604
0.37458
0.375708
0.376987
0.378412
0.379974
0.381669
0.383489
0.385421
0.387449
0.389556
0.391729
0.393948
0.396089
0.398282
0.370665
0.370128
0.369947
0.369794
0.369703
0.36966
0.369661
0.369715
0.369834
0.370036
0.370333
0.370734
0.371243
0.371866
0.372608
0.37348
0.374491
0.375647
0.376944
0.378373
0.379928
0.381602
0.383385
0.385264
0.387225
0.389247
0.391322
0.393429
0.395443
0.397486
0.370359
0.36969
0.369461
0.369273
0.369166
0.369123
0.36914
0.369224
0.369387
0.369641
0.369997
0.370457
0.371026
0.371706
0.372503
0.373426
0.374482
0.375676
0.377
0.378445
0.380003
0.381665
0.383422
0.385259
0.387162
0.389111
0.391097
0.393102
0.395001
0.396898
0.370024
0.369224
0.368952
0.368733
0.368614
0.368575
0.368613
0.368733
0.368946
0.36926
0.36968
0.370208
0.370844
0.371589
0.372449
0.373431
0.374543
0.375783
0.377144
0.378614
0.380184
0.381845
0.383586
0.385392
0.387248
0.389135
0.391043
0.392956
0.394751
0.396512
0.369651
0.368724
0.368412
0.368166
0.36804
0.368011
0.368075
0.368238
0.368506
0.368885
0.369375
0.369975
0.370684
0.371502
0.372433
0.373483
0.374658
0.375954
0.37736
0.378865
0.380457
0.382126
0.383861
0.385647
0.387467
0.389303
0.391145
0.392979
0.394684
0.396318
0.369232
0.368182
0.367834
0.367566
0.367437
0.367423
0.367518
0.367728
0.368057
0.368505
0.36907
0.369749
0.370537
0.371433
0.372442
0.373569
0.374815
0.376174
0.377633
0.379179
0.380802
0.382489
0.384227
0.386003
0.387799
0.389597
0.391385
0.393153
0.394785
0.396304
0.368757
0.367591
0.367212
0.366925
0.366798
0.366804
0.366935
0.367197
0.36759
0.368112
0.368756
0.369517
0.370389
0.37137
0.372463
0.373673
0.374996
0.376424
0.377942
0.379538
0.381199
0.382912
0.384664
0.386439
0.388222
0.389994
0.391743
0.393459
0.395035
0.396453
0.368218
0.366943
0.366537
0.366237
0.366117
0.366145
0.366317
0.366634
0.367095
0.367694
0.368422
0.369269
0.370228
0.371299
0.372481
0.373778
0.375184
0.376686
0.37827
0.379921
0.381627
0.383373
0.385146
0.386931
0.388711
0.390469
0.392192
0.393875
0.395413
0.396748
0.367606
0.366232
0.365804
0.365495
0.365385
0.365441
0.365656
0.366031
0.366563
0.367241
0.368054
0.368991
0.370042
0.371204
0.372481
0.373869
0.375361
0.376941
0.378594
0.380306
0.382061
0.383846
0.385647
0.387449
0.389237
0.390992
0.392704
0.39437
0.395894
0.397166
0.366913
0.365451
0.365005
0.364694
0.364598
0.364684
0.364945
0.36538
0.365983
0.366743
0.367644
0.368671
0.369815
0.371073
0.372445
0.373927
0.375507
0.377168
0.378894
0.380668
0.382477
0.384305
0.386138
0.387963
0.389765
0.391529
0.393243
0.394912
0.396447
0.397683
0.366131
0.364593
0.364135
0.363826
0.363749
0.363868
0.364177
0.364673
0.365348
0.366189
0.367177
0.368296
0.369535
0.370889
0.372359
0.373936
0.375604
0.377347
0.379146
0.380985
0.382848
0.38472
0.386587
0.388438
0.390261
0.392041
0.393771
0.395462
0.397035
0.398268
0.365255
0.363655
0.36319
0.362889
0.362833
0.362989
0.363346
0.363902
0.364648
0.365569
0.366645
0.367855
0.369188
0.370639
0.372205
0.373875
0.375632
0.377455
0.379327
0.381229
0.383145
0.385061
0.386962
0.388839
0.390683
0.392484
0.394237
0.395966
0.39761
0.398885
0.364279
0.362633
0.362167
0.361877
0.361847
0.36204
0.362445
0.363061
0.363876
0.364875
0.366036
0.367336
0.368762
0.370308
0.371968
0.373729
0.37557
0.377471
0.379413
0.381376
0.383342
0.385297
0.387229
0.389127
0.390987
0.392804
0.394582
0.396359
0.398108
0.399499
0.3632
0.361524
0.361061
0.360787
0.360785
0.361017
0.361471
0.362144
0.363026
0.3641
0.365343
0.366729
0.368244
0.369881
0.371632
0.373478
0.3754
0.377374
0.37938
0.381399
0.38341
0.385398
0.387351
0.389261
0.391125
0.392945
0.394736
0.396565
0.398482
0.400155
0.362015
0.360327
0.359873
0.359618
0.359646
0.359918
0.360419
0.361146
0.362091
0.363237
0.364556
0.366024
0.367624
0.369347
0.371182
0.373107
0.375102
0.377142
0.379206
0.381272
0.38332
0.385332
0.387294
0.389198
0.391041
0.392828
0.394588
0.396423
0.39846
0.4005
0.450958
0.47307
0.490826
0.504296
0.514069
0.521211
0.526359
0.530112
0.532794
0.534699
0.536001
0.53686
0.53736
0.537559
0.537502
0.537247
0.536823
0.536216
0.535451
0.534525
0.53344
0.532208
0.530832
0.529327
0.5277
0.525964
0.524169
0.522323
0.520643
0.519126
0.447231
0.469153
0.487196
0.500826
0.510752
0.518016
0.523262
0.527085
0.529838
0.531823
0.533209
0.534132
0.534687
0.534944
0.534961
0.534767
0.534386
0.53383
0.533112
0.532219
0.531173
0.529969
0.528621
0.527142
0.525531
0.523814
0.522022
0.52018
0.518496
0.516975
0.44362
0.465276
0.483579
0.497347
0.507421
0.514807
0.520154
0.52405
0.526878
0.528945
0.530417
0.531404
0.532017
0.532333
0.532425
0.532291
0.531954
0.53145
0.530778
0.529922
0.528916
0.527741
0.526424
0.524972
0.52338
0.521685
0.519899
0.518063
0.516377
0.514851
0.440146
0.461443
0.479972
0.493858
0.504082
0.511585
0.517033
0.521017
0.523928
0.526069
0.527615
0.528672
0.529352
0.529735
0.52989
0.529815
0.529533
0.529079
0.52845
0.527637
0.526668
0.525528
0.524242
0.522814
0.521246
0.519568
0.517798
0.51597
0.514286
0.512757
0.43681
0.457661
0.476384
0.490369
0.500738
0.508354
0.513903
0.517983
0.520981
0.523193
0.524809
0.525941
0.526693
0.527146
0.527359
0.527343
0.527119
0.526715
0.526129
0.525363
0.524431
0.52333
0.522074
0.520672
0.51913
0.517469
0.515718
0.513903
0.512221
0.510691
0.433611
0.453941
0.472826
0.486885
0.497394
0.50512
0.51077
0.514945
0.51803
0.520317
0.522005
0.523212
0.524036
0.524559
0.524833
0.524877
0.524711
0.524359
0.523818
0.523098
0.522205
0.521143
0.51992
0.518546
0.517033
0.515392
0.513662
0.511859
0.510181
0.508651
0.430555
0.450291
0.469304
0.48341
0.494051
0.501885
0.507635
0.511904
0.515078
0.517444
0.519205
0.520488
0.521384
0.521977
0.522315
0.522419
0.522311
0.522011
0.521516
0.520842
0.51999
0.518968
0.51778
0.516437
0.514955
0.513336
0.511628
0.50984
0.508168
0.506636
0.427648
0.446723
0.465823
0.479948
0.490711
0.498649
0.5045
0.508863
0.512126
0.514573
0.516409
0.517768
0.518738
0.5194
0.519804
0.51997
0.519918
0.519672
0.519225
0.518597
0.517788
0.516806
0.515655
0.514345
0.512894
0.511303
0.509617
0.507846
0.50618
0.504648
0.424893
0.443245
0.462388
0.476502
0.487376
0.495413
0.501365
0.505823
0.509175
0.511706
0.513619
0.515055
0.5161
0.516832
0.517302
0.51753
0.517535
0.517341
0.516945
0.516362
0.515596
0.514656
0.513544
0.512268
0.510853
0.509291
0.50763
0.505877
0.504218
0.502686
0.422296
0.439868
0.459004
0.473075
0.484048
0.492179
0.498231
0.502785
0.506228
0.508845
0.510835
0.51235
0.51347
0.514272
0.514809
0.5151
0.515161
0.515021
0.514676
0.514138
0.513417
0.512519
0.511448
0.510209
0.508829
0.5073
0.505666
0.503933
0.502283
0.500752
0.41986
0.436602
0.455675
0.469671
0.480727
0.488946
0.495099
0.499751
0.503286
0.50599
0.50806
0.509653
0.510849
0.511722
0.512325
0.512679
0.512799
0.51271
0.512417
0.511926
0.511249
0.510395
0.509367
0.508166
0.506825
0.505332
0.503726
0.502015
0.500375
0.498846
0.417588
0.433459
0.452408
0.466294
0.477414
0.485715
0.491968
0.496721
0.500349
0.503143
0.505294
0.506966
0.508238
0.509182
0.509852
0.51027
0.510447
0.510411
0.510168
0.509725
0.509094
0.508285
0.507301
0.506141
0.50484
0.503384
0.501809
0.500123
0.498495
0.496968
0.415484
0.430448
0.449208
0.462947
0.474112
0.482487
0.488841
0.493695
0.497419
0.500303
0.502538
0.504289
0.505638
0.506654
0.507391
0.507871
0.508107
0.508122
0.507931
0.507536
0.506952
0.506188
0.505249
0.504134
0.502874
0.501459
0.499917
0.498258
0.496643
0.495118
0.41355
0.42758
0.446081
0.459635
0.470821
0.479262
0.485716
0.490674
0.494496
0.497473
0.499794
0.501624
0.50305
0.504137
0.504941
0.505484
0.505778
0.505845
0.505705
0.50536
0.504822
0.504105
0.503213
0.502142
0.500926
0.499553
0.498047
0.496419
0.494819
0.493297
0.411788
0.424866
0.443034
0.456363
0.467544
0.476042
0.482593
0.487658
0.491581
0.494653
0.497062
0.498972
0.500476
0.501635
0.502505
0.50311
0.50346
0.50358
0.503491
0.503195
0.502705
0.502035
0.50119
0.500167
0.498995
0.497668
0.496201
0.494606
0.493025
0.491505
0.4102
0.422317
0.440073
0.453136
0.464283
0.472827
0.479474
0.484648
0.488675
0.491845
0.494344
0.496335
0.497917
0.499147
0.500083
0.500749
0.501155
0.501327
0.50129
0.501044
0.500601
0.499978
0.499181
0.498206
0.497082
0.495803
0.494378
0.492819
0.491261
0.489745
0.408786
0.419944
0.437208
0.449961
0.46104
0.469619
0.476357
0.481643
0.485778
0.489048
0.49164
0.493713
0.495373
0.496675
0.497675
0.498401
0.498863
0.499087
0.4991
0.498905
0.498509
0.497934
0.497185
0.496261
0.495184
0.493956
0.492577
0.491059
0.489528
0.488016
0.407549
0.417756
0.434447
0.446844
0.457819
0.466417
0.473244
0.478642
0.48289
0.486264
0.488951
0.491108
0.492846
0.49422
0.495282
0.496067
0.496584
0.496861
0.496924
0.496779
0.496429
0.495902
0.495202
0.494329
0.493301
0.492127
0.490799
0.489325
0.487827
0.486322
0.406487
0.415763
0.4318
0.443792
0.454624
0.463223
0.470134
0.475646
0.48001
0.483492
0.486276
0.48852
0.490335
0.491781
0.492905
0.493747
0.494319
0.494648
0.494759
0.494664
0.494362
0.493882
0.49323
0.49241
0.491433
0.490314
0.489043
0.48762
0.486159
0.484664
0.405601
0.413975
0.429277
0.440812
0.451461
0.46004
0.467028
0.472655
0.477139
0.480732
0.483617
0.485951
0.487843
0.489359
0.490545
0.491442
0.492068
0.492449
0.492607
0.492561
0.492306
0.491873
0.49127
0.490502
0.489579
0.488518
0.487308
0.485941
0.484526
0.483043
0.404889
0.412399
0.42689
0.437913
0.448333
0.456871
0.463926
0.469669
0.474276
0.477986
0.480975
0.4834
0.48537
0.486956
0.488202
0.489154
0.489832
0.490263
0.490468
0.490469
0.490261
0.489875
0.48932
0.488605
0.487738
0.486737
0.485593
0.484291
0.482928
0.481464
0.40435
0.41104
0.424646
0.435105
0.445249
0.453721
0.460829
0.466688
0.471421
0.475253
0.478351
0.48087
0.482917
0.484572
0.485877
0.486883
0.487611
0.488092
0.488342
0.488389
0.488227
0.487887
0.48738
0.486718
0.485908
0.484971
0.483898
0.482667
0.481368
0.479931
0.403982
0.409904
0.422557
0.432397
0.442214
0.450593
0.457738
0.463711
0.468575
0.472534
0.475745
0.47836
0.480485
0.482207
0.483572
0.48463
0.485407
0.485935
0.48623
0.48632
0.486204
0.485908
0.485449
0.484839
0.484089
0.483217
0.482221
0.481071
0.479847
0.478447
0.403781
0.408991
0.420628
0.4298
0.439236
0.447492
0.454655
0.460739
0.465736
0.469829
0.473157
0.47587
0.478074
0.479863
0.481286
0.482394
0.483219
0.483792
0.48413
0.484263
0.48419
0.483937
0.483526
0.482969
0.482279
0.481474
0.480559
0.4795
0.478366
0.47702
0.403743
0.4083
0.418869
0.427326
0.436325
0.444425
0.451583
0.457773
0.462905
0.467137
0.470587
0.4734
0.475685
0.47754
0.479019
0.480177
0.481048
0.481664
0.482044
0.482215
0.482186
0.481975
0.481612
0.481106
0.480476
0.47974
0.47891
0.477953
0.476928
0.475656
0.403868
0.407825
0.417287
0.424986
0.433491
0.441398
0.448528
0.454815
0.460083
0.464459
0.468035
0.47095
0.473317
0.475238
0.476773
0.477977
0.478893
0.47955
0.479969
0.480178
0.480191
0.480021
0.479703
0.479248
0.478679
0.478013
0.477272
0.476426
0.475532
0.474366
0.404156
0.407557
0.41589
0.422794
0.430748
0.438423
0.445495
0.451868
0.457272
0.461795
0.465502
0.468523
0.470973
0.472958
0.474547
0.475797
0.476755
0.47745
0.477907
0.478151
0.478203
0.478074
0.477801
0.477395
0.476885
0.476291
0.47564
0.474917
0.474177
0.473162
0.404571
0.407469
0.414677
0.420763
0.428103
0.435511
0.442492
0.448935
0.454472
0.459143
0.462984
0.466113
0.468647
0.470694
0.472336
0.473631
0.47463
0.47536
0.475853
0.47613
0.47622
0.47613
0.4759
0.475543
0.475091
0.474567
0.474009
0.473417
0.47286
0.472061
0.40503
0.407467
0.413593
0.418867
0.425537
0.432639
0.439494
0.445981
0.451642
0.456461
0.460441
0.463682
0.466304
0.46842
0.470117
0.471458
0.472497
0.473264
0.473792
0.474104
0.474231
0.474181
0.473993
0.473685
0.47329
0.472834
0.472369
0.471915
0.471571
0.471082
0.406162
0.407744
0.412713
0.417115
0.42303
0.429759
0.436418
0.442906
0.448694
0.453684
0.457833
0.461215
0.463947
0.466145
0.467906
0.469298
0.470378
0.47118
0.471742
0.472086
0.472246
0.472233
0.472085
0.471821
0.471478
0.471087
0.470708
0.470393
0.470286
0.470241
0.41492
0.412947
0.413788
0.414301
0.416806
0.421559
0.427119
0.433583
0.439945
0.445685
0.450522
0.454421
0.457502
0.45992
0.461819
0.4633
0.464443
0.465296
0.465905
0.466299
0.466513
0.466571
0.466501
0.466336
0.466112
0.465877
0.465714
0.465762
0.466347
0.467981
0.407797
0.406962
0.406556
0.404308
0.403981
0.406609
0.411712
0.418486
0.425696
0.432377
0.438006
0.442481
0.445944
0.448608
0.450669
0.452269
0.453506
0.454446
0.455139
0.455623
0.455931
0.456093
0.456138
0.456101
0.456025
0.45597
0.456041
0.456427
0.457542
0.459924
0.393666
0.394976
0.394241
0.391611
0.390047
0.391572
0.396418
0.403643
0.411713
0.419305
0.425694
0.430716
0.434532
0.437411
0.439601
0.441283
0.442582
0.443579
0.444332
0.444882
0.445263
0.445506
0.445643
0.445708
0.445746
0.44582
0.446035
0.446575
0.447855
0.450397
0.375987
0.378931
0.378726
0.376784
0.375176
0.376389
0.381305
0.389063
0.397924
0.406335
0.413422
0.418957
0.423109
0.426189
0.428494
0.430245
0.431593
0.432635
0.433434
0.434038
0.434481
0.434794
0.435007
0.435155
0.435279
0.435439
0.435734
0.43633
0.43761
0.440118
0.357077
0.361368
0.362301
0.361708
0.361011
0.362665
0.367884
0.375973
0.38522
0.394041
0.401513
0.407366
0.411747
0.414975
0.417367
0.419172
0.420559
0.421636
0.422473
0.423121
0.423614
0.423983
0.424255
0.424463
0.424645
0.424855
0.425181
0.425774
0.426972
0.429342
0.338706
0.344191
0.34655
0.347609
0.348412
0.351008
0.356588
0.364654
0.37375
0.382462
0.389925
0.395845
0.400323
0.40364
0.406101
0.407956
0.409382
0.410494
0.411368
0.412054
0.412589
0.413
0.413316
0.413563
0.413778
0.41401
0.414335
0.41489
0.415973
0.418165
0.321557
0.328034
0.331797
0.334477
0.336913
0.340611
0.346515
0.354314
0.362912
0.371176
0.378362
0.384176
0.388661
0.392037
0.394568
0.396488
0.397969
0.399129
0.400047
0.400774
0.401347
0.401794
0.402141
0.402415
0.402646
0.40288
0.403185
0.403684
0.404642
0.406642
0.305527
0.312734
0.317676
0.32174
0.325613
0.330305
0.336477
0.343954
0.351975
0.359695
0.366511
0.372152
0.376613
0.380047
0.382668
0.384679
0.386242
0.387474
0.388453
0.389231
0.389847
0.39033
0.390705
0.390997
0.391235
0.391461
0.391738
0.392176
0.393012
0.39482
0.290275
0.297964
0.303798
0.308923
0.31389
0.319348
0.32573
0.332942
0.340469
0.347699
0.354169
0.359642
0.364085
0.367594
0.370331
0.372465
0.374143
0.375474
0.376536
0.377382
0.378054
0.378579
0.378983
0.379293
0.379537
0.379752
0.379997
0.380372
0.38109
0.382706
0.275494
0.28347
0.289924
0.295797
0.301519
0.307512
0.314049
0.321068
0.328219
0.335064
0.341256
0.346598
0.351042
0.354643
0.357518
0.359804
0.361624
0.363082
0.364252
0.365189
0.365931
0.36651
0.366952
0.367284
0.367534
0.367741
0.367957
0.368275
0.368884
0.370311
0.260955
0.269075
0.27593
0.282299
0.288519
0.294865
0.301498
0.308371
0.315241
0.321798
0.327781
0.333032
0.337496
0.3412
0.344225
0.346677
0.348661
0.350268
0.351568
0.352614
0.353445
0.354093
0.354585
0.354948
0.355212
0.355414
0.355602
0.355862
0.356369
0.35761
0.246493
0.25466
0.261759
0.26845
0.274991
0.281553
0.288228
0.294977
0.301634
0.307974
0.313802
0.31899
0.323483
0.32729
0.330466
0.333088
0.335245
0.337014
0.33846
0.339632
0.340566
0.341296
0.34185
0.342256
0.342544
0.342749
0.34292
0.343134
0.34355
0.344609
0.231991
0.240143
0.247385
0.254281
0.26102
0.267703
0.274378
0.281017
0.287505
0.293678
0.299388
0.304529
0.309052
0.312953
0.316268
0.319054
0.321382
0.323315
0.324913
0.32622
0.327271
0.328098
0.328728
0.329188
0.329506
0.32972
0.329875
0.330045
0.330377
0.331257
0.217368
0.225467
0.23279
0.239812
0.246666
0.253407
0.260057
0.266596
0.272944
0.278981
0.284594
0.289696
0.294243
0.298224
0.30166
0.304595
0.307081
0.309174
0.310921
0.312364
0.313536
0.314465
0.31518
0.315705
0.31607
0.316308
0.316464
0.316604
0.316867
0.317576
0.202563
0.210587
0.217959
0.225055
0.231969
0.238728
0.245339
0.251785
0.258013
0.263937
0.269465
0.274529
0.27909
0.283133
0.286669
0.28973
0.292356
0.294593
0.296483
0.29806
0.299354
0.30039
0.301193
0.301787
0.302199
0.302462
0.302619
0.302733
0.302935
0.303473
0.187541
0.195479
0.202883
0.210021
0.216959
0.223711
0.230273
0.236633
0.242756
0.248577
0.254028
0.259051
0.263613
0.267697
0.271309
0.274472
0.277216
0.279577
0.281591
0.283288
0.284694
0.285834
0.28673
0.287403
0.287877
0.288181
0.288354
0.288455
0.288612
0.288994
0.172294
0.180136
0.187568
0.194728
0.201662
0.208385
0.214891
0.221171
0.227198
0.232926
0.2383
0.243277
0.247825
0.25193
0.255594
0.258831
0.261667
0.264132
0.266254
0.268058
0.269566
0.270798
0.271774
0.272513
0.27304
0.273379
0.273566
0.273654
0.273768
0.273987
0.156856
0.164587
0.172039
0.179196
0.186099
0.192775
0.199219
0.205421
0.211358
0.216995
0.222291
0.227211
0.231728
0.235831
0.23952
0.242804
0.245703
0.248241
0.250443
0.252332
0.253928
0.255247
0.256305
0.257117
0.257703
0.258085
0.258295
0.258381
0.258467
0.258542
0.141317
0.148898
0.156338
0.163457
0.170295
0.176904
0.183279
0.189402
0.19525
0.200795
0.206006
0.210857
0.215327
0.219406
0.223092
0.226394
0.229331
0.23192
0.234181
0.23613
0.237784
0.239159
0.240271
0.241133
0.241761
0.242172
0.242391
0.242463
0.24251
0.242418
0.125821
0.133174
0.140531
0.147553
0.154283
0.160799
0.167093
0.173131
0.178884
0.184327
0.18944
0.194204
0.198604
0.202632
0.206285
0.209572
0.212508
0.215112
0.217402
0.219394
0.221099
0.222528
0.223692
0.224601
0.22527
0.225713
0.22595
0.226015
0.226028
0.225789
0.110561
0.11756
0.124711
0.131543
0.138106
0.144492
0.150683
0.156623
0.162271
0.167604
0.172607
0.177267
0.181572
0.18552
0.189111
0.192356
0.195267
0.197856
0.200138
0.202126
0.203835
0.205275
0.206454
0.207381
0.208063
0.208511
0.208737
0.208771
0.208724
0.208289
0.0957455
0.102223
0.108989
0.115506
0.121822
0.128026
0.13408
0.139898
0.145418
0.150615
0.15548
0.160005
0.164184
0.168016
0.171504
0.174661
0.177504
0.180048
0.182306
0.184286
0.185995
0.187439
0.188627
0.189567
0.190264
0.190723
0.190947
0.190952
0.190835
0.190222
0.0815634
0.0873255
0.0934939
0.099541
0.105507
0.11146
0.117328
0.122989
0.128359
0.133401
0.138105
0.142466
0.146486
0.150168
0.153522
0.156559
0.159289
0.161729
0.163894
0.165799
0.167451
0.168853
0.170006
0.170915
0.171586
0.172022
0.172216
0.17216
0.171927
0.17105
0.0681416
0.0730031
0.078361
0.0837699
0.0892635
0.0948704
0.100475
0.105913
0.111074
0.115909
0.120406
0.124557
0.128366
0.131841
0.135005
0.137876
0.14047
0.142799
0.144872
0.146698
0.148284
0.149635
0.150751
0.151632
0.152283
0.152704
0.152879
0.152771
0.152402
0.151282
0.0555404
0.0593633
0.0637315
0.0683366
0.0732185
0.0783678
0.0836238
0.0887768
0.0936807
0.098268
0.102513
0.106409
0.109963
0.113188
0.116103
0.118729
0.12109
0.123209
0.125102
0.126775
0.12823
0.129468
0.130489
0.131291
0.131874
0.132246
0.13238
0.132197
0.131633
0.130152
0.0437606
0.0464895
0.0497509
0.0534035
0.0575186
0.0620555
0.0668058
0.0715274
0.0760575
0.0803065
0.084222
0.0877841
0.0910046
0.0939143
0.0965459
0.0989225
0.10106
0.102974
0.104681
0.10619
0.107508
0.108633
0.109562
0.110287
0.110808
0.111138
0.111262
0.111045
0.110282
0.108483
0.0327564
0.0344389
0.0365485
0.0391251
0.0423614
0.0461865
0.0503189
0.0544944
0.0585494
0.0623736
0.065883
0.0690344
0.0718279
0.0742966
0.0764918
0.0784614
0.0802372
0.0818344
0.0832595
0.0845187
0.0856166
0.0865532
0.0873244
0.08792
0.0883297
0.0885717
0.0886619
0.0884324
0.0874694
0.0852729
0.0224519
0.0232341
0.0242314
0.0256114
0.0278072
0.0306961
0.0339503
0.0373473
0.0407433
0.0439896
0.0469604
0.0496004
0.0519166
0.0539468
0.0557372
0.0573275
0.0587458
0.0600127
0.061142
0.0621416
0.0630146
0.0637599
0.0643747
0.0648496
0.0651634
0.0653245
0.0653958
0.0652435
0.0642202
0.061828
0.0127242
0.0127853
0.0127427
0.0130983
0.0145561
0.016529
0.0187386
0.0211559
0.0236926
0.0261491
0.0283393
0.0301861
0.0317205
0.0330245
0.0341721
0.0351993
0.0361174
0.0369338
0.0376586
0.0382998
0.0388588
0.0393326
0.0397194
0.0400157
0.0401993
0.0402493
0.0402384
0.0401796
0.0393578
0.0370002
0.0036351
0.00229896
-0.000225986
-0.00064051
0.00092937
0.00219086
0.00329269
0.00459846
0.00610969
0.00763007
0.00897662
0.0100642
0.0109031
0.0115578
0.0120938
0.0125511
0.0129493
0.013299
0.0136085
0.0138837
0.0141256
0.0143311
0.0144978
0.0146275
0.0147112
0.0147084
0.014627
0.0146307
0.0144886
0.0129444
0.401986
0.393515
0.379361
0.362044
0.34446
0.327623
0.311734
0.296576
0.281902
0.267516
0.253277
0.239069
0.224815
0.210459
0.195952
0.181279
0.166447
0.151492
0.136504
0.121608
0.10697
0.0927726
0.0791823
0.0663138
0.0542263
0.0429217
0.0323345
0.0223738
0.012931
0.00394198
0.400774
0.390607
0.376121
0.358595
0.341099
0.324434
0.308714
0.293705
0.279162
0.264892
0.250758
0.236645
0.222477
0.208204
0.193776
0.179179
0.16443
0.149565
0.134687
0.119928
0.105456
0.0914537
0.0780786
0.0654344
0.0535689
0.0424756
0.032074
0.0222618
0.0129313
0.00401334
0.399668
0.387174
0.372342
0.354765
0.337519
0.321135
0.305644
0.290819
0.276423
0.262275
0.248246
0.234229
0.220148
0.205957
0.191607
0.177088
0.16242
0.147645
0.132871
0.118235
0.103912
0.0900814
0.0768972
0.064459
0.0528082
0.0419318
0.0317315
0.0220871
0.0128832
0.00406778
0.397989
0.383364
0.368434
0.350926
0.333969
0.317878
0.302614
0.287969
0.273718
0.259691
0.245766
0.231844
0.217848
0.203738
0.189466
0.175023
0.160437
0.145753
0.131088
0.116585
0.102419
0.0887671
0.0757787
0.063546
0.0521027
0.0414301
0.0314157
0.0219258
0.0128362
0.00410987
0.395843
0.379344
0.364485
0.347118
0.330454
0.314656
0.299619
0.285151
0.271043
0.257137
0.243317
0.229488
0.215576
0.201545
0.187348
0.172982
0.158477
0.143887
0.129333
0.114968
0.100965
0.0874992
0.0747126
0.0626887
0.0514508
0.0409732
0.0311309
0.0217817
0.0127942
0.00414042
0.393278
0.375196
0.360498
0.34334
0.326976
0.311471
0.296657
0.282366
0.2684
0.254615
0.240898
0.227162
0.213333
0.199378
0.185256
0.170964
0.156542
0.142047
0.127609
0.113385
0.0995504
0.086276
0.0736948
0.0618806
0.0508449
0.0405534
0.030871
0.0216503
0.0127543
0.00416152
0.390266
0.370967
0.35648
0.3396
0.323539
0.308323
0.29373
0.279614
0.265791
0.252125
0.238511
0.224866
0.211119
0.19724
0.183191
0.168973
0.154632
0.140236
0.125918
0.111839
0.0981779
0.0850993
0.0727261
0.0611212
0.0502837
0.0401693
0.0306348
0.0215306
0.0127165
0.00417501
0.386808
0.366707
0.352444
0.335901
0.320144
0.305215
0.29084
0.276897
0.263216
0.249669
0.236157
0.222602
0.208936
0.19513
0.181153
0.167008
0.152751
0.138454
0.12426
0.110332
0.0968489
0.0839702
0.0718067
0.0604102
0.049766
0.0398196
0.0304217
0.021422
0.0126811
0.00418255
0.382935
0.362451
0.348403
0.332248
0.316795
0.302146
0.287987
0.274216
0.260676
0.247246
0.233836
0.220371
0.206785
0.193051
0.179144
0.165072
0.150899
0.136706
0.122639
0.108866
0.0955655
0.0828896
0.0709361
0.059746
0.0492894
0.0395019
0.0302299
0.0213236
0.0126481
0.00418571
0.378696
0.358223
0.344373
0.328642
0.313494
0.299118
0.285174
0.27157
0.258171
0.244858
0.231549
0.218172
0.204665
0.191001
0.177164
0.163167
0.149079
0.134991
0.121056
0.107443
0.0943295
0.0818586
0.0701143
0.0591271
0.0488518
0.039214
0.0300575
0.0212346
0.0126177
0.00418569
0.374156
0.354034
0.340367
0.325082
0.310244
0.296133
0.2824
0.268963
0.255701
0.242505
0.229296
0.216006
0.202576
0.188982
0.175215
0.161292
0.147291
0.133312
0.119514
0.106067
0.0931431
0.0808784
0.0693417
0.058553
0.0484514
0.0389539
0.0299031
0.0211545
0.0125898
0.00418306
0.369389
0.349889
0.336402
0.32157
0.307045
0.293191
0.279666
0.266393
0.253268
0.240188
0.227077
0.213872
0.200519
0.186994
0.173297
0.15945
0.145538
0.131672
0.118014
0.104738
0.0920079
0.07995
0.0686187
0.0580228
0.0480871
0.0387202
0.0297653
0.0210827
0.0125643
0.00417882
0.36447
0.345789
0.332489
0.318107
0.303899
0.290294
0.276973
0.263863
0.250874
0.237908
0.224894
0.211773
0.198495
0.185038
0.171411
0.15764
0.143821
0.130071
0.11656
0.103459
0.090925
0.0790741
0.0679452
0.0575357
0.0477572
0.0385108
0.0296425
0.0210183
0.0125409
0.00417356
0.359471
0.341737
0.328641
0.314695
0.300805
0.287443
0.274323
0.261374
0.248518
0.235665
0.222747
0.209707
0.196503
0.183115
0.169557
0.155864
0.14214
0.128512
0.115152
0.10223
0.0898946
0.0782501
0.06732
0.0570896
0.0474592
0.0383234
0.0295329
0.0209603
0.0125191
0.00416774
0.354455
0.337732
0.324863
0.311337
0.297764
0.28464
0.271717
0.258926
0.246203
0.233461
0.220636
0.207677
0.194545
0.181225
0.167735
0.154123
0.140497
0.126996
0.113791
0.101052
0.0889165
0.0774771
0.0667412
0.056682
0.0471903
0.0381555
0.0294346
0.0209077
0.0124986
0.00416172
0.349477
0.333779
0.321162
0.308033
0.294775
0.281884
0.269154
0.25652
0.243927
0.231295
0.218563
0.205682
0.192621
0.179368
0.165947
0.152417
0.138894
0.125524
0.112478
0.0999252
0.0879903
0.0767537
0.0662066
0.0563101
0.0469475
0.0380046
0.029346
0.0208597
0.0124793
0.00415575
0.344579
0.329881
0.317539
0.304788
0.291839
0.279175
0.266635
0.254157
0.241691
0.229167
0.216526
0.203723
0.190732
0.177544
0.164193
0.150749
0.137333
0.124097
0.111215
0.0988504
0.087116
0.0760785
0.0657144
0.0559714
0.0467285
0.0378688
0.0292659
0.0208158
0.012461
0.00415004
0.339794
0.326044
0.313998
0.301602
0.288957
0.276515
0.26416
0.251835
0.239495
0.227077
0.214527
0.2018
0.188876
0.175755
0.162475
0.149119
0.135814
0.122717
0.110003
0.0978285
0.0862937
0.0754509
0.0652625
0.0556638
0.0465313
0.0377466
0.0291934
0.0207755
0.0124438
0.00414473
0.335145
0.322275
0.310539
0.298479
0.286127
0.273903
0.261729
0.249555
0.23734
0.225026
0.212564
0.199912
0.187055
0.174