/*--------------------------------*- C++ -*----------------------------------*\
  =========                 |
  \\      /  F ield         | OpenFOAM: The Open Source CFD Toolbox
   \\    /   O peration     | Website:  https://openfoam.org
    \\  /    A nd           | Version:  7
     \\/     M anipulation  |
\*---------------------------------------------------------------------------*/
FoamFile
{
    version     2.0;
    format      ascii;
    class       surfaceScalarField;
    location    "8.8";
    object      phi;
}
// * * * * * * * * * * * * * * * * * * * * * * * * * * * * * * * * * * * * * //

dimensions      [0 3 -1 0 0 0 0];

internalField   nonuniform List<scalar> 
35640
(
1.8183e-05
-0.000306063
0.00028788
6.687e-05
-0.00065409
0.000605403
0.00014353
-0.00076268
0.00068602
0.00024672
-0.000684742
0.000581552
0.000375684
-0.000458272
0.000329308
0.000530041
-0.000111888
-4.24689e-05
0.000709607
0.000331753
-0.000511319
0.000914286
0.000854634
-0.00105931
0.0011439
0.00144222
-0.00167183
0.00139814
0.00208243
-0.00233666
0.00167646
0.00276502
-0.00304334
0.00197806
0.00348097
-0.00378257
0.00230176
0.00422208
-0.00454577
0.00264599
0.00498059
-0.00532482
0.00300882
0.00574907
-0.0061119
0.00338788
0.00652029
-0.00689935
0.00378045
0.00728715
-0.00767973
0.00418348
0.00804278
-0.00844581
0.00459368
0.00878055
-0.00919075
0.0050076
0.00949423
-0.00990815
0.00542172
0.0101781
-0.0105922
0.00583259
0.010827
-0.0112379
0.00623691
0.0114367
-0.011841
0.0066316
0.0120036
-0.0123983
0.00701395
0.0125248
-0.0129072
0.00738164
0.0129987
-0.0133664
0.00773288
0.0134237
-0.013775
0.00806648
0.0137989
-0.0141325
0.00838196
0.0141224
-0.0144379
0.0143886
0.0086797
-0.0146864
1.74767e-05
-0.00032354
6.38416e-05
-0.000700455
0.000136387
-0.000835225
0.000233634
-0.000781989
0.000354902
-0.000579539
0.000499944
-0.00025693
0.000668686
0.000163012
0.000861121
0.000662199
0.0010772
0.00122613
0.00131675
0.00184288
0.00157938
0.00250239
0.00186444
0.00319591
0.00217099
0.00391553
0.00249773
0.00465385
0.00284299
0.00540381
0.00320474
0.00615855
0.00358057
0.00691132
0.0039678
0.00765556
0.00436344
0.00838491
0.00476433
0.00909333
0.00516722
0.0097752
0.00556885
0.0104254
0.00596604
0.0110395
0.00635579
0.0116138
0.0067354
0.0121452
0.00710251
0.0126316
0.00745521
0.013071
0.00779218
0.0134619
0.0081127
0.0138019
0.0140845
0.0084168
1.66979e-05
-0.000340238
6.05124e-05
-0.00074427
0.000128616
-0.000903328
0.000219594
-0.000872967
0.000332901
-0.000692846
0.000468427
-0.000392455
0.000626222
5.21722e-06
0.000806406
0.000482015
0.00100905
0.00102349
0.00123409
0.00161784
0.00148126
0.00225521
0.00175009
0.00292708
0.0020398
0.00362582
0.00234931
0.00434434
0.00267719
0.00507593
0.0030217
0.00581404
0.00338073
0.00655228
0.00375189
0.0072844
0.0041325
0.0080043
0.00451969
0.00870614
0.00491045
0.00938444
0.00530174
0.0100341
0.00569053
0.0106507
0.00607393
0.0112304
0.00644928
0.0117699
0.00681421
0.0122666
0.00716676
0.0127185
0.00750549
0.0131232
0.0078295
0.0134779
0.0137756
0.00813842
1.58103e-05
-0.000356049
5.67395e-05
-0.000785199
0.000120015
-0.000966604
0.000204351
-0.000957303
0.000309353
-0.000797848
0.00043509
-0.000518192
0.000581772
-0.000141465
0.000749632
0.000314155
0.000938869
0.000834249
0.00114953
0.00140718
0.00138148
0.00202326
0.00163436
0.00267421
0.00190754
0.00335264
0.00220013
0.00405175
0.00251092
0.00476514
0.00283838
0.00548657
0.00318069
0.00620997
0.00353572
0.00692938
0.00390106
0.00763896
0.00427412
0.00833309
0.00465213
0.00900643
0.00503225
0.00965401
0.00541163
0.0102714
0.00578752
0.0108545
0.00615732
0.0114001
0.00651868
0.0119053
0.00686963
0.0123675
0.00720864
0.0127842
0.00753464
0.0131519
0.0134634
0.0078469
1.47657e-05
-0.000370814
5.24923e-05
-0.000822925
0.00011052
-0.00102463
0.000187778
-0.00103456
0.000284095
-0.000894165
0.000399719
-0.000633815
0.000535042
-0.000276788
0.000690452
0.000158744
0.000866263
0.000658438
0.00106263
0.00121081
0.00127952
0.00180637
0.0015167
0.00243704
0.00177367
0.00309567
0.00204967
0.00377575
0.00234369
0.00447112
0.0026544
0.00517586
0.00298019
0.00588418
0.00331917
0.0065904
0.00366919
0.00728893
0.0040279
0.00797438
0.00439276
0.00864156
0.00476115
0.00928563
0.00513039
0.00990212
0.00549786
0.010487
0.00586106
0.0110369
0.0062177
0.0115486
0.00656581
0.0120194
0.00690379
0.0124462
0.00723041
0.0128253
0.0131492
0.00754459
1.35618e-05
-0.000384376
4.7709e-05
-0.000857072
0.000100039
-0.00107696
0.000169757
-0.00110428
0.000256949
-0.000981357
0.000362094
-0.000738959
0.000485784
-0.000400478
0.000628565
1.59641e-05
0.000790873
0.00049613
0.000972979
0.0010287
0.00117495
0.0016044
0.00139665
0.00221534
0.0016377
0.00285462
0.00189747
0.00351598
0.00217508
0.00419351
0.00246937
0.00488156
0.00277894
0.00557462
0.00310209
0.00626725
0.00343691
0.00695412
0.00378124
0.00763004
0.0041328
0.00829001
0.00448912
0.0089293
0.00484773
0.00954351
0.00520615
0.0101286
0.00556198
0.0106811
0.00591301
0.0111976
0.00625726
0.0116752
0.00659312
0.0121103
0.00691921
0.0124992
0.0128343
0.00723411
1.21694e-05
-0.000396546
4.23562e-05
-0.000887259
8.85154e-05
-0.00112312
0.000150198
-0.00116596
0.000227813
-0.00105897
0.000322091
-0.000833237
0.000433838
-0.000512224
0.000563778
-0.000113976
0.000712483
0.000347425
0.000880331
0.000860854
0.00106749
0.00141724
0.00127392
0.00200891
0.00149932
0.00262922
0.00174319
0.00327211
0.00200477
0.00393194
0.00228304
0.00460329
0.00257676
0.0052809
0.00288441
0.00595959
0.00320427
0.00663426
0.00353439
0.00729992
0.00387266
0.00795174
0.00421683
0.00858513
0.00456457
0.00919576
0.00491356
0.00977964
0.00526151
0.0103331
0.00560629
0.0108528
0.00594596
0.0113355
0.00627885
0.0117775
0.00660346
0.0121746
0.0125197
0.00691806
1.05767e-05
-0.000407122
3.64022e-05
-0.000913085
7.59059e-05
-0.00116262
0.000129058
-0.00121911
0.000196628
-0.00112654
0.000279636
-0.000916244
0.000379123
-0.000611712
0.000496001
-0.000230853
0.000630978
0.000212448
0.000784549
0.000707283
0.000956982
0.0012448
0.00114831
0.00181758
0.00135834
0.00241919
0.00158665
0.0030438
0.00183259
0.003686
0.00209527
0.00434061
0.00237357
0.00500261
0.00266614
0.00566703
0.00297141
0.00632899
0.00328762
0.00698371
0.00361282
0.00762654
0.00394494
0.00825301
0.00428181
0.00885889
0.00462123
0.00944021
0.00496105
0.0099933
0.00529921
0.0105147
0.0056338
0.0110009
0.00596314
0.0114481
0.00628556
0.0118521
0.0122062
0.00659908
8.77335e-06
-0.000415895
2.98345e-05
-0.000934146
6.21966e-05
-0.00119499
0.000106323
-0.00126324
0.000163387
-0.00118361
0.00023473
-0.000987587
0.000321646
-0.000698627
0.000425236
-0.000334443
0.00054636
9.13237e-05
0.000685629
0.000568014
0.000843408
0.00108702
0.00101981
0.00164118
0.00121473
0.00222427
0.00142783
0.0028307
0.00165854
0.00345529
0.00190607
0.00409307
0.00216944
0.00473924
0.00244741
0.00538905
0.00273856
0.00603783
0.00304128
0.00668099
0.00335378
0.00731404
0.00367414
0.00793265
0.00400034
0.00853269
0.00433031
0.00911024
0.00466199
0.00966161
0.00499342
0.0101833
0.00532271
0.0106716
0.00564814
0.0111227
0.00596793
0.0115324
0.0118943
0.00627978
6.75827e-06
-0.000422654
2.26528e-05
-0.00095004
4.73973e-05
-0.00121973
8.20206e-05
-0.00129786
0.000128141
-0.00122973
0.000187447
-0.00104689
0.000261496
-0.000772676
0.000351592
-0.000424539
0.000458749
-1.58326e-05
0.000583698
0.000443066
0.000726898
0.000943824
0.000888551
0.00147952
0.00106862
0.0020442
0.00126684
0.00263248
0.00148274
0.00323939
0.00171561
0.0038602
0.00196456
0.00449029
0.00222848
0.00512513
0.00250607
0.00576024
0.00279584
0.00639122
0.00309615
0.00701373
0.0034052
0.0076236
0.00372112
0.00821678
0.00404195
0.00878941
0.00436573
0.00933783
0.00469055
0.00985843
0.00501457
0.0103476
0.00533601
0.0108012
0.00565295
0.0112154
0.0115845
0.00596281
4.53251e-06
-0.000427186
1.48712e-05
-0.000960378
3.15469e-05
-0.00123641
5.62209e-05
-0.00132254
9.09947e-05
-0.0012645
0.000137928
-0.00109383
0.000198853
-0.0008336
0.000275279
-0.000500965
0.00036838
-0.000108933
0.00047901
0.000332436
0.000607725
0.000815109
0.00075481
0.00133244
0.000920301
0.00187871
0.00110401
0.00244877
0.00130552
0.00303788
0.00152423
0.00364149
0.00175932
0.0042552
0.00200979
0.00487467
0.00227443
0.0054956
0.00255188
0.00611377
0.00284061
0.006725
0.00313896
0.00732525
0.00344516
0.00791059
0.00375735
0.00847722
0.00407367
0.00902151
0.00439225
0.00953984
0.00471127
0.0100286
0.00502888
0.0104836
0.00534301
0.0109013
0.0112766
0.00565081
2.10371e-06
-0.00042929
6.51978e-06
-0.000964794
1.47105e-05
-0.0012446
2.90347e-05
-0.00133686
5.21114e-05
-0.00128758
8.63887e-05
-0.0011281
0.000133979
-0.000881191
0.000196606
-0.000563592
0.000275605
-0.000187932
0.000371952
0.000236089
0.000486303
0.000700758
0.000619025
0.00119972
0.000770228
0.0017275
0.000939789
0.00227921
0.00112737
0.0028503
0.00133244
0.00343643
0.00155426
0.00403339
0.0017919
0.00463702
0.00204428
0.00524322
0.00231012
0.00584792
0.002588
0.00644712
0.00287636
0.00703689
0.00317354
0.00761341
0.00347777
0.00817299
0.00378726
0.00871202
0.00410018
0.00922692
0.00441469
0.00971404
0.00472887
0.0101695
0.00504048
0.0105897
0.0109707
0.00534641
-5.18276e-07
-0.000428771
-2.35647e-06
-0.000962956
-3.01929e-06
-0.00124393
6.13656e-07
-0.00134049
1.17074e-05
-0.00129867
3.31098e-05
-0.00114951
6.72209e-05
-0.000915301
0.000115979
-0.000612349
0.000180882
-0.000252834
0.000263031
0.00015394
0.00036318
0.00060061
0.000481779
0.00108112
0.000619013
0.00159027
0.000774826
0.00212339
0.000948952
0.00267617
0.00114092
0.00324446
0.00135008
0.00382423
0.00157558
0.00441152
0.00181642
0.00500238
0.00207142
0.00559293
0.00233925
0.00617929
0.00261845
0.00675769
0.00290743
0.00732443
0.00320452
0.0078759
0.00350798
0.00840856
0.003816
0.0089189
0.0041267
0.00940334
0.00443808
0.00985808
0.0047477
0.0102801
0.0106662
0.0050522
-3.31237e-06
-0.000425459
-1.16992e-05
-0.000954569
-2.1523e-05
-0.00123411
-2.88508e-05
-0.00133317
-2.99483e-05
-0.00129757
-2.15611e-05
-0.00115789
-9.98014e-07
-0.000935864
3.38944e-05
-0.000647242
8.47751e-05
-0.000303715
0.00015287
8.58453e-05
0.000239031
0.000514449
0.000343794
0.000976355
0.000467417
0.00146665
0.000609916
0.0019809
0.000771091
0.002515
0.000950542
0.003065
0.00114768
0.00362709
0.00136175
0.00419745
0.00159182
0.00477231
0.0018368
0.00534795
0.00209545
0.00592064
0.00236638
0.00648676
0.0026481
0.00704271
0.00293899
0.00758501
0.00323735
0.00811019
0.00354139
0.00861486
0.00384918
0.00909555
0.00415858
0.00954868
0.00446697
0.00997168
0.0103624
0.00477073
-6.25959e-06
-0.000419199
-2.14341e-05
-0.000939394
-4.0655e-05
-0.00121489
-5.9129e-05
-0.00131469
-7.25368e-05
-0.00128416
-7.72145e-05
-0.00115321
-7.01795e-05
-0.000942899
-4.90657e-05
-0.000668355
-1.20562e-05
-0.000340724
4.21985e-05
3.15906e-05
0.000114651
0.000441996
0.000205921
0.000885085
0.000316343
0.00135622
0.000446003
0.00185124
0.00059477
0.00236623
0.000762312
0.00289746
0.000948116
0.00344128
0.00115149
0.00399407
0.0013716
0.00455221
0.00160742
0.00511213
0.00185779
0.00567027
0.00212142
0.00622313
0.00239688
0.00676726
0.0026826
0.00729928
0.00297693
0.00781587
0.00327804
0.00831375
0.00358394
0.00878965
0.00389238
0.00924024
0.00420052
0.00966355
0.0100585
0.00450447
-9.3321e-06
-0.000409867
-3.1474e-05
-0.000917252
-6.02451e-05
-0.00118612
-8.99559e-05
-0.00128498
-0.000115693
-0.00125843
-0.000133383
-0.00113552
-0.000139757
-0.000936525
-0.000132241
-0.000675871
-0.000108862
-0.000364102
-6.81512e-05
-9.12069e-06
-9.05391e-06
0.000382898
6.91341e-05
0.000806897
0.000166824
0.00125853
0.000284173
0.00173389
0.00042112
0.00222928
0.000577404
0.00274118
0.000752581
0.00326611
0.00094604
0.00380061
0.00115701
0.00434124
0.00138456
0.00488458
0.00162761
0.00542722
0.00188495
0.0059658
0.00215519
0.00649701
0.00243685
0.00701762
0.00272827
0.00752445
0.00302761
0.00801441
0.00333281
0.00848444
0.00364146
0.00893159
0.0039505
0.0093545
0.00975318
0.0042558
-1.24984e-05
-0.000397368
-4.17185e-05
-0.000888032
-8.01e-05
-0.00114774
-0.000121033
-0.00124405
-0.000159006
-0.00122045
-0.000189546
-0.00110498
-0.0002091
-0.00091697
-0.000214896
-0.000670076
-0.000204811
-0.000374187
-0.000177254
-3.66772e-05
-0.000131074
0.000336718
-6.54808e-05
0.000741304
2.00141e-05
0.00117304
0.000125643
0.00162826
0.000251413
0.00210351
0.000397134
0.00259546
0.000562434
0.00310081
0.000746781
0.00361626
0.000949479
0.00413854
0.00116968
0.00466438
0.00140638
0.00519051
0.00165844
0.00571374
0.00192455
0.00623089
0.00220327
0.0067389
0.00249296
0.00723476
0.00279176
0.00771561
0.00309753
0.00817868
0.00340769
0.00862143
0.00371897
0.00904322
0.00944518
0.00402698
-1.57227e-05
-0.000381645
-5.2055e-05
-0.0008517
-0.000100006
-0.00109979
-0.000152032
-0.00119202
-0.00020203
-0.00117046
-0.000245133
-0.00106188
-0.000277521
-0.000884582
-0.000296229
-0.000651367
-0.00029899
-0.000371426
-0.000284098
-5.15695e-05
-0.000250303
0.000302923
-0.00019673
0.000687731
-0.000122813
0.00109912
-2.82457e-05
0.00153369
8.70517e-05
0.00198821
0.000222958
0.00245955
0.000379178
0.00294459
0.000555252
0.00344019
0.000750564
0.00394323
0.000964343
0.0044506
0.00119567
0.00495919
0.00144348
0.00546593
0.00170655
0.00596783
0.00198347
0.00646198
0.00227262
0.00694561
0.00257214
0.00741609
0.00287979
0.00787103
0.00319286
0.00830836
0.00350785
0.00872823
0.00913291
0.00382012
-1.89653e-05
-0.00036268
-6.23599e-05
-0.000808305
-0.000119728
-0.00104242
-0.000182597
-0.00112915
-0.000244278
-0.00110878
-0.000299531
-0.00100663
-0.000344279
-0.000839834
-0.000375376
-0.00062027
-0.000390418
-0.000356384
-0.000387588
-5.43995e-05
-0.000365542
0.000280876
-0.000323319
0.000645508
-0.000260274
0.00103608
-0.000176026
0.00144944
-7.04258e-05
0.00188261
5.6478e-05
0.00233265
0.000204463
0.0027966
0.000373146
0.00327151
0.000561984
0.00375439
0.000770288
0.00424229
0.000997223
0.00473225
0.0012418
0.00522135
0.00150287
0.00570676
0.00177909
0.00618576
0.00206888
0.00665582
0.00237036
0.00711461
0.00268124
0.00756016
0.00299866
0.00799094
0.00331894
0.00840795
0.00881469
0.00363716
-2.2183e-05
-0.000340497
-7.25001e-05
-0.000757988
-0.000139019
-0.0009759
-0.000212349
-0.00105582
-0.000285237
-0.00103589
-0.000352087
-0.000939778
-0.000408584
-0.000783336
-0.000451416
-0.000577438
-0.000478047
-0.000329754
-0.000486555
-4.58915e-05
-0.000475504
0.000269825
-0.00044385
0.000613853
-0.000390869
0.000983095
-0.000316108
0.00137468
-0.000219346
0.00178585
-0.00010056
0.00221386
4.00981e-05
0.00265594
0.000202316
0.00310929
0.000385625
0.00357108
0.000589414
0.0040385
0.000812929
0.00450874
0.00105527
0.00497901
0.00131536
0.00544667
0.00159193
0.00590919
0.00188346
0.00636429
0.00218808
0.00680998
0.00250348
0.00724476
0.0028267
0.00766772
0.00315387
0.00808078
0.00848869
0.00347986
-2.53299e-05
-0.000315167
-8.23348e-05
-0.000700983
-0.000157616
-0.000900619
-0.000240889
-0.00097255
-0.000324366
-0.00095241
-0.000402116
-0.000862027
-0.000469608
-0.000715844
-0.000523376
-0.00052367
-0.000560763
-0.000292367
-0.00057975
-2.69045e-05
-0.000578814
0.000268888
-0.000556827
0.000591866
-0.000512988
0.000939257
-0.000446774
0.00130847
-0.000357892
0.00169697
-0.000246252
0.00210222
-0.000111938
0.00252163
4.48031e-05
0.00295255
0.000223571
0.00339232
0.000423827
0.00383825
0.000644894
0.00428767
0.000885952
0.00473795
0.00114601
0.00518661
0.0014239
0.00563131
0.00171816
0.00607002
0.002027
0.00650115
0.0023481
0.00692365
0.00267848
0.00733734
0.00301414
0.00774512
0.00815308
0.00334975
-2.83579e-05
-0.000286809
-9.17175e-05
-0.000637623
-0.000175246
-0.00081709
-0.000267806
-0.000879989
-0.000361105
-0.000859111
-0.000448908
-0.000774224
-0.000526487
-0.000638265
-0.000590238
-0.000459919
-0.000637399
-0.000245206
-0.000665858
1.55413e-06
-0.000674009
0.000277039
-0.000660647
0.000578504
-0.000624898
0.000903507
-0.000566165
0.00124973
-0.000484091
0.0016149
-0.000378519
0.00199665
-0.000249472
0.00239258
-9.71393e-05
0.00280021
7.81378e-05
0.00321704
0.000275883
0.0036405
0.000495487
0.00406806
0.000736201
0.00449724
0.000997127
0.00492568
0.00127718
0.00535125
0.00157502
0.00577218
0.00188896
0.00618721
0.00221677
0.00659584
0.00255551
0.0069986
0.00290113
0.0073995
0.00780606
0.00324816
-3.12177e-05
-0.000255591
-0.000100499
-0.000568342
-0.000191634
-0.000725956
-0.000292682
-0.000778942
-0.000394884
-0.000756909
-0.000491733
-0.000677374
-0.000578328
-0.00055167
-0.000650946
-0.000387301
-0.000706731
-0.000189421
-0.000743491
3.8313e-05
-0.000759542
0.000293091
-0.000753607
0.000572569
-0.000724739
0.000874639
-0.000672277
0.00119727
-0.000595798
0.00153842
-0.000495084
0.00189594
-0.000370106
0.0022676
-0.000221005
0.00265111
-4.80754e-05
0.00304411
0.000148251
0.00344418
0.000367415
0.0038489
0.000608724
0.00425593
0.000871354
0.00466305
0.00115432
0.00506829
0.00145641
0.00547009
0.00177609
0.00586753
0.00211133
0.0062606
0.00245933
0.0066506
0.00281615
0.00704269
0.00744597
0.00317624
-3.38594e-05
-0.000221732
-0.00010853
-0.000493671
-0.000206503
-0.000627983
-0.000315094
-0.000670351
-0.000425126
-0.000646877
-0.000529852
-0.000572648
-0.000624223
-0.000457299
-0.000704415
-0.000307109
-0.000767495
-0.000126341
-0.000811201
8.20181e-05
-0.000833781
0.000315671
-0.00083389
0.000572677
-0.000810518
0.000851267
-0.00076294
0.00114969
-0.000690673
0.00146615
-0.000593444
0.00179871
-0.000471182
0.00214534
-0.000323989
0.00250392
-0.00015213
0.00287225
4.39874e-05
0.00324806
0.000263824
0.00362906
0.000506716
0.00401304
0.00077188
0.00439788
0.00105841
0.00478176
0.00136523
0.00516327
0.00169101
0.00554175
0.00203399
0.00591761
0.00239172
0.00629287
0.00276055
0.00667387
0.00707149
0.00313502
-3.62342e-05
-0.000185498
-0.000115664
-0.000414241
-0.000219581
-0.000524066
-0.000334628
-0.000555304
-0.000451259
-0.000530245
-0.000562524
-0.000461383
-0.000663252
-0.000356571
-0.000749538
-0.000220823
-0.000818389
-5.74899e-05
-0.000867484
0.000131113
-0.000895014
0.000343201
-0.000899576
0.000577239
-0.000880103
0.000831794
-0.000835813
0.0011054
-0.000766167
0.0013965
-0.000670847
0.00170339
-0.000549744
0.00202424
-0.000402937
0.00235711
-0.000230677
0.00269999
-3.33736e-05
0.00305076
0.000188416
0.00340727
0.000434009
0.00376744
0.000702614
0.00412928
0.000993344
0.00449103
0.00130522
0.0048514
0.00163712
0.00520985
0.00198767
0.00556706
0.00235496
0.00592558
0.00273598
0.00629285
0.00668181
0.00312566
-3.82954e-05
-0.000147203
-0.00012176
-0.000330777
-0.000230605
-0.000415221
-0.000350882
-0.000435028
-0.000472728
-0.000408399
-0.000589024
-0.000345087
-0.000694505
-0.00025109
-0.000785206
-0.000130121
-0.000858091
1.53948e-05
-0.000910794
0.000183816
-0.000941462
0.000373868
-0.000948645
0.000584422
-0.000931228
0.000814377
-0.000888378
0.00106255
-0.000819509
0.00132763
-0.000724265
0.00160814
-0.000602507
0.00190248
-0.000454301
0.00220891
-0.0002799
0.00252559
-7.97439e-05
0.0028506
0.000145559
0.00318197
0.000395246
0.00351776
0.00066843
0.0038561
0.000964142
0.00419532
0.00128139
0.00453415
0.00161918
0.00487205
0.00197656
0.00520969
0.0023524
0.00554973
0.00274488
0.00590037
0.00627684
0.00314985
-3.99998e-05
-0.000107203
-0.000126688
-0.000244089
-0.000239332
-0.000302577
-0.000363476
-0.000310883
-0.000489
-0.000282876
-0.000608649
-0.000225438
-0.00071709
-0.000142648
-0.000810321
-3.68911e-05
-0.000885276
9.03498e-05
-0.000939563
0.000238103
-0.000971296
0.000405601
-0.000978993
0.000592119
-0.000961502
0.000796886
-0.000917949
0.001019
-0.00084771
0.00125739
-0.000750396
0.00151083
-0.000625845
0.00177793
-0.000474114
0.00205718
-0.000295472
0.00234695
-9.04019e-05
0.00264553
0.0001404
0.00295117
0.000396031
0.00326213
0.000675415
0.00357671
0.00097735
0.00389338
0.00130062
0.00421089
0.00164415
0.00452852
0.00200721
0.00484662
0.00238964
0.0051673
0.00279155
0.00549846
0.00585748
0.00321091
-4.1309e-05
-6.58939e-05
-0.000130329
-0.000155069
-0.000245538
-0.000187368
-0.000372064
-0.000184356
-0.000499583
-0.000155357
-0.000620739
-0.000104282
-0.000730159
-3.32281e-05
-0.000823819
5.67686e-05
-0.000898643
0.000165174
-0.000952227
0.000291687
-0.000982669
0.000436043
-0.000988468
0.000597918
-0.000968448
0.000776866
-0.000921707
0.000972259
-0.00084759
0.00118328
-0.000745685
0.00140892
-0.000615809
0.00164805
-0.000458008
0.00189938
-0.000272564
0.0021615
-6.00038e-05
0.00243297
0.000178877
0.00271229
0.000443012
0.00299799
0.000731056
0.00328867
0.00104142
0.00358302
0.00137238
0.00387993
0.00172233
0.00417856
0.00209028
0.00447868
0.0024766
0.00478099
0.00288402
0.00509103
0.00542525
0.00331625
-4.21906e-05
-2.37034e-05
-0.000132583
-6.46772e-05
-0.00024903
-7.09209e-05
-0.000376339
-5.7047e-05
-0.000504033
-2.76635e-05
-0.000624691
1.63764e-05
-0.000732921
7.50014e-05
-0.000824697
0.000148544
-0.000896946
0.000237423
-0.000947266
0.000342007
-0.000973758
0.000462534
-0.000974916
0.000599076
-0.000949554
0.000751504
-0.000896754
0.000919459
-0.000815847
0.00110237
-0.000706397
0.00129947
-0.000568202
0.00150986
-0.00040129
0.00173246
-0.000205937
0.00196615
1.73121e-05
0.00220972
0.00026761
0.00246199
0.000543762
0.00272184
0.000844179
0.00298825
0.00116684
0.00326036
0.00150933
0.00353744
0.00186901
0.00381888
0.00224363
0.00410406
0.0026324
0.00439222
0.00303914
0.00468429
0.00497924
0.00348516
-4.26183e-05
1.89148e-05
-0.000133369
2.60733e-05
-0.00024965
4.53608e-05
-0.000376042
6.93447e-05
-0.00050197
9.82646e-05
-0.000619977
0.000134384
-0.000724672
0.000179696
-0.000812042
0.000235914
-0.00087903
0.000304411
-0.000923251
0.000386228
-0.000942822
0.000482105
-0.00093625
0.000592504
-0.000902353
0.000717606
-0.000840213
0.000857319
-0.000749155
0.00101131
-0.000628733
0.00117905
-0.000478718
0.00135984
-0.000299109
0.00155286
-9.01426e-05
0.00175718
0.000147681
0.0019719
0.000413557
0.00219611
0.000706324
0.00242907
0.00102438
0.00267019
0.00136561
0.00291913
0.00172728
0.00317576
0.00210616
0.00344
0.00249893
0.00371129
0.00290246
0.00398869
0.00331698
0.00426976
0.00377222
0.004524
0.00886796
0.0838682
-0.0840565
0.00860036
0.0853451
-0.0850775
0.00814805
0.0830296
-0.0825773
0.00765793
0.0793074
-0.0788173
0.00722331
0.0752834
-0.0748488
0.00686626
0.0715301
-0.0711731
0.00657641
0.0682321
-0.0679422
0.00633372
0.0653969
-0.0651542
0.00611795
0.0629899
-0.0627741
0.00591462
0.0609705
-0.0607671
0.0057135
0.0593206
-0.0591195
0.00550943
0.0580255
-0.0578215
0.00529922
0.057067
-0.0568568
0.00508176
0.0564102
-0.0561927
0.00485577
0.0560093
-0.0557833
0.00462073
0.0558099
-0.0555748
0.00437664
0.0557621
-0.055518
0.00412281
0.0558237
-0.0555699
0.00385994
0.0559597
-0.0556969
0.00358847
0.0561426
-0.0558712
0.00330907
0.0563556
-0.0560762
0.00302279
0.0565796
-0.0562933
0.00273016
0.0568065
-0.0565139
0.00243223
0.0570246
-0.0567267
0.00212916
0.0572267
-0.0569236
0.00182123
0.0574078
-0.0570999
0.00150828
0.0575661
-0.0572532
0.00119037
0.0577055
-0.0573876
0.000868509
0.0578275
-0.0575056
0.0578959
-0.057574
0.00874138
0.0835436
0.00857328
0.0855132
0.00818857
0.0834143
0.00773968
0.0797563
0.00732937
0.0756937
0.00698721
0.0718723
0.00670743
0.0685118
0.00647169
0.0656326
0.00626069
0.0632009
0.00605997
0.0611712
0.00585966
0.0595209
0.00565455
0.0582307
0.005442
0.0572795
0.00522084
0.0566314
0.00499033
0.0562398
0.00474986
0.0560503
0.00449934
0.0560126
0.00423857
0.0560845
0.0039682
0.0562301
0.00368847
0.0564224
0.00340058
0.0566435
0.00310513
0.0568751
0.00280304
0.0571086
0.00249527
0.0573324
0.0021819
0.0575401
0.00186351
0.0577262
0.00153969
0.0578899
0.0012108
0.0580344
0.000877831
0.0581605
0.0582292
0.00859802
0.083084
0.00853168
0.0855796
0.00821759
0.0837284
0.00781253
0.0801613
0.00742839
0.0760778
0.0071023
0.0721984
0.00683351
0.0687806
0.00660564
0.0658605
0.00640034
0.0634062
0.00620309
0.0613684
0.0060044
0.0597196
0.00579893
0.0584361
0.00558458
0.0574939
0.0053601
0.0568559
0.00512526
0.0564746
0.00487948
0.0562961
0.00462261
0.0562695
0.00435491
0.0563522
0.00407698
0.056508
0.00378896
0.0567104
0.00349251
0.0569399
0.00318783
0.0571798
0.00287624
0.0574202
0.00255855
0.0576501
0.00223484
0.0578638
0.00190594
0.0580551
0.00157122
0.0582247
0.00123133
0.0583743
0.000887213
0.0585046
0.0585738
0.00843916
0.0824918
0.00847601
0.0855427
0.00823509
0.0839693
0.00787623
0.0805202
0.00752
0.0764341
0.00721116
0.0725072
0.00695427
0.0690375
0.00673521
0.0660795
0.00653651
0.0636049
0.00634372
0.0615612
0.00614751
0.0599158
0.00594254
0.0586411
0.00572684
0.0577096
0.00549949
0.0570832
0.00526053
0.0567136
0.00500955
0.0565471
0.00474649
0.0565326
0.00447185
0.0566268
0.00418623
0.0567937
0.00389002
0.0570066
0.00358479
0.0572451
0.00327092
0.0574936
0.00294972
0.0577414
0.00262202
0.0579778
0.00228803
0.0581978
0.00194849
0.0583947
0.00160292
0.0585702
0.00125196
0.0587253
0.00089665
0.0588599
0.0589299
0.0082663
0.0817701
0.00840713
0.0854019
0.00824127
0.0841352
0.0079306
0.0808309
0.00760387
0.0767608
0.00731338
0.0727977
0.00706918
0.0692817
0.00685991
0.0662888
0.00666892
0.0637959
0.00648167
0.0617485
0.00628882
0.0601087
0.00608511
0.0588448
0.00586867
0.057926
0.00563898
0.0573129
0.00539613
0.0569564
0.00514004
0.0568032
0.00487093
0.0568017
0.00458936
0.0569084
0.00429598
0.057087
0.00399159
0.057311
0.00367746
0.0575593
0.00335439
0.0578167
0.00302351
0.0580723
0.00268573
0.0583156
0.00234144
0.0585421
0.00199114
0.058745
0.00163472
0.0589266
0.00127265
0.0590873
0.00090613
0.0592264
0.0592975
0.00808096
0.0809232
0.00832591
0.0851569
0.00823643
0.0842247
0.00797559
0.0810917
0.00767967
0.0770567
0.00740853
0.0730688
0.00717791
0.0695124
0.00697938
0.0664873
0.00679719
0.0639781
0.00661662
0.061929
0.00642813
0.0602972
0.00622652
0.0590464
0.00601001
0.0581425
0.00577841
0.0575445
0.005532
0.0572029
0.005271
0.0570642
0.0049959
0.0570768
0.00470744
0.0571969
0.0044063
0.0573882
0.00409364
0.0576236
0.00377059
0.0578823
0.00343822
0.0581491
0.0030976
0.0584129
0.00274968
0.0586635
0.00239502
0.0588967
0.00203395
0.059106
0.00166663
0.059294
0.00129343
0.0594605
0.000915658
0.0596042
0.0596767
0.00788491
0.0799564
0.00823342
0.0848084
0.00822101
0.0842371
0.00801123
0.0813015
0.00774716
0.0773208
0.00749623
0.0733198
0.00728005
0.0697285
0.00709325
0.0666741
0.00692096
0.0641504
0.00674824
0.0621018
0.00656522
0.0604802
0.00636661
0.059245
0.00615073
0.0583584
0.0059177
0.0577775
0.00566806
0.0574525
0.00540239
0.0573298
0.00512138
0.0573578
0.00482606
0.0574922
0.00451719
0.057697
0.00419618
0.0579447
0.00386417
0.0582143
0.00352242
0.0584908
0.00317199
0.0587633
0.00281387
0.0590216
0.00244876
0.0592618
0.0020769
0.0594779
0.00169864
0.0596722
0.00131429
0.0598449
0.000925241
0.0599932
0.0600674
0.00768006
0.0788754
0.00813087
0.0843576
0.00819557
0.0841724
0.00803765
0.0814594
0.00780617
0.0775523
0.00757616
0.0735498
0.00737522
0.0699295
0.00720113
0.0668482
0.00703988
0.0643116
0.00687625
0.0622654
0.00669983
0.0606566
0.00650518
0.0594397
0.00629069
0.0585729
0.00605674
0.0580115
0.00580425
0.057705
0.00553414
0.0575999
0.00524735
0.0576446
0.00494521
0.0577944
0.00462863
0.0580136
0.00429922
0.0582741
0.00395821
0.0585554
0.00360699
0.058842
0.00324669
0.0591236
0.0028783
0.05939
0.00250268
0.0596375
0.00212001
0.0598606
0.00173075
0.0600615
0.00133523
0.0602404
0.000934878
0.0603936
0.0604698
0.00746846
0.0776867
0.00801968
0.0838064
0.00816087
0.0840312
0.0080551
0.0815652
0.00785665
0.0777507
0.00764807
0.0737584
0.00746306
0.0701145
0.00730263
0.0670086
0.00715361
0.0644606
0.00700033
0.0624187
0.00683171
0.0608252
0.00664204
0.0596294
0.00642971
0.0587852
0.00619542
0.0582458
0.00594047
0.0579599
0.00566619
0.0578742
0.00537377
0.057937
0.00506486
0.0581033
0.00474061
0.0583379
0.00440276
0.0586119
0.00405271
0.0589054
0.00369195
0.0592028
0.00332171
0.0594939
0.00294299
0.0597687
0.00255679
0.0600237
0.00216327
0.0602541
0.00176298
0.0604618
0.00135626
0.0606471
0.000944571
0.0608053
0.0608839
0.00725229
0.0763972
0.00790138
0.0831573
0.0081178
0.0838148
0.00806399
0.081619
0.00789864
0.0779161
0.00771178
0.0739452
0.00754327
0.070283
0.00739743
0.0671545
0.00726179
0.0645963
0.00712018
0.0625603
0.00696059
0.0609848
0.00677694
0.059813
0.00656762
0.0589945
0.0063336
0.0584798
0.00607661
0.0582169
0.00579844
0.0581524
0.00550059
0.0582348
0.00518499
0.0584189
0.00485311
0.0586697
0.0045068
0.0589582
0.00414767
0.0592645
0.0037773
0.0595732
0.00339707
0.0598741
0.00300794
0.0601578
0.00261109
0.0604205
0.00220668
0.0606585
0.00179532
0.0608731
0.00137739
0.0610651
0.000954327
0.0612283
0.0613097
0.00703379
0.0750143
0.00777763
0.0824135
0.0080674
0.083525
0.00806486
0.0816215
0.0079323
0.0780486
0.0077672
0.0741103
0.00761561
0.0704346
0.0074852
0.0672849
0.0073641
0.0647174
0.00723547
0.0626889
0.00708619
0.0611341
0.00690965
0.0599895
0.00670421
0.0592
0.00647111
0.0587129
0.00621255
0.0584755
0.0059308
0.0584341
0.00562773
0.0585379
0.00530556
0.058741
0.0049661
0.0590092
0.00461133
0.059313
0.00424309
0.0596328
0.00386306
0.0599532
0.00347276
0.0602644
0.00307318
0.0605574
0.00266559
0.0608281
0.00225025
0.0610738
0.00182779
0.0612956
0.00139863
0.0614942
0.000964161
0.0616628
0.0617473
0.00681529
0.0735454
0.00765021
0.0815785
0.00801087
0.0831643
0.00805839
0.081574
0.00795793
0.0781491
0.00781435
0.0742539
0.00767992
0.070569
0.00756568
0.0673991
0.00746024
0.0648228
0.00734589
0.0628033
0.00720822
0.0612718
0.00703994
0.0601578
0.00683927
0.0594006
0.00660778
0.0589444
0.00634815
0.0587351
0.00606315
0.0587191
0.00575511
0.058846
0.00542649
0.0590696
0.00507953
0.0593562
0.00471632
0.0596762
0.00433896
0.0600101
0.00394922
0.0603429
0.00354879
0.0606648
0.0031387
0.0609675
0.00272033
0.0612465
0.00229401
0.0615002
0.0018604
0.0617292
0.00141999
0.0619346
0.00097409
0.0621087
0.0621966
0.0065992
0.0719984
0.00752099
0.0806568
0.00794959
0.0827357
0.00804547
0.0814781
0.00797601
0.0782185
0.00785339
0.0743765
0.00773614
0.0706863
0.00763866
0.0674966
0.00754994
0.0649115
0.00745115
0.062902
0.00732641
0.0613965
0.00716753
0.0603167
0.0069726
0.0595956
0.00674343
0.0591736
0.00648326
0.0589953
0.00619538
0.059007
0.00588262
0.0591587
0.00554774
0.0594045
0.00519335
0.0597106
0.00482175
0.0600478
0.00443527