/*--------------------------------*- C++ -*----------------------------------*\
  =========                 |
  \\      /  F ield         | OpenFOAM: The Open Source CFD Toolbox
   \\    /   O peration     | Website:  https://openfoam.org
    \\  /    A nd           | Version:  7
     \\/     M anipulation  |
\*---------------------------------------------------------------------------*/
FoamFile
{
    version     2.0;
    format      ascii;
    class       volVectorField;
    location    "8.8";
    object      U;
}
// * * * * * * * * * * * * * * * * * * * * * * * * * * * * * * * * * * * * * //

dimensions      [0 1 -1 0 0 0 0];

internalField   nonuniform List<vector> 
18000
(
(0.000484294 -0.00891571 4.30542e-21)
(0.00273777 -0.0188877 0)
(0.00687251 -0.0216823 0)
(0.0120665 -0.0188884 0)
(0.0181962 -0.011636 -1.42809e-21)
(0.0250914 -0.000780649 7.22621e-21)
(0.0326363 0.0129998 -1.46245e-21)
(0.0407429 0.0291644 1.47249e-21)
(0.0493367 0.047275 0)
(0.0583495 0.0669666 -4.45324e-21)
(0.0677164 0.0879278 -1.48951e-21)
(0.0773712 0.109883 0)
(0.0872434 0.13258 2.97116e-21)
(0.0972575 0.155779 2.97839e-21)
(0.107333 0.179251 -5.94712e-21)
(0.117387 0.202772 -5.93795e-21)
(0.127331 0.226123 0)
(0.137076 0.24909 -8.89289e-21)
(0.146533 0.27147 2.95255e-21)
(0.155618 0.293072 -8.86923e-21)
(0.164252 0.313723 2.94357e-21)
(0.172365 0.333268 0)
(0.179897 0.351578 -2.91716e-21)
(0.186801 0.368549 -2.93492e-21)
(0.193042 0.384103 0)
(0.1986 0.398188 0)
(0.203468 0.410772 -5.86829e-21)
(0.20766 0.421831 -5.86545e-21)
(0.211197 0.431322 -5.91769e-21)
(0.213993 0.439088 6.31373e-21)
(0.000728231 -0.00941981 6.13767e-21)
(0.00318444 -0.0202158 1.07054e-20)
(0.00721576 -0.0237266 -1.09711e-20)
(0.0120704 -0.0215812 -1.1198e-20)
(0.0176681 -0.0149349 -2.8507e-21)
(0.0238781 -0.00465794 8.64434e-21)
(0.0306177 0.00856188 -1.16577e-20)
(0.0378246 0.0241803 -1.17471e-20)
(0.0454442 0.04176 1.18108e-20)
(0.0534264 0.0609379 1.18566e-20)
(0.0617226 0.0814077 -5.93356e-21)
(0.0702802 0.1029 -1.18844e-20)
(0.0790434 0.125172 -5.9586e-21)
(0.0879518 0.147993 1.18695e-20)
(0.0969396 0.171144 -1.18514e-20)
(0.105936 0.19441 1.18531e-20)
(0.114868 0.21758 -2.36662e-20)
(0.12366 0.240451 1.76965e-20)
(0.132235 0.262823 -1.17598e-20)
(0.140519 0.28451 5.89991e-21)
(0.148439 0.305337 -1.17192e-20)
(0.155932 0.32515 0)
(0.162942 0.343813 5.97015e-21)
(0.169422 0.361214 -1.16607e-20)
(0.175335 0.377265 1.16641e-20)
(0.180658 0.391903 0)
(0.18538 0.405081 -5.77743e-21)
(0.189512 0.416756 5.75906e-21)
(0.193045 0.426866 2.32402e-20)
(0.19587 0.435223 1.25506e-20)
(0.0009974 -0.00992384 -9.82767e-21)
(0.00368924 -0.0215031 -1.07052e-20)
(0.00763364 -0.0256726 1.64568e-20)
(0.0121621 -0.0241294 2.79691e-20)
(0.0172449 -0.0180544 0)
(0.0227922 -0.00833345 -1.15384e-20)
(0.0287522 0.00434133 1.16575e-20)
(0.0350909 0.0194223 3.51917e-20)
(0.0417738 0.0364723 -1.18107e-20)
(0.0487661 0.0551324 -1.18524e-20)
(0.0560338 0.0751009 3.55672e-20)
(0.0635382 0.0961157 1.18844e-20)
(0.0712353 0.117941 0)
(0.0790767 0.140355 -2.37355e-20)
(0.0870093 0.163147 3.54404e-20)
(0.0949756 0.186114 -1.17859e-20)
(0.102914 0.209053 1.18065e-20)
(0.110761 0.231768 1.17888e-20)
(0.118451 0.254067 5.94247e-23)
(0.125918 0.275767 0)
(0.133101 0.296696 3.51812e-20)
(0.13994 0.316699 -2.32491e-20)
(0.146385 0.335636 1.16876e-20)
(0.15239 0.353391 0)
(0.157919 0.369867 -1.16642e-20)
(0.162946 0.384989 4.64825e-20)
(0.16746 0.398697 -3.45631e-20)
(0.171468 0.410932 -1.16368e-20)
(0.174937 0.421614 1.14402e-20)
(0.177732 0.43053 1.26036e-20)
(0.00128802 -0.0103752 0)
(0.00423612 -0.0226678 5.34638e-21)
(0.00810037 -0.0274552 7.92066e-24)
(0.0123127 -0.0264824 -2.79431e-20)
(0.0168911 -0.0209565 0)
(0.021791 -0.0117779 -2.2993e-20)
(0.0269954 0.000358367 0)
(0.0324942 0.0149032 -3.51576e-20)
(0.0382733 0.0314198 1.17679e-20)
(0.0443142 0.0495537 -2.35933e-20)
(0.0505958 0.069009 -2.36913e-20)
(0.0570901 0.0895294 -1.18447e-20)
(0.0637639 0.110886 1.18215e-20)
(0.0705801 0.132866 1.17662e-20)
(0.0774961 0.155268 -1.18455e-20)
(0.0844646 0.177897 -2.3496e-20)
(0.0914349 0.200559 2.34331e-20)
(0.0983537 0.223065 0)
(0.105166 0.245231 0)
(0.111815 0.266879 0)
(0.118248 0.28784 0)
(0.124412 0.30796 0)
(0.130261 0.327098 0)
(0.135752 0.345131 -2.30618e-20)
(0.140852 0.361958 -2.32007e-20)
(0.145533 0.377495 -1.85342e-22)
(0.149784 0.391667 -2.31745e-20)
(0.153612 0.404405 -4.45949e-22)
(0.15696 0.415605 -2.3514e-20)
(0.159672 0.425039 4.9515e-20)
(0.00159617 -0.010799 0)
(0.00481745 -0.0237452 4.80004e-20)
(0.0086045 -0.0290969 7.11578e-24)
(0.0125015 -0.0286562 -1.67346e-20)
(0.0165813 -0.0236535 5.66488e-20)
(0.0208458 -0.0149998 3.44822e-20)
(0.0253116 -0.00339441 3.47614e-20)
(0.0299947 0.0106153 0)
(0.034901 0.0265955 0)
(0.0400261 0.044196 3.53801e-20)
(0.0453605 0.0631261 9.19758e-24)
(0.0508869 0.0831363 -8.2594e-20)
(0.0565813 0.104005 7.07113e-20)
(0.0624152 0.125527 -2.35949e-20)
(0.0683547 0.14751 2.3412e-20)
(0.0743618 0.169765 2.34212e-20)
(0.0803949 0.192108 -2.33569e-20)
(0.08641 0.214358 2.33849e-20)
(0.092361 0.236338 4.65616e-20)
(0.0982006 0.257875 -2.31401e-20)
(0.103882 0.278804 -4.61883e-20)
(0.10936 0.298973 4.6072e-20)
(0.114594 0.318241 -4.59642e-20)
(0.119545 0.336482 2.30621e-20)
(0.124181 0.35359 0)
(0.128476 0.369471 0)
(0.13242 0.384043 3.61275e-22)
(0.136022 0.397221 -9.10014e-20)
(0.1392 0.408887 4.54454e-20)
(0.141779 0.418798 -4.9739e-20)
(0.00191853 -0.0111772 0)
(0.00542075 -0.024703 -4.26603e-20)
(0.00912551 -0.0305699 4.36425e-20)
(0.0127048 -0.0306268 0)
(0.0162869 -0.0261252 -9.05574e-20)
(0.0199228 -0.0179855 -1.14682e-20)
(0.0236653 -0.00690716 -2.3202e-20)
(0.0275548 0.00656562 -1.16603e-20)
(0.0316157 0.0220023 0)
(0.0358583 0.0390584 -2.35202e-20)
(0.0402839 0.05745 2.3543e-20)
(0.0448839 0.0769339 4.71665e-20)
(0.0496419 0.0972948 -4.71307e-20)
(0.054537 0.118336 0)
(0.0595428 0.139871 -4.69577e-20)
(0.0646283 0.16172 4.67011e-20)
(0.06976 0.183707 4.67104e-20)
(0.074902 0.205658 6.97182e-20)
(0.0800159 0.227403 -6.95676e-20)
(0.0850621 0.248775 9.24832e-20)
(0.0900008 0.269615 4.623e-20)
(0.0947937 0.28977 -4.60725e-20)
(0.0994047 0.309102 9.1706e-20)
(0.1038 0.327484 0)
(0.107949 0.344805 4.55209e-20)
(0.11183 0.360964 9.117e-20)
(0.115434 0.375872 -4.49784e-20)
(0.118771 0.389431 4.55304e-20)
(0.121736 0.40151 4.50416e-23)
(0.124141 0.411854 -4.94138e-20)
(0.00225027 -0.011509 -4.89096e-21)
(0.00603466 -0.0255394 0)
(0.00964719 -0.0318691 -5.45504e-20)
(0.0129002 -0.0323893 1.11158e-20)
(0.0159822 -0.0283695 3.3937e-20)
(0.0189947 -0.0207337 1.14421e-20)
(0.022026 -0.0101806 4.6186e-20)
(0.0251413 0.00275002 0)
(0.0283832 0.0176342 2.33967e-20)
(0.0317758 0.0341344 2.34193e-20)
(0.0353296 0.0519729 -2.35052e-20)
(0.0390436 0.070913 7.04402e-20)
(0.0429085 0.0907468 0)
(0.0469091 0.111284 0)
(0.0510248 0.132346 7.01187e-20)
(0.0552312 0.15376 -1.16565e-19)
(0.0595014 0.175357 4.64288e-20)
(0.0638058 0.196971 -4.64193e-20)
(0.0681128 0.218437 -4.61208e-20)
(0.0723895 0.239596 -1.38271e-19)
(0.0766028 0.260292 -2.19951e-22)
(0.0807202 0.280377 4.56745e-20)
(0.0847106 0.299713 -9.12804e-20)
(0.0885447 0.318173 4.54102e-20)
(0.0921959 0.335643 -2.32375e-22)
(0.0956438 0.352017 -4.54213e-20)
(0.098883 0.367198 4.53256e-20)
(0.101926 0.381082 0)
(0.104647 0.39352 4.48394e-20)
(0.106843 0.404257 5.41194e-22)
(0.0025867 -0.011788 -9.77292e-21)
(0.00664636 -0.0262423 1.0638e-20)
(0.0101509 -0.0329836 -6.53047e-20)
(0.0130659 -0.0339341 -3.32874e-20)
(0.0156428 -0.0303779 4.50964e-20)
(0.0180347 -0.0232398 -6.85185e-20)
(0.0203659 -0.0132138 -2.3117e-20)
(0.0227258 -0.000832385 -4.64275e-20)
(0.0251745 0.0134883 4.66504e-20)
(0.0277485 0.0294184 -9.36657e-20)
(0.030467 0.0466874 -4.68486e-20)
(0.0333356 0.0650659 -9.86996e-23)
(0.0363503 0.0843526 2.34412e-20)
(0.0395011 0.104364 -7.00822e-20)
(0.042772 0.124928 -9.33066e-20)
(0.046144 0.145879 -6.00891e-24)
(0.0495953 0.167055 -1.30736e-22)
(0.0531017 0.188296 4.61477e-20)
(0.0566372 0.209445 4.61214e-20)
(0.0601748 0.230347 -4.23705e-23)
(0.0636873 0.250851 -2.53757e-22)
(0.0671474 0.270815 4.52817e-20)
(0.0705286 0.2901 4.55392e-20)
(0.0738062 0.308581 6.2913e-23)
(0.0769573 0.32614 -1.35656e-19)
(0.0799643 0.34267 8.98311e-20)
(0.0828252 0.358066 9.025e-20)
(0.0855555 0.372217 -8.92716e-20)
(0.0880083 0.384966 -4.484e-20)
(0.0899679 0.396054 -4.91001e-20)
(0.00292235 -0.0120086 -8.78481e-20)
(0.00724278 -0.0268027 -1.06252e-20)
(0.0106189 -0.033903 5.43979e-20)
(0.0131809 -0.0352528 4.43875e-20)
(0.0152457 -0.0321453 -4.50962e-20)
(0.0170191 -0.0255009 4.56641e-20)
(0.018661 -0.0160061 -2.30326e-20)
(0.0202843 -0.00418358 6.96188e-20)
(0.0219656 0.00956022 -4.66505e-20)
(0.0237527 0.0249043 4.67864e-20)
(0.0256724 0.0415862 2.34408e-20)
(0.0277361 0.0593839 -2.34559e-20)
(0.0299441 0.0781028 -1.40203e-19)
(0.0322903 0.0975661 9.33513e-20)
(0.034763 0.117608 4.65991e-20)
(0.0373469 0.13807 0)
(0.0400245 0.158796 0)
(0.0427757 0.179633 -2.5593e-22)
(0.0455795 0.200428 -4.5896e-20)
(0.0484139 0.221034 0)
(0.0512565 0.241304 0)
(0.0540845 0.261099 -4.55057e-20)
(0.0568762 0.280283 0)
(0.0596108 0.298732 -9.00805e-20)
(0.0622692 0.316327 0)
(0.0648366 0.332957 -4.495e-20)
(0.0673146 0.348514 8.97764e-20)
(0.069721 0.362882 -8.88031e-20)
(0.0718903 0.375894 0)
(0.0735937 0.387296 0)
(0.00325152 -0.0121657 7.80831e-20)
(0.00781056 -0.0272116 0)
(0.0110331 -0.034619 -1.08638e-20)
(0.0132249 -0.0363388 1.10704e-20)
(0.01477 -0.0336671 -6.74174e-20)
(0.0159272 -0.0275152 3.95488e-24)
(0.0168911 -0.018558 -2.29909e-20)
(0.0177975 -0.00730626 0)
(0.018738 0.00584548 0)
(0.0197707 0.0205862 -2.33316e-20)
(0.0209289 0.036662 2.33543e-20)
(0.0222286 0.0538587 -4.67361e-20)
(0.023674 0.0719887 4.68137e-20)
(0.025262 0.0908819 0)
(0.0269839 0.110379 0)
(0.0288276 0.130327 0)
(0.0307786 0.150575 4.59916e-20)
(0.0328205 0.170978 -9.42123e-23)
(0.034936 0.191388 4.6006e-20)
(0.0371075 0.211662 -9.11596e-20)
(0.0393164 0.231658 4.5578e-20)
(0.0415442 0.251242 -2.26452e-19)
(0.043773 0.27028 -1.33118e-22)
(0.045986 0.288649 9.0082e-20)
(0.0481674 0.306231 -4.72085e-22)
(0.0503052 0.322912 8.89884e-20)
(0.0524042 0.33858 -8.88278e-20)
(0.0544844 0.353118 -8.90547e-20)
(0.0563627 0.366351 -1.21873e-22)
(0.0577968 0.378032 -9.64086e-20)
(0.0035679 -0.0122539 -9.74882e-21)
(0.00833574 -0.027461 0)
(0.0113759 -0.0351242 2.16992e-20)
(0.0131789 -0.0371864 -2.21118e-20)
(0.0141969 -0.03494 2.02162e-19)
(0.0147413 -0.0292816 2.30415e-24)
(0.0150403 -0.0208708 -2.29539e-20)
(0.0152509 -0.0102033 2.31133e-20)
(0.0154788 0.00233969 -1.16034e-19)
(0.0157909 0.0164582 0)
(0.016226 0.0319079 0)
(0.0168041 0.0484828 -4.65439e-20)
(0.017532 0.0660027 4.66867e-20)
(0.018409 0.0843039 -4.65335e-20)
(0.0194288 0.103233 4.63357e-20)
(0.0205814 0.122642 0)
(0.0218549 0.142388 -1.84274e-19)
(0.0232357 0.162328 9.1707e-20)
(0.0247096 0.182323 4.58053e-20)
(0.0262621 0.202232 1.36698e-19)
(0.0278781 0.22192 0)
(0.0295429 0.241255 9.04527e-20)
(0.0312419 0.260107 8.97285e-20)
(0.0329614 0.278354 8.93635e-20)
(0.0346889 0.295877 -2.87112e-22)
(0.0364147 0.312563 -8.88249e-20)
(0.0381464 0.328298 8.88293e-20)
(0.0399057 0.342963 0)
(0.0414934 0.35638 -1.13303e-22)
(0.0426515 0.368311 1.92587e-19)
(0.00386492 -0.0122688 -7.79048e-20)
(0.00880433 -0.0275442 0)
(0.0116303 -0.0354125 -8.6624e-20)
(0.0130256 -0.0377916 -1.10371e-19)
(0.01351 -0.0359622 -6.7355e-20)
(0.013447 -0.0308003 2.27048e-20)
(0.0130962 -0.0229462 -5.05665e-26)
(0.0126348 -0.0128777 -2.30761e-20)
(0.0121804 -0.000961314 1.45316e-22)
(0.0118076 0.0125154 4.65101e-20)
(0.0115599 0.0273185 4.65046e-20)
(0.0114601 0.0432506 -4.64486e-20)
(0.011517 0.060139 4.64949e-20)
(0.0117317 0.0778261 -1.39255e-19)
(0.0120993 0.0961645 1.38815e-19)
(0.0126115 0.115012 9.22555e-20)
(0.0132584 0.134231 2.30046e-19)
(0.0140284 0.153683 -4.58847e-20)
(0.0149098 0.173234 -9.12e-20)
(0.0158905 0.192749 -1.54004e-22)
(0.0169586 0.212096 -9.07323e-20)
(0.018102 0.231147 2.70336e-19)
(0.0193094 0.249776 -1.79738e-19)
(0.0205697 0.267862 1.78432e-19)
(0.0218727 0.285288 -8.91682e-20)
(0.0232111 0.301939 1.77385e-19)
(0.0245944 0.317701 4.41376e-22)
(0.0260448 0.332457 -1.75955e-19)
(0.0273488 0.346027 1.74749e-19)
(0.0282302 0.358183 9.58805e-20)
(0.0041356 -0.0122065 7.79046e-20)
(0.0092022 -0.0274559 0)
(0.0117799 -0.0354799 1.94788e-19)
(0.0127488 -0.0381522 6.62283e-20)
(0.0126954 -0.0367331 0)
(0.0120329 -0.0320724 0)
(0.0110507 -0.0247863 0)
(0.0099438 -0.0153325 0)
(0.00884033 -0.00406109 4.63655e-20)
(0.00782102 0.00875405 4.64295e-20)
(0.00693287 0.0228899 -9.30614e-20)
(0.00620086 0.0381583 9.3066e-20)
(0.00563508 0.0543937 1.39338e-19)
(0.00523748 0.0714451 4.64565e-20)
(0.0050043 0.0891708 4.61848e-20)
(0.00492839 0.107434 -1.38309e-19)
(0.00500105 0.126102 -1.83749e-19)
(0.00521255 0.145041 -9.15728e-20)
(0.00555284 0.164123 9.12017e-20)
(0.00601192 0.183216 -1.81771e-19)
(0.00658009 0.202193 9.01667e-20)
(0.00724797 0.22093 -1.80259e-19)
(0.00800638 0.239303 8.95112e-20)
(0.00884657 0.257193 3.3554e-22)
(0.00976038 0.274486 -8.85553e-20)
(0.0107417 0.291065 -1.77283e-19)
(0.0118014 0.306821 1.75974e-19)
(0.0129612 0.321636 0)
(0.0139944 0.335332 1.25399e-22)
(0.0146039 0.347693 -1.91598e-19)
(0.00437277 -0.0120639 9.72772e-21)
(0.00951542 -0.0271925 0)
(0.0118094 -0.0353239 -8.65201e-20)
(0.0123347 -0.0382673 2.20263e-20)
(0.0117418 -0.0372538 -2.23656e-20)
(0.0104913 -0.0330998 0)
(0.00889965 -0.0263936 -2.28492e-20)
(0.00717736 -0.0175706 2.30069e-20)
(0.00546117 -0.00696245 4.62388e-20)
(0.00383662 0.00517155 -1.39046e-19)
(0.00235309 0.01862 -4.64535e-20)
(0.00103686 0.033204 -4.02085e-23)
(-0.000101423 0.0487656 -4.67729e-23)
(-0.00105941 0.0651603 -9.26399e-20)
(-0.00184031 0.0822521 -4.62856e-20)
(-0.00245055 0.0999094 0)
(-0.00289787 0.118004 -8.81424e-23)
(-0.00319087 0.136408 9.14717e-20)
(-0.00333829 0.154995 -9.08878e-20)
(-0.00334851 0.173641 0)
(-0.00322924 0.192221 0)
(-0.00298803 0.210614 0)
(-0.00263216 0.228701 0)
(-0.00216862 0.246365 -1.34295e-22)
(-0.0016042 0.263492 0)
(-0.000944314 0.27997 0)
(-0.000178298 0.295688 8.77484e-20)
(0.000714214 0.310537 8.73285e-20)
(0.00149501 0.324337 8.727e-20)
(0.00184207 0.336888 1.53637e-22)
(0.00456917 -0.0118388 9.72084e-21)
(0.00973047 -0.0267522 -2.11051e-20)
(0.0117045 -0.0349442 1.29493e-19)
(0.0117711 -0.0381383 -2.19996e-20)
(0.0106406 -0.0375264 2.23328e-20)
(0.00881785 -0.0338852 -1.32194e-24)
(0.00664281 -0.0277711 6.83834e-20)
(0.00433915 -0.0195944 -9.18344e-20)
(0.00205026 -0.00966718 1.3846e-19)
(-0.000134974 0.00176699 5.42715e-23)
(-0.00216594 0.0145088 -4.63452e-20)
(-0.00401588 0.0283888 9.27437e-20)
(-0.0056742 0.0432567 -9.2672e-20)
(-0.00713867 0.0589748 9.25161e-20)
(-0.00841241 0.0754124 0)
(-0.00950146 0.092443 9.20111e-20)
(-0.010413 0.109943 0)
(-0.0111548 0.12779 5.26052e-23)
(-0.0117347 0.14586 -9.09593e-20)
(-0.0121598 0.164035 -9.05654e-20)
(-0.0124363 0.182192 9.01587e-20)
(-0.0125701 0.200215 -8.97434e-20)
(-0.0125672 0.217989 -8.93224e-20)
(-0.0124334 0.235398 -1.77888e-19)
(-0.0121747 0.252332 -8.84676e-20)
(-0.0117966 0.268679 8.8345e-20)
(-0.0112899 0.284335 -1.75155e-19)
(-0.0106369 0.299194 -8.733e-20)
(-0.0100856 0.313084 0)
(-0.00998711 0.325814 -9.56972e-20)
(0.00471759 -0.0115302 0)
(0.00983455 -0.0261351 8.42901e-20)
(0.0114528 -0.0343427 -6.475e-20)
(0.0110484 -0.0377685 -1.09783e-19)
(0.00938642 -0.037555 0)
(0.00701155 -0.0344325 0)
(0.00428383 -0.0289218 -1.36771e-19)
(0.00143712 -0.0214061 1.83539e-19)
(-0.00138052 -0.0121759 -1.38343e-19)
(-0.00407836 -0.0014588 0)
(-0.00660568 0.0105585 4.63617e-20)
(-0.0089361 0.0237163 -4.64168e-20)
(-0.0110596 0.0378724 7.13521e-23)
(-0.0129745 0.0528952 -4.6345e-20)
(-0.0146842 0.0686598 -4.61549e-20)
(-0.0161948 0.0850447 -4.03352e-23)
(-0.0175131 0.101931 9.16582e-20)
(-0.0186465 0.119199 9.13377e-20)
(-0.0196021 0.136732 -1.52252e-22)
(-0.0203859 0.154412 1.80944e-19)
(-0.021003 0.172124 -1.805e-19)
(-0.0214582 0.189753 1.79266e-19)
(-0.0217565 0.207187 8.93242e-20)
(-0.0219027 0.224316 8.88989e-20)
(-0.0219029 0.241031 7.11241e-23)
(-0.0217636 0.257224 0)
(-0.0214784 0.272795 8.77753e-20)
(-0.0210333 0.287646 -2.61434e-19)
(-0.0206847 0.301613 8.55605e-20)
(-0.020817 0.314514 9.50266e-20)
(0.00481104 -0.0111382 -5.82063e-20)
(0.00981582 -0.0253436 -1.8954e-19)
(0.0110435 -0.0335236 9.73166e-24)
(0.0101595 -0.037163 1.29241e-22)
(0.00797684 -0.0373446 -6.67446e-20)
(0.00507508 -0.0347461 0)
(0.00183022 -0.0298489 -4.54369e-20)
(-0.00151665 -0.0230067 -2.74956e-19)
(-0.00481494 -0.0144879 1.38215e-19)
(-0.00797366 -0.00450304 -9.23622e-20)
(-0.010943 0.00677401 1.38848e-19)
(-0.0136977 0.0191937 -4.62871e-20)
(-0.0162289 0.0326215 9.26042e-20)
(-0.0185359 0.0469325 -2.31137e-19)
(-0.0206228 0.0620071 1.38312e-19)
(-0.0224958 0.0777288 1.08558e-22)
(-0.0241618 0.0939829 -2.74833e-19)
(-0.0256281 0.110655 9.14618e-20)
(-0.0269013 0.12763 -9.07766e-20)
(-0.0279863 0.144795 0)
(-0.0288875 0.162039 9.01393e-20)
(-0.0296088 0.179251 0)
(-0.0301545 0.196323 -8.94896e-20)
(-0.0305292 0.213147 8.86099e-20)
(-0.0307393 0.229619 8.83999e-20)
(-0.0307934 0.245636 8.78957e-20)
(-0.030689 0.261102 0)
(-0.0304172 0.27593 0)
(-0.0302408 0.289966 -1.73441e-19)
(-0.0305825 0.303035 2.85826e-19)
(0.00484294 -0.0106641 5.82401e-20)
(0.0096637 -0.0243825 1.05249e-19)
(0.0104681 -0.0324935 -8.59782e-20)
(0.00909989 -0.0363291 1.75257e-19)
(0.00641275 -0.0369021 2.23686e-20)
(0.00301467 -0.0348311 2.25075e-20)
(-0.000706648 -0.0305553 1.35206e-22)
(-0.00450606 -0.0243969 -9.14132e-20)
(-0.00823267 -0.016601 -4.59554e-20)
(-0.0117967 -0.00736075 9.69101e-23)
(-0.0151504 0.00316308 -8.16575e-23)
(-0.0182702 0.0148311 -1.3884e-19)
(-0.021149 0.0275169 -4.62727e-20)
(-0.0237874 0.0411018 3.43657e-23)
(-0.0261906 0.0554718 9.21943e-20)
(-0.0283651 0.0705152 9.19486e-20)
(-0.0303183 0.0861213 -6.29813e-24)
(-0.0320575 0.102179 -9.1327e-20)
(-0.0335886 0.118578 9.11229e-20)
(-0.0349163 0.13521 -9.03862e-20)
(-0.0360439 0.151966 -1.80313e-19)
(-0.036975 0.168741 -8.99287e-20)
(-0.0377135 0.185427 1.78378e-19)
(-0.0382639 0.201924 0)
(-0.0386336 0.218132 -8.83714e-20)
(-0.0388338 0.233951 -1.75782e-19)
(-0.0388675 0.249294 -1.75227e-19)
(-0.0387318 0.264086 8.64568e-20)
(-0.0386943 0.278184 -2.59491e-19)
(-0.0392207 0.291418 9.49817e-20)
(0.00480724 -0.0101107 -9.6838e-20)
(0.00936917 -0.0232586 2.10328e-20)
(0.00972018 -0.0312613 8.59792e-20)
(0.00786828 -0.0352759 -6.56946e-20)
(0.00469841 -0.0362352 2.22709e-20)
(0.000840193 -0.0346933 1.03593e-25)
(-0.00331164 -0.0310438 2.2688e-19)
(-0.00751116 -0.0255761 9.14709e-20)
(-0.0116094 -0.0185113 9.1947e-20)
(-0.0155194 -0.0100247 1.38405e-19)
(-0.0191961 -0.00026366 -1.38639e-19)
(-0.0226189 0.0106427 9.2528e-20)
(-0.0257825 0.0225757 1.85067e-19)
(-0.0286893 0.0354233 9.2466e-20)
(-0.0313457 0.0490769 1.1415e-22)
(-0.0337591 0.0634294 -1.8378e-19)
(-0.0359374 0.078374 1.83475e-19)
(-0.037888 0.0938034 1.38517e-22)
(-0.0396167 0.109611 -9.11626e-20)
(-0.0411275 0.125693 9.04256e-20)
(-0.0424234 0.141943 9.01734e-20)
(-0.0435076 0.158259 -8.98004e-20)
(-0.0443837 0.17454 -1.78835e-19)
(-0.0450566 0.190689 -4.22199e-22)
(-0.0455349 0.20661 8.81355e-20)
(-0.0458333 0.222212 8.78863e-20)
(-0.0459611 0.237415 1.75185e-19)
(-0.0459221 0.252156 -1.73271e-19)
(-0.0459877 0.26631 0)
(-0.0466708 0.279708 9.546e-20)
(0.00469864 -0.00948203 8.29803e-23)
(0.00892506 -0.0219813 0)
(0.00879634 -0.0298382 -6.42863e-20)
(0.00646643 -0.0340143 -2.18497e-20)
(0.00284152 -0.0353531 -8.86132e-20)
(-0.00143483 -0.0343387 0)
(-0.00596585 -0.0313168 -1.3601e-19)
(-0.0105082 -0.0265429 4.56343e-20)
(-0.0149169 -0.0202131 0)
(-0.0191095 -0.0124849 -9.2082e-20)
(-0.0230447 -0.00349218 0)
(-0.026705 0.0066462 -1.38677e-19)
(-0.0300878 0.0178196 1.38595e-19)
(-0.0331976 0.0299223 -9.23603e-20)
(-0.0360421 0.042851 -9.21889e-20)
(-0.0386299 0.0565031 0)
(-0.0409697 0.0707757 0)
(-0.0430692 0.0855651 9.15557e-20)
(-0.0449341 0.100769 3.51039e-22)
(-0.046568 0.116285 9.10723e-20)
(-0.0479739 0.132013 -9.00717e-20)
(-0.0491546 0.147853 1.79841e-19)
(-0.0501135 0.16371 -8.91851e-20)
(-0.050856 0.17949 0)
(-0.0513924 0.195104 2.65696e-19)
(-0.051741 0.210468 -4.39674e-19)
(-0.0519181 0.225512 8.69639e-20)
(-0.0519355 0.240187 8.68586e-20)
(-0.052066 0.254391 8.62877e-20)
(-0.0528751 0.26795 1.91674e-19)
(0.00451278 -0.00878333 -7.72107e-20)
(0.00832632 -0.0205621 1.67474e-19)
(0.00769588 -0.0282376 8.57294e-20)
(0.00489947 -0.032557 1.96108e-19)
(0.000853343 -0.0342658 2.43406e-19)
(-0.00379324 -0.0337738 4.48163e-20)
(-0.00864669 -0.0313765 -2.26069e-19)
(-0.0134696 -0.0272944 0)
(-0.0181234 -0.0216987 -1.83233e-19)
(-0.0225313 -0.0147287 -9.1891e-20)
(-0.0266568 -0.00650496 0)
(-0.0304861 0.00286394 -9.23001e-20)
(-0.0340198 0.0132752 9.27484e-23)
(-0.0372645 0.0246295 -2.76876e-19)
(-0.0402297 0.0368288 9.2191e-20)
(-0.0429257 0.049775 9.2142e-20)
(-0.0453619 0.0633686 -1.83199e-19)
(-0.0475466 0.0775096 -1.82893e-19)
(-0.0494855 0.0920991 -3.62521e-22)
(-0.0511823 0.107039 -1.48338e-22)
(-0.05264 0.122231 0)
(-0.0538611 0.13758 -9.01258e-20)
(-0.054849 0.152994 -8.97801e-20)
(-0.0556096 0.168385 0)
(-0.0561549 0.183671 0)
(-0.0565067 0.198776 2.64358e-19)
(-0.0566891 0.213641 -2.62083e-19)
(-0.0567217 0.228234 0)
(-0.0568778 0.242476 2.59296e-19)
(-0.0577795 0.256189 -1.90722e-19)
(0.0042464 -0.00802127 1.82107e-22)
(0.00757034 -0.0190146 -1.67521e-19)
(0.00642129 -0.0264749 -2.13908e-20)
(0.00317598 -0.0309183 -2.1784e-19)
(-0.00125128 -0.0329845 -1.32731e-19)
(-0.00621424 -0.0330053 4.47439e-20)
(-0.0113279 -0.0312244 9.04815e-20)
(-0.0163643 -0.0278266 2.27431e-19)
(-0.0211933 -0.0229583 1.83237e-19)
(-0.0257451 -0.0167406 1.83979e-19)
(-0.029989 -0.00928081 0)
(-0.0339156 -0.000677559 1.19967e-22)
(-0.0375289 0.00897421 0)
(-0.040838 0.0195815 1.84658e-19)
(-0.0438545 0.0310518 0)
(-0.0465904 0.0432908 -9.21791e-20)
(-0.0490563 0.0562028 9.15298e-20)
(-0.0512613 0.0696914 0)
(-0.0532114 0.083661 0)
(-0.0549107 0.0980161 -2.72777e-19)
(-0.0563622 0.112662 9.02434e-20)
(-0.0575687 0.127508 0)
(-0.0585335 0.142464 1.78756e-19)
(-0.059263 0.157448 1.78099e-19)
(-0.0597703 0.172385 -3.54435e-19)
(-0.060081 0.187207 3.52342e-19)
(-0.0602263 0.201868 3.12437e-22)
(-0.0602338 0.216356 1.74032e-19)
(-0.0603752 0.230621 -1.72657e-19)
(-0.0613339 0.244476 0)
(0.0038975 -0.00720376 1.9294e-19)
(0.00665715 -0.0173548 -2.0918e-20)
(0.0049783 -0.0245676 -1.70556e-19)
(0.00130806 -0.029114 0)
(-0.00345394 -0.0315213 -1.76279e-19)
(-0.00867352 -0.0320401 0)
(-0.0139798 -0.0308614 -2.25346e-19)
(-0.0191575 -0.0281341 -1.36505e-19)
(-0.0240872 -0.0239799 -1.82745e-19)
(-0.0287076 -0.018502 0)
(-0.0329944 -0.0117948 4.61079e-20)
(-0.0369432 -0.00394712 4.64392e-20)
(-0.0405616 0.00495381 -9.22106e-20)
(-0.0438617 0.0148215 -1.84587e-19)
(-0.0468576 0.0255684 -9.20462e-20)
(-0.049563 0.0371043 -3.68214e-19)
(-0.0519904 0.0493372 1.8326e-19)
(-0.0541493 0.0621744 -3.75026e-22)
(-0.0560469 0.0755232 -3.90253e-22)
(-0.057688 0.0892908 2.72478e-19)
(-0.0590762 0.103385 0)
(-0.0602143 0.117718 0)
(-0.0611061 0.132204 5.26101e-22)
(-0.0617581 0.146765 3.00068e-22)
(-0.0621848 0.161332 -1.77567e-19)
(-0.0624139 0.175847 -1.7678e-19)
(-0.0624834 0.190276 -5.00868e-22)
(-0.0624279 0.204629 -1.74034e-19)
(-0.0625152 0.218892 -1.7317e-19)
(-0.0634938 0.232865 -4.24489e-22)
(0.00346552 -0.00633986 0)
(0.00558962 -0.0156002 1.66553e-19)
(0.00337606 -0.022535 1.4927e-19)
(-0.000688617 -0.0271613 2.16948e-20)
(-0.00573265 -0.0298888 3.52199e-19)
(-0.0111433 -0.0308852 -4.45847e-20)
(-0.016569 -0.030288 3.60091e-19)
(-0.0218112 -0.0282102 1.81282e-19)
(-0.0267626 -0.0247495 2.74067e-19)
(-0.0313717 -0.0199915 1.37509e-19)
(-0.0356219 -0.0140181 4.60686e-20)
(-0.0395141 -0.00690883 2.30767e-19)
(-0.0430599 0.00125693 2.75979e-22)
(-0.0462747 0.010399 9.24527e-20)
(-0.0491752 0.0204346 1.84416e-19)
(-0.0517776 0.0312778 1.84117e-19)
(-0.0540957 0.0428403 0)
(-0.0561408 0.055033 0)
(-0.0579211 0.0677659 0)
(-0.0594428 0.0809488 0)
(-0.0607104 0.0944921 1.81398e-19)
(-0.0617278 0.108309 0)
(-0.062499 0.122318 -3.03535e-22)
(-0.0630314 0.136443 3.57073e-19)
(-0.0633397 0.150622 1.77291e-19)
(-0.0634533 0.164803 1.76233e-19)
(-0.0634147 0.178967 3.51037e-19)
(-0.0632631 0.193146 0)
(-0.0632597 0.207367 -3.46581e-19)
(-0.06422 0.221423 3.83212e-19)
(0.0029514 -0.00543959 1.53584e-19)
(0.00437354 -0.0137701 -1.66556e-19)
(0.00162713 -0.0203977 0)
(-0.00279482 -0.0250785 -1.72902e-19)
(-0.00806198 -0.0281008 -4.43322e-20)
(-0.0135923 -0.0295479 -1.33248e-19)
(-0.0190593 -0.029504 -4.04391e-19)
(-0.0242837 -0.0280472 -4.01083e-22)
(-0.0291731 -0.0252512 -1.36629e-19)
(-0.033687 -0.0211848 -3.20547e-19)
(-0.0378169 -0.0159184 -4.59035e-20)
(-0.0415697 -0.00952197 -1.84157e-19)
(-0.0449614 -0.00206762 -1.84394e-19)
(-0.0480111 0.00637059 0)
(-0.0507384 0.0157148 -1.84381e-19)
(-0.053162 0.025883 -2.76453e-19)
(-0.0552978 0.036791 9.17196e-20)
(-0.0571588 0.0483531 -1.83425e-19)
(-0.0587551 0.0604824 -1.829e-19)
(-0.0600949 0.0730906 0)
(-0.0611845 0.0860902 -3.62988e-19)
(-0.0620292 0.099396 0)
(-0.0626348 0.112927 -3.60014e-19)
(-0.0630094 0.126612 -1.79339e-19)
(-0.063168 0.140387 -3.55859e-19)
(-0.0631405 0.154211 1.77262e-19)
(-0.0629714 0.168071 -5.26889e-19)
(-0.0627002 0.182027 1.74711e-19)
(-0.0625748 0.196151 -2.49474e-22)
(-0.0634789 0.210232 -1.92608e-19)
(0.00235769 -0.00451381 -1.53587e-19)
(0.00301776 -0.0118851 2.07361e-20)
(-0.000252464 -0.0181779 1.48183e-19)
(-0.00498787 -0.0228852 1.72907e-19)
(-0.0104131 -0.0261714 -1.75531e-19)
(-0.0159861 -0.0280355 4.13574e-22)
(-0.0214107 -0.0285093 1.79539e-19)
(-0.0265304 -0.0276363 -3.61654e-19)
(-0.0312694 -0.0254673 -4.52244e-20)
(-0.0355991 -0.0220554 4.11539e-19)
(-0.0395205 -0.0174596 -2.75424e-19)
(-0.0430468 -0.0117413 4.60012e-19)
(-0.0461989 -0.00496535 4.60972e-19)
(-0.0489997 0.00279988 -9.20402e-20)
(-0.0514721 0.0114811 1.84385e-19)
(-0.0536377 0.0210008 2.76471e-19)
(-0.0555146 0.0312787 9.21516e-20)
(-0.0571182 0.042233 -6.96912e-23)
(-0.058461 0.0537792 9.12007e-20)
(-0.0595539 0.0658318 9.09613e-20)
(-0.060406 0.0783048 -9.12188e-20)
(-0.0610255 0.0911142 9.02339e-20)
(-0.0614209 0.104179 -1.80152e-19)
(-0.0616027 0.117427 1.79038e-19)
(-0.0615871 0.130796 -2.09495e-22)
(-0.0614034 0.144243 1.7721e-19)
(-0.0610954 0.157764 -2.22045e-22)
(-0.060696 0.171436 -1.74478e-19)
(-0.060428 0.185386 2.16733e-22)
(-0.0612383 0.199405 0)
(0.00168855 -0.00357398 0)
(0.00153414 -0.00996689 0)
(-0.00224336 -0.0158986 -1.90543e-19)
(-0.00724175 -0.0206017 2.15415e-20)
(-0.0127541 -0.0241156 0)
(-0.0182873 -0.026356 1.77318e-19)
(-0.0235809 -0.0273035 4.47703e-20)
(-0.0285037 -0.0269682 1.35569e-19)
(-0.0329987 -0.0253791 1.8185e-19)
(-0.0370508 -0.0225744 -1.82787e-19)
(-0.0406705 -0.0186028 1.83483e-19)
(-0.0438783 -0.0135175 -1.83962e-19)
(-0.0467004 -0.00737655 -1.84246e-19)
(-0.0491638 -0.000243105 0)
(-0.0512952 0.00781407 0)
(-0.053119 0.0167217 0)
(-0.0546562 0.0264041 -1.83889e-19)
(-0.0559247 0.0367829 2.75491e-19)
(-0.0569402 0.0477772 -9.13004e-20)
(-0.0577171 0.0593037 0)
(-0.0582681 0.0712789 2.72889e-19)
(-0.058606 0.0836196 -9.03102e-20)
(-0.0587442 0.0962447 1.80154e-19)
(-0.0586981 0.109078 -3.59159e-19)
(-0.0584873 0.122055 3.56194e-19)
(-0.0581418 0.135126 4.94368e-22)
(-0.0577029 0.14828 2.89256e-22)
(-0.0571881 0.161603 1.74672e-19)
(-0.0567724 0.175273 -6.38492e-22)
(-0.0574472 0.189104 1.92325e-19)
(0.000949783 -0.00263202 1.90391e-20)
(-6.24398e-05 -0.00803775 -2.06859e-20)
(-0.00432294 -0.0135839 4.21611e-20)
(-0.00952732 -0.0182491 -2.57434e-19)
(-0.0150501 -0.0219489 4.36064e-20)
(-0.0204558 -0.0245178 0)
(-0.0255245 -0.0258866 1.78266e-19)
(-0.0301534 -0.0260337 -1.79817e-19)
(-0.034306 -0.0249672 0)
(-0.0379816 -0.022712 2.2774e-19)
(-0.0412013 -0.019307 -4.56893e-20)
(-0.0439934 -0.014798 0)
(-0.0463897 -0.00923712 -9.21669e-20)
(-0.0484221 -0.00268257 1.84149e-19)
(-0.0501209 0.00480112 -9.18818e-20)
(-0.0515139 0.0131451 9.22676e-20)
(-0.0526249 0.0222781 -1.83873e-19)
(-0.053475 0.0321256 -4.67085e-22)
(-0.0540835 0.0426105 -4.71066e-22)
(-0.0544683 0.053653 -9.15201e-20)
(-0.0546475 0.0651727 -1.8238e-19)
(-0.0546394 0.0770881 -9.13808e-22)
(-0.054465 0.0893185 -4.80371e-22)
(-0.054148 0.101785 1.79403e-19)
(-0.0537162 0.114414 -1.7891e-19)
(-0.0532049 0.127143 1.77414e-19)
(-0.052655 0.139937 -3.52721e-19)
(-0.0520625 0.152862 -3.07514e-22)
(-0.0515171 0.166122 -3.48517e-19)
(-0.0519905 0.179578 1.92508e-19)
(0.000148956 -0.00170024 0)
(-0.001754 -0.00612069 -1.64336e-19)
(-0.00646534 -0.0112582 0)
(-0.0118124 -0.0158493 5.36144e-22)
(-0.0172635 -0.0196877 4.34917e-20)
(-0.022449 -0.02253 4.17506e-23)
(-0.0271942 -0.0242593 -3.55973e-19)
(-0.0314272 -0.0248237 1.34965e-19)
(-0.0351338 -0.0242125 0)
(-0.0383289 -0.0224378 -2.27654e-19)
(-0.0410449 -0.0195303 4.55984e-20)
(-0.0433184 -0.0155287 0)
(-0.0451874 -0.0104801 -9.20508e-20)
(-0.046689 -0.00443857 9.17595e-20)
(-0.0478577 0.00253548 9.1668e-20)
(-0.0487245 0.0103775 1.8397e-19)
(-0.0493165 0.0190203 -9.16575e-20)
(-0.049658 0.0283937 0)
(-0.0497717 0.038425 0)
(-0.0496797 0.0490391 1.82564e-19)
(-0.0494051 0.06016 -1.82421e-19)
(-0.0489731 0.0717107 1.80765e-19)
(-0.0484136 0.0836135 1.80397e-19)
(-0.0477623 0.0957896 1.7996e-19)
(-0.047061 0.10816 -1.78133e-19)
(-0.0463602 0.120646 1.7749e-19)
(-0.0457142 0.133176 1.76838e-19)
(-0.0451141 0.145757 -1.74919e-19)
(-0.0445466 0.158581 -4.46056e-22)
(-0.0447901 0.171518 3.86045e-19)
(-0.000705377 -0.000790375 1.89259e-20)
(-0.00352046 -0.00423802 1.43822e-19)
(-0.0086424 -0.00894575 0)
(-0.0140627 -0.0134238 1.71034e-19)
(-0.0193548 -0.0173484 0)
(-0.0242227 -0.020402 0)
(-0.028541 -0.0224226 1.33371e-19)
(-0.0322714 -0.0233302 -1.0359e-22)
(-0.0354235 -0.0230963 4.50491e-20)
(-0.0380287 -0.0217223 4.54557e-20)
(-0.0401316 -0.0192309 -1.36848e-19)
(-0.0417776 -0.0156551 9.12952e-20)
(-0.0430119 -0.0110378 0)
(-0.0438767 -0.0054294 0)
(-0.044411 0.00111314 -1.83913e-19)
(-0.0446496 0.00852913 0)
(-0.0446225 0.0167555 -9.20733e-20)
(-0.0443572 0.0257264 9.14442e-20)