/*--------------------------------*- C++ -*----------------------------------*\
  =========                 |
  \\      /  F ield         | OpenFOAM: The Open Source CFD Toolbox
   \\    /   O peration     | Website:  https://openfoam.org
    \\  /    A nd           | Version:  7
     \\/     M anipulation  |
\*---------------------------------------------------------------------------*/
FoamFile
{
    version     2.0;
    format      ascii;
    class       volVectorField;
    location    "75.8";
    object      U;
}
// * * * * * * * * * * * * * * * * * * * * * * * * * * * * * * * * * * * * * //

dimensions      [0 1 -1 0 0 0 0];

internalField   nonuniform List<vector> 
2000
(
(-0.000144379 -0.00612375 -2.61769e-22)
(2.08179e-05 -0.0139177 0)
(0.000719675 -0.0179568 0)
(0.00191327 -0.0188259 -1.34322e-21)
(0.00355267 -0.0168811 4.35311e-22)
(0.00560751 -0.0123497 1.61245e-23)
(0.00806368 -0.0054066 -7.48978e-22)
(0.0108951 0.00376791 0)
(0.0140362 0.0149427 0)
(0.0173182 0.027809 0)
(0.000395453 -0.00592396 0)
(0.00146671 -0.0139692 -1.02488e-21)
(0.0028856 -0.0183632 9.4514e-22)
(0.00449233 -0.0196541 1.79388e-21)
(0.00625855 -0.0182008 0)
(0.00818034 -0.0142453 1.63672e-21)
(0.010278 -0.00795899 -1.52204e-21)
(0.012569 0.000511514 0)
(0.0150436 0.0110029 2.78171e-21)
(0.017552 0.0233013 -5.35341e-21)
(0.000977478 -0.00578941 0)
(0.00314442 -0.0140803 8.19672e-21)
(0.00551562 -0.0187604 0)
(0.00775475 -0.0203888 7.32687e-21)
(0.00984981 -0.0193464 0)
(0.0118193 -0.015906 -6.60048e-21)
(0.0137142 -0.0102503 0)
(0.0155926 -0.0025039 5.95747e-21)
(0.0175037 0.00723438 -5.57951e-21)
(0.0193112 0.018846 -5.45109e-21)
(0.00163782 -0.00575233 -2.13518e-21)
(0.00510764 -0.0142876 -4.08862e-21)
(0.00865494 -0.0191634 -1.91747e-21)
(0.0117347 -0.0210151 -3.59788e-21)
(0.0143513 -0.0202651 -3.44434e-21)
(0.0165478 -0.0172316 3.24817e-21)
(0.0184055 -0.012125 3.11711e-21)
(0.0200199 -0.00506408 -1.83988e-23)
(0.0215003 0.00390657 5.63945e-21)
(0.0227231 0.0147533 5.44908e-21)
(0.00241804 -0.00583713 -2.10388e-21)
(0.00741128 -0.0146151 -4.17947e-21)
(0.0123376 -0.019578 -7.93709e-21)
(0.0164354 -0.0215191 3.65123e-21)
(0.019736 -0.0209181 0)
(0.0223157 -0.0181509 0)
(0.0242913 -0.0134691 -6.40003e-21)
(0.0257951 -0.00700286 -6.06166e-21)
(0.0269951 0.00124274 5.71874e-21)
(0.0277873 0.0112996 1.64426e-20)
(0.00336485 -0.00605643 2.13657e-21)
(0.0101051 -0.0150632 2.16757e-21)
(0.016575 -0.019996 -1.17778e-20)
(0.0218175 -0.0218869 1.87126e-20)
(0.0259112 -0.0212869 -3.48831e-21)
(0.0289816 -0.0186364 0)
(0.0311916 -0.0142367 0)
(0.0327151 -0.00824339 3.02534e-20)
(0.0337774 -0.00063735 -2.85663e-20)
(0.0343055 0.00865725 5.41319e-21)
(0.00452386 -0.00640373 1.66801e-20)
(0.0132251 -0.0156075 0)
(0.021347 -0.0203925 1.57378e-20)
(0.0277913 -0.0221042 -1.49366e-20)
(0.0327127 -0.0213745 0)
(0.0363077 -0.0187098 6.79294e-21)
(0.0388014 -0.0144637 -1.90518e-20)
(0.0404191 -0.00882525 -2.41932e-20)
(0.0414432 -0.00176321 1.13529e-20)
(0.0418431 0.00682946 1.09657e-20)
(0.005933 -0.00685221 -3.3337e-20)
(0.016784 -0.0161973 -4.2343e-21)
(0.0265946 -0.0207259 -7.97493e-21)
(0.0342138 -0.0221554 -1.8774e-20)
(0.0399083 -0.0212035 -7.1924e-21)
(0.0439716 -0.0184386 -6.79406e-21)
(0.0467096 -0.0142628 4.63377e-23)
(0.0484125 -0.00890239 0)
(0.049424 -0.00232184 0)
(0.0497646 0.00562496 8.43445e-23)
(0.00761607 -0.00735594 1.66573e-20)
(0.0207614 -0.0167581 -1.68587e-20)
(0.0322142 -0.0209407 1.18601e-20)
(0.0408912 -0.0220251 2.64293e-20)
(0.0472125 -0.0208134 -7.0531e-21)
(0.0515962 -0.0179246 6.78928e-21)
(0.0544458 -0.0137998 6.39845e-21)
(0.0561269 -0.00870145 0)
(0.057054 -0.00259807 0)
(0.0573194 0.00470522 -2.66892e-22)
(0.00957735 -0.00785418 -2.0902e-21)
(0.0250971 -0.0171988 2.11535e-20)
(0.0380568 -0.0209747 -3.95789e-21)
(0.0475873 -0.0217033 0)
(0.0543093 -0.020259 0)
(0.0587938 -0.0172928 1.34368e-20)
(0.0615548 -0.0132654 0)
(0.0630358 -0.00846542 -1.17868e-20)
(0.0637117 -0.00288808 1.91649e-23)
(0.063769 0.00365584 1.0543e-20)
(0.0245462 0.0594847 2.06408e-22)
(0.0389809 0.124657 -2.08785e-22)
(0.045551 0.185478 -2.39254e-22)
(0.045337 0.240848 -2.72748e-22)
(0.0398728 0.297027 -3.35368e-22)
(0.0352751 0.357722 -1.18452e-23)
(0.0233243 0.425801 1.76694e-22)
(0.0201503 0.51185 6.30768e-22)
(-0.00020639 0.637156 0)
(0.00617855 0.787667 -4.62105e-22)
(0.0225398 0.0541708 7.90792e-22)
(0.0355345 0.119628 -9.02524e-22)
(0.0426867 0.183178 1.61675e-21)
(0.0430174 0.24046 2.73202e-22)
(0.03801 0.297709 5.91296e-22)
(0.033768 0.359105 1.019e-21)
(0.0223411 0.427711 -3.82058e-22)
(0.0193053 0.514181 -4.23051e-22)
(-0.000183377 0.639037 8.27119e-22)
(0.00574809 0.78815 4.61011e-22)
(0.0219548 0.0485508 0)
(0.0326604 0.113412 -8.62811e-22)
(0.0401838 0.179624 -4.6903e-22)
(0.0409838 0.238984 0)
(0.0363805 0.297429 -1.8207e-21)
(0.0324688 0.35962 5.67898e-22)
(0.0215046 0.428814 6.41258e-22)
(0.0185643 0.515721 2.27839e-21)
(-0.000121319 0.640477 -8.24441e-22)
(0.00536234 0.788438 1.66182e-21)
(0.0230389 0.0429372 0)
(0.0304608 0.106184 8.70064e-22)
(0.038042 0.17481 0)
(0.0392177 0.236398 2.10776e-21)
(0.0349678 0.296181 -2.11869e-21)
(0.0313599 0.359257 -1.29542e-21)
(0.0208017 0.429062 -8.14176e-23)
(0.0179373 0.516379 -2.22624e-21)
(-2.15637e-05 0.641188 -3.64623e-22)
(0.00499931 0.78834 -2.04395e-21)
(0.025958 0.0376493 3.62905e-23)
(0.0290926 0.0982261 -2.48507e-21)
(0.0362656 0.168769 9.6193e-23)
(0.0377019 0.23269 -1.86431e-21)
(0.0337533 0.293975 0)
(0.0304194 0.35807 -1.23666e-21)
(0.0202105 0.428593 -1.06982e-22)
(0.0173989 0.516449 2.7979e-21)
(8.69435e-05 0.641609 3.70839e-22)
(0.00466221 0.788193 -3.72189e-22)
(0.0306759 0.03295 -6.74388e-21)
(0.0287482 0.0899087 4.26029e-21)
(0.0348714 0.161579 1.82019e-21)
(0.036423 0.227866 -1.81929e-21)
(0.032723 0.290788 -1.00378e-21)
(0.0296375 0.355969 0)
(0.0197343 0.427194 -2.47635e-21)
(0.0169688 0.515483 1.23536e-21)
(0.000226893 0.641012 1.35515e-21)
(0.00433161 0.787553 1.41243e-21)
(0.036845 0.0289976 -8.11394e-22)
(0.0295891 0.0816599 0)
(0.0338946 0.153387 0)
(0.0353669 0.221962 0)
(0.0318527 0.286737 -1.07222e-21)
(0.028986 0.35326 2.07279e-21)
(0.0193345 0.425433 2.41342e-21)
(0.0165797 0.514445 -3.76155e-21)
(0.000336968 0.640694 6.66811e-22)
(0.00402943 0.787151 -2.05927e-21)
(0.0437575 0.025791 5.09942e-21)
(0.0316134 0.0738077 3.46428e-21)
(0.0333712 0.144434 -3.43289e-21)
(0.0345369 0.214976 3.7059e-21)
(0.0311392 0.281497 -4.60554e-21)
(0.028476 0.349246 0)
(0.019058 0.422178 -1.08419e-21)
(0.0163303 0.511615 5.53333e-23)
(0.000510122 0.638569 -1.20229e-21)
(0.00371747 0.785934 -1.26529e-21)
(0.0503325 0.0229536 -4.33613e-21)
(0.0344956 0.0660674 0)
(0.0332944 0.134652 -3.87572e-21)
(0.0338815 0.207334 7.02269e-21)
(0.03055 0.276269 -2.6215e-21)
(0.0280381 0.34587 -4.87714e-22)
(0.0187751 0.420052 1.08186e-21)
(0.0160026 0.51044 9.45963e-24)
(0.000561273 0.638253 1.73633e-21)
(0.00344406 0.785529 1.83784e-21)
(0.0550718 0.0203086 -3.48985e-21)
(0.0375026 0.05834 3.41032e-21)
(0.0337331 0.123031 4.26641e-22)
(0.0334695 0.196213 0)
(0.0300557 0.266829 0)
(0.0278083 0.338076 4.77409e-22)
(0.0187665 0.413356 2.03541e-21)
(0.0160205 0.504451 -1.9773e-21)
(0.000816891 0.633769 -5.34866e-22)
(0.00313538 0.783567 5.17659e-22)
(0.0575671 0.0221999 0)
(0.0413203 0.054679 0)
(0.035036 0.115208 0)
(0.0335889 0.191133 0)
(0.0294311 0.265384 0)
(0.0264063 0.339164 0)
(0.0176134 0.415795 0)
(0.0146742 0.508119 0)
(0.000433814 0.636761 0)
(0.00255384 0.783657 0)
(0.0597069 0.0416177 0)
(0.0444865 0.0746079 0)
(0.0346419 0.125992 0)
(0.0317791 0.196315 0)
(0.0279438 0.269917 0)
(0.0247772 0.344551 0)
(0.0166002 0.422649 0)
(0.0133123 0.516446 0)
(0.000379729 0.643983 0)
(0.00202254 0.785435 0)
(0.0574255 0.0487617 0)
(0.0461893 0.0858576 0)
(0.0351234 0.134631 0)
(0.0304289 0.202066 0)
(0.0262475 0.275207 0)
(0.0228273 0.349842 0)
(0.0153247 0.428302 0)
(0.0119579 0.522355 0)
(0.000234199 0.648677 0)
(0.0015829 0.785788 0)
(0.0528129 0.0534157 0)
(0.045511 0.0948984 0)
(0.0351172 0.142205 0)
(0.0293951 0.207098 0)
(0.0250804 0.280352 0)
(0.021553 0.356012 0)
(0.0145506 0.43582 0)
(0.0110481 0.530894 0)
(0.00041817 0.655851 0)
(0.0013183 0.787539 0)
(0.0474421 0.055763 0)
(0.0432726 0.102356 0)
(0.0343919 0.149744 0)
(0.0283092 0.212002 0)
(0.0237444 0.284251 0)
(0.0200864 0.359974 0)
(0.013578 0.440179 0)
(0.0100767 0.535418 0)
(0.000333253 0.659305 0)
(0.00102811 0.7875 0)
(0.0415268 0.055923 0)
(0.0400022 0.107679 0)
(0.0327055 0.156314 0)
(0.0269722 0.217062 0)
(0.0228675 0.2891 0)
(0.0193306 0.365756 0)
(0.0131887 0.447353 0)
(0.0095451 0.543663 0)
(0.000618326 0.666077 0)
(0.000884888 0.789043 0)
(0.0353617 0.0540562 0)
(0.0364912 0.111366 0)
(0.0311653 0.162583 0)
(0.0254878 0.22164 0)
(0.0213768 0.2921 0)
(0.0180782 0.368439 0)
(0.0124652 0.45022 0)
(0.00889753 0.546547 0)
(0.000565579 0.668184 0)
(0.000702422 0.788701 0)
(0.0288956 0.049744 0)
(0.0321392 0.111583 0)
(0.0289672 0.166493 0)
(0.0244907 0.226683 0)
(0.0208648 0.297468 0)
(0.0176408 0.374672 0)
(0.0123255 0.457796 0)
(0.00862516 0.555125 0)
(0.000965157 0.675048 0)
(0.000658732 0.790263 0)
(0.0239501 0.045956 0)
(0.0297178 0.112934 0)
(0.0279886 0.17065 0)
(0.0234008 0.229555 0)
(0.019749 0.299027 0)
(0.0167845 0.375979 0)
(0.0118416 0.459259 0)
(0.00824262 0.556488 0)
(0.000928772 0.67603 0)
(0.000565867 0.789926 0)
(0.0164262 0.0314761 0)
(0.0244522 0.104474 0)
(0.0267498 0.17128 0)
(0.0240563 0.235043 0)
(0.0203896 0.305419 0)
(0.0170579 0.383217 0)
(0.0121466 0.467859 0)
(0.00824028 0.566101 0)
(0.00147801 0.683535 0)
(0.000593025 0.791733 0)
(0.0670992 0.0116423 3.06976e-21)
(0.0654319 0.0210466 -3.01821e-21)
(0.0599243 0.0235001 2.5948e-22)
(0.0535418 0.0240263 0)
(0.0468255 0.0227644 0)
(0.0396186 0.0200288 7.5627e-23)
(0.0322277 0.0159114 -8.85569e-23)
(0.0247979 0.00999515 8.70342e-23)
(0.0183356 0.00466486 -1.54928e-23)
(0.0102185 -0.00837161 1.52257e-23)
(0.0687171 0.00729149 -4.0638e-21)
(0.0650759 0.0123455 0)
(0.0586989 0.0125437 1.4577e-21)
(0.0519954 0.011354 -2.89247e-21)
(0.0451048 0.00871113 1.42859e-21)
(0.0377645 0.00493152 -7.39853e-23)
(0.030243 3.33926e-05 6.42927e-23)
(0.0227868 -0.00636112 1.07558e-23)
(0.0159009 -0.0122044 -2.484e-23)
(0.00836813 -0.0242356 -2.80194e-23)
(0.0693662 0.0025524 4.57622e-21)
(0.0641481 0.00372953 -2.10736e-21)
(0.0572666 0.00177393 2.08709e-21)
(0.0503379 -0.0011278 -1.13784e-21)
(0.0432886 -0.00515077 8.93116e-22)
(0.0358231 -0.00995561 0)
(0.0281922 -0.0155783 -6.44397e-23)
(0.0207344 -0.0222903 3.57423e-25)
(0.0136253 -0.0284005 1.05917e-23)
(0.00671333 -0.0390191 4.27492e-23)
(0.0691994 -0.00328181 -6.96113e-22)
(0.0626727 -0.00545709 0)
(0.0555383 -0.00925267 0)
(0.0484697 -0.0136534 0)
(0.0413317 -0.0188766 5.68977e-22)
(0.0337899 -0.0245367 -3.49344e-22)
(0.0261125 -0.0307127 2.56082e-23)
(0.0186794 -0.0375361 1.17202e-23)
(0.011559 -0.0436257 1.01027e-23)
(0.00523761 -0.0526482 1.8366e-23)
(0.0681115 -0.0102996 -4.86093e-22)
(0.0605604 -0.015277 -1.85279e-21)
(0.0533926 -0.0205929 -7.4018e-22)
(0.0462729 -0.0262163 7.39647e-22)
(0.0391335 -0.0323926 -2.16909e-22)
(0.0316009 -0.0386713 0)
(0.0239777 -0.0451766 -6.2498e-23)
(0.0166558 -0.0518903 1.93089e-23)
(0.00970931 -0.0576912 -5.46987e-24)
(0.00400598 -0.0650975 -2.87663e-23)
(0.0662001 -0.0183484 -5.11709e-21)
(0.0579253 -0.0255499 8.54067e-22)
(0.0509113 -0.0321107 2.19867e-22)
(0.0438197 -0.0386675 7.26963e-22)
(0.0367518 -0.0455402 0)
(0.0293151 -0.0521882 0)
(0.0218392 -0.058792 0)
(0.0147238 -0.0651942 2.44877e-23)
(0.00809447 -0.0704997 0)
(0.00302119 -0.0763849 0)
(0.0635465 -0.0271821 0)
(0.0549026 -0.0360086 1.45294e-21)
(0.0481783 -0.043594 -9.35468e-22)
(0.0411905 -0.0508006 -5.24509e-22)
(0.0342698 -0.0581301 5.27201e-22)
(0.0270081 -0.0649151 1.04847e-22)
(0.0197616 -0.0714119 -1.32243e-22)
(0.0129371 -0.077346 -1.15786e-22)
(0.00672256 -0.0820287 9.1942e-24)
(0.00225552 -0.0865628 8.42475e-24)
(0.0602342 -0.036512 0)
(0.0516134 -0.0463849 -5.17806e-22)
(0.0452706 -0.0548084 -2.08536e-22)
(0.0384585 -0.0624047 0)
(0.0317572 -0.0699828 6.90784e-23)
(0.0247439 -0.0767079 -2.57419e-22)
(0.0177964 -0.0829364 1.06974e-22)
(0.0113306 -0.0883039 2.48626e-24)
(0.00558479 -0.0923147 -7.17476e-24)
(0.00167426 -0.0957065 -9.35262e-24)
(0.0564016 -0.046044 6.952e-22)
(0.04814 -0.0564411 4.69385e-22)
(0.0422557 -0.0655436 -1.59562e-22)
(0.0356921 -0.0732983 8.09166e-23)
(0.0292742 -0.0809549 1.12867e-22)
(0.0225751 -0.0874691 1.1336e-22)
(0.0159801 -0.0933203 -2.3969e-23)
(0.0099198 -0.0980818 -1.23196e-23)
(0.0046592 -0.101436 7.19823e-24)
(0.00124187 -0.103902 1.95218e-25)
(0.0521956 -0.0555296 -1.46091e-22)
(0.0445633 -0.0659895 1.47395e-22)
(0.039196 -0.0756342 -1.05787e-22)
(0.0329539 -0.083351 -8.07936e-23)
(0.0268708 -0.0909546 5.01777e-23)
(0.0205407 -0.0971563 -9.00384e-23)
(0.014333 -0.102571 3.36256e-23)
(0.00870366 -0.106739 2.59614e-24)
(0.00391613 -0.109496 0)
(0.000924739 -0.111241 -1.9563e-25)
(0.0477854 -0.064771 1.50003e-22)
(0.0409769 -0.0749041 -1.51274e-22)
(0.0361617 -0.0849695 -1.12034e-22)
(0.0303088 -0.0924922 -8.67015e-23)
(0.0245914 -0.0999457 -5.31145e-23)
(0.0186696 -0.105781 8.3732e-24)
(0.0128637 -0.110742 1.84761e-23)
(0.00766991 -0.114365 2.8071e-23)
(0.0033238 -0.116609 0)
(0.000693458 -0.11781 -2.16972e-24)
(0.0433475 -0.0736368 0)
(0.0374832 -0.0831217 -5.06804e-22)
(0.0332239 -0.0934929 8.55384e-22)
(0.027818 -0.10071 8.68291e-23)
(0.022472 -0.107942 1.36179e-22)
(0.0169802 -0.113399 1.42122e-22)
(0.0115706 -0.117918 -2.93799e-23)
(0.00679971 -0.121069 -1.70386e-23)
(0.0028523 -0.122889 2.0137e-23)
(0.000524409 -0.123694 2.16454e-24)
(0.0390221 -0.0820604 0)
(0.0341625 -0.0906393 -5.89777e-22)
(0.0304304 -0.101195 -2.33137e-22)
(0.0255205 -0.108045 0)
(0.0205309 -0.115 -3.75798e-22)
(0.0154755 -0.120099 1.44149e-22)
(0.0104435 -0.124206 8.65053e-23)
(0.00607061 -0.126968 1.41703e-22)
(0.00247555 -0.128447 -2.00713e-23)
(0.000399644 -0.128974 1.48093e-23)
(0.0349083 -0.090027 0)
(0.0310682 -0.0975127 5.94664e-22)
(0.0278058 -0.108108 0)
(0.0234324 -0.114581 6.81517e-22)
(0.0187711 -0.121205 -6.85053e-22)
(0.0141462 -0.125994 -1.79874e-22)
(0.00946555 -0.129721 4.0364e-23)
(0.00545933 -0.132177 -1.48181e-22)
(0.00217211 -0.133387 -2.72002e-23)
(0.000305847 -0.133729 -2.28918e-23)
(0.0310781 -0.0975581 6.15434e-21)
(0.0282421 -0.103849 -2.305e-21)
(0.0253662 -0.114291 -2.25231e-22)
(0.0215576 -0.120434 -9.25644e-22)
(0.0171899 -0.126667 0)
(0.012977 -0.131206 -1.92976e-22)
(0.00861946 -0.134585 6.43285e-23)
(0.0049447 -0.136812 2.25606e-22)
(0.00192546 -0.13781 9.18675e-24)
(0.000233546 -0.138038 -9.1781e-24)
(0.0275717 -0.104687 5.4302e-22)
(0.0257191 -0.109802 3.5904e-21)
(0.0231282 -0.119829 9.70514e-22)
(0.0198934 -0.125736 -9.6992e-22)
(0.0157851 -0.131506 -3.3728e-22)
(0.0119526 -0.135863 0)
(0.00789003 -0.138918 -3.14961e-22)
(0.00450939 -0.140982 1.68555e-22)
(0.00172374 -0.141811 8.50131e-23)
(0.000176292 -0.141978 2.15258e-23)
(0.0244136 -0.111428 -8.66877e-22)
(0.0235449 -0.115558 0)
(0.0211261 -0.124819 0)
(0.0184414 -0.130626 0)
(0.0145619 -0.135851 -2.67015e-22)
(0.0110626 -0.140089 6.0362e-22)
(0.0072673 -0.142837 3.24806e-22)
(0.00414111 -0.144791 -3.85062e-22)
(0.00155928 -0.145482 2.20463e-23)
(0.000129743 -0.145629 -4.31369e-23)
(0.0216018 -0.117744 -2.01119e-21)
(0.0217402 -0.121324 2.67066e-21)
(0.0193866 -0.129368 -2.64546e-21)
(0.0171854 -0.135233 1.69093e-21)
(0.0135175 -0.13983 -2.05122e-21)
(0.0102918 -0.144 0)
(0.00673989 -0.146449 -1.98462e-22)
(0.00382869 -0.148336 -8.99955e-24)
(0.00142605 -0.148911 -7.34386e-23)
(9.03675e-05 -0.149072 -2.47956e-23)
(0.0188569 -0.123485 -9.41859e-22)
(0.020041 -0.1273 0)
(0.0177736 -0.133598 -2.61039e-21)
(0.0159833 -0.139678 4.04859e-21)
(0.0125659 -0.14357 -1.39006e-21)
(0.00957281 -0.147709 -1.48323e-22)
(0.00626671 -0.149861 1.9801e-22)
(0.00354675 -0.15171 2.44431e-23)
(0.00131312 -0.152184 1.51374e-22)
(5.60892e-05 -0.152388 4.93056e-23)
(0.0161385 -0.128249 -3.81294e-21)
(0.0183177 -0.133666 3.72703e-21)
(0.0162989 -0.137681 3.37909e-22)
(0.0148163 -0.144082 0)
(0.0116928 -0.147211 0)
(0.00890076 -0.151332 1.52721e-22)
(0.00584199 -0.153182 3.69275e-22)
(0.00329442 -0.155007 -3.62391e-22)
(0.00122096 -0.155388 -2.73621e-23)
(3.9128e-05 -0.155659 2.67742e-23)
(0.0161132 -0.135298 0)
(0.0186855 -0.148868 0)
(0.016108 -0.147093 0)
(0.014345 -0.154514 0)
(0.0112295 -0.155913 0)
(0.00839781 -0.160088 0)
(0.00551016 -0.161225 0)
(0.00309194 -0.162998 0)
(0.00119131 -0.163117 0)
(7.39815e-05 -0.163504 0)
(0.0147763 -0.159436 0)
(0.0133731 -0.174199 0)
(0.0114327 -0.168634 0)
(0.00971123 -0.176158 0)
(0.00756414 -0.175125 0)
(0.00563025 -0.179061 0)
(0.00369694 -0.178875 0)
(0.00211894 -0.180504 0)
(0.000849011 -0.180064 0)
(8.80876e-05 -0.180561 0)
(0.0152165 -0.188617 0)
(0.0125269 -0.204441 0)
(0.010309 -0.196087 0)
(0.0082466 -0.204055 0)
(0.00631664 -0.201037 0)
(0.00456993 -0.205138 0)
(0.00302554 -0.203813 0)
(0.00176211 -0.205566 0)
(0.000767275 -0.204566 0)
(0.000101646 -0.205261 0)
(0.0151316 -0.225307 0)
(0.0115792 -0.242402 0)
(0.00940443 -0.232013 0)
(0.0071009 -0.240847 0)
(0.00545094 -0.236168 0)
(0.00381895 -0.240828 0)
(0.00260591 -0.238463 0)
(0.00152842 -0.240603 0)
(0.000733199 -0.239006 0)
(0.000103336 -0.24003 0)
(0.0147352 -0.270823 0)
(0.0107688 -0.288401 0)
(0.0086934 -0.27726 0)
(0.00621746 -0.286862 0)
(0.00482758 -0.281156 0)
(0.00323376 -0.286507 0)
(0.00229858 -0.283349 0)
(0.00130295 -0.286019 0)
(0.000681948 -0.283888 0)
(7.56276e-05 -0.285362 0)
(0.0136905 -0.323262 0)
(0.00971489 -0.33947 0)
(0.00784512 -0.329549 0)
(0.00534923 -0.339009 0)
(0.00421279 -0.333406 0)
(0.0026524 -0.33901 0)
(0.00194629 -0.335623 0)
(0.000981498 -0.338631 0)
(0.000542415 -0.336242 0)
(6.67778e-06 -0.338091 0)
(0.0117188 -0.376598 0)
(0.00817583 -0.389574 0)
(0.00659601 -0.382712 0)
(0.00433697 -0.390725 0)
(0.00343364 -0.386477 0)
(0.00200292 -0.391446 0)
(0.00146683 -0.388588 0)
(0.000569086 -0.391373 0)
(0.000312639 -0.389204 0)
(-7.52605e-05 -0.391068 0)
(0.00890226 -0.42267 0)
(0.00614021 -0.431667 0)
(0.00493277 -0.428592 0)
(0.00316099 -0.434307 0)
(0.00248646 -0.432091 0)
(0.00133146 -0.435664 0)
(0.000928231 -0.433862 0)
(0.00019504 -0.435853 0)
(8.8741e-05 -0.434307 0)
(-0.000119716 -0.435721 0)
(0.00551958 -0.455176 0)
(0.00376437 -0.460867 0)
(0.00301526 -0.46095 0)
(0.0018973 -0.464492 0)
(0.0014801 -0.464109 0)
(0.00072919 -0.466197 0)
(0.000469464 -0.46546 0)
(-9.98172e-06 -0.46651 0)
(-2.98297e-05 -0.465667 0)
(-0.000104881 -0.466435 0)
(0.00186626 -0.471577 0)
(0.00125479 -0.475518 0)
(0.00101029 -0.477309 0)
(0.000626368 -0.479595 0)
(0.000490097 -0.480237 0)
(0.000227348 -0.481417 0)
(0.000138801 -0.481308 0)
(-2.99707e-05 -0.481762 0)
(-2.66595e-05 -0.481366 0)
(-4.15526e-05 -0.481697 0)
(0.0157269 -0.144899 4.47223e-21)
(0.016238 -0.170453 -4.38477e-21)
(0.0173252 -0.201415 5.65743e-22)
(0.0174201 -0.239193 0)
(0.0170086 -0.284355 0)
(0.0157209 -0.334501 6.55578e-22)
(0.0134258 -0.38393 -2.81842e-21)
(0.01024 -0.425696 2.78058e-21)
(0.0064057 -0.454773 7.56392e-22)
(0.00217726 -0.469355 -7.44555e-22)
(0.0159167 -0.149808 -5.28488e-21)
(0.0170965 -0.175224 0)
(0.0183262 -0.206305 3.85439e-21)
(0.0184569 -0.244095 -8.89594e-21)
(0.0180098 -0.288871 5.7121e-21)
(0.0166083 -0.338045 -6.06157e-22)
(0.0141779 -0.38604 1.35166e-21)
(0.0108357 -0.426325 2.85344e-21)
(0.00680252 -0.454281 8.04073e-22)
(0.00231246 -0.468295 7.80313e-22)
(0.0164406 -0.154917 6.17576e-21)
(0.0183004 -0.180275 -4.2541e-21)
(0.0195732 -0.211227 4.2138e-21)
(0.0196953 -0.248783 -4.71874e-21)
(0.0191666 -0.292992 3.49165e-21)
(0.0176107 -0.34109 0)
(0.0150021 -0.387654 -1.35495e-21)
(0.0114584 -0.426549 7.03386e-23)
(0.00719406 -0.45351 -1.49842e-21)
(0.00243582 -0.467041 -1.53064e-21)
(0.0173245 -0.159502 -9.99197e-22)
(0.0197828 -0.184949 0)
(0.0210456 -0.215836 0)
(0.0211323 -0.253171 0)
(0.0204886 -0.296818 3.89147e-21)
(0.0187517 -0.343867 -2.6024e-21)
(0.01593 -0.389051 -1.78925e-23)
(0.0121411 -0.426603 -1.60105e-21)
(0.00760768 -0.452582 -8.21844e-22)
(0.00256006 -0.465613 -8.79974e-22)
(0.0186359 -0.163656 1.00357e-22)
(0.0215204 -0.189039 -3.01917e-21)
(0.0227187 -0.219836 -2.3069e-21)
(0.0227463 -0.25697 2.30545e-21)
(0.0219621 -0.300103 -1.27155e-21)
(0.0200289 -0.346201 0)
(0.016974 -0.39014 -1.49254e-21)
(0.0129095 -0.426461 3.26791e-21)
(0.00807261 -0.451515 -1.6725e-21)
(0.0027006 -0.464054 1.72186e-21)
(0.0204137 -0.167456 -8.02846e-21)
(0.0235344 -0.192583 8.6967e-22)
(0.0246069 -0.223165 -1.68875e-22)
(0.0245392 -0.260053 2.36974e-21)
(0.0235855 -0.302684 0)
(0.0214394 -0.347923 0)
(0.0181338 -0.390772 0)
(0.0137703 -0.426027 1.75152e-21)
(0.00859996 -0.450273 0)
(0.00286499 -0.462376 0)
(0.0226696 -0.170811 0)
(0.0258426 -0.19556 3.31877e-21)
(0.0267375 -0.225819 -2.24272e-21)
(0.0265299 -0.262406 -2.66154e-21)
(0.0253737 -0.304528 2.67538e-21)
(0.0229912 -0.348984 1.59555e-21)
(0.0194114 -0.390888 -1.58297e-21)
(0.0147225 -0.425244 -6.257e-21)
(0.0091888 -0.448823 4.45479e-22)
(0.00305433 -0.460572 -1.52474e-21)
(0.0254118 -0.173594 0)
(0.028452 -0.197894 -1.0786e-21)
(0.0291291 -0.22776 -6.0931e-22)
(0.028735 -0.264021 0)
(0.0273448 -0.305646 7.78038e-22)
(0.0246987 -0.349398 -2.34808e-21)
(0.0208149 -0.390492 2.61441e-21)
(0.0157681 -0.424104 9.32741e-22)
(0.00983711 -0.44715 -1.02074e-21)
(0.0032682 -0.458627 2.02289e-21)
(0.0286509 -0.175706 9.69049e-22)
(0.0313673 -0.199517 1.17128e-21)
(0.0317932 -0.228936 -2.59715e-22)
(0.0311644 -0.264874 3.48449e-22)
(0.0295123 -0.306036 7.40791e-22)
(0.0265746 -0.349183 1.24372e-21)
(0.0223542 -0.389605 -4.67802e-22)
(0.0169125 -0.422621 -5.05472e-22)
(0.0105458 -0.445254 1.02411e-21)
(0.00350699 -0.456531 5.55003e-22)
(0.032397 -0.177065 -2.70487e-22)
(0.034594 -0.200394 2.73002e-22)
(0.0347391 -0.229308 -3.13699e-22)
(0.0338245 -0.264943 -3.47997e-22)
(0.031886 -0.305686 4.13248e-22)
(0.0286285 -0.34834 -8.43736e-22)
(0.0240389 -0.388236 7.15842e-22)
(0.0181634 -0.420802 2.5595e-22)
(0.0113189 -0.443135 0)
(0.00377234 -0.454281 -5.56244e-22)
(0.0366575 -0.177609 2.77278e-22)
(0.0381348 -0.20052 -2.7995e-22)
(0.0379757 -0.228857 -3.36934e-22)
(0.03672 -0.264226 -3.7617e-22)
(0.0344741 -0.304595 -4.31302e-22)
(0.0308669 -0.346875 -3.02538e-23)
(0.0258757 -0.386393 2.52286e-22)
(0.0195262 -0.418653 8.1454e-22)
(0.0121595 -0.440796 0)
(0.00406528 -0.451871 -6.07102e-22)
(0.0414373 -0.177322 0)
(0.0419896 -0.199892 -1.28947e-21)
(0.041509 -0.227594 2.3374e-21)
(0.0398532 -0.262732 3.76803e-22)
(0.0372844 -0.302767 8.75383e-22)
(0.0332967 -0.344787 1.43716e-21)
(0.0278733 -0.38407 -5.11224e-22)
(0.0210094 -0.416167 -5.52591e-22)
(0.0130736 -0.438231 1.22227e-21)
(0.00438777 -0.449298 6.05688e-22)
(0.0467376 -0.176245 0)
(0.0461583 -0.198504 -1.272e-21)
(0.0453411 -0.225557 -7.02769e-22)
(0.043228 -0.26048 0)
(0.040322 -0.300235 -2.75746e-21)
(0.0359216 -0.342102 9.21502e-22)
(0.0300343 -0.38129 1.09769e-21)
(0.0226135 -0.413362 3.54453e-21)
(0.0140596 -0.435437 -1.2183e-21)
(0.00473814 -0.446549 2.62964e-21)
(0.0525537 -0.17449 0)
(0.0506433 -0.19635 1.28284e-21)
(0.0494604 -0.22287 0)
(0.0468447 -0.257467 3.52289e-21)
(0.0435918 -0.297014 -3.54096e-21)
(0.0387502 -0.338813 -2.16539e-21)
(0.0323684 -0.378033 -4.85877e-23)
(0.0243526 -0.410211 -3.64795e-21)
(0.0151308 -0.432396 -6.08089e-22)
(0.00512031 -0.443604 -3.27091e-21)
(0.0588564 -0.172147 9.26923e-21)
(0.0554491 -0.193417 -3.55928e-21)
(0.053868 -0.219525 3.80618e-22)
(0.0507288 -0.253704 -3.28947e-21)
(0.0470853 -0.293133 0)
(0.0417841 -0.334958 -2.25837e-21)
(0.0348734 -0.374344 -1.88966e-22)
(0.0262214 -0.406753 4.95467e-21)
(0.0162811 -0.429138 6.79182e-22)
(0.00553027 -0.440488 -6.81796e-22)
(0.0655975 -0.169205 -9.54056e-22)
(0.0605982 -0.189774 6.65584e-21)
(0.0585317 -0.215525 3.42271e-21)
(0.0548693 -0.249316 -3.42039e-21)
(0.0508057 -0.288623 -2.06204e-21)
(0.0450325 -0.330525 0)
(0.0375662 -0.370176 -5.06047e-21)
(0.0282415 -0.402935 2.53801e-21)
(0.0175287 -0.425629 2.71012e-21)
(0.00597439 -0.437173 2.9094e-21)
(0.0727059 -0.165721 -1.27884e-21)
(0.066087 -0.185541 0)
(0.063425 -0.210986 0)
(0.0592518 -0.244417 0)
(0.0547466 -0.283637 -2.38033e-21)
(0.0484775 -0.32571 4.43468e-21)
(0.0404149 -0.365731 5.15517e-21)
(0.0303714 -0.398915 -8.11748e-21)
(0.0188387 -0.421954 1.4527e-21)
(0.00643523 -0.433703 -4.32123e-21)
(0.0800637 -0.161815 -1.91052e-21)
(0.0719081 -0.180714 6.56483e-21)
(0.0685303 -0.205887 -6.50216e-21)
(0.0638781 -0.238857 8.34325e-21)
(0.0589333 -0.27791 -1.0493e-20)
(0.0521782 -0.320129 0)
(0.0435138 -0.360602 -2.69526e-21)
(0.0327197 -0.394381 -1.11044e-22)
(0.0202981 -0.417936 -3.01943e-21)
(0.00694867 -0.429962 -3.07677e-21)
(0.0874951 -0.157955 -1.35923e-21)
(0.0780044 -0.175737 0)
(0.0737544 -0.200816 -8.6793e-21)
(0.068636 -0.233456 1.63464e-20)
(0.0632209 -0.272525 -6.32743e-21)
(0.0559351 -0.315013 -1.27551e-21)
(0.0466122 -0.355912 2.68941e-21)
(0.0350307 -0.390106 -1.3587e-22)
(0.0217166 -0.413971 4.40744e-21)
(0.00742971 -0.42617 4.55332e-21)
(0.0952749 -0.152386 -6.12112e-21)
(0.0852131 -0.168687 6.00121e-21)
(0.0797328 -0.193477 9.2579e-22)
(0.0740689 -0.225532 0)
(0.0681597 -0.264429 0)
(0.0603757 -0.307299 1.25393e-21)
(0.0503969 -0.349131 5.74286e-21)
(0.0379454 -0.384466 -5.61868e-21)
(0.0235514 -0.409249 -1.53797e-21)
(0.00807119 -0.421839 1.51226e-21)
(0.105991 -0.152795 0)
(0.101051 -0.165939 0)
(0.0924133 -0.191564 0)
(0.0853244 -0.223033 0)
(0.0779916 -0.260987 0)
(0.0686623 -0.302384 0)
(0.057012 -0.342498 0)
(0.0427655 -0.376267 0)
(0.0264649 -0.4001 0)
(0.0089187 -0.412513 0)
(0.125016 -0.138972 0)
(0.127757 -0.157111 0)
(0.114597 -0.185852 0)
(0.10671 -0.216913 0)
(0.0968112 -0.253746 0)
(0.0846905 -0.292753 0)
(0.0699444 -0.329847 0)
(0.0522974 -0.360517 0)
(0.0323901 -0.381519 0)
(0.0112084 -0.39158 0)
(0.150391 -0.125721 0)
(0.156238 -0.146329 0)
(0.138613 -0.17534 0)
(0.130517 -0.205046 0)
(0.117243 -0.240207 0)
(0.101868 -0.276214 0)
(0.0834174 -0.310241 0)
(0.0618974 -0.338631 0)
(0.038015 -0.358894 0)
(0.012565 -0.370028 0)
(0.181999 -0.116463 0)
(0.188962 -0.137391 0)
(0.166611 -0.165266 0)
(0.158573 -0.193645 0)
(0.140874 -0.227047 0)
(0.12201 -0.259713 0)
(0.0992504 -0.290447 0)
(0.0733049 -0.315505 0)
(0.0450652 -0.332366 0)
(0.0157493 -0.339617 0)
(0.21919 -0.105051 0)
(0.224461 -0.12432 0)
(0.197539 -0.149773 0)
(0.188687 -0.175631 0)
(0.164649 -0.205258 0)
(0.141662 -0.233204 0)
(0.113511 -0.260325 0)
(0.0828144 -0.283 0)
(0.0500823 -0.300156 0)
(0.0158017 -0.311399 0)
(0.262216 -0.0962547 0)
(0.264292 -0.113169 0)
(0.233497 -0.136831 0)
(0.222567 -0.159553 0)
(0.19121 -0.185359 0)
(0.164879 -0.20948 0)
(0.130926 -0.233786 0)
(0.0952464 -0.253251 0)
(0.0579212 -0.266608 0)
(0.0213582 -0.269817 0)
(0.30684 -0.0792526 0)
(0.301733 -0.0924444 0)
(0.267999 -0.11203 0)
(0.251978 -0.129138 0)
(0.213058 -0.149605 0)
(0.182951 -0.168509 0)
(0.140535 -0.188004 0)
(0.0995855 -0.20437 0)
(0.057325 -0.220776 0)
(0.0141175 -0.239273 0)
(0.351248 -0.0677684 0)
(0.340133 -0.0769114 0)
(0.306294 -0.0930814 0)
(0.284298 -0.105709 0)
(0.242432 -0.123429 0)
(0.208527 -0.139057 0)
(0.160471 -0.157077 0)
(0.115917 -0.173396 0)
(0.0686435 -0.189587 0)
(0.033592 -0.186137 0)
(0.389283 -0.0373204 0)
(0.373805 -0.04141 0)
(0.328404 -0.0511296 0)
(0.299435 -0.0571067 0)
(0.246333 -0.0677207 0)
(0.203724 -0.075101 0)
(0.141945 -0.0851896 0)
(0.0860969 -0.0945163 0)
(0.028909 -0.114118 0)
(-0.0354052 -0.164973 0)
(0.639641 -0.0192935 0)
(0.618241 -0.0222976 0)
(0.577223 -0.0268526 0)
(0.543913 -0.0310434 0)
(0.492256 -0.0374014 0)
(0.44481 -0.0440996 0)
(0.378095 -0.0544896 0)
(0.307377 -0.0696043 0)
(0.213639 -0.0988364 0)
(0.152723 -0.156853 0)
(0.127118 -0.137441 6.26175e-21)
(0.148635 -0.123049 -6.16764e-21)
(0.174192 -0.110207 1.01382e-21)
(0.205386 -0.101215 0)
(0.242409 -0.0907269 0)
(0.283618 -0.0827482 1.54857e-21)
(0.327169 -0.0676989 -7.38692e-21)
(0.368881 -0.0584858 7.28854e-21)
(0.415875 -0.0317962 2.0771e-21)
(0.660777 -0.0168618 -2.10373e-21)
(0.134126 -0.130826 -5.81424e-21)
(0.155413 -0.116223 0)
(0.180433 -0.103833 7.24716e-21)
(0.211468 -0.0951067 -1.75294e-20)
(0.248553 -0.0850291 1.18265e-20)
(0.289664 -0.077421 -1.44422e-21)
(0.333212 -0.0631024 3.14548e-21)
(0.374845 -0.0548138 7.09069e-21)
(0.425692 -0.0296278 1.92637e-21)
(0.669031 -0.0158233 1.92641e-21)
(0.140283 -0.123471 6.71681e-21)
(0.161094 -0.109043 -6.79244e-21)
(0.185497 -0.0973091 6.72819e-21)
(0.216176 -0.0889585 -9.32571e-21)
(0.253147 -0.0793847 6.76135e-21)
(0.29429 -0.0722453 0)
(0.337863 -0.0587291 -3.15307e-21)
(0.37997 -0.0514047 -6.60014e-23)
(0.434311 -0.0276769 -3.64655e-21)
(0.676775 -0.0148254 -3.84404e-21)
(0.146386 -0.115582 -1.15747e-21)
(0.167129 -0.101646 0)
(0.191094 -0.0906687 0)
(0.221468 -0.0827565 0)
(0.258132 -0.0737694 7.66536e-21)
(0.299225 -0.0671821 -5.22153e-21)
(0.342657 -0.0545421 -2.05709e-22)
(0.385166 -0.0481735 -3.60565e-21)
(0.442355 -0.0259176 -1.83353e-21)
(0.684224 -0.0139031 -1.87744e-21)
(0.151955 -0.107304 1.18567e-21)
(0.172856 -0.0941456 -3.66951e-21)
(0.196501 -0.0840002 -3.82409e-21)
(0.226758 -0.0765532 3.82171e-21)
(0.263147 -0.0682042 -2.40927e-21)
(0.30423 -0.0622433 0)
(0.347476 -0.0505061 -3.06947e-21)
(0.390371 -0.0450522 6.86171e-21)
(0.449977 -0.0242979 -3.448e-21)
(0.691337 -0.0130616 3.74681e-21)
(0.156783 -0.0986618 -8.64394e-21)
(0.177874 -0.0865649 4.22757e-22)
(0.201216 -0.0773244 -6.11789e-22)
(0.231372 -0.0704036 3.73584e-21)
(0.267634 -0.0627255 0)
(0.308765 -0.057433 0)
(0.351837 -0.046626 0)
(0.395319 -0.0420312 3.27988e-21)
(0.457044 -0.0227817 0)
(0.698015 -0.0122909 0)
(0.160798 -0.0896729 0)
(0.18213 -0.0788907 4.37762e-21)
(0.205202 -0.0706185 -3.03983e-21)
(0.235189 -0.0643055 -4.27388e-21)
(0.27137 -0.0573492 4.2961e-21)
(0.312603 -0.0527416 2.78203e-21)
(0.355551 -0.0429125 -2.62476e-21)
(0.399731 -0.0391244 -1.12925e-20)
(0.463364 -0.0213514 7.99306e-22)
(0.704174 -0.0115938 -2.67849e-21)
(0.163894 -0.080368 0)
(0.185591 -0.0711144 -1.34223e-21)
(0.20848 -0.0638636 -8.10358e-22)
(0.238263 -0.0582385 0)
(0.274362 -0.0520557 1.29694e-21)
(0.315687 -0.0481565 -3.7296e-21)