/*--------------------------------*- C++ -*----------------------------------*\
  =========                 |
  \\      /  F ield         | OpenFOAM: The Open Source CFD Toolbox
   \\    /   O peration     | Website:  https://openfoam.org
    \\  /    A nd           | Version:  7
     \\/     M anipulation  |
\*---------------------------------------------------------------------------*/
FoamFile
{
    version     2.0;
    format      ascii;
    class       volScalarField;
    location    "3.1";
    object      p;
}
// * * * * * * * * * * * * * * * * * * * * * * * * * * * * * * * * * * * * * //

dimensions      [0 2 -2 0 0 0 0];

internalField   nonuniform List<scalar> 
18000
(
1.39222
1.39097
1.39138
1.39223
1.39349
1.39499
1.39666
1.39852
1.40059
1.40289
1.40542
1.4082
1.41121
1.41446
1.41793
1.42158
1.42539
1.42934
1.43338
1.4375
1.44165
1.44581
1.44993
1.45401
1.45801
1.4619
1.46566
1.46929
1.47277
1.47592
1.38748
1.3864
1.38687
1.38777
1.38903
1.39048
1.39204
1.39373
1.39557
1.39759
1.39982
1.40225
1.40491
1.40781
1.41092
1.41424
1.41774
1.42141
1.42522
1.42914
1.43313
1.43716
1.44119
1.4452
1.44916
1.45303
1.45679
1.46042
1.46391
1.46709
1.38256
1.38169
1.38223
1.38319
1.38445
1.38584
1.3873
1.38882
1.39043
1.39217
1.39407
1.39616
1.39846
1.40098
1.40373
1.4067
1.40989
1.41328
1.41684
1.42055
1.42438
1.42828
1.43223
1.43618
1.44011
1.44396
1.44772
1.45136
1.45487
1.45808
1.37746
1.37686
1.37748
1.37849
1.37976
1.38111
1.38246
1.38381
1.38519
1.38665
1.38822
1.38996
1.39188
1.39402
1.39639
1.39902
1.40188
1.40498
1.4083
1.4118
1.41546
1.41924
1.4231
1.42699
1.43088
1.43473
1.43849
1.44214
1.44568
1.44892
1.37228
1.37197
1.37267
1.37373
1.375
1.37629
1.37754
1.37873
1.37988
1.38105
1.3823
1.38367
1.38521
1.38697
1.38897
1.39123
1.39377
1.39658
1.39964
1.40293
1.40642
1.41007
1.41384
1.41768
1.42154
1.42537
1.42914
1.43281
1.43637
1.43965
1.36704
1.36701
1.36779
1.3689
1.37018
1.37142
1.37257
1.37359
1.37452
1.37541
1.37633
1.37734
1.3785
1.37987
1.3815
1.38341
1.38561
1.38812
1.39092
1.394
1.39732
1.40084
1.40452
1.40829
1.41212
1.41594
1.41971
1.42339
1.42698
1.43029
1.36178
1.36202
1.36287
1.36404
1.36532
1.36653
1.36758
1.36844
1.36915
1.36976
1.37036
1.37101
1.3718
1.37279
1.37404
1.37559
1.37747
1.37967
1.38221
1.38507
1.38822
1.39161
1.39519
1.3989
1.40269
1.40649
1.41024
1.41393
1.41754
1.42089
1.35651
1.35703
1.35795
1.35917
1.36046
1.36163
1.36259
1.3633
1.3638
1.36415
1.36443
1.36473
1.36515
1.36577
1.36665
1.36785
1.36939
1.3713
1.37358
1.37622
1.37919
1.38243
1.38591
1.38955
1.39328
1.39705
1.4008
1.40448
1.40809
1.41146
1.35126
1.35203
1.35302
1.35429
1.35559
1.35674
1.35762
1.3582
1.3585
1.35859
1.35856
1.35854
1.3586
1.35886
1.35938
1.36022
1.36143
1.36305
1.36507
1.36749
1.37027
1.37338
1.37674
1.38029
1.38397
1.38769
1.3914
1.39506
1.39866
1.40204
1.34603
1.34705
1.34811
1.34943
1.35075
1.35187
1.35269
1.35314
1.35326
1.35311
1.35281
1.35246
1.35219
1.35209
1.35226
1.35277
1.35366
1.35498
1.35674
1.35894
1.36153
1.36449
1.36773
1.37118
1.37478
1.37844
1.38211
1.38573
1.3893
1.39266
1.34085
1.3421
1.34322
1.3446
1.34594
1.34705
1.34781
1.34816
1.34812
1.34775
1.34718
1.34654
1.34594
1.34552
1.34535
1.34553
1.34611
1.34714
1.34864
1.35061
1.35302
1.35581
1.35891
1.36226
1.36576
1.36935
1.37295
1.37651
1.38002
1.38335
1.33573
1.33717
1.33836
1.3398
1.34118
1.34229
1.34301
1.34327
1.34308
1.34251
1.3417
1.34079
1.33989
1.33915
1.33867
1.33853
1.33881
1.33956
1.34081
1.34255
1.34476
1.34738
1.35033
1.35355
1.35694
1.36043
1.36395
1.36742
1.37086
1.37413
1.33067
1.33229
1.33354
1.33504
1.33645
1.33758
1.33827
1.33846
1.33815
1.33741
1.33639
1.33522
1.33405
1.33302
1.33223
1.33179
1.33178
1.33226
1.33325
1.33477
1.33678
1.33921
1.34201
1.34509
1.34835
1.35172
1.35513
1.35849
1.36182
1.36501
1.32568
1.32745
1.32876
1.33032
1.33178
1.33293
1.33362
1.33375
1.33334
1.33245
1.33123
1.32984
1.32842
1.32711
1.32604
1.32531
1.32503
1.32524
1.32599
1.32728
1.32908
1.33134
1.33396
1.33688
1.33999
1.34322
1.34649
1.34972
1.35292
1.356
1.32076
1.32266
1.32402
1.32565
1.32716
1.32834
1.32903
1.32913
1.32863
1.32762
1.32623
1.32463
1.32298
1.32142
1.32009
1.3191
1.31855
1.31851
1.31902
1.32009
1.32168
1.32374
1.32618
1.32892
1.33187
1.33494
1.33805
1.34113
1.34416
1.34711
1.31592
1.3179
1.31932
1.32101
1.32258
1.3238
1.32451
1.32459
1.32403
1.32291
1.32137
1.31959
1.31773
1.31594
1.31436
1.31312
1.31232
1.31204
1.31232
1.31317
1.31456
1.31642
1.31867
1.32122
1.32398
1.32687
1.3298
1.3327
1.33555
1.33835
1.31114
1.31319
1.31465
1.3164
1.31804
1.31931
1.32004
1.32011
1.3195
1.31829
1.31663
1.31469
1.31264
1.31064
1.30883
1.30735
1.30632
1.30581
1.30587
1.30651
1.30769
1.30934
1.31139
1.31374
1.3163
1.319
1.32173
1.32443
1.32709
1.32971
1.30642
1.3085
1.31001
1.31183
1.31352
1.31485
1.31561
1.31568
1.31503
1.31375
1.31198
1.30989
1.30767
1.30547
1.30345
1.30176
1.30051
1.29979
1.29964
1.30007
1.30104
1.30249
1.30433
1.30647
1.30882
1.31131
1.31383
1.31633
1.31877
1.32119
1.30175
1.30384
1.30539
1.30727
1.30903
1.31041
1.31119
1.31127
1.31059
1.30924
1.30738
1.30516
1.30278
1.3004
1.29819
1.2963
1.29485
1.29393
1.29358
1.29382
1.29458
1.29582
1.29745
1.29937
1.30151
1.30378
1.30609
1.30836
1.31058
1.31279
1.29711
1.29919
1.30078
1.30272
1.30453
1.30596
1.30678
1.30685
1.30615
1.30475
1.30279
1.30046
1.29793
1.29539
1.293
1.29093
1.2893
1.28819
1.28767
1.28771
1.28828
1.28931
1.29072
1.29243
1.29435
1.29639
1.29848
1.30053
1.30252
1.30453
1.29249
1.29454
1.29616
1.29816
1.30003
1.3015
1.30234
1.30241
1.30168
1.30022
1.29818
1.29574
1.29308
1.29039
1.28784
1.28561
1.28381
1.28254
1.28184
1.2817
1.28208
1.28291
1.28411
1.2856
1.2873
1.28912
1.29098
1.29282
1.29459
1.2964
1.28786
1.28987
1.29153
1.29357
1.29549
1.297
1.29785
1.29791
1.29715
1.29563
1.29351
1.29097
1.28818
1.28536
1.28267
1.2803
1.27836
1.27694
1.27608
1.27577
1.27596
1.27659
1.27758
1.27886
1.28033
1.28193
1.28358
1.2852
1.28677
1.28839
1.28322
1.28517
1.28687
1.28895
1.29091
1.29244
1.29329
1.29333
1.29253
1.29095
1.28875
1.2861
1.28321
1.28026
1.27746
1.27496
1.27289
1.27134
1.27033
1.26986
1.26987
1.27031
1.27109
1.27215
1.27341
1.27479
1.27623
1.27765
1.27903
1.28049
1.27853
1.28043
1.28216
1.28428
1.28626
1.2878
1.28864
1.28864
1.28779
1.28615
1.28386
1.28112
1.27812
1.27507
1.27217
1.26957
1.26739
1.26571
1.26457
1.26395
1.26379
1.26403
1.26461
1.26545
1.2665
1.26767
1.26891
1.27016
1.27137
1.2727
1.27378
1.27564
1.27739
1.27953
1.28153
1.28306
1.28388
1.28383
1.28291
1.2812
1.27883
1.276
1.27291
1.26977
1.26678
1.2641
1.26183
1.26005
1.25878
1.25801
1.25767
1.25772
1.25809
1.25872
1.25955
1.26052
1.26158
1.26267
1.26377
1.26502
1.26895
1.27078
1.27255
1.27471
1.27671
1.27822
1.27898
1.27887
1.27788
1.27608
1.27363
1.27071
1.26755
1.26434
1.26129
1.25854
1.25619
1.25431
1.25293
1.25201
1.25151
1.25136
1.25151
1.25192
1.25254
1.25331
1.25419
1.25515
1.25617
1.2574
1.26403
1.26584
1.26762
1.26979
1.27178
1.27325
1.27394
1.27376
1.27268
1.2708
1.26826
1.26527
1.26204
1.25878
1.25568
1.25288
1.25047
1.24851
1.24701
1.24595
1.24527
1.24491
1.24484
1.24502
1.24541
1.24597
1.24669
1.24753
1.2485
1.24979
1.259
1.2608
1.2626
1.26477
1.26673
1.26814
1.26876
1.26848
1.26731
1.26534
1.26272
1.25966
1.25638
1.25309
1.24996
1.24712
1.24466
1.24263
1.24102
1.23981
1.23894
1.23837
1.23806
1.23799
1.23813
1.23845
1.23897
1.23969
1.24065
1.24207
1.25385
1.25567
1.25748
1.25965
1.26157
1.2629
1.26342
1.26304
1.26177
1.2597
1.25701
1.2539
1.25059
1.24728
1.24413
1.24127
1.23877
1.23666
1.23494
1.23358
1.23253
1.23173
1.23117
1.23081
1.23065
1.23068
1.23092
1.23144
1.23242
1.23414
1.24858
1.25044
1.25226
1.25442
1.25628
1.25752
1.25793
1.25744
1.25606
1.2539
1.25114
1.24799
1.24467
1.24135
1.23821
1.23533
1.23279
1.23062
1.22879
1.22728
1.22603
1.22501
1.22417
1.22351
1.223
1.22263
1.22241
1.2224
1.22281
1.22466
1.48535
1.49895
1.50672
1.51331
1.51742
1.52012
1.52148
1.52175
1.52109
1.51968
1.51764
1.5151
1.51215
1.50893
1.50551
1.50197
1.49835
1.49481
1.4913
1.48796
1.48464
1.48161
1.47866
1.47613
1.47362
1.47172
1.46968
1.46873
1.4673
1.46839
1.47658
1.49107
1.4993
1.50629
1.51073
1.51364
1.51516
1.51557
1.51508
1.5138
1.51186
1.50941
1.50657
1.50348
1.50013
1.49668
1.49315
1.48969
1.48625
1.48298
1.47973
1.47675
1.47383
1.47131
1.4688
1.46687
1.46478
1.46377
1.46227
1.46335
1.46761
1.48307
1.49178
1.49921
1.50397
1.5071
1.50879
1.50937
1.50904
1.50789
1.50605
1.50371
1.50099
1.498
1.49475
1.49138
1.48795
1.48458
1.48121
1.47801
1.47484
1.47191
1.46903
1.46653
1.46403
1.46208
1.45995
1.45889
1.45733
1.45841
1.45846
1.47495
1.4842
1.49207
1.49714
1.50052
1.5024
1.50315
1.50297
1.50195
1.50023
1.49801
1.49539
1.4925
1.48935
1.48609
1.48275
1.47946
1.47617
1.47305
1.46995
1.46708
1.46425
1.46178
1.4593
1.45734
1.45519
1.45409
1.45249
1.45355
1.44913
1.46673
1.47655
1.48487
1.49026
1.49389
1.49598
1.49691
1.49687
1.49599
1.4944
1.49229
1.48978
1.48698
1.48394
1.48078
1.47754
1.47435
1.47114
1.46809
1.46507
1.46227
1.4595
1.45708
1.45462
1.45267
1.4505
1.44937
1.44773
1.44878
1.43964
1.45841
1.46882
1.47763
1.48334
1.48724
1.48954
1.49065
1.49076
1.49001
1.48856
1.48656
1.48416
1.48145
1.47853
1.47547
1.47233
1.46923
1.46612
1.46315
1.4602
1.45748
1.45477
1.4524
1.44998
1.44805
1.44588
1.44473
1.44307
1.4441
1.43008
1.45002
1.46102
1.47033
1.4764
1.48056
1.48308
1.48437
1.48464
1.48402
1.4827
1.48082
1.47853
1.47593
1.47311
1.47016
1.46711
1.46411
1.46109
1.45821
1.45535
1.45271
1.45007
1.44776
1.44539
1.44349
1.44133
1.44017
1.43849
1.43951
1.42044
1.44158
1.45318
1.46301
1.46943
1.47386
1.4766
1.47807
1.4785
1.47803
1.47684
1.47508
1.4729
1.4704
1.46768
1.46485
1.4619
1.459
1.45608
1.45328
1.4505
1.44795
1.4454
1.44316
1.44085
1.43899
1.43685
1.43568
1.434
1.43501
1.41074
1.43308
1.44529
1.45565
1.46244
1.46715
1.47011
1.47177
1.47235
1.47202
1.47097
1.46932
1.46726
1.46487
1.46226
1.45953
1.45669
1.45388
1.45106
1.44836
1.44567
1.44322
1.44075
1.43859
1.43635
1.43454
1.43243
1.43128
1.42959
1.4306
1.40101
1.42409
1.43737
1.44827
1.45543
1.46043
1.46361
1.46546
1.4662
1.46602
1.46509
1.46357
1.46163
1.45934
1.45684
1.45422
1.45148
1.44877
1.44605
1.44345
1.44086
1.4385
1.43614
1.43406
1.4319
1.43015
1.42809
1.42696
1.42526
1.42628
1.39129
1.41544
1.42943
1.44087
1.44842
1.4537
1.45711
1.45915
1.46005
1.46001
1.45922
1.45782
1.45599
1.45381
1.45142
1.44892
1.44628
1.44367
1.44105
1.43855
1.43606
1.43381
1.43155
1.42957
1.42749
1.42582
1.42381
1.42272
1.42102
1.42205
1.38161
1.40684
1.42149
1.43347
1.44141
1.44698
1.45062
1.45285
1.45391
1.45402
1.45336
1.45208
1.45036
1.44829
1.44601
1.44361
1.44108
1.43857
1.43605
1.43366
1.43128
1.42914
1.42698
1.42511
1.42313
1.42154
1.4196
1.41856
1.41687
1.41791
1.37198
1.39825
1.41355
1.42608
1.43441
1.44027
1.44414
1.44656
1.44778
1.44804
1.4475
1.44634
1.44474
1.44278
1.4406
1.43831
1.43589
1.43348
1.43106
1.42878
1.42651
1.42448
1.42245
1.42069
1.41881
1.41733
1.41546
1.41448
1.41281
1.41386
1.36243
1.38969
1.40564
1.41869
1.42742
1.43357
1.43768
1.44028
1.44167
1.44207
1.44166
1.44062
1.43913
1.43729
1.43521
1.43302
1.4307
1.42839
1.42608
1.42391
1.42176
1.41985
1.41794
1.4163
1.41454
1.41316
1.41139
1.41048
1.40884
1.40991
1.35297
1.38116
1.39776
1.41132
1.42045
1.42689
1.43124
1.43403
1.43558
1.43612
1.43584
1.43491
1.43353
1.4318
1.42983
1.42774
1.42552
1.42331
1.42112
1.41906
1.41703
1.41523
1.41345
1.41194
1.4103
1.40905
1.40739
1.40657
1.40496
1.40605
1.34361
1.37266
1.38993
1.40398
1.41351
1.42024
1.42483
1.4278
1.42951
1.43019
1.43003
1.42922
1.42795
1.42633
1.42446
1.42246
1.42035
1.41824
1.41616
1.41422
1.41231
1.41063
1.40898
1.40761
1.40611
1.405
1.40346
1.40274
1.40119
1.40229
1.33438
1.36417
1.38214
1.39668
1.4066
1.41362
1.41845
1.42161
1.42348
1.42429
1.42425
1.42355
1.42239
1.42088
1.4191
1.4172
1.41518
1.41318
1.41121
1.40938
1.4076
1.40605
1.40453
1.40331
1.40195
1.40099
1.39959
1.39899
1.39751
1.39864
1.32527
1.35555
1.37441
1.38942
1.39973
1.40705
1.41211
1.41546
1.41748
1.41842
1.41849
1.41791
1.41685
1.41544
1.41376
1.41194
1.41003
1.40814
1.40627
1.40456
1.4029
1.40149
1.4001
1.39902
1.39782
1.39703
1.39579
1.39533
1.39394
1.3951
1.31631
1.34671
1.36676
1.38221
1.39291
1.40052
1.40582
1.40935
1.41152
1.41258
1.41277
1.41229
1.41133
1.41003
1.40844
1.4067
1.40489
1.4031
1.40134
1.39975
1.39821
1.39693
1.39568
1.39476
1.39372
1.39311
1.39206
1.39176
1.39048
1.39168
1.30756
1.33848
1.3592
1.37506
1.38615
1.39405
1.39959
1.4033
1.4056
1.40679
1.40708
1.40671
1.40585
1.40463
1.40313
1.40148
1.39976
1.39807
1.39641
1.39495
1.39352
1.39238
1.39127
1.39051
1.38965
1.38923
1.38838
1.38828
1.38713
1.38838
1.29907
1.33045
1.35174
1.36799
1.37945
1.38765
1.39343
1.39731
1.39975
1.40105
1.40144
1.40117
1.40039
1.39925
1.39783
1.39627
1.39464
1.39305
1.3915
1.39015
1.38885
1.38783
1.38687
1.38627
1.38559
1.38539
1.38477
1.38489
1.38391
1.38523
1.29082
1.32256
1.3444
1.36101
1.37284
1.38133
1.38734
1.39138
1.39395
1.39537
1.39584
1.39567
1.39496
1.3939
1.39257
1.39108
1.38954
1.38805
1.38659
1.38536
1.38417
1.38329
1.38247
1.38204
1.38156
1.38158
1.38122
1.38159
1.38082
1.38224
1.28269
1.31486
1.3372
1.35412
1.36632
1.3751
1.38132
1.38552
1.38821
1.38973
1.39029
1.3902
1.38957
1.38858
1.38732
1.38591
1.38444
1.38306
1.38169
1.38057
1.3795
1.37875
1.37807
1.37781
1.37754
1.3778
1.37771
1.37839
1.37788
1.37942
1.27483
1.30737
1.33014
1.34736
1.3599
1.36896
1.37539
1.37975
1.38255
1.38416
1.3848
1.38478
1.38422
1.38329
1.3821
1.38076
1.37937
1.37808
1.3768
1.37578
1.37483
1.3742
1.37367
1.37359
1.37352
1.37403
1.37425
1.37527
1.37508
1.37679
1.26738
1.30011
1.32325
1.34074
1.3536
1.36294
1.36956
1.37407
1.37697
1.37866
1.37937
1.37941
1.37891
1.37803
1.3769
1.37563
1.37431
1.3731
1.37192
1.37099
1.37015
1.36965
1.36926
1.36935
1.36951
1.37028
1.37083
1.37224
1.37243
1.37438
1.2603
1.2931
1.31654
1.33427
1.34745
1.35704
1.36385
1.36849
1.37147
1.37323
1.374
1.3741
1.37364
1.37281
1.37174
1.37052
1.36927
1.36814
1.36703
1.3662
1.36547
1.36509
1.36485
1.36511
1.36548
1.36653
1.36744
1.36928
1.36994
1.37221
1.25366
1.28638
1.31004
1.328
1.34146
1.35129
1.35827
1.36302
1.36608
1.3679
1.36871
1.36885
1.36843
1.36764
1.3666
1.36544
1.36425
1.36319
1.36216
1.36141
1.36078
1.36051
1.36042
1.36085
1.36145
1.36277
1.36405
1.36638
1.36762
1.37035
1.24749
1.27983
1.30365
1.32182
1.33556
1.34562
1.35276
1.35761
1.36074
1.3626
1.36346
1.36362
1.36323
1.36246
1.36147
1.36036
1.35922
1.35822
1.35726
1.35659
1.35606
1.35591
1.35595
1.35656
1.35738
1.35899
1.36066
1.36352
1.36545
1.36882
1.24153
1.27312
1.29705
1.31549
1.32952
1.33982
1.34714
1.35212
1.35532
1.35723
1.35813
1.35831
1.35795
1.35722
1.35626
1.3552
1.35412
1.35318
1.3523
1.35171
1.35128
1.35125
1.35144
1.35221
1.35324
1.35514
1.35723
1.36066
1.36342
1.36771
1.23605
1.26666
1.29068
1.3093
1.32354
1.33404
1.34149
1.34658
1.34986
1.35183
1.35277
1.35298
1.35266
1.35196
1.35104
1.35003
1.34901
1.34812
1.34732
1.34681
1.34647
1.34655
1.34687
1.3478
1.34904
1.35121
1.3537
1.35772
1.36143
1.36703
1.22061
1.25101
1.27521
1.29404
1.30841
1.31904
1.32655
1.33165
1.33494
1.33691
1.33786
1.33808
1.33777
1.3371
1.33621
1.33527
1.33433
1.33353
1.33287
1.33251
1.33239
1.33271
1.33335
1.33465
1.33641
1.33924
1.34283
1.34843
1.35505
1.36536
1.1878
1.21753
1.24114
1.25949
1.27378
1.2847
1.29266
1.29827
1.30209
1.30455
1.30599
1.3067
1.30687
1.30669
1.3063
1.30586
1.30543
1.30514
1.30499
1.30515
1.30555
1.30642
1.30765
1.30958
1.31207
1.31578
1.32051
1.32758
1.3362
1.34883
1.15531
1.18363
1.2063
1.22418
1.2384
1.24954
1.25787
1.26394
1.26825
1.27121
1.27316
1.27438
1.27508
1.27543
1.27559
1.27569
1.27581
1.27607
1.27647
1.27718
1.27813
1.27956
1.28136
1.28389
1.28699
1.29135
1.29673
1.30446
1.3138
1.32739
1.12223
1.14916
1.17089
1.18832
1.20244
1.21371
1.22234
1.22881
1.23358
1.23703
1.23948
1.24122
1.24244
1.24334
1.24404
1.24469
1.24535
1.24616
1.24711
1.24837
1.24986
1.25184
1.25417
1.25723
1.26083
1.26565
1.2714
1.27942
1.28899
1.30297
1.08842
1.11411
1.13496
1.15193
1.16591
1.17727
1.18616
1.19299
1.19819
1.20212
1.20509
1.20735
1.20911
1.21056
1.21181
1.21301
1.21422
1.21557
1.21705
1.21884
1.22085
1.22333
1.22613
1.22962
1.23362
1.23875
1.2447
1.25282
1.26238
1.27648
1.05368
1.07833
1.09839
1.11492
1.12872
1.14013
1.14924
1.1564
1.16201
1.16642
1.16989
1.17269
1.17501
1.17701
1.17882
1.18057
1.18233
1.18421
1.18622
1.18851
1.19099
1.19392
1.19713
1.20098
1.20527
1.21061
1.21666
1.22477
1.23423
1.24831
1.01791
1.04168
1.06106
1.07717
1.09079
1.10224
1.11155
1.11903
1.12505
1.12992
1.1339
1.13723
1.14009
1.14265
1.14502
1.14732
1.14962
1.15202
1.15453
1.15729
1.16022
1.16355
1.16712
1.17127
1.17579
1.18127
1.18736
1.19541
1.2047
1.2187
0.981028
1.00407
1.02287
1.03861
1.05209
1.06358
1.07308
1.08087
1.08728
1.0926
1.09707
1.10093
1.10433
1.10744
1.11036
1.11321
1.11602
1.11894
1.12192
1.12514
1.12848
1.13218
1.13607
1.14048
1.14519
1.15077
1.15687
1.16482
1.17391
1.18774
0.943014
0.96545
0.98376
0.999202
1.01256
1.02409
1.03378
1.04186
1.04865
1.0544
1.05937
1.06374
1.06768
1.07134
1.07479
1.07817
1.0815
1.0849
1.08835
1.09199
1.09573
1.09977
1.10395
1.10859
1.11347
1.11914
1.12522
1.13306
1.1419
1.1555
0.903851
0.925773
0.943685
0.958877
0.972132
0.983723
0.993595
1.00196
1.00912
1.01531
1.02075
1.02563
1.03009
1.03428
1.03826
1.04215
1.04598
1.04986
1.05376
1.05781
1.06192
1.06629
1.07075
1.07561
1.08064
1.08638
1.09245
1.10014
1.1087
1.122
0.863539
0.885019
0.902606
0.917595
0.930775
0.942433
0.952495
0.961143
0.968658
0.975268
0.981171
0.986543
0.991519
0.996222
1.00072
1.00512
1.00943
1.01377
1.0181
1.02255
1.02702
1.0317
1.03643
1.0415
1.04668
1.05248
1.05852
1.06608
1.07432
1.08727
0.822084
0.843177
0.860494
0.875321
0.888449
0.900186
0.91044
0.919364
0.927228
0.934247
0.940598
0.946447
0.951919
0.957124
0.962123
0.967009
0.971797
0.976584
0.981329
0.986165
0.990982
0.995968
1.00095
1.00623
1.01155
1.01742
1.02344
1.03085
1.03878
1.05132
0.779503
0.800241
0.817331
0.832028
0.845123
0.856947
0.867394
0.876588
0.884792
0.892207
0.898992
0.905302
0.911254
0.916945
0.922428
0.927788
0.93303
0.938248
0.943397
0.948606
0.953761
0.959043
0.964284
0.969759
0.975226
0.981161
0.987162
0.994428
1.00203
1.01413
0.735803
0.756207
0.773099
0.787694
0.800769
0.812683
0.823323
0.832782
0.841315
0.849112
0.856317
0.863074
0.869487
0.875644
0.881592
0.887405
0.893083
0.898716
0.904254
0.909822
0.915303
0.920872
0.926362
0.932033
0.937644
0.943649
0.949642
0.956776
0.964062
0.975695
0.691013
0.711081
0.72779
0.742299
0.755362
0.767369
0.778198
0.787915
0.796766
0.804931
0.812539
0.819723
0.826575
0.833177
0.839567
0.845811
0.851906
0.857934
0.863843
0.869753
0.875545
0.88139
0.887117
0.892977
0.898724
0.904791
0.910771
0.917772
0.924763
0.935913
0.645144
0.664867
0.681396
0.695827
0.708884
0.720979
0.731993
0.741961
0.751117
0.759632
0.767623
0.77521
0.782478
0.789501
0.796307
0.802958
0.809445
0.815842
0.822098
0.828329
0.834416
0.840524
0.846481
0.852526
0.858418
0.864565
0.87056
0.877452
0.884159
0.89482
0.59822
0.617569
0.63391
0.648268
0.66132
0.673498
0.684688
0.694895
0.704337
0.713182
0.721535
0.7295
0.737158
0.744573
0.751766
0.758793
0.765637
0.772373
0.778948
0.785475
0.791833
0.798179
0.804341
0.810543
0.816545
0.822732
0.828706
0.835478
0.841961
0.852122
0.550252
0.569188
0.585325
0.599612
0.612656
0.624906
0.636262
0.646693
0.656401
0.665555
0.674246
0.682564
0.69058
0.698351
0.705891
0.713256
0.72042
0.727458
0.734319
0.741108
0.74771
0.754277
0.760643
0.767017
0.773163
0.779438
0.785436
0.79209
0.798288
0.807971
0.501249
0.519725
0.53564
0.54985
0.562881
0.575189
0.586696
0.597337
0.607293
0.616733
0.625734
0.634371
0.642704
0.650789
0.658635
0.666291
0.673729
0.681024
0.688121
0.695123
0.701917
0.708648
0.715146
0.721605
0.727795
0.73406
0.740027
0.746594
0.752681
0.761808
0.45122
0.469177
0.484854
0.498979
0.511986
0.524337
0.535983
0.54682
0.557001
0.566697
0.575973
0.584887
0.593494
0.601847
0.609948
0.617839
0.625494
0.632987
0.640266
0.647438
0.654399
0.661293
0.667954
0.674555
0.680853
0.687139
0.693028
0.699362
0.705151
0.713928
0.400173
0.417544
0.432977
0.447009
0.459975
0.47235
0.484118
0.495131
0.505512
0.51543
0.52494
0.534088
0.542922
0.551487
0.559781
0.56784
0.575638
0.583251
0.590622
0.597858
0.604861
0.611766
0.618424
0.625009
0.63132
0.637647
0.643622
0.649945
0.655522
0.663342
0.34819
0.364883
0.380057
0.393968
0.406859
0.419233
0.431102
0.442271
0.452821
0.462921
0.472624
0.481957
0.490956
0.499664
0.508077
0.516226
0.524089
0.531744
0.539149
0.546423
0.553479
0.560443
0.567143
0.573698
0.579859
0.585869
0.59143
0.597363
0.602968
0.610831
0.295518
0.311389
0.326232
0.339933
0.352677
0.365011
0.376955
0.388252
0.398938
0.409179
0.419022
0.42848
0.437577
0.446354
0.454797
0.462932
0.470731
0.478268
0.48551
0.492587
0.499445
0.506237
0.512866
0.519477
0.525855
0.532129
0.537839
0.543438
0.547944
0.554043
0.242841
0.257596
0.271844
0.2851
0.29755
0.309767
0.321736
0.333117
0.343887
0.35421
0.364129
0.373639
0.382751
0.391501
0.399875
0.407902
0.415562
0.42294
0.43001
0.436896
0.443522
0.449999
0.456197
0.462258
0.468034
0.473748
0.479112
0.484653
0.489819
0.496038
0.191596
0.20467
0.217686
0.229973
0.241816
0.25374
0.265604
0.276965
0.287743
0.298078
0.307999
0.317481
0.326512
0.335115
0.343266
0.350977
0.358229
0.365122
0.371691
0.378123
0.384446
0.39081
0.397087
0.403265
0.408978
0.414191
0.418559
0.422708
0.426353
0.431167
0.14398
0.154539
0.16529
0.175727
0.186358
0.197545
0.20894
0.220019
0.230634
0.240847
0.250635
0.25995
0.268776
0.277137
0.284997
0.292357
0.299178
0.305531
0.311408
0.316979
0.322303
0.327624
0.332993
0.338565
0.344175
0.349759
0.354755
0.359094
0.362097
0.365112
0.102083
0.109335
0.116749
0.124344
0.132905
0.142545
0.152747
0.163002
0.173083
0.182902
0.192346
0.201309
0.20971
0.217532
0.224742
0.231369
0.237448
0.243121
0.248445
0.253559
0.258423
0.263096
0.267482
0.2717
0.275726
0.279772
0.283611
0.287201
0.289731
0.2913
0.066737
0.0704551
0.0741611
0.0783482
0.084042
0.0910723
0.0989253
0.107277
0.115904
0.124605
0.133182
0.141466
0.149284
0.156492
0.162929
0.168543
0.17335
0.177536
0.181292
0.184928
0.188642
0.192632
0.196856
0.201178
0.205176
0.208639
0.211316
0.21326
0.213792
0.21319
0.0372328
0.0379647
0.0384967
0.039621
0.0425791
0.0465143
0.0511692
0.0565198
0.0624009
0.0686016
0.0749649
0.0813782
0.0876911
0.0937459
0.0993022
0.104141
0.108061
0.111035
0.113113
0.114621
0.115958
0.117651
0.120006
0.123069
0.126429
0.129599
0.132037
0.133542
0.132947
0.129818
0.0116639
0.010482
0.00696004
0.00596813
0.00764863
0.00902317
0.0104571
0.0122958
0.014516
0.0170199
0.0197526
0.0226839
0.0257475
0.0288848
0.0319553
0.0348242
0.0373005
0.0392807
0.0406592
0.0415236
0.0420034
0.0423969
0.0429231
0.0437778
0.0449119
0.0461928
0.0473179
0.0482424
0.0480932
0.0449735
1.19684
1.16358
1.13154
1.09878
1.06543
1.03105
0.995602
0.959035
0.921316
0.882449
0.842466
0.80134
0.75911
0.715798
0.671427
0.62603
0.579625
0.532248
0.483926
0.434724
0.384702
0.334047
0.283135
0.232677
0.183953
0.138833
0.0990175
0.0652846
0.0368593
0.0121672
1.18846
1.15532
1.12353
1.09097
1.05785
1.02366
0.988372
0.951962
0.914398
0.875681
0.83585
0.794878
0.752802
0.709653
0.665449
0.620232
0.574014
0.526841
0.478739
0.429785
0.380042
0.329705
0.279175
0.229187
0.181037
0.136594
0.0975106
0.0644916
0.0365968
0.0122413
1.17997
1.14733
1.11577
1.0834
1.05049
1.01649
0.981368
0.945112
0.907706
0.869145
0.829466
0.788651
0.746736
0.70376
0.659726
0.614692
0.568665
0.521697
0.473813
0.425102
0.375633
0.325607
0.275446
0.225902
0.178273
0.134409
0.0959428
0.0635837
0.0362526
0.0122466
1.17145
1.13946
1.10817
1.07598
1.04326
1.00944
0.974487
0.938382
0.901123
0.86271
0.823178
0.782515
0.740758
0.69795
0.654085
0.60923
0.563393
0.516627
0.468958
0.420483
0.371283
0.32156
0.271754
0.222644
0.175543
0.132286
0.0944631
0.0627473
0.035937
0.0122331
1.16302
1.13175
1.10076
1.06875
1.0362
1.00255
0.967752
0.931795
0.894674
0.856397
0.817004
0.776491
0.734883
0.692237
0.648538
0.603857
0.558205
0.511636
0.464179
0.415933
0.366998
0.317575
0.268119
0.21944
0.17287
0.130226
0.0930602
0.0619825
0.0356604
0.0122135
1.15471
1.12419
1.09353
1.06171
1.02932
0.995824
0.961167
0.925346
0.888357
0.850209
0.810948
0.770577
0.729111
0.686619
0.643084
0.598572
0.5531
0.506721
0.459473
0.411453
0.362775
0.313648
0.264542
0.216299
0.170261
0.128237
0.0917331
0.0612769
0.0354159
0.0121782
1.14656
1.11678
1.08646
1.05484
1.02259
0.989254
0.954732
0.919037
0.882173
0.84415
0.805014
0.764775
0.723447
0.6811
0.637725
0.593375
0.548077
0.501883
0.454842
0.407043
0.35862
0.309786
0.261033
0.213232
0.16773
0.126328
0.0904853
0.0606295
0.0352023
0.0121322
1.13857
1.1095
1.07956
1.04814
1.01604
0.982839
0.948447
0.91287
0.876126
0.838222
0.799204
0.759088
0.717893
0.675686
0.632462
0.588267
0.543139
0.497125
0.450286
0.402703
0.35453
0.30599
0.257595
0.210243
0.165281
0.124504
0.0893169
0.0600404
0.0350186
0.012078
1.13076
1.10237
1.0728
1.04162
1.00965
0.976578
0.94231
0.906848
0.870219
0.832426
0.79352
0.753521
0.712456
0.67038
0.627299
0.583251
0.538288
0.49245
0.445805
0.398433
0.350506
0.302258
0.254222
0.207325
0.16291
0.122761
0.0882239
0.0595065
0.0348615
0.0120173
1.12315
1.0954
1.0662
1.03526
1.00342
0.970474
0.936325
0.900973
0.864453
0.826762
0.787964
0.748078
0.707137
0.665184
0.622237
0.578331
0.533528
0.487859
0.441398
0.394232
0.346544
0.298586
0.25091
0.20447
0.16061
0.121095
0.0872016
0.0590239
0.0347275
0.0119517
1.11575
1.0886
1.05976
1.02906
0.997363
0.964529
0.930492
0.895243
0.858826
0.821232
0.782538
0.742761
0.701936
0.6601
0.617281
0.573512
0.52886
0.483353
0.437068
0.390102
0.342648
0.294975
0.247657
0.201678
0.158382
0.119505
0.0862478
0.0585889
0.0346143
0.0118828
1.10856
1.08196
1.05348
1.02302
0.991468
0.958744
0.924813
0.889657
0.853338
0.815838
0.777244
0.737569
0.696854
0.655129
0.612432
0.568796
0.524287
0.478935
0.43282
0.386049
0.338823
0.291432
0.244473
0.198956
0.156231
0.117991
0.0853609
0.0581992
0.0345203
0.0118126
1.10159
1.0755
1.04736
1.01715
0.985737
0.95312
0.919289
0.884219
0.847991
0.810582
0.772081
0.732503
0.691891
0.650273
0.607693
0.564186
0.519811
0.474608
0.428659
0.38208
0.335078
0.287966
0.241367
0.196315
0.154164
0.116558
0.0845407
0.0578529
0.0344483
0.0117425
1.09484
1.06922
1.0414
1.01144
0.980175
0.947658
0.913922
0.878933
0.842789
0.805466
0.76705
0.727562
0.687047
0.645534
0.603067
0.559682
0.515433
0.470374
0.424589
0.3782
0.33142
0.284586
0.238348
0.193763
0.152184
0.115207
0.0837863
0.0575476
0.0343894
0.0116735
1.08833
1.06314
1.03563
1.0059
0.974783
0.942362
0.908715
0.873803
0.837735
0.800493
0.762154
0.722748
0.682325
0.640913
0.598552
0.555283
0.511156
0.466235
0.420611
0.374408
0.327847
0.281293
0.235417
0.1913
0.150292
0.113934
0.0830948
0.05728
0.0343412
0.0116063
1.08206
1.05726
1.03004
1.00053
0.969563
0.937236
0.903672
0.868834
0.832834
0.795663
0.757393
0.718063
0.677727
0.63641
0.594147
0.550988
0.506978
0.462189
0.416721
0.370699
0.324356
0.278081
0.232569
0.188924
0.148485
0.112737
0.0824621
0.0570467
0.0343035
0.0115418
1.07603
1.0516
1.02463
0.995337
0.964518
0.932282
0.898796
0.864026
0.828086
0.790978
0.752772
0.713512
0.673256
0.632026
0.589854
0.546795
0.502898
0.458235
0.412916
0.367067
0.32094
0.274945
0.229799
0.186627
0.146757
0.111612
0.0818843
0.0568442
0.0342744
0.0114805
1.07025
1.04614
1.01942
0.990326
0.959648
0.927501
0.894087
0.859379
0.823493
0.786441
0.748293
0.709096
0.668912
0.62776
0.585672
0.542708
0.498918
0.454372
0.409193
0.363512
0.317596
0.271882
0.227103
0.184406
0.145105
0.110554
0.081358
0.0566698
0.0342523
0.0114231
1.06473
1.04091
1.01442
0.9855
0.954957
0.922895
0.889547
0.854894
0.819056
0.782053
0.743959
0.704818
0.664698
0.623616
0.581606
0.538729
0.49504
0.450603
0.405555
0.360035
0.314328
0.268893
0.224482
0.182262
0.143528
0.109563
0.0808807
0.0565214
0.0342358
0.01137
1.05948
1.03592
1.00962
0.980864
0.950448
0.918464
0.885176
0.850571
0.814778
0.777817
0.739774
0.700682
0.660617
0.619597
0.57766
0.534864
0.491268
0.446933
0.402008
0.356644
0.31114
0.265983
0.22194
0.180196
0.142028
0.108637
0.0804506
0.056397
0.0342236
0.0113218
1.05449
1.03115
1.00503
0.976425
0.946123
0.91421
0.880976
0.846413
0.81066
0.773736
0.735737
0.696687
0.656672
0.615708
0.573839
0.531116
0.487605
0.443368
0.398559
0.353347
0.30804
0.263157
0.219482
0.178213
0.140605
0.107777
0.0800654
0.0562945
0.0342145
0.0112787
1.04979
1.02664
1.00066
0.972185
0.941986
0.910134
0.876949
0.842421
0.806703
0.769809
0.731849
0.692836
0.652864
0.611952
0.570144
0.527488
0.484055
0.43991
0.395211
0.350147
0.305031
0.260418
0.217109
0.176313
0.139259
0.10698
0.0797222
0.0562118
0.0342075
0.0112409
1.04536
1.02237
0.996523
0.968148
0.938039
0.906239
0.873096
0.838596
0.802908
0.766038
0.72811
0.68913
0.649197
0.60833
0.566577
0.523979
0.480617
0.43656
0.391966
0.347044
0.302113
0.257764
0.214822
0.174494
0.137988
0.106243
0.0794175
0.0561465
0.0342018
0.0112086
1.04123
1.01835
0.99261
0.964317
0.934285
0.902528
0.869419
0.83494
0.799275
0.762422
0.724521
0.68557
0.645671
0.604843
0.563134
0.520589
0.477291
0.433315
0.388819
0.344032
0.299282
0.255193
0.212615
0.172751
0.136786
0.105561
0.0791476
0.0560981
0.034197
0.011182
1.03739
1.01459
0.98893
0.960698
0.930729
0.899003
0.865921
0.831455
0.795806
0.758965
0.721084
0.682157
0.642286
0.601489
0.559817
0.517315
0.474073
0.430171
0.385766
0.341105
0.29653
0.252698
0.210484
0.171082
0.135649
0.104931
0.0789091
0.056061
0.0341928
0.0111611
1.03384
1.01109
0.985487
0.957293
0.927374
0.895668
0.862605
0.828144
0.792504
0.75567
0.717802
0.678894
0.639042
0.598269
0.556623
0.514157
0.470962
0.427124
0.382801
0.338258
0.293855
0.250276
0.208426
0.16948
0.134573
0.104348
0.0786996
0.0560351
0.0341893
0.0111474
1.03059
1.00784
0.982283
0.954108
0.924223
0.892527
0.859474
0.825011
0.789374
0.752541
0.71468
0.675783
0.635941
0.595183
0.553554
0.511116
0.467959
0.424173
0.379922
0.335489
0.291255
0.247926
0.206437
0.167944
0.133555
0.103811
0.0785173
0.0560194
0.0341861
0.0111372
1.02765
1.00486
0.979324
0.951145
0.921281
0.889584
0.856533
0.822062
0.78642
0.749583
0.711721
0.672828
0.632987
0.592234