/*--------------------------------*- C++ -*----------------------------------*\
  =========                 |
  \\      /  F ield         | OpenFOAM: The Open Source CFD Toolbox
   \\    /   O peration     | Website:  https://openfoam.org
    \\  /    A nd           | Version:  7
     \\/     M anipulation  |
\*---------------------------------------------------------------------------*/
FoamFile
{
    version     2.0;
    format      ascii;
    class       surfaceScalarField;
    location    "3.1";
    object      phi;
}
// * * * * * * * * * * * * * * * * * * * * * * * * * * * * * * * * * * * * * //

dimensions      [0 3 -1 0 0 0 0];

internalField   nonuniform List<scalar> 
35640
(
-4.99774e-05
0.00128536
-0.00123539
-0.000162942
0.00327696
-0.00316399
-0.000320223
0.00488153
-0.00472425
-0.000505227
0.00611386
-0.00592886
-0.000703104
0.007031
-0.00683312
-0.00090079
0.00769261
-0.00749493
-0.00108718
0.00814923
-0.00796284
-0.00125306
0.00843899
-0.0082731
-0.00139106
0.00858925
-0.00845126
-0.0014952
0.00861936
-0.00851522
-0.00156075
0.00854391
-0.00847836
-0.00158407
0.00837495
-0.00835163
-0.00156234
0.00812362
-0.00814535
-0.00149352
0.00780108
-0.00786991
-0.00137636
0.00741885
-0.00753601
-0.00121033
0.00698865
-0.00715468
-0.000995645
0.00652256
-0.00673724
-0.000733277
0.00603252
-0.00629489
-0.000424919
0.00553014
-0.0058385
-7.29483e-05
0.0050264
-0.00537837
0.000319608
0.0045314
-0.00492396
0.000749197
0.00405406
-0.00448365
0.00121181
0.00360206
-0.00406468
0.00170311
0.00318171
-0.00367301
0.00221853
0.002798
-0.00331341
0.00275337
0.0024548
-0.00298964
0.00330279
0.0021553
-0.00270472
0.00386162
0.00190254
-0.00246138
0.004424
0.00170353
-0.00226591
0.00157322
0.00498188
-0.0021311
-4.31103e-05
0.00132848
-0.000142285
0.00337613
-0.000282026
0.00502127
-0.000448084
0.00627992
-0.000626897
0.00720981
-0.000806113
0.00787183
-0.000974945
0.00831806
-0.00112424
0.00858829
-0.00124647
0.00871149
-0.0013356
0.00870849
-0.00138679
0.0085951
-0.00139622
0.00838438
-0.00136099
0.00808838
-0.00127894
0.00771904
-0.00114873
0.00728863
-0.000969763
0.00680968
-0.00074223
0.00629503
-0.000467078
0.00575737
-0.000146038
0.0052091
0.000218447
0.00466192
0.000623271
0.00412658
0.00106477
0.00361256
0.00153882
0.003128
0.00204099
0.00267954
0.00256662
0.00227237
0.00311095
0.00191046
0.0036692
0.00159705
0.0042364
0.00133534
0.00480703
0.0011329
0.00100683
0.00537342
-3.57083e-05
0.00136418
-0.000119564
0.00345998
-0.000239585
0.00514129
-0.000384048
0.00642438
-0.000540815
0.00736658
-0.000698339
0.00802935
-0.00084614
0.00846586
-0.00097521
0.00871736
-0.00107802
0.00881429
-0.00114845
0.00877892
-0.00118157
0.00862822
-0.0011735
0.00837631
-0.00112124
0.00803613
-0.00102262
0.00762041
-0.00087625
0.00714226
-0.000681549
0.00661498
-0.000438701
0.00605218
-0.000148708
0.00546738
0.000186631
0.00487376
0.000564795
0.00428375
0.000982602
0.00370877
0.00143628
0.00315888
0.0019216
0.00264269
0.002434
0.00216713
0.00296878
0.0017376
0.00352116
0.00135808
0.00408645
0.00103176
0.00465991
0.000761882
0.00523647
0.000556346
0.000434275
0.00580902
-2.77973e-05
0.00139198
-9.51829e-05
0.00352737
-0.000193776
0.00523989
-0.000314249
0.00654486
-0.000446098
0.00749843
-0.000578719
0.00816198
-0.000702069
0.00858921
-0.000807335
0.00882262
-0.000887041
0.008894
-0.000935041
0.00882692
-0.000946372
0.00863955
-0.000917121
0.00834706
-0.000844311
0.00796332
-0.00072577
0.00750187
-0.000560137
0.00697663
-0.000346894
0.00640173
-8.6305e-05
0.00579159
0.000220552
0.00516052
0.000571796
0.00452252
0.000964801
0.00389075
0.00139627
0.0032773
0.00186233
0.00269282
0.00235866
0.00214635
0.00288064
0.00164516
0.0034235
0.00119473
0.00398249
0.000799091
0.00455302
0.000461235
0.0051306
0.000184299
0.00571069
-2.37397e-05
-0.000141987
0.00628695
-1.97091e-05
0.00141169
-6.96264e-05
0.00357729
-0.000145185
0.00531544
-0.000239543
0.00663922
-0.000343882
0.00760277
-0.000448593
0.00826669
-0.000544226
0.00868484
-0.000622237
0.00890064
-0.000675247
0.00894701
-0.000697151
0.00884883
-0.000683043
0.00862544
-0.000629044
0.00829306
-0.000532193
0.00786647
-0.000390423
0.0073601
-0.000202495
0.0067887
3.20244e-05
0.00616721
0.000312756
0.00551085
0.000638481
0.00483479
0.00100719
0.00415381
0.00141613
0.0034818
0.00186191
0.00283151
0.00234055
0.00221418
0.00284765
0.00163926
0.00337852
0.00111428
0.00392839
0.000644866
0.00449255
0.000234934
0.00506651
-0.000112723
0.0056461
-0.000395299
0.00622735
-0.000604988
-0.00071947
0.00680483
-1.14119e-05
0.0014231
-4.33103e-05
0.00360919
-9.46754e-05
0.00536681
-0.000161145
0.00670569
-0.000235664
0.00767729
-0.000309763
0.00834079
-0.000374631
0.00874971
-0.000422078
0.00894808
-0.000444952
0.00896989
-0.000437267
0.00884114
-0.000394187
0.00858236
-0.000311932
0.00821081
-0.000187682
0.00774222
-1.95189e-05
0.00719194
0.000193657
0.00657552
0.000452117
0.00590875
0.000755287
0.00520768
0.00110178
0.0044883
0.00148944
0.00376615
0.00191538
0.00305586
0.00237607
0.00237082
0.00286744
0.00172281
0.00338502
0.00112168
0.0039241
0.000575205
0.0044799
8.90623e-05
0.00504779
-0.000332957
0.00562343
-0.000688365
0.00620298
-0.000974845
0.00678308
-0.00118508
-0.00129597
0.00735958
-3.22343e-06
0.00142633
-1.67459e-05
0.00362271
-4.30723e-05
0.00539314
-8.02889e-05
0.0067429
-0.000123079
0.00772008
-0.000164143
0.00838185
-0.000195479
0.00878105
-0.000209365
0.00896197
-0.00019891
0.00895943
-0.000158331
0.00880057
-8.29662e-05
0.008507
3.08006e-05
0.00809704
0.000185606
0.00758741
0.000383164
0.00699438
0.000624355
0.00633433
0.000909223
0.00562388
0.00123698
0.00487993
0.00160602
0.00411926
0.00201401
0.00335816
0.00245791
0.00261196
0.00293405
0.00189468
0.00343825
0.0012186
0.00396601
0.000593931
0.00451259
2.86169e-05
0.00507328
-0.000471627
0.00564351
-0.000903183
0.00621913
-0.00126398
0.00679658
-0.0015523
0.00737313
-0.00176163
-0.0018686
0.00794576
4.92129e-06
0.0014214
9.59232e-06
0.00361804
8.67439e-06
0.00539405
1.66762e-06
0.00674991
-7.8757e-06
0.00772962
-1.39269e-05
0.0083879
-9.34991e-06
0.00877647
1.3019e-05
0.0089396
5.96744e-05
0.00891278
0.000136115
0.00872413
0.000246779
0.00839634
0.000395041
0.00794878
0.000583277
0.00739918
0.000812945
0.00676471
0.00108467
0.00606261
0.00139819
0.00531036
0.00175247
0.00452565
0.00214567
0.00372606
0.00257524
0.00292859
0.00303794
0.00214926
0.00352996
0.00140266
0.00404705
0.000701516
0.00458464
5.63403e-05
0.00513803
-0.000524773
0.00570256
-0.00103616
0.00627378
-0.00147441
0.00684776
-0.00183796
0.00742124
-0.00212578
0.00799204
-0.00233243
-0.00243491
0.00855835
1.26198e-05
0.00140878
3.51791e-05
0.00359548
5.96269e-05
0.00536961
8.32952e-05
0.00672624
0.000108017
0.0077049
0.000138508
0.00835741
0.000180944
0.00873404
0.000241818
0.00887873
0.000327139
0.00882746
0.000442035
0.00860923
0.000590629
0.00824774
0.000775989
0.00776342
0.00100018
0.00717499
0.00126435
0.00650054
0.00156879
0.00575817
0.00191293
0.00496621
0.00229543
0.00414316
0.00271417
0.00330731
0.00316637
0.00247639
0.00364857
0.00166705
0.00415681
0.000894413
0.00468675
0.000171578
0.0052338
-0.000490705
0.00579328
-0.00108425
0.00636063
-0.00160351
0.00693158
-0.00204537
0.00750242
-0.0024088
0.00807022
-0.00269358
0.00863333
-0.00289555
-0.00299277
0.0091912
1.98066e-05
0.00138898
5.95212e-05
0.00355576
0.000108836
0.00532029
0.000163138
0.00667194
0.000222613
0.00764543
0.000290645
0.00828938
0.000372374
0.00865231
0.000473512
0.00877759
0.00059948
0.00870149
0.000754956
0.00845375
0.000943667
0.00805903
0.0011683
0.00753879
0.00143054
0.00691274
0.0017312
0.00619988
0.00207019
0.00541918
0.00244658
0.00458982
0.00285869
0.00373105
0.00330412
0.00286189
0.00377979
0.00200073
0.00428202
0.00116482
0.00480671
0.000369731
0.00534938
-0.000371102
0.00590544
-0.00104677
0.00647028
-0.00164909
0.00703946
-0.00217268
0.00760893
-0.00261484
0.00817524
-0.0029751
0.0087358
-0.00325415
0.00928951
-0.00344926
-0.00354025
0.00983699
2.6339e-05
0.00136264
8.21571e-05
0.00349995
0.000155386
0.00524706
0.000239757
0.00658757
0.000333917
0.00755127
0.000439915
0.00818339
0.000561793
0.00853043
0.000704393
0.00863499
0.000872458
0.00853342
0.00107011
0.0082561
0.0013006
0.00782854
0.00156618
0.00727322
0.00186813
0.00661079
0.00220684
0.00586118
0.0025818
0.00504422
0.00299172
0.0041799
0.00343454
0.00328822
0.00390753
0.0023889
0.00440729
0.00150097
0.00492992
0.000642189
0.0054711
-0.000171458
0.0060263
-0.000926303
0.00659089
-0.00161135
0.00716032
-0.00221852
0.00773035
-0.00274271
0.00829717
-0.00318167
0.00885767
-0.00353559
0.00940962
-0.0038061
0.0099524
-0.00399204
-0.00407561
0.0104878
3.2092e-05
0.00133055
0.000102669
0.00342937
0.00019844
0.00515129
0.000311796
0.00647421
0.000439991
0.00742307
0.000583777
0.0080396
0.000746056
0.00836815
0.000930715
0.00845033
0.00114173
0.00832241
0.00138259
0.00801524
0.00165598
0.00755515
0.00196367
0.00696553
0.00230647
0.00626798
0.00268433
0.00548332
0.0030963
0.00463224
0.00354067
0.00373553
0.00401499
0.00281391
0.00451613
0.00188776
0.00504039
0.00097671
0.00558358
9.89958e-05
0.0061412
-0.000729084
0.00670859
-0.00149369
0.00728112
-0.00218387
0.00785434
-0.00279175
0.00842423
-0.0033126
0.00898729
-0.00374474
0.00954079
-0.00408908
0.0100829
-0.00434821
0.0106135
-0.00452262
-0.00459741
0.0111353
3.6965e-05
0.00129358
0.000120704
0.00334563
0.000237256
0.00503474
0.000378021
0.00633345
0.00053904
0.00726205
0.000719831
0.00785881
0.000922132
0.00816585
0.00114882
0.00822364
0.00140302
0.00806821
0.00168752
0.00773074
0.00200438
0.00723829
0.00235481
0.00661509
0.00273915
0.00588364
0.00315683
0.00506564
0.00360645
0.00418262
0.00408585
0.00325613
0.00459214
0.00230761
0.0051218
0.00135811
0.00567074
0.000427769
0.00623448
-0.000464747
0.00680829
-0.0013029
0.0073874
-0.0020728
0.00796718
-0.00276364
0.00854332
-0.00336789
0.00911205
-0.00388134
0.00967026
-0.00430295
0.0102156
-0.00463446
0.0107468
-0.0048794
0.0112642
-0.00503997
-0.00510456
0.0117713
4.08836e-05
0.0012527
0.000135986
0.00325053
0.000271231
0.0048995
0.000437385
0.0061673
0.000629492
0.00706995
0.000845919
0.00764238
0.00108725
0.00792452
0.00135532
0.00795558
0.00165234
0.00777119
0.00198034
0.00740275
0.00234068
0.00687794
0.00273401
0.00622176
0.0031601
0.00545755
0.00361788
0.00460786
0.00410545
0.00369505
0.00462016
0.00274143
0.00515864
0.00176913
0.00571692
0.000799829
0.00629051
-0.000145814
0.00687457
-0.00104881
0.00746415
-0.00189247
0.00805433
-0.00266299
0.00864052
-0.00334983
0.00921859
-0.00394596
0.00978509
-0.00444784
0.0103373
-0.00485521
0.0108735
-0.00517065
0.0113929
-0.00539872
0.0118961
-0.00554324
-0.00559622
0.0123878
4.38037e-05
0.0012089
0.000148331
0.003146
0.000299923
0.0047479
0.000489079
0.00597814
0.000710075
0.00684895
0.00096024
0.00739222
0.00123905
0.00764571
0.00154727
0.00764735
0.0018862
0.00743226
0.002257
0.00703195
0.00266037
0.00647458
0.0030963
0.00578583
0.00356398
0.00498986
0.0040618
0.00411004
0.00458732
0.00316953
0.00513736
0.00219139
0.00570801
0.00119847
0.00629479
0.000213052
0.00689274
-0.000743768
0.00749666
-0.00165274
0.00810132
-0.00249713
0.00870171
-0.00326338
0.00929328
-0.0039414
0.00987214
-0.00452482
0.0104352
-0.00501093
0.0109804
-0.00540036
0.0115063
-0.00569662
0.0120129
-0.0059053
0.0125015
-0.00603178
-0.0060718
0.012977
4.5715e-05
0.00116318
0.000157655
0.00303406
0.000323081
0.00458248
0.00053258
0.00576864
0.000779897
0.00660163
0.00106146
0.00711065
0.0013757
0.00733147
0.00172237
0.00730068
0.00210179
0.00705284
0.00251428
0.00661945
0.00295979
0.00602906
0.00343767
0.00530796
0.00394648
0.00448104
0.00448402
0.0035725
0.00504726
0.00260629
0.00563241
0.00160624
0.00623497
0.000595913
0.00684986
-0.000401842
0.00747162
-0.00136553
0.00809463
-0.00227574
0.0087134
-0.0031159
0.00932283
-0.00387281
0.00991849
-0.00453706
0.0104968
-0.00510313
0.0110552
-0.00556929
0.011592
-0.00593719
0.0121067
-0.00621134
0.0125998
-0.00639835
0.013073
-0.00650506
-0.00653095
0.0135322
4.66405e-05
0.00111654
0.000163984
0.00291672
0.000340662
0.0044058
0.000567685
0.00554162
0.000838504
0.00633082
0.0011488
0.00680035
0.00149608
0.00698419
0.00187909
0.00691767
0.00229722
0.00663472
0.00274993
0.00616674
0.00323643
0.00554256
0.00375536
0.00478904
0.00430463
0.00393177
0.00488137
0.00299576
0.0054819
0.00200576
0.00610173
0.000986412
0.00673567
-3.80248e-05
0.00737798
-0.00104415
0.00802263
-0.00201018
0.00866357
-0.00291668
0.00929507
-0.0037474
0.009912
-0.00448975
0.0105101
-0.0051352
0.0110863
-0.00567929
0.0116385
-0.00612144
0.0121657
-0.00646443
0.0126682
-0.00671382
0.013147
-0.00687721
0.0136047
-0.00696278
-0.00697362
0.0140474
4.6637e-05
0.0010699
0.000167453
0.0027959
0.000352842
0.00422041
0.000594537
0.00529992
0.000885926
0.00603943
0.00122212
0.00646415
0.00159981
0.00660651
0.00201684
0.00650065
0.00247168
0.00617988
0.00296296
0.00567545
0.00348912
0.0050164
0.00404806
0.0042301
0.00463697
0.00334286
0.00525226
0.00238047
0.00588945
0.00136857
0.00654326
0.000332598
0.00720772
-0.000702477
0.00787634
-0.00171278
0.0085425
-0.00267634
0.00919973
-0.00357391
0.0098421
-0.00438977
0.0104646
-0.00511223
0.0110632
-0.00573385
0.0116354
-0.00625146
0.0121797
-0.00666575
0.012696
-0.00698075
0.0131853
-0.00720309
0.0136494
-0.00734133
0.0140915
-0.00740482
-0.00740006
0.0145179
4.57945e-05
0.00102411
0.000168305
0.00267339
0.000360016
0.0040287
0.000613634
0.00504631
0.000922706
0.00573035
0.00128196
0.0061049
0.00168739
0.00620107
0.00213604
0.006052
0.00262553
0.00569039
0.00315368
0.00514729
0.00371813
0.00445196
0.00431599
0.00363225
0.00494365
0.00271519
0.00559667
0.00172746
0.00626966
0.000695576
0.00695642
-0.000354166
0.00765008
-0.00139613
0.00834339
-0.00240608
0.00902909
-0.00336204
0.00970037
-0.00424519
0.0103512
-0.00504063
0.0109768
-0.00573781
0.0115736
-0.00633069
0.0121397
-0.00681753
0.0126744
-0.00720047
0.0131785
-0.00748482
0.0136537
-0.00767828
0.0141026
-0.00779029
0.0145291
-0.00783123
-0.00781074
0.0149397
4.42344e-05
0.000979875
0.000166889
0.00255074
0.000362786
0.0038328
0.00062582
0.00478327
0.000949887
0.00540629
0.00132951
0.00572529
0.00176015
0.00577042
0.00223814
0.00557401
0.00276033
0.0051682
0.00332374
0.00458389
0.00392516
0.00385054
0.00456085
0.00299655
0.00522629
0.00204975
0.00591602
0.00103773
0.00662361
-1.20189e-05
0.00734182
-0.00107237
0.00806279
-0.0021171
0.00877847
-0.00312177
0.00948107
-0.00406464
0.0101635
-0.00492763
0.0108199
-0.00569699
0.0114457
-0.00636361
0.012038
-0.00692306
0.0125957
-0.00737523
0.0131191
-0.0077238
0.0136096
-0.00797534
0.0140699
-0.00813863
0.0145035
-0.00822387
0.0149145
-0.00824226
-0.00820627
0.0153101
4.21056e-05
0.00093777
0.000163643
0.0024292
0.000361947
0.0036345
0.000632252
0.00451297
0.00096898
0.00506956
0.00136661
0.00532765
0.00182024
0.00531679
0.00232557
0.00506868
0.00287874
0.00461503
0.00347597
0.00398666
0.00411317
0.00321334
0.00478562
0.0023241
0.00548772
0.00134766
0.00621283
0.000312619
0.00695335
-0.000752538
0.00770086
-0.00181988
0.00844651
-0.00286275
0.00918149
-0.00385675
0.00989758
-0.00478072
0.0105876
-0.00561767
0.011246
-0.00635533
0.0118687
-0.00698633
0.0124537
-0.00750808
0.0130007
-0.00792223
0.0135109
-0.00823399
0.0139868
-0.00845122
0.0144318
-0.00858364
0.01485
-0.00864211
0.0152462
-0.00863844
-0.00858731
0.0156273
3.95793e-05
0.000898191
0.000159081
0.0023097
0.000358444
0.00343514
0.000634353
0.00423706
0.000981889
0.00472202
0.00139565
0.0049139
0.00187047
0.00484198
0.00240154
0.00453761
0.00298432
0.00403225
0.00361419
0.00335679
0.00428608
0.00254145
0.00499415
0.00161604
0.00573152
0.000610282
0.00649024
-0.000446104
0.00726137
-0.00152366
0.00803526
-0.00259378
0.00880212
-0.0036296
0.00955248
-0.00460711
0.0102779
-0.00550613
0.0109713
-0.00631113
0.0116277
-0.0070117
0.0122438
-0.00760247
0.0128186
-0.00808283
0.0133526
-0.00845627
0.0138481
-0.00872951
0.0143085
-0.0089116
0.014738
-0.00901308
0.0151412
-0.00904533
0.0155234
-0.00902067
-0.00895594
0.015892
3.68422e-05
0.000861349
0.000153771
0.00219277
0.000353337
0.00323557
0.000633737
0.00395666
0.00099081
0.00436495
0.00141939
0.00448531
0.00191416
0.00434721
0.00246986
0.00398191
0.00308126
0.00342085
0.00374281
0.00269523
0.00444834
0.00183591
0.00519069
0.000873685
0.00596155
-0.000160574
0.00675146
-0.00123601
0.00755005
-0.00232226
0.00834653
-0.00339025
0.00913021
-0.00441328
0.00989122
-0.00536812
0.0106211
-0.00623602
0.0113133
-0.00700337
0.0119635
-0.00766187
0.0125695
-0.00820842
0.0131311
-0.00864448
0.0136502
-0.00897533
0.0141298
-0.00920913
0.0145742
-0.00935596
0.0149881
-0.009427
0.0153768
-0.00943403
0.0157458
-0.00938963
-0.0093124
0.0161022
3.40897e-05
0.000827259
0.000148306
0.00207855
0.000347744
0.00303613
0.000632124
0.00367228
0.000998107
0.00399897
0.00144084
0.00404258
0.00195491
0.00383315
0.00253461
0.0034022
0.00317396
0.0027815
0.00386639
0.0020028
0.00460441
0.00109789
0.00537936
9.87369e-05
0.0061813
-0.000962512
0.00699918
-0.00205389
0.00782122
-0.0031443
0.00863552
-0.00420456
0.00943079
-0.00520855
0.010197
-0.00613434
0.0109261
-0.00696509
0.0116122
-0.00768946
0.0122519
-0.00830162
0.0128443
-0.00880078
0.0133903
-0.00919053
0.0138928
-0.00947784
0.0143558
-0.00967212
0.0147841
-0.00978427
0.015183
-0.00982592
0.015558
-0.00980902
0.0159147
-0.00974634
-0.00965815
0.0162605
3.15164e-05
0.000795743
0.000143275
0.00196679
0.000342782
0.00283663
0.000631248
0.00338381
0.00100616
0.00362405
0.00146302
0.00358572
0.00199629
0.00329988
0.00259979
0.0027987
0.00326668
0.00211461
0.00398917
0.00128031
0.00475826
0.000328798
0.00556358
-0.000706585
0.00639344
-0.00179238
0.00723517
-0.00289561
0.00807568
-0.0039848
0.0089022
-0.00503108
0.00970311
-0.00600945
0.0104686
-0.00689984
0.0111913
-0.00768776
0.0118663
-0.00836452
0.0124916
-0.0089269
0.0130674
-0.00937653
0.0135958
-0.00971899
0.0140807
-0.00996277
0.0145269
-0.0101183
0.0149397
-0.010197
0.0153246
-0.0102108
0.015687
-0.0101715
0.0160326
-0.0100919
-0.00999376
0.0163682
2.93076e-05
0.000766435
0.000139238
0.00185686
0.000339517
0.00263635
0.000632758
0.00309057
0.00101724
0.00323957
0.00148875
0.00311421
0.0020416
0.00274703
0.00266901
0.00217128
0.00336309
0.00142053
0.00411463
0.000528779
0.00491289
-0.000469471
0.00574566
-0.00153935
0.00659943
-0.00264615
0.00745998
-0.00375617
0.00831312
-0.00483794
0.00914553
-0.0058635
0.00994565
-0.00680957
0.0107043
-0.00765848
0.0114151
-0.00839853
0.0120745
-0.00902391
0.0126817
-0.00953415
0.0132384
-0.00993321
0.0137479
-0.0102285
0.0142149
-0.0104298
0.0146448
-0.0105482
0.0150432
-0.0105954
0.0154156
-0.0105832
0.0157672
-0.010523
0.016103
-0.0104277
-0.0103203
0.0164295
2.76292e-05
0.000738806
0.000136695
0.0017478
0.0003389
0.00243414
0.000638119
0.00279135
0.00103331
0.00284438
0.00152048
0.00262705
0.00209362
0.00217388
0.00274518
0.00151973
0.00346599
0.000699727
0.00424516
-0.000250398
0.00507009
-0.00129439
0.00592657
-0.00239583
0.00679935
-0.00351893
0.00767285
-0.00462967
0.00853209
-0.00569718
0.00936363
-0.00669503
0.0101564
-0.00760231
0.0109021
-0.00840422
0.0115958
-0.00909221
0.0122354
-0.00966354
0.0128217
-0.0101204
0.0133576
-0.0104691
0.0138475
-0.0107184
0.014297
-0.0108793
0.0147118
-0.010963
0.0150976
-0.0109813
0.0154597
-0.0109452
0.0158025
-0.0108659
0.0161304
-0.0107555
-0.0106382
0.0164483
2.66183e-05
0.000712187
0.000136063
0.00163835
0.000341721
0.00222848
0.000648536
0.00248454
0.00105599
0.00243693
0.00156011
0.00212293
0.0021544
0.00157959
0.00283026
0.000843865
0.003577
-4.70142e-05
0.00438186
-0.00105526
0.00523018
-0.00214271
0.00610581
-0.00327147
0.00699191
-0.00440502
0.00787184
-0.0055096
0.00873024
-0.00655559
0.00955399
-0.00751878
0.0103329
-0.00838121
0.0110601
-0.00913142
0.0117321
-0.00976423
0.0123486
-0.01028
0.0129117
-0.0106836
0.0134258
-0.0109831
0.0138962
-0.0111889
0.0143292
-0.0113122
0.0147308
-0.0113646
0.0151066
-0.0113571
0.0154613
-0.0112999
0.0157982
-0.0112028
0.0161202
-0.0110775
-0.0109466
0.0164286
2.63788e-05
0.000685809
0.000137656
0.00152707
0.000348573
0.00201756
0.000664888
0.00216822
0.00108639
0.00201543
0.00160888
0.00160043
0.00222512
0.000963353
0.00292517
0.000143814
0.00369656
-0.000818407
0.00452447
-0.00188317
0.00539214
-0.00301038
0.00628161
-0.00416093
0.00717469
-0.00529811
0.00805413
-0.00638903
0.00890465
-0.00740611
0.00971391
-0.00832804
0.010473
-0.0091403
0.0111767
-0.0098351
0.0118232
-0.0104108
0.0124139
-0.0108707
0.0129525
-0.0112221
0.0134443
-0.0114749
0.0138958
-0.0116404
0.0143139
-0.0117303
0.0147049
-0.0117557
0.0150745
-0.0117267
0.0154265
-0.0116518
0.0157616
-0.0115379
0.0160759
-0.0113918
-0.0112442
0.0163734
2.69787e-05
0.00065883
0.000141685
0.00141237
0.000359838
0.00179941
0.000687706
0.00184036
0.0011251
0.00157803
0.00166734
0.00105819
0.00230607
0.00032462
0.00302976
-0.00057987
0.0038239
-0.00161255
0.00467149
-0.00273077
0.00555375
-0.00389264
0.00645112
-0.00505831
0.00734449
-0.00619148
0.00821642
-0.00726096
0.00905224
-0.00824193
0.0098408
-0.0091166
0.0105748
-0.00987432
0.0112509
-0.0105112
0.011869
-0.0110289
0.0124321
-0.0114338
0.0129453
-0.0117353
0.013415
-0.0119446
0.0138485
-0.0120739
0.0142532
-0.012135
0.0146364
-0.0121388
0.0150045
-0.0120949
0.015363
-0.0120104
0.0157146
-0.0118895
0.0160537
-0.0117309
0.0163302
-0.0115206
0.00690207
0.00843503
-0.0103552
0.00823851
0.00952196
-0.0108584
0.00906361
0.0127484
-0.0135735
0.00954024
0.0163999
-0.0168766
0.0097688
0.0198237
-0.0200523
0.00982567
0.0226637
-0.0227206
0.00976621
0.0249242
-0.0248648
0.00962774
0.0268001
-0.0266616
0.0094349
0.0284903
-0.0282975
0.00920255
0.030105
-0.0298727
0.00893926
0.0316805
-0.0314172
0.00865091
0.0332084
-0.0329201
0.00834087
0.0346721
-0.0343621
0.00801298
0.0360578
-0.0357299
0.00766949
0.0373588
-0.0370153
0.00731261
0.0385711
-0.0382142
0.00694443
0.039695
-0.0393268
0.00656641
0.0407305
-0.0403524
0.00618011
0.0416743
-0.041288
0.00578688
0.0425325
-0.0421392
0.00538728
0.0432946
-0.042895
0.00498251
0.043975
-0.0435702
0.00457268
0.0445514
-0.0441416
0.00415893
0.0450531
-0.0446394
0.00373944
0.0454438
-0.0450243
0.00331587
0.045762
-0.0453384
0.0028848
0.0459797
-0.0455487
0.00244761
0.046103
-0.0456658
0.00200232
0.0461953
-0.0457501
0.0462967
-0.0458522
0.00723871
0.00656977
0.00852445
0.00823624
0.00931502
0.0119579
0.0097683
0.0159467
0.00998193
0.0196101
0.0100289
0.0226167
0.00996257
0.0249906
0.00981872
0.026944
0.00962127
0.0286878
0.00938442
0.0303419
0.00911647
0.0319484
0.00882306
0.0335018
0.00850754
0.0349876
0.00817378
0.0363916
0.00782367
0.0377089
0.00745956
0.0389352
0.00708358
0.040071
0.00669709
0.0411169
0.00630184
0.0420695
0.00589893
0.0429354
0.00548939
0.0437042
0.00507416
0.0443902
0.00465336
0.0449722
0.00422844
0.0454781
0.0037974
0.0458748
0.00336216
0.0461972
0.00291907
0.0464229
0.00247004
0.046552
0.0020124
0.046653
0.0467536
0.00759617
0.00478262
0.00881877
0.00701363
0.00956887
0.0112078
0.009996
0.0155195
0.0101935
0.0194126
0.0102304
0.0225798
0.0101571
0.0250639
0.0100081
0.0270929
0.00980631
0.0288896
0.00956516
0.030583
0.00929283
0.0322207
0.0089946
0.0338
0.00867388
0.0353083
0.00833436
0.0367311
0.0079778
0.0380655
0.00760661
0.0393063
0.00722299
0.0404546
0.00682817
0.0415117
0.00642405
0.0424736
0.00601153
0.0433479
0.00559208
0.0441236
0.0051664
0.0448159
0.00473471
0.0454039
0.0042986
0.0459142
0.00385605
0.0463173
0.00340913
0.0466442
0.002954
0.046878
0.00249311
0.0470129
0.00202302
0.0471231
0.047223
0.00797274
0.00309682
0.00912033
0.00586605
0.00982419
0.0105039
0.0102226
0.0151211
0.0104031
0.0192321
0.0104297
0.0225532
0.0103497
0.025144
0.0101958
0.0272468
0.00998976
0.0290956
0.00974462
0.0308282
0.00946819
0.0324972
0.0091654
0.0341028
0.00883974
0.035634
0.00849454
0.0370763
0.00813184
0.0384282
0.00775374
0.0396844
0.00736259
0.0408458
0.00695961
0.0419147
0.00654662
0.0428866
0.00612468
0.0437698
0.0056953
0.044553
0.00525925
0.0452519
0.00481669
0.0458465
0.00436941
0.0463614
0.00391539
0.0467714
0.00345677
0.0471028
0.00298971
0.047345
0.00251676
0.0474858
0.00203436
0.0476055
0.0477052
0.00836666
0.001535
0.0094278
0.00480491
0.0100801
0.00985164
0.0104476
0.0147536
0.0106103
0.0190694
0.0106265
0.0225369
0.0105398
0.0252307
0.0103813
0.0274053
0.0101714
0.0293055
0.00992255
0.031077
0.0096423
0.0327774
0.00933525
0.0344099
0.00900496
0.0359643
0.00865421
0.0374271
0.00828559
0.0387968
0.00790079
0.0400692
0.0075022
0.0412444
0.00709124
0.0423257
0.00666951
0.0433083
0.00623831
0.0442011
0.00579899
0.0449923
0.00535259
0.0456983
0.00489921
0.0462998
0.0044408
0.0468199
0.00397538
0.0472368
0.00350504
0.0475731
0.00302612
0.047824
0.00254096
0.047971
0.0020463
0.0481001
0.0482004
0.00877556
0.000119014
0.00974021
0.00384025
0.0103357
0.00925612
0.0106703
0.014419
0.0108146
0.0189252
0.0108204
0.0225311
0.0107273
0.0253238
0.0105645
0.0275681
0.0103511
0.0295189
0.0100988
0.0313294
0.00981502
0.0330612
0.00950396
0.0347209
0.00916929
0.036299
0.00881332
0.037783
0.00843892
0.0391712
0.00804766
0.0404605
0.00764179
0.0416502
0.007223
0.0427445
0.00679267
0.0437387
0.00635226
0.0446415
0.00590309
0.0454415
0.00544644
0.046155
0.00498231
0.046764
0.00451275
0.0472894
0.00403599
0.0477135
0.00355396
0.0480551
0.00306319
0.0483147
0.0025658
0.0484684
0.00205879
0.0486072
0.0487089
0.0091981
-0.00113333
0.0100564
0.00298194
0.0105903
0.00872225
0.0108902
0.0141191
0.0110156
0.0187997
0.0110111
0.0225356
0.010912
0.025423
0.0107451
0.027735
0.0105285
0.0297355
0.0102731
0.0315848
0.00998614
0.0333481
0.00967136
0.0350357
0.00933257
0.0366378
0.00897168
0.0381439
0.0085917
0.0395512
0.00819423
0.040858
0.00778128
0.0420632
0.00735476
0.043171
0.006916
0.0441774
0.00646651
0.045091
0.00600757
0.0459004
0.00554074
0.0466218
0.00506592
0.0472388
0.00458524
0.0477701
0.00409716
0.0482016
0.0036035
0.0485488
0.00310089
0.0488173
0.00259126
0.048978
0.00207184
0.0491266
0.0492306
0.00963143
-0.00220641
0.0103753
0.00223809
0.010843
0.0082545
0.0111068
0.0138554
0.0112131
0.0186934
0.0111985
0.0225501
0.0110935
0.025528
0.0109229
0.0279056
0.0107035
0.0299549
0.0104452
0.0318431
0.0101554
0.0336378
0.00983726
0.0353539
0.00949463
0.0369804
0.00912914
0.0385094
0.00874382
0.0399365
0.00834036
0.0412614
0.00792055
0.042483
0.00748644
0.0436051
0.00703941
0.0446245
0.00658096
0.0455494
0.00611236
0.046369
0.00563541
0.0470988
0.00515
0.0477242
0.00465824
0.0482619
0.00415887
0.048701
0.00365364
0.049054
0.00313921
0.0493318
0.00261736
0.0494999
0.00208542
0.0496585
0.0497658
0.0100731
-0.00308827
0.0106944
0.00161676
0.0110932
0.00785574
0.0113196
0.0136289
0.0114067
0.0186063
0.0113823
0.0225746
0.0112718
0.0256384
0.0110978
0.0280796
0.0108758
0.0301769
0.0106151
0.0321038
0.0103227
0.0339302
0.0100015
0.0356752
0.0096553
0.0373266
0.00928553
0.0388792
0.00889511
0.0403269
0.00848591
0.0416706
0.00805947
0.0429094
0.00761796
0.0440466
0.00716281
0.0450796
0.00669555
0.0460167
0.0062174
0.0468472
0.00573039
0.0475858
0.00523447
0.0482201
0.00473172
0.0487646
0.00422109
0.0492116
0.00370432
0.0495708
0.00317811
0.049858
0.00264411
0.0500339
0.00209953
0.0502031
0.0503145
0.0105214
-0.00377264
0.0110108
0.00112733
0.0113401
0.00752639
0.0115285
0.0134405
0.0115963
0.0185385
0.0115623
0.0226086
0.0114467
0.025754
0.0112696
0.0282567
0.0110453
0.0304012
0.0107825
0.0323667
0.0104878
0.0342248
0.0101639
0.0359991
0.00981441
0.0376761
0.00944067
0.0392529
0.00904544
0.0407221
0.00863073
0.0420854
0.00819793
0.0433422
0.00774922
0.0444953
0.0072861
0.0455427
0.00681018
0.0464926
0.00632264
0.0473347
0.00582563
0.0480828
0.00531928
0.0487265
0.00480561
0.0492783
0.00428378
0.0497334
0.00375551
0.0500991
0.00321756
0.0503959
0.00267149
0.0505799
0.00211417
0.0507604
0.0508769
0.0109682
-0.00425305
0.0113275
0.000768046
0.0115832
0.00727061
0.0117332
0.0132906
0.0117818
0.0184899
0.0117385
0.0226518
0.0116181
0.0258745
0.0114382
0.0284366
0.0112118
0.0306276
0.0109472
0.0326313
0.0106506
0.0345214
0.0103242
0.0363255
0.00997177
0.0380285
0.0095944
0.0396303
0.00919466
0.0411219
0.00877469
0.0425053
0.00833579
0.0437811
0.0078801
0.044951
0.00740921
0.0460136
0.00692475
0.046977
0.00642798
0.0478315
0.00592108
0.0485897
0.00540437
0.0492432
0.00487985
0.0498028
0.00434687
0.0502664
0.0038072
0.0506387
0.00325751
0.0509456
0.00269948
0.051138
0.00212937
0.0513305
0.051453
0.0114115
-0.00452925
0.0116408
0.000538747
0.0118221
0.00708932
0.0119333
0.0131794
0.011963
0.0184602
0.0119109
0.0227039
0.0117859
0.0259994
0.0116034
0.0286191
0.0113752
0.0308558
0.0111091
0.0328974
0.0108108
0.0348197
0.0104824
0.0366539
0.0101272
0.0383837
0.00974654
0.040011
0.00934262
0.0415258
0.00891765
0.0429303
0.00847293
0.0442258
0.00801047
0.0454135
0.00753204
0.046492
0.00703918
0.0474699
0.00653335
0.0483373
0.00601665
0.0491064
0.00548969
0.0497701
0.00495439
0.0503381
0.00441032
0.0508105
0.00385933
0.0511897
0.00329796
0.051507
0.00272804
0.0517079
0.00214513
0.0519135
0.052043
0.0118479
-0.00460584
0.0119485
0.000438153
0.0120558
0.00698206
0.0121286
0.0131066
0.0121398
0.018449
0.0120793
0.0227645
0.0119502
0.0261285
0.0117653
0.028804
0.0115355
0.0310856
0.0112681
0.0331648
0.0109683
0.0351195
0.0106381
0.036984
0.0102806
0.0387412
0.00989695
0.0403946
0.00948917
0.0419336
0.00905947
0.04336
0.00860922
0.0446761
0.00814023
0.0458825
0.00765448
0.0469778
0.00715341
0.047971
0.00663867
0.048852
0.00611229
0.0496328
0.00557517
0.0503073
0.00502918
0.0508841
0.00447405
0.0513656
0.00391185
0.0517519
0.00333887
0.05208
0.00275716
0.0522896
0.00216148
0.0525091
0.052647
0.0122731
-0.0044911
0.0122485
0.000462728
0.0122835
0.00694704
0.0123187
0.0130714
0.0123122
0.0184555
0.0122436
0.0228331
0.0121107
0.0262614
0.0119237
0.028991
0.0116924
0.0313169
0.0114239
0.0334333
0.0111229
0.0354205
0.0107913
0.0373156
0.0104318
0.0391008
0.0100455
0.0407809
0.00963415
0.0423449
0.00920002
0.0437941
0.00874453
0.0451315
0.00826926
0.0463577
0.00777642
0.0474706
0.00726733
0.0484801
0.00674387
0.0493755
0.00620793
0.0501687
0.00566074
0.0508544
0.00510417
0.0514407
0.00453804
0.0519317
0.00396471
0.0523252
0.00338022
0.0526645
0.00278679
0.052883