/*--------------------------------*- C++ -*----------------------------------*\
  =========                 |
  \\      /  F ield         | OpenFOAM: The Open Source CFD Toolbox
   \\    /   O peration     | Website:  https://openfoam.org
    \\  /    A nd           | Version:  7
     \\/     M anipulation  |
\*---------------------------------------------------------------------------*/
FoamFile
{
    version     2.0;
    format      ascii;
    class       volVectorField;
    location    "3.1";
    object      U;
}
// * * * * * * * * * * * * * * * * * * * * * * * * * * * * * * * * * * * * * //

dimensions      [0 1 -1 0 0 0 0];

internalField   nonuniform List<vector> 
18000
(
(-0.00174925 0.0378122 1.59261e-20)
(-0.00789268 0.0965798 0)
(-0.0175769 0.14396 0)
(-0.0280732 0.180392 0)
(-0.0385935 0.207579 -5.25145e-21)
(-0.0483309 0.2273 2.65552e-20)
(-0.056756 0.24105 -5.37846e-21)
(-0.0635381 0.249955 5.41556e-21)
(-0.0684908 0.254808 0)
(-0.0715329 0.256172 -1.6383e-20)
(-0.0726567 0.254465 -5.48666e-21)
(-0.0719005 0.250034 0)
(-0.0693344 0.243198 1.09389e-20)
(-0.065056 0.23428 1.09782e-20)
(-0.0591775 0.223611 -2.18875e-20)
(-0.0518242 0.211532 -2.18267e-20)
(-0.043136 0.19839 0)
(-0.0332609 0.184531 -3.25338e-20)
(-0.0223533 0.170289 1.07931e-20)
(-0.010576 0.155983 -3.22077e-20)
(0.00190535 0.141902 1.06741e-20)
(0.0149267 0.128304 0)
(0.0283258 0.11541 -1.04737e-20)
(0.0419441 0.103403 -1.04628e-20)
(0.055632 0.0924268 0)
(0.0692498 0.0825952 0)
(0.0826654 0.0739996 -2.04075e-20)
(0.0957767 0.0667272 -2.0236e-20)
(0.108498 0.0609767 -2.01422e-20)
(0.120421 0.0571571 2.19292e-20)
(-0.00262111 0.0391958 2.26154e-20)
(-0.00966708 0.0996166 3.93823e-20)
(-0.0195773 0.148032 -4.03085e-20)
(-0.030006 0.185018 -4.11035e-20)
(-0.0402713 0.212332 -1.04665e-20)
(-0.0496593 0.23182 3.16899e-20)
(-0.057692 0.245047 -4.2775e-20)
(-0.0640627 0.253192 -4.31205e-20)
(-0.0685861 0.257107 4.33768e-20)
(-0.0711793 0.257402 4.35782e-20)
(-0.0718371 0.254534 -2.18035e-20)
(-0.0705929 0.248875 -4.37077e-20)
(-0.0675129 0.240774 -2.19495e-20)
(-0.062698 0.230571 4.36458e-20)
(-0.0562622 0.21862 -4.3522e-20)
(-0.0483334 0.205279 4.35671e-20)
(-0.0390589 0.190917 -8.66937e-20)
(-0.0285949 0.175896 6.47951e-20)
(-0.0171039 0.160572 -4.28582e-20)
(-0.00475719 0.145276 2.14392e-20)
(0.00826914 0.130316 -4.23732e-20)
(0.0218011 0.11596 0)
(0.0356683 0.10244 2.1228e-20)
(0.0497062 0.0899425 -4.1596e-20)
(0.0637591 0.0786158 4.12146e-20)
(0.0776836 0.0685715 0)
(0.0913471 0.0599019 -2.01561e-20)
(0.104647 0.0526978 2.0062e-20)
(0.117507 0.0471754 7.98249e-20)
(0.129521 0.0438012 4.34024e-20)
(-0.00353671 0.0402874 -3.62722e-20)
(-0.0114934 0.102099 -3.93813e-20)
(-0.0215609 0.151474 6.04343e-20)
(-0.0318157 0.18902 1.02521e-19)
(-0.0416911 0.216516 0)
(-0.0505779 0.235843 -4.23285e-20)
(-0.0580507 0.248613 4.27734e-20)
(-0.0638297 0.256066 1.29049e-19)
(-0.0677422 0.259111 -4.33751e-20)
(-0.0697097 0.258396 -4.35524e-20)
(-0.0697233 0.254416 1.30617e-19)
(-0.0678186 0.247579 4.37059e-20)
(-0.0640632 0.238254 0)
(-0.0585567 0.226806 -8.72242e-20)
(-0.0514217 0.213609 1.30109e-19)
(-0.0427925 0.199042 -4.31118e-20)
(-0.0328219 0.183492 4.3257e-20)
(-0.0216768 0.167343 4.29989e-20)
(-0.00952996 0.150966 1.80323e-22)
(0.00343839 0.134714 0)
(0.0170422 0.118907 1.2697e-19)
(0.0310984 0.103828 -8.383e-20)
(0.0454294 0.0897152 4.18195e-20)
(0.0598636 0.0767627 0)
(0.0742408 0.0651189 -4.1213e-20)
(0.0884161 0.0548942 1.62902e-19)
(0.102257 0.0461774 -1.20814e-19)
(0.115664 0.0390595 -4.02212e-20)
(0.12857 0.0337709 3.9375e-20)
(0.140576 0.0308299 4.31053e-20)
(-0.00447543 0.0411575 0)
(-0.0133503 0.104151 1.95924e-20)
(-0.0235339 0.154366 1.18827e-23)
(-0.0335215 0.192443 -1.02366e-19)
(-0.0428784 0.220136 0)
(-0.0511118 0.239348 -8.40771e-20)
(-0.0578573 0.251728 0)
(-0.0628689 0.258561 -1.28834e-19)
(-0.0659915 0.260796 4.31086e-20)
(-0.0671521 0.259135 -8.64122e-20)
(-0.0663444 0.254107 -8.69537e-20)
(-0.063606 0.246148 -4.34448e-20)
(-0.0590098 0.235657 4.33603e-20)
(-0.0526606 0.223018 4.30637e-20)
(-0.0446862 0.208627 -4.34726e-20)
(-0.0352304 0.192885 -8.57393e-20)
(-0.0244567 0.176197 8.56915e-20)
(-0.0125417 0.158967 0)
(0.000331635 0.141587 0)
(0.0139724 0.124427 0)
(0.0281841 0.10782 0)
(0.0427749 0.092063 0)
(0.0575603 0.0774036 0)
(0.072364 0.0640397 -8.1983e-20)
(0.0870226 0.0521206 -8.17472e-20)
(0.101391 0.0417543 -3.69643e-22)
(0.115338 0.033022 -8.0296e-20)
(0.128768 0.0260125 -3.97399e-22)
(0.141626 0.0209617 -7.96157e-20)
(0.153525 0.0184378 1.70837e-19)
(-0.00543277 0.0417606 0)
(-0.0152241 0.105627 1.75385e-19)
(-0.0254677 0.156568 1.282e-23)
(-0.0351042 0.195148 -6.11377e-20)
(-0.043833 0.223074 2.06779e-19)
(-0.0512733 0.242239 1.26057e-19)
(-0.0571334 0.254307 1.26904e-19)
(-0.0612118 0.260598 0)
(-0.0633706 0.26211 0)
(-0.0635469 0.259583 1.29545e-19)
(-0.0617439 0.253582 4.09155e-23)
(-0.0580047 0.244576 -3.02147e-19)
(-0.0524075 0.232988 2.58617e-19)
(-0.0450646 0.219228 -8.64158e-20)
(-0.0361142 0.203712 8.54217e-20)
(-0.0257111 0.186861 8.5736e-20)
(-0.0140297 0.169101 -8.48581e-20)
(-0.00125783 0.150857 8.49592e-20)
(0.0124093 0.132539 1.68494e-19)
(0.0267688 0.114532 -8.38282e-20)
(0.0416148 0.097187 -1.66281e-19)
(0.0567477 0.0808112 1.65192e-19)
(0.0719764 0.0656618 -1.64057e-19)
(0.0871197 0.0519408 8.19792e-20)
(0.102014 0.0397966 0)
(0.116514 0.0293327 0)
(0.130495 0.0206216 7.30886e-22)
(0.143863 0.0137443 -3.15919e-19)
(0.156582 0.00893612 1.56451e-19)
(0.168278 0.00680844 -1.69577e-19)
(-0.00638611 0.0420956 0)
(-0.0170836 0.106568 -1.55859e-19)
(-0.0273558 0.1581 1.5898e-19)
(-0.0365749 0.197136 0)
(-0.0445715 0.225311 -3.30169e-19)
(-0.0510946 0.244482 -4.18312e-20)
(-0.0559267 0.256308 -8.47929e-20)
(-0.0589098 0.262143 -4.25499e-20)
(-0.0599364 0.263018 0)
(-0.0589608 0.259708 -8.59063e-20)
(-0.0559943 0.252819 8.59906e-20)
(-0.051089 0.24285 1.72463e-19)
(-0.0443352 0.23025 -1.72296e-19)
(-0.0358549 0.215451 0)
(-0.025797 0.198893 -1.71436e-19)
(-0.0143296 0.181016 1.69835e-19)
(-0.0016406 0.162267 1.7005e-19)
(0.012069 0.14309 2.52617e-19)
(0.0265914 0.123913 -2.52093e-19)
(0.0417122 0.105138 3.33219e-19)
(0.0572153 0.0871299 1.65931e-19)
(0.0728931 0.0702081 -1.65183e-19)
(0.0885495 0.0546367 3.27012e-19)
(0.104 0.0406211 0)
(0.119081 0.0283095 1.60582e-19)
(0.133652 0.0177979 3.19422e-19)
(0.147591 0.00914989 -1.57323e-19)
(0.160814 0.00243158 1.57794e-19)
(0.173303 -0.00212769 -3.32763e-22)
(0.184709 -0.00388761 -1.68278e-19)
(-0.00732372 0.0421645 -1.78306e-20)
(-0.0189108 0.106939 0)
(-0.0291798 0.158908 -1.98666e-19)
(-0.0379271 0.198347 4.04444e-20)
(-0.0451114 0.226779 1.23646e-19)
(-0.0506062 0.246003 4.16447e-20)
(-0.0542765 0.257666 1.68042e-19)
(-0.0560188 0.263132 0)
(-0.055759 0.263459 8.52699e-20)
(-0.0534705 0.259463 8.51899e-20)
(-0.0491805 0.251783 -8.56627e-20)
(-0.0429559 0.240946 2.5649e-19)
(-0.0348996 0.227429 0)
(-0.0251449 0.21169 0)
(-0.0138557 0.194188 2.54654e-19)
(-0.00121644 0.175384 -4.23319e-19)
(0.0125716 0.155743 1.68051e-19)
(0.0272939 0.13573 -1.68174e-19)
(0.0427273 0.115789 -1.66188e-19)
(0.0586449 0.0963378 -4.97294e-19)
(0.0748223 0.0777554 -7.26971e-22)
(0.091044 0.0603714 1.63008e-19)
(0.107108 0.0444567 -3.24827e-19)
(0.12283 0.0302187 1.60702e-19)
(0.138047 0.0178035 -1.0746e-21)
(0.152624 0.00730068 -1.59331e-19)
(0.166447 -0.00123909 1.58053e-19)
(0.179441 -0.0077669 0)
(0.191609 -0.0120692 1.54377e-19)
(0.202632 -0.0134902 3.31111e-22)
(-0.00822949 0.0419677 -3.55228e-20)
(-0.020682 0.106743 3.86219e-20)
(-0.0309289 0.158984 -2.36888e-19)
(-0.0391653 0.198748 -1.20678e-19)
(-0.0454697 0.227433 1.63612e-19)
(-0.0498435 0.246754 -2.48806e-19)
(-0.0522377 0.258322 -8.42013e-20)
(-0.0526076 0.263502 -1.68658e-19)
(-0.0509185 0.26338 1.69498e-19)
(-0.0471705 0.2588 -3.40671e-19)
(-0.0414115 0.250431 -1.70169e-19)
(-0.0337252 0.238832 -7.79443e-22)
(-0.0242305 0.224507 8.51168e-20)
(-0.0130769 0.207938 -2.54149e-19)
(-0.000444898 0.189603 -3.38244e-19)
(0.0134646 0.169982 3.82398e-22)
(0.0284345 0.149561 -5.88973e-22)
(0.044234 0.128822 1.66133e-19)
(0.0606258 0.108226 1.66179e-19)
(0.07737 0.088204 3.53081e-22)
(0.0942324 0.0691485 -3.68522e-22)
(0.110991 0.0513976 1.61197e-19)
(0.127439 0.0352275 1.61863e-19)
(0.143392 0.0208472 -3.24555e-22)
(0.158692 0.00839927 -4.77402e-19)
(0.173211 -0.00203353 3.14706e-19)
(0.186845 -0.0104157 3.13333e-19)
(0.199527 -0.0167179 -3.09932e-19)
(0.211286 -0.0207499 -1.5437e-19)
(0.221845 -0.0218536 -1.6417e-19)
(-0.00908994 0.0415182 -3.17916e-19)
(-0.0223773 0.105988 -3.84802e-20)
(-0.0325915 0.158318 1.97194e-19)
(-0.0402926 0.198317 1.60973e-19)
(-0.0456691 0.227233 -1.63608e-19)
(-0.0488476 0.246678 1.65747e-19)
(-0.0498691 0.258214 -8.35734e-20)
(-0.0487525 0.263195 2.52802e-19)
(-0.0455089 0.26272 -1.69491e-19)
(-0.0401707 0.25766 1.69979e-19)
(-0.0328117 0.248713 8.52644e-20)
(-0.0235364 0.236467 -8.52326e-20)
(-0.0124825 0.221452 -5.07325e-19)
(0.000181342 0.204172 3.38141e-19)
(0.0142549 0.185125 1.68659e-19)
(0.0295198 0.164811 0)
(0.0457427 0.143735 0)
(0.0626748 0.122394 -1.60348e-21)
(0.0800623 0.101262 -1.63741e-19)
(0.097654 0.0807865 0)
(0.115206 0.0613697 0)
(0.132488 0.0433572 -1.61919e-19)
(0.149292 0.0270285 0)
(0.165433 0.012593 -3.17109e-19)
(0.18076 0.000189585 0)
(0.195156 -0.010108 -1.57188e-19)
(0.208528 -0.0182797 3.11218e-19)
(0.220821 -0.0243189 -3.07841e-19)
(0.232089 -0.0280638 0)
(0.242111 -0.0288692 0)
(-0.00989334 0.0408311 2.82529e-19)
(-0.0239783 0.104691 0)
(-0.034158 0.156914 -3.926e-20)
(-0.0413139 0.197041 4.00063e-20)
(-0.0457326 0.226148 -2.4348e-19)
(-0.047662 0.245731 5.90377e-23)
(-0.0472341 0.257287 -8.32244e-20)
(-0.0445365 0.262147 0)
(-0.0396324 0.261414 0)
(-0.0325927 0.255982 -8.44611e-20)
(-0.0235202 0.246571 8.4543e-20)
(-0.0125449 0.233799 -1.68909e-19)
(0.00017193 0.218219 1.70156e-19)
(0.0144401 0.200356 0)
(0.0300401 0.180727 0)
(0.0467333 0.159855 0)
(0.0642667 0.138258 1.64599e-19)
(0.0823739 0.116446 -9.54249e-22)
(0.100785 0.0949109 1.6472e-19)
(0.119237 0.0741094 -3.24096e-19)
(0.137474 0.0544529 1.61627e-19)
(0.15526 0.0362923 -8.0085e-19)
(0.172385 0.0199097 6.46896e-22)
(0.188668 0.00551302 3.17092e-19)
(0.203966 -0.00676387 -1.44506e-21)
(0.218173 -0.0168578 3.108e-19)
(0.231211 -0.0247645 -3.07697e-19)
(0.24304 -0.0305016 -3.06563e-19)
(0.253742 -0.0339406 6.22159e-22)
(0.263165 -0.0344638 -3.21007e-19)
(-0.0106301 0.0399263 -3.51119e-20)
(-0.0254692 0.10288 0)
(-0.0356199 0.154791 7.82359e-20)
(-0.0422344 0.194916 -7.97229e-20)
(-0.0456836 0.224156 7.29694e-19)
(-0.0463295 0.243874 5.70779e-23)
(-0.0443972 0.255489 -8.29237e-20)
(-0.0400463 0.260297 8.35387e-20)
(-0.0333967 0.259399 -4.19012e-19)
(-0.0245633 0.253699 0)
(-0.0136843 0.243941 0)
(-0.000918168 0.230766 -1.67496e-19)
(0.0135477 0.21475 1.68516e-19)
(0.0294987 0.196438 -1.67178e-19)
(0.0466931 0.176369 1.66465e-19)
(0.0648717 0.155078 0)
(0.0837606 0.133102 -6.58712e-19)
(0.103074 0.110962 3.26419e-19)
(0.122527 0.0891626 1.62741e-19)
(0.14184 0.0681704 4.84773e-19)
(0.16075 0.0484034 0)
(0.179015 0.0302162 3.19628e-19)
(0.196422 0.0138911 3.1595e-19)
(0.212796 -0.000367325 3.13581e-19)
(0.228005 -0.0124321 -2.03441e-21)
(0.241956 -0.0222516 -3.0814e-19)
(0.254591 -0.0298377 3.07682e-19)
(0.265886 -0.0352328 0)
(0.27595 -0.0383455 6.5138e-22)
(0.284717 -0.0385985 6.38258e-19)
(-0.0112931 0.0388281 -2.79291e-19)
(-0.0268374 0.10059 0)
(-0.0369701 0.151975 -3.11088e-19)
(-0.0430584 0.191953 -3.96868e-19)
(-0.0455427 0.221246 -2.42969e-19)
(-0.0448913 0.241077 8.18591e-20)
(-0.0414208 0.252774 3.02377e-23)
(-0.0353661 0.257589 -8.32259e-20)
(-0.0269085 0.256608 1.24112e-21)
(-0.0162119 0.250742 1.67554e-19)
(-0.00345339 0.240752 1.66949e-19)
(0.0111751 0.227299 -1.65983e-19)
(0.0274568 0.21098 1.67068e-19)
(0.0451511 0.192359 -4.98374e-19)
(0.0639925 0.171991 4.9609e-19)
(0.0836991 0.150429 3.28642e-19)
(0.103975 0.12822 8.18919e-19)
(0.124514 0.1059 -1.64502e-19)
(0.145014 0.0839825 -3.22426e-19)
(0.165182 0.0629418 -1.89479e-21)
(0.184744 0.0432005 -3.19199e-19)
(0.203452 0.0251142 9.48908e-19)
(0.221095 0.00896322 -6.30585e-19)
(0.237506 -0.00505325 6.22543e-19)
(0.252563 -0.0168175 -3.1056e-19)
(0.266191 -0.0262903 6.14261e-19)
(0.278354 -0.0335004 1.37186e-21)
(0.289049 -0.0385141 -6.04189e-19)
(0.298413 -0.0412793 5.97677e-19)
(0.306476 -0.0412686 3.14504e-19)
(-0.0118782 0.0375638 2.7929e-19)
(-0.0280734 0.0978681 0)
(-0.0382025 0.148507 6.9873e-19)
(-0.0437887 0.188176 2.38196e-19)
(-0.0453271 0.217423 0)
(-0.0433825 0.237322 0)
(-0.038361 0.249107 0)
(-0.0305742 0.253972 0)
(-0.020268 0.252982 1.67261e-19)
(-0.00766025 0.247045 1.67007e-19)
(0.00702893 0.236934 -3.3465e-19)
(0.0235715 0.223326 3.34193e-19)
(0.0417179 0.206835 4.98061e-19)
(0.0611994 0.188044 1.66316e-19)
(0.081725 0.167524 1.63224e-19)
(0.102988 0.145839 -4.92549e-19)
(0.124669 0.12355 -6.51631e-19)
(0.146441 0.101202 -3.24574e-19)
(0.167984 0.079317 3.22408e-19)
(0.188989 0.0583752 -6.39682e-19)
(0.209172 0.0388004 3.16741e-19)
(0.22828 0.0209473 -6.30637e-19)
(0.246106 0.00509099 3.11404e-19)
(0.262492 -0.00857702 -1.19102e-21)
(0.27733 -0.019951 -3.07205e-19)
(0.290567 -0.0290052 -6.11642e-19)
(0.302191 -0.035785 6.05905e-19)
(0.312225 -0.0403797 0)
(0.320831 -0.0427771 -6.40296e-22)
(0.32815 -0.0425066 -6.25473e-19)
(-0.0123841 0.0361631 3.47144e-20)
(-0.0291715 0.0947636 0)
(-0.0393118 0.144435 -3.09967e-19)
(-0.0444257 0.183621 7.89577e-20)
(-0.0450482 0.212702 -8.0172e-20)
(-0.0418301 0.232606 0)
(-0.0352633 0.244464 -8.20716e-20)
(-0.0257362 0.249407 8.26357e-20)
(-0.0135623 0.248467 1.65944e-19)
(0.000983971 0.242545 -4.98461e-19)
(0.0176355 0.232417 -1.66256e-19)
(0.0361251 0.218773 1.75904e-22)
(0.0561682 0.202241 -6.94184e-22)
(0.0774656 0.183418 -3.29768e-19)
(0.0996985 0.16289 -1.64739e-19)
(0.122534 0.141232 0)
(0.145626 0.119016 7.99535e-22)
(0.168628 0.0967959 3.22848e-19)
(0.191197 0.075098 -3.19639e-19)
(0.213009 0.0544056 0)
(0.23377 0.0351421 0)
(0.253226 0.0176574 0)
(0.271172 0.00221868 0)
(0.287463 -0.010994 -1.8622e-21)
(0.302011 -0.021888 0)
(0.314786 -0.0304531 0)
(0.325806 -0.0367509 2.99767e-19)
(0.33512 -0.0408929 2.97214e-19)
(0.342918 -0.0429051 2.95913e-19)
(0.349459 -0.0423777 -6.60657e-22)
(-0.0128122 0.034657 3.45857e-20)
(-0.0301292 0.0913332 -7.5297e-20)
(-0.040293 0.139819 4.61919e-19)
(-0.044966 0.178337 -7.85883e-20)
(-0.0447093 0.207115 7.99725e-20)
(-0.0402493 0.226939 5.71943e-23)
(-0.0321579 0.238837 2.44817e-19)
(-0.0208998 0.243868 -3.28844e-19)
(-0.00685743 0.243024 4.9559e-19)
(0.00963647 0.237189 6.2545e-22)
(0.0282649 0.227139 -1.65018e-19)
(0.0487186 0.213571 3.30198e-19)
(0.070676 0.197123 -3.2911e-19)
(0.093805 0.178404 3.27645e-19)
(0.117757 0.15801 0)
(0.142168 0.13653 3.23904e-19)
(0.166668 0.114541 0)
(0.190882 0.0926045 1.60348e-21)
(0.214448 0.07125 -3.17225e-19)
(0.237024 0.0509601 -3.14886e-19)
(0.258308 0.0321543 3.12525e-19)
(0.278044 0.015174 -3.10148e-19)
(0.296035 0.000275542 -3.07754e-19)
(0.312154 -0.0123755 -6.12479e-19)
(0.326334 -0.0227022 -3.02893e-19)
(0.338573 -0.0307113 3.01674e-19)
(0.348922 -0.0364801 -5.98219e-19)
(0.357463 -0.0401403 -2.97202e-19)
(0.36441 -0.0417551 0)
(0.370146 -0.0409739 -3.07405e-19)
(-0.0131666 0.033077 0)
(-0.0309468 0.0876366 2.99417e-19)
(-0.0411408 0.134726 -2.30908e-19)
(-0.0454014 0.172385 -3.91212e-19)
(-0.0443044 0.200709 0)
(-0.0386404 0.220352 0)
(-0.0290557 0.232236 -4.89589e-19)
(-0.016089 0.237346 6.56589e-19)
(-0.00019123 0.236627 -4.9447e-19)
(0.0182452 0.230939 0)
(0.0388517 0.221052 1.65818e-19)
(0.0612744 0.207663 -1.65296e-19)
(0.0851525 0.191416 1.28914e-21)
(0.110119 0.172931 -1.64718e-19)
(0.13579 0.152814 -1.61798e-19)
(0.161771 0.131658 -1.44519e-21)
(0.187661 0.11005 3.20258e-19)
(0.213058 0.0885539 3.19513e-19)
(0.237574 0.0676994 7.0545e-22)
(0.260855 0.0479653 6.28812e-19)
(0.282588 0.0297631 -6.24395e-19)
(0.302521 0.0134225 6.19188e-19)
(0.32047 -0.00081563 3.0774e-19)
(0.336325 -0.0128026 3.05325e-19)
(0.350052 -0.0224801 1.77537e-21)
(0.361679 -0.029872 0)
(0.371292 -0.0350716 2.97281e-19)
(0.37901 -0.0382279 -8.83449e-19)
(0.385071 -0.0394387 2.89605e-19)
(0.389982 -0.038409 3.03909e-19)
(-0.0134534 0.0314538 -2.0551e-19)
(-0.031627 0.0837349 -6.72529e-19)
(-0.0418488 0.129229 -9.34977e-23)
(-0.0457179 0.165838 9.88668e-22)
(-0.0438155 0.193547 -2.37667e-19)
(-0.0369861 0.212891 0)
(-0.0259439 0.224691 -1.61908e-19)
(-0.0112982 0.229854 -9.81449e-19)
(0.00643332 0.229272 4.93398e-19)
(0.0267982 0.223778 -3.28544e-19)
(0.0493752 0.214126 4.92807e-19)
(0.0737638 0.201008 -1.64283e-19)
(0.0995614 0.185074 3.27798e-19)
(0.126361 0.166949 -8.13956e-19)
(0.153744 0.147243 4.86468e-19)
(0.181277 0.126558 -8.36214e-22)
(0.208525 0.105483 -9.58681e-19)
(0.235056 0.0845819 3.17208e-19)
(0.260459 0.0643827 -3.14826e-19)
(0.284363 0.0453561 0)
(0.306451 0.0279008 3.09236e-19)
(0.326479 0.0123306 0)
(0.344279 -0.00113281 -3.05432e-19)
(0.359771 -0.0123606 3.0243e-19)
(0.37295 -0.021315 3.01094e-19)
(0.383885 -0.0280375 2.96835e-19)
(0.3927 -0.0326365 0)
(0.399551 -0.0352754 0)
(0.4047 -0.0360826 -5.82216e-19)
(0.408774 -0.0348134 9.02967e-19)
(-0.0136807 0.0298166 2.05704e-19)
(-0.0321738 0.0796886 3.72746e-19)
(-0.0424084 0.123403 -3.0451e-19)
(-0.0458944 0.158774 6.22543e-19)
(-0.0432116 0.185703 8.02403e-20)
(-0.0352496 0.204621 8.02461e-20)
(-0.0227834 0.216252 1.13992e-21)
(-0.00648856 0.221427 -3.2492e-19)
(0.0130531 0.220981 -1.63113e-19)
(0.0353296 0.215713 1.1296e-21)
(0.0598662 0.206355 -1.15652e-21)
(0.0862138 0.193593 -4.89945e-19)
(0.113925 0.178075 -1.62208e-19)
(0.142549 0.160427 1.27151e-21)
(0.171623 0.141265 3.21789e-19)
(0.200675 0.121192 3.19662e-19)
(0.229231 0.100799 1.40277e-21)
(0.256826 0.0806467 -3.15013e-19)
(0.283025 0.0612552 3.1337e-19)
(0.307445 0.043083 -3.10833e-19)
(0.32977 0.0265115 -6.16894e-19)
(0.349768 0.0118339 -3.06191e-19)
(0.367298 -0.000749914 6.05995e-19)
(0.382311 -0.0111347 0)
(0.394844 -0.0193036 -2.97669e-19)
(0.405006 -0.0253163 -5.91934e-19)
(0.412963 -0.029294 -5.87304e-19)
(0.418911 -0.0314122 2.91074e-19)
(0.423133 -0.0318249 -8.65679e-19)
(0.426368 -0.030331 2.98686e-19)
(-0.0138574 0.0281916 -3.40455e-19)
(-0.0325918 0.0755555 7.41298e-20)
(-0.0428082 0.117326 3.04513e-19)
(-0.0459019 0.151282 -2.33132e-19)
(-0.0424479 0.177267 7.93577e-20)
(-0.0333731 0.195625 -1.3246e-22)
(-0.0195067 0.206994 8.0679e-19)
(-0.00158553 0.212127 3.25511e-19)
(0.0197476 0.211804 3.26857e-19)
(0.0439223 0.20678 4.90709e-19)
(0.0704092 0.197766 -4.90713e-19)
(0.0987083 0.185434 3.26518e-19)
(0.128322 0.170427 6.4969e-19)
(0.158752 0.15337 3.22768e-19)
(0.189486 0.134878 -8.83394e-22)
(0.220005 0.115556 -6.38865e-19)
(0.249793 0.0959894 6.33944e-19)
(0.278353 0.0767337 5.99129e-22)
(0.305228 0.0582955 -3.11875e-19)
(0.330027 0.0411158 3.0935e-19)
(0.352443 0.0255544 3.07659e-19)
(0.372264 0.0118796 -3.03635e-19)
(0.389383 0.000265623 -6.04812e-19)
(0.403794 -0.00920716 -4.68444e-22)
(0.415576 -0.0165433 2.98232e-19)
(0.424885 -0.0218197 2.95101e-19)
(0.431932 -0.0251686 5.83782e-19)
(0.436948 -0.0267736 -5.75715e-19)
(0.44024 -0.02681 0)
(0.442646 -0.0251138 2.96791e-19)
(-0.013993 0.0266018 9.70008e-22)
(-0.0328851 0.0713893 0)
(-0.0430332 0.111075 -2.26585e-19)
(-0.0457034 0.143452 -7.72205e-20)
(-0.0414652 0.168337 -3.13758e-19)
(-0.0312777 0.186004 0)
(-0.016018 0.197013 -4.83022e-19)
(0.00352097 0.202043 1.6193e-19)
(0.0266386 0.201818 0)
(0.0527067 0.19705 -3.25151e-19)
(0.0811403 0.18842 0)
(0.111384 0.176584 -4.86375e-19)
(0.142886 0.162176 4.84762e-19)
(0.175091 0.145817 -3.22427e-19)
(0.207433 0.128118 -3.19198e-19)
(0.23934 0.109678 0)
(0.270254 0.0910774 0)
(0.299645 0.0728576 3.12824e-19)
(0.32704 0.0555079 -5.91178e-23)
(0.352048 0.0394462 3.07263e-19)
(0.374379 0.0250054 -3.05322e-19)
(0.393855 0.0124257 6.06653e-19)
(0.410412 0.00185314 -3.00156e-19)
(0.424089 -0.0066572 0)
(0.435017 -0.0131313 8.86838e-19)
(0.4434 -0.0176607 -1.46207e-18)
(0.449492 -0.0203866 2.90302e-19)
(0.453562 -0.0214969 2.88111e-19)
(0.455933 -0.0211833 2.83655e-19)
(0.457528 -0.019313 5.87304e-19)
(-0.0140963 0.0250661 -2.69322e-19)
(-0.033056 0.0672383 5.88237e-19)
(-0.0430638 0.104724 3.02372e-19)
(-0.0452531 0.13538 6.92048e-19)
(-0.0401908 0.159021 8.60857e-19)
(-0.0288649 0.175871 1.58744e-19)
(-0.0121952 0.186423 -8.00238e-19)
(0.00897354 0.191289 0)
(0.0338855 0.191133 -6.47037e-19)
(0.0618551 0.186625 -3.22874e-19)
(0.0922384 0.178413 0)
(0.12442 0.167134 -3.21784e-19)
(0.157787 0.153408 -9.37889e-22)
(0.191718 0.137848 -9.60754e-19)
(0.225589 0.121057 3.19191e-19)
(0.258772 0.103626 3.16112e-19)
(0.290665 0.0861193 -6.2697e-19)
(0.320713 0.0690625 -6.23085e-19)
(0.348434 0.0529207 1.01534e-22)
(0.373448 0.0380836 -7.01013e-22)
(0.395496 0.0248532 0)
(0.414442 0.0134387 -3.01492e-19)
(0.430274 0.0039568 -2.97397e-19)
(0.443087 -0.00356235 0)
(0.453065 -0.0091643 0)
(0.460459 -0.0129528 8.74032e-19)
(0.465566 -0.015075 -8.61856e-19)
(0.468689 -0.0157191 0)
(0.470165 -0.0150884 8.46172e-19)
(0.470979 -0.0130729 -5.82323e-19)
(-0.0141754 0.023599 1.99503e-21)
(-0.0331043 0.0631438 -5.88142e-19)
(-0.0428758 0.0983408 -7.51412e-20)
(-0.0444974 0.127157 -7.68583e-19)
(-0.03854 0.14943 -4.69404e-19)
(-0.0260192 0.165352 1.58198e-19)
(-0.00789442 0.175357 3.2061e-19)
(0.0149412 0.179999 8.03001e-19)
(0.0416775 0.179885 6.47037e-19)
(0.0715698 0.175639 6.48021e-19)
(0.103911 0.167877 0)
(0.13802 0.157212 2.40585e-21)
(0.17321 0.144247 0)
(0.208795 0.129581 6.39851e-19)
(0.244079 0.113806 0)
(0.278383 0.0974963 -3.14781e-19)
(0.311066 0.0811995 3.15533e-19)
(0.341553 0.0654153 0)
(0.369368 0.05058 0)
(0.394157 0.0370504 -9.13722e-19)
(0.415703 0.0250947 3.02433e-19)
(0.433926 0.0148893 0)
(0.448872 0.00652233 5.94217e-19)
(0.460698 1.65386e-07 5.9084e-19)
(0.469641 -0.00473934 -1.16794e-18)
(0.476 -0.00780932 1.15722e-18)
(0.480109 -0.00935947 2.02285e-21)
(0.482301 -0.00957523 5.66039e-19)
(0.482926 -0.00866619 -5.63855e-19)
(0.483022 -0.00653864 0)
(-0.0142361 0.0222099 6.73126e-19)
(-0.033026 0.059139 -7.30759e-20)
(-0.0424396 0.0919883 -5.98263e-19)
(-0.0433758 0.118874 0)
(-0.0364184 0.139678 -6.20941e-19)
(-0.0226126 0.154578 0)
(-0.00295632 0.163962 -7.94701e-19)
(0.0216099 0.168329 -4.81922e-19)
(0.0502205 0.168234 -6.42431e-19)
(0.0820681 0.164255 0)
(0.116376 0.156974 1.60843e-19)
(0.152387 0.146977 1.62509e-19)
(0.189338 0.134846 -3.20153e-19)
(0.226465 0.121163 -6.34773e-19)
(0.263005 0.106501 -3.14972e-19)
(0.298228 0.0914129 -1.25353e-18)
(0.331463 0.0764218 6.24342e-19)
(0.362131 0.0619973 3.11318e-22)
(0.389777 0.0485411 1.78401e-22)
(0.414089 0.0363737 9.12327e-19)
(0.434905 0.0257277 0)
(0.452212 0.0167471 0)
(0.466123 0.00949307 -1.26465e-21)
(0.476854 0.00395092 1.78955e-21)
(0.484698 4.57725e-05 -5.79217e-19)
(0.489995 -0.00234191 -5.75704e-19)
(0.493112 -0.00336089 1.31224e-21)
(0.494405 -0.0031926 -5.66036e-19)
(0.494228 -0.00205018 -5.59082e-19)
(0.493654 0.000140281 1.42054e-21)
(-0.0142821 0.0209033 0)
(-0.0328128 0.0552483 5.81821e-19)
(-0.0417206 0.0857195 5.23566e-19)
(-0.0418218 0.110613 7.61261e-20)
(-0.0337256 0.129876 1.23964e-18)
(-0.0185105 0.143683 -1.5708e-19)
(0.00278491 0.152389 1.26871e-18)
(0.0291709 0.156445 6.3759e-19)
(0.0597224 0.156355 9.63015e-19)
(0.0935631 0.152655 4.80266e-19)
(0.129838 0.145888 1.60227e-19)
(0.167706 0.136611 8.00467e-19)
(0.206319 0.125383 -7.53452e-22)
(0.244833 0.112762 3.17647e-19)
(0.282421 0.0992956 6.30629e-19)
(0.318311 0.0855109 6.26063e-19)
(0.351817 0.0718986 0)
(0.382374 0.0588932 0)
(0.409565 0.0468586 0)
(0.433138 0.0360767 0)
(0.453 0.0267444 5.97674e-19)
(0.469212 0.0189756 0)
(0.481956 0.0128069 -1.71172e-21)
(0.491512 0.00820709 1.16438e-18)
(0.498218 0.00509254 5.77363e-19)
(0.502452 0.00334072 5.71898e-19)
(0.504602 0.00280668 1.13328e-18)
(0.505043 0.00331547 0)
(0.504128 0.00465127 -1.10946e-18)
(0.502951 0.00687056 1.14382e-18)
(-0.0143137 0.0196788 5.32736e-19)
(-0.0324515 0.0514877 -5.81835e-19)
(-0.0406799 0.0795786 0)
(-0.0397658 0.10245 -6.06133e-19)
(-0.0303588 0.12013 -1.56785e-19)
(-0.0135782 0.132801 -4.68276e-19)
(0.00949192 0.140795 -1.42209e-18)
(0.0378071 0.144521 -2.36235e-21)
(0.0703756 0.144436 -4.77813e-19)
(0.106243 0.141032 -1.11953e-18)
(0.144468 0.134815 -1.59917e-19)
(0.184115 0.126311 -6.35933e-19)
(0.224247 0.116048 -6.33101e-19)
(0.263942 0.104555 0)
(0.302319 0.0923495 -6.25292e-19)
(0.338578 0.0799258 -9.31411e-19)
(0.372037 0.0677378 3.08846e-19)
(0.402167 0.0561805 -6.10653e-19)
(0.42861 0.0455771 -6.05429e-19)
(0.451187 0.0361713 0)
(0.469887 0.0281261 -1.19243e-18)
(0.484849 0.0215283 0)
(0.496328 0.0163943 -1.1725e-18)
(0.504656 0.0126819 -5.80091e-19)
(0.510215 0.0103018 -1.14892e-18)
(0.51341 0.00913405 5.69176e-19)
(0.514644 0.00903813 -1.68985e-18)
(0.514293 0.0098477 5.56091e-19)
(0.512707 0.0113424 3.32158e-21)
(0.510988 0.0135571 -5.67988e-19)
(-0.0143283 0.0185314 -5.32748e-19)
(-0.0319243 0.0478649 7.23678e-20)
(-0.0392749 0.0736002 5.17542e-19)
(-0.0371369 0.0944507 6.06146e-19)
(-0.0262179 0.110535 -6.16415e-19)
(-0.00768805 0.122057 2.39481e-21)
(0.0173137 0.12933 6.30861e-19)
(0.0476796 0.132726 -1.26776e-18)
(0.0823408 0.13266 -1.56424e-19)
(0.120254 0.12958 1.43359e-18)
(0.16038 0.123954 -9.53006e-19)
(0.201686 0.116271 1.58686e-18)
(0.243144 0.107025 1.57897e-18)
(0.283763 0.0967117 -3.14469e-19)
(0.322621 0.0858118 6.25287e-19)
(0.358913 0.0747809 9.30026e-19)
(0.391985 0.0640323 3.05499e-19)
(0.421364 0.053919 2.80169e-21)
(0.446772 0.0447237 3.03528e-19)
(0.468116 0.036653 2.99455e-19)
(0.485475 0.0298397 -2.93689e-19)
(0.499069 0.0243476 2.93942e-19)
(0.509217 0.020179 -5.80805e-19)
(0.516302 0.0172849 5.78397e-19)
(0.520741 0.0155762 3.22535e-21)
(0.522949 0.0149382 5.6403e-19)
(0.523335 0.0152382 3.32554e-21)
(0.522269 0.0163181 -5.54187e-19)
(0.520087 0.0179512 1.88272e-21)
(0.517894 0.0201486 0)
(-0.0143193 0.0174523 0)
(-0.0312092 0.0443802 0)
(-0.037461 0.067809 -6.65465e-19)
(-0.033866 0.0866688 7.52702e-20)
(-0.0212098 0.101178 0)
(-0.000727027 0.111566 6.22264e-19)
(0.026376 0.118134 1.56785e-19)
(0.0589155 0.121223 4.74787e-19)
(0.0957326 0.121205 6.35042e-19)
(0.135684 0.118486 -6.35804e-19)
(0.177623 0.113492 6.35133e-19)
(0.220417 0.106674 -6.33252e-19)
(0.262955 0.0984866 -6.30387e-19)
(0.304191 0.0893853 0)
(0.343184 0.0798108 0)
(0.379148 0.0701761 0)
(0.411484 0.0608509 -6.12972e-19)
(0.439798 0.0521458 9.10883e-19)
(0.463905 0.0443043 -3.00763e-19)
(0.483813 0.0374991 0)
(0.499693 0.0318377 8.86946e-19)
(0.51184 0.027366 -2.92453e-19)
(0.520635 0.0240785 5.80809e-19)
(0.526502 0.0219238 -1.14578e-18)
(0.529874 0.0208201 1.13759e-18)
(0.531177 0.0206604 -1.49514e-21)
(0.530804 0.0213238 1.83625e-21)
(0.529111 0.0226585 5.50811e-19)
(0.526408 0.024425 -4.94073e-22)
(0.523797 0.0266117 5.61246e-19)
(-0.0142773 0.0164297 6.59958e-20)
(-0.0302799 0.0410275 -7.17025e-20)
(-0.0351926 0.0622204 1.47157e-19)
(-0.0298886 0.0791475 -8.99242e-19)
(-0.0152531 0.0921304 1.52499e-19)
(0.0073972 0.101429 0)
(0.0367726 0.107335 6.23331e-19)
(0.0715976 0.110158 -6.27418e-19)
(0.110609 0.11023 0)
(0.15255 0.107915 7.88133e-19)
(0.196166 0.103596 -1.5792e-19)
(0.240226 0.0976791 0)
(0.283548 0.0905766 -3.1269e-19)
(0.325054 0.0827 6.22568e-19)
(0.363811 0.0744457 -3.0955e-19)
(0.399078 0.0661818 3.06538e-19)
(0.430338 0.058234 -6.08789e-19)
(0.457297 0.0508721 4.42868e-22)
(0.479877 0.0443028 3.39972e-22)
(0.498188 0.03867 -2.94795e-19)
(0.512494 0.0340605 -5.87212e-19)
(0.523163 0.0305089 2.06336e-22)
(0.530625 0.028006 1.67601e-21)
(0.535333 0.0265065 5.72042e-19)
(0.537732 0.0259389 -5.64786e-19)
(0.538235 0.0262121 5.60788e-19)
(0.537213 0.0272223 -1.10662e-18)
(0.534981 0.0288231 -1.89071e-21)
(0.531827 0.0307591 -1.08254e-18)
(0.528818 0.0329786 5.58206e-19)
(-0.0141887 0.0154492 0)
(-0.0291065 0.0377949 -5.70522e-19)
(-0.0324243 0.0568408 0)
(-0.0251463 0.0719179 2.45769e-21)
(-0.00828146 0.0834517 1.52079e-19)
(0.0167514 0.0917303 1.13486e-22)
(0.0485598 0.0970386 -1.24401e-18)
(0.0857588 0.0996558 4.70883e-19)
(0.126966 0.0998737 0)
(0.170804 0.0980109 -7.8743e-19)
(0.215908 0.0944047 1.57213e-19)
(0.26096 0.0894155 0)
(0.304729 0.0834077 -3.11244e-19)
(0.346129 0.0767465 3.10241e-19)
(0.384267 0.0697818 3.06606e-19)
(0.41848 0.0628362 6.10848e-19)
(0.448351 0.0561934 -3.03235e-19)
(0.473703 0.0500846 0)
(0.494574 0.0446841 0)
(0.51118 0.0401124 5.91376e-19)
(0.523867 0.0364408 -5.84126e-19)
(0.533068 0.0336978 5.78835e-19)
(0.539255 0.0318753 5.74515e-19)
(0.542901 0.0309392 5.67089e-19)
(0.544451 0.0308346 -5.6135e-19)
(0.5443 0.0314979 5.57248e-19)
(0.542773 0.0328538 5.49817e-19)
(0.540105 0.0347808 -5.43866e-19)
(0.536467 0.0370682 1.42248e-21)
(0.532738 0.0395539 1.11116e-18)
(-0.0140408 0.0144987 6.54734e-20)
(-0.0276595 0.03467 4.99553e-19)
(-0.0291145 0.051672 0)
(-0.0195911 0.0650029 5.96789e-19)
(-0.000247299 0.0751877 0)
(0.027373 0.0825399 0)
(0.0617529 0.0873347 4.65947e-19)
(0.10138 0.0898201 1.15775e-22)
(0.144738 0.0902465 1.56476e-19)
(0.190328 0.0888857 1.56361e-19)
(0.236679 0.0860261 -4.68761e-19)
(0.282404 0.0819783 3.12058e-19)
(0.326251 0.0770577 0)
(0.36716 0.0715811 0)
(0.404305 0.0658519 -6.14017e-19)
(0.43713 0.0601489 0)
(0.465339 0.0547167 -3.0122e-19)
(0.488883 0.0497515 2.99158e-19)
(0.507918 0.0454009 2.96028e-19)
(0.522758 0.0417671 -3.29867e-22)
(0.533828 0.038911 -2.9078e-19)
(0.541612 0.0368574 0)
(0.546613 0.035605 -5.69524e-19)
(0.549318 0.035131 5.63934e-19)
(0.550171 0.0354031 0)
(0.549558 0.0363923 0)
(0.547784 0.0380747 0)
(0.545041 0.0404268 0)
(0.541272 0.0433274 -5.34642e-19)
(0.537271 0.0472048 1.10425e-18)
(0.156587 0.0510663 -0.0165482)
(0.194699 0.0554087 -0.0169622)
(0.222985 0.0716344 -0.0170394)
(0.238373 0.090613 -0.0170722)
(0.247316 0.108624 -0.0170358)
(0.250768 0.123654 -0.0169711)
(0.250736 0.135672 -0.0168722)
(0.24827 0.145692 -0.0167505)
(0.244136 0.154766 -0.0166117)
(0.238817 0.163469 -0.0164614)
(0.232562 0.171981 -0.0163032)
(0.225576 0.18025 -0.0161406)
(0.217933 0.188176 -0.0159803)
(0.209782 0.195688 -0.0158244)
(0.201105 0.202745 -0.015673)