/*--------------------------------*- C++ -*----------------------------------*\
  =========                 |
  \\      /  F ield         | OpenFOAM: The Open Source CFD Toolbox
   \\    /   O peration     | Website:  https://openfoam.org
    \\  /    A nd           | Version:  7
     \\/     M anipulation  |
\*---------------------------------------------------------------------------*/
FoamFile
{
    version     2.0;
    format      ascii;
    class       volScalarField;
    location    "3.6";
    object      p;
}
// * * * * * * * * * * * * * * * * * * * * * * * * * * * * * * * * * * * * * //

dimensions      [0 2 -2 0 0 0 0];

internalField   nonuniform List<scalar> 
32000
(
0.794027
0.792899
0.792724
0.792725
0.792995
0.793495
0.794191
0.795056
0.79606
0.797175
0.798381
0.799671
0.801056
0.802548
0.804153
0.805865
0.807673
0.809564
0.811521
0.813533
0.815591
0.817689
0.819821
0.821981
0.824156
0.826336
0.828507
0.830661
0.832791
0.834892
0.836958
0.83898
0.840954
0.842872
0.844735
0.846537
0.848274
0.849954
0.851561
0.852938
0.792712
0.791654
0.791511
0.791539
0.791831
0.792342
0.793037
0.793885
0.794861
0.795938
0.797092
0.798316
0.799618
0.801013
0.802507
0.804099
0.80578
0.807537
0.809357
0.811229
0.813144
0.815099
0.817091
0.819117
0.821168
0.823233
0.8253
0.827357
0.829399
0.831419
0.833413
0.835372
0.837291
0.839164
0.840988
0.842757
0.844467
0.846124
0.847711
0.849076
0.791327
0.79036
0.790251
0.79031
0.790625
0.791148
0.791843
0.792673
0.793618
0.794653
0.79575
0.796903
0.798121
0.799418
0.800799
0.802266
0.803814
0.805431
0.807108
0.808835
0.810604
0.812412
0.81426
0.816148
0.81807
0.820017
0.821975
0.823933
0.825885
0.827824
0.829746
0.831642
0.833507
0.835337
0.837126
0.838866
0.840553
0.84219
0.843761
0.845118
0.78989
0.789009
0.788935
0.78903
0.789371
0.789908
0.790603
0.791418
0.792331
0.793317
0.794355
0.795436
0.79657
0.797765
0.799031
0.80037
0.801779
0.803252
0.804781
0.806357
0.807974
0.809632
0.811332
0.813079
0.814869
0.816694
0.81854
0.820397
0.822256
0.824113
0.825961
0.827796
0.829611
0.8314
0.833155
0.83487
0.836536
0.838158
0.839719
0.84107
0.788417
0.787634
0.787597
0.787726
0.788092
0.788642
0.789334
0.790132
0.791008
0.791943
0.792917
0.793924
0.794969
0.796062
0.797208
0.798415
0.799682
0.801007
0.802383
0.803804
0.805265
0.806767
0.808317
0.809921
0.811577
0.813276
0.815006
0.816757
0.818521
0.820294
0.82207
0.823845
0.825611
0.827361
0.829086
0.830777
0.832426
0.834037
0.835592
0.836942
0.786896
0.786216
0.786217
0.786382
0.786773
0.787335
0.788026
0.788805
0.789645
0.790528
0.791438
0.792368
0.793323
0.79431
0.795336
0.796409
0.797532
0.798705
0.799925
0.801185
0.802485
0.803829
0.805227
0.806686
0.808204
0.809774
0.811384
0.813026
0.814693
0.816381
0.818086
0.819801
0.821519
0.823231
0.824927
0.826598
0.828233
0.829836
0.83139
0.832742
0.78534
0.784771
0.784812
0.785014
0.78543
0.786007
0.786694
0.787453
0.788256
0.789086
0.789929
0.79078
0.791643
0.792523
0.793426
0.794363
0.79534
0.796359
0.797417
0.798512
0.799647
0.800832
0.802077
0.803389
0.804767
0.806203
0.80769
0.80922
0.810788
0.812391
0.814023
0.81568
0.81735
0.819025
0.820693
0.822345
0.823969
0.825568
0.827126
0.828483
0.783754
0.783303
0.783385
0.783627
0.784068
0.784658
0.785341
0.786079
0.786846
0.787622
0.788398
0.789168
0.789936
0.790707
0.791487
0.792288
0.793118
0.793979
0.794871
0.795797
0.796766
0.797791
0.798882
0.800045
0.801279
0.802579
0.803939
0.805355
0.806824
0.808341
0.809902
0.811498
0.813121
0.814758
0.8164
0.818035
0.81965
0.821247
0.822811
0.824176
0.782144
0.781815
0.781941
0.782222
0.782689
0.783292
0.783972
0.784689
0.785418
0.786142
0.78685
0.787538
0.78821
0.788871
0.789529
0.790194
0.790875
0.791576
0.7923
0.793057
0.793859
0.794723
0.795658
0.79667
0.797758
0.79892
0.800152
0.801453
0.802822
0.804253
0.80574
0.807276
0.80885
0.81045
0.812066
0.813685
0.815292
0.816888
0.818462
0.819837
0.780513
0.780311
0.780482
0.780803
0.781296
0.781911
0.782588
0.783286
0.78398
0.784652
0.785292
0.785898
0.786474
0.787026
0.787562
0.788091
0.788623
0.789163
0.789719
0.790306
0.790943
0.791645
0.792424
0.793283
0.794223
0.795244
0.796348
0.797535
0.798802
0.800146
0.80156
0.803034
0.804558
0.806121
0.80771
0.809313
0.810914
0.81251
0.814095
0.81548
0.778868
0.778796
0.779011
0.779374
0.779892
0.780518
0.781193
0.781874
0.782535
0.783158
0.783731
0.784256
0.784737
0.785181
0.785596
0.785991
0.786374
0.786753
0.787141
0.787561
0.788033
0.788575
0.789196
0.7899
0.790692
0.791574
0.79255
0.793622
0.794788
0.796044
0.797383
0.798795
0.800268
0.801793
0.803355
0.804942
0.806536
0.808131
0.809726
0.811123
0.777214
0.777272
0.777533
0.777936
0.778479
0.779117
0.779791
0.780458
0.781089
0.781664
0.782174
0.782619
0.783007
0.783345
0.783642
0.783904
0.78414
0.784359
0.784583
0.784838
0.785149
0.78553
0.785993
0.786543
0.787188
0.787932
0.78878
0.789737
0.790803
0.791971
0.793234
0.794582
0.796003
0.797488
0.799023
0.800593
0.802177
0.80377
0.805375
0.806782
0.775555
0.775743
0.77605
0.776493
0.77706
0.77771
0.778386
0.779042
0.779646
0.780176
0.780625
0.780994
0.781293
0.781529
0.78171
0.781842
0.781932
0.781996
0.78206
0.782155
0.782305
0.782527
0.782833
0.783231
0.78373
0.784337
0.785061
0.785905
0.786869
0.787949
0.789135
0.790418
0.791787
0.793231
0.794736
0.796287
0.797859
0.799447
0.801058
0.802475
0.773897
0.774212
0.774565
0.775048
0.775639
0.776302
0.776982
0.77763
0.77821
0.7787
0.779092
0.77939
0.779602
0.77974
0.779808
0.779813
0.779763
0.779678
0.779587
0.779526
0.779519
0.779584
0.779735
0.779983
0.780339
0.780813
0.781414
0.782147
0.783011
0.784002
0.785111
0.786327
0.787642
0.789043
0.790517
0.792045
0.793602
0.795181
0.796795
0.798218
0.772243
0.772681
0.773079
0.773602
0.774218
0.774897
0.775584
0.776226
0.776786
0.77724
0.77758
0.777811
0.777943
0.777986
0.777946
0.777829
0.777645
0.777417
0.777179
0.776966
0.776805
0.776717
0.776716
0.776818
0.777035
0.777379
0.77786
0.778483
0.779249
0.780151
0.781181
0.78233
0.783589
0.784946
0.786386
0.787888
0.789426
0.79099
0.792602
0.79403
0.770596
0.77115
0.771593
0.772156
0.772801
0.773498
0.774193
0.774833
0.775377
0.775801
0.776096
0.776266
0.776323
0.776276
0.776132
0.775898
0.775587
0.775224
0.774846
0.774487
0.774178
0.77394
0.773793
0.773752
0.773835
0.774053
0.774418
0.774934
0.7756
0.776413
0.777365
0.778447
0.779649
0.780959
0.782361
0.783833
0.785346
0.78689
0.788494
0.789925
0.768957
0.769622
0.770109
0.770714
0.771388
0.772106
0.772813
0.773454
0.773987
0.774386
0.774643
0.774759
0.774746
0.774614
0.774372
0.774029
0.773599
0.77311
0.772598
0.772101
0.771649
0.771267
0.770978
0.770801
0.770754
0.770851
0.771102
0.771513
0.772082
0.772806
0.773679
0.774693
0.775837
0.777098
0.778459
0.779895
0.781377
0.782894
0.784482
0.785907
0.767329
0.768096
0.768627
0.769274
0.769981
0.770723
0.771445
0.772091
0.772618
0.773
0.773224
0.773293
0.773216
0.773005
0.772672
0.772227
0.771687
0.771081
0.770444
0.769814
0.769226
0.768706
0.768281
0.767974
0.767803
0.767784
0.767926
0.768233
0.768706
0.769342
0.770137
0.771082
0.772167
0.773377
0.774692
0.776087
0.777532
0.779015
0.780578
0.78199
0.765714
0.766573
0.767147
0.767839
0.768581
0.769349
0.770088
0.770744
0.771271
0.771642
0.771842
0.77187
0.771736
0.771453
0.771036
0.770497
0.769856
0.76914
0.768386
0.767632
0.766914
0.766264
0.76571
0.76528
0.764992
0.764862
0.764897
0.765103
0.765482
0.766032
0.76675
0.767626
0.76865
0.769805
0.77107
0.772418
0.77382
0.77526
0.776791
0.778186
0.764112
0.765054
0.765671
0.766408
0.767187
0.767984
0.768744
0.769413
0.769946
0.770312
0.770495
0.77049
0.770306
0.769958
0.769464
0.768841
0.768107
0.76729
0.766427
0.765556
0.764716
0.763943
0.763269
0.762723
0.762325
0.762088
0.762021
0.762129
0.762416
0.762882
0.763524
0.764331
0.765292
0.766389
0.767599
0.768896
0.770248
0.771639
0.773126
0.774497
0.762524
0.763538
0.764197
0.76498
0.765799
0.766627
0.767411
0.768097
0.768641
0.76901
0.769181
0.76915
0.768924
0.76852
0.767958
0.767257
0.766438
0.765529
0.764565
0.763585
0.762632
0.761744
0.760958
0.760303
0.759801
0.759463
0.759298
0.759312
0.759511
0.759896
0.760462
0.7612
0.762096
0.763132
0.764283
0.765523
0.766819
0.768154
0.769591
0.770931
0.760949
0.762025
0.762725
0.763556
0.764415
0.765276
0.766087
0.766796
0.767356
0.767731
0.767898
0.767848
0.767588
0.767136
0.766514
0.765744
0.764848
0.763853
0.762796
0.761717
0.760659
0.759665
0.758775
0.758019
0.757418
0.756984
0.756725
0.756651
0.756766
0.757071
0.757562
0.75823
0.75906
0.760032
0.761122
0.762301
0.763536
0.764808
0.766187
0.767493
0.759387
0.760515
0.761255
0.762132
0.763034
0.763931
0.764773
0.765507
0.766087
0.766475
0.766643
0.766581
0.766294
0.765802
0.765128
0.764296
0.763329
0.762257
0.761115
0.759944
0.758791
0.757699
0.756712
0.755862
0.755168
0.754644
0.754298
0.754139
0.754174
0.754403
0.754821
0.755418
0.75618
0.757087
0.758112
0.759225
0.760394
0.761599
0.762911
0.764167
0.757838
0.759007
0.759785
0.760708
0.761653
0.762589
0.763464
0.764228
0.764832
0.765236
0.765411
0.765342
0.765037
0.764512
0.763793
0.762905
0.761875
0.760733
0.759514
0.75826
0.757019
0.755838
0.754761
0.753823
0.753043
0.752434
0.752006
0.751768
0.751727
0.751882
0.752229
0.752756
0.75345
0.754289
0.755247
0.756292
0.757392
0.758524
0.759765
0.760972
0.756299
0.7575
0.758313
0.759281
0.760271
0.761248
0.76216
0.762956
0.763587
0.764011
0.764196
0.764127
0.763809
0.763258
0.762501
0.761563
0.760476
0.75927
0.757981
0.756652
0.755331
0.754068
0.752909
0.751889
0.751029
0.750341
0.749837
0.749527
0.749414
0.749499
0.749775
0.750234
0.75086
0.751631
0.75252
0.753494
0.754521
0.755579
0.756743
0.757898
0.75477
0.755992
0.756838
0.75785
0.758884
0.759904
0.760855
0.761686
0.762347
0.762793
0.762992
0.762927
0.762602
0.762031
0.76124
0.760259
0.759119
0.757856
0.756504
0.755107
0.753714
0.752376
0.751142
0.750047
0.749112
0.748352
0.747779
0.7474
0.747221
0.747239
0.747448
0.74784
0.748398
0.749102
0.74992
0.750822
0.751774
0.752754
0.753838
0.754934
0.753247
0.754482
0.755357
0.75641
0.75749
0.758553
0.759546
0.760413
0.761106
0.761577
0.761793
0.761736
0.761406
0.760818
0.759998
0.758978
0.757792
0.756477
0.755069
0.75361
0.752151
0.750746
0.749444
0.74828
0.747278
0.746451
0.745814
0.745374
0.745132
0.745088
0.745234
0.745561
0.746054
0.746689
0.747436
0.748264
0.749141
0.750041
0.75104
0.752074
0.751726
0.752964
0.753866
0.754958
0.756083
0.757192
0.758227
0.759134
0.759859
0.760357
0.760591
0.760543
0.760211
0.759609
0.758763
0.757707
0.75648
0.755118
0.753659
0.752145
0.750628
0.749162
0.747798
0.746572
0.745508
0.744623
0.743928
0.743431
0.743133
0.74303
0.743117
0.743382
0.743811
0.744379
0.745055
0.745809
0.746609
0.747429
0.748343
0.749311
0.750203
0.751436
0.752361
0.753492
0.754662
0.755816
0.756895
0.757841
0.758599
0.759123
0.759377
0.759339
0.759006
0.758391
0.757521
0.756433
0.755169
0.753765
0.75226
0.750696
0.749126
0.747607
0.746188
0.744907
0.743788
0.742849
0.742103
0.741554
0.741205
0.741049
0.74108
0.741287
0.741653
0.742155
0.742762
0.743442
0.744166
0.744908
0.745738
0.746639
0.748671
0.749892
0.75084
0.752006
0.753219
0.75442
0.755544
0.756529
0.757319
0.757869
0.758141
0.758113
0.757778
0.757151
0.756259
0.755142
0.753843
0.752401
0.750854
0.749246
0.747631
0.746065
0.744598
0.743267
0.7421
0.741114
0.740322
0.739728
0.739332
0.739127
0.739106
0.739257
0.739564
0.740002
0.740541
0.74115
0.741801
0.742468
0.743215
0.744051
0.747125
0.748329
0.749296
0.750495
0.751752
0.752999
0.754167
0.75519
0.756013
0.756587
0.756875
0.756854
0.756517
0.755878
0.754965
0.753821
0.75249
0.751013
0.749429
0.747781
0.746126
0.744519
0.74301
0.741638
0.740429
0.739403
0.73857
0.737935
0.737496
0.737247
0.737177
0.737276
0.737525
0.737902
0.738375
0.738917
0.7395
0.740096
0.740767
0.741541
0.745558
0.746742
0.747727
0.748957
0.750255
0.751547
0.752759
0.75382
0.754672
0.755268
0.755571
0.755555
0.755213
0.75456
0.753626
0.752456
0.751096
0.749587
0.747969
0.746287
0.744597
0.742956
0.741412
0.740004
0.73876
0.737698
0.73683
0.736159
0.735682
0.735391
0.735276
0.735324
0.735519
0.735836
0.736249
0.736728
0.737249
0.737782
0.738384
0.739102
0.743965
0.745126
0.746127
0.747386
0.748724
0.75006
0.751313
0.75241
0.753291
0.753907
0.754219
0.754204
0.753855
0.753186
0.752232
0.751037
0.74965
0.748111
0.746462
0.744751
0.743032
0.741362
0.73979
0.738353
0.737079
0.735988
0.735089
0.734386
0.733874
0.733544
0.733386
0.733386
0.733527
0.733788
0.734143
0.734566
0.735031
0.73551
0.736055
0.736729
0.742339
0.743477
0.744493
0.74578
0.747155
0.748533
0.749825
0.750956
0.751862
0.752494
0.752812
0.752794
0.752433
0.751747
0.750771
0.749552
0.748139
0.746574
0.744898
0.743162
0.741419
0.739727
0.738132
0.736672
0.735375
0.73426
0.733335
0.732602
0.732057
0.731691
0.73149
0.731443
0.731532
0.731739
0.732041
0.732413
0.73283
0.733267
0.733769
0.734414
0.740673
0.741791
0.742821
0.744134
0.745545
0.746961
0.748289
0.74945
0.750379
0.751022
0.751341
0.751315
0.75094
0.750234
0.749235
0.747993
0.746556
0.744966
0.743268
0.741511
0.739749
0.73804
0.736429
0.734952
0.733638
0.732502
0.731555
0.730796
0.73022
0.729816
0.729574
0.729479
0.729517
0.729672
0.729922
0.730247
0.730625
0.73103
0.731507
0.732144
0.738962
0.740062
0.741107
0.742446
0.74389
0.74534
0.7467
0.747889
0.748835
0.749484
0.749799
0.74976
0.749366
0.748638
0.747617
0.746352
0.744892
0.743281
0.741564
0.73979
0.738016
0.736295
0.734673
0.733186
0.731858
0.730708
0.729741
0.728957
0.728349
0.727908
0.727622
0.727478
0.727464
0.727565
0.727765
0.728046
0.72839
0.728775
0.729244
0.729899
0.7372
0.738288
0.739348
0.740712
0.742185
0.743665
0.745054
0.746265
0.747223
0.747873
0.74818
0.748124
0.747708
0.746956
0.745911
0.744624
0.743143
0.741514
0.739782
0.737997
0.736214
0.734487
0.73286
0.731366
0.73003
0.728867
0.727883
0.727074
0.726435
0.725954
0.725622
0.725426
0.725356
0.725401
0.725547
0.725783
0.726096
0.726469
0.726948
0.727649
0.735381
0.736464
0.73754
0.738927
0.740427
0.741934
0.743347
0.744575
0.745539
0.746185
0.746477
0.7464
0.745959
0.745181
0.744113
0.742804
0.741306
0.739662
0.737918
0.736127
0.734341
0.732614
0.730986
0.72949
0.728148
0.726976
0.725974
0.725141
0.724468
0.723946
0.723563
0.72331
0.723178
0.723158
0.723242
0.723424
0.723702
0.72407
0.724581
0.725369
0.733501
0.734587
0.735679
0.737089
0.738613
0.740144
0.741576
0.742815
0.743779
0.744415
0.744689
0.744587
0.744118
0.743313
0.742221
0.740893
0.739379
0.737723
0.735973
0.73418
0.732397
0.730674
0.729049
0.727553
0.726209
0.725027
0.724009
0.72315
0.722442
0.721875
0.721438
0.721121
0.720917
0.72082
0.720824
0.720929
0.721145
0.721494
0.722077
0.723064
0.73156
0.732655
0.733764
0.735196
0.736742
0.738292
0.739738
0.740982
0.741941
0.742562
0.742812
0.742681
0.742183
0.741352
0.740237
0.738892
0.737364
0.735701
0.733949
0.73216
0.730384
0.728668
0.72705
0.725557
0.724211
0.723021
0.721986
0.7211
0.720354
0.719739
0.719244
0.718857
0.718571
0.71838
0.718278
0.718262
0.718343
0.718549
0.718995
0.720118
0.857205
0.864805
0.868883
0.873248
0.876081
0.878592
0.880476
0.882078
0.883383
0.884478
0.885371
0.886153
0.886786
0.887278
0.887632
0.887865
0.88799
0.888
0.887928
0.887768
0.887535
0.887218
0.886813
0.886336
0.88578
0.885132
0.884374
0.883497
0.882504
0.881375
0.880108
0.878692
0.877116
0.8754
0.873534
0.871561
0.869473
0.867366
0.865283
0.863545
0.85337
0.861484
0.865881
0.870481
0.873495
0.876102
0.878084
0.87972
0.881075
0.882217
0.883165
0.883968
0.884621
0.885153
0.885546
0.885803
0.885944
0.885987
0.885943
0.885815
0.885602
0.885304
0.884928
0.88448
0.883945
0.883318
0.882583
0.881723
0.880738
0.879625
0.87837
0.876963
0.875398
0.873687
0.871831
0.869872
0.867792
0.86569
0.863618
0.861882
0.849426
0.858112
0.862831
0.867685
0.870882
0.873595
0.875675
0.877352
0.878757
0.879943
0.880944
0.881768
0.882446
0.883016
0.883449
0.883734
0.883894
0.883973
0.883957
0.883861
0.883669
0.883394
0.883048
0.882628
0.882111
0.881505
0.880792
0.879951
0.878978
0.877882
0.876642
0.875248
0.873698
0.871997
0.870154
0.868211
0.866143
0.864047
0.861987
0.860254
0.845374
0.854693
0.859726
0.86487
0.868237
0.871077
0.87324
0.874983
0.876434
0.877658
0.8787
0.879557
0.880272
0.880872
0.881335
0.881654
0.881848
0.881957
0.881969
0.881901
0.881738
0.88149
0.881172
0.880774
0.880281
0.879695
0.879001
0.878182
0.877229
0.876149
0.874926
0.873547
0.872014
0.870329
0.868505
0.866574
0.864522
0.862436
0.860387
0.858661
0.841221
0.851228
0.856577
0.862031
0.865567
0.868545
0.870787
0.872606
0.874102
0.875364
0.876442
0.877337
0.878092
0.87872
0.879213
0.879569
0.8798
0.879939
0.87998
0.879938
0.879807
0.879588
0.879297
0.878922
0.878452
0.877888
0.877213
0.876416
0.875487
0.874425
0.87322
0.871861
0.870348
0.868683
0.866879
0.864962
0.862928
0.860854
0.858816
0.8571
0.836976
0.847716
0.85339
0.859164
0.862878
0.865993
0.868322
0.870215
0.87176
0.873062
0.874177
0.875111
0.875904
0.876564
0.877087
0.87748
0.877749
0.877918
0.877989
0.877974
0.877876
0.877687
0.877423
0.877072
0.876625
0.876084
0.87543
0.874657
0.873751
0.872711
0.871527
0.870189
0.868699
0.867056
0.865275
0.863374
0.86136
0.8593
0.857273
0.855566
0.832646
0.844161
0.85017
0.856271
0.86017
0.863425
0.865845
0.867811
0.869408
0.870754
0.871906
0.872879
0.873708
0.874402
0.874958
0.875387
0.875694
0.875895
0.875997
0.876011
0.875944
0.875786
0.875548
0.875223
0.8748
0.874283
0.873653
0.872903
0.872023
0.871005
0.869845
0.868531
0.867067
0.865447
0.863691
0.861809
0.859816
0.857773
0.855758
0.854061
0.828242
0.840568
0.846917
0.853353
0.857443
0.860839
0.863356
0.865396
0.867048
0.868438
0.86963
0.870641
0.871507
0.872235
0.872825
0.87329
0.873634
0.873867
0.874002
0.874046
0.874011
0.873886
0.873674
0.873376
0.872978
0.872485
0.87188
0.871156
0.870302
0.869309
0.868175
0.866886
0.865449
0.863857
0.862128
0.860267
0.858297
0.856273
0.854272
0.852583
0.823774
0.836939
0.843636
0.85041
0.854698
0.858238
0.860856
0.862971
0.86468
0.866116
0.867349
0.868398
0.8693
0.870064
0.870689
0.87119
0.871571
0.871837
0.872004
0.872081
0.872078
0.871986
0.871802
0.871531
0.871158
0.870691
0.870113
0.869415
0.868588
0.867622
0.866516
0.865255
0.863846
0.862283
0.860584
0.858748
0.856801
0.854798
0.852813
0.851132
0.819256
0.83328
0.840328
0.847446
0.851936
0.855621
0.858344
0.860536
0.862306
0.863789
0.865064
0.866151
0.86709
0.867888
0.868551
0.869087
0.869504
0.869803
0.870003
0.870115
0.870145
0.870086
0.869929
0.869687
0.869342
0.868901
0.868351
0.867679
0.86688
0.865943
0.864865
0.863636
0.862257
0.860725
0.859057
0.857249
0.855328
0.853348
0.851381
0.849706
0.814703
0.829596
0.836999
0.84446
0.849158
0.852991
0.855822
0.858094
0.859925
0.861459
0.862776
0.863901
0.864878
0.865711
0.866411
0.866982
0.867434
0.867768
0.868
0.868148
0.86821
0.868185
0.868057
0.867844
0.867528
0.867114
0.866592
0.865947
0.865178
0.864272
0.863223
0.862027
0.86068
0.859183
0.857548
0.855771
0.853879
0.851922
0.849974
0.848307
0.810131
0.825893
0.833653
0.841457
0.846364
0.850347
0.853291
0.855645
0.857541
0.859125
0.860487
0.86165
0.862665
0.863534
0.864272
0.864877
0.865362
0.86573
0.865996
0.866179
0.866274
0.866284
0.866185
0.866002
0.865716
0.865329
0.864836
0.86422
0.863481
0.862607
0.86159
0.860428
0.859115
0.857655
0.856056
0.854314
0.852451
0.85052
0.848594
0.846935
0.805559
0.822177
0.830293
0.838437
0.843557
0.847693
0.850751
0.85319
0.855153
0.856791
0.858197
0.859399
0.860453
0.861358
0.862133
0.862772
0.86329
0.863692
0.863991
0.86421
0.864337
0.864381
0.864313
0.86416
0.863905
0.863545
0.863082
0.862497
0.861788
0.860947
0.859965
0.85884
0.857562
0.856142
0.854581
0.852876
0.851045
0.849141
0.847239
0.845588
0.801006
0.818455
0.826926
0.835403
0.840738
0.845028
0.848203
0.850732
0.852763
0.854455
0.855907
0.857149
0.858242
0.859184
0.859996
0.860668
0.861218
0.861654
0.861986
0.862241
0.8624
0.862477
0.862441
0.862318
0.862096
0.861763
0.861331
0.860777
0.860099
0.859293
0.858348
0.857261
0.856021
0.854642
0.853123
0.851457
0.84966
0.847786
0.845909
0.844268
0.7965
0.814736
0.823557
0.832358
0.837907
0.842354
0.845649
0.84827
0.850372
0.85212
0.853617
0.854901
0.856032
0.857012
0.857859
0.858564
0.859146
0.859616
0.859981
0.860271
0.860462
0.860572
0.860569
0.860476
0.860287
0.859983
0.85958
0.85906
0.858416
0.857645
0.856737
0.855691
0.854492
0.853157
0.851681
0.850056
0.848297
0.846455
0.844604
0.842973
0.792058
0.811032
0.82019
0.829303
0.835067
0.839672
0.843091
0.845807
0.84798
0.849786
0.851328
0.852655
0.853825
0.854842
0.855723
0.856462
0.857075
0.857579
0.857978
0.858301
0.858524
0.858667
0.858697
0.858633
0.858477
0.858204
0.857831
0.857344
0.856738
0.856002
0.855133
0.854129
0.852974
0.851685
0.850254
0.848675
0.846955
0.845148
0.843325
0.841705
0.787615
0.807351
0.816834
0.826242
0.832219
0.836983
0.840529
0.843342
0.84559
0.847454
0.849042
0.850413
0.851622
0.852675
0.85359
0.854361
0.855006
0.855543
0.855976
0.856332
0.856588
0.85676
0.856826
0.85679
0.856667
0.856426
0.856084
0.85563
0.855063
0.854365
0.853534
0.852575
0.851467
0.850226
0.848843
0.847311
0.845634
0.843866
0.842071
0.840464
0.783249
0.803698
0.813492
0.823177
0.829366
0.83429
0.837966
0.840878
0.843201
0.845124
0.846761
0.848175
0.849423
0.850512
0.851461
0.852264
0.852941
0.853511
0.853976
0.854364
0.854652
0.854854
0.854955
0.854949
0.854855
0.854648
0.854339
0.853919
0.85339
0.852731
0.851941
0.851028
0.849969
0.848779
0.847446
0.845966
0.844336
0.842607
0.840844
0.83925
0.779028
0.800054
0.810169
0.820109
0.826509
0.831594
0.835403
0.838416
0.840816
0.842799
0.844484
0.845944
0.84723
0.848355
0.849338
0.850172
0.850881
0.851483
0.851979
0.852398
0.852718
0.852947
0.853083
0.853108
0.853043
0.85287
0.852595
0.852209
0.85172
0.851101
0.850353
0.849488
0.84848
0.847343
0.846064
0.84464
0.84306
0.841374
0.839644
0.838066
0.774906
0.79638
0.806868
0.817043
0.823651
0.828897
0.832842
0.835957
0.838435
0.84048
0.842215
0.843719
0.845045
0.846205
0.847221
0.848087
0.848827
0.849459
0.849986
0.850434
0.850787
0.851043
0.851211
0.851268
0.851231
0.851092
0.850852
0.850501
0.85005
0.849473
0.848769
0.847953
0.846999
0.845919
0.844697
0.843331
0.841805
0.840168
0.838473
0.836911
0.77092
0.792716
0.803592
0.813981
0.820794
0.826203
0.830284
0.833503
0.836061
0.838169
0.839955
0.841504
0.842869
0.844063
0.845113
0.846009
0.846778
0.847441
0.847997
0.848473
0.848858
0.84914
0.849338
0.849428
0.849419
0.849314
0.849109
0.848794
0.848382
0.847848
0.84719
0.846425
0.845526
0.844504
0.843343
0.84204
0.840573
0.838988
0.837331
0.835786
0.767096
0.789152
0.800344
0.810925
0.817941
0.823513
0.827732
0.831057
0.833696
0.835867
0.837703
0.839298
0.840701
0.84193
0.843013
0.843937
0.844735
0.845427
0.846012
0.846516
0.846931
0.847239
0.847466
0.847589
0.847608
0.847537
0.847366
0.847089
0.846715
0.846225
0.845614
0.8449
0.84406
0.843099
0.842002
0.840765
0.839363
0.837834
0.836219
0.834692
0.763265
0.785679
0.797128
0.80788
0.815093
0.820829
0.825187
0.828619
0.831341
0.833576
0.835464
0.837103
0.838543
0.839807
0.840921
0.841873
0.842698
0.843419
0.844033
0.844562
0.845006
0.845341
0.845594
0.845751
0.845797
0.845761
0.845623
0.845383
0.845049
0.844603
0.84404
0.84338
0.842599
0.841701
0.840672
0.839506
0.838173
0.836706
0.835138
0.833628
0.759688
0.782263
0.793945
0.804847
0.812255
0.818154
0.822653
0.826192
0.828998
0.831297
0.833237
0.83492
0.836398
0.837694
0.838837
0.839816
0.840668
0.841417
0.842059
0.842613
0.843082
0.843444
0.843723
0.843913
0.843988
0.843985
0.843881
0.843677
0.843384
0.842982
0.842468
0.841862
0.841142
0.840309
0.839351
0.838262
0.837002
0.835604
0.834088
0.832596
0.7563
0.778899
0.7908
0.80183
0.809428
0.81549
0.820131
0.823778
0.82667
0.829034
0.831025
0.832752
0.834265
0.835593
0.836763
0.837768
0.838645
0.839422
0.840091
0.840669
0.841162
0.841551
0.841855
0.842075
0.842179
0.842208
0.842138
0.841971
0.841717
0.841361
0.840898
0.840345
0.839688
0.838922
0.838038
0.837029
0.835851
0.834526
0.833068
0.831597
0.753044
0.775594
0.787695
0.798831
0.806616
0.81284
0.817623
0.821379
0.824358
0.826786
0.828829
0.830599
0.832147
0.833505
0.834699
0.835729
0.836631
0.837434
0.838129
0.838729
0.839245
0.839659
0.839988
0.840238
0.84037
0.840431
0.840395
0.840264
0.84005
0.839738
0.839327
0.838829
0.838235
0.837539
0.836732
0.835809
0.834718
0.833474
0.832081
0.830634
0.749929
0.772359
0.784633
0.795853
0.803821
0.810205
0.81513
0.818996
0.822062
0.824557
0.826652
0.828464
0.830045
0.83143
0.832647
0.8337
0.834627
0.835454
0.836173
0.836795
0.837333
0.837771
0.838123
0.838401
0.838562
0.838653
0.838652
0.838555
0.838381
0.838115
0.837756
0.837313
0.836783
0.836158
0.835432
0.834599
0.833604
0.832447
0.831127
0.829708
0.746963
0.769195
0.781615
0.792899
0.801045
0.807589
0.812655
0.816632
0.819785
0.822346
0.824493
0.826346
0.827959
0.829369
0.830607
0.831683
0.832633
0.833482
0.834224
0.834866
0.835425
0.835886
0.836261
0.836564
0.836755
0.836873
0.836907
0.836845
0.836711
0.83649
0.836182
0.835796
0.83533
0.834778
0.834137
0.833398
0.832506
0.831446
0.830208
0.828824
0.744145
0.766106
0.778642
0.789972
0.798291
0.804994
0.810199
0.814289
0.817529
0.820157
0.822355
0.824249
0.82589
0.827324
0.828582
0.829679
0.83065
0.831519
0.832283
0.832942
0.833522
0.834004
0.8344
0.834727
0.834947
0.835092
0.835159
0.835133
0.835039
0.834862
0.834606
0.834277
0.833875
0.833399
0.832845
0.832206
0.831423
0.830471
0.829326
0.827985
0.741475
0.763094
0.775716
0.787077
0.795563
0.802423
0.807768
0.811968
0.815296
0.817993
0.82024
0.822174
0.823841
0.825295
0.826572
0.827688
0.828679
0.829565
0.830349
0.831025
0.831623
0.832124
0.832542
0.832889
0.833139
0.83331
0.83341
0.83342
0.833364
0.833232
0.833026
0.832754
0.832419
0.832019
0.831555
0.831021
0.830354
0.829522
0.828483
0.827195
0.738952
0.760162
0.772838
0.784217
0.792868
0.799879
0.805363
0.809674
0.813091
0.815856
0.818151
0.820121
0.821812
0.823285
0.824579
0.825711
0.826721
0.827621
0.828423
0.829114
0.829729
0.830248
0.830686
0.831053
0.83133
0.831526
0.831658
0.831703
0.831685
0.831598
0.831442
0.831228
0.830958
0.830638
0.830266
0.829839
0.829296
0.828599
0.827682
0.826459
0.736575
0.757311
0.770011
0.781397
0.790208
0.797366
0.802988
0.807409
0.810915
0.813747
0.816089
0.818092
0.819804
0.821294
0.822603
0.82375
0.824777
0.825689
0.826506
0.827211
0.82784
0.828375
0.828833
0.829217
0.82952
0.829742
0.829903
0.829984
0.830002
0.82996
0.829853
0.829696
0.829493
0.829253
0.828974
0.82866
0.828248
0.827701
0.826926
0.825784
0.734344
0.754539
0.767239
0.778622
0.787588
0.794888
0.800645
0.805178
0.808771
0.81167
0.814056
0.816088
0.81782
0.819325
0.820646
0.821805
0.822846
0.823769
0.824598
0.825316
0.825957
0.826507
0.826983
0.827383
0.827709
0.827957
0.828146
0.828262
0.828314
0.828317
0.828259
0.82816
0.828023
0.827862
0.827679
0.82748
0.827207
0.826826
0.826217
0.825178
0.732261
0.751846
0.764523
0.7759
0.785012
0.79245
0.798339
0.802983
0.806662
0.809624
0.812052
0.814111
0.81586
0.817377
0.818709
0.819878
0.820931
0.821862
0.8227
0.82343
0.82408
0.824643
0.825135
0.82555
0.825898
0.82617
0.826386
0.826536
0.826623
0.826668
0.826659
0.826616
0.826546
0.826465
0.826377
0.826296
0.82617
0.82597
0.825558
0.824651
0.73033
0.749232
0.76187
0.773239
0.782487
0.790059
0.796076
0.800829
0.804592
0.807613
0.810081
0.812163
0.813927
0.815453
0.816793
0.81797
0.819031
0.81997
0.820813
0.821553
0.82221
0.822785
0.82329
0.823719
0.824085
0.824382
0.824622
0.824805
0.824926
0.825014
0.825052
0.825065
0.825061
0.825059
0.825067
0.825104
0.825132
0.825131
0.82495
0.824216
0.728557
0.746704
0.759295
0.770657
0.780029
0.787727
0.793868
0.798723
0.802566
0.805643
0.808147
0.810248
0.812023
0.813557
0.814902
0.816084
0.81715
0.818093
0.818939
0.819685
0.820348
0.820932
0.821447
0.82189
0.822273
0.822592
0.822854
0.823069
0.823225
0.823353
0.823438
0.823505
0.823568
0.823643
0.823746
0.823902
0.82409
0.824304
0.824393
0.82389
0.726953
0.744273
0.756813
0.768169
0.777649
0.785464
0.791723
0.796675
0.800593
0.80372
0.806254
0.808371
0.810155
0.811691
0.813038
0.814223
0.815289
0.816233
0.817079
0.817829
0.818494
0.819085
0.819608
0.820063
0.82046
0.8208
0.821084
0.821329
0.821518
0.821684
0.821816
0.821937
0.822064
0.822215
0.822412
0.822687
0.823038
0.823483
0.823886
0.823695
0.725516
0.741886
0.754357
0.765702
0.775278
0.783206
0.789582
0.794631
0.798623
0.801801
0.804366
0.806498
0.808287
0.809825
0.811171
0.812356
0.81342
0.814364
0.815207
0.815959
0.816625
0.817222
0.817751
0.818217
0.818627
0.818987
0.819293
0.819566
0.819789
0.819994
0.820172
0.820347
0.820537
0.820763
0.821052
0.821444
0.821961
0.822652
0.82342
0.823657
0.724143
0.739383
0.751772
0.763106
0.772776
0.780826
0.787327
0.792483
0.796557
0.799794
0.802398
0.80455
0.806351
0.807894
0.809242
0.81043
0.811493
0.812438
0.81328
0.814035
0.814705
0.815309
0.815846
0.816325
0.81675
0.81713
0.817461
0.817762
0.818021
0.818264
0.818492
0.818721
0.818974
0.819274
0.819653
0.820162
0.820844
0.821794
0.822982
0.823809
0.723018
0.737184
0.749525
0.760819
0.77052
0.778638
0.78522
0.790447
0.794574
0.797844
0.800468
0.802627
0.804432
0.805979
0.807329
0.808521
0.809584
0.81053
0.811372
0.81213
0.812803
0.813412
0.813956
0.814447
0.814885
0.815282
0.815636
0.815961
0.816253
0.816532
0.816803
0.817081
0.817392
0.817759
0.81822
0.818834
0.819669
0.820874
0.822513
0.824126
0.718742
0.731884
0.744358
0.755648
0.765343
0.77352
0.78022
0.785562
0.789727
0.792945
0.795466
0.797506
0.799223
0.800715
0.802032
0.803203
0.804245
0.805172
0.805995
0.806736
0.807398
0.808
0.808544
0.809043
0.809498
0.809921
0.810315
0.810688
0.811048
0.811404
0.81177
0.812161
0.812602
0.813123
0.81377
0.814625
0.815811
0.817635
0.820506
0.824791
0.706872
0.719407
0.731244
0.7419
0.75119
0.75919
0.765886
0.771345
0.77572
0.77921
0.782021
0.784341
0.786311
0.788026
0.789542
0.790895
0.792108
0.7932
0.794187
0.795085
0.795904
0.796657
0.797353
0.798
0.798603
0.799172
0.799713
0.800232
0.800739
0.801243
0.80176
0.802306
0.802906
0.8036
0.804441
0.805534
0.807047
0.809422
0.813224
0.818827
0.694272
0.706247
0.717406
0.727571
0.736562
0.744421
0.751113
0.756685
0.761269
0.765024
0.768119
0.770712
0.772932
0.774874
0.776597
0.778145
0.779544
0.780817
0.78198