/*--------------------------------*- C++ -*----------------------------------*\
  =========                 |
  \\      /  F ield         | OpenFOAM: The Open Source CFD Toolbox
   \\    /   O peration     | Website:  https://openfoam.org
    \\  /    A nd           | Version:  7
     \\/     M anipulation  |
\*---------------------------------------------------------------------------*/
FoamFile
{
    version     2.0;
    format      ascii;
    class       volScalarField;
    location    "9.6";
    object      p;
}
// * * * * * * * * * * * * * * * * * * * * * * * * * * * * * * * * * * * * * //

dimensions      [0 2 -2 0 0 0 0];

internalField   nonuniform List<scalar> 
18000
(
0.317961
0.319004
0.319751
0.320534
0.321247
0.321868
0.322397
0.322851
0.323262
0.323666
0.324103
0.324614
0.325244
0.326036
0.327031
0.328264
0.329768
0.331568
0.333683
0.336123
0.338888
0.341972
0.345363
0.349041
0.352982
0.357157
0.36153
0.366064
0.370715
0.375413
0.317579
0.31858
0.319281
0.320009
0.320663
0.321226
0.321693
0.322083
0.322429
0.322764
0.323126
0.323553
0.324089
0.324774
0.32565
0.326752
0.32811
0.329751
0.331694
0.333948
0.336517
0.339399
0.342585
0.34606
0.349803
0.353785
0.357974
0.362335
0.366817
0.371363
0.317207
0.318158
0.318808
0.319475
0.320068
0.320571
0.320977
0.321306
0.321591
0.321864
0.322157
0.32251
0.322962
0.323553
0.324323
0.325306
0.326534
0.328031
0.329815
0.331897
0.334284
0.336975
0.339966
0.343245
0.346793
0.350585
0.354591
0.358776
0.363082
0.367469
0.316832
0.317724
0.318322
0.318932
0.319464
0.319907
0.320257
0.320529
0.320758
0.320973
0.321206
0.321492
0.32187
0.322378
0.323055
0.323933
0.325044
0.326409
0.328048
0.329973
0.332191
0.334704
0.33751
0.340602
0.343962
0.347567
0.351389
0.355397
0.359524
0.363747
0.316468
0.317296
0.31784
0.318389
0.31886
0.319244
0.319538
0.319758
0.319934
0.320096
0.320274
0.320502
0.320815
0.321252
0.321847
0.322634
0.32364
0.324888
0.326395
0.328176
0.330239
0.332587
0.335221
0.338134
0.341313
0.344736
0.348377
0.352207
0.356154
0.360209
0.316112
0.316868
0.317356
0.317844
0.318255
0.318581
0.318823
0.318995
0.319123
0.319237
0.319365
0.319542
0.319802
0.320178
0.320704
0.321412
0.322325
0.323467
0.324858
0.326509
0.328431
0.330628
0.333101
0.335848
0.338854
0.3421
0.345564
0.349218
0.352983
0.356868
0.31577
0.316449
0.316878
0.317302
0.317655
0.317926
0.318118
0.318245
0.31833
0.3184
0.318486
0.31862
0.318834
0.319161
0.319629
0.320268
0.321101
0.322151
0.323438
0.324975
0.326769
0.328829
0.331155
0.333745
0.336587
0.339664
0.342956
0.346439
0.350022
0.353737
0.315446
0.316038
0.316408
0.316767
0.317061
0.31728
0.317426
0.317511
0.317556
0.317588
0.317639
0.317739
0.317919
0.318205
0.318625
0.319205
0.319971
0.320943
0.32214
0.323575
0.325257
0.327193
0.329384
0.331829
0.334517
0.337433
0.340561
0.343876
0.347281
0.350825
0.31514
0.315638
0.315946
0.31624
0.316476
0.316646
0.316749
0.316796
0.316807
0.316808
0.316831
0.316906
0.317058
0.317313
0.317695
0.318229
0.318939
0.319846
0.320967
0.322314
0.323897
0.325722
0.327791
0.330102
0.332647
0.335412
0.338383
0.341537
0.344766
0.348141
0.314852
0.315248
0.315493
0.315723
0.315904
0.316027
0.316091
0.316103
0.316085
0.316062
0.316066
0.316123
0.316257
0.31649
0.316843
0.317341
0.318008
0.318862
0.31992
0.321193
0.32269
0.324418
0.326377
0.328567
0.33098
0.333604
0.336427
0.339425
0.342484
0.345691
0.314582
0.314868
0.315049
0.315215
0.315343
0.315423
0.315451
0.315435
0.315393
0.315355
0.315347
0.315394
0.315518
0.315737
0.316072
0.316546
0.317181
0.317996
0.319003
0.320215
0.32164
0.323282
0.325145
0.327226
0.329519
0.332012
0.334694
0.337543
0.340437
0.343481
0.314327
0.314496
0.314614
0.314718
0.314795
0.314834
0.31483
0.314791
0.314734
0.314687
0.314675
0.314721
0.314842
0.315057
0.315385
0.315846
0.316461
0.317247
0.318217
0.319382
0.320746
0.322317
0.324095
0.326081
0.328265
0.330637
0.333187
0.335894
0.338631
0.341515
0.314085
0.31413
0.314184
0.314228
0.314257
0.31426
0.314229
0.314173
0.314108
0.31406
0.314051
0.314103
0.314232
0.314452
0.314782
0.315241
0.315847
0.316617
0.317563
0.318692
0.32001
0.321522
0.32323
0.325132
0.327219
0.329479
0.331906
0.33448
0.337067
0.339797
0.313851
0.313767
0.313758
0.313745
0.313729
0.313698
0.313646
0.313579
0.313513
0.313471
0.313475
0.313542
0.313687
0.313922
0.314264
0.31473
0.315339
0.316105
0.317039
0.318146
0.319432
0.320898
0.322548
0.324377
0.326378
0.328538
0.330852
0.333302
0.335747
0.338328
0.313622
0.313402
0.313333
0.313264
0.313207
0.313148
0.313079
0.313008
0.312948
0.312921
0.312944
0.313035
0.313205
0.313464
0.313828
0.314313
0.314936
0.31571
0.316644
0.317743
0.319008
0.320442
0.322045
0.323815
0.325741
0.327812
0.330023
0.332358
0.334671
0.337109
0.313392
0.313033
0.312904
0.312783
0.312689
0.312605
0.312526
0.312456
0.31241
0.312404
0.312457
0.31258
0.312783
0.313076
0.313472
0.313986
0.314634
0.315429
0.316376
0.317477
0.318734
0.320148
0.321718
0.323439
0.325302
0.327295
0.329415
0.331645
0.333836
0.336136
0.313154
0.312653
0.312468
0.312297
0.31217
0.312067
0.311982
0.31192
0.311894
0.311919
0.312008
0.312172
0.312418
0.312754
0.313191
0.313745
0.31443
0.315256
0.316227
0.317344
0.318605
0.320011
0.321559
0.323244
0.325055
0.326983
0.329022
0.331158
0.333238
0.335406
0.312901
0.312258
0.312018
0.311802
0.311646
0.311528
0.311443
0.311396
0.311397
0.31146
0.311594
0.311807
0.312103
0.31249
0.312978
0.313582
0.314315
0.315184
0.316192
0.317335
0.318611
0.320021
0.321559
0.32322
0.324993
0.326866
0.328837
0.330889
0.332868
0.334913
0.312627
0.31184
0.311549
0.311292
0.311112
0.310984
0.310904
0.310878
0.310913
0.31102
0.311207
0.311475
0.31183
0.312276
0.312825
0.31349
0.314281
0.315205
0.316259
0.317439
0.318743
0.320168
0.321709
0.323358
0.325104
0.326935
0.328849
0.330829
0.332721
0.334649
0.312321
0.311394
0.311055
0.31076
0.31056
0.310428
0.310359
0.310359
0.310435
0.310593
0.310838
0.311169
0.311589
0.312104
0.312722
0.313457
0.314318
0.315305
0.316415
0.317644
0.318986
0.320438
0.321993
0.323643
0.325375
0.327177
0.329046
0.330966
0.332784
0.334607
0.311976
0.310911
0.310527
0.310199
0.309984
0.309853
0.309801
0.309833
0.309955
0.31017
0.310478
0.310878
0.311371
0.311961
0.312658
0.313473
0.314411
0.315471
0.316648
0.317934
0.319326
0.320816
0.322397
0.32406
0.325791
0.327578
0.329415
0.331289
0.333048
0.334774
0.311581
0.310383
0.309959
0.309602
0.309377
0.309252
0.309222
0.309291
0.309464
0.309741
0.310118
0.310592
0.311163
0.311836
0.31262
0.313522
0.314546
0.315688
0.316939
0.318293
0.319744
0.321283
0.322902
0.32459
0.326334
0.328118
0.329938
0.331781
0.333499
0.33514
0.311128
0.309804
0.309344
0.308962
0.308731
0.308617
0.308613
0.308724
0.308953
0.309295
0.309745
0.310298
0.310954
0.311716
0.312592
0.313589
0.314707
0.315937
0.317271
0.318701
0.32022
0.321818
0.323486
0.325211
0.326981
0.328778
0.330595
0.332425
0.33412
0.33569
0.310606
0.309166
0.308673
0.308273
0.30804
0.30794
0.307967
0.308124
0.308411
0.308822
0.309349
0.309986
0.31073
0.311586
0.312561
0.313658
0.314874
0.316199
0.317623
0.319137
0.320732
0.322398
0.324124
0.325899
0.327707
0.329531
0.331364
0.3332
0.334893
0.336409
0.310007
0.308461
0.307941
0.307526
0.307297
0.307215
0.307275
0.30748
0.307828
0.30831
0.308917
0.309641
0.310478
0.311432
0.31251
0.313712
0.315031
0.316456
0.317975
0.319579
0.321257
0.322997
0.324791
0.326624
0.328483
0.33035
0.332217
0.33408
0.335799
0.337282
0.309323
0.307683
0.307142
0.306718
0.306495
0.306435
0.306531
0.306785
0.307194
0.307749
0.308439
0.309251
0.310183
0.311239
0.312422
0.313732
0.315157
0.316685
0.318304
0.320001
0.321767
0.323588
0.325455
0.327356
0.329277
0.331201
0.33312
0.335037
0.336815
0.338291
0.308545
0.306826
0.306269
0.305841
0.305629
0.305593
0.305727
0.306031
0.306502
0.30713
0.307901
0.308804
0.309833
0.310991
0.312282
0.3137
0.315233
0.316866
0.318585
0.32038
0.322236
0.324141
0.326086
0.32806
0.330051
0.332044
0.334034
0.336031
0.337908
0.339419
0.307669
0.305888
0.30532
0.304893
0.304695
0.304686
0.304857
0.30521
0.305742
0.306441
0.307295
0.308287
0.309413
0.310674
0.312072
0.313598
0.315238
0.316975
0.318797
0.320688
0.322635
0.324626
0.326649
0.328697
0.330761
0.332832
0.334906
0.33701
0.339041
0.340654
0.30669
0.304864
0.30429
0.303868
0.303687
0.303706
0.303916
0.304317
0.304907
0.305676
0.306609
0.30769
0.308911
0.310274
0.311776
0.313408
0.315152
0.316993
0.318914
0.320901
0.322937
0.32501
0.32711
0.329228
0.331362
0.333507
0.335673
0.337912
0.340189
0.342062
0.305605
0.303752
0.303178
0.302765
0.302604
0.302652
0.302899
0.303346
0.303992
0.304828
0.305837
0.307002
0.308315
0.309776
0.311379
0.313112
0.314956
0.316896
0.318913
0.320991
0.323112
0.325262
0.32743
0.329609
0.331798
0.334
0.336241
0.33862
0.341195
0.34355
0.391389
0.415368
0.435101
0.450292
0.461641
0.470107
0.47637
0.481009
0.484399
0.486849
0.488564
0.489738
0.490481
0.490872
0.490985
0.490885
0.490605
0.49015
0.489536
0.488767
0.487853
0.486791
0.485599
0.484276
0.482839
0.481289
0.479676
0.478002
0.476469
0.475038
0.387415
0.411267
0.431365
0.446798
0.458355
0.46697
0.473349
0.478076
0.481538
0.484064
0.485862
0.487094
0.487885
0.488334
0.488514
0.488471
0.488238
0.487829
0.487265
0.486534
0.485656
0.484629
0.483463
0.48217
0.480749
0.47922
0.477613
0.475942
0.474406
0.472972
0.383579
0.407203
0.427644
0.443297
0.455059
0.463821
0.47032
0.475137
0.478675
0.481278
0.483159
0.48445
0.485292
0.4858
0.486047
0.486062
0.485876
0.485515
0.484999
0.484308
0.483467
0.482477
0.481339
0.480077
0.478675
0.477168
0.47557
0.473906
0.47237
0.470931
0.379894
0.403182
0.423942
0.439788
0.451752
0.460664
0.467283
0.472197
0.47582
0.478496
0.480445
0.481802
0.482705
0.483277
0.483582
0.483653
0.483521
0.48321
0.482738
0.482092
0.48129
0.480336
0.479231
0.477994
0.476618
0.475129
0.473548
0.471894
0.470359
0.468918
0.376367
0.399216
0.420271
0.43628
0.448442
0.457503
0.46424
0.469256
0.472968
0.475714
0.477728
0.479153
0.480124
0.480759
0.48112
0.481248
0.481171
0.480913
0.480484
0.479885
0.479123
0.478207
0.477135
0.475926
0.474577
0.473107
0.471545
0.469905
0.468372
0.46693
0.373006
0.395316
0.416638
0.432781
0.445136
0.454341
0.461198
0.466314
0.470114
0.472933
0.475012
0.476506
0.477544
0.478243
0.478663
0.478849
0.478828
0.478622
0.478238
0.477686
0.476966
0.476089
0.475053
0.473872
0.472553
0.471105
0.469564
0.467938
0.466409
0.464966
0.369819
0.391492
0.413051
0.429298
0.441837
0.451182
0.458156
0.463373
0.46726
0.470154
0.472299
0.473863
0.474968
0.47573
0.476212
0.476456
0.476491
0.476338
0.476002
0.475496
0.474819
0.473983
0.472984
0.471835
0.470547
0.469123
0.467603
0.465993
0.464471
0.463026
0.366814
0.387759
0.409519
0.425833
0.438549
0.448026
0.455118
0.460434
0.464408
0.467378
0.469592
0.471223
0.472396
0.473223
0.473768
0.474071
0.474161
0.474063
0.473775
0.473316
0.472684
0.471888
0.470927
0.469812
0.468557
0.467161
0.465664
0.464071
0.462556
0.461111
0.363994
0.384127
0.40605
0.422393
0.435274
0.444877
0.452084
0.4575
0.46156
0.464607
0.466889
0.46859
0.469831
0.470721
0.47133
0.471694
0.47184
0.471795
0.471559
0.471147
0.470559
0.469805
0.468885
0.467804
0.466585
0.46522
0.463747
0.462173
0.460666
0.45922
0.361366
0.38061
0.402649
0.418983
0.432015
0.441736
0.449057
0.454572
0.458718
0.461842
0.464194
0.465963
0.467273
0.468228
0.468901
0.469325
0.469528
0.469537
0.469352
0.468987
0.468444
0.467735
0.466856
0.465813
0.46463
0.463298
0.461852
0.460297
0.4588
0.457356
0.358934
0.377222
0.399325
0.415607
0.428775
0.438606
0.446038
0.451652
0.455883
0.459084
0.461506
0.463343
0.464723
0.465742
0.466479
0.466965
0.467226
0.467287
0.467155
0.466838
0.466341
0.465676
0.464841
0.463837
0.462692
0.461396
0.459978
0.458445
0.456959
0.455517
0.3567
0.373977
0.396084
0.412271
0.425556
0.435487
0.443028
0.448742
0.453056
0.456336
0.458827
0.460733
0.462181
0.463266
0.464067
0.464615
0.464933
0.465048
0.464967
0.4647
0.46425
0.46363
0.46284
0.461877
0.460773
0.459513
0.458127
0.456618
0.455143
0.453704
0.354667
0.370888
0.392934
0.408983
0.422363
0.432382
0.440029
0.445843
0.45024
0.453597
0.456158
0.458132
0.459648
0.4608
0.461664
0.462274
0.462651
0.462818
0.46279
0.462573
0.462171
0.461597
0.460853
0.459934
0.458871
0.457651
0.456297
0.454815
0.453354
0.451918
0.352838
0.367969
0.389881
0.405747
0.419196
0.429294
0.437042
0.442956
0.447434
0.450869
0.453501
0.455543
0.457127
0.458345
0.459273
0.459944
0.460378
0.460599
0.460624
0.460457
0.460103
0.459577
0.45888
0.458006
0.456986
0.455808
0.454489
0.453036
0.451592
0.450159
0.351212
0.365234
0.386933
0.40257
0.416061
0.426224
0.434068
0.440082
0.444642
0.448155
0.450858
0.452966
0.454619
0.455902
0.456894
0.457626
0.458117
0.458391
0.458468
0.458353
0.458048
0.457569
0.45692
0.456092
0.455117
0.453984
0.452703
0.451282
0.449856
0.448428
0.34979
0.362697
0.384096
0.39946
0.412959
0.423174
0.431109
0.437224
0.441864
0.445454
0.448228
0.450404
0.452124
0.453474
0.454528
0.45532
0.455867
0.456195
0.456324
0.45626
0.456004
0.455573
0.454973
0.454194
0.453265
0.452178
0.450938
0.449553
0.448149
0.446726
0.348569
0.360371
0.381377
0.396424
0.409895
0.420148
0.428166
0.43438
0.4391
0.442768
0.445614
0.447857
0.449645
0.45106
0.452175
0.453026
0.453628
0.454011
0.454192
0.45418
0.453972
0.45359
0.453038
0.452309
0.451427
0.45039
0.449195
0.447848
0.44647
0.445054
0.34755
0.358268
0.378786
0.393471
0.406872
0.417146
0.425241
0.431553
0.436353
0.440097
0.443015
0.445326
0.447182
0.448661
0.449836
0.450745
0.451403
0.451839
0.452073
0.452111
0.451952
0.451619
0.451116
0.450438
0.449604
0.448618
0.447472
0.446169
0.444822
0.443414
0.346727
0.3564
0.376329
0.390607
0.403896
0.414172
0.422336
0.428744
0.433621
0.437443
0.440432
0.442813
0.444734
0.446278
0.447512
0.448478
0.449191
0.449681
0.449965
0.450054
0.449944
0.449659
0.449204
0.448579
0.447795
0.446863
0.445771
0.444516
0.443204
0.441808
0.346098
0.354777
0.374015
0.387841
0.400972
0.411229
0.419452
0.425953
0.430905
0.434805
0.437866
0.440317
0.442304
0.443911
0.445203
0.446224
0.446992
0.447536
0.44787
0.448009
0.447948
0.44771
0.447304
0.446731
0.446
0.445123
0.44409
0.442889
0.441619
0.440236
0.345658
0.353407
0.371851
0.385181
0.398105
0.40832
0.416592
0.423182
0.428208
0.432185
0.435318
0.437839
0.439891
0.441561
0.442911
0.443987
0.444809
0.445405
0.445787
0.445976
0.445962
0.445773
0.445415
0.444894
0.444217
0.443398
0.442428
0.441288
0.440067
0.438703
0.345401
0.352295
0.369846
0.382636
0.3953
0.405451
0.413757
0.420432
0.425529
0.429584
0.43279
0.435382
0.437497
0.439228
0.440635
0.441765
0.44264
0.443287
0.443718
0.443954
0.443988
0.443845
0.443535
0.443066
0.442445
0.441687
0.440784
0.439712
0.43855
0.437212
0.345322
0.351445
0.368006
0.380214
0.392563
0.402625
0.41095
0.417704
0.422869
0.427003
0.430282
0.432944
0.435122
0.436914
0.438377
0.43956
0.440487
0.441184
0.441662
0.441944
0.442025
0.441927
0.441665
0.441248
0.440684
0.439989
0.439158
0.438161
0.437069
0.435768
0.345414
0.350856
0.366335
0.377925
0.389901
0.399846
0.408174
0.415
0.420229
0.424441
0.427795
0.430526
0.432767
0.434619
0.436138
0.437372
0.43835
0.439094
0.439618
0.439945
0.440071
0.440018
0.439804
0.439438
0.438933
0.438301
0.437546
0.436634
0.435626
0.434374
0.345671
0.350523
0.364841
0.375777
0.387323
0.397117
0.405435
0.41232
0.41761
0.4219
0.425328
0.428129
0.430433
0.432343
0.433917
0.435202
0.436228
0.437019
0.437588
0.437957
0.438128
0.438118
0.437952
0.437636
0.437189
0.436623
0.435948
0.43513
0.434222
0.43304
0.346092
0.350437
0.36353
0.37378
0.384838
0.394445
0.402736
0.409668
0.415014
0.41938
0.422883
0.425753
0.42812
0.430088
0.431714
0.433048
0.434122
0.434957
0.43557
0.43598
0.436194
0.436227
0.436106
0.43584
0.435451
0.434952
0.43436
0.433646
0.432857
0.431773
0.346678
0.350585
0.362408
0.371943
0.382456
0.391833
0.400087
0.407047
0.412444
0.416883
0.42046
0.423399
0.425829
0.427852
0.42953
0.430912
0.432033
0.43291
0.433564
0.434012
0.434269
0.434343
0.434267
0.434049
0.433718
0.433287
0.43278
0.432178
0.431531
0.430585
0.347378
0.350924
0.361477
0.370277
0.380185
0.389289
0.397493
0.404461
0.409901
0.414408
0.418059
0.421066
0.423558
0.425634
0.427363
0.428791
0.429956
0.430873
0.431567
0.432053
0.432349
0.432464
0.432432
0.432262
0.431986
0.431622
0.431201
0.43072
0.43024
0.429491
0.34808
0.351335
0.360666
0.36875
0.378013
0.386796
0.394946
0.401891
0.407364
0.411933
0.415654
0.418728
0.421281
0.423412
0.425192
0.426667
0.427875
0.428834
0.429567
0.430091
0.430426
0.430582
0.430593
0.430471
0.430249
0.42995
0.429615
0.429262
0.428976
0.428511
0.349523
0.352131
0.360085
0.367357
0.375913
0.384317
0.392414
0.399295
0.404784
0.409408
0.413206
0.416358
0.418985
0.421183
0.423022
0.424549
0.425803
0.426803
0.427575
0.428136
0.428508
0.428703
0.428753
0.428676
0.428504
0.428266
0.428012
0.427788
0.427717
0.427656
0.360156
0.360533
0.363907
0.367233
0.372178
0.37816
0.385361
0.391637
0.397057
0.401894
0.406031
0.409524
0.412446
0.414879
0.416902
0.418572
0.419938
0.421033
0.421885
0.422521
0.422967
0.423244
0.423381
0.423404
0.423349
0.42326
0.423209
0.423321
0.423883
0.425356
0.359882
0.360801
0.362271
0.362284
0.364125
0.367732
0.373294
0.378962
0.384315
0.389438
0.394017
0.397945
0.401222
0.403924
0.406149
0.407976
0.409469
0.410674
0.41163
0.412365
0.41291
0.41329
0.413536
0.413678
0.413759
0.413834
0.413998
0.41442
0.415474
0.417644
0.354109
0.356161
0.357246
0.354783
0.355059
0.357095
0.360729
0.365569
0.371076
0.376747
0.381964
0.386452
0.390152
0.393148
0.395567
0.397527
0.399116
0.400399
0.401424
0.402227
0.402841
0.403297
0.403623
0.403855
0.404035
0.404221
0.404511
0.405073
0.406283
0.408609
0.34296
0.346839
0.347804
0.345756
0.344004
0.343892
0.346215
0.350763
0.356756
0.36328
0.369412
0.374673
0.378941
0.382316
0.384974
0.387081
0.388766
0.390118
0.3912
0.392057
0.392727
0.393241
0.393631
0.393929
0.394179
0.394436
0.394791
0.395398
0.396606
0.398904
0.327919
0.333068
0.334615
0.333244
0.330836
0.32965
0.331193
0.335739
0.342379
0.349829
0.356913
0.362971
0.367823
0.371581
0.374472
0.376714
0.378479
0.379882
0.381002
0.381894
0.3826
0.383154
0.383585
0.383926
0.384215
0.384506
0.384879
0.385473
0.386598
0.388765
0.311154
0.316992
0.319293
0.318935
0.316972
0.315763
0.31725
0.321999
0.329135
0.337232
0.344985
0.351625
0.356917
0.360972
0.364042
0.366384
0.368201
0.369631
0.370769
0.371678
0.3724
0.372972
0.373422
0.373781
0.374084
0.374378
0.374736
0.375282
0.37629
0.378281
0.294468
0.300687
0.303721
0.304538
0.303744
0.303352
0.305295
0.310261
0.317549
0.325821
0.333797
0.34068
0.346194
0.35042
0.353602
0.356007
0.357853
0.359295
0.360437
0.361347
0.362072
0.362645
0.363098
0.363456
0.363753
0.36403
0.364352
0.364831
0.365709
0.36751
0.278658
0.285165
0.28892
0.290911
0.291562
0.292398
0.295046
0.300183
0.307329
0.315369
0.323172
0.329989
0.335519
0.339799
0.343038
0.345482
0.34735
0.3488
0.349943
0.35085
0.35157
0.352137
0.352581
0.352928
0.353206
0.353455
0.353733
0.354139
0.354889
0.356495
0.2638
0.270543
0.274971
0.278024
0.280067
0.282179
0.285588
0.290878
0.297745
0.305339
0.312739
0.319291
0.324702
0.328962
0.332226
0.334706
0.336604
0.338074
0.339227
0.340137
0.340854
0.341415
0.341848
0.342178
0.342433
0.342649
0.342878
0.34321
0.343836
0.34525
0.249688
0.256588
0.261578
0.26551
0.268718
0.271941
0.276045
0.281482
0.288065
0.295176
0.302108
0.308327
0.313563
0.317771
0.321055
0.323585
0.325533
0.327046
0.328229
0.329157
0.329883
0.330444
0.330869
0.331184
0.331417
0.331601
0.331784
0.332046
0.332559
0.333784
0.236075
0.243045
0.248457
0.253059
0.257152
0.261237
0.265903
0.271469
0.277817
0.284505
0.291008
0.29691
0.301972
0.306131
0.309448
0.312047
0.314074
0.315656
0.316895
0.317864
0.318617
0.31919
0.319617
0.319924
0.320138
0.320292
0.32043
0.320625
0.321033
0.322076
0.222747
0.229718
0.235421
0.240505
0.245226
0.249928
0.255
0.260658
0.266819
0.273169
0.279324
0.284959
0.289876
0.294003
0.297366
0.300055
0.302184
0.303862
0.305183
0.306217
0.307015
0.307619
0.308061
0.30837
0.308574
0.308706
0.308806
0.308943
0.309259
0.310127
0.209542
0.216466
0.222361
0.227778
0.232927
0.238043
0.24338
0.249081
0.255087
0.261174
0.267054
0.272478
0.277281
0.28139
0.28481
0.2876
0.289845
0.291639
0.293063
0.294183
0.295049
0.295702
0.296175
0.296497
0.296699
0.296812
0.296879
0.296961
0.297193
0.297892
0.196337
0.203188
0.209209
0.214851
0.220281
0.225658
0.231151
0.236854
0.242724
0.248598
0.254259
0.259513
0.264225
0.268324
0.2718
0.27469
0.277058
0.278976
0.280516
0.281736
0.282685
0.283403
0.283923
0.284276
0.28449
0.284599
0.284643
0.284681
0.28484
0.28538
0.183041
0.18981
0.195917
0.20171
0.207316
0.212849
0.218421
0.224095
0.229841
0.235534
0.241013
0.246125
0.250758
0.254846
0.25837
0.261351
0.263833
0.265875
0.267535
0.268866
0.26991
0.270705
0.271283
0.271674
0.271907
0.272017
0.272042
0.27204
0.272133
0.272514
0.169594
0.176281
0.182455
0.188347
0.194057
0.199674
0.205275
0.2109
0.216526
0.222062
0.227382
0.232367
0.236923
0.240991
0.244549
0.247603
0.250185
0.252339
0.254112
0.255551
0.256694
0.257576
0.258225
0.258669
0.258938
0.259062
0.259082
0.259051
0.259091
0.259324
0.155971
0.162578
0.168809
0.174762
0.180524
0.186175
0.19177
0.197334
0.202847
0.208239
0.213415
0.21828
0.222757
0.226794
0.230366
0.233472
0.236133
0.238383
0.240259
0.241799
0.243036
0.243999
0.244716
0.245213
0.245517
0.245659
0.245675
0.245616
0.245605
0.245685
0.142194
0.148713
0.154986
0.160966
0.166736
0.172383
0.177948
0.183443
0.188847
0.194105
0.199143
0.203889
0.20828
0.212269
0.215832
0.218964
0.221678
0.223997
0.225955
0.227582
0.228908
0.229955
0.230747
0.231306
0.231656
0.231827
0.231851
0.231778
0.231728
0.231669
0.128341
0.134737
0.141014
0.146977
0.152712
0.158323
0.163842
0.169261
0.174557
0.179685
0.18459
0.189216
0.19351
0.197435
0.200967
0.204099
0.20684
0.209207
0.211224
0.212914
0.214302
0.215412
0.216261
0.21687
0.217259
0.217451
0.217478
0.217384
0.217291
0.217074
0.114539
0.120739
0.126944
0.132828
0.138482
0.144026
0.149479
0.154814
0.159998
0.164994
0.169762
0.174257
0.17844
0.182279
0.185752
0.188853
0.191587
0.19397
0.196021
0.19776
0.199205
0.200373
0.20128
0.20194
0.202373
0.202597
0.202636
0.202532
0.202402
0.202043
0.100953
0.106839
0.11285
0.118568
0.124085
0.129525
0.134889
0.140125
0.145192
0.150053
0.154679
0.159035
0.16309
0.166822
0.170212
0.173256
0.175956
0.17832
0.180367
0.182113
0.183575
0.184768
0.185702
0.18639
0.186845
0.187083
0.187121
0.186992
0.186806
0.186264
0.0877501
0.0931712
0.0988282
0.104267
0.109576
0.114863
0.120103
0.125218
0.130146
0.134855
0.139319
0.143514
0.147418
0.151012
0.154284
0.157233
0.159864
0.162188
0.164215
0.165958
0.167429
0.168639
0.169596
0.170311
0.170793
0.171052
0.171097
0.17095
0.170703
0.169996
0.0750714
0.0798619
0.0849864
0.0900173
0.095029
0.1001
0.10517
0.110132
0.114905
0.119448
0.123735
0.12775
0.131478
0.134908
0.138033
0.140851
0.143366
0.14559
0.147538
0.149223
0.150653
0.151836
0.152776
0.15348
0.153957
0.154213
0.154246
0.154058
0.153714
0.152769
0.0630056
0.067018
0.0714418
0.0759302
0.0805409
0.0853083
0.0901354
0.0948825
0.0994482
0.103781
0.107854
0.11165
0.115158
0.118378
0.121315
0.123972
0.126356
0.128474
0.130335
0.131951
0.133331
0.13448
0.1354
0.136094
0.136569
0.13683
0.136867
0.13665
0.136193
0.13503
0.0515924
0.0547252
0.0583159
0.0621331
0.066226
0.0705914
0.0751004
0.0795793
0.0838982
0.0879877
0.0918125
0.0953543
0.0986068
0.101572
0.104257
0.106676
0.108841
0.110768
0.112469
0.113952
0.115221
0.11628
0.117129
0.117769
0.118202
0.118437
0.11846
0.118198
0.117582
0.116101
0.0408277
0.0430483
0.0457293
0.0487657
0.0522086
0.05603
0.0600808
0.0641664
0.0681372
0.0719028
0.0754083
0.0786285
0.081565
0.0842343
0.0866531
0.0888331
0.0907843
0.092519
0.0940502
0.0953883
0.0965395
0.0975053
0.0982846
0.0988724
0.0992675
0.0994857
0.0995213
0.0992552
0.0984796
0.0967258
0.0306735
0.0320217
0.0337776
0.0359552
0.0386527
0.0418421
0.0453483
0.0489546
0.0524989
0.0558715
0.0589922
0.0618159
0.0643381
0.0665856
0.0685969
0.0704039
0.0720251
0.0734705
0.0747476
0.0758641
0.0768252
0.0776318
0.0782819
0.0787674
0.0790799
0.0792387
0.0792665
0.0790156
0.0780827
0.0759885
0.0210834
0.0216717
0.0225379
0.0237875
0.0255759
0.0279259
0.0306731
0.0336082
0.0365678
0.0394157
0.0420463
0.0444064
0.0464938
0.0483354
0.049967
0.0514182
0.0527087
0.0538537
0.054865
0.0557511
0.0565164
0.0571616
0.0576851
0.0580786
0.0583223
0.0584261
0.0584566
0.0583018
0.0573441
0.0551033
0.0119685
0.0119534
0.0119856
0.0124999
0.0135485
0.0150976
0.0169983
0.0191264
0.0213457
0.0234799
0.0253847
0.0270083
0.0283816
0.0295672
0.030616
0.0315517
0.0323837
0.0331199
0.0337691
0.0343374
0.034827
0.035237
0.0355674
0.0358154
0.0359592
0.0359791
0.0359486
0.0358945
0.0351458
0.0329685
0.00318374
0.000922992
-0.000119561
0.000425547
0.00112966
0.0019789
0.00296568
0.00417902
0.00555347
0.00690541
0.00808281
0.00902954
0.00976901
0.0103587
0.0108479
0.011265
0.0116257
0.0119409
0.0122186
0.012464
0.012678
0.0128585
0.013004
0.0131167
0.0131882
0.0131796
0.0130991
0.0131086
0.0129975
0.0115923
0.34972
0.349416
0.342703
0.330349
0.31526
0.299423
0.284026
0.269399
0.255465
0.242034
0.228934
0.216015
0.203169
0.19031
0.177365
0.164298
0.151096
0.13778
0.124423
0.111135
0.0980584
0.0853486
0.0731393
0.0615185
0.0505273
0.0401582
0.0303527
0.0210369
0.0122061
0.00353401
0.350256
0.347598
0.340191
0.327213
0.311937
0.296196
0.281004
0.266591
0.252846
0.239579
0.22662
0.213824
0.201084
0.188321
0.175461
0.162473
0.14935
0.136119
0.122864
0.1097
0.0967721
0.0842328
0.0722077
0.0607769
0.0499731
0.0397821
0.0301337
0.0209411
0.0122143
0.00361968
0.349722
0.345382
0.337078
0.323544
0.308268
0.292772
0.277876
0.263729
0.250202
0.237112
0.2243
0.21163
0.198997
0.18633
0.173555
0.160644
0.147597
0.134448
0.121285
0.108232
0.0954345
0.0830447
0.0711856
0.0599335
0.0493157
0.0393117
0.0298367
0.020788
0.0121715
0.00369658
0.348865
0.342595
0.333661
0.319758
0.304594
0.289387
0.274794
0.26091
0.247596
0.23468
0.222012
0.209465
0.196939
0.184364
0.171672
0.158839
0.14587
0.132804
0.11974
0.106804
0.0941452
0.0819111
0.0702204
0.0591447
0.0487052
0.0388762
0.0295612
0.0206462
0.0121279
0.00375939
0.347731
0.339425
0.330075
0.315936
0.300942
0.286043
0.271752
0.258126
0.245021
0.232276
0.219751
0.207326
0.194903
0.182419
0.169809
0.157051
0.14416
0.131181
0.118219
0.105407
0.0928919
0.0808197
0.0693025
0.0584051
0.0481406
0.0384778
0.0293107
0.0205183
0.0120878
0.00380703
0.346221
0.335971
0.326356
0.312093
0.297314
0.282738
0.268748
0.255376
0.242477
0.229901
0.217517
0.205212
0.192891
0.180496
0.167965
0.155282
0.142469
0.129579
0.116723
0.104038
0.0916726
0.079767
0.0684262
0.0577074
0.0476143
0.0381094
0.0290797
0.0204003
0.0120487
0.00384244
0.344282
0.332283
0.322522
0.308245
0.293717
0.279475
0.265783
0.252661
0.239965
0.227556
0.215311
0.203124
0.190902
0.178594
0.166141
0.153532
0.140798
0.128
0.115254
0.102701
0.0904894
0.0787545
0.0675922
0.0570511
0.0471251
0.0377698
0.028867
0.0202911
0.0120105
0.0038681
0.34189
0.328421
0.318596
0.304411
0.290158
0.276256
0.262859
0.249982
0.237486
0.225242
0.213134
0.201063
0.188939
0.176715
0.164338
0.151803
0.139149
0.126445
0.113813
0.101397
0.0893437
0.0777831
0.0668007
0.0564358
0.046672
0.0374581
0.0286725
0.0201904
0.0119737
0.00388601
0.339043
0.324446
0.3146
0.300603
0.286643
0.273083
0.259976
0.247338
0.23504
0.222958
0.210984
0.199028
0.187001
0.174858
0.162557
0.150095
0.137523
0.124916
0.112403
0.100128
0.0882371
0.0768534
0.066051
0.0558601
0.046253
0.0371724
0.0284949
0.0200974
0.0119385
0.00389781
0.335754
0.320407
0.310555
0.29683
0.283177
0.269955
0.257135
0.244732
0.232627
0.220704
0.208864
0.197019
0.185087
0.173025
0.160798
0.148411
0.135922
0.123415
0.111024
0.0988954
0.0871711
0.0759659
0.0653425
0.0553222
0.0458661
0.0369107
0.0283327
0.0200118
0.0119052
0.00390507
0.332057
0.31634
0.306485
0.293099
0.279765
0.266875
0.254336
0.242161
0.230247
0.218482
0.206773
0.195038
0.183198
0.171214
0.159062
0.14675
0.134346
0.121943
0.10968
0.0977022
0.0861474
0.0751215
0.0646753
0.0548212
0.0455096
0.0366715
0.0281848
0.019933
0.0118738
0.00390852
0.328002
0.31227
0.302412
0.289414
0.276408
0.263843
0.251578
0.239628
0.227901
0.216291
0.204711
0.193082
0.181333
0.169426
0.157348
0.145113
0.132798
0.120503
0.108372
0.0965497
0.0851671
0.0743207
0.0640493
0.0543565
0.0451823
0.0364535
0.0280502
0.0198608
0.0118443
0.00390904
0.323655
0.308211
0.298359
0.285778
0.273108
0.260859
0.248864
0.237134
0.22559
0.214131
0.202677
0.191153
0.179492
0.167662
0.155658
0.143501
0.131277
0.119095
0.107101
0.0954391
0.084231
0.0735638
0.0634641
0.0539268
0.0448828
0.0362551
0.0279277
0.0197944
0.0118163
0.00390741
0.319088
0.304174
0.294345
0.282196
0.269868
0.257925
0.246193
0.234678
0.223314
0.212004
0.200673
0.189249
0.177675
0.165921
0.153991
0.141914
0.129785
0.117721
0.10587
0.0943712
0.0833391
0.0728501
0.0629185
0.0535304
0.0446089
0.0360745
0.027816
0.0197331
0.0117898
0.00390432
0.314374
0.300164
0.290386
0.278669
0.266685
0.255041
0.243565
0.232261
0.221073
0.209909
0.198698
0.187373
0.175883
0.164204
0.152348
0.140354
0.128324
0.116383
0.104678
0.093346
0.0824908
0.0721784
0.0624106
0.0531647
0.0443582
0.0359095
0.0277135
0.0196762
0.0117645
0.00390032
0.309581
0.296185
0.286493
0.275199
0.263562
0.252206
0.240981
0.229883
0.218867
0.207846
0.196751
0.185523
0.174116
0.162511
0.150729
0.13882
0.126895
0.115081
0.103526
0.0923638
0.0816856
0.0715471
0.0619383
0.0528273
0.0441281
0.0357581
0.0276191
0.0196232
0.0117402
0.0038958
0.304769
0.292244
0.282677
0.271789
0.260496
0.249421
0.238439
0.227544
0.216695
0.205814
0.194833
0.183699
0.172372
0.160841
0.149135
0.137316
0.125498
0.113816
0.102416
0.0914249
0.080923
0.0709549
0.0614993
0.0525158
0.0439167
0.0356187
0.0275317
0.0195735
0.0117168
0.00389105
0.299989
0.288346
0.278941
0.268442
0.257487
0.246685
0.23594
0.225243
0.214557
0.203812
0.192943
0.1819
0.170653
0.159196
0.147567
0.135841
0.124137
0.112591
0.101349
0.0905299
0.0802029
0.0704008
0.061092
0.0522285
0.0437222
0.0354902
0.0274507
0.0195271
0.0116943
0.0038863
0.295284
0.284499
0.275291
0.265158
0.254535
0.243997
0.233483
0.222979
0.212452
0.20184