/*--------------------------------*- C++ -*----------------------------------*\
  =========                 |
  \\      /  F ield         | OpenFOAM: The Open Source CFD Toolbox
   \\    /   O peration     | Website:  https://openfoam.org
    \\  /    A nd           | Version:  7
     \\/     M anipulation  |
\*---------------------------------------------------------------------------*/
FoamFile
{
    version     2.0;
    format      ascii;
    class       volVectorField;
    location    "9.6";
    object      U;
}
// * * * * * * * * * * * * * * * * * * * * * * * * * * * * * * * * * * * * * //

dimensions      [0 1 -1 0 0 0 0];

internalField   nonuniform List<vector> 
18000
(
(0.000445257 -0.00915425 3.64178e-21)
(0.00264473 -0.0200135 0)
(0.00681071 -0.0240159 0)
(0.0121958 -0.0226067 0)
(0.0186947 -0.0168105 -1.21094e-21)
(0.0261438 -0.00740162 6.12826e-21)
(0.0344266 0.00500853 -1.24125e-21)
(0.0434508 0.0199331 1.24976e-21)
(0.0531362 0.0369785 0)
(0.0634082 0.0558167 -3.78116e-21)
(0.0741949 0.0761664 -1.26506e-21)
(0.0854222 0.0977761 0)
(0.0970096 0.120411 2.52214e-21)
(0.108869 0.143844 2.52917e-21)
(0.120903 0.16785 -5.04758e-21)
(0.133008 0.1922 -5.03911e-21)
(0.145074 0.216664 0)
(0.156985 0.241011 -7.54794e-21)
(0.168623 0.265009 2.50693e-21)
(0.179874 0.288436 -7.53244e-21)
(0.190627 0.311079 2.50134e-21)
(0.200782 0.332742 0)
(0.21025 0.353252 -2.47879e-21)
(0.218959 0.372462 -2.5008e-21)
(0.226851 0.390253 0)
(0.233889 0.406537 0)
(0.240051 0.421253 -5.02248e-21)
(0.245342 0.434357 -5.02944e-21)
(0.249783 0.445794 -5.09499e-21)
(0.253294 0.455373 5.38554e-21)
(0.000701111 -0.00963383 5.19087e-21)
(0.00315013 -0.021334 9.05884e-21)
(0.00727686 -0.0261075 -9.28788e-21)
(0.0123854 -0.025426 -9.48505e-21)
(0.0184067 -0.0203306 -2.41678e-21)
(0.0252118 -0.011606 7.32818e-21)
(0.0327135 0.000129522 -9.8888e-21)
(0.0408433 0.0143867 -9.96794e-21)
(0.0495403 0.0307731 1.00242e-20)
(0.0587481 0.0489639 1.0065e-20)
(0.0684117 0.0686836 -5.03561e-21)
(0.0784719 0.0896892 -1.00869e-20)
(0.0888654 0.111756 -5.05902e-21)
(0.0995217 0.13467 1.00702e-20)
(0.110362 0.158218 -1.00505e-20)
(0.121302 0.182187 1.00576e-20)
(0.132247 0.206359 -2.00706e-20)
(0.143102 0.230516 1.50129e-20)
(0.153765 0.254437 -9.97116e-21)
(0.164134 0.277904 5.00923e-21)
(0.174112 0.30071 -9.94294e-21)
(0.183606 0.322658 0)
(0.192532 0.343571 5.09281e-21)
(0.200819 0.363292 -9.92016e-21)
(0.208407 0.381692 9.93315e-21)
(0.215254 0.398667 0)
(0.221334 0.414139 -4.9256e-21)
(0.226644 0.428041 4.91864e-21)
(0.231176 0.440293 1.99268e-20)
(0.234801 0.450664 1.06825e-20)
(0.000981899 -0.0101183 -8.31215e-21)
(0.00371697 -0.0226213 -9.05864e-21)
(0.00782827 -0.0281073 1.39329e-20)
(0.0126824 -0.0281024 2.36892e-20)
(0.0182531 -0.0236662 0)
(0.0244473 -0.0155944 -9.7835e-21)
(0.0312058 -0.00450883 9.88866e-21)
(0.0384858 0.00909947 2.98553e-20)
(0.0462456 0.0248386 -1.00241e-20)
(0.0544438 0.0423874 -1.00607e-20)
(0.0630404 0.0614762 3.01818e-20)
(0.0719912 0.0818695 1.00869e-20)
(0.0812461 0.103353 0)
(0.0907492 0.125721 -2.01334e-20)
(0.100438 0.148775 3.00508e-20)
(0.110242 0.172315 -9.98299e-21)
(0.120087 0.196137 1.00108e-20)
(0.12989 0.220032 9.99087e-21)
(0.139566 0.243793 5.53504e-23)
(0.149028 0.267211 0)
(0.158189 0.290082 2.98423e-20)
(0.166967 0.312212 -1.97187e-20)
(0.175284 0.333423 9.93034e-21)
(0.183072 0.353553 0)
(0.190274 0.372462 -9.93325e-21)
(0.196843 0.390036 3.9605e-20)
(0.202749 0.406179 -2.94539e-20)
(0.207988 0.420806 -9.95834e-21)
(0.212524 0.433811 9.76949e-21)
(0.216183 0.444928 1.073e-20)
(0.00128461 -0.0105595 0)
(0.00433039 -0.023801 4.52427e-21)
(0.00843893 -0.0299566 8.79114e-24)
(0.0130553 -0.0305911 -2.36632e-20)
(0.0181938 -0.0267839 0)
(0.023801 -0.0193422 -1.94861e-20)
(0.0298492 -0.00888962 0)
(0.036318 0.00408151 -2.98224e-20)
(0.0431845 0.01918 9.98149e-21)
(0.0504237 0.0360892 -2.00102e-20)
(0.0580082 0.0545449 -2.01011e-20)
(0.0659051 0.0743181 -1.00446e-20)
(0.0740764 0.0952023 1.00249e-20)
(0.0824789 0.117004 9.96933e-21)
(0.0910627 0.139534 -1.00427e-20)
(0.0997717 0.162604 -1.98874e-20)
(0.108544 0.186024 1.98483e-20)
(0.117312 0.209597 0)
(0.126005 0.233125 0)
(0.134549 0.256411 0)
(0.142869 0.279258 0)
(0.150893 0.301475 0)
(0.15855 0.322884 0)
(0.165779 0.343321 -1.95557e-20)
(0.172523 0.362641 -1.97218e-20)
(0.178736 0.380718 -1.8736e-22)
(0.184389 0.397443 -1.97568e-20)
(0.189475 0.412715 -4.49378e-22)
(0.193932 0.426403 -2.01946e-20)
(0.197546 0.438211 4.19776e-20)
(0.0016057 -0.0109802 0)
(0.00498214 -0.0249053 4.06045e-20)
(0.00909509 -0.0316756 7.95454e-24)
(0.0134793 -0.0329059 -1.41694e-20)
(0.0181964 -0.0296943 4.79762e-20)
(0.0232344 -0.0228566 2.92231e-20)
(0.0285962 -0.01302 2.94599e-20)
(0.0342855 -0.000674962 0)
(0.0402986 0.0137901 0)
(0.0466239 0.0300623 3.00043e-20)
(0.0532457 0.0478828 6.32541e-24)
(0.0601421 0.0670292 -7.00011e-20)
(0.0672847 0.0873031 5.99151e-20)
(0.0746401 0.10852 -1.99946e-20)
(0.0821691 0.1305 1.98165e-20)
(0.0898269 0.153067 1.98407e-20)
(0.0975633 0.176041 -1.97472e-20)
(0.105324 0.199238 1.97828e-20)
(0.113049 0.222472 3.93665e-20)
(0.120679 0.245553 -1.95738e-20)
(0.128148 0.268293 -3.90538e-20)
(0.135394 0.290508 3.89665e-20)
(0.142358 0.312022 -3.88944e-20)
(0.14898 0.33267 1.9556e-20)
(0.15521 0.352302 0)
(0.161004 0.370787 0)
(0.166334 0.388004 3.70165e-22)
(0.171194 0.403836 -7.74465e-20)
(0.175497 0.418132 3.87414e-20)
(0.178994 0.43057 -4.2182e-20)
(0.00194234 -0.0113643 0)
(0.00566007 -0.025904 -3.60862e-20)
(0.00977498 -0.0332381 3.69244e-20)
(0.013927 -0.0350242 0)
(0.0182265 -0.0323789 -7.66852e-20)
(0.0227052 -0.0261258 -9.71616e-21)
(0.0273996 -0.016892 -1.96672e-20)
(0.0323364 -0.00516536 -9.88122e-21)
(0.0375295 0.00866888 0)
(0.0429816 0.0243032 -1.99331e-20)
(0.0486877 0.0414847 1.99523e-20)
(0.0546341 0.0599975 3.99715e-20)
(0.0608007 0.0796498 -3.9929e-20)
(0.0671626 0.100265 0)
(0.0736889 0.121674 -3.97524e-20)
(0.0803437 0.143708 3.94911e-20)
(0.0870869 0.1662 3.95133e-20)
(0.0938744 0.188975 5.89155e-20)
(0.100659 0.211858 -5.88134e-20)
(0.107388 0.23467 7.81341e-20)
(0.11401 0.257231 3.90703e-20)
(0.120471 0.279363 -3.8967e-20)
(0.126719 0.300895 7.75533e-20)
(0.132704 0.321663 0)
(0.138379 0.341516 3.85279e-20)
(0.143704 0.360315 7.72998e-20)
(0.148654 0.377932 -3.81001e-20)
(0.153227 0.394239 3.87475e-20)
(0.157311 0.409064 3.82211e-23)
(0.160625 0.422067 -4.18356e-20)
(0.00229019 -0.0117101 -4.13457e-21)
(0.0063526 -0.026794 0)
(0.0104604 -0.0346379 -4.61541e-20)
(0.0143721 -0.0369403 9.40561e-21)
(0.0182515 -0.0348346 2.87344e-20)
(0.0221767 -0.0291481 9.68827e-21)
(0.0262169 -0.0205068 3.91146e-20)
(0.0304228 -0.00939472 0)
(0.034826 0.00380888 1.98209e-20)
(0.0394421 0.0188028 1.98283e-20)
(0.0442752 0.03534 -1.99056e-20)
(0.0493194 0.0532106 5.96355e-20)
(0.0545614 0.0722302 0)
(0.0599826 0.0922297 0)
(0.0655586 0.113047 5.92809e-20)
(0.071261 0.134524 -9.85379e-20)
(0.0770579 0.156501 3.92144e-20)
(0.0829138 0.178815 -3.92228e-20)
(0.0887899 0.201301 -3.89263e-20)
(0.0946444 0.223788 -1.16733e-19)
(0.100434 0.246105 -2.05441e-22)
(0.106114 0.268083 3.8545e-20)
(0.111641 0.289554 -7.71016e-20)
(0.116971 0.310358 3.83547e-20)
(0.122064 0.330343 -2.47372e-22)
(0.126884 0.349367 -3.84844e-20)
(0.13141 0.367296 3.84521e-20)
(0.135645 0.383992 0)
(0.139454 0.399267 3.8096e-20)
(0.14253 0.412766 5.63826e-22)
(0.00264494 -0.0120111 -8.26056e-21)
(0.0070467 -0.0275625 8.99682e-21)
(0.0111308 -0.0358627 -5.52343e-20)
(0.0147885 -0.0386434 -2.81621e-20)
(0.0182406 -0.0370524 3.81627e-20)
(0.0216128 -0.0319185 -5.8002e-20)
(0.0250086 -0.0238637 -1.9583e-20)
(0.0285021 -0.0133652 -3.93072e-20)
(0.0321418 -0.000794982 3.94944e-20)
(0.0359556 0.0135527 -7.93066e-20)
(0.0399559 0.0294374 -3.96466e-20)
(0.0441434 0.0466563 -1.07043e-22)
(0.04851 0.0650315 1.98246e-20)
(0.053042 0.0844003 -5.92477e-20)
(0.0577204 0.104609 -7.88547e-20)
(0.0625226 0.125506 1.85296e-23)
(0.067423 0.14694 -1.16182e-22)
(0.0723929 0.16876 3.89299e-20)
(0.0774008 0.190807 3.89269e-20)
(0.0824132 0.21292 -1.64171e-23)
(0.087395 0.234938 -2.14452e-22)
(0.0923097 0.256698 3.81527e-20)
(0.0971206 0.278037 3.84433e-20)
(0.101792 0.2988 4.38304e-23)
(0.106288 0.318837 -1.14621e-19)
(0.11058 0.338003 7.5912e-20)
(0.114651 0.35616 7.6448e-20)
(0.118511 0.373163 -7.5619e-20)
(0.122 0.388809 -3.80966e-20)
(0.124791 0.402736 -4.14747e-20)
(0.0030014 -0.012261 -7.42421e-20)
(0.00772884 -0.0281989 -8.98447e-21)
(0.0117661 -0.0369006 4.60059e-20)
(0.0151509 -0.0401232 3.75524e-20)
(0.0181641 -0.0390256 -3.81625e-20)
(0.020981 -0.0344335 3.8652e-20)
(0.0237394 -0.0269621 -1.94957e-20)
(0.0265364 -0.0170797 5.89372e-20)
(0.0294368 -0.0051491 -3.94945e-20)
(0.0324798 0.00854369 3.96038e-20)
(0.0356852 0.0237658 1.98463e-20)
(0.0390591 0.0403213 -1.98458e-20)
(0.0425976 0.0580387 -1.1849e-19)
(0.046291 0.076762 7.89015e-20)
(0.0501241 0.0963439 3.9368e-20)
(0.0540788 0.116641 0)
(0.0581342 0.13751 0)
(0.0622669 0.158805 -2.53911e-22)
(0.0664514 0.180377 -3.86494e-20)
(0.0706611 0.202075 0)
(0.0748675 0.223745 0)
(0.0790412 0.24523 -3.83638e-20)
(0.0831524 0.266376 0)
(0.0871718 0.28703 -7.59165e-20)
(0.0910708 0.307044 0)
(0.0948239 0.326275 -3.79823e-20)
(0.0984218 0.344581 7.59449e-20)
(0.101878 0.361812 -7.51213e-20)
(0.105015 0.377755 0)
(0.107485 0.392043 0)
(0.003354 -0.0124535 6.59891e-20)
(0.00838494 -0.0286923 0)
(0.012346 -0.0377408 -9.18678e-21)
(0.0154348 -0.0413709 9.36145e-21)
(0.0179948 -0.0407478 -5.7016e-20)
(0.0202522 -0.0366899 5.71945e-24)
(0.0223785 -0.0298022 -1.94517e-20)
(0.0244936 -0.0205415 0)
(0.0266775 -0.00925958 0)
(0.0289797 0.00376698 -1.97312e-20)
(0.0314264 0.0183137 1.97504e-20)
(0.0340281 0.0341919 -3.94938e-20)
(0.0367846 0.0512371 3.96088e-20)
(0.0396886 0.0692993 0)
(0.0427281 0.0882378 0)
(0.045888 0.107915 0)
(0.0491509 0.128196 3.87536e-20)
(0.0524973 0.14894 -1.07727e-22)
(0.0559067 0.170007 3.87724e-20)
(0.0593577 0.191254 -7.67277e-20)
(0.0628275 0.212533 3.8371e-20)
(0.0662926 0.233695 -1.90618e-19)
(0.0697294 0.254592 -8.56612e-23)
(0.0731145 0.275076 7.5918e-20)
(0.0764251 0.295003 -4.6481e-22)
(0.0796408 0.314229 7.50323e-20)
(0.0827584 0.33261 -7.49649e-20)
(0.085797 0.349997 -7.53426e-20)
(0.0885585 0.366166 -1.11972e-22)
(0.0906799 0.380754 -8.10529e-20)
(0.00369645 -0.0125822 -8.23775e-21)
(0.00900013 -0.0290321 0)
(0.0128503 -0.038373 1.83458e-20)
(0.0156168 -0.0423782 -1.86947e-20)
(0.0177078 -0.0422133 1.70962e-19)
(0.0194005 -0.038685 3.29574e-24)
(0.0208998 -0.0323842 -1.94135e-20)
(0.0223473 -0.0237536 1.95459e-20)
(0.0238371 -0.0131322 -9.80999e-20)
(0.0254277 -0.000785739 0)
(0.0271511 0.0130705 0)
(0.0290214 0.0282559 -3.9303e-20)
(0.0310406 0.0446127 3.94334e-20)
(0.0332037 0.0619975 -3.92568e-20)
(0.0355006 0.0802752 3.90898e-20)
(0.0379181 0.0993146 0)
(0.0404413 0.118985 -1.55238e-19)
(0.0430539 0.139155 7.71898e-20)
(0.0457389 0.15969 3.8545e-20)
(0.0484788 0.180453 1.15008e-19)
(0.0512556 0.201304 0)
(0.0540508 0.222101 7.61178e-20)
(0.056846 0.242702 7.5478e-20)
(0.0596229 0.262963 7.51925e-20)
(0.0623639 0.282743 -3.09776e-22)
(0.0650536 0.301901 -7.48166e-20)
(0.0676942 0.320293 7.49665e-20)
(0.0703101 0.337771 0)
(0.0726851 0.354102 -1.07733e-22)
(0.0744406 0.36893 1.61871e-19)
(0.00402203 -0.0126414 -6.5823e-20)
(0.00955922 -0.0292089 0)
(0.0132594 -0.038788 -7.32126e-20)
(0.0156754 -0.0431379 -9.32948e-20)
(0.0172809 -0.0434178 -5.69553e-20)
(0.0184041 -0.040417 1.91961e-20)
(0.0192822 -0.0347088 -1.32037e-24)
(0.0200771 -0.0267188 -1.95087e-20)
(0.0208958 -0.0167719 1.60044e-22)
(0.0218044 -0.00512152 3.92904e-20)
(0.0228397 0.00802736 3.92492e-20)
(0.0240187 0.0225027 -3.91575e-20)
(0.0253451 0.0381539 3.92422e-20)
(0.026815 0.0548436 -1.17402e-19)
(0.0284195 0.0724425 1.16984e-19)
(0.0301468 0.0908249 7.76846e-20)
(0.0319836 0.109866 1.93655e-19)
(0.0339156 0.129439 -3.86697e-20)
(0.0359284 0.149417 -7.66775e-20)
(0.0380076 0.169668 -1.82258e-22)
(0.0401389 0.190059 -7.62654e-20)
(0.0423078 0.210454 2.27206e-19)
(0.0445001 0.230716 -1.51155e-19)
(0.0467021 0.250707 1.50003e-19)
(0.0489005 0.27029 -7.50503e-20)
(0.0510843 0.289324 1.4935e-19)
(0.053261 0.30767 4.44247e-22)
(0.0554588 0.325179 -1.48459e-19)
(0.0574449 0.341615 1.47547e-19)
(0.0588256 0.356632 8.05122e-20)
(0.00432342 -0.0126254 6.58228e-20)
(0.0100467 -0.0292145 0)
(0.0135541 -0.0389784 1.64617e-19)
(0.0155905 -0.0436443 5.59827e-20)
(0.0166947 -0.0443576 0)
(0.0172454 -0.0418846 0)
(0.0175098 -0.0367764 0)
(0.0176689 -0.0294396 0)
(0.0178406 -0.0201828 3.9194e-20)
(0.0180977 -0.00924572 3.92163e-20)
(0.0184809 0.0031777 -7.8579e-20)
(0.0190091 0.0169245 7.85464e-20)
(0.0196869 0.0318513 1.17469e-19)
(0.020511 0.0478273 3.91667e-20)
(0.0214732 0.0647288 3.88419e-20)
(0.0225623 0.0824351 -1.16463e-19)
(0.0237658 0.100827 -1.54591e-19)
(0.025071 0.119782 -7.70253e-20)
(0.026465 0.13918 7.66792e-20)
(0.0279359 0.158893 -1.52741e-19)
(0.0294719 0.178795 7.57501e-20)
(0.0310618 0.198755 -1.51441e-19)
(0.032695 0.218643 7.51754e-20)
(0.0343611 0.238324 2.63314e-22)
(0.0360508 0.257664 -7.4431e-20)
(0.0377566 0.276527 -1.4921e-19)
(0.0394903 0.294775 1.48178e-19)
(0.0412828 0.312264 0)
(0.0428861 0.328756 1.26335e-22)
(0.0438909 0.343916 -1.60883e-19)
(0.00459294 -0.0125295 8.21857e-21)
(0.010447 -0.029042 0)
(0.0137164 -0.038938 -7.31132e-20)
(0.0153443 -0.0438932 1.8612e-20)
(0.0159333 -0.0450305 -1.88987e-20)
(0.0159106 -0.0430869 0)
(0.0155718 -0.0385877 -1.93017e-20)
(0.0151141 -0.0319176 1.94348e-20)
(0.0146653 -0.0233673 3.90368e-20)
(0.0143034 -0.0131616 -1.17355e-19)
(0.0140716 -0.00148259 -3.91833e-20)
(0.0139902 0.0115163 -1.32039e-23)
(0.0140642 0.0256994 -6.24896e-23)
(0.0142902 0.0409425 -7.80315e-20)
(0.0146601 0.0571273 -3.89745e-20)
(0.0151628 0.0741383 0)
(0.0157864 0.0918606 -3.1123e-23)
(0.0165188 0.110178 7.68934e-20)
(0.0173483 0.128973 -7.63624e-20)
(0.0182645 0.148126 0)
(0.0192576 0.167512 0)
(0.020319 0.187009 0)
(0.0214404 0.206489 0)
(0.0226146 0.225824 -1.51796e-22)
(0.023835 0.244883 0)
(0.0250969 0.263533 0)
(0.0264153 0.28164 7.38271e-20)
(0.0278223 0.299065 7.3555e-20)
(0.0290561 0.315571 7.36632e-20)
(0.0296901 0.330835 1.6282e-22)
(0.00482266 -0.0123499 8.21258e-21)
(0.0107447 -0.0286863 -1.78308e-20)
(0.0137291 -0.038663 1.09397e-19)
(0.014921 -0.0438823 -1.85861e-20)
(0.0149838 -0.0454356 1.88652e-20)
(0.0143907 -0.0440241 -3.90099e-24)
(0.0134624 -0.0401432 5.77369e-20)
(0.0124105 -0.0341537 -7.75219e-20)
(0.0113704 -0.0263264 1.1684e-19)
(0.0104241 -0.0168702 6.55634e-23)
(0.00961651 -0.00595456 -3.9054e-20)
(0.00896818 0.00627691 7.81484e-20)
(0.0084839 0.0196968 -7.8043e-20)
(0.00816007 0.0341873 7.78648e-20)
(0.00798801 0.0496359 0)
(0.0079565 0.0659321 7.73463e-20)
(0.0080536 0.0829656 0)
(0.00826753 0.100625 8.22102e-23)
(0.00858737 0.118797 -7.63498e-20)
(0.00900349 0.137365 -7.59956e-20)
(0.00950777 0.156213 7.56405e-20)
(0.0100931 0.17522 -7.52891e-20)
(0.0107533 0.194264 -7.49452e-20)
(0.0114832 0.213221 -1.4933e-19)
(0.0122782 0.231965 -7.42863e-20)
(0.0131356 0.250366 7.42789e-20)
(0.0140717 0.268294 -1.47317e-19)
(0.0151188 0.285618 -7.35568e-20)
(0.0160024 0.302104 0)
(0.0162762 0.31744 -8.03901e-20)
(0.00500455 -0.0120839 0)
(0.0109251 -0.0281447 7.12042e-20)
(0.0135772 -0.0381516 -5.47025e-20)
(0.0143078 -0.0436113 -9.27245e-20)
(0.0138372 -0.0455734 0)
(0.0126807 -0.0446968 0)
(0.011181 -0.0414435 -1.15475e-19)
(0.00956139 -0.0361478 1.54919e-19)
(0.00796273 -0.0290591 -1.16709e-19)
(0.00646975 -0.0203697 0)
(0.00512765 -0.0102359 3.91066e-20)
(0.00395681 0.00120923 -3.91111e-20)
(0.00296134 0.0138465 9.80625e-23)
(0.00213679 0.0275651 -3.90219e-20)
(0.00147376 0.0422581 -3.87827e-20)
(0.000960557 0.0578201 -6.99935e-23)
(0.000584995 0.0741453 7.69726e-20)
(0.000335205 0.0911265 7.66996e-20)
(0.00020052 0.108654 -9.98016e-23)
(0.000172018 0.126618 1.51831e-19)
(0.000242539 0.144904 -1.51419e-19)
(0.000406116 0.163396 1.50381e-19)
(0.000657769 0.181978 7.49471e-20)
(0.000993793 0.20053 7.46126e-20)
(0.00141096 0.218929 7.82004e-23)
(0.00190695 0.237049 0)
(0.00249833 0.254768 7.38504e-20)
(0.00321562 0.27196 -2.20125e-19)
(0.00377301 0.288397 7.19211e-20)
(0.00370193 0.30378 7.97354e-20)
(0.00513065 -0.0117298 -4.91759e-20)
(0.0109743 -0.0274164 -1.60106e-19)
(0.0132471 -0.0374047 1.03611e-23)
(0.0134947 -0.0430819 1.25169e-22)
(0.0124881 -0.0454458 -5.63477e-20)
(0.0107804 -0.0451065 0)
(0.00873233 -0.0424888 -3.83415e-20)
(0.00657576 -0.0378986 -2.31973e-19)
(0.00445524 -0.0315625 1.16585e-19)
(0.00245643 -0.0236556 -7.78399e-20)
(0.00062398 -0.0143204 1.16953e-19)
(-0.0010227 -0.00367941 -3.89862e-20)
(-0.00248064 0.00815703 7.79484e-20)
(-0.00375543 0.0210851 -1.94384e-19)
(-0.00485749 0.0350037 1.16285e-19)
(-0.00579919 0.0498124 5.41259e-23)
(-0.00659319 0.0654101 -2.30775e-19)
(-0.00725167 0.0816935 7.67428e-20)
(-0.00778524 0.0985575 -7.61678e-20)
(-0.00820243 0.115895 0)
(-0.00850978 0.133597 7.55821e-20)
(-0.00871263 0.151552 0)
(-0.00881519 0.169648 -7.50692e-20)
(-0.00882041 0.187768 7.43311e-20)
(-0.00873116 0.205796 7.42119e-20)
(-0.00855029 0.223609 7.38335e-20)
(-0.00826287 0.241091 0)
(-0.0078417 0.258127 0)
(-0.00758243 0.274494 -1.46256e-19)
(-0.00797965 0.289904 2.40185e-19)
(0.00519333 -0.0112876 4.92062e-20)
(0.0108794 -0.0265035 8.89038e-20)
(0.0127279 -0.0364258 -7.26058e-20)
(0.0124748 -0.0422983 1.47982e-19)
(0.0109352 -0.0450563 1.88976e-20)
(0.00869402 -0.0452552 1.89871e-20)
(0.00612579 -0.0432793 1.24461e-22)
(0.00346802 -0.0394036 -7.70683e-20)
(0.000866583 -0.0338317 -3.87183e-20)
(-0.0015935 -0.0267203 1.12211e-22)
(-0.00386906 -0.0181984 -1.00229e-22)
(-0.00594237 -0.00837697 -1.16832e-19)
(-0.00781201 0.00264223 -3.88976e-20)
(-0.00948502 0.0147626 5.93376e-23)
(-0.010973 0.0278891 7.74483e-20)
(-0.0122891 0.0419265 7.7201e-20)
(-0.0134468 0.056778 1.81446e-23)
(-0.0144585 0.0723445 -7.66125e-20)
(-0.015335 0.0885247 7.64163e-20)
(-0.0160846 0.105216 -7.57984e-20)
(-0.0167136 0.122313 -1.51185e-19)
(-0.0172268 0.139709 -7.54107e-20)
(-0.0176283 0.157295 1.49589e-19)
(-0.0179209 0.17496 0)
(-0.0181079 0.192592 -7.41842e-20)
(-0.0181938 0.210074 -1.47666e-19)
(-0.0181671 0.227297 -1.4741e-19)
(-0.0180056 0.244155 7.26845e-20)
(-0.0180132 0.260437 -2.18765e-19)
(-0.0187148 0.27586 7.98036e-20)
(0.0051854 -0.0107586 -8.18149e-20)
(0.0106295 -0.0254104 1.77671e-20)
(0.012011 -0.035221 7.26067e-20)
(0.0112447 -0.0412665 -5.54696e-20)
(0.00918105 -0.04441 1.88082e-20)
(0.00643015 -0.0451457 1.26622e-23)
(0.0033758 -0.0438145 1.91368e-19)
(0.000257725 -0.0406593 7.71318e-20)
(-0.00277913 -0.0358593 7.74984e-20)
(-0.00565195 -0.0295532 1.16581e-19)
(-0.00832003 -0.0218556 -1.16736e-19)
(-0.0107679 -0.0128664 7.78639e-20)
(-0.0129962 -0.00267825 1.55609e-19)
(-0.0150136 0.00861958 7.76861e-20)
(-0.0168329 0.0209382 6.28701e-23)
(-0.0184684 0.0341876 -1.54313e-19)
(-0.0199342 0.0482755 1.53951e-19)
(-0.0212434 0.0631066 1.10351e-22)
(-0.0224067 0.078584 -7.6439e-20)
(-0.0234324 0.0946089 7.5821e-20)
(-0.0243265 0.11108 7.56026e-20)
(-0.0250941 0.127895 -7.5299e-20)
(-0.025739 0.14495 -1.49999e-19)
(-0.0262644 0.162137 -3.91364e-22)
(-0.026675 0.179351 7.39551e-20)
(-0.0269782 0.19648 7.3832e-20)
(-0.0271674 0.213422 1.47403e-19)
(-0.0272268 0.230087 -1.45813e-19)
(-0.0274677 0.24627 0)
(-0.0284492 0.261696 8.04014e-20)
(0.00510044 -0.0101457 6.81828e-23)
(0.0102153 -0.0241447 0)
(0.0110909 -0.033799 -5.42756e-20)
(0.00980452 -0.0399951 -1.84454e-20)
(0.00723231 -0.0435132 -7.47656e-20)
(0.00400194 -0.0447813 0)
(0.00050143 -0.0440939 -1.14686e-19)
(-0.00303067 -0.0416606 3.84703e-20)
(-0.00645267 -0.037636 0)
(-0.00968552 -0.0321404 -7.75185e-20)
(-0.0126919 -0.025274 0)
(-0.0154593 -0.0171256 -1.16612e-19)
(-0.0179906 -0.00777857 1.16499e-19)
(-0.0202963 0.00268501 -7.76058e-20)
(-0.0223908 0.0141826 -7.74002e-20)
(-0.0242895 0.0266296 0)
(-0.0260073 0.039938 0)
(-0.0275577 0.054017 7.6778e-20)
(-0.0289516 0.0687737 2.82056e-22)
(-0.0301971 0.0841132 7.63563e-20)
(-0.0313005 0.0999387 -7.55181e-20)
(-0.0322667 0.116151 1.50816e-19)
(-0.0330999 0.132652 -7.47993e-20)
(-0.033804 0.149339 0)
(-0.0343857 0.166112 2.23167e-19)
(-0.0348561 0.182866 -3.69539e-19)
(-0.0352152 0.19951 7.30668e-20)
(-0.0354552 0.215964 7.31388e-20)
(-0.0358934 0.232041 7.2774e-20)
(-0.0371279 0.247462 1.61961e-19)
(0.00493293 -0.00945343 -6.52401e-20)
(0.00962984 -0.0227161 1.41417e-19)
(0.00996515 -0.0321716 7.23777e-20)
(0.00815831 -0.0384947 1.65485e-19)
(0.0050998 -0.042374 2.05335e-19)
(0.00142682 -0.0441659 3.77864e-20)
(-0.00247372 -0.0441166 -1.90553e-19)
(-0.00636804 -0.0424013 0)
(-0.01012 -0.0391501 -1.54284e-19)
(-0.0136558 -0.0344646 -7.73075e-20)
(-0.0169424 -0.028431 0)
(-0.0199708 -0.0211268 -7.75694e-20)
(-0.0227467 -0.0126266 4.59371e-23)
(-0.0252826 -0.0030048 -2.32548e-19)
(-0.0275943 0.00766237 7.74024e-20)
(-0.0296987 0.0192955 7.73068e-20)
(-0.0316114 0.0318113 -1.53696e-19)
(-0.0333463 0.0451233 -1.53385e-19)
(-0.0349145 0.0591428 -2.97063e-22)
(-0.0363242 0.0737789 -1.19915e-22)
(-0.0375817 0.0889389 0)
(-0.0386921 0.104528 -7.5609e-20)
(-0.0396597 0.120452 -7.53799e-20)
(-0.0404895 0.136616 0)
(-0.0411906 0.152924 0)
(-0.0417786 0.169282 2.22335e-19)
(-0.0422615 0.185608 -2.2058e-19)
(-0.0426404 0.201837 0)
(-0.0432376 0.217799 2.18917e-19)
(-0.0446954 0.23321 -1.6101e-19)
(0.00467855 -0.00868778 1.4661e-22)
(0.00886883 -0.0211375 -1.41466e-19)
(0.00863495 -0.0303528 -1.80588e-20)
(0.00631387 -0.0367782 -1.83814e-19)
(0.00279841 -0.0410017 -1.11962e-19)
(-0.00127356 -0.0433042 3.77152e-20)
(-0.0055218 -0.0438816 7.62727e-20)
(-0.00972089 -0.0428744 1.91554e-19)
(-0.0137425 -0.0403879 1.54288e-19)
(-0.0175195 -0.0365056 1.54832e-19)
(-0.0210244 -0.0312999 0)
(-0.0242518 -0.0248373 1.44853e-22)
(-0.0272107 -0.0171837 0)
(-0.0299158 -0.00840608 1.55075e-19)
(-0.0323848 0.00142588 0)
(-0.0346357 0.012238 -7.73317e-20)
(-0.0366852 0.0239516 7.67904e-20)
(-0.0385476 0.0364848 0)
(-0.0402341 0.0497532 0)
(-0.0417531 0.0636698 -2.28792e-19)
(-0.043111 0.0781458 7.56893e-20)
(-0.0443129 0.0930911 0)
(-0.0453633 0.108416 1.50021e-19)
(-0.0462682 0.124032 1.4956e-19)
(-0.0470392 0.139852 -2.97948e-19)
(-0.0476966 0.155789 2.96456e-19)
(-0.0482572 0.171774 2.91342e-22)
(-0.0487324 0.187759 1.46818e-19)
(-0.0494479 0.203597 -1.45711e-19)
(-0.0510957 0.218992 0)
(0.00433433 -0.00785639 1.63019e-19)
(0.0079308 -0.0194242 -1.76678e-20)
(0.00710494 -0.0283595 -1.43931e-19)
(0.00428293 -0.0348605 0)
(0.000347008 -0.0394072 -1.48631e-19)
(-0.00407358 -0.0422015 0)
(-0.00861096 -0.0433877 -1.89818e-19)
(-0.0130517 -0.0430713 -1.14959e-19)
(-0.0172775 -0.0413336 -1.53779e-19)
(-0.0212293 -0.0382402 0)
(-0.0248859 -0.03385 3.87553e-20)
(-0.0282466 -0.0282193 3.9036e-20)
(-0.0313235 -0.0214053 -7.74678e-20)
(-0.0341341 -0.0134675 -1.54957e-19)
(-0.0366978 -0.00446949 -7.7252e-20)
(-0.0390342 0.00551977 -3.08931e-19)
(-0.0411611 0.0164266 1.53734e-19)
(-0.0430933 0.0281735 -3.11671e-22)
(-0.0448422 0.0406805 -3.33479e-22)
(-0.0464165 0.0538644 2.28552e-19)
(-0.0478229 0.06764 0)
(-0.0490662 0.0819218 0)
(-0.050151 0.0966254 5.36059e-22)
(-0.0510841 0.111668 2.56397e-22)
(-0.051879 0.126971 -1.49436e-19)
(-0.0525607 0.142459 -1.48937e-19)
(-0.0531545 0.158076 -5.79684e-22)
(-0.0536821 0.173795 -1.46822e-19)
(-0.0544719 0.189495 -1.46426e-19)
(-0.0562723 0.204865 -5.55317e-22)
(0.00389887 -0.00696835 0)
(0.00681743 -0.0175939 1.4059e-19)
(0.0053835 -0.0262109 1.25973e-19)
(0.00208115 -0.0327585 1.83025e-20)
(-0.00223167 -0.0376028 2.96923e-19)
(-0.00694387 -0.0408637 -3.75604e-20)
(-0.0117057 -0.0426336 3.03301e-19)
(-0.0163192 -0.0429833 1.52601e-19)
(-0.0206783 -0.0419701 2.30615e-19)
(-0.0247337 -0.0396426 1.15603e-19)
(-0.0284709 -0.0360471 3.8712e-20)
(-0.0318947 -0.03123 1.93862e-19)
(-0.0350208 -0.0252402 1.99504e-22)
(-0.0378695 -0.0181301 7.76037e-20)
(-0.0404626 -0.00995733 1.54762e-19)
(-0.0428212 -0.000785654 1.54471e-19)
(-0.0449643 0.00931614 0)
(-0.0469075 0.0202754 0)
(-0.0486628 0.0320158 0)
(-0.0502395 0.0444581 0)
(-0.0516443 0.0575207 1.52326e-19)
(-0.0528821 0.0711221 0)
(-0.0539573 0.0851825 -2.56253e-22)
(-0.0548769 0.0996258 3.00367e-19)
(-0.0556552 0.114381 1.49203e-19)
(-0.0563205 0.129385 1.48458e-19)
(-0.0569057 0.144598 2.9623e-19)
(-0.0574418 0.160019 0)
(-0.0582578 0.175559 -2.93381e-19)
(-0.0601669 0.190889 3.25473e-19)
(0.00337245 -0.00603401 1.29759e-19)
(0.0055336 -0.0156664 -1.40593e-19)
(0.0034828 -0.0239282 0)
(-0.000272033 -0.030491 -1.45781e-19)
(-0.00491121 -0.0356021 -3.73958e-20)
(-0.00985153 -0.0392979 -1.12218e-19)
(-0.014767 -0.0416187 -3.4048e-19)
(-0.0194787 -0.0426009 -3.66004e-22)
(-0.0238951 -0.042279 -1.14885e-19)
(-0.0279774 -0.040685 -2.69489e-19)
(-0.0317194 -0.0378538 -3.85813e-20)
(-0.0351315 -0.0338223 -1.54656e-19)
(-0.0382337 -0.0286318 -1.54798e-19)
(-0.0410492 -0.0223279 0)
(-0.0436025 -0.0149625 -1.54711e-19)
(-0.0459168 -0.00659439 -2.31945e-19)
(-0.0480125 0.00271263 7.69517e-20)
(-0.0499063 0.0128904 -1.53925e-19)
(-0.0516112 0.0238667 -1.53528e-19)
(-0.0531375 0.0355653 0)
(-0.0544925 0.0479081 -3.04907e-19)
(-0.0556811 0.0608169 0)
(-0.0567076 0.0742158 -3.02842e-19)
(-0.0575785 0.0880338 -1.5107e-19)
(-0.0583073 0.102208 -2.99932e-19)
(-0.058923 0.116687 1.49665e-19)
(-0.0594635 0.13145 -4.45063e-19)
(-0.0599649 0.146523 1.47914e-19)
(-0.0607534 0.161866 -4.20005e-22)
(-0.0627178 0.177133 -1.64359e-19)
(0.00275715 -0.00506481 -1.29762e-19)
(0.00408755 -0.0136635 1.7495e-20)
(0.00141871 -0.0215346 1.24968e-19)
(-0.00275347 -0.0280785 1.45785e-19)
(-0.00766174 -0.0334202 -1.47924e-19)
(-0.0127605 -0.0375121 3.95568e-22)
(-0.017753 -0.0403426 1.51146e-19)
(-0.0224828 -0.0419149 -3.04249e-19)
(-0.0268748 -0.0422413 -3.79667e-20)
(-0.0309021 -0.0413385 3.45879e-19)
(-0.0345677 -0.0392306 -2.31331e-19)
(-0.0378882 -0.0359461 3.8629e-19)
(-0.0408882 -0.0315189 3.86938e-19)
(-0.0435946 -0.0259885 -7.72503e-20)
(-0.0460347 -0.0194018 1.54715e-19)
(-0.0482342 -0.0118125 2.31969e-19)
(-0.0502153 -0.00327948 7.73409e-20)
(-0.0519962 0.00613343 -9.96369e-23)
(-0.053592 0.0163576 7.65228e-20)
(-0.0550143 0.0273202 7.63869e-20)
(-0.0562716 0.0389456 -7.6798e-20)
(-0.0573699 0.0511582 7.5871e-20)
(-0.0583134 0.0638843 -1.51746e-19)
(-0.0591075 0.0770559 1.50816e-19)
(-0.0597636 0.0906156 -3.57796e-22)
(-0.0603076 0.104523 1.49824e-19)
(-0.0607766 0.118774 -4.06195e-22)
(-0.061204 0.13343 -1.47745e-19)
(-0.0619047 0.148512 1.68304e-22)
(-0.063856 0.163675 0)
(0.00205685 -0.00407309 0)
(0.00249086 -0.0116083 0)
(-0.000789303 -0.0190549 -1.60693e-19)
(-0.0053366 -0.0255432 1.81604e-20)
(-0.0104503 -0.0310736 0)
(-0.0156317 -0.0355155 1.49307e-19)
(-0.0206192 -0.0388064 3.76612e-20)
(-0.0252814 -0.0409169 1.14027e-19)
(-0.0295618 -0.0418384 1.52882e-19)
(-0.0334468 -0.0415735 -1.53595e-19)
(-0.0369492 -0.0401365 1.54113e-19)
(-0.0400925 -0.0375483 -1.54455e-19)
(-0.0429065 -0.0338362 -1.54645e-19)
(-0.0454222 -0.0290344 0)
(-0.0476704 -0.023185 0)
(-0.0496793 -0.0163369 0)
(-0.0514736 -0.00854448 -1.54316e-19)
(-0.053074 0.000132901 2.31278e-19)
(-0.0544979 0.00963013 -7.66672e-20)
(-0.0557595 0.0198772 0)
(-0.0568698 0.0308011 2.29505e-19)
(-0.0578365 0.0423272 -7.59929e-20)
(-0.0586653 0.0543823 1.5175e-19)
(-0.0593609 0.0668981 -3.03231e-19)
(-0.0599311 0.0798183 3.00741e-19)
(-0.0603949 0.0931067 6.382e-22)
(-0.0607806 0.106771 2.42353e-22)
(-0.0611045 0.120911 1.48155e-19)
(-0.0616486 0.135628 -7.41067e-22)
(-0.0634905 0.150609 1.64651e-19)
(0.00127729 -0.00307179 1.60703e-20)
(0.000758376 -0.00952513 -1.74603e-20)
(-0.00311831 -0.0165155 3.55329e-20)
(-0.00799166 -0.0229084 -2.16873e-19)
(-0.0132411 -0.0285804 3.67298e-20)
(-0.0184241 -0.033319 0)
(-0.0233189 -0.0370121 1.49914e-19)
(-0.0278224 -0.0395995 -1.51137e-19)
(-0.0318987 -0.0410524 0)
(-0.0355485 -0.0413609 1.91238e-19)
(-0.038795 -0.0405305 -3.8366e-20)
(-0.0416696 -0.0385752 0)
(-0.0442076 -0.0355168 -7.73324e-20)
(-0.0464447 -0.0313847 1.54507e-19)
(-0.0484156 -0.0262169 -7.709e-20)
(-0.0501517 -0.020058 7.74382e-20)
(-0.0516807 -0.0129575 -1.54351e-19)
(-0.0530263 -0.00497092 -4.32669e-22)
(-0.0542094 0.0038403 -4.47949e-22)
(-0.0552475 0.0134093 -7.70373e-20)
(-0.0561554 0.0236653 -1.5359e-19)
(-0.0569449 0.0345343 -9.43894e-22)
(-0.0576248 0.0459415 -5.8062e-22)
(-0.0582012 0.0578148 1.51463e-19)
(-0.0586789 0.0700917 -1.51485e-19)
(-0.0590675 0.0827294 1.50221e-19)
(-0.0593784 0.0957322 -2.99407e-19)
(-0.0595893 0.109221 -2.50427e-22)
(-0.0599015 0.123398 -2.97106e-19)
(-0.0614771 0.138051 1.65339e-19)
(0.000426133 -0.00207445 0)
(-0.00109171 -0.00743927 -1.38557e-19)
(-0.00554204 -0.0139435 0)
(-0.0106859 -0.020199 5.05059e-22)
(-0.0159959 -0.02596 3.65985e-20)
(-0.0210941 -0.0309348 1.38516e-23)
(-0.0258038 -0.0349638 -2.99317e-19)
(-0.0300527 -0.0379571 1.13437e-19)
(-0.0338268 -0.0398676 0)
(-0.0371428 -0.0406737 -1.91152e-19)
(-0.0400348 -0.0403732 3.82762e-20)
(-0.0425427 -0.0389742 0)
(-0.0447081 -0.0364938 -7.72215e-20)
(-0.0465718 -0.0329577 7.69775e-20)
(-0.0481728 -0.0284003 7.68933e-20)
(-0.0495463 -0.0228618 1.54396e-19)
(-0.0507233 -0.0163878 -7.69364e-20)
(-0.0517315 -0.00902974 0)
(-0.0525954 -0.000845032 0)
(-0.0533373 0.00810316 1.53572e-19)
(-0.053977 0.0177468 -1.53756e-19)
(-0.0545319 0.0280133 1.52361e-19)
(-0.0550169 0.0388261 1.52272e-19)
(-0.0554434 0.050107 1.52348e-19)
(-0.0558172 0.0617812 -1.50802e-19)
(-0.0561415 0.0737848 1.50532e-19)
(-0.0564103 0.0860908 1.50546e-19)
(-0.0565518 0.098806 -1.48911e-19)
(-0.0566202 0.112231 -6.5899e-22)
(-0.0577283 0.126314 3.33048e-19)
(-0.000487683 -0.00109419 1.59657e-20)
(-0.00303877 -0.00537563 1.21252e-19)
(-0.00803172 -0.0113662 0)
(-0.0133845 -0.0174401 1.44024e-19)
(-0.0186748 -0.0232328 0)
(-0.0235974 -0.0283768 0)
(-0.0280248 -0.0326675 1.12131e-19)
(-0.0319183 -0.0359868 -6.76903e-23)
(-0.0352874 -0.0382707 3.78312e-20)
(-0.0381653 -0.0394874 3.81417e-20)
(-0.0405983 -0.039628 -1.14808e-19)
(-0.0426351 -0.0386954 7.65856e-20)
(-0.0443242 -0.036703 0)
(-0.0457123 -0.0336739 0)
(-0.0468428 -0.029639 -1.54297e-19)
(-0.0477552 -0.0246352 0)
(-0.0484844 -0.0187042 -7.73433e-20)