/*--------------------------------*- C++ -*----------------------------------*\
  =========                 |
  \\      /  F ield         | OpenFOAM: The Open Source CFD Toolbox
   \\    /   O peration     | Website:  https://openfoam.org
    \\  /    A nd           | Version:  7
     \\/     M anipulation  |
\*---------------------------------------------------------------------------*/
FoamFile
{
    version     2.0;
    format      ascii;
    class       volScalarField;
    location    "1.6";
    object      p;
}
// * * * * * * * * * * * * * * * * * * * * * * * * * * * * * * * * * * * * * //

dimensions      [0 2 -2 0 0 0 0];

internalField   nonuniform List<scalar> 
18000
(
2.51147
2.51196
2.51423
2.51684
2.51956
2.52236
2.52542
2.52901
2.53337
2.53865
2.54483
2.55176
2.55922
2.56699
2.57487
2.58271
2.59039
2.59781
2.60492
2.61168
2.61811
2.62423
2.63007
2.63569
2.64109
2.64631
2.65137
2.65628
2.66108
2.66569
2.50014
2.50096
2.50327
2.50587
2.50846
2.51104
2.51381
2.51709
2.52113
2.52612
2.53203
2.53875
2.54604
2.55369
2.56148
2.56926
2.57688
2.58424
2.59128
2.59798
2.60433
2.61036
2.61611
2.6216
2.62688
2.63197
2.63688
2.64164
2.64628
2.65075
2.48871
2.48991
2.49228
2.49488
2.49736
2.49971
2.50218
2.50513
2.50885
2.51352
2.51917
2.52565
2.53277
2.54029
2.548
2.5557
2.56324
2.57053
2.5775
2.58412
2.59038
2.59632
2.60196
2.60733
2.61248
2.61742
2.62217
2.62677
2.63124
2.63556
2.47727
2.47884
2.48129
2.4839
2.48626
2.48838
2.49055
2.49316
2.49655
2.50091
2.50627
2.51252
2.51946
2.52685
2.53445
2.54205
2.54951
2.55672
2.5636
2.57013
2.5763
2.58212
2.58764
2.59289
2.59789
2.60267
2.60726
2.61169
2.61599
2.62014
2.46587
2.46782
2.47034
2.47296
2.4752
2.47709
2.47896
2.48123
2.48427
2.48831
2.49339
2.4994
2.50616
2.5134
2.52087
2.52836
2.53572
2.54283
2.54962
2.55604
2.56209
2.5678
2.57319
2.57829
2.58313
2.58775
2.59217
2.59642
2.60054
2.60452
2.45451
2.45681
2.45941
2.46204
2.46418
2.46586
2.46743
2.46936
2.47206
2.47577
2.48057
2.48634
2.4929
2.49998
2.5073
2.51466
2.5219
2.52889
2.53556
2.54187
2.5478
2.55337
2.55861
2.56355
2.56823
2.57268
2.57692
2.58099
2.58493
2.58872
2.44323
2.44586
2.44854
2.45119
2.45323
2.45471
2.456
2.45759
2.45994
2.46332
2.46783
2.47336
2.47972
2.48661
2.49377
2.50098
2.50808
2.51494
2.52148
2.52764
2.53343
2.53885
2.54393
2.54871
2.55321
2.55748
2.56154
2.56542
2.56916
2.57276
2.43204
2.43497
2.43774
2.4404
2.44236
2.44365
2.44466
2.44592
2.44792
2.45098
2.4552
2.46049
2.46663
2.47332
2.4803
2.48734
2.49428
2.50099
2.50738
2.51339
2.51901
2.52426
2.52917
2.53377
2.5381
2.54217
2.54604
2.54973
2.55326
2.55667
2.42093
2.42414
2.42699
2.42969
2.43157
2.43268
2.43342
2.43435
2.43602
2.43877
2.44271
2.44774
2.45365
2.46013
2.46691
2.47377
2.48053
2.48707
2.49328
2.49912
2.50456
2.50964
2.51436
2.51877
2.5229
2.52678
2.53045
2.53393
2.53726
2.54046
2.40992
2.41338
2.41631
2.41904
2.42086
2.42179
2.42227
2.4229
2.42425
2.42669
2.43034
2.43512
2.44079
2.44705
2.45362
2.46028
2.46684
2.47318
2.4792
2.48485
2.4901
2.49498
2.49951
2.50372
2.50765
2.51133
2.51479
2.51806
2.52117
2.52415
2.39898
2.40268
2.40569
2.40845
2.41021
2.41098
2.41122
2.41155
2.41259
2.41473
2.41811
2.42263
2.42806
2.43408
2.44043
2.44687
2.45321
2.45934
2.46515
2.47059
2.47564
2.48031
2.48463
2.48863
2.49235
2.49582
2.49906
2.50212
2.50501
2.50777
2.38812
2.39201
2.3951
2.3979
2.3996
2.40022
2.40023
2.40029
2.40104
2.4029
2.40601
2.41027
2.41545
2.42123
2.42734
2.43354
2.43966
2.44555
2.45114
2.45636
2.46119
2.46564
2.46975
2.47353
2.47704
2.48028
2.48331
2.48614
2.4888
2.49133
2.37731
2.38139
2.38454
2.38737
2.38902
2.3895
2.38929
2.3891
2.38958
2.39117
2.39403
2.39804
2.40296
2.40849
2.41435
2.4203
2.42617
2.43183
2.43717
2.44215
2.44675
2.45098
2.45486
2.45843
2.46171
2.46473
2.46753
2.47014
2.47257
2.47486
2.36653
2.37077
2.37399
2.37684
2.37844
2.37879
2.37839
2.37795
2.37818
2.37953
2.38215
2.38591
2.39059
2.39586
2.40146
2.40715
2.41276
2.41816
2.42325
2.42799
2.43234
2.43634
2.43999
2.44333
2.44638
2.44918
2.45176
2.45413
2.45632
2.45838
2.35578
2.36015
2.36344
2.36631
2.36785
2.36807
2.36748
2.36683
2.36684
2.36797
2.37036
2.37389
2.37831
2.38333
2.38866
2.39408
2.39943
2.40456
2.40938
2.41386
2.41796
2.42171
2.42513
2.42824
2.43108
2.43365
2.436
2.43815
2.4401
2.44191
2.34501
2.34952
2.35286
2.35573
2.35721
2.35731
2.35655
2.35572
2.35553
2.35646
2.35864
2.36195
2.36613
2.37088
2.37594
2.38109
2.38615
2.39101
2.39556
2.39976
2.40361
2.40712
2.41031
2.41319
2.4158
2.41816
2.42028
2.42219
2.42391
2.42549
2.33422
2.33884
2.34222
2.3451
2.34652
2.3465
2.34558
2.34458
2.34423
2.34499
2.34698
2.35008
2.35402
2.35851
2.36329
2.36816
2.37294
2.3775
2.38177
2.38571
2.3893
2.39256
2.39551
2.39818
2.40057
2.40271
2.40461
2.4063
2.40778
2.40912
2.32337
2.32809
2.33152
2.33439
2.33573
2.3356
2.33455
2.33341
2.33292
2.33354
2.33536
2.33826
2.34196
2.34619
2.3507
2.35528
2.35977
2.36404
2.36802
2.37168
2.37501
2.37804
2.38076
2.38321
2.38539
2.38732
2.389
2.39047
2.39173
2.39285
2.31246
2.31727
2.32073
2.32358
2.32484
2.3246
2.32344
2.32219
2.3216
2.32209
2.32376
2.32646
2.32994
2.33392
2.33816
2.34245
2.34664
2.35062
2.35431
2.35769
2.36076
2.36355
2.36606
2.3683
2.37027
2.37199
2.37348
2.37474
2.37579
2.37671
2.30145
2.30636
2.30983
2.31265
2.31383
2.31348
2.31223
2.31091
2.31024
2.31063
2.31217
2.31469
2.31795
2.32168
2.32565
2.32965
2.33355
2.33722
2.34062
2.34373
2.34655
2.3491
2.35139
2.35343
2.35521
2.35674
2.35804
2.35912
2.35999
2.36072
2.29034
2.29534
2.29882
2.30159
2.30268
2.30224
2.30092
2.29955
2.29883
2.29916
2.30058
2.30294
2.30599
2.30947
2.31317
2.31688
2.32047
2.32385
2.32696
2.32979
2.33236
2.33469
2.33677
2.33861
2.34021
2.34157
2.34271
2.34363
2.34433
2.34491
2.27912
2.28421
2.28768
2.29039
2.29139
2.29087
2.2895
2.28811
2.28738
2.28766
2.28898
2.29119
2.29404
2.29729
2.30071
2.30413
2.30742
2.3105
2.31333
2.31589
2.31821
2.32031
2.32219
2.32384
2.32527
2.32648
2.32747
2.32826
2.32885
2.32931
2.26778
2.27296
2.27641
2.27905
2.27996
2.27938
2.27798
2.2766
2.27588
2.27613
2.27737
2.27944
2.28211
2.28512
2.28827
2.2914
2.29439
2.29718
2.29972
2.30201
2.30408
2.30595
2.30763
2.3091
2.31037
2.31144
2.31233
2.31303
2.31354
2.31394
2.25631
2.26158
2.265
2.26757
2.2684
2.26776
2.26636
2.26503
2.26434
2.26459
2.26576
2.26771
2.27019
2.27297
2.27585
2.27869
2.28139
2.28387
2.28613
2.28815
2.28997
2.29162
2.29309
2.29438
2.2955
2.29645
2.29726
2.29792
2.29841
2.29882
2.24471
2.25008
2.25346
2.25595
2.2567
2.25602
2.25466
2.25339
2.25276
2.25302
2.25415
2.25598
2.25829
2.26084
2.26345
2.266
2.2684
2.27059
2.27256
2.27431
2.27588
2.27729
2.27855
2.27966
2.28063
2.28147
2.28222
2.28288
2.28343
2.28395
2.23298
2.23846
2.24179
2.2442
2.24488
2.24419
2.24288
2.2417
2.24115
2.24145
2.24254
2.24427
2.2464
2.24873
2.25108
2.25334
2.25544
2.25733
2.25901
2.26048
2.26179
2.26295
2.26399
2.2649
2.26571
2.26645
2.26716
2.26785
2.26852
2.26928
2.22114
2.22673
2.23
2.23233
2.23294
2.23226
2.23103
2.22997
2.22952
2.22987
2.23094
2.23257
2.23454
2.23664
2.23872
2.2407
2.2425
2.2441
2.24548
2.24666
2.24769
2.24859
2.24938
2.25008
2.2507
2.25131
2.25197
2.25272
2.25358
2.25473
2.20919
2.21489
2.21809
2.22034
2.2209
2.22025
2.21914
2.21821
2.21789
2.2183
2.21936
2.2209
2.2227
2.22458
2.22641
2.2281
2.2296
2.2309
2.23197
2.23286
2.2336
2.23421
2.23472
2.23515
2.23553
2.23595
2.2365
2.23729
2.2384
2.2401
2.19714
2.20296
2.20609
2.20825
2.20878
2.20819
2.20721
2.20645
2.20627
2.20675
2.20781
2.20926
2.2109
2.21257
2.21414
2.21555
2.21676
2.21774
2.21851
2.21909
2.21951
2.21981
2.22
2.22009
2.22014
2.22024
2.22053
2.2212
2.2226
2.22521
2.18501
2.19094
2.19399
2.19607
2.19659
2.19609
2.19527
2.1947
2.19467
2.19523
2.19629
2.19766
2.19916
2.20061
2.20193
2.20306
2.20398
2.20466
2.20511
2.20536
2.20545
2.20541
2.20523
2.20492
2.20453
2.20412
2.20379
2.20373
2.20431
2.20756
2.68017
2.70267
2.72138
2.73958
2.75589
2.77101
2.78479
2.79732
2.80888
2.81966
2.82992
2.83981
2.84944
2.85898
2.86868
2.87863
2.88885
2.89958
2.9105
2.9223
2.93381
2.947
2.95892
2.97371
2.98566
3.0024
3.01411
3.03395
3.04437
3.07085
2.66498
2.6884
2.7076
2.72641
2.74317
2.75858
2.77256
2.78528
2.79708
2.80801
2.81834
2.82831
2.83805
2.84772
2.85747
2.86746
2.87775
2.88856
2.89948
2.91134
2.92291
2.93613
2.94804
2.96285
2.97481
2.99159
3.00335
3.02327
3.03374
3.06036
2.64951
2.67391
2.69367
2.71311
2.73029
2.74601
2.76022
2.77315
2.78516
2.79625
2.80667
2.81673
2.82659
2.83639
2.84619
2.85624
2.86661
2.87749
2.88845
2.90037
2.91201
2.92526
2.93719
2.95204
2.96403
2.98088
2.9927
3.01272
3.02325
3.05001
2.63377
2.65922
2.6796
2.6997
2.71727
2.7333
2.74779
2.76094
2.77313
2.78438
2.79493
2.8051
2.81506
2.82496
2.83484
2.84499
2.85543
2.86637
2.87742
2.88938
2.90109
2.91439
2.92637
2.94129
2.95334
2.97027
2.98216
3.00227
3.01289
3.03979
2.61781
2.64437
2.66541
2.68619
2.70412
2.72049
2.73527
2.74867
2.76099
2.77241
2.78312
2.7934
2.80347
2.81346
2.82343
2.83369
2.84421
2.85522
2.86637
2.87838
2.89017
2.90352
2.9156
2.9306
2.94273
2.95975
2.97172
2.99194
3.00267
3.0297
2.60165
2.62935
2.65109
2.67258
2.69089
2.7076
2.72267
2.7363
2.74879
2.76037
2.77123
2.78164
2.79181
2.8019
2.81198
2.82233
2.83295
2.84404
2.85529
2.86737
2.87924
2.89267
2.90485
2.91995
2.93218
2.94932
2.96139
2.98173
2.99258
3.01975
2.58532
2.61419
2.63665
2.65888
2.67758
2.69463
2.70999
2.72387
2.73652
2.74826
2.75929
2.76981
2.78009
2.79029
2.80047
2.81093
2.82165
2.83282
2.84418
2.85635
2.86832
2.88184
2.89413
2.90935
2.92169
2.93896
2.95117
2.97165
2.98262
3.00994
2.56883
2.59891
2.62212
2.6451
2.6642
2.68161
2.69726
2.71137
2.7242
2.73611
2.74728
2.75793
2.76832
2.77863
2.78892
2.79949
2.8103
2.82157
2.83304
2.84532
2.85739
2.87103
2.88344
2.8988
2.91127
2.9287
2.94106
2.9617
2.97279
3.00026
2.5522
2.58352
2.6075
2.63125
2.65077
2.66854
2.68448
2.69883
2.71185
2.72391
2.73524
2.74601
2.75651
2.76693
2.77733
2.788
2.79892
2.81031
2.82189
2.83428
2.84647
2.86023
2.87277
2.88829
2.90091
2.91852
2.93104
2.95187
2.9631
2.99073
2.53544
2.56805
2.59283
2.61735
2.6373
2.65544
2.67166
2.68626
2.69946
2.71168
2.72316
2.73405
2.74467
2.7552
2.76571
2.77648
2.78752
2.79902
2.81071
2.82323
2.83554
2.84945
2.86213
2.87782
2.89062
2.90843
2.92114
2.94216
2.95355
2.98134
2.51859
2.55251
2.57813
2.60337
2.6238
2.64231
2.65883
2.67365
2.68705
2.69943
2.71104
2.72206
2.7328
2.74344
2.75405
2.76494
2.77608
2.78771
2.79952
2.81218
2.82462
2.83868
2.85151
2.8674
2.88039
2.89843
2.91134
2.93259
2.94414
2.9721
2.50167
2.53692
2.5634
2.58926
2.61029
2.62917
2.64598
2.66104
2.67462
2.68715
2.69891
2.71005
2.72091
2.73165
2.74238
2.75338
2.76463
2.77638
2.78832
2.80111
2.81369
2.82791
2.84092
2.85701
2.87022
2.88851
2.90165
2.92314
2.93487
2.96302
2.48469
2.52132
2.54869
2.57509
2.59678
2.61604
2.63314
2.64842
2.66219
2.67487
2.68677
2.69803
2.709
2.71986
2.73068
2.7418
2.75316
2.76504
2.7771
2.79004
2.80276
2.81716
2.83034
2.84666
2.8601
2.87866
2.89206
2.91382
2.92575
2.95408
2.46769
2.50573
2.53403
2.56096
2.58329
2.60292
2.62031
2.63581
2.64976
2.66259
2.67462
2.68601
2.69709
2.70804
2.71898
2.7302
2.74167
2.75369
2.76586
2.77895
2.79182
2.8064
2.81978
2.83634
2.85003
2.86889
2.88257
2.90463
2.91678
2.94531
2.4507
2.49018
2.51943
2.54689
2.56984
2.58984
2.60751
2.62322
2.63735
2.65033
2.66249
2.67399
2.68517
2.69623
2.70726
2.7186
2.73018
2.74233
2.75462
2.76785
2.78088
2.79565
2.80923
2.82605
2.84001
2.8592
2.87319
2.89558
2.90796
2.93671
2.43376
2.4747
2.50493
2.53287
2.55644
2.57681
2.59475
2.61068
2.62496
2.63809
2.65037
2.66199
2.67326
2.68441
2.69554
2.70699
2.71868
2.73095
2.74336
2.75673
2.76993
2.7849
2.79869
2.81578
2.83004
2.84958
2.86391
2.88667
2.89931
2.92829
2.41689
2.45932
2.49056
2.5189
2.54311
2.56384
2.58204
2.59817
2.61262
2.62588
2.63829
2.65001
2.66137
2.6726
2.68382
2.69538
2.70717
2.71956
2.7321
2.7456
2.75896
2.77414
2.78816
2.80554
2.82012
2.84002
2.85473
2.87789
2.89082
2.92005
2.40014
2.44408
2.47634
2.50505
2.52987
2.55095
2.5694
2.58573
2.60034
2.61373
2.62624
2.63805
2.6495
2.6608
2.67212
2.68378
2.69566
2.70816
2.72082
2.73446
2.74799
2.76338
2.77764
2.79532
2.81023
2.83054
2.84565
2.86926
2.88252
2.91201
2.38357
2.42901
2.46231
2.49148
2.51673
2.53816
2.55684
2.57336
2.58812
2.60162
2.61424
2.62613
2.63766
2.64903
2.66044
2.67219
2.68416
2.69675
2.70954
2.72332
2.73702
2.75262
2.76712
2.78511
2.80038
2.82112
2.83666
2.86076
2.8744
2.90418
2.3672
2.41414
2.44846
2.47811
2.50372
2.52548
2.54437
2.56108
2.57597
2.58959
2.6023
2.61425
2.62586
2.63729
2.64878
2.66061
2.67267
2.68535
2.69826
2.71217
2.72603
2.74185
2.75661
2.77492
2.79056
2.81175
2.82777
2.8524
2.86648
2.89657
2.35112
2.39952
2.43483
2.46493
2.49086
2.51294
2.53203
2.5489
2.56392
2.57763
2.59042
2.60244
2.6141
2.6256
2.63715
2.64905
2.66118
2.67394
2.68697
2.70101
2.71504
2.73108
2.74609
2.76473
2.78075
2.80243
2.81895
2.84418
2.85877
2.8892
2.33536
2.38518
2.42143
2.45196
2.47818
2.50054
2.51982
2.53684
2.55197
2.56576
2.57862
2.59068
2.60241
2.61394
2.62555
2.63751
2.64971
2.66254
2.67568
2.68985
2.70403
2.7203
2.73557
2.75455
2.77096
2.79314
2.81022
2.8361
2.85128
2.88211
2.32001
2.37116
2.40827
2.43924
2.46571
2.48832
2.50778
2.52492
2.54015
2.55401
2.56692
2.57901
2.59078
2.60234
2.61399
2.62599
2.63826
2.65114
2.66438
2.67868
2.69302
2.7095
2.72504
2.74436
2.76116
2.78388
2.80155
2.82814
2.84402
2.87531
2.30516
2.35749
2.39539
2.42679
2.45349
2.47631
2.49591
2.51316
2.52847
2.54237
2.55531
2.56742
2.57921
2.59079
2.60247
2.6145
2.62682
2.63976
2.65308
2.66751
2.68199
2.6987
2.71448
2.73415
2.75136
2.77462
2.79293
2.8203
2.83701
2.86886
2.29089
2.3442
2.38279
2.41462
2.44153
2.46452
2.48425
2.50157
2.51694
2.53087
2.54381
2.55593
2.56772
2.57931
2.59099
2.60305
2.61539
2.62838
2.64178
2.65633
2.67096
2.68787
2.70391
2.72393
2.74154
2.76536
2.78436
2.81257
2.83025
2.86279
2.27735
2.33136
2.37052
2.40274
2.42987
2.45299
2.47283
2.49019
2.50558
2.51952
2.53243
2.54454
2.55631
2.5679
2.57958
2.59164
2.604
2.61702
2.63048
2.64515
2.65991
2.67703
2.69331
2.71367
2.73169
2.75607
2.77582
2.80493
2.82377
2.85718
2.2647
2.31904
2.35865
2.39121
2.41855
2.44177
2.46167
2.47905
2.49444
2.50835
2.52121
2.53328
2.54501
2.55657
2.56823
2.58027
2.59263
2.60568
2.6192
2.63398
2.64886
2.66616
2.68269
2.70337
2.72182
2.74675
2.76728
2.79736
2.81758
2.85211
2.25294
2.30697
2.34693
2.37983
2.40739
2.43066
2.45061
2.46797
2.48332
2.49719
2.50998
2.52201
2.53368
2.54521
2.55683
2.56885
2.5812
2.59428
2.60784
2.62272
2.63773
2.65521
2.67198
2.69296
2.71184
2.73732
2.75868
2.7898
2.81166
2.84767
2.24147
2.29439
2.33468
2.3681
2.39589
2.41923
2.43924
2.4566
2.47192
2.48576
2.49849
2.51049
2.52213
2.53363
2.54523
2.55723
2.56959
2.5827
2.59631
2.61128
2.62644
2.64408
2.66112
2.68239
2.70173
2.72772
2.74997
2.78217
2.806
2.84398
2.23041
2.28189
2.32244
2.35637
2.38422
2.4077
2.42777
2.44517
2.46048
2.47432
2.48702
2.499
2.51061
2.5221
2.53369
2.54568
2.55805
2.57119
2.58486
2.59991
2.6152
2.63298
2.65027
2.67178
2.69156
2.71799
2.74113
2.77435
2.80044
2.84104
2.19958
2.25181
2.2926
2.32686
2.35483
2.37805
2.39786
2.41502
2.4301
2.44367
2.45613
2.46787
2.47926
2.49054
2.50195
2.51377
2.52604
2.53914
2.55284
2.56796
2.58355
2.60152
2.61937
2.64135
2.6622
2.6896
2.71505
2.75074
2.78356
2.83293
2.13733
2.18946
2.22983
2.26389
2.29165
2.31487
2.33472
2.35195
2.3672
2.38096
2.39363
2.40565
2.41731
2.42893
2.44075
2.45297
2.46572
2.47933
2.49364
2.50937
2.52568
2.54444
2.56321
2.58621
2.60835
2.63732
2.66504
2.70345
2.74056
2.79355
2.07715
2.12727
2.16644
2.19956
2.22722
2.2504
2.27026
2.28761
2.30305
2.31698
2.32991
2.34222
2.3542
2.36623
2.37849
2.39117
2.40447
2.41864
2.43358
2.44996
2.46701
2.48655
2.50619
2.53013
2.55336
2.58352
2.61264
2.65244
2.69098
2.74465
2.01695
2.06465
2.10225
2.13462
2.16196
2.1849
2.20472
2.22215
2.23767
2.25178
2.26496
2.27755
2.28991
2.30234
2.31502
2.3282
2.34203
2.35676
2.37231
2.38933
2.40709
2.42734
2.44776
2.47247
2.49655
2.52749
2.5574
2.59777
2.63664
2.69031
1.95611
2.00153
2.03775
2.06912
2.09593
2.11851
2.13817
2.15557
2.17117
2.18549
2.19893
2.21186
2.22461
2.23746
2.2506
2.2643
2.27866
2.29396
2.3101
2.32774
2.34613
2.36701
2.38808
2.41339
2.43805
2.46942
2.49967
2.54012
2.5788
2.63214
1.89414
1.93746
1.9721
2.00252
2.02879
2.05102
2.07046
2.0878
2.1035
2.118
2.13171
2.14498
2.15812
2.1714
2.18503
2.19923
2.21412
2.22997
2.2467
2.2649
2.28387
2.30528
2.32688
2.35264
2.37769
2.40927
2.43959
2.47986
2.51807
2.57095
1.83071
1.87214
1.90531
1.93479
1.96052
1.98238
2.00157
2.01884
2.0346
2.04927
2.06324
2.07684
2.09036
2.10407
2.11817
2.13286
2.14827
2.16466
2.18192
2.20065
2.22012
2.242
2.26404
2.29013
2.31542
2.3471
2.37731
2.41728
2.45488
2.50724
1.76567
1.80542
1.83722
1.86578
1.89099
1.91247
1.9314
1.94857
1.96437
1.97919
1.99341
2.00733
2.02123
2.03535
2.0499
2.06508
2.08099
2.09787
2.11563
2.13484
2.15477
2.17706
2.19945
2.2258
2.25126
2.28295
2.31297
2.35258
2.38948
2.44131
1.6989
1.73712
1.76768
1.79537
1.82007
1.84119
1.85986
1.87692
1.89274
1.9077
1.92214
1.93636
1.95062
1.96514
1.98013
1.99576
2.01213
2.02949
2.04771
2.06735
2.08771
2.11036
2.13306
2.15963
2.18518
2.21686
2.24664
2.28588
2.32204
2.37333
1.63034
1.66717
1.69659
1.72344
1.74767
1.76845
1.78687
1.8038
1.81964
1.8347
1.84935
1.86384
1.87843
1.89333
1.90873
1.92479
1.9416
1.9594
1.97805
1.99811
2.01884
2.04183
2.0648
2.09157
2.11719
2.14885
2.17838
2.21726
2.25267
2.30342
1.55994
1.59551
1.62386
1.64993
1.67371
1.69418
1.71235
1.72915
1.74497
1.76012
1.77494
1.78968
1.80458
1.81983
1.8356
1.85207
1.8693
1.8875
1.90656
1.927
1.94809
1.97138
1.99461
2.02156
2.04726
2.0789
2.1082
2.14673
2.18141
2.23165
1.48773
1.52209
1.54945
1.57476
1.59811
1.6183
1.63623
1.65289
1.66867
1.68389
1.69885
1.71381
1.72898
1.74455
1.76067
1.7775
1.79511
1.8137
1.83314
1.85393
1.87536
1.89894
1.92241
1.94955
1.97532
2.00697
2.03606
2.07429
2.10827
2.15801
1.41369
1.44689
1.47331
1.49788
1.52082
1.54075
1.55844
1.57494
1.59068
1.60592
1.62099
1.63613
1.65153
1.66738
1.68382
1.70098
1.71894
1.73789
1.75768
1.77881
1.80055
1.82442
1.84813
1.87545
1.90132
1.93299
1.96193
1.99988
2.03321
2.08248
1.33785
1.36991
1.39542
1.41926
1.4418
1.46147
1.47893
1.49527
1.51092
1.52617
1.54131
1.55658
1.57217
1.58826
1.60496
1.62243
1.64071
1.65997
1.68008
1.70153
1.72357
1.74771
1.77166
1.79917
1.82516
1.85688
1.8857
1.92342
1.95617
2.00499
1.26023
1.29115
1.31577
1.33888
1.36099
1.38042
1.39765
1.41381
1.42936
1.44456
1.45972
1.47508
1.49081
1.50708
1.52402
1.54174
1.56029
1.57985
1.60025
1.62198
1.64431
1.6687
1.69289
1.72058
1.74671
1.77849
1.80725
1.84477
1.87702
1.9254
1.18087
1.21062
1.23435
1.25672
1.27838
1.29755
1.31455
1.33051
1.34592
1.36104
1.37618
1.39156
1.40738
1.42379
1.4409
1.45882
1.4776
1.49741
1.51807
1.54006
1.56264
1.58726
1.61167
1.63955
1.66583
1.69768
1.72642
1.76377
1.79561
1.84357
1.09981
1.12837
1.15119
1.17278
1.19396
1.21285
1.2296
1.24533
1.26057
1.27557
1.29062
1.30597
1.32181
1.33828
1.3555
1.37358
1.39254
1.41254
1.43341
1.45561
1.47841
1.50324
1.52785
1.55589
1.58232
1.61424
1.643
1.68021
1.71173
1.75927
1.01711
1.04442
1.0663
1.08707
1.1077
1.12628
1.14276
1.15825
1.17328
1.1881
1.203
1.21825
1.23403
1.2505
1.26776
1.28592
1.30499
1.32512
1.34613
1.3685
1.39146
1.41645
1.44124
1.4694
1.49597
1.52793
1.55676
1.59382
1.62512
1.67223
0.932809
0.95881
0.979712
0.999612
1.01963
1.03785
1.05403
1.06922
1.08399
1.09858
1.11327
1.12834
1.14398
1.16036
1.17757
1.19572
1.21482
1.23501
1.2561
1.27855
1.30162
1.3267
1.3516
1.37984
1.40652
1.43848
1.46738
1.50428
1.53544
1.58209
0.846994
0.8716
0.891465
0.910434
0.929759
0.947558
0.963382
0.978231
0.992688
1.00698
1.02139
1.0362
1.05162
1.06779
1.08485
1.1029
1.12193
1.14208
1.16315
1.1856
1.20868
1.23377
1.25871
1.28693
1.31367
1.34556
1.37451
1.41122
1.44234
1.4885
0.759717
0.782842
0.801617
0.819588
0.838124
0.855408
0.870811
0.885258
0.899342
0.913278
0.927334
0.94179
0.956868
0.972741
0.98953
1.00735
1.02618
1.04617
1.06711
1.08944
1.11242
1.1374
1.16226
1.19036
1.21705
1.24873
1.27765
1.31403
1.34512
1.39067
0.671046
0.692591
0.710227
0.727142
0.744782
0.761437
0.776336
0.790312
0.803949
0.81745
0.831059
0.845066
0.8597
0.875146
0.89153
0.908973
0.927467
0.947155
0.967823
0.989893
1.01262
1.03733
1.06197
1.08977
1.11629
1.14764
1.17647
1.21247
1.24358
1.28839
0.581089
0.600934
0.617388
0.633194
0.649825
0.665718
0.680007
0.693417
0.706513
0.719481
0.73255
0.746005
0.760077
0.774958
0.790784
0.807691
0.82568
0.844894
0.865105
0.886726
0.909005
0.933256
0.957452
0.984718
1.01077
1.04141
1.06974
1.10486
1.13581
1.17972
0.490075
0.508076
0.523288
0.537927
0.553421
0.56839
0.581928
0.594637
0.607066
0.619387
0.631808
0.644596
0.657975
0.672147
0.687258
0.703453
0.720738
0.73926
0.758793
0.77974
0.801353
0.824902
0.848448
0.874963
0.900441
0.930274
0.958164
0.992406
1.02282
1.06499
0.39864
0.414538
0.428402
0.441791
0.455954
0.469753
0.482346
0.494171
0.505746
0.517249
0.528876
0.540865
0.553421
0.566737
0.580957
0.596241
0.612593
0.630172
0.648753
0.668727
0.689333
0.7118
0.734203
0.759379
0.783487
0.81154
0.837796
0.86992
0.899958
0.940832
0.308505
0.321777
0.333916
0.345822
0.358326
0.370586
0.381905
0.392551
0.402967
0.413375
0.423992
0.434999
0.44656
0.458838
0.471972
0.48612
0.501276
0.517622
0.534956
0.553662
0.573023
0.594179
0.615364
0.639144
0.662044
0.688405
0.713074
0.742514
0.76911
0.805915
0.222582
0.232696
0.242379
0.252238
0.262611
0.272779
0.282254
0.291202
0.299938
0.30878
0.317989
0.327671
0.337928
0.348893
0.360684
0.373407
0.387017
0.40173
0.417293
0.434102
0.451388
0.470305
0.489077
0.510188
0.530531
0.553948
0.57632
0.602622
0.628081
0.659531
0.146136
0.1516
0.157799
0.164955
0.172498
0.179895
0.186813
0.193319
0.199625
0.206139
0.213168
0.220793
0.229065
0.238073
0.24796
0.258766
0.270441
0.283196
0.296806
0.311564
0.326753
0.343241
0.359359
0.37712
0.393523
0.411964
0.42856
0.448031
0.466834
0.492381
0.0814372
0.08304
0.0853647
0.0886968
0.0927501
0.0969587
0.100866
0.104394
0.107753
0.111323
0.115317
0.119837
0.124956
0.130757
0.137294
0.144629
0.152797
0.161989
0.17201
0.183266
0.195125
0.2084
0.221752
0.236505
0.250467
0.265286
0.277896
0.290164
0.296717
0.304829
0.026203
0.0256029
0.0253974
0.024999
0.0253078
0.0264558
0.0274266
0.028206
0.0288708
0.0296171
0.0305415
0.0317053
0.0331521
0.0349268
0.0370415
0.039537
0.042463
0.0459491
0.0498404
0.0545344
0.0595418
0.0657414
0.0719431
0.0795917
0.0869554
0.0952499
0.10276
0.109592
0.113178
0.112482
2.15341
2.09167
2.03349
1.97444
1.915
1.85413
1.79166
1.72754
1.66163
1.59397
1.52444
1.45317
1.38011
1.30531
1.2288
1.15063
1.0708
0.989427
0.906542
0.82223
0.736613
0.649788
0.561992
0.473598
0.385423
0.299078
0.217168
0.143935
0.0807283
0.0272707
2.13738
2.0762
2.0188
1.96024
1.90133
1.84093
1.77886
1.71514
1.6496
1.58231
1.51316
1.44226
1.3696
1.2952
1.2191
1.14135
1.06196
0.981041
0.898628
0.814798
0.729701
0.643429
0.556233
0.468498
0.381079
0.295602
0.214705
0.142522
0.0800924
0.0274152
2.12145
2.06129
2.00465
1.94658
1.88821
1.82827
1.76664
1.70332
1.63816
1.57126
1.50249
1.43198
1.35971
1.28571
1.21003
1.1327
1.05375
0.973268
0.891317
0.807955
0.723355
0.637607
0.550974
0.46385
0.377111
0.292393
0.212337
0.140994
0.0792961
0.027403
2.10556
2.04664
1.99076
1.93319
1.87533
1.81585
1.75463
1.69171
1.62693
1.5604
1.49202
1.42189
1.35001
1.2764
1.20112
1.12422
1.04568
0.965642
0.884149
0.801251
0.71714
0.631905
0.545821
0.459286
0.373189
0.289202
0.20999
0.139511
0.0785468
0.0273558
2.08988
2.03234
1.97725
1.92016
1.86277
1.80374
1.74292
1.68038
1.61597
1.5498
1.48179
1.41202
1.34052
1.2673
1.19242
1.11591
1.0378
0.958184
0.877136
0.794694
0.711055
0.62632
0.540769
0.454807
0.369334
0.286069
0.207675
0.138062
0.077844
0.0272947
2.07447
2.01835
1.96407
1.90749
1.85054
1.79193
1.7315
1.66932
1.60526
1.53945
1.47179
1.40238
1.33125
1.2584
1.1839
1.10779
1.03009
0.950882
0.870263
0.788267
0.705086
0.620835
0.535794
0.450382
0.365515
0.282969
0.205375
0.136636
0.0771672
0.0272146
2.05935
2.00467
1.95122
1.89516
1.83863
1.78042
1.72036
1.65854
1.59482
1.52935
1.46203
1.39297
1.32219
1.24971
1.17558
1.09986
1.02254
0.943742
0.863537
0.781976
0.699241
0.615455
0.530897
0.446009
0.361733
0.2799
0.203092
0.135234
0.0765121
0.0271151
2.04454
1.9913
1.93867
1.88317
1.82705
1.76922
1.70952
1.64804
1.58464
1.5195
1.45251
1.38379
1.31335
1.24123
1.16745
1.09211
1.01518
0.936765
0.856963
0.775829
0.693526
0.610187
0.526092
0.441701
0.358001
0.276849
0.200854
0.133859
0.0758796
0.0269991
2.03007
1.97823
1.92642
1.8715
1.81579
1.75833
1.69897
1.63783
1.57472
1.50991
1.44323
1.37484
1.30473
1.23296
1.15953
1.08455
1.00799
0.929956
0.85055
0.769831
0.687949
0.605044
0.521397
0.437483
0.35434
0.273847
0.198659
0.132513
0.0752706
0.0268693
2.01596
1.96548
1.91448
1.86015
1.80485
1.74775
1.68871
1.62789
1.56509
1.50058
1.43421
1.36613
1.29634
1.2249
1.15181
1.07718
1.00098
0.923318
0.8443
0.763987
0.682514
0.600033
0.516822
0.433369
0.35076
0.270906
0.19651
0.131199
0.0746852
0.0267273
2.00224
1.95306
1.90285
1.84913
1.79422
1.73748
1.67875
1.61825
1.55573
1.49152
1.42544
1.35766
1.28817
1.21706
1.1443
1.07001
0.994149
0.916851
0.838212
0.758291
0.677219
0.595152
0.512364
0.429357
0.34726
0.268025
0.194407
0.129915
0.0741223
0.0265745
1.98891
1.94098
1.89152
1.83842
1.78391
1.72753
1.6691
1.60889
1.54666
1.48273
1.41693
1.34944
1.28024
1.20944
1.13699
1.06302
0.987501
0.910556
0.832284
0.752739
0.672056
0.590388
0.508009
0.425437
0.343837
0.265194
0.192347
0.128663
0.0735806
0.0264123
1.97599
1.92924
1.88051
1.82802
1.77392
1.71787
1.65974
1.59984
1.53788
1.47422
1.40869
1.34147
1.27255
1.20204
1.12989
1.05622
0.98104
0.904432
0.826511
0.747326
0.667019
0.585734
0.503748
0.421599
0.340486
0.262414
0.190331
0.127443
0.0730596
0.0262426
1.9635
1.91786
1.86983
1.81793
1.76423
1.70853
1.65069
1.59107
1.52937
1.46597
1.40071
1.33375
1.2651
1.19486
1.123
1.04963
0.974767
0.898483
0.820898
0.742056
0.66211
0.58119
0.499583
0.417848
0.337192
0.25971
0.188365
0.126258
0.0725603
0.0260678
1.95145
1.90684
1.85947
1.80816
1.75486
1.69949
1.64194
1.58259
1.52116
1.45801
1.393
1.3263
1.2579
1.18792
1.11634
1.04325
0.96869
0.892715
0.815453
0.736939
0.657338
0.576769
0.495527
0.414196
0.33398
0.257081
0.186457
0.125112
0.0720841
0.02589
1.93985
1.8962
1.84945
1.79871
1.7458
1.69076
1.63348
1.57441
1.51322
1.45032
1.38555
1.3191
1.25094
1.18122
1.1099
1.03708
0.962813
0.887137
0.810185
0.731989
0.652717
0.572487
0.491598
0.410661
0.330866
0.254535
0.184612
0.12401
0.0716325
0.0257113
1.92871
1.88595
1.83978
1.78958
1.73706
1.68234
1.62533
1.56651
1.50558
1.44291
1.37838
1.31216
1.24424
1.17476
1.10369
1.03113
0.957139
0.881754
0.8051
0.727213
0.648255
0.568354
0.487808
0.407249
0.327865
0.252078
0.182836
0.122954
0.0712062
0.0255332
1.91804
1.87609
1.83047
1.78079
1.72865
1.67422
1.61748
1.55891
1.49822
1.43578
1.37147
1.30547
1.23778
1.16854
1.09772
1.0254
0.951668
0.876566
0.8002
0.722611
0.643953
0.56437
0.48416
0.403955
0.324983
0.249712
0.181129
0.121946
0.070806
0.0253572
1.90785
1.86664
1.82153
1.77233
1.72055
1.66642
1.60994
1.55161
1.49114
1.42892
1.36482
1.29904
1.23157
1.16256
1.09197
1.01988
0.946398
0.871564
0.79548
0.718173
0.639805
0.560533
0.480644
0.400781
0.322213
0.247438
0.179492
0.120987
0.0704328
0.0251846
1.89815
1.8576
1.81296
1.76421
1.71279
1.65894
1.6027
1.5446
1.48436
1.42235
1.35844
1.29287
1.2256
1.15682
1.08644
1.01458
0.941326
0.866742
0.790929
0.71389
0.6358
0.556829
0.477244
0.397729
0.31955
0.245256
0.177929
0.120079
0.0700871
0.0250167
1.88893
1.84898
1.80477
1.75644
1.70535
1.65177
1.59577
1.5379
1.47787
1.41605
1.35234
1.28696
1.21989
1.15131
1.08114
1.00949
0.936454
0.862104
0.786532
0.709754
0.631935
0.553242
0.473969
0.394793
0.316996
0.243171
0.176442
0.119225
0.0697709
0.0248548
1.88021
1.84077
1.79698
1.74903
1.69825
1.64492
1.58915
1.53151
1.47166
1.41004
1.34651
1.28132
1.21444
1.14604
1.07606
1.00461
0.931782
0.857651
0.782295
0.705764
0.628203
0.549789
0.470817
0.391975
0.314557
0.241188
0.175038
0.118426
0.0694846
0.0246996
1.872
1.833
1.78958
1.74197
1.69148
1.63841
1.58286
1.52542
1.46575
1.40431
1.34096
1.27595
1.20925
1.141
1.07121
0.999948
0.927315
0.853387
0.778232
0.701934
0.62462
0.546473
0.467792
0.38928
0.312239
0.239316
0.173721
0.117687
0.0692279
0.0245516
1.86431
1.82566
1.78257
1.73527
1.68506
1.63222
1.57688
1.51963
1.46014
1.39888
1.3357
1.27086
1.20432
1.13622
1.0666
0.995518
0.923062
0.849321
0.774359
0.698277
0.621195
0.543302
0.464901
0.386715
0.310051
0.23756
0.172497
0.117007
0.0689998
0.024411
1.85712
1.81876
1.77598
1.72894
1.67898
1.62636
1.57123
1.51415
1.45484
1.39374
1.33072
1.26603
1.19965
1.1317
1.06224
0.991322
0.919032
0.845463
0.770685
0.694803
0.617937
0.540282
0.462149
0.384282
0.307995
0.235923
0.171366
0.116386
0.0687997
0.0242782
1.85046
1.81235
1.76976
1.72298
1.67326
1.62084
1.56591
1.50898
1.44984
1.3889
1.32604
1.26149
1.19525
1.12745
1.05813
0.987364
0.915228
0.84182
0.767214
0.691518
0.614849
0.537415
0.459535
0.38198
0.306068
0.234404
0.170329
0.115824
0.0686262
0.0241537
1.8443
1.80638
1.76395
1.71739
1.66789
1.61565
1.5609
1.50412
1.44515
1.38436
1.32164
1.25723
1.19113
1.12345
1.05427
0.983643
0.911652
0.838393
0.763947
0.68842
0.611926
0.534694
0.457054
0.379801
0.304265
0.232999
0.169382
0.11532
0.0684782
0.024038
1.83866
1.80086
1.75857
1.71219
1.66288
1.6108
1.55623
1.49959
1.44077
1.38011
1.31753
1.25325
1.18727
1.11972
1.05066
0.980159
0.9083
0.835178
0.760876
0.685499
0.60916
0.53211
0.454696
0.377737
0.302576
0.231703
0.168523
0.114871
0.0683549
0.023932
1.83353
1.79579
1.75361
1.70737
1.65824
1.60629
1.55189
1.49537
1.4367
1.37616
1.31372
1.24955
1.18369
1.11625
1.0473
0.976908
0.905169
0.832169
0.757993
0.682745
0.60654
0.529654
0.452453
0.375777
0.300992
0.23051
0.16775
0.114478
0.0682555
0.0238364
1.82891
1.79118
1.74908
1.70294
1.65397
1.60214
1.54788
1.49148
1.43294
1.37252
1.3102
1.24614
1.18039
1.11304
1.04418
0.97389
0.902255
0.82936
0.755289
0.680149
0.604059
0.527319
0.450316
0.373912
0.299504
0.229416
0.16706
0.11414
0.0681791
0.0237518
1.82479
1.78702
1.74497
1.69891
1.65006
1.59834
1.54422
1.48792
1.42951
1.36919
1.30698
1.24302
1.17736
1.1101
1.04132
0.971107