/*--------------------------------*- C++ -*----------------------------------*\
  =========                 |
  \\      /  F ield         | OpenFOAM: The Open Source CFD Toolbox
   \\    /   O peration     | Website:  https://openfoam.org
    \\  /    A nd           | Version:  7
     \\/     M anipulation  |
\*---------------------------------------------------------------------------*/
FoamFile
{
    version     2.0;
    format      ascii;
    class       volVectorField;
    location    "1.6";
    object      U;
}
// * * * * * * * * * * * * * * * * * * * * * * * * * * * * * * * * * * * * * //

dimensions      [0 1 -1 0 0 0 0];

internalField   nonuniform List<vector> 
18000
(
(-0.00192132 0.082603 2.87115e-20)
(-0.00613081 0.184342 0)
(-0.0116597 0.241335 0)
(-0.0162 0.262792 0)
(-0.0185896 0.258549 -9.49479e-21)
(-0.01789 0.236874 4.79874e-20)
(-0.0136232 0.204121 -9.72439e-21)
(-0.00569801 0.165034 9.79101e-21)
(0.00565806 0.123193 0)
(0.0199868 0.0813112 -2.96122e-20)
(0.0366814 0.0414309 -9.92846e-21)
(0.0550701 0.00502613 0)
(0.0744831 -0.0269349 1.98085e-20)
(0.0943026 -0.0539287 1.99071e-20)
(0.113993 -0.0758131 -3.97218e-20)
(0.133118 -0.0927454 -3.96333e-20)
(0.151353 -0.1051 0)
(0.168481 -0.113387 -5.91031e-20)
(0.184377 -0.118183 1.96047e-20)
(0.19899 -0.12008 -5.84906e-20)
(0.212331 -0.119645 1.93783e-20)
(0.224446 -0.117391 0)
(0.235408 -0.113765 -1.90088e-20)
(0.245308 -0.109149 -1.89627e-20)
(0.25424 -0.103849 0)
(0.262301 -0.0981139 0)
(0.269583 -0.0921325 -3.69115e-20)
(0.276168 -0.0860503 -3.6578e-20)
(0.282175 -0.0799142 -3.63721e-20)
(0.287501 -0.0735047 3.81177e-20)
(-0.00375833 0.0831764 4.06995e-20)
(-0.00934206 0.18565 7.10058e-20)
(-0.0143968 0.24287 -7.2716e-20)
(-0.0175011 0.263928 -7.41761e-20)
(-0.0178738 0.258648 -1.89001e-20)
(-0.0148763 0.235408 5.71531e-20)
(-0.00823522 0.20074 -7.71873e-20)
(0.00200221 0.159571 -7.78142e-20)
(0.0155144 0.115649 7.82973e-20)
(0.031772 0.0718329 7.87102e-20)
(0.0501212 0.0302781 -3.94024e-20)
(0.0698584 -0.00746266 -7.90706e-20)
(0.0902933 -0.0403824 -3.97752e-20)
(0.110807 -0.0679549 7.912e-20)
(0.13088 -0.0900646 -7.89769e-20)
(0.150108 -0.106916 7.90961e-20)
(0.168206 -0.118939 -1.57511e-19)
(0.185 -0.126705 1.17722e-19)
(0.200409 -0.130851 -7.79027e-20)
(0.214425 -0.13202 3.89413e-20)
(0.227095 -0.13082 -7.69897e-20)
(0.238501 -0.127799 0)
(0.24874 -0.123426 3.84436e-20)
(0.257922 -0.118099 -7.54435e-20)
(0.26616 -0.112136 7.47024e-20)
(0.273561 -0.105786 0)
(0.280215 -0.0992444 -3.65028e-20)
(0.28622 -0.0926504 3.63077e-20)
(0.291689 -0.0860434 1.44281e-19)
(0.296502 -0.079198 7.55481e-20)
(-0.00562231 0.0832654 -6.53262e-20)
(-0.012626 0.18601 -7.10039e-20)
(-0.0172094 0.243343 1.09009e-19)
(-0.0188121 0.264027 1.84883e-19)
(-0.0170458 0.257816 0)
(-0.0115984 0.233167 -7.63867e-20)
(-0.00241078 0.196753 7.71836e-20)
(0.0103169 0.153678 2.32689e-19)
(0.026154 0.107852 -7.82931e-20)
(0.0444897 0.0622804 -7.8654e-20)
(0.0646083 0.0192317 2.3592e-19)
(0.0857643 -0.0196721 7.90662e-20)
(0.107252 -0.0533875 0)
(0.128454 -0.0813882 -1.58142e-19)
(0.148874 -0.103591 2.35975e-19)
(0.168144 -0.120251 -7.83308e-20)
(0.186026 -0.131858 7.85916e-20)
(0.202399 -0.139044 7.81732e-20)
(0.217233 -0.142505 3.13264e-22)
(0.230566 -0.142934 0)
(0.242487 -0.140978 2.30722e-19)
(0.253112 -0.137211 -1.5234e-19)
(0.262565 -0.132127 7.59046e-20)
(0.270977 -0.126134 0)
(0.278476 -0.119555 -7.47001e-20)
(0.285175 -0.112646 2.95153e-19)
(0.291176 -0.105597 -2.18862e-19)
(0.296576 -0.0985423 -7.27444e-20)
(0.301476 -0.0915211 7.12407e-20)
(0.305754 -0.0843003 7.5133e-20)
(-0.00749237 0.0829927 0)
(-0.0159543 0.185654 3.52822e-20)
(-0.0200722 0.242903 3.68024e-23)
(-0.0201259 0.263163 -1.84512e-19)
(-0.0161219 0.256076 0)
(-0.00808241 0.230138 -1.51387e-19)
(0.00381614 0.192138 0)
(0.0192033 0.147337 -2.32174e-19)
(0.0375224 0.0998013 7.76618e-20)
(0.0580659 0.0526713 -1.55726e-19)
(0.0800468 0.00832157 -1.57003e-19)
(0.102677 -0.0315532 -7.85551e-20)
(0.125234 -0.0658812 7.83992e-20)
(0.147105 -0.0941472 7.79508e-20)
(0.16782 -0.116306 -7.8922e-20)
(0.187059 -0.132664 -1.55803e-19)
(0.204644 -0.143772 1.5569e-19)
(0.220511 -0.150325 0)
(0.234684 -0.153074 0)
(0.247253 -0.15276 0)
(0.258353 -0.150063 0)
(0.268136 -0.145584 0)
(0.276751 -0.139833 0)
(0.28435 -0.133224 -1.48962e-19)
(0.291075 -0.126088 -1.48289e-19)
(0.297047 -0.118677 -5.5165e-22)
(0.302372 -0.111178 -1.45405e-19)
(0.30715 -0.103722 -4.82082e-22)
(0.311474 -0.0963405 -1.43767e-19)
(0.315202 -0.0887993 2.98534e-19)
(-0.00934186 0.0823069 0)
(-0.0192792 0.184438 3.15358e-19)
(-0.0229515 0.241421 3.7386e-23)
(-0.0214243 0.26124 -1.10047e-19)
(-0.0150973 0.253361 3.72061e-19)
(-0.00434568 0.226277 2.26927e-19)
(0.0104086 0.18687 2.28168e-19)
(0.0286077 0.140537 0)
(0.0495477 0.0914941 0)
(0.0724117 0.0430161 2.33459e-19)
(0.0963341 -0.00241938 1.73164e-22)
(0.120477 -0.0430568 -5.45535e-19)
(0.144099 -0.077806 4.67498e-19)
(0.1666 -0.106169 -1.56546e-19)
(0.187549 -0.128141 1.54852e-19)
(0.206684 -0.144084 1.5553e-19)
(0.223888 -0.154613 -1.54449e-19)
(0.239163 -0.160486 1.54644e-19)
(0.252593 -0.162506 3.0693e-19)
(0.264328 -0.161454 -1.52637e-19)
(0.274546 -0.158042 -3.02896e-19)
(0.283433 -0.152891 3.00811e-19)
(0.29117 -0.146524 -2.9858e-19)
(0.297924 -0.139359 1.48957e-19)
(0.30385 -0.131726 0)
(0.309078 -0.123877 0)
(0.313717 -0.11599 1.08782e-21)
(0.317866 -0.108193 -5.72494e-19)
(0.32161 -0.100512 2.83231e-19)
(0.324783 -0.0927137 -2.96868e-19)
(-0.0111515 0.0812888 0)
(-0.0225656 0.182489 -2.80227e-19)
(-0.0258089 0.238994 2.85733e-19)
(-0.0226827 0.258308 0)
(-0.0139672 0.24968 -5.93743e-19)
(-0.000391673 0.221568 -7.51968e-20)
(0.0173487 0.180919 -1.52554e-19)
(0.0384903 0.133249 -7.64757e-20)
(0.0621717 0.0829168 0)
(0.0874492 0.0333209 -1.54683e-19)
(0.113367 -0.0129707 1.54827e-19)
(0.139035 -0.0541505 3.11303e-19)
(0.163701 -0.0891179 -3.11515e-19)
(0.186783 -0.1174 0)
(0.207896 -0.139037 -3.1099e-19)
(0.226844 -0.154454 3.0859e-19)
(0.243582 -0.164331 3.09278e-19)
(0.258182 -0.169485 4.60114e-19)
(0.270798 -0.170766 -4.59154e-19)
(0.281635 -0.16899 6.07409e-19)
(0.290919 -0.164897 3.02388e-19)
(0.298873 -0.159123 -3.00802e-19)
(0.305701 -0.152197 5.9544e-19)
(0.31159 -0.144539 0)
(0.316704 -0.136475 2.92052e-19)
(0.321181 -0.128251 5.80107e-19)
(0.325129 -0.120043 -2.85801e-19)
(0.328649 -0.111966 2.85933e-19)
(0.331814 -0.104045 -6.46536e-22)
(0.334434 -0.096052 -2.95432e-19)
(-0.0128992 0.0799484 -3.19906e-20)
(-0.0257697 0.179813 0)
(-0.0286033 0.235616 -3.57038e-19)
(-0.0238618 0.254345 7.26662e-20)
(-0.012701 0.24501 2.22293e-19)
(0.0037854 0.215985 7.48077e-20)
(0.0246204 0.174259 3.01583e-19)
(0.0488184 0.12546 0)
(0.0753374 0.0740683 1.53233e-19)
(0.103094 0.0235941 1.53086e-19)
(0.131036 -0.0233118 -1.54346e-19)
(0.158225 -0.064801 4.623e-19)
(0.183894 -0.0997751 0)
(0.207491 -0.127794 0)
(0.22869 -0.148952 4.62082e-19)
(0.247367 -0.163737 -7.69116e-19)
(0.263555 -0.172895 3.05887e-19)
(0.277404 -0.177296 -3.06314e-19)
(0.28914 -0.177835 -3.03114e-19)
(0.299028 -0.17536 -9.07069e-19)
(0.307339 -0.170627 -1.19615e-21)
(0.31433 -0.164285 2.97383e-19)
(0.320233 -0.156863 -5.92009e-19)
(0.325247 -0.148778 2.92789e-19)
(0.329548 -0.140352 -1.71853e-21)
(0.333274 -0.131821 -2.89499e-19)
(0.336538 -0.123353 2.86884e-19)
(0.339435 -0.115056 0)
(0.342029 -0.106953 2.79777e-19)
(0.3441 -0.0988265 4.45862e-22)
(-0.0145716 0.0783271 -6.36873e-20)
(-0.0288555 0.176458 6.93154e-20)
(-0.0312861 0.231324 -4.25118e-19)
(-0.0249185 0.249377 -2.16557e-19)
(-0.0112695 0.23935 2.93573e-19)
(0.00820235 0.209514 -4.46306e-19)
(0.0322229 0.166879 -1.51166e-19)
(0.0595658 0.117158 -3.02375e-19)
(0.0889928 0.0649422 3.04006e-19)
(0.119269 0.0138409 -6.11896e-19)
(0.149244 -0.0334256 -3.05976e-19)
(0.177922 -0.0749837 -1.59939e-21)
(0.204536 -0.109748 1.539e-19)
(0.228572 -0.137321 -4.59822e-19)
(0.249769 -0.157856 -6.1357e-19)
(0.268086 -0.171909 4.14291e-22)
(0.283641 -0.180287 -1.27005e-21)
(0.29667 -0.183913 3.02916e-19)
(0.307471 -0.183717 3.03104e-19)
(0.316368 -0.180572 5.17705e-22)
(0.323678 -0.175249 -6.44835e-22)
(0.329692 -0.168398 2.94493e-19)
(0.334664 -0.160547 2.95141e-19)
(0.338807 -0.152104 -6.12447e-22)
(0.342301 -0.143383 -8.6922e-19)
(0.345289 -0.134611 5.72717e-19)
(0.34788 -0.125946 5.68989e-19)
(0.350168 -0.117489 -5.62825e-19)
(0.352204 -0.109259 -2.79772e-19)
(0.353738 -0.101055 -2.89837e-19)
(-0.0161539 0.0764587 -5.69409e-19)
(-0.0317859 0.17248 -6.90077e-20)
(-0.0338098 0.226165 3.53802e-19)
(-0.0258032 0.243427 2.88895e-19)
(-0.00962962 0.232711 -2.93566e-19)
(0.0128877 0.202157 2.97285e-19)
(0.0401653 0.158771 -1.49768e-19)
(0.0707191 0.108337 4.53158e-19)
(0.1031 0.0555376 -3.03993e-19)
(0.135911 0.00406889 3.05168e-19)
(0.167896 -0.0432982 1.53215e-19)
(0.198011 -0.0846794 -1.53766e-19)
(0.225493 -0.119015 -9.16061e-19)
(0.249875 -0.145959 6.11577e-19)
(0.270975 -0.165733 3.05942e-19)
(0.288841 -0.178961 0)
(0.303686 -0.186509 0)
(0.315832 -0.189344 -2.90768e-21)
(0.325653 -0.188429 -2.99224e-19)
(0.33353 -0.184652 0)
(0.339824 -0.178793 0)
(0.344858 -0.171496 -2.95652e-19)
(0.348905 -0.163282 0)
(0.35219 -0.154552 -5.78641e-19)
(0.354895 -0.145604 0)
(0.357162 -0.136655 -2.86035e-19)
(0.359099 -0.127853 5.65475e-19)
(0.360798 -0.119292 -5.59349e-19)
(0.362296 -0.110986 0)
(0.363308 -0.102759 0)
(-0.0176353 0.0743797 5.06009e-19)
(-0.0345257 0.167932 0)
(-0.0361242 0.220187 -7.03712e-20)
(-0.0264596 0.23653 7.17069e-20)
(-0.00772862 0.225112 -4.36116e-19)
(0.0178826 0.193919 4.32543e-23)
(0.0484708 0.149936 -1.49034e-19)
(0.0822787 0.0989962 0)
(0.117632 0.0458595 0)
(0.152965 -0.00571248 -1.51556e-19)
(0.186912 -0.052915 1.51697e-19)
(0.218386 -0.0938703 -3.04387e-19)
(0.246638 -0.127559 3.06973e-19)
(0.271261 -0.153697 0)
(0.292161 -0.17258 0)
(0.309484 -0.1849 0)
(0.323544 -0.191576 2.99602e-19)
(0.334753 -0.193614 -1.70989e-21)
(0.343558 -0.192002 3.00901e-19)
(0.350397 -0.187639 -5.92494e-19)
(0.355673 -0.1813 2.95454e-19)
(0.359737 -0.173624 -1.46384e-18)
(0.362876 -0.165116 1.20175e-21)
(0.365325 -0.156166 5.7863e-19)
(0.367266 -0.147057 -2.16192e-21)
(0.36884 -0.137993 5.66417e-19)
(0.370151 -0.129112 -5.59826e-19)
(0.371284 -0.120497 -5.56563e-19)
(0.372266 -0.112163 1.42416e-21)
(0.372779 -0.103962 -5.70591e-19)
(-0.0190074 0.0721253 -6.28201e-20)
(-0.0370422 0.162874 0)
(-0.0381767 0.213448 1.40123e-19)
(-0.0268253 0.228733 -1.42782e-19)
(-0.00550393 0.216584 1.30651e-18)
(0.0232408 0.184821 3.09504e-23)
(0.0571769 0.140388 -1.48357e-19)
(0.0942597 0.0891484 1.49432e-19)
(0.132578 0.0359207 -7.49312e-19)
(0.170388 -0.015488 0)
(0.20622 -0.0622594 0)
(0.238949 -0.102541 -3.00584e-19)
(0.267853 -0.135369 3.04467e-19)
(0.292598 -0.160534 -3.02714e-19)
(0.313187 -0.178406 3.01421e-19)
(0.329876 -0.189743 0)
(0.343082 -0.195516 -1.19992e-18)
(0.353308 -0.196762 5.95676e-19)
(0.361072 -0.194484 2.97464e-19)
(0.366869 -0.189583 8.86493e-19)
(0.371137 -0.182825 0)
(0.374251 -0.174835 5.84396e-19)
(0.37651 -0.166103 5.777e-19)
(0.378155 -0.156998 5.72948e-19)
(0.379366 -0.147791 -3.49104e-21)
(0.380279 -0.138669 -5.61573e-19)
(0.380995 -0.12976 5.59818e-19)
(0.381592 -0.121139 0)
(0.382086 -0.112821 1.46495e-21)
(0.382125 -0.104691 1.13839e-18)
(-0.0202637 0.0697286 -4.99151e-19)
(-0.0393042 0.157364 0)
(-0.0399134 0.206012 -5.56474e-19)
(-0.0268324 0.220091 -7.09987e-19)
(-0.00288369 0.207171 -4.34899e-19)
(0.0290281 0.174896 1.46318e-19)
(0.0663341 0.130152 2.12755e-24)
(0.10669 0.0788164 -1.48696e-19)
(0.147936 0.0257435 2.86469e-21)
(0.18815 -0.0252352 3.00087e-19)
(0.225757 -0.0713106 2.99259e-19)
(0.259611 -0.110676 -2.9816e-19)
(0.28903 -0.14244 3.00634e-19)
(0.313764 -0.166474 -9.00943e-19)
(0.333928 -0.183227 8.98577e-19)
(0.349892 -0.193521 5.97137e-19)
(0.362181 -0.19837 1.49193e-18)
(0.371386 -0.198837 -2.99975e-19)
(0.378097 -0.19593 -5.89202e-19)
(0.382858 -0.190544 -3.39983e-21)
(0.38614 -0.18343 -5.83981e-19)
(0.388334 -0.175193 1.73588e-18)
(0.389752 -0.166302 -1.15281e-18)
(0.390631 -0.157106 1.13767e-18)
(0.391152 -0.147858 -5.667e-19)
(0.391444 -0.138731 1.11962e-18)
(0.3916 -0.129842 2.07641e-21)
(0.391694 -0.121257 -1.0983e-18)
(0.391731 -0.112993 1.08533e-18)
(0.391326 -0.104974 5.62595e-19)
(-0.0213995 0.0672204 4.9915e-19)
(-0.0412819 0.151463 0)
(-0.041279 0.197944 1.24938e-18)
(-0.0264083 0.210667 4.26167e-19)
(0.000211967 0.196926 0)
(0.0353208 0.164189 0)
(0.0760044 0.119269 0)
(0.119607 0.068036 0)
(0.163714 0.015362 2.98757e-19)
(0.206224 -0.034923 2.9832e-19)
(0.245469 -0.0800439 -5.99605e-19)
(0.280291 -0.11826 6.00271e-19)
(0.310065 -0.148767 8.9698e-19)
(0.334646 -0.171526 3.01052e-19)
(0.354266 -0.187067 2.95739e-19)
(0.369418 -0.196272 -8.945e-19)
(0.380735 -0.20019 -1.18664e-18)
(0.388894 -0.1999 -5.92307e-19)
(0.39455 -0.196409 5.89191e-19)
(0.398292 -0.190594 -1.17015e-18)
(0.40062 -0.183187 5.79477e-19)
(0.401936 -0.174766 -1.15371e-18)
(0.402556 -0.165778 5.69449e-19)
(0.402717 -0.15655 -2.69121e-21)
(0.402593 -0.147314 -5.61075e-19)
(0.402307 -0.13823 -1.11467e-18)
(0.401943 -0.129402 1.10347e-18)
(0.401569 -0.12089 0)
(0.401182 -0.112714 -1.52349e-21)
(0.400368 -0.104841 -1.12272e-18)
(-0.0224111 0.0646285 6.19701e-20)
(-0.0429475 0.145227 0)
(-0.0422176 0.189315 -5.54011e-19)
(-0.0254766 0.200529 1.41033e-19)
(0.00386919 0.185915 -1.43196e-19)
(0.0422025 0.152758 0)
(0.0862573 0.107791 -1.46321e-19)
(0.133057 0.0568573 1.4732e-19)
(0.179928 0.00482238 2.96086e-19)
(0.224593 -0.0445113 -8.8935e-19)
(0.265303 -0.0884281 -2.97795e-19)
(0.30091 -0.125275 -5.26539e-22)
(0.330866 -0.154349 -1.50782e-21)
(0.355141 -0.175708 -5.95112e-19)
(0.374099 -0.189961 -2.98914e-19)
(0.388356 -0.198044 0)
(0.398653 -0.201036 9.82971e-22)
(0.40575 -0.200022 5.8892e-19)
(0.410362 -0.195994 -5.83526e-19)
(0.413115 -0.189809 0)
(0.414529 -0.18217 0)
(0.415016 -0.173628 0)
(0.41489 -0.164601 0)
(0.414385 -0.155393 -3.47705e-21)
(0.413666 -0.146217 0)
(0.412847 -0.137218 0)
(0.412006 -0.128488 5.45726e-19)
(0.411202 -0.120081 5.40316e-19)
(0.410427 -0.112021 5.3682e-19)
(0.40924 -0.104324 -1.63068e-21)
(-0.0232959 0.0619768 6.16885e-20)
(-0.0442741 0.138709 -1.34383e-19)
(-0.0426734 0.180192 8.2424e-19)
(-0.0239592 0.189754 -1.40274e-19)
(0.00817766 0.174212 1.42612e-19)
(0.0497616 0.140676 -1.09416e-23)
(0.0971662 0.0957854 4.35618e-19)
(0.147087 0.0453445 -5.8508e-19)
(0.196591 -0.00581652 8.82413e-19)
(0.243235 -0.0539502 1.36601e-21)
(0.28521 -0.0964267 -2.94767e-19)
(0.321397 -0.131702 5.91191e-19)
(0.351345 -0.159185 -5.91095e-19)
(0.375156 -0.179039 5.90424e-19)
(0.393333 -0.191948 0)
(0.406621 -0.198894 5.87419e-19)
(0.415861 -0.200977 0)
(0.421892 -0.199277 3.29773e-21)
(0.42548 -0.194765 -5.79126e-19)
(0.427283 -0.188269 -5.75489e-19)
(0.427833 -0.180458 5.71486e-19)
(0.427546 -0.171852 -5.67165e-19)
(0.426732 -0.162839 -5.6257e-19)
(0.425616 -0.153699 -1.11895e-18)
(0.424354 -0.144624 -5.52716e-19)
(0.423052 -0.135746 5.49541e-19)
(0.421776 -0.127145 -1.08942e-18)
(0.420583 -0.118871 -5.40314e-19)
(0.419456 -0.110951 0)
(0.417937 -0.103454 -5.54806e-19)
(-0.0240514 0.0592849 0)
(-0.0452362 0.131961 5.33525e-19)
(-0.0425909 0.170647 -4.12044e-19)
(-0.0217775 0.17842 -6.97315e-19)
(0.0132277 0.161898 0)
(0.0580862 0.128024 0)
(0.108804 0.0833352 -8.71208e-19)
(0.161742 0.0335759 1.16745e-18)
(0.213716 -0.016484 -8.79498e-19)
(0.26213 -0.0631812 0)
(0.305138 -0.103998 2.95868e-19)
(0.341678 -0.13752 -2.96542e-19)
(0.371419 -0.16328 3.027e-21)
(0.394607 -0.181545 -2.97828e-19)
(0.411891 -0.193072 -2.92555e-19)
(0.424142 -0.198883 -3.18892e-21)
(0.432299 -0.200086 5.81883e-19)
(0.437271 -0.197746 5.82347e-19)
(0.439868 -0.192806 1.16189e-21)
(0.440768 -0.186057 1.14878e-18)
(0.440512 -0.178132 -1.14168e-18)
(0.439511 -0.169515 1.1322e-18)
(0.43807 -0.160563 5.62567e-19)
(0.436401 -0.151531 5.57738e-19)
(0.43465 -0.142594 3.4786e-21)
(0.432913 -0.133866 0)
(0.431248 -0.125421 5.40665e-19)
(0.429705 -0.117301 -1.60523e-18)
(0.428266 -0.109541 5.2703e-19)
(0.426454 -0.102266 5.50734e-19)
(-0.0246749 0.0565684 -3.65611e-19)
(-0.0458088 0.125025 -1.19779e-18)
(-0.0419164 0.160745 -1.82556e-22)
(-0.0188549 0.166609 2.40429e-21)
(0.0191071 0.149065 -4.22702e-19)
(0.0672608 0.114896 0)
(0.121236 0.0705342 -2.87322e-19)
(0.177061 0.0216417 -1.74281e-18)
(0.231305 -0.0270991 8.76701e-19)
(0.281247 -0.072139 -5.83827e-19)
(0.325034 -0.111099 8.78186e-19)
(0.361686 -0.14271 -2.93162e-19)
(0.391012 -0.166639 5.88045e-19)
(0.41342 -0.183256 -1.46476e-18)
(0.429706 -0.193385 8.77977e-19)
(0.440864 -0.198077 -1.00577e-21)
(0.447924 -0.19844 -1.7402e-18)
(0.451856 -0.195511 5.77933e-19)
(0.453502 -0.1902 -5.73611e-19)
(0.453555 -0.183256 0)
(0.452555 -0.17527 5.64693e-19)
(0.450906 -0.166689 0)
(0.4489 -0.15784 -5.57708e-19)
(0.446737 -0.148953 5.52236e-19)
(0.444552 -0.140182 5.49235e-19)
(0.44243 -0.13163 5.40554e-19)
(0.440419 -0.12336 0)
(0.438566 -0.115412 0)
(0.436852 -0.107828 -1.05578e-18)
(0.434789 -0.100794 1.63839e-18)
(-0.0251633 0.053839 3.66059e-19)
(-0.0459677 0.117943 6.63425e-19)
(-0.0405982 0.150552 -5.4164e-19)
(-0.0151186 0.154404 1.10772e-18)
(0.0258978 0.135807 1.43276e-19)
(0.0773614 0.101396 1.423e-19)
(0.134519 0.0574871 2.59062e-21)
(0.193068 0.00964201 -5.75416e-19)
(0.24935 -0.0375732 -2.88906e-19)
(0.30055 -0.0807531 2.85741e-21)
(0.344837 -0.117682 -2.90055e-21)
(0.381348 -0.147252 -8.74386e-19)
(0.410054 -0.16927 -2.90497e-19)
(0.43153 -0.184205 3.05345e-21)
(0.446724 -0.192941 5.79804e-19)
(0.456745 -0.196547 5.77874e-19)
(0.462708 -0.196117 3.21498e-21)
(0.465628 -0.192658 -5.72516e-19)
(0.466374 -0.187034 5.71251e-19)
(0.465642 -0.179949 -5.66642e-19)
(0.463964 -0.171951 -1.126e-18)
(0.461734 -0.163449 -5.58933e-19)
(0.459226 -0.154737 1.10591e-18)
(0.45663 -0.146022 0)
(0.454064 -0.137442 -5.42312e-19)
(0.451603 -0.129085 -1.07764e-18)
(0.44929 -0.121007 -1.06727e-18)
(0.447166 -0.113245 5.29429e-19)
(0.445212 -0.105849 -1.56945e-18)
(0.442939 -0.0990718 5.43647e-19)
(-0.0255125 0.0511048 -6.04527e-19)
(-0.0456895 0.11075 1.31715e-19)
(-0.0385879 0.140129 5.41643e-19)
(-0.0105019 0.141888 -4.14722e-19)
(0.0336725 0.122225 1.41379e-19)
(0.0884513 0.0876328 8.51121e-23)
(0.148693 0.0443062 1.4295e-18)
(0.209772 -0.0023156 5.76753e-19)
(0.26783 -0.0478121 5.79276e-19)
(0.319989 -0.0889512 8.70819e-19)
(0.364483 -0.123702 -8.72063e-19)
(0.400597 -0.151131 5.82274e-19)
(0.428478 -0.171186 1.16304e-18)
(0.448882 -0.184431 5.80169e-19)
(0.462903 -0.191797 -1.02312e-21)
(0.471759 -0.194363 -1.15363e-18)
(0.476635 -0.193198 1.14974e-18)
(0.478584 -0.189268 2.11532e-21)
(0.478487 -0.183389 -5.67912e-19)
(0.477035 -0.176216 5.6333e-19)
(0.474749 -0.168249 5.61312e-19)
(0.472005 -0.159861 -5.53516e-19)
(0.469061 -0.151316 -1.10306e-18)
(0.466088 -0.142796 -4.85592e-22)
(0.463192 -0.134424 5.43806e-19)
(0.46044 -0.126275 5.37091e-19)
(0.457864 -0.118401 1.06029e-18)
(0.455505 -0.110835 -1.04535e-18)
(0.453346 -0.103639 0)
(0.450901 -0.0971318 5.40449e-19)
(-0.0257176 0.0483705 2.31628e-21)
(-0.0449508 0.103474 0)
(-0.0358408 0.129536 -4.02028e-19)
(-0.00494575 0.129146 -1.37094e-19)
(0.0424915 0.10842 -5.5606e-19)
(0.100578 0.0737208 0)
(0.163779 0.0311097 -8.5482e-19)
(0.227163 -0.0141189 2.86364e-19)
(0.286703 -0.0577195 0)
(0.339503 -0.0966611 -5.75228e-19)
(0.383904 -0.129117 0)
(0.419362 -0.154336 -8.65524e-19)
(0.446227 -0.172404 8.64607e-19)
(0.465432 -0.183975 -5.78146e-19)
(0.478214 -0.190015 -5.73612e-19)
(0.485891 -0.191599 0)
(0.489703 -0.189763 0)
(0.490731 -0.185424 5.68044e-19)
(0.489854 -0.179346 7.84402e-22)
(0.487752 -0.172131 5.59444e-19)
(0.48493 -0.164235 -5.5592e-19)
(0.48174 -0.155991 1.10561e-18)
(0.47842 -0.147634 -5.4687e-19)
(0.475125 -0.139327 0)
(0.47195 -0.131174 1.61354e-18)
(0.468948 -0.123243 -2.65785e-18)
(0.466147 -0.115579 5.27982e-19)
(0.463585 -0.108217 5.22824e-19)
(0.461251 -0.101228 5.13845e-19)
(0.458667 -0.0950038 1.07101e-18)
(-0.0257719 0.0456375 -4.76309e-19)
(-0.0437288 0.0961411 1.04234e-18)
(-0.0323165 0.118826 5.36578e-19)
(0.00159947 0.116259 1.22608e-18)
(0.0524005 0.0944972 1.52413e-18)
(0.113768 0.0597769 2.80587e-19)
(0.179776 0.0180184 -1.41285e-18)
(0.245209 -0.0256545 0)
(0.305914 -0.0672006 -1.14153e-18)
(0.359023 -0.103815 -5.69491e-19)
(0.403023 -0.13389 0)
(0.437579 -0.156861 -5.70522e-19)
(0.463248 -0.172949 -1.05887e-21)
(0.481145 -0.182884 -1.71732e-18)
(0.492641 -0.187657 5.73613e-19)
(0.499139 -0.188327 5.70445e-19)
(0.501924 -0.185888 -1.13082e-18)
(0.502085 -0.181204 -1.12874e-18)
(0.500497 -0.17498 -7.16709e-22)
(0.497818 -0.167767 -2.0062e-21)
(0.494529 -0.159974 0)
(0.490959 -0.151898 -5.48684e-19)
(0.487324 -0.143747 -5.4059e-19)
(0.483761 -0.135662 0)
(0.480351 -0.127735 0)
(0.477139 -0.120024 1.58748e-18)
(0.474146 -0.112573 -1.56405e-18)
(0.471409 -0.105419 0)
(0.468924 -0.0986439 1.53145e-18)
(0.466231 -0.0927122 -1.06388e-18)
(-0.0256677 0.0429053 4.85898e-21)
(-0.0420011 0.0887719 -1.04211e-18)
(-0.02798 0.108051 -1.33075e-19)
(0.0091726 0.103307 -1.36132e-18)
(0.0634288 0.0805581 -8.30785e-19)
(0.128029 0.0459182 2.79199e-19)
(0.196662 0.00515247 5.6623e-19)
(0.26386 -0.0368117 1.41451e-18)
(0.325389 -0.0761654 1.14153e-18)
(0.378466 -0.110351 1.14471e-18)
(0.421766 -0.137992 0)
(0.455184 -0.158709 5.86464e-21)
(0.479497 -0.172849 0)
(0.495997 -0.181207 1.14417e-18)
(0.506177 -0.184787 0)
(0.511512 -0.184619 -5.67276e-19)
(0.513315 -0.181648 5.70219e-19)
(0.512675 -0.17668 0)
(0.510446 -0.170362 0)
(0.507263 -0.16319 -1.65822e-18)
(0.503577 -0.155528 5.49272e-19)
(0.499691 -0.147637 0)
(0.495798 -0.139702 1.08033e-18)
(0.492017 -0.131844 1.07421e-18)
(0.488415 -0.124143 -2.1213e-18)
(0.485028 -0.116652 2.10035e-18)
(0.481871 -0.109412 3.62569e-21)
(0.47898 -0.102463 1.02522e-18)
(0.476363 -0.0959052 -1.02091e-18)
(0.473585 -0.0902747 0)
(-0.025396 0.0401716 1.19029e-18)
(-0.0397465 0.081385 -1.2919e-19)
(-0.0228019 0.0972581 -1.05753e-18)
(0.0178006 0.0903662 0)
(0.0755883 0.0667038 -1.09572e-18)
(0.143346 0.0322601 0)
(0.21439 -0.00737113 -1.39852e-18)
(0.283042 -0.0474853 -8.48856e-19)
(0.345043 -0.0845315 -1.13009e-18)
(0.397746 -0.116217 0)
(0.440056 -0.141401 2.84572e-19)
(0.47212 -0.159887 2.90852e-19)
(0.494939 -0.172137 -5.68275e-19)
(0.509974 -0.178996 -1.13209e-18)
(0.518828 -0.181467 -5.62466e-19)
(0.523029 -0.180543 -2.25184e-18)
(0.523905 -0.177114 1.12461e-18)
(0.522532 -0.171923 -6.46384e-22)
(0.519737 -0.165557 -5.82798e-22)
(0.516122 -0.15846 1.65437e-18)
(0.512107 -0.150951 0)
(0.507966 -0.14326 0)
(0.50387 -0.135546 -3.04603e-21)
(0.499917 -0.127914 3.7369e-21)
(0.496163 -0.120434 -1.0505e-18)
(0.492632 -0.113153 -1.04363e-18)
(0.489334 -0.106115 3.16694e-21)
(0.486307 -0.0993648 -1.02523e-18)
(0.483567 -0.0930228 -1.01093e-18)
(0.480722 -0.0876983 3.34481e-21)
(-0.024947 0.0374342 0)
(-0.0369447 0.0739976 1.02694e-18)
(-0.0167592 0.0864937 9.25609e-19)
(0.0274979 0.0775127 1.34433e-19)
(0.0888726 0.0530326 2.18586e-18)
(0.159683 0.0189137 -2.76383e-19)
(0.232896 -0.0194419 2.23107e-18)
(0.302668 -0.0575787 1.11963e-18)
(0.364779 -0.0922268 1.69376e-18)
(0.416772 -0.121371 8.44883e-19)
(0.457819 -0.144107 2.83116e-19)
(0.488335 -0.160413 1.4187e-18)
(0.509547 -0.170851 6.55119e-22)
(0.523072 -0.176304 5.67907e-19)
(0.530607 -0.17776 1.12879e-18)
(0.533717 -0.176166 1.12438e-18)
(0.533729 -0.172351 0)
(0.531695 -0.166995 0)
(0.528407 -0.160626 0)
(0.524431 -0.153632 0)
(0.520153 -0.146295 1.0824e-18)
(0.515816 -0.138812 0)
(0.511568 -0.131319 -3.68336e-21)
(0.507489 -0.123908 2.11095e-18)
(0.50362 -0.116637 1.04691e-18)
(0.499974 -0.109553 1.03646e-18)
(0.496557 -0.1027 2.05205e-18)
(0.493402 -0.0961323 0)
(0.49054 -0.0899967 -2.00532e-18)
(0.487639 -0.0849763 2.09493e-18)
(-0.0243097 0.0346901 9.38131e-19)
(-0.0335771 0.0666254 -1.02696e-18)
(-0.0098357 0.075802 0)
(0.0382665 0.0648183 -1.06779e-18)
(0.103258 0.0396389 -2.77457e-19)
(0.176985 0.00598431 -8.2219e-19)
(0.252093 -0.0309575 -2.49675e-18)
(0.322635 -0.0670059 -5.66226e-21)
(0.384491 -0.0991905 -8.38168e-19)
(0.435451 -0.125782 -1.96794e-18)
(0.474985 -0.146108 -2.81477e-19)
(0.503788 -0.160309 -1.12351e-18)
(0.523305 -0.169033 -1.12241e-18)
(0.535298 -0.173185 0)
(0.541537 -0.173726 -1.11654e-18)
(0.54361 -0.171549 -1.66973e-18)
(0.542826 -0.16742 5.54434e-19)
(0.540205 -0.161955 -1.09975e-18)
(0.536497 -0.155621 -1.09241e-18)
(0.532229 -0.148757 0)
(0.52775 -0.141606 -2.15816e-18)
(0.523274 -0.134336 0)
(0.518924 -0.127062 -2.12453e-18)
(0.514763 -0.11986 -1.0508e-18)
(0.510816 -0.112784 -2.08071e-18)
(0.507085 -0.105874 1.0301e-18)
(0.503566 -0.099179 -3.05779e-18)
(0.500289 -0.0927658 1.00525e-18)
(0.497296 -0.0868149 6.53027e-21)
(0.494344 -0.0820864 -1.04072e-18)
(-0.0234727 0.031937 -9.38151e-19)
(-0.0296264 0.0592842 1.27478e-19)
(-0.00202158 0.0652257 9.10953e-19)
(0.0500959 0.0523526 1.06781e-18)
(0.118702 0.0266127 -1.08449e-18)
(0.195176 -0.00642959 5.79509e-21)
(0.271881 -0.0418254 1.10682e-18)
(0.342829 -0.0756923 -2.22169e-18)
(0.404073 -0.105374 -2.73158e-19)
(0.453694 -0.12943 2.51731e-18)
(0.491491 -0.147412 -1.67793e-18)
(0.518444 -0.159605 2.8013e-18)
(0.536206 -0.166729 2.79898e-18)
(0.546666 -0.169692 -5.58251e-19)
(0.551648 -0.16942 1.11657e-18)
(0.552745 -0.166749 1.66661e-18)
(0.551238 -0.162376 5.48666e-19)
(0.548104 -0.156854 6.43497e-21)
(0.544047 -0.150591 5.47674e-19)
(0.539553 -0.14388 5.40366e-19)
(0.534932 -0.136927 -5.29664e-19)
(0.530371 -0.129872 5.31493e-19)
(0.525969 -0.122812 -1.05029e-18)
(0.521771 -0.115808 1.04717e-18)
(0.517786 -0.108904 6.82575e-21)
(0.514002 -0.102139 1.01975e-18)
(0.510404 -0.0955636 6.75645e-21)
(0.507007 -0.0892596 -1.00178e-18)
(0.503866 -0.0834543 3.40431e-21)
(0.50086 -0.0789861 0)
(-0.022424 0.0291734 0)
(-0.0250777 0.0519906 0)
(0.0066861 0.0548068 -1.17129e-18)
(0.0629636 0.0401829 1.32356e-19)
(0.13515 0.0140393 0)
(0.214166 -0.0182375 1.0915e-18)
(0.292147 -0.0519638 2.74461e-19)
(0.363132 -0.083576 8.31627e-19)
(0.423414 -0.110743 1.11282e-18)
(0.471416 -0.132307 -1.11594e-18)
(0.507283 -0.148034 1.11753e-18)
(0.532279 -0.158336 -1.11771e-18)
(0.548252 -0.163983 -1.11654e-18)
(0.557197 -0.165877 0)
(0.560974 -0.164898 0)
(0.561163 -0.161817 0)
(0.559007 -0.157268 -1.10001e-18)
(0.555433 -0.151736 1.63861e-18)
(0.551096 -0.145578 -5.41168e-19)
(0.546437 -0.139041 0)
(0.541732 -0.132297 1.60209e-18)
(0.537138 -0.125461 -5.28163e-19)
(0.532734 -0.118609 1.05031e-18)
(0.528547 -0.111789 -2.07063e-18)
(0.52457 -0.105033 2.05678e-18)
(0.520772 -0.0983755 -3.27018e-21)
(0.517122 -0.0918633 3.53915e-21)
(0.513611 -0.0855974 9.9503e-19)
(0.510297 -0.0798683 -4.39267e-22)
(0.507212 -0.0755768 1.02907e-18)
(-0.0211516 0.026399 1.15869e-19)
(-0.0199185 0.0447627 -1.25885e-19)
(0.0162829 0.044588 2.58411e-19)
(0.076835 0.0283754 -1.57764e-18)
(0.15253 0.00199944 2.67497e-19)
(0.233852 -0.0293576 0)
(0.312766 -0.0613025 1.08933e-18)
(0.383421 -0.0906084 -1.09633e-18)
(0.44241 -0.115274 0)
(0.48854 -0.134418 1.38131e-18)
(0.522316 -0.147999 -2.77151e-19)
(0.545279 -0.156539 0)
(0.559453 -0.160842 -5.54092e-19)
(0.566918 -0.161788 1.10514e-18)
(0.569553 -0.160205 -5.50453e-19)
(0.568908 -0.156799 5.48416e-19)
(0.566178 -0.152136 -1.09054e-18)
(0.562233 -0.146641 -2.8801e-22)
(0.557679 -0.140618 -2.36693e-22)
(0.552912 -0.134276 -5.30778e-19)
(0.548175 -0.127752 -1.05925e-18)
(0.5436 -0.121141 -2.64557e-22)
(0.539247 -0.114498 3.30796e-21)
(0.535127 -0.107852 1.03355e-18)
(0.531216 -0.101221 -1.01995e-18)
(0.527463 -0.0946248 1.01302e-18)
(0.523804 -0.0880965 -1.99797e-18)
(0.520184 -0.0817573 -3.58191e-21)
(0.51666 -0.0759515 -1.95311e-18)
(0.513446 -0.0716526 1.0235e-18)
(-0.0196428 0.0236149 0)
(-0.0141385 0.0376205 -1.00025e-18)
(0.0267582 0.0346126 0)
(0.0916656 0.0169936 5.75786e-21)
(0.17076 -0.0094329 2.66041e-19)
(0.25412 -0.0397182 -9.54281e-23)
(0.333614 -0.0697845 -2.17294e-18)
(0.403574 -0.0967552 8.22945e-19)
(0.460962 -0.118958 0)
(0.504999 -0.135774 -1.3799e-18)
(0.536554 -0.147338 2.75716e-19)
(0.557437 -0.154257 0)
(0.569826 -0.157352 -5.51142e-19)
(0.575864 -0.157473 5.49398e-19)
(0.577426 -0.155387 5.44469e-19)
(0.576022 -0.151735 1.0903e-18)
(0.57279 -0.147017 -5.42009e-19)
(0.56854 -0.141601 0)
(0.563826 -0.135743 0)
(0.559002 -0.129614 1.06467e-18)
(0.554281 -0.123328 -1.05253e-18)
(0.549773 -0.116953 1.043e-18)
(0.545524 -0.110526 1.03672e-18)
(0.541537 -0.104058 1.02321e-18)
(0.537777 -0.0975448 -1.01285e-18)
(0.534174 -0.090974 1.00592e-18)
(0.530615 -0.0843435 9.91998e-19)
(0.526929 -0.0777491 -9.81253e-19)
(0.523005 -0.0714797 2.8848e-21)
(0.519062 -0.0665891 2.03701e-18)
(-0.0178891 0.0208281 1.14647e-19)
(-0.00773254 0.0305894 8.75988e-19)
(0.0380937 0.0249259 0)
(0.107401 0.00609917 1.04539e-18)
(0.189746 -0.0201901 0)
(0.27485 -0.0492576 0)
(0.354561 -0.0773643 8.13547e-19)
(0.423475 -0.101993 3.7741e-23)
(0.478977 -0.121795 2.73207e-19)
(0.520732 -0.136397 2.74067e-19)
(0.549974 -0.146083 -8.2327e-19)
(0.568757 -0.151529 5.48618e-19)
(0.579395 -0.153556 0)
(0.584069 -0.152971 0)
(0.584634 -0.150481 -1.09243e-18)
(0.582548 -0.146658 0)
(0.578882 -0.14194 -5.39167e-19)
(0.574387 -0.136642 5.35492e-19)
(0.569564 -0.130976 5.31706e-19)
(0.564727 -0.125083 4.15583e-23)
(0.560062 -0.119051 -5.22919e-19)
(0.555661 -0.112931 0)
(0.551565 -0.106744 -1.0264e-18)
(0.547776 -0.100482 1.01632e-18)
(0.544269 -0.0941169 0)
(0.540988 -0.087596 0)
(0.537836 -0.0808393 0)
(0.53461 -0.0737954 0)
(0.530824 -0.0666143 -9.63948e-19)
(0.527319 -0.0587946 2.02366e-18)
(0.302372 -0.0490214 -0.029569)
(0.312238 -0.0220925 -0.0306249)
(0.320429 0.00357336 -0.0309337)
(0.32335 0.0219948 -0.0312087)
(0.324428 0.0355023 -0.0314203)
(0.32362 0.0465233 -0.0315946)
(0.32139 0.0569395 -0.0317213)
(0.318111 0.0672431 -0.0318182)
(0.313902 0.0774726 -0.0318986)
(0.308968 0.0873911 -0.0319724)
(0.303399 0.096872 -0.032046)
(0.297268 0.10586 -0.0321195)
(0.290656 0.114373 -0.0322013)
(0.283627 0.122386 -0.0323056)
(0.276174 0.129887 -0.0324356)
(0.268474 0.136895 -0.0325802)
(0.260264 0.143392 -0.0327543)
(0.252178 0.149386 -0.032929)
(0.243089 0.154828 -0.0331491)
(0.235221 0.159757 -0.0333348)
(0.224619 0.164098 -0.0336134)