/*--------------------------------*- C++ -*----------------------------------*\
  =========                 |
  \\      /  F ield         | OpenFOAM: The Open Source CFD Toolbox
   \\    /   O peration     | Website:  https://openfoam.org
    \\  /    A nd           | Version:  7
     \\/     M anipulation  |
\*---------------------------------------------------------------------------*/
FoamFile
{
    version     2.0;
    format      ascii;
    class       volVectorField;
    location    "0.1";
    object      U;
}
// * * * * * * * * * * * * * * * * * * * * * * * * * * * * * * * * * * * * * //

dimensions      [0 1 -1 0 0 0 0];

internalField   nonuniform List<vector> 
32000
(
(-0.0262022 -0.243338 -2.36935e-21)
(-0.00048054 -0.580266 0)
(0.0471921 -0.692593 -1.66832e-20)
(0.0767835 -0.714927 0)
(0.107477 -0.707759 1.69464e-20)
(0.139916 -0.691181 0)
(0.171625 -0.672081 1.77222e-20)
(0.201417 -0.653101 -1.34609e-20)
(0.229221 -0.634858 -2.01424e-23)
(0.255466 -0.61777 -3.07624e-23)
(0.279903 -0.601724 -4.62147e-21)
(0.302278 -0.586876 1.82763e-20)
(0.322945 -0.573258 0)
(0.342197 -0.560576 -4.57253e-21)
(0.360041 -0.548759 4.59138e-21)
(0.376561 -0.537873 0)
(0.391959 -0.527763 2.25819e-20)
(0.406412 -0.51833 -4.54274e-21)
(0.41999 -0.509514 0)
(0.432706 -0.50132 9.01579e-21)
(0.444636 -0.493661 8.87832e-21)
(0.455903 -0.486502 0)
(0.466503 -0.479752 0)
(0.476596 -0.473451 0)
(0.486243 -0.467514 0)
(0.495308 -0.461864 0)
(0.503866 -0.456593 0)
(0.512104 -0.451617 0)
(0.520032 -0.446858 -1.74693e-20)
(0.527585 -0.442337 0)
(0.534869 -0.438085 1.72263e-20)
(0.541934 -0.433981 0)
(0.548703 -0.430116 0)
(0.555199 -0.426387 0)
(0.56159 -0.422848 -1.67967e-20)
(0.567651 -0.419447 -8.42706e-21)
(0.573442 -0.416132 2.51617e-20)
(0.579455 -0.413064 -1.14329e-22)
(0.58434 -0.410329 1.66598e-20)
(0.588107 -0.401908 -1.22144e-22)
(-0.0216186 -0.24413 0)
(0.0105361 -0.58863 3.53699e-20)
(0.0598488 -0.705468 8.52457e-21)
(0.0894946 -0.72993 1.03037e-22)
(0.119917 -0.723819 -8.56059e-21)
(0.151726 -0.707402 0)
(0.182718 -0.68832 1.70502e-20)
(0.212033 -0.668966 -1.73277e-20)
(0.239294 -0.650029 0)
(0.264788 -0.632225 -3.58689e-20)
(0.288635 -0.615597 0)
(0.310605 -0.600196 -5.42587e-20)
(0.330747 -0.585903 0)
(0.349516 -0.572602 0)
(0.366989 -0.560299 1.79611e-20)
(0.383174 -0.548971 -1.80185e-20)
(0.398236 -0.53836 -1.80451e-20)
(0.412344 -0.528495 0)
(0.425654 -0.519322 5.31696e-20)
(0.438132 -0.510779 -1.78002e-20)
(0.449764 -0.502749 -1.23249e-22)
(0.460794 -0.495337 -5.30017e-20)
(0.471253 -0.48835 -3.52144e-20)
(0.48114 -0.48176 -1.77028e-20)
(0.490543 -0.475577 5.27495e-20)
(0.499502 -0.469791 -5.26129e-20)
(0.507992 -0.464299 5.26321e-20)
(0.516032 -0.459093 -6.96454e-20)
(0.523734 -0.454206 -1.7021e-20)
(0.53122 -0.449566 1.79497e-22)
(0.53846 -0.445139 -5.13118e-20)
(0.545353 -0.4409 -3.40212e-20)
(0.552064 -0.436945 6.72758e-20)
(0.558495 -0.433047 -6.68741e-20)
(0.564673 -0.4294 -1.63214e-20)
(0.570812 -0.425954 -6.61361e-20)
(0.576486 -0.422493 2.29607e-22)
(0.582321 -0.419309 1.63314e-20)
(0.587167 -0.416631 -6.51329e-20)
(0.590976 -0.408024 -8.20391e-20)
(-0.0169585 -0.244251 -8.63089e-21)
(0.0218137 -0.596098 -1.76228e-20)
(0.0732871 -0.717007 -7.27643e-20)
(0.1033 -0.743931 0)
(0.133071 -0.738887 8.25685e-21)
(0.164271 -0.722899 -8.39676e-21)
(0.194558 -0.703641 -1.02976e-19)
(0.223189 -0.683835 3.53196e-20)
(0.249822 -0.66459 -1.76419e-20)
(0.274791 -0.64626 1.06497e-19)
(0.298021 -0.628948 3.56661e-20)
(0.319298 -0.612987 1.80731e-20)
(0.339022 -0.598157 -7.07917e-20)
(0.357391 -0.584346 0)
(0.374342 -0.571572 0)
(0.390126 -0.559767 3.52783e-20)
(0.404895 -0.548767 -1.65251e-22)
(0.418691 -0.538517 -3.52494e-20)
(0.431644 -0.528909 -3.53712e-20)
(0.443841 -0.520025 -6.96868e-20)
(0.455205 -0.511702 1.04695e-19)
(0.465955 -0.504001 2.39554e-22)
(0.476178 -0.496738 2.21717e-22)
(0.485892 -0.489946 3.49171e-20)
(0.495127 -0.483526 -6.99622e-20)
(0.503867 -0.477535 1.38853e-19)
(0.512174 -0.471901 0)
(0.520112 -0.466554 3.46994e-20)
(0.52773 -0.461448 3.449e-20)
(0.535054 -0.456599 6.82473e-20)
(0.542154 -0.4521 1.78369e-22)
(0.548931 -0.447728 0)
(0.555532 -0.443585 3.30501e-20)
(0.561882 -0.439722 -3.28987e-20)
(0.567949 -0.435872 -3.22001e-20)
(0.573974 -0.432238 9.83474e-20)
(0.579641 -0.428938 -9.6786e-20)
(0.585334 -0.425519 6.47226e-20)
(0.58997 -0.422772 -9.56709e-20)
(0.593797 -0.413959 3.17929e-20)
(-0.0121134 -0.244431 7.20458e-20)
(0.0339906 -0.603166 -6.83946e-20)
(0.0874203 -0.728156 1.27229e-19)
(0.117546 -0.757715 0)
(0.147043 -0.753828 4.76818e-20)
(0.17758 -0.738103 8.19336e-20)
(0.207177 -0.718817 1.8213e-20)
(0.235103 -0.698659 2.82213e-23)
(0.261038 -0.678903 5.14936e-20)
(0.285326 -0.659849 -1.86074e-20)
(0.307908 -0.642122 8.72686e-20)
(0.328625 -0.625614 -1.04804e-19)
(0.347745 -0.610129 1.06042e-19)
(0.365575 -0.595817 -3.49296e-20)
(0.382121 -0.582583 3.5074e-20)
(0.397491 -0.57031 -6.91774e-20)
(0.411849 -0.558883 -1.03678e-19)
(0.425336 -0.548238 3.47356e-20)
(0.437987 -0.538296 -3.46167e-20)
(0.44984 -0.529116 1.04307e-19)
(0.460877 -0.520533 -6.964e-20)
(0.471373 -0.512531 -6.86792e-20)
(0.481379 -0.504995 0)
(0.490854 -0.497935 0)
(0.499852 -0.491317 -6.83989e-20)
(0.508404 -0.485133 -6.90903e-20)
(0.516582 -0.479314 -6.79511e-20)
(0.524393 -0.473784 0)
(0.531866 -0.468575 0)
(0.538979 -0.463567 -1.3391e-19)
(0.545964 -0.458935 1.58124e-22)
(0.552698 -0.454512 6.66618e-20)
(0.559059 -0.450187 -6.58208e-20)
(0.565373 -0.446224 -6.52687e-20)
(0.571469 -0.44232 6.57855e-20)
(0.57717 -0.438634 0)
(0.582765 -0.435112 6.45416e-20)
(0.588558 -0.431766 -1.26826e-19)
(0.592996 -0.428842 1.27071e-19)
(0.596652 -0.419828 -1.26983e-19)
(-0.00723165 -0.244579 -3.7435e-20)
(0.046279 -0.609984 5.01678e-20)
(0.102087 -0.739102 -6.30087e-20)
(0.132663 -0.770833 0)
(0.161693 -0.768115 -7.97425e-20)
(0.191552 -0.752764 -4.9328e-20)
(0.220334 -0.733395 6.6908e-20)
(0.247553 -0.712857 0)
(0.272881 -0.692653 -1.02954e-19)
(0.296449 -0.67322 -3.4941e-20)
(0.318224 -0.65494 -3.52091e-20)
(0.338345 -0.637809 6.9556e-20)
(0.356995 -0.621821 -6.9194e-20)
(0.374277 -0.60703 3.46549e-20)
(0.39026 -0.593309 0)
(0.405196 -0.580548 1.03431e-19)
(0.419203 -0.568677 3.4662e-20)
(0.432304 -0.557673 -6.83375e-20)
(0.444532 -0.547436 1.36711e-19)
(0.456057 -0.537973 -1.3664e-19)
(0.466833 -0.529116 1.36133e-19)
(0.477055 -0.520855 6.86791e-20)
(0.486809 -0.513084 0)
(0.496052 -0.50577 6.81202e-20)
(0.504817 -0.498928 4.5725e-22)
(0.513134 -0.492553 0)
(0.521123 -0.486585 6.79511e-20)
(0.528759 -0.480873 -6.71359e-20)
(0.536147 -0.475576 6.68566e-20)
(0.543133 -0.4705 1.33073e-19)
(0.549849 -0.465603 -1.31783e-19)
(0.556538 -0.461124 1.31299e-19)
(0.562854 -0.456799 0)
(0.568917 -0.452553 0)
(0.574878 -0.448666 1.27993e-19)
(0.580668 -0.444951 0)
(0.586075 -0.441326 0)
(0.59169 -0.437872 -1.24292e-19)
(0.59614 -0.434906 1.24479e-19)
(0.599648 -0.425725 6.29957e-20)
(-0.0023218 -0.244537 1.76159e-20)
(0.0591294 -0.61655 0)
(0.11731 -0.749285 1.21244e-19)
(0.14825 -0.783556 1.51878e-20)
(0.17698 -0.781939 1.56439e-20)
(0.206191 -0.766951 9.42833e-20)
(0.234278 -0.747531 1.28886e-19)
(0.2607 -0.72663 0)
(0.28514 -0.706 3.35298e-20)
(0.307983 -0.68612 1.00428e-19)
(0.329164 -0.667274 1.35016e-19)
(0.348635 -0.649591 -3.39819e-20)
(0.366575 -0.63315 -1.01131e-19)
(0.383293 -0.61788 0)
(0.39886 -0.603684 1.34797e-19)
(0.413341 -0.59049 0)
(0.426845 -0.57824 2.01761e-19)
(0.439529 -0.566875 -6.75896e-20)
(0.451396 -0.556314 0)
(0.462556 -0.546564 -6.74578e-20)
(0.472987 -0.53745 -4.32926e-22)
(0.482925 -0.528897 -6.65656e-20)
(0.492471 -0.520913 -6.73046e-20)
(0.501482 -0.513444 6.72882e-20)
(0.509965 -0.506427 -6.71118e-20)
(0.518018 -0.499809 0)
(0.525882 -0.493727 -6.66482e-20)
(0.533325 -0.487891 6.63937e-20)
(0.54044 -0.482334 0)
(0.547428 -0.477236 0)
(0.554012 -0.472258 0)
(0.560356 -0.467531 -1.29067e-19)
(0.566703 -0.463174 1.28385e-19)
(0.572725 -0.458912 0)
(0.578417 -0.454933 -6.35652e-20)
(0.584009 -0.45107 0)
(0.589477 -0.447484 1.24225e-19)
(0.595088 -0.443873 -6.12807e-20)
(0.599281 -0.440863 -1.22384e-19)
(0.602713 -0.431541 1.22953e-19)
(0.00253901 -0.244618 1.20441e-19)
(0.0720339 -0.622338 -1.45393e-19)
(0.133041 -0.758989 -2.24235e-19)
(0.164519 -0.795583 -1.17737e-19)
(0.192952 -0.795158 -3.05137e-20)
(0.221458 -0.780558 -6.3585e-20)
(0.248703 -0.761067 -2.87221e-19)
(0.274368 -0.739963 -9.64626e-20)
(0.298064 -0.718966 -1.63844e-19)
(0.320114 -0.698524 -1.67547e-19)
(0.340468 -0.679119 -2.34406e-19)
(0.359258 -0.660994 -1.33293e-19)
(0.376653 -0.644105 1.99583e-21)
(0.39279 -0.628321 -1.33162e-19)
(0.407755 -0.613688 -1.34796e-19)
(0.421749 -0.600115 -1.99375e-19)
(0.434852 -0.587522 1.31749e-19)
(0.447102 -0.575823 -6.67308e-20)
(0.458488 -0.564955 0)
(0.469267 -0.554892 1.32537e-19)
(0.47945 -0.545531 0)
(0.489072 -0.536719 2.66427e-19)
(0.498247 -0.528495 0)
(0.507012 -0.520854 -6.64859e-20)
(0.515377 -0.51378 6.70997e-20)
(0.523125 -0.506972 -1.32285e-19)
(0.530667 -0.500614 0)
(0.538112 -0.49477 -1.31031e-19)
(0.545022 -0.48906 1.30486e-19)
(0.551676 -0.483683 0)
(0.558284 -0.47873 0)
(0.564524 -0.473967 0)
(0.570531 -0.46938 -1.25976e-19)
(0.576425 -0.465156 0)
(0.582135 -0.46105 -1.24485e-19)
(0.587643 -0.457157 2.47185e-19)
(0.592894 -0.45339 -2.45085e-19)
(0.598462 -0.449798 1.20882e-19)
(0.602521 -0.446741 2.41025e-19)
(0.60578 -0.437263 -1.21104e-19)
(0.00754568 -0.244424 -1.54888e-19)
(0.0854512 -0.627923 2.27435e-21)
(0.149106 -0.768162 1.18886e-19)
(0.181157 -0.806905 2.33109e-19)
(0.209398 -0.807661 -2.99226e-20)
(0.237343 -0.793636 -1.21514e-19)
(0.263799 -0.774143 1.26292e-19)
(0.288558 -0.752769 1.92941e-19)
(0.311381 -0.731312 6.6039e-20)
(0.332712 -0.710452 1.62844e-19)
(0.352353 -0.690655 1.32931e-19)
(0.370359 -0.671997 1.98631e-19)
(0.387032 -0.65456 3.97041e-19)
(0.402597 -0.638355 1.98138e-19)
(0.417065 -0.623391 0)
(0.430515 -0.609408 6.68886e-20)
(0.443069 -0.596429 6.43651e-20)
(0.454899 -0.584444 6.51466e-20)
(0.465928 -0.573355 1.31785e-19)
(0.476272 -0.562964 -6.73445e-20)
(0.486064 -0.553301 0)
(0.495427 -0.544313 -1.43762e-21)
(0.504335 -0.535978 -1.30879e-19)
(0.512665 -0.528052 1.30686e-19)
(0.520776 -0.520762 2.623e-19)
(0.528531 -0.514022 2.60725e-19)
(0.535728 -0.507444 -7.55594e-22)
(0.54283 -0.501292 1.2892e-19)
(0.549807 -0.495606 1.28239e-19)
(0.556262 -0.490159 -1.27459e-19)
(0.562456 -0.485032 1.26568e-19)
(0.568675 -0.480221 1.25591e-19)
(0.574643 -0.475583 2.50535e-19)
(0.580342 -0.471243 -5.13703e-22)
(0.585846 -0.467048 3.68558e-19)
(0.591262 -0.463098 -9.33393e-22)
(0.596501 -0.459281 -1.201e-19)
(0.601898 -0.455599 -1.20638e-19)
(0.60578 -0.452551 1.17836e-19)
(0.608871 -0.44291 1.18349e-19)
(0.0123626 -0.2445 1.3371e-19)
(0.0988002 -0.633184 1.57502e-19)
(0.165727 -0.776671 8.36573e-20)
(0.198497 -0.817798 -8.67773e-20)
(0.226393 -0.819751 -1.44738e-19)
(0.253624 -0.805969 1.21206e-19)
(0.279313 -0.786492 0)
(0.303342 -0.765069 1.24695e-19)
(0.325308 -0.74321 0)
(0.345684 -0.721838 -2.58108e-19)
(0.364527 -0.701616 6.48041e-20)
(0.381915 -0.682566 -3.25902e-19)
(0.397938 -0.664725 -1.3138e-19)
(0.412743 -0.64803 6.31988e-20)
(0.426584 -0.632621 -2.8591e-22)
(0.439594 -0.618325 -6.52108e-20)
(0.451669 -0.605096 -1.30964e-19)
(0.462916 -0.592722 -2.6056e-19)
(0.473499 -0.581296 0)
(0.483565 -0.57075 -6.68509e-22)
(0.493003 -0.560965 -1.30348e-19)
(0.501863 -0.551651 -1.31008e-19)
(0.510521 -0.543098 1.3088e-19)
(0.518735 -0.535185 -1.31396e-19)
(0.526335 -0.527629 1.28911e-19)
(0.533796 -0.520651 -2.59275e-19)
(0.541108 -0.51408 -7.62644e-22)
(0.547918 -0.507777 -2.5718e-19)
(0.554437 -0.501914 -1.2824e-19)
(0.560848 -0.496449 8.14521e-22)
(0.567009 -0.491241 -5.27228e-22)
(0.572931 -0.48628 -1.25592e-19)
(0.578692 -0.48166 -1.24559e-19)
(0.584313 -0.477187 -1.34804e-21)
(0.589776 -0.472961 -1.22373e-19)
(0.595025 -0.46888 -1.41092e-21)
(0.600111 -0.465059 -1.18146e-19)
(0.605402 -0.461338 3.54192e-19)
(0.609079 -0.458254 -1.17837e-19)
(0.612 -0.448455 -1.18505e-19)
(0.0174033 -0.244365 -1.31396e-19)
(0.112654 -0.637613 3.36216e-20)
(0.182555 -0.784744 -8.64362e-20)
(0.216017 -0.828034 -2.84396e-20)
(0.243943 -0.83094 1.15598e-19)
(0.270679 -0.817864 -2.96308e-20)
(0.295358 -0.798491 3.00756e-20)
(0.318403 -0.7766 -1.86657e-19)
(0.339613 -0.754358 6.26813e-20)
(0.35923 -0.732811 1.2804e-19)
(0.377184 -0.712185 0)
(0.39369 -0.692535 2.56742e-19)
(0.409077 -0.6743 0)
(0.423361 -0.657367 -2.57163e-19)
(0.43654 -0.641621 -1.27747e-19)
(0.448825 -0.626823 0)
(0.460436 -0.613254 0)
(0.471362 -0.600727 2.57794e-19)
(0.481386 -0.589071 1.2905e-19)
(0.49082 -0.578133 -2.58174e-19)
(0.500073 -0.568211 1.29042e-19)
(0.508789 -0.558913 0)
(0.51681 -0.550041 -1.28848e-19)
(0.524682 -0.541916 2.55837e-19)
(0.532312 -0.534341 -1.28264e-19)
(0.539411 -0.527147 -1.27886e-19)
(0.546307 -0.52041 1.27445e-19)
(0.553075 -0.514079 0)
(0.559481 -0.5081 2.51957e-19)
(0.565523 -0.502516 -1.25651e-19)
(0.571461 -0.497267 -1.24482e-19)
(0.577292 -0.492238 3.91383e-22)
(0.582955 -0.487497 4.89624e-19)
(0.588414 -0.482967 -3.65556e-19)
(0.593698 -0.478688 0)
(0.598856 -0.474592 -1.19831e-19)
(0.603807 -0.470713 -2.35388e-19)
(0.608961 -0.466965 1.16478e-19)
(0.612442 -0.463831 1.14754e-19)
(0.615183 -0.453863 0)
(0.0222737 -0.244186 -2.61906e-19)
(0.126368 -0.642065 -3.30878e-20)
(0.199754 -0.792134 2.19834e-19)
(0.234261 -0.837378 -2.17335e-19)
(0.261824 -0.841642 0)
(0.287841 -0.829131 0)
(0.311968 -0.809574 -5.9728e-20)
(0.334272 -0.787612 -4.50017e-22)
(0.354336 -0.765243 6.16757e-20)
(0.372883 -0.743118 0)
(0.390209 -0.721971 0)
(0.406084 -0.70214 -6.43129e-20)
(0.420545 -0.683585 -2.69924e-22)
(0.433981 -0.666078 6.41472e-20)
(0.446758 -0.65001 1.27747e-19)
(0.458639 -0.635099 0)
(0.469454 -0.621196 1.27364e-19)
(0.47971 -0.608224 -1.28154e-19)
(0.489579 -0.596457 -2.55566e-19)
(0.498644 -0.585459 2.55729e-19)
(0.507093 -0.575164 1.41665e-23)
(0.515562 -0.565711 -1.27693e-19)
(0.523605 -0.556801 1.27555e-19)
(0.530967 -0.548451 -2.55224e-19)
(0.538115 -0.540736 0)
(0.545155 -0.533453 1.26638e-19)
(0.551919 -0.526555 -2.52429e-19)
(0.558307 -0.520138 1.25746e-19)
(0.564427 -0.514147 -1.25742e-19)
(0.570364 -0.508468 -1.24294e-19)
(0.576154 -0.50306 -1.23036e-19)
(0.581766 -0.498001 4.9018e-19)
(0.587216 -0.493193 -3.65433e-19)
(0.592569 -0.48864 -2.40221e-19)
(0.597746 -0.48427 2.38846e-19)
(0.602749 -0.480155 0)
(0.607559 -0.476254 2.32843e-19)
(0.61259 -0.472452 -2.31386e-19)
(0.615874 -0.469274 -1.14755e-19)
(0.618391 -0.459169 0)
(0.0273132 -0.244142 5.45327e-19)
(0.140598 -0.645868 2.05485e-19)
(0.217314 -0.79887 -2.19833e-19)
(0.252576 -0.846368 1.9037e-19)
(0.280178 -0.851663 -2.79818e-20)
(0.305825 -0.839446 5.63991e-20)
(0.328899 -0.820055 0)
(0.350097 -0.79807 -6.00061e-20)
(0.369566 -0.775337 6.07021e-20)
(0.387382 -0.752885 6.15688e-20)
(0.403498 -0.731471 -6.21047e-20)
(0.418384 -0.711176 -6.22107e-20)
(0.432448 -0.692177 6.25989e-20)
(0.445293 -0.67444 0)
(0.457043 -0.658083 0)
(0.468278 -0.642789 -1.2571e-19)
(0.478946 -0.628669 1.26004e-19)
(0.488638 -0.615544 -1.26456e-19)
(0.497614 -0.603526 1.26557e-19)
(0.506418 -0.592418 1.26713e-19)
(0.514724 -0.581891 -2.53298e-19)
(0.522592 -0.572161 2.53023e-19)
(0.530176 -0.563243 2.78252e-23)
(0.537412 -0.554822 -1.2606e-19)
(0.54435 -0.546848 0)
(0.550999 -0.539444 1.2552e-19)
(0.557443 -0.532572 6.32967e-23)
(0.563676 -0.526078 -1.24673e-19)
(0.569627 -0.519919 0)
(0.575321 -0.51416 2.4663e-19)
(0.580859 -0.508753 -2.45455e-19)
(0.58631 -0.50364 0)
(0.591637 -0.498735 2.40538e-19)
(0.596828 -0.49411 -2.39213e-19)
(0.601841 -0.489736 0)
(0.60669 -0.485599 0)
(0.611392 -0.481653 0)
(0.616294 -0.4778 -2.27878e-19)
(0.619346 -0.474607 2.26418e-19)
(0.621621 -0.464385 2.27955e-19)
(0.0322559 -0.243799 -2.55838e-19)
(0.154691 -0.649235 -2.38052e-19)
(0.235097 -0.805192 -2.62814e-20)
(0.271587 -0.854586 7.97717e-20)
(0.298942 -0.860827 -1.08411e-19)
(0.323871 -0.849261 1.11618e-19)
(0.346353 -0.830019 -1.14878e-19)
(0.366721 -0.807672 -1.75312e-19)
(0.384954 -0.784683 0)
(0.401746 -0.762182 -6.06658e-20)
(0.417347 -0.740433 6.1194e-20)
(0.431473 -0.719613 0)
(0.444373 -0.700294 1.23153e-19)
(0.45646 -0.682414 -1.23787e-19)
(0.467918 -0.665715 -3.70527e-19)
(0.478479 -0.649984 -9.63306e-23)
(0.488215 -0.635686 2.49688e-19)
(0.497524 -0.622623 -1.25131e-19)
(0.506222 -0.610295 0)
(0.514454 -0.598839 0)
(0.522249 -0.588331 2.50007e-19)
(0.529781 -0.578526 1.25381e-19)
(0.537081 -0.569324 -1.25174e-19)
(0.543988 -0.560743 -1.25021e-19)
(0.550582 -0.552774 2.49493e-19)
(0.556959 -0.545328 -1.24419e-19)
(0.563179 -0.538301 2.48422e-19)
(0.569171 -0.531679 -4.95058e-19)
(0.574868 -0.525503 4.93003e-19)
(0.580335 -0.519728 -4.90301e-19)
(0.585703 -0.514262 4.86932e-19)
(0.590987 -0.50904 -4.83026e-19)
(0.596128 -0.504109 2.39833e-19)
(0.60113 -0.499465 2.36599e-19)
(0.605997 -0.495072 -1.09732e-21)
(0.610718 -0.490887 -1.21143e-21)
(0.615296 -0.486899 -2.30141e-19)
(0.620051 -0.483022 -3.05963e-23)
(0.622855 -0.479824 -2.24495e-19)
(0.624877 -0.469498 0)
(0.0373239 -0.243682 3.12996e-20)
(0.169162 -0.652328 -2.73317e-20)
(0.253118 -0.810672 7.95906e-20)
(0.290684 -0.862077 -1.04687e-19)
(0.318126 -0.869538 5.29692e-20)
(0.342572 -0.858311 0)
(0.364117 -0.839054 0)
(0.383456 -0.816786 2.3389e-19)
(0.400853 -0.79368 2.93971e-19)
(0.416707 -0.770672 -5.97696e-20)
(0.431224 -0.748501 2.99881e-19)
(0.444536 -0.727672 -6.0693e-20)
(0.456853 -0.708133 0)
(0.468124 -0.689703 0)
(0.478717 -0.672699 2.46563e-19)
(0.488766 -0.657045 0)
(0.497944 -0.642463 1.22523e-19)
(0.506606 -0.629015 -1.23254e-19)
(0.514803 -0.616627 0)
(0.522618 -0.60514 -2.48025e-19)
(0.530037 -0.594447 -1.25542e-19)
(0.537176 -0.584425 -3.72023e-19)
(0.544072 -0.575118 -1.24208e-19)
(0.550649 -0.566499 1.23941e-19)
(0.556966 -0.558445 2.46843e-19)
(0.563064 -0.550878 0)
(0.569011 -0.543772 2.46067e-19)
(0.574744 -0.537111 4.91581e-19)
(0.580203 -0.530902 -5.1128e-23)
(0.585456 -0.525076 -2.4394e-19)
(0.590636 -0.51955 -2.4182e-19)
(0.595731 -0.514282 2.40603e-19)
(0.600681 -0.509326 2.37639e-19)
(0.605515 -0.504659 -4.71637e-19)
(0.610229 -0.500231 4.66787e-19)
(0.61481 -0.496007 -2.3125e-19)
(0.619257 -0.491987 2.2879e-19)
(0.623853 -0.4881 4.50721e-19)
(0.626396 -0.484912 2.21596e-19)
(0.628122 -0.474505 2.23701e-19)
(0.0423421 -0.243339 -2.42848e-19)
(0.183697 -0.654934 2.03958e-19)
(0.271468 -0.815758 -1.49281e-19)
(0.310211 -0.868936 1.50813e-19)
(0.337584 -0.877313 2.59239e-19)
(0.36148 -0.866604 -2.14335e-19)
(0.382307 -0.847609 2.77453e-19)
(0.400669 -0.8252 1.70421e-19)
(0.416976 -0.801804 -4.08048e-19)
(0.431898 -0.778665 1.16596e-19)
(0.445529 -0.756214 5.64569e-20)
(0.45787 -0.734975 1.19623e-19)
(0.469368 -0.715174 1.18822e-19)
(0.480009 -0.696691 -2.40338e-19)
(0.489839 -0.679384 2.41595e-19)
(0.499203 -0.663475 3.65146e-19)
(0.507826 -0.648777 -3.68826e-19)
(0.515879 -0.635164 4.92585e-19)
(0.523537 -0.622611 2.45893e-19)
(0.530919 -0.610987 3.71547e-19)
(0.537949 -0.600183 1.22572e-19)
(0.544697 -0.590069 2.47695e-19)
(0.551209 -0.580671 -2.45722e-19)
(0.557444 -0.571963 0)
(0.56346 -0.563831 -7.38573e-19)
(0.569269 -0.556193 4.91578e-19)
(0.574943 -0.549024 -2.4563e-19)
(0.580418 -0.54233 -2.45194e-19)
(0.585625 -0.536092 -3.03181e-22)
(0.590659 -0.530227 0)
(0.595653 -0.524627 0)
(0.600568 -0.519321 2.39026e-19)
(0.60531 -0.514356 -2.36727e-19)
(0.609956 -0.50968 2.35423e-19)
(0.614525 -0.50521 -2.31904e-19)
(0.618972 -0.500938 -2.2956e-19)
(0.623271 -0.496906 0)
(0.627684 -0.493037 -2.25371e-19)
(0.629955 -0.489856 -2.23278e-19)
(0.631358 -0.479368 -6.72453e-19)
(0.0474264 -0.243044 2.47454e-19)
(0.198352 -0.657078 -1.95949e-19)
(0.289971 -0.820129 2.04303e-19)
(0.330026 -0.875114 -3.50133e-19)
(0.357468 -0.884511 -2.58367e-19)
(0.380729 -0.874153 2.14335e-19)
(0.400703 -0.855283 -4.39587e-19)
(0.41817 -0.832932 -2.27263e-19)
(0.433455 -0.809365 2.89203e-19)
(0.447352 -0.785946 -5.24351e-19)
(0.46007 -0.763245 -3.54067e-19)
(0.471503 -0.741829 -1.16966e-19)
(0.482066 -0.721713 -3.58118e-19)
(0.492013 -0.703048 3.59877e-19)
(0.501174 -0.685576 -2.41597e-19)
(0.509789 -0.669479 -2.42962e-19)
(0.51783 -0.654678 0)
(0.525356 -0.640923 -2.4531e-19)
(0.532442 -0.628214 -3.68418e-19)
(0.539313 -0.616481 1.22537e-19)
(0.545952 -0.605581 -2.46031e-19)
(0.552347 -0.595386 0)
(0.558473 -0.585925 2.45725e-19)
(0.564341 -0.577151 2.45156e-19)
(0.570048 -0.568932 -2.43426e-19)
(0.575583 -0.561228 0)
(0.580968 -0.55403 0)
(0.586164 -0.547333 0)
(0.591126 -0.541054 -5.847e-22)
(0.595966 -0.535119 0)
(0.600769 -0.529475 -4.80715e-19)
(0.605457 -0.524181 2.23482e-23)
(0.609985 -0.519227 -4.72834e-19)
(0.614469 -0.514505 4.68792e-19)
(0.618906 -0.509976 -2.3255e-19)
(0.623194 -0.50569 2.29701e-19)
(0.627313 -0.501685 0)
(0.631548 -0.497826 4.46745e-19)
(0.633564 -0.494603 -2.21339e-19)
(0.634653 -0.484028 0)
(0.0525211 -0.242675 3.00089e-20)
(0.213138 -0.658809 0)
(0.308681 -0.823897 -2.46455e-19)
(0.350041 -0.880525 2.97895e-19)
(0.37763 -0.890951 1.50373e-19)
(0.400355 -0.881028 -2.0811e-19)
(0.419404 -0.862258 2.18234e-19)
(0.435885 -0.839893 -2.21294e-19)
(0.450186 -0.816188 0)
(0.463074 -0.792566 2.31622e-19)
(0.474783 -0.769643 -2.31151e-19)
(0.485351 -0.748128 2.48387e-21)
(0.495037 -0.727758 0)
(0.504155 -0.708852 2.35752e-19)
(0.512629 -0.691284 -1.17997e-19)
(0.520528 -0.675038 2.39462e-19)
(0.527951 -0.660103 1.2006e-19)
(0.534958 -0.646277 -2.41715e-19)
(0.541504 -0.63348 0)
(0.54785 -0.621613 3.64551e-19)
(0.554055 -0.610603 1.2114e-19)
(0.560068 -0.600369 0)
(0.565825 -0.590875 0)
(0.571356 -0.582014 0)
(0.576748 -0.573712 2.44346e-19)
(0.581969 -0.565997 0)
(0.587052 -0.558815 -2.44186e-19)
(0.591987 -0.552083 4.86969e-19)
(0.596735 -0.545748 -4.85765e-19)
(0.601354 -0.539779 0)
(0.605928 -0.534156 2.40458e-19)
(0.610395 -0.528869 -2.38737e-19)
(0.614743 -0.523874 2.36632e-19)
(0.619073 -0.519098 0)
(0.623344 -0.514558 0)
(0.627444 -0.510303 2.28813e-19)
(0.631395 -0.506305 -2.27419e-19)
(0.635486 -0.502402 4.45467e-19)
(0.637255 -0.499119 -4.42613e-19)
(0.638034 -0.488521 0)
(0.0576189 -0.242211 2.1023e-19)
(0.227991 -0.660066 5.95178e-20)
(0.327584 -0.827074 1.97477e-19)
(0.370289 -0.885225 1.92176e-19)
(0.398004 -0.896587 -2.00722e-19)
(0.420235 -0.887136 2.0811e-19)
(0.438407 -0.868542 2.12482e-19)
(0.453876 -0.846134 2.21295e-19)
(0.467128 -0.822268 0)
(0.479005 -0.798523 2.26427e-19)
(0.489672 -0.775422 2.31152e-19)
(0.499324 -0.753773 2.32852e-19)
(0.508208 -0.733274 0)
(0.516475 -0.714173 -1.98753e-21)
(0.524213 -0.696492 2.37373e-19)
(0.531409 -0.680125 -1.19722e-19)
(0.538166 -0.665088 -1.21241e-19)
(0.544635 -0.651215 3.62302e-19)
(0.550697 -0.638353 2.34751e-22)
(0.556536 -0.626378 -1.22283e-19)
(0.562256 -0.615293 -2.42866e-19)
(0.567856 -0.605025 0)
(0.573267 -0.595479 0)
(0.578474 -0.586555 0)
(0.583525 -0.578242 0)
(0.588409 -0.570539 0)
(0.593213 -0.563343 0)
(0.597902 -0.556559 2.43659e-19)
(0.602413 -0.550205 -2.42646e-19)
(0.606795 -0.544247 0)
(0.611145 -0.538623 0)
(0.615415 -0.533306 2.38741e-19)
(0.619581 -0.528277 0)
(0.623728 -0.523502 2.34312e-19)
(0.627812 -0.518985 -2.32972e-19)
(0.631738 -0.514733 0)
(0.635551 -0.510694 4.53055e-19)
(0.639502 -0.506749 -4.50221e-19)
(0.640995 -0.503474 0)
(0.641443 -0.492956 0)
(0.0627434 -0.241687 -2.35263e-19)
(0.242903 -0.660868 -5.03888e-20)
(0.346638 -0.829627 5.15935e-20)
(0.390763 -0.889223 -1.92177e-19)
(0.418597 -0.901465 0)
(0.440311 -0.892448 0)
(0.457619 -0.874048 -1.59298e-19)
(0.472114 -0.851645 -5.38895e-20)
(0.48429 -0.827656 -1.11214e-19)
(0.495117 -0.803808 -1.14091e-19)
(0.50475 -0.780596 -1.13871e-19)
(0.513408 -0.75878 1.14716e-19)
(0.521486 -0.738196 1.14519e-19)
(0.528939 -0.718974 -1.17483e-19)
(0.535922 -0.701201 0)
(0.542417 -0.684764 0)
(0.548482 -0.669644 -2.38882e-19)
(0.554373 -0.655711 0)
(0.55997 -0.642801 0)
(0.565333 -0.630773 2.3991e-19)
(0.570558 -0.619641 5.45751e-22)
(0.575726 -0.609337 3.81271e-23)
(0.580781 -0.599755 -2.42501e-19)
(0.585653 -0.590814 2.41979e-19)
(0.590366 -0.582512 2.4317e-19)
(0.594926 -0.574806 -2.43714e-19)
(0.599448 -0.567579 0)
(0.603887 -0.560779 2.44006e-19)
(0.608148 -0.554427 4.27275e-22)
(0.612297 -0.54847 -2.4233e-19)
(0.616428 -0.542828 0)
(0.620497 -0.537504 0)
(0.624465 -0.532487 2.37429e-19)
(0.628421 -0.527727 -2.36121e-19)
(0.63233 -0.523199 -2.33046e-19)
(0.636102 -0.518918 2.31668e-19)
(0.639773 -0.514856 0)
(0.643549 -0.51094 0)
(0.644731 -0.507737 0)
(0.64483 -0.497357 -2.27498e-19)
(0.0678854 -0.241087 2.82496e-19)
(0.257873 -0.661239 -1.07565e-19)
(0.365818 -0.83155 5.08446e-20)
(0.411432 -0.89251 0)
(0.439402 -0.905599 2.41289e-19)
(0.460584 -0.896983 1.06548e-21)
(0.476993 -0.878753 2.08258e-19)
(0.490516 -0.856376 -1.61169e-19)
(0.501634 -0.832345 2.19249e-19)
(0.511368 -0.808406 -1.11185e-19)
(0.519995 -0.785154 0)
(0.527635 -0.76319 1.13853e-19)
(0.534844 -0.742511 -3.44774e-19)
(0.541483 -0.723217 0)
(0.547708 -0.705398 3.49142e-19)
(0.553526 -0.688939 -2.33725e-19)
(0.55891 -0.673761 -2.36639e-19)
(0.564179 -0.659759 1.18766e-19)
(0.569287 -0.646814 0)
(0.574199 -0.634774 -2.40296e-19)
(0.578941 -0.623625 -2.40809e-19)
(0.58366 -0.613301 -6.87733e-22)
(0.588347 -0.603703 2.4166e-19)
(0.592883 -0.594768 2.43153e-19)
(0.597257 -0.586479 -4.85691e-19)
(0.601506 -0.578778 2.43718e-19)
(0.605747 -0.571543 0)
(0.609929 -0.564749 -2.44894e-19)
(0.613943 -0.558403 2.44747e-19)
(0.617859 -0.552443 2.44178e-19)
(0.621768 -0.546806 -2.4319e-19)
(0.625625 -0.5415 2.4184e-19)
(0.629398 -0.536495 0)
(0.633173 -0.531719 2.36928e-19)
(0.636913 -0.527165 4.70373e-19)
(0.640518 -0.522879 -4.66785e-19)
(0.64402 -0.518851 4.594e-19)
(0.647591 -0.515 -3.43529e-21)
(0.648451 -0.511856 -2.24767e-19)
(0.648208 -0.501619 4.58526e-19)
(0.0730431 -0.240398 -1.7686e-19)
(0.272897 -0.661178 -3.13539e-19)
(0.385103 -0.832841 1.90009e-19)
(0.432258 -0.895079 -1.37076e-19)
(0.460378 -0.908968 -5.07524e-20)
(0.481037 -0.900743 4.91252e-20)
(0.49653 -0.882685 -1.03389e-19)
(0.509031 -0.860315 -1.05282e-19)
(0.519101 -0.836298 1.09008e-19)
(0.527714 -0.812297 -2.20779e-19)
(0.535341 -0.789053 -3.05278e-22)
(0.541998 -0.767004 1.12771e-19)
(0.548297 -0.74624 0)
(0.554088 -0.726901 -1.15052e-19)
(0.559528 -0.709065 -1.16797e-19)
(0.564684 -0.692617 2.34313e-19)
(0.569435 -0.677425 0)
(0.574067 -0.663376 0)
(0.578638 -0.650407 2.38548e-19)
(0.583097 -0.638375 -2.38577e-19)
(0.587386 -0.62724 0)
(0.591657 -0.616919 2.41422e-19)
(0.595953 -0.607328 -2.40239e-19)
(0.600145 -0.598417 -4.85445e-19)
(0.604191 -0.590156 -1.60541e-21)
(0.608132 -0.582474 2.43958e-19)
(0.612096 -0.575254 -4.90107e-19)
(0.616021 -0.568472 2.44898e-19)
(0.619795 -0.562134 -2.44751e-19)
(0.623478 -0.556184 8.56236e-22)
(0.62716 -0.550568 -6.77312e-22)
(0.630806 -0.545278 -2.41844e-19)
(0.634394 -0.540265 -2.42483e-19)
(0.637992 -0.535467 -2.40862e-19)
(0.641549 -0.53091 2.6942e-21)
(0.644963 -0.526654 0)
(0.648279 -0.522668 -2.34699e-19)
(0.65164 -0.518851 4.58368e-19)
(0.652175 -0.515718 -6.80855e-19)
(0.651615 -0.505645 1.3321e-21)
(0.0782227 -0.23962 -5.63169e-20)
(0.287976 -0.660687 4.12211e-19)
(0.404477 -0.833498 -1.8596e-19)
(0.453211 -0.89692 1.38138e-19)
(0.481481 -0.911549 -3.78377e-19)
(0.501615 -0.903702 4.85317e-20)
(0.516216 -0.885852 -2.02701e-19)
(0.52765 -0.86348 0)
(0.536652 -0.839503 0)
(0.544125 -0.815481 -2.1816e-19)
(0.550724 -0.792255 1.1108e-19)
(0.556435 -0.770188 -7.63204e-22)
(0.561833 -0.749397 1.1291e-19)
(0.566763 -0.730051 0)
(0.571374 -0.712209 -3.45306e-19)
(0.575845 -0.695786 1.15877e-19)
(0.580005 -0.680624 -2.33906e-19)
(0.58403 -0.666571 0)
(0.588036 -0.653596 0)
(0.592017 -0.641588 7.28839e-22)
(0.595864 -0.630498 -2.39129e-19)
(0.599697 -0.620207 2.41107e-19)
(0.603595 -0.610644 -2.42943e-19)
(0.60743 -0.601765 2.42421e-19)
(0.611149 -0.593546 3.17464e-22)
(0.61479 -0.585893 3.92234e-22)
(0.618481 -0.578697 2.45715e-19)
(0.622155 -0.571933 -2.47716e-19)
(0.625693 -0.565617 0)
(0.629144 -0.559693 -2.47036e-19)
(0.6326 -0.554105 2.45859e-19)
(0.636045 -0.548824 0)
(0.639456 -0.543801 2.42488e-19)
(0.642874 -0.538993 -2.43405e-19)
(0.646234 -0.534447 2.42416e-19)
(0.649445 -0.530213 0)
(0.652577 -0.526235 7.06103e-19)
(0.655729 -0.522417 -4.68449e-19)
(0.655922 -0.519273 0)
(0.655069 -0.509429 2.34906e-19)
(0.0834185 -0.238743 4.43072e-19)
(0.303099 -0.659764 -2.04813e-19)
(0.423921 -0.833517 -4.49155e-20)
(0.474268 -0.898026 4.58758e-20)
(0.502686 -0.913342 1.87633e-19)
(0.52226 -0.905848 0)
(0.535989 -0.888224 2.02703e-19)
(0.54635 -0.865875 3.0953e-19)
(0.554255 -0.841959 1.05954e-19)
(0.56059 -0.81797 1.0926e-19)
(0.566119 -0.79476 1.09852e-19)
(0.570877 -0.772718 -3.3485e-19)
(0.575394 -0.751966 1.12193e-19)
(0.579491 -0.732665 4.53e-19)
(0.58326 -0.714839 1.14817e-19)
(0.586994 -0.698446 1.15355e-19)
(0.59057 -0.683344 2.3391e-19)
(0.59403 -0.669336 0)
(0.597469 -0.656388 0)
(0.600946 -0.644423 4.77755e-19)
(0.604352 -0.63339 -9.60028e-19)
(0.60776 -0.62315 -6.36003e-22)
(0.611255 -0.613629 0)
(0.614725 -0.604795 0)
(0.618115 -0.596622 2.45071e-19)
(0.62146 -0.589013 0)
(0.624882 -0.581858 0)
(0.628311 -0.575134 -2.51608e-19)
(0.631619 -0.568857 -5.0048e-19)
(0.634846 -0.562972 0)
(0.638085 -0.557414 -5.00424e-19)
(0.64134 -0.552141 -9.95514e-19)
(0.644582 -0.547108 4.93594e-19)
(0.647822 -0.542293 -4.95686e-19)
(0.650983 -0.537754 4.88489e-19)
(0.653994 -0.533528 -4.856e-19)
(0.656947 -0.529535 -4.85921e-19)
(0.659882 -0.525703 0)
(0.659711 -0.522553 0)
(0.658587 -0.513007 0)
(0.0886178 -0.237757 -4.43075e-19)
(0.318251 -0.658402 0)
(0.44341 -0.832889 0)
(0.495392 -0.89839 0)
(0.523974 -0.914356 0)
(0.542953 -0.907191 0)
(0.555789 -0.889774 1.00767e-19)
(0.565085 -0.867496 -5.16374e-19)
(0.571869 -0.843662 -3.15247e-19)
(0.577084 -0.819762 -1.07345e-19)
(0.581528 -0.796591 0)
(0.585295 -0.774599 4.41361e-19)
(0.588918 -0.75393 1.12098e-19)
(0.592221 -0.734722 -1.01673e-18)
(0.595181 -0.716956 0)
(0.598136 -0.700615 -4.60661e-19)
(0.601095 -0.685591 0)
(0.604021 -0.671658 4.69285e-19)
(0.606914 -0.658765 0)
(0.609873 -0.646862 -4.77329e-19)
(0.612826 -0.635902 2.38906e-19)
(0.61582 -0.625734 7.26012e-19)