/*--------------------------------*- C++ -*----------------------------------*\
  =========                 |
  \\      /  F ield         | OpenFOAM: The Open Source CFD Toolbox
   \\    /   O peration     | Website:  https://openfoam.org
    \\  /    A nd           | Version:  7
     \\/     M anipulation  |
\*---------------------------------------------------------------------------*/
FoamFile
{
    version     2.0;
    format      ascii;
    class       volScalarField;
    location    "0.3375";
    object      p;
}
// * * * * * * * * * * * * * * * * * * * * * * * * * * * * * * * * * * * * * //

dimensions      [0 2 -2 0 0 0 0];

internalField   nonuniform List<scalar> 
400
(
4.52643e-06
-0.00589897
-0.0130491
-0.018494
-0.0205163
-0.0183241
-0.0118538
-0.00155187
0.0117854
0.0271162
0.0432316
0.0588298
0.0726024
0.0833448
0.0900954
0.0923087
0.0900644
0.0842918
0.0768995
0.0710268
0.00582938
-0.000242149
-0.00577602
-0.00948876
-0.0105368
-0.00836982
-0.00291428
0.00551489
0.0163228
0.0287069
0.0417185
0.0543292
0.0655075
0.0743147
0.0800168
0.082213
0.0809841
0.0769891
0.0712585
0.0652425
0.0133964
0.00496394
-0.0010095
-0.00442602
-0.00527876
-0.00327073
0.00159437
0.00901716
0.0184882
0.0293314
0.0407432
0.051843
0.0617379
0.0696028
0.0747721
0.0768424
0.0758038
0.0720602
0.0658345
0.0574374
0.020207
0.00859464
0.00120387
-0.00267756
-0.00373681
-0.00190138
0.00271487
0.00976734
0.0187621
0.0290755
0.0399711
0.0506317
0.060209
0.0678907
0.0729773
0.0749744
0.0737337
0.069438
0.0616648
0.0499994
0.0245935
0.00964748
0.000571363
-0.00398733
-0.00530948
-0.00351622
0.00116496
0.00832272
0.0174474
0.0279314
0.039064
0.0500454
0.0600208
0.0681341
0.0735938
0.0757633
0.0743279
0.0692683
0.0596148
0.0444108
0.0252986
0.00699975
-0.00381782
-0.00905074
-0.0105145
-0.00850451
-0.00336255
0.00442104
0.0143015
0.0256633
0.0377938
0.0498787
0.0610189
0.0702699
0.0766988
0.0794777
0.0780903
0.0723095
0.060658
0.0417332
0.0212467
-0.000437002
-0.0129462
-0.0186946
-0.0200265
-0.0174136
-0.0113197
-0.00232414
0.00898196
0.0219632
0.0358916
0.0499208
0.0630828
0.0743104
0.0824829
0.0865251
0.0856629
0.0794187
0.0657705
0.0428787
0.0113342
-0.0138164
-0.0278794
-0.033828
-0.0345919
-0.0308502
-0.023208
-0.0123442
0.00110112
0.0164749
0.0330375
0.0499119
0.0660542
0.0802531
0.0911576
0.0973782
0.0977993
0.0915993
0.0760795
0.0488776
-0.00572826
-0.0344877
-0.0498627
-0.0555069
-0.0550675
-0.0494984
-0.0395809
-0.0261056
-0.00975485
0.00881923
0.0288904
0.0495749
0.0697695
0.0881164
0.103
0.11264
0.115462
0.110141
0.0930521
0.061111
-0.0315558
-0.0641194
-0.080392
-0.0849454
-0.0823838
-0.0740516
-0.0609594
-0.0440212
-0.0239423
-0.00133424
0.0231408
0.0486472
0.0740705
0.0979339
0.118344
0.133053
0.139876
0.136744
0.118693
0.0815471
-0.0682796
-0.104866
-0.121294
-0.123503
-0.117463
-0.105088
-0.0876875
-0.0663021
-0.0416204
-0.0141457
0.015608
0.0469461
0.078836
0.109757
0.137569
0.159501
0.172583
0.17367
0.155803
0.113059
-0.118892
-0.159634
-0.174829
-0.17264
-0.161079
-0.14288
-0.11972
-0.0927466
-0.062554
-0.0294302
0.00638404
0.0444754
0.0840438
0.123673
0.161082
0.19299
0.215489
0.22392
0.208351
0.159938
-0.187944
-0.23252
-0.243807
-0.233799
-0.213613
-0.187098
-0.156329
-0.122466
-0.0858694
-0.0464479
-0.00399452
0.0415518
0.0898433
0.139811
0.189272
0.234589
0.270861
0.291446
0.282031
0.228819
-0.283062
-0.329539
-0.331641
-0.308109
-0.274625
-0.236386
-0.195723
-0.153577
-0.109811
-0.0637164
-0.0144092
0.03889
0.0965737
0.15828
0.222349
0.285201
0.341165
0.38128
0.385111
0.330526
-0.418185
-0.459745
-0.442071
-0.395625
-0.342071
-0.287707
-0.234592
-0.182909
-0.131586
-0.0789559
-0.0231778
0.0375182
0.104599
0.178877
0.259881
0.344932
0.428406
0.499309
0.529619
0.483717
-0.619424
-0.636579
-0.578331
-0.49408
-0.411225
-0.335653
-0.267775
-0.205967
-0.147522
-0.0893551
-0.0283845
0.0384055
0.113877
0.200551
0.300049
0.412062
0.532935
0.651424
0.732444
0.720597
-0.935597
-0.878178
-0.74168
-0.598053
-0.474387
-0.372623
-0.288842
-0.217737
-0.153923
-0.0924268
-0.0286746
0.0417536
0.123337
0.220802
0.339003
0.482244
0.652266
0.84165
1.01496
1.09628
-1.48059
-1.20196
-0.920997
-0.692544
-0.517674
-0.387698
-0.290191
-0.213422
-0.148159
-0.0872072
-0.0245259
0.045561
0.129103
0.233299
0.367363
0.543123
0.772631
1.06029
1.39819
1.73407
-2.57157
-1.60192
-1.04347
-0.714826
-0.497795
-0.353383
-0.255526
-0.18428
-0.126593
-0.0737812
-0.0192075
0.0430669
0.119764
0.219653
0.356006
0.549823
0.829814
1.23507
1.88111
2.95926
-4.4451
-2.01726
-0.969793
-0.564335
-0.357042
-0.239031
-0.169353
-0.123294
-0.0871816
-0.0533667
-0.016675
0.0275157
0.0843002
0.161195
0.271579
0.441364
0.718806
1.2215
2.38403
4.92939
)
;

boundaryField
{
    movingWall
    {
        type            zeroGradient;
    }
    fixedWalls
    {
        type            zeroGradient;
    }
    frontAndBack
    {
        type            empty;
    }
}


// ************************************************************************* //
