/*--------------------------------*- C++ -*----------------------------------*\
  =========                 |
  \\      /  F ield         | OpenFOAM: The Open Source CFD Toolbox
   \\    /   O peration     | Website:  https://openfoam.org
    \\  /    A nd           | Version:  7
     \\/     M anipulation  |
\*---------------------------------------------------------------------------*/
FoamFile
{
    version     2.0;
    format      ascii;
    class       surfaceScalarField;
    location    "0.2375";
    object      phi;
}
// * * * * * * * * * * * * * * * * * * * * * * * * * * * * * * * * * * * * * //

dimensions      [0 3 -1 0 0 0 0];

internalField   nonuniform List<scalar> 
760
(
1.42646e-08
-1.42979e-08
-2.23553e-08
3.66199e-08
-1.14285e-07
9.193e-08
-2.45422e-07
1.31137e-07
-3.95989e-07
1.50567e-07
-5.47235e-07
1.51246e-07
-6.83041e-07
1.35807e-07
-7.90497e-07
1.07456e-07
-8.60028e-07
6.95315e-08
-8.85455e-07
2.54264e-08
-8.64133e-07
-2.13223e-08
-7.97208e-07
-6.69249e-08
-6.89918e-07
-1.0729e-07
-5.51825e-07
-1.38093e-07
-3.96822e-07
-1.55002e-07
-2.42675e-07
-1.54147e-07
-1.09759e-07
-1.32916e-07
-1.85779e-08
-9.11816e-08
1.57737e-08
-3.4352e-08
1.57735e-08
-3.43553e-08
2.00574e-08
-1.80423e-07
1.82687e-07
-4.34033e-07
3.4554e-07
-7.64329e-07
4.61433e-07
-1.1319e-06
5.18136e-07
-1.49671e-06
5.16062e-07
-1.82261e-06
4.61704e-07
-2.07965e-06
3.64496e-07
-2.24528e-06
2.35163e-07
-2.305e-06
8.51423e-08
-2.25287e-06
-7.34455e-08
-2.09211e-06
-2.27694e-07
-1.83546e-06
-3.63933e-07
-1.50544e-06
-4.68113e-07
-1.13372e-06
-5.26728e-07
-7.59391e-07
-5.28473e-07
-4.2544e-07
-4.66867e-07
-1.72743e-07
-3.43878e-07
-3.10003e-08
-1.76094e-07
-1.52271e-08
-9.20635e-08
1.12121e-07
-3.56865e-07
4.47489e-07
-7.64369e-07
7.53044e-07
-1.26814e-06
9.65204e-07
-1.81414e-06
1.06413e-06
-2.34826e-06
1.05018e-06
-2.82144e-06
9.34884e-07
-3.19277e-06
7.35833e-07
-3.43132e-06
4.7371e-07
-3.51717e-06
1.70987e-07
-3.44224e-06
-1.48375e-07
-3.211e-06
-4.5893e-07
-2.841e-06
-7.33935e-07
-2.3629e-06
-9.46209e-07
-1.81966e-06
-1.06997e-06
-1.26408e-06
-1.08406e-06
-7.54301e-07
-9.76641e-07
-3.46831e-07
-7.51348e-07
-8.71706e-08
-4.35754e-07
-1.02398e-07
-1.45081e-07
2.57202e-07
-5.25242e-07
8.2765e-07
-1.08127e-06
1.30907e-06
-1.74694e-06
1.63087e-06
-2.45352e-06
1.77071e-06
-3.13532e-06
1.73199e-06
-3.73402e-06
1.53358e-06
-4.20146e-06
1.20327e-06
-4.50134e-06
7.73594e-07
-4.61028e-06
2.79928e-07
-4.51861e-06
-2.40046e-07
-4.23116e-06
-7.46382e-07
-3.76793e-06
-1.19716e-06
-3.16441e-06
-1.54973e-06
-2.47091e-06
-1.76347e-06
-1.75039e-06
-1.80458e-06
-1.07408e-06
-1.65294e-06
-5.14893e-07
-1.31054e-06
-1.39173e-07
-8.11473e-07
-2.41571e-07
-1.93509e-07
4.50711e-07
-6.84736e-07
1.31888e-06
-1.38513e-06
2.00946e-06
-2.20647e-06
2.45222e-06
-3.06441e-06
2.62865e-06
-3.88245e-06
2.55002e-06
-4.59493e-06
2.24606e-06
-5.14881e-06
1.75715e-06
-5.50453e-06
1.12931e-06
-5.63652e-06
4.11919e-07
-5.53374e-06
-3.42831e-07
-5.20041e-06
-1.0797e-06
-4.65706e-06
-1.74051e-06
-3.94136e-06
-2.26543e-06
-3.1084e-06
-2.59643e-06
-2.22954e-06
-2.68344e-06
-1.38903e-06
-2.49346e-06
-6.78181e-07
-2.02139e-06
-1.87643e-07
-1.30201e-06
-4.29213e-07
-2.3983e-07
6.90541e-07
-8.40021e-07
1.91907e-06
-1.68266e-06
2.8521e-06
-2.65609e-06
3.42565e-06
-3.65953e-06
3.6321e-06
-4.60616e-06
3.49665e-06
-5.42448e-06
3.06439e-06
-6.05849e-06
2.39116e-06
-6.46712e-06
1.53794e-06
-6.62371e-06
5.68513e-07
-6.51594e-06
-4.50601e-07
-6.14646e-06
-1.44919e-06
-5.53432e-06
-2.35264e-06
-4.71693e-06
-3.08282e-06
-3.75179e-06
-3.56157e-06
-2.71721e-06
-3.71802e-06
-1.71071e-06
-3.49996e-06
-8.44236e-07
-2.88786e-06
-2.36025e-07
-1.91022e-06
-6.65238e-07
-2.866e-07
9.7714e-07
-9.96668e-07
2.62914e-06
-1.98129e-06
3.83673e-06
-3.10376e-06
4.54811e-06
-4.2464e-06
4.77473e-06
-5.31294e-06
4.56319e-06
-6.22797e-06
3.97942e-06
-6.93481e-06
3.098e-06
-7.39296e-06
1.99609e-06
-7.57597e-06
7.51527e-07
-7.47044e-06
-5.56131e-07
-7.0764e-06
-1.84323e-06
-6.40926e-06
-3.01979e-06
-5.50316e-06
-3.98892e-06
-4.41496e-06
-4.64977e-06
-3.22773e-06
-4.90526e-06
-2.05185e-06
-4.67583e-06
-1.02195e-06
-3.91776e-06
-2.88064e-07
-2.64411e-06
-9.53302e-07
-3.36131e-07
1.31327e-06
-1.15983e-06
3.45284e-06
-2.28703e-06
4.96393e-06
-3.55356e-06
5.81464e-06
-4.82479e-06
6.04597e-06
-5.99692e-06
5.73532e-06
-6.99364e-06
4.97614e-06
-7.76093e-06
3.86529e-06
-8.26172e-06
2.49689e-06
-8.47171e-06
9.61517e-07
-8.37696e-06
-6.50889e-07
-7.97383e-06
-2.24636e-06
-7.27154e-06
-3.72208e-06
-6.29706e-06
-4.9634e-06
-5.10209e-06
-5.84474e-06
-3.77042e-06
-6.23692e-06
-2.42341e-06
-6.02285e-06
-1.21993e-06
-5.12124e-06
-3.47392e-07
-3.51665e-06
-1.30069e-06
-3.90677e-07
1.70395e-06
-1.33417e-06
4.39633e-06
-2.60373e-06
6.23349e-06
-4.00421e-06
7.21512e-06
-5.3847e-06
7.42646e-06
-6.63736e-06
6.98798e-06
-7.68984e-06
6.02862e-06
-8.49572e-06
4.67116e-06
-9.02552e-06
3.02669e-06
-9.25988e-06
1.19588e-06
-9.18546e-06
-7.25312e-07
-8.79416e-06
-2.63766e-06
-8.08597e-06
-4.43027e-06
-7.07567e-06
-5.9737e-06
-5.80319e-06
-7.11721e-06
-4.34638e-06
-7.69374e-06
-2.83285e-06
-7.53638e-06
-1.44595e-06
-6.50814e-06
-4.17641e-07
-4.54495e-06
-1.71834e-06
-4.53058e-07
2.15701e-06
-1.52473e-06
5.468e-06
-2.93331e-06
7.64207e-06
-4.44804e-06
8.72985e-06
-5.90393e-06
8.88235e-06
-7.19524e-06
8.27929e-06
-8.26099e-06
7.09437e-06
-9.06932e-06
5.47949e-06
-9.60403e-06
3.5614e-06
-9.85461e-06
1.44646e-06
-9.81024e-06
-7.69676e-07
-9.45798e-06
-2.98992e-06
-8.78549e-06
-5.10275e-06
-7.78927e-06
-6.96993e-06
-6.48854e-06
-8.41794e-06
-4.94467e-06
-9.23761e-06
-3.28254e-06
-9.19851e-06
-1.70709e-06
-8.08359e-06
-5.02935e-07
-5.74911e-06
-2.22127e-06
-5.27797e-07
2.6848e-06
-1.73839e-06
6.67859e-06
-3.27598e-06
9.17966e-06
-4.86916e-06
1.0323e-05
-6.34435e-06
1.03575e-05
-7.60814e-06
9.54308e-06
-8.62172e-06
8.10795e-06
-9.37709e-06
6.23487e-06
-9.87838e-06
4.06269e-06
-1.01288e-05
1.69688e-06
-1.01228e-05
-7.75648e-07
-9.84307e-06
-3.26969e-06
-9.26236e-06
-5.68346e-06
-8.35237e-06
-7.87991e-06
-7.10057e-06
-9.66974e-06
-5.53675e-06
-1.08014e-05
-3.76741e-06
-1.09678e-05
-2.01002e-06
-9.84098e-06
-6.08799e-07
-7.15033e-06
-2.83007e-06
-6.2301e-07
3.30781e-06
-1.98575e-06
8.04133e-06
-3.62945e-06
1.08234e-05
-5.2391e-06
1.19327e-05
-6.64476e-06
1.17632e-05
-7.78186e-06
1.06802e-05
-8.64865e-06
8.97474e-06
-9.27215e-06
6.85837e-06
-9.68448e-06
4.47501e-06
-9.9077e-06
1.92011e-06
-9.9449e-06
-7.38457e-07
-9.77586e-06
-3.43873e-06
-9.35764e-06
-6.10168e-06
-8.6318e-06
-8.60575e-06
-7.5421e-06
-1.07594e-05
-6.06715e-06
-1.22764e-05
-4.27029e-06
-1.27647e-05
-2.36092e-06
-1.17504e-05
-7.43693e-07
-8.76755e-06
-3.57376e-06
-7.53529e-07
4.06134e-06
-2.28245e-06
9.57025e-06
-3.98414e-06
1.25251e-05
-5.50605e-06
1.34546e-05
-6.70688e-06
1.2964e-05
-7.57631e-06
1.15496e-05
-8.1683e-06
9.56672e-06
-8.55626e-06
7.24633e-06
-8.80659e-06
4.72534e-06
-8.96394e-06
2.07746e-06
-9.04307e-06
-6.59327e-07
-9.02404e-06
-3.45776e-06
-8.85027e-06
-6.27545e-06
-8.43172e-06
-9.0243e-06
-7.65901e-06
-1.15321e-05
-6.43755e-06
-1.34978e-05
-4.75191e-06
-1.44503e-05
-2.76369e-06
-1.37386e-05
-9.21482e-07
-1.06098e-05
-4.49524e-06
-9.45603e-07
5.00695e-06
-2.64684e-06
1.12715e-05
-4.30803e-06
1.41862e-05
-5.57041e-06
1.4717e-05
-6.36846e-06
1.37621e-05
-6.78181e-06
1.1963e-05
-6.93971e-06
9.72462e-06
-6.96947e-06
7.27609e-06
-6.97286e-06
4.72873e-06
-7.01671e-06
2.12132e-06
-7.12872e-06
-5.47323e-07
-7.29353e-06
-3.29294e-06
-7.44781e-06
-6.12118e-06
-7.47622e-06
-8.99589e-06
-7.21528e-06
-1.17931e-05
-6.47918e-06
-1.4234e-05
-5.12955e-06
-1.58e-05
-3.21253e-06
-1.56556e-05
-1.16472e-06
-1.26576e-05
-5.65996e-06
-1.24108e-06
6.24803e-06
-3.08338e-06
1.31138e-05
-4.50547e-06
1.56083e-05
-5.23252e-06
1.5444e-05
-5.35421e-06
1.38837e-05
-5.08174e-06
1.16905e-05
-4.63157e-06
9.27445e-06
-4.1805e-06
6.82503e-06
-3.85601e-06
4.40424e-06
-3.7389e-06
2.00421e-06
-3.86705e-06
-4.19175e-07
-4.23439e-06
-2.9256e-06
-4.78342e-06
-5.57214e-06
-5.39175e-06
-8.38756e-06
-5.85831e-06
-1.13265e-05
-5.90542e-06
-1.41868e-05
-5.23122e-06
-1.64742e-05
-3.66688e-06
-1.72199e-05
-1.5048e-06
-1.48197e-05
-7.16476e-06
-1.6869e-06
7.93492e-06
-3.51917e-06
1.49461e-05
-4.31568e-06
1.64048e-05
-4.08917e-06
1.52175e-05
-3.19424e-06
1.29888e-05
-2.00069e-06
1.0497e-05
-7.97719e-07
8.07148e-06
2.16256e-07
5.81105e-06
9.14815e-07
3.70568e-06
1.22193e-06
1.69709e-06
1.09819e-06
-2.95434e-07
5.37093e-07
-2.36451e-06
-4.26856e-07
-4.60819e-06
-1.69633e-06
-7.11808e-06
-3.07595e-06
-9.94689e-06
-4.23416e-06
-1.30286e-05
-4.69963e-06
-1.60087e-05
-3.97653e-06
-1.7943e-05
-1.96096e-06
-1.68352e-05
-9.12571e-06
-2.2713e-06
1.02062e-05
-3.60893e-06
1.62837e-05
-3.08272e-06
1.58786e-05
-1.34768e-06
1.34825e-05
8.92791e-07
1.07483e-05
3.15049e-06
8.23926e-06
5.13344e-06
6.08853e-06
6.68384e-06
4.26065e-06
7.72078e-06
2.66874e-06
8.20127e-06
1.2166e-06
8.09826e-06
-1.92418e-07
7.39306e-06
-1.65931e-06
6.08048e-06
-3.29561e-06
4.19231e-06
-5.22992e-06
1.84656e-06
-7.60114e-06
-6.70458e-07
-1.05116e-05
-2.80426e-06
-1.38749e-05
-3.68947e-06
-1.70578e-05
-2.46026e-06
-1.80644e-05
-1.1586e-05
-2.69695e-06
1.29032e-05
-2.20744e-06
1.57942e-05
7.1386e-07
1.29573e-05
4.46376e-06
9.73259e-06
8.12621e-06
7.0859e-06
1.12944e-05
5.07109e-06
1.38221e-05
3.56078e-06
1.56814e-05
2.40141e-06
1.6885e-05
1.46508e-06
1.74481e-05
6.53509e-07
1.73692e-05
-1.1354e-07
1.66228e-05
-9.12865e-07
1.51587e-05
-1.83154e-06
1.29143e-05
-2.98547e-06
9.85191e-06
-4.53877e-06
6.05179e-06
-6.7115e-06
1.90019e-06
-9.72331e-06
-1.59533e-06
-1.35623e-05
-2.59407e-06
-1.70657e-05
-1.418e-05
-5.79036e-07
1.34822e-05
4.12017e-06
1.1095e-05
1.02998e-05
6.77771e-06
1.57883e-05
4.24412e-06
2.01501e-05
2.72412e-06
2.34496e-05
1.77157e-06
2.58528e-05
1.15752e-06
2.75142e-05
7.40034e-07
2.85471e-05
4.32184e-07
2.90194e-05
1.81221e-07
2.89551e-05
-4.92608e-08
2.83309e-05
-2.8866e-07
2.70731e-05
-5.73696e-07
2.50456e-05
-9.5801e-07
2.20429e-05
-1.53611e-06
1.78101e-05
-2.47869e-06
1.21751e-05
-4.08828e-06
5.52158e-06
-6.90877e-06
9.59187e-08
-1.164e-05
-1.40841e-05
1.34822e-05
2.45772e-05
3.13549e-05
3.5599e-05
3.83231e-05
4.00947e-05
4.12522e-05
4.19922e-05
4.24244e-05
4.26056e-05
4.25564e-05
4.22677e-05
4.1694e-05
4.0736e-05
3.91999e-05
3.67212e-05
3.26329e-05
2.57242e-05
1.40841e-05
)
;

boundaryField
{
    movingWall
    {
        type            calculated;
        value           uniform 0;
    }
    fixedWalls
    {
        type            calculated;
        value           uniform 0;
    }
    frontAndBack
    {
        type            empty;
        value           nonuniform 0();
    }
}


// ************************************************************************* //
