/*--------------------------------*- C++ -*----------------------------------*\
  =========                 |
  \\      /  F ield         | OpenFOAM: The Open Source CFD Toolbox
   \\    /   O peration     | Website:  https://openfoam.org
    \\  /    A nd           | Version:  7
     \\/     M anipulation  |
\*---------------------------------------------------------------------------*/
FoamFile
{
    version     2.0;
    format      ascii;
    class       volVectorField;
    location    "0.2375";
    object      U;
}
// * * * * * * * * * * * * * * * * * * * * * * * * * * * * * * * * * * * * * //

dimensions      [0 1 -1 0 0 0 0];

internalField   nonuniform List<vector> 
400
(
(0.000259571 -0.00025455 0)
(0.000149141 0.000104033 0)
(-0.00117538 0.000550979 0)
(-0.00348064 0.000867971 0)
(-0.00637572 0.00102697 0)
(-0.00946701 0.00104289 0)
(-0.0124001 0.000940677 0)
(-0.0148818 0.000746637 0)
(-0.0166861 0.000485529 0)
(-0.0176547 0.000180988 0)
(-0.0176985 -0.000142947 0)
(-0.0168015 -0.00046034 0)
(-0.0150267 -0.000742426 0)
(-0.012522 -0.000957603 0)
(-0.00952372 -0.0010726 0)
(-0.00635315 -0.00105541 0)
(-0.00340011 -0.000881248 0)
(-0.00108407 -0.000543155 0)
(0.000204141 -8.43077e-05 0)
(0.000273122 0.000265702 0)
(-6.73067e-05 -0.000174944 0)
(-0.00160169 0.00163817 0)
(-0.00569457 0.00360227 0)
(-0.0117193 0.00501546 0)
(-0.0188882 0.00572208 0)
(-0.0263923 0.00573906 0)
(-0.0334566 0.00515247 0)
(-0.0394107 0.00407708 0)
(-0.0437252 0.00263741 0)
(-0.0460268 0.000962848 0)
(-0.0461088 -0.000810751 0)
(-0.0439417 -0.00253822 0)
(-0.0396839 -0.00406418 0)
(-0.0336888 -0.00522641 0)
(-0.0265039 -0.00586553 0)
(-0.0188499 -0.0058436 0)
(-0.0115669 -0.00507528 0)
(-0.00551486 -0.00357468 0)
(-0.0014843 -0.00155402 0)
(-3.35487e-05 0.000232513 0)
(-0.000511964 0.00108956 0)
(-0.00369352 0.00573894 0)
(-0.0105872 0.0102222 0)
(-0.019988 0.0134027 0)
(-0.0307561 0.0149407 0)
(-0.0418091 0.0148333 0)
(-0.0521025 0.0132507 0)
(-0.0607232 0.0104522 0)
(-0.0669456 0.00673918 0)
(-0.0702571 0.0024375 0)
(-0.0703746 -0.00210632 0)
(-0.0672591 -0.00652356 0)
(-0.0611294 -0.0104256 0)
(-0.052469 -0.0134161 0)
(-0.0420219 -0.0151175 0)
(-0.0307638 -0.0152192 0)
(-0.0198245 -0.0135502 0)
(-0.0103615 -0.0101762 0)
(-0.00353113 -0.00555398 0)
(-0.000460757 -0.000946516 0)
(-0.000905838 0.00347745 0)
(-0.00566717 0.0122231 0)
(-0.0152981 0.0199178 0)
(-0.0279098 0.0251895 0)
(-0.0419724 0.027587 0)
(-0.0561614 0.0271275 0)
(-0.0692301 0.0240998 0)
(-0.0800999 0.0189464 0)
(-0.0879195 0.0121903 0)
(-0.0920882 0.00440248 0)
(-0.0922721 -0.00380762 0)
(-0.0884194 -0.0117931 0)
(-0.0807762 -0.0188756 0)
(-0.0698975 -0.0243671 0)
(-0.0566482 -0.0276166 0)
(-0.0421791 -0.0280902 0)
(-0.0278478 -0.0254877 0)
(-0.0150891 -0.0198868 0)
(-0.0054807 -0.0119301 0)
(-0.000839445 -0.00322247 0)
(-0.00125027 0.00687319 0)
(-0.00750514 0.020953 0)
(-0.0198 0.0325019 0)
(-0.0355252 0.0400889 0)
(-0.0527262 0.0432738 0)
(-0.069836 0.0421763 0)
(-0.0854362 0.0372626 0)
(-0.0983292 0.0292008 0)
(-0.107585 0.0187686 0)
(-0.112552 0.00680936 0)
(-0.112859 -0.00578001 0)
(-0.108437 -0.0180493 0)
(-0.0995264 -0.0290011 0)
(-0.0867067 -0.037618 0)
(-0.0709079 -0.0429272 0)
(-0.0534086 -0.0441099 0)
(-0.0357719 -0.0406616 0)
(-0.0197288 -0.0325821 0)
(-0.00733881 -0.0205895 0)
(-0.00117466 -0.00649323 0)
(-0.0015719 0.0112089 0)
(-0.00927963 0.0318701 0)
(-0.0242031 0.047938 0)
(-0.04299 0.0580515 0)
(-0.0632351 0.0619143 0)
(-0.0831249 0.0598588 0)
(-0.101091 0.0526082 0)
(-0.115854 0.0411094 0)
(-0.126447 0.0264253 0)
(-0.132193 0.00968663 0)
(-0.132704 -0.00791645 0)
(-0.127877 -0.0251257 0)
(-0.117922 -0.0406118 0)
(-0.103393 -0.0529999 0)
(-0.0852328 -0.060942 0)
(-0.0648065 -0.0632534 0)
(-0.0438677 -0.0591168 0)
(-0.0244686 -0.0483269 0)
(-0.00921343 -0.0315518 0)
(-0.00150065 -0.0107208 0)
(-0.00189679 0.0164678 0)
(-0.0110744 0.0449647 0)
(-0.0286421 0.0662126 0)
(-0.0504634 0.0790312 0)
(-0.0736575 0.0834161 0)
(-0.0961695 0.0800452 0)
(-0.116312 0.0699987 0)
(-0.13277 0.0545639 0)
(-0.144583 0.0351165 0)
(-0.15109 0.0130761 0)
(-0.151896 -0.0100876 0)
(-0.146861 -0.0328256 0)
(-0.136128 -0.0534841 0)
(-0.120172 -0.0703128 0)
(-0.0998868 -0.0815341 0)
(-0.0766634 -0.0854971 0)
(-0.0524159 -0.0809285 0)
(-0.0295319 -0.0672503 0)
(-0.0112316 -0.0449274 0)
(-0.00185347 -0.0159402 0)
(-0.00224823 0.0226822 0)
(-0.0129684 0.060285 0)
(-0.0332397 0.0873343 0)
(-0.0580588 0.102959 0)
(-0.0840411 0.107627 0)
(-0.108913 0.102525 0)
(-0.130922 0.0892127 0)
(-0.148784 0.0693853 0)
(-0.161612 0.0447528 0)
(-0.168811 0.0170086 0)
(-0.170003 -0.0121363 0)
(-0.16501 -0.0408865 0)
(-0.153868 -0.0672971 0)
(-0.136909 -0.0892451 0)
(-0.114886 -0.104474 0)
(-0.0891274 -0.110751 0)
(-0.0616382 -0.106165 0)
(-0.0351299 -0.0895407 0)
(-0.0135201 -0.0609286 0)
(-0.00226829 -0.0222609 0)
(-0.0026499 0.0299293 0)
(-0.0150397 0.0779327 0)
(-0.0380998 0.111316 0)
(-0.0658221 0.129702 0)
(-0.0942868 0.13427 0)
(-0.121052 0.126931 0)
(-0.144393 0.109865 0)
(-0.163159 0.085252 0)
(-0.17663 0.0551448 0)
(-0.184346 0.0214727 0)
(-0.185994 -0.0138799 0)
(-0.181355 -0.0489514 0)
(-0.170326 -0.0815761 0)
(-0.153012 -0.109293 0)
(-0.129904 -0.129337 0)
(-0.102126 -0.138772 0)
(-0.0716469 -0.134825 0)
(-0.041441 -0.115415 0)
(-0.0162048 -0.0798625 0)
(-0.0027825 -0.0298652 0)
(-0.00313392 0.038335 0)
(-0.0173836 0.0980552 0)
(-0.0433211 0.138137 0)
(-0.0737241 0.158988 0)
(-0.104114 0.162846 0)
(-0.13198 0.152625 0)
(-0.155772 0.131301 0)
(-0.174623 0.101608 0)
(-0.188111 0.0659326 0)
(-0.196009 0.0263723 0)
(-0.198123 -0.0151212 0)
(-0.194217 -0.0565434 0)
(-0.18401 -0.0956271 0)
(-0.167291 -0.129658 0)
(-0.144139 -0.155375 0)
(-0.115266 -0.169032 0)
(-0.0823914 -0.166726 0)
(-0.0486005 -0.145052 0)
(-0.0194232 -0.102111 0)
(-0.00344361 -0.0390117 0)
(-0.0037555 0.0480946 0)
(-0.0201459 0.120846 0)
(-0.0490203 0.167686 0)
(-0.0816468 0.190298 0)
(-0.113 0.192496 0)
(-0.140692 0.178564 0)
(-0.163568 0.152471 0)
(-0.181257 0.117559 0)
(-0.193795 0.0765086 0)
(-0.201308 0.0314744 0)
(-0.203801 -0.0156715 0)
(-0.201048 -0.0630538 0)
(-0.19258 -0.108482 0)
(-0.177781 -0.149144 0)
(-0.156141 -0.181367 0)
(-0.127696 -0.200535 0)
(-0.0935772 -0.201333 0)
(-0.0566857 -0.17848 0)
(-0.0233465 -0.128102 0)
(-0.00432354 -0.0500533 0)
(-0.00461948 0.0595247 0)
(-0.0235735 0.146553 0)
(-0.0553494 0.199675 0)
(-0.0893293 0.222714 0)
(-0.120064 0.221829 0)
(-0.145621 0.203139 0)
(-0.165582 0.171802 0)
(-0.180327 0.13178 0)
(-0.190541 0.0859443 0)
(-0.196823 0.0363548 0)
(-0.199459 -0.0153879 0)
(-0.198287 -0.0677536 0)
(-0.192659 -0.118866 0)
(-0.181504 -0.166061 0)
(-0.163563 -0.205446 0)
(-0.137877 -0.231589 0)
(-0.104518 -0.237522 0)
(-0.0656746 -0.215407 0)
(-0.0282126 -0.158267 0)
(-0.00554433 -0.0634805 0)
(-0.00592834 0.0731682 0)
(-0.0280849 0.175476 0)
(-0.0624696 0.233472 0)
(-0.0962042 0.254664 0)
(-0.123798 0.248671 0)
(-0.144348 0.223984 0)
(-0.158632 0.187076 0)
(-0.168078 0.142437 0)
(-0.174178 0.0929465 0)
(-0.178098 0.0403571 0)
(-0.180463 -0.0142201 0)
(-0.181238 -0.0698402 0)
(-0.179657 -0.125222 0)
(-0.174217 -0.178176 0)
(-0.162824 -0.224944 0)
(-0.14323 -0.259523 0)
(-0.113857 -0.27322 0)
(-0.0753285 -0.254922 0)
(-0.0343634 -0.192951 0)
(-0.00732392 -0.0800096 0)
(-0.00806297 0.08998 0)
(-0.0343391 0.2079 0)
(-0.0703758 0.267764 0)
(-0.100971 0.283523 0)
(-0.121521 0.269761 0)
(-0.133071 0.237811 0)
(-0.138142 0.195386 0)
(-0.139455 0.147218 0)
(-0.139369 0.0958928 0)
(-0.139601 0.0425992 0)
(-0.141116 -0.0122577 0)
(-0.144057 -0.0685343 0)
(-0.147661 -0.125819 0)
(-0.150147 -0.182783 0)
(-0.148678 -0.236315 0)
(-0.139579 -0.280398 0)
(-0.119029 -0.304919 0)
(-0.084884 -0.294989 0)
(-0.0422485 -0.23219 0)
(-0.0100466 -0.100729 0)
(-0.0116763 0.111597 0)
(-0.0431731 0.243798 0)
(-0.0782865 0.299888 0)
(-0.100589 0.305015 0)
(-0.108319 0.280426 0)
(-0.105721 0.24037 0)
(-0.0975373 0.193277 0)
(-0.0877922 0.143545 0)
(-0.0795322 0.093027 0)
(-0.0748231 0.0420781 0)
(-0.0748435 -0.00975433 0)
(-0.07993 -0.0632439 0)
(-0.0894964 -0.119026 0)
(-0.101811 -0.176987 0)
(-0.113692 -0.235295 0)
(-0.12029 -0.288853 0)
(-0.115242 -0.327102 0)
(-0.0922699 -0.331603 0)
(-0.0522118 -0.275166 0)
(-0.0143124 -0.12727 0)
(-0.0176161 0.140746 0)
(-0.0548917 0.281884 0)
(-0.0828522 0.324524 0)
(-0.0880795 0.312408 0)
(-0.0751201 0.274443 0)
(-0.0526237 0.226776 0)
(-0.0275053 0.177299 0)
(-0.00457173 0.129143 0)
(0.0130333 0.0829119 0)
(0.0233678 0.037935 0)
(0.0253216 -0.00709693 0)
(0.0184277 -0.0537927 0)
(0.00289967 -0.103793 0)
(-0.0200748 -0.15836 0)
(-0.0477591 -0.217525 0)
(-0.0750511 -0.278349 0)
(-0.0936157 -0.33171 0)
(-0.0922015 -0.357446 0)
(-0.0634696 -0.318952 0)
(-0.0207144 -0.162055 0)
(-0.0260056 0.182265 0)
(-0.0664803 0.317044 0)
(-0.0735118 0.330976 0)
(-0.0481266 0.295357 0)
(-0.00565947 0.244243 0)
(0.0411278 0.192421 0)
(0.0845609 0.145085 0)
(0.120441 0.103 0)
(0.146602 0.065151 0)
(0.161943 0.0298886 0)
(0.165832 -0.00469064 0)
(0.157819 -0.0406626 0)
(0.137608 -0.080293 0)
(0.105308 -0.125968 0)
(0.0621155 -0.179765 0)
(0.0116382 -0.242026 0)
(-0.0380007 -0.307779 0)
(-0.0719966 -0.35967 0)
(-0.0709817 -0.355769 0)
(-0.0285828 -0.209058 0)
(-0.0317428 0.241377 0)
(-0.0630317 0.333928 0)
(-0.0219626 0.299651 0)
(0.0505842 0.240051 0)
(0.127425 0.183002 0)
(0.196849 0.13544 0)
(0.254194 0.0974413 0)
(0.298114 0.0668816 0)
(0.328691 0.0413718 0)
(0.346333 0.0187807 0)
(0.351237 -0.00280691 0)
(0.343155 -0.0252898 0)
(0.321308 -0.0508222 0)
(0.284466 -0.0820854 0)
(0.231367 -0.122471 0)
(0.161958 -0.175653 0)
(0.0798392 -0.243232 0)
(-0.00334034 -0.318156 0)
(-0.0573587 -0.366745 0)
(-0.0309144 -0.270214 0)
(0.00230794 0.286369 0)
(0.0143153 0.294061 0)
(0.139843 0.210078 0)
(0.264889 0.143066 0)
(0.364214 0.0968722 0)
(0.440163 0.0655061 0)
(0.496576 0.0440279 0)
(0.536722 0.0287382 0)
(0.563304 0.0171039 0)
(0.578166 0.00743552 0)
(0.582239 -0.00149963 0)
(0.575546 -0.0108074 0)
(0.557143 -0.0217571 0)
(0.524951 -0.0361777 0)
(0.475563 -0.057019 0)
(0.404365 -0.0890484 0)
(0.305605 -0.139244 0)
(0.174284 -0.21545 0)
(0.0352059 -0.310938 0)
(0.0120834 -0.304779 0)
(0.293148 0.148893 0)
(0.389648 0.127925 0)
(0.557568 0.0758012 0)
(0.674741 0.0433822 0)
(0.743792 0.0252388 0)
(0.787088 0.0149517 0)
(0.815465 0.00898703 0)
(0.83394 0.00534996 0)
(0.845367 0.00292527 0)
(0.851351 0.00109787 0)
(0.852643 -0.000502025 0)
(0.849357 -0.00217157 0)
(0.840976 -0.00424131 0)
(0.826117 -0.00726106 0)
(0.80203 -0.0122938 0)
(0.763557 -0.0214611 0)
(0.699431 -0.0389173 0)
(0.58444 -0.0723433 0)
(0.409338 -0.128341 0)
(0.302176 -0.152205 0)
)
;

boundaryField
{
    movingWall
    {
        type            fixedValue;
        value           uniform (1 0 0);
    }
    fixedWalls
    {
        type            noSlip;
    }
    frontAndBack
    {
        type            empty;
    }
}


// ************************************************************************* //
