/*--------------------------------*- C++ -*----------------------------------*\
  =========                 |
  \\      /  F ield         | OpenFOAM: The Open Source CFD Toolbox
   \\    /   O peration     | Website:  https://openfoam.org
    \\  /    A nd           | Version:  7
     \\/     M anipulation  |
\*---------------------------------------------------------------------------*/
FoamFile
{
    version     2.0;
    format      ascii;
    class       volScalarField;
    location    "33";
    object      p;
}
// * * * * * * * * * * * * * * * * * * * * * * * * * * * * * * * * * * * * * //

dimensions      [0 2 -2 0 0 0 0];

internalField   nonuniform List<scalar> 
2000
(
-0.0177468
-0.0172551
-0.0171329
-0.0172296
-0.0174616
-0.0177027
-0.0178464
-0.0178235
-0.0176091
-0.0171692
-0.0164118
-0.0159106
-0.0156716
-0.0156149
-0.015687
-0.0157845
-0.0158138
-0.0157117
-0.0154553
-0.0150259
-0.0150601
-0.0145492
-0.0141919
-0.0139762
-0.0138809
-0.0138263
-0.0137337
-0.0135457
-0.0132403
-0.0128178
-0.0137153
-0.0131912
-0.0127168
-0.0123419
-0.0120782
-0.0118702
-0.0116543
-0.0113801
-0.0110246
-0.0106081
-0.0123983
-0.0118555
-0.011268
-0.0107388
-0.0103118
-0.00995507
-0.00962052
-0.00926521
-0.00886593
-0.00846192
-0.0111271
-0.0105612
-0.00986539
-0.00919005
-0.00860959
-0.0081146
-0.00767136
-0.00724465
-0.00681411
-0.0064404
-0.00992072
-0.00932389
-0.0085253
-0.00771525
-0.00699551
-0.00637719
-0.00583965
-0.00535428
-0.00490817
-0.00459527
-0.00879851
-0.00815191
-0.00726071
-0.00633055
-0.00548956
-0.00476703
-0.0041534
-0.00362388
-0.00317618
-0.00296403
-0.00777058
-0.0070511
-0.00608019
-0.00504832
-0.00410793
-0.00330352
-0.00263437
-0.00207764
-0.00163788
-0.00156558
-0.00683624
-0.00602297
-0.00498665
-0.00387647
-0.00286249
-0.00199856
-0.00128801
-0.000709178
-0.00023521
-0.000245845
-0.0153522
-0.0103878
-0.00471388
0.00236396
0.0085687
0.0146066
0.0186099
0.0234876
0.0247399
0.028164
-0.0133599
-0.00915725
-0.00397357
0.00249674
0.00819845
0.0137979
0.0175206
0.0218594
0.0232023
0.0261681
-0.011353
-0.00789987
-0.00321686
0.0026617
0.00790506
0.0130561
0.0165438
0.0204025
0.0218065
0.0243582
-0.00938607
-0.00665728
-0.0024815
0.00285325
0.00765884
0.0124021
0.0156401
0.0191431
0.0204877
0.0227533
-0.00751002
-0.00545187
-0.00176602
0.00306491
0.00745062
0.011834
0.0148195
0.0180605
0.0192763
0.0213652
-0.00577102
-0.00431076
-0.00108187
0.00327169
0.00726469
0.0113265
0.0140709
0.0170872
0.0181628
0.0201613
-0.00421163
-0.00323817
-0.000405182
0.00349242
0.00711781
0.0108829
0.0134092
0.0162339
0.0171971
0.0191355
-0.00287634
-0.00229632
0.000182743
0.00365902
0.00696289
0.0104582
0.012776
0.015411
0.0162969
0.0182354
-0.00179137
-0.00137376
0.000814976
0.00387771
0.00687187
0.0101066
0.0122445
0.0147222
0.0155541
0.0174737
-0.00111847
-0.000884929
0.00105843
0.00383307
0.00662643
0.00964998
0.0116227
0.01392
0.0147891
0.0167645
0.00491338
0.00337242
0.00381623
0.00512183
0.00698391
0.00929957
0.0111127
0.0129951
0.0139268
0.0153638
0.00422837
0.00495172
0.0057782
0.0065483
0.0076645
0.00920342
0.0105822
0.0119666
0.0126189
0.013402
0.00286884
0.00453953
0.00598548
0.00692069
0.00783844
0.00895293
0.00992055
0.0109751
0.0114829
0.0121048
0.00146949
0.00363726
0.00549893
0.00660082
0.00748543
0.00838769
0.00909081
0.00975083
0.00995006
0.0105308
0.00029256
0.00262932
0.00463381
0.00587782
0.00680698
0.0076507
0.00832973
0.008953
0.0089509
0.00914956
-0.000326199
0.00188992
0.00372393
0.00493814
0.00580701
0.0065869
0.00716838
0.00773508
0.00786557
0.00814749
-0.000661213
0.00117666
0.0027543
0.00385156
0.00467142
0.00541264
0.00598341
0.00646148
0.00646963
0.00667217
-0.000746795
0.000533877
0.00173243
0.0026817
0.00342594
0.00407195
0.00462127
0.00515076
0.00513632
0.00514306
-0.000781112
1.18414e-05
0.000810346
0.00152971
0.00207373
0.00252722
0.00289436
0.00327773
0.00330017
0.003377
-0.000678799
-0.000391232
4.31725e-05
0.000494366
0.000770535
0.00098999
0.00114136
0.00130421
0.00119039
0.00117244
0.0037362
0.00304571
0.00152863
-6.72032e-05
-0.00119034
-0.00166133
-0.00165011
-0.00135051
-0.00107928
-0.000716305
0.00356471
0.0024423
0.000694688
-0.000975652
-0.00200261
-0.00232517
-0.00211809
-0.001641
-0.00121018
-0.000744226
0.00320401
0.00162612
-0.000277473
-0.00194699
-0.00283975
-0.00298926
-0.00257809
-0.00192697
-0.00133251
-0.000772505
0.0025881
0.000699479
-0.00126204
-0.00288279
-0.00362389
-0.00360005
-0.00299432
-0.00218321
-0.00143756
-0.000794664
0.00176751
-0.000273697
-0.00222589
-0.00376919
-0.00434662
-0.00415252
-0.00336626
-0.00241013
-0.00152751
-0.000812033
0.000864504
-0.00121507
-0.00311244
-0.00456726
-0.00498424
-0.00463475
-0.00369003
-0.00260792
-0.00160523
-0.000826938
4.20664e-05
-0.0020365
-0.00385703
-0.00523006
-0.0055064
-0.0050296
-0.00395777
-0.002774
-0.00167223
-0.000842912
-0.000552212
-0.00266078
-0.00440699
-0.00572113
-0.00588969
-0.00532418
-0.00416307
-0.0029062
-0.00172765
-0.000859776
-0.000830275
-0.00303701
-0.00473086
-0.00602033
-0.00612166
-0.00551218
-0.00430272
-0.00300364
-0.00176862
-0.000851285
-0.000773207
-0.00314917
-0.00482582
-0.00612167
-0.00620252
-0.0055918
-0.00437857
-0.00306487
-0.00180474
-0.000803452
-0.00042134
-0.00301721
-0.0047074
-0.00604117
-0.00614401
-0.00557052
-0.00439203
-0.00309126
-0.00182563
-0.000750544
0.000169971
-0.00267802
-0.00440484
-0.00580399
-0.00596532
-0.00546044
-0.00434866
-0.00308475
-0.0018314
-0.000698867
0.000943463
-0.00217386
-0.00395538
-0.00543941
-0.00569036
-0.00527725
-0.00425781
-0.00304927
-0.00182343
-0.000649899
0.00184373
-0.00154618
-0.00339848
-0.00497764
-0.00534384
-0.00503722
-0.00412835
-0.00298805
-0.00180157
-0.00060458
0.00282415
-0.000828422
-0.00277022
-0.00444623
-0.00494781
-0.0047552
-0.00396828
-0.00290436
-0.00176597
-0.000562985
0.00384473
-4.7328e-05
-0.00210163
-0.0038688
-0.00451983
-0.00444362
-0.00378428
-0.00280143
-0.00171738
-0.00052471
0.00486567
0.000774464
-0.0014166
-0.00326374
-0.00407249
-0.00411257
-0.00358186
-0.00268232
-0.00165669
-0.000489114
0.00588134
0.00164668
-0.000714701
-0.0026368
-0.00361225
-0.00377046
-0.0033674
-0.00255121
-0.00158562
-0.000455296
0.00694943
0.00263989
3.56929e-05
-0.00197692
-0.00313542
-0.00341872
-0.00314421
-0.00241239
-0.00150587
-0.000421522
0.00776457
0.00361991
0.000763286
-0.00131901
-0.00263591
-0.00303944
-0.00288756
-0.00225112
-0.001408
-0.00038512
0.00779412
0.00503446
0.00214463
0.000105914
-0.00136609
-0.00202842
-0.00214121
-0.00175234
-0.00110305
-0.000306748
0.00880275
0.00618961
0.00351914
0.00161607
0.00011913
-0.000687277
-0.00104778
-0.000932467
-0.000552858
-6.18909e-05
0.0107873
0.0080253
0.00525098
0.00325861
0.0015999
0.000596079
-8.31096e-06
-0.000117369
3.80708e-05
0.000234513
0.01313
0.0100823
0.00712383
0.00493993
0.00305571
0.00181626
0.00097466
0.000690432
0.000677936
0.000597213
0.0157829
0.0123258
0.00908315
0.00661939
0.00446023
0.00296334
0.00190332
0.0014966
0.0013734
0.0010291
0.0186796
0.0147284
0.0110978
0.00826862
0.00580607
0.00404352
0.00280022
0.00231357
0.00211932
0.00151378
0.0217348
0.0171684
0.0130707
0.00984835
0.00710398
0.0050908
0.00370441
0.00313541
0.00285606
0.00196399
0.0244907
0.019141
0.0148701
0.0113681
0.00837526
0.00613325
0.00462307
0.00389564
0.00336969
0.00209854
0.0271224
0.0221081
0.0170828
0.0128499
0.00948174
0.00704667
0.00540017
0.00437331
0.00340666
0.00180046
0.029541
0.0224297
0.017186
0.0131243
0.00994932
0.00758609
0.0058804
0.00459071
0.00326279
0.00146687
0.00990315
0.0110369
0.013019
0.0154349
0.0183348
0.0215163
0.0248414
0.0289351
0.0299812
0.0352405
0.0105955
0.0120912
0.0142596
0.0168433
0.0199388
0.0233024
0.0268359
0.0308525
0.0322811
0.0366679
0.0110719
0.0130395
0.0155832
0.018546
0.0219897
0.0256631
0.0294975
0.0332713
0.0354397
0.037672
0.0115625
0.0138566
0.0167135
0.0200518
0.0238407
0.0278294
0.0319521
0.0357643
0.0384201
0.0394709
0.012134
0.0147341
0.0178417
0.0214786
0.0255391
0.0297783
0.0341297
0.0381502
0.0411123
0.0420697
0.0127391
0.015715
0.0191082
0.0230199
0.0273079
0.0317485
0.036276
0.0405127
0.0437215
0.0450797
0.0133591
0.0167612
0.0205066
0.0247213
0.0292474
0.0338923
0.0385881
0.043004
0.0464325
0.048212
0.0140114
0.0178563
0.0219974
0.0265444
0.0313405
0.0362233
0.0411182
0.0457055
0.0493272
0.051378
0.0147155
0.0190069
0.0235668
0.0284552
0.0335458
0.038699
0.0438341
0.048616
0.0524151
0.0546082
0.0154831
0.020216
0.025216
0.0304415
0.035842
0.0412841
0.0466912
0.0516973
0.055677
0.0579563
0.0163228
0.0214732
0.0269433
0.0324958
0.0382225
0.0439634
0.0496665
0.05492
0.0590975
0.061456
0.0172331
0.0227495
0.0287332
0.0345992
0.0406778
0.0467273
0.0527487
0.0582688
0.0626676
0.0651144
0.0181839
0.0240095
0.0305538
0.0367253
0.0431911
0.0495733
0.0559405
0.0617591
0.066391
0.0689329
0.019125
0.0252305
0.0323597
0.0388514
0.0457401
0.052494
0.0592281
0.0654076
0.0702688
0.0729134
0.0199951
0.0264029
0.0341038
0.0409668
0.0483166
0.0555117
0.0626324
0.0691844
0.0742976
0.0770577
0.0207213
0.0275217
0.0357162
0.0431145
0.0508931
0.0585459
0.0660984
0.0730435
0.078457
0.0813566
0.0212371
0.0285645
0.0372982
0.0451962
0.0534319
0.0615812
0.0696264
0.0770061
0.0827613
0.0858269
0.0214232
0.0295749
0.038684
0.0470928
0.0558265
0.0645138
0.0731112
0.081001
0.0871712
0.0904534
0.0213453
0.0305409
0.0399196
0.0488912
0.0581604
0.0674304
0.0766273
0.085081
0.0917151
0.0952736
0.0206105
0.0309048
0.0405809
0.0501207
0.0599328
0.0698317
0.0797366
0.0889417
0.0962506
0.100241
0.0214089
0.0340141
0.0443581
0.0549946
0.0659261
0.0771393
0.0884974
0.0992305
0.107912
0.112864
0.0325792
0.0444689
0.0551491
0.0673059
0.0799998
0.0933892
0.107149
0.120252
0.130909
0.136869
0.0446666
0.0568824
0.0686466
0.0825773
0.0972115
0.113164
0.12959
0.145219
0.157882
0.16501
0.0566371
0.0698336
0.0835263
0.0996334
0.116778
0.135917
0.155362
0.173791
0.188553
0.196699
0.0686664
0.0833133
0.0993619
0.11796
0.138252
0.161108
0.183903
0.205417
0.222282
0.231706
0.0811745
0.0975856
0.116179
0.137607
0.161638
0.188558
0.214953
0.239699
0.258449
0.268471
0.0938035
0.112208
0.133388
0.158084
0.186194
0.217068
0.247172
0.275057
0.295121
0.306418
0.106424
0.126751
0.150748
0.178969
0.211015
0.245429
0.279474
0.310379
0.331039
0.340689
0.116322
0.138464
0.164927
0.19587
0.230835
0.268136
0.305787
0.339184
0.360897
0.371453
0.123548
0.146895
0.175007
0.207644
0.244536
0.28416
0.324878
0.362118
0.388149
0.383218
0.0161037
0.0263209
0.0373116
0.0488444
0.0601136
0.0721187
0.0834569
0.0955051
0.104736
0.111759
0.014766
0.0253175
0.0360746
0.0473736
0.058319
0.0700402
0.0808522
0.092567
0.101316
0.108094
0.014201
0.0254256
0.0362765
0.0474724
0.0582219
0.0696588
0.0800922
0.0912938
0.099326
0.105664
0.0131041
0.0248063
0.0356922
0.0468831
0.0575313
0.0687721
0.0789481
0.089703
0.0971585
0.103074
0.0117773
0.0236298
0.034529
0.0456501
0.0561698
0.067197
0.0771182
0.0874816
0.0945214
0.100091
0.0103851
0.022294
0.0333307
0.044332
0.0546997
0.0654681
0.0750975
0.0850691
0.0917624
0.0970423
0.0089032
0.0209265
0.0321734
0.04314
0.0534122
0.063945
0.0732977
0.0829076
0.0892754
0.0943048
0.00732468
0.0195359
0.0309759
0.0420505
0.0523181
0.0626883
0.071842
0.0811751
0.0872587
0.0920715
0.00568015
0.0181225
0.0297938
0.0409871
0.0513665
0.0616438
0.0707142
0.0798345
0.0857416
0.0903535
0.00400663
0.0167143
0.0286712
0.0400136
0.0505191
0.0607783
0.0698943
0.0787778
0.0846855
0.0890766
0.00233572
0.0153441
0.0276317
0.0391744
0.0498093
0.0601184
0.0693058
0.0780426
0.0840066
0.0881905
0.00066438
0.0139908
0.0266646
0.0384645
0.0492622
0.0596757
0.0689464
0.0776413
0.083656
0.0876937
-0.001036
0.0126123
0.0257399
0.0378579
0.0488779
0.0594517
0.0688405
0.0775738
0.0836384
0.0875909
-0.00277073
0.0112031
0.0248462
0.037339
0.0486442
0.0594385
0.0689918
0.0778264
0.0839601
0.0878784
-0.00454082
0.00978224
0.0239909
0.036908
0.0485592
0.0596364
0.0694066
0.0784041
0.0846335
0.0885483
-0.00637019
0.00834741
0.0231505
0.0365371
0.0485986
0.0600131
0.0700533
0.0792756
0.0856365
0.0895881
-0.00828736
0.00693222
0.0223378
0.0362333
0.0487742
0.0605808
0.0709564
0.0804575
0.0869804
0.0909898
-0.0103957
0.00543205
0.0214109
0.0358832
0.0489819
0.0612334
0.0720178
0.0818625
0.0886114
0.0927447
-0.0125773
0.00407509
0.0205358
0.0356107
0.0493082
0.0620512
0.0733133
0.0835425
0.0905654
0.0948534
-0.0155089
0.00196261
0.0189482
0.0347978
0.0491991
0.0625248
0.074403
0.0851848
0.0926867
0.0973096
-0.0171961
0.00101438
0.018046
0.0349944
0.0508197
0.0654415
0.078717
0.0905676
0.0991338
0.104245
-0.0086229
0.0085798
0.0253421
0.0437191
0.061021
0.0773538
0.0926987
0.106467
0.116606
0.122285
0.0023597
0.0197709
0.037325
0.0574993
0.0763144
0.0949378
0.112755
0.128919
0.140938
0.147317
0.0139686
0.0318066
0.0511029
0.073355
0.0947201
0.116903
0.138132
0.157753
0.172527
0.180084
0.0256527
0.0443209
0.0657975
0.0904883
0.115653
0.142429
0.168317
0.192905
0.21167
0.22121
0.0374536
0.0574388
0.0814056
0.10926
0.13923
0.171428
0.20348
0.234813
0.259436
0.272795
0.0484002
0.0704337
0.0970757
0.12855
0.163791
0.202248
0.241901
0.281694
0.315275
0.33653
0.0591223
0.0830575
0.112395
0.147579
0.18815
0.233494
0.281863
0.331906
0.378669
0.416619
0.0660722
0.0919951
0.123872
0.162272
0.207392
0.258918
0.316073
0.378359
0.444798
0.513195
0.0722321
0.100696
0.134432
0.175196
0.223705
0.280143
0.345568
0.422745
0.516844
0.629447
-0.0210666
-0.0136012
-0.00517716
0.00521828
0.0160726
0.0274463
0.0369586
0.0470887
0.0531438
0.0569006
-0.0225412
-0.0146192
-0.00639666
0.00369695
0.0141939
0.0251602
0.0339467
0.0435722
0.0491829
0.0532758
-0.0232207
-0.0145817
-0.00601964
0.00416703
0.0144352
0.0247996
0.0328341
0.0415767
0.0466838
0.052123
-0.0234937
-0.0146504
-0.00612195
0.00408761
0.0141222
0.0239716
0.0314265
0.0393846
0.0439727
0.0501445
-0.0233415
-0.0146963
-0.00652255
0.00339758
0.0130292
0.02236
0.0293417
0.0366847
0.0407005
0.0467779
-0.02279
-0.0144747
-0.00672969
0.00272065
0.0117899
0.0205133
0.0270176
0.0338225
0.0372202
0.0427308
-0.0218738
-0.0139916
-0.00664446
0.00233984
0.0107989
0.0188727
0.0248611
0.0311669
0.0339511
0.038821
-0.0206308
-0.0133063
-0.00635188
0.00220221
0.010076
0.0175398
0.0229929
0.0288691
0.0310914
0.0354628
-0.0191008
-0.012455
-0.00591908
0.00219356
0.00950607
0.0164374
0.0213629
0.0268961
0.0286444
0.0326815
-0.0172836
-0.0115098
-0.00537129
0.00225451
0.00900917
0.0154761
0.0199061
0.0251388
0.0265397
0.0303072
-0.00597945
-0.00506214
-0.00397652
-0.00281836
-0.00176367
-0.000866614
-0.000119067
0.000539385
0.00117785
0.00186128
-0.00517074
-0.00414782
-0.00303919
-0.00187175
-0.000820546
6.23979e-05
0.000787404
0.0014008
0.00195769
0.00243803
-0.00438427
-0.00326167
-0.00215922
-0.0010266
-3.06553e-05
0.000782523
0.00142591
0.00193555
0.0023439
0.00261266
-0.00357992
-0.0023789
-0.00131458
-0.000263082
0.000624401
0.00131324
0.00182392
0.00219181
0.00244974
0.0025689
-0.00271177
-0.00147153
-0.000478533
0.000447705
0.00117864
0.00169624
0.00203267
0.0022291
0.00233069
0.00232275
-0.00173495
-0.000511191
0.000378704
0.00114262
0.00168048
0.0019945
0.00213049
0.00213811
0.00207608
0.00193618
-0.000609904
0.000529361
0.00128843
0.00186375
0.00218776
0.00228439
0.00221237
0.00202927
0.00180167
0.00151661
0.00069454
0.00167489
0.00228083
0.00265318
0.00275853
0.00264148
0.00237083
0.00200904
0.00162207
0.00118745
0.00219563
0.002944
0.00338021
0.00354558
0.00343983
0.00312517
0.00267635
0.00215662
0.00162429
0.00105292
0.00388015
0.00433939
0.00459823
0.00456055
0.00425855
0.00376802
0.00316526
0.00251108
0.00185242
0.00116553
0.0056959
0.00584241
0.00592975
0.00569851
0.00521753
0.00457283
0.00383991
0.00307396
0.00231023
0.00152742
0.00768591
0.00746363
0.00736494
0.00694411
0.0062974
0.0055168
0.00467357
0.00381548
0.00296793
0.00211948
0.00978452
0.00916007
0.00886833
0.00826211
0.00746147
0.00656048
0.00562365
0.00469045
0.00377993
0.00289077
0.0119186
0.010879
0.0103914
0.00960467
0.00866108
0.00765361
0.00663818
0.00564595
0.00469292
0.00378416
0.0140105
0.0125593
0.0118768
0.0109168
0.00984234
0.00874268
0.00766371
0.00662851
0.00565282
0.00474436
0.0159758
0.0141324
0.0132624
0.0121415
0.0109518
0.00977639
0.0086503
0.0075886
0.00660912
0.00572075
0.0177277
0.0155271
0.0144869
0.0132252
0.0119408
0.0107098
0.00955536
0.00848433
0.00751763
0.00666744
0.0191831
0.0166757
0.015494
0.014121
0.0127694
0.011507
0.0103465
0.00928361
0.00833818
0.00753521
0.0202674
0.0175177
0.0162364
0.0147923
0.0134078
0.0121427
0.0109988
0.00995491
0.00902155
0.00826891
0.0209191
0.0180041
0.0166776
0.015214
0.0138402
0.0126074
0.0115033
0.0104816
0.00954097
0.00884294
0.0210912
0.018098
0.0167913
0.0153703
0.0140645
0.0129223
0.0119339
0.0110625
0.0103373
0.00998455
0.0207476
0.0177727
0.0165579
0.0152449
0.0140606
0.0130503
0.0122038
0.0114898
0.0109307
0.0106792
0.0198767
0.0170203
0.0159704
0.0148287
0.0138147
0.0129705
0.0122857
0.011732
0.0113133
0.0111163
0.0184901
0.0158491
0.0150344
0.0141249
0.0133286
0.0126872
0.0121931
0.0118229
0.0115677
0.0114706
0.0166202
0.0142834
0.0137686
0.0131488
0.0126167
0.0122159
0.0119442
0.011784
0.0117199
0.0117711
0.0143182
0.0123619
0.0122038
0.0119265
0.0117022
0.0115783
0.0115596
0.0116342
0.0117848
0.0120169
0.0116509
0.0101355
0.0103803
0.0104913
0.0106142
0.0108005
0.0110627
0.011396
0.0117837
0.0122226
0.00869517
0.00766288
0.0083444
0.00888091
0.00938467
0.00991006
0.010478
0.0110914
0.0117375
0.0124082
0.00553439
0.00500631
0.00614505
0.00713411
0.00804522
0.00893327
0.00982764
0.0107395
0.011663
0.0125891
0.00227118
0.0022339
0.00383234
0.00528882
0.00662531
0.00789332
0.00913003
0.0103552
0.0115713
0.0127741
-0.000957132
-0.00056833
0.00146362
0.00338498
0.00515387
0.00681143
0.00840063
0.00994919
0.0114688
0.0129657
-0.00421372
-0.00339222
-0.00093476
0.00144655
0.00364901
0.0056999
0.00764662
0.00952398
0.0113522
0.0131559
-0.00741044
-0.00618093
-0.00332364
-0.000500778
0.00212711
0.00456772
0.0068707
0.00907631
0.0112107
0.0133242
-0.0104742
-0.00888567
-0.00566752
-0.0024362
0.000599092
0.00341803
0.00606931
0.00859633
0.011026
0.0134393
-0.0133686
-0.011466
-0.00794048
-0.0043435
-0.000928376
0.00224961
0.00523463
0.00807063
0.0107771
0.0134647
-0.0160522
-0.0138638
-0.0101536
-0.00621055
-0.0024517
0.0010583
0.00435599
0.00748425
0.0104445
0.013359
-0.0185064
-0.0160966
-0.0122371
-0.00803374
-0.00397025
-0.000161238
0.00342192
0.00682359
0.0100206
0.0130886
-0.0207175
-0.0181473
-0.0141943
-0.00979392
-0.00548222
-0.00141471
0.0024205
0.00607242
0.00950224
0.0126415
-0.0226782
-0.0200005
-0.0160197
-0.0114893
-0.00698753
-0.00270676
0.00134594
0.00522071
0.00887344
0.0121311
-0.0243872
-0.0216498
-0.0177049
-0.0131157
-0.00848624
-0.00404353
0.000182662
0.00424496
0.00811671
0.0116013
-0.0258534
-0.0230971
-0.0192454
-0.0146683
-0.00997675
-0.00542735
-0.00107602
0.00313276
0.00731124
0.0113006
-0.0271158
-0.0243573
-0.0206417
-0.0161416
-0.0114562
-0.00686593
-0.00245934
0.00177648
0.00594677
0.00993778
-0.0281586
-0.025426
-0.0218877
-0.0175261
-0.0129134
-0.00834669
-0.00394205
0.000278052
0.00439279
0.00833852
-0.0289881
-0.026309
-0.0229814
-0.0188111
-0.0143294
-0.00983919
-0.00547384
-0.00127276
0.00282465
0.00674442
-0.0296217
-0.0270184
-0.0239241
-0.0199869
-0.0156857
-0.0113175
-0.00702635
-0.00286407
0.00121343
0.00511674
-0.0300793
-0.0275684
-0.0247198
-0.0210472
-0.0169683
-0.0127644
-0.00858454
-0.0044931
-0.000461655
0.00342246
-0.0303809
-0.0279745
-0.0253754
-0.0219889
-0.018167
-0.0141655
-0.0101329
-0.00614396
-0.00218608
0.00166443
-0.030548
-0.0282537
-0.0259009
-0.0228128
-0.0192741
-0.0155079
-0.0116554
-0.00779812
-0.00393928
-0.000141195
-0.0306019
-0.0284244
-0.0263093
-0.0235233
-0.0202858
-0.0167817
-0.0131383
-0.00943995
-0.00570405
-0.00197643
-0.0305536
-0.028499
-0.0266124
-0.0241274
-0.0212026
-0.0179813
-0.0145725
-0.0110579
-0.00746724
-0.00382652
-0.0303967
-0.0284745
-0.0268102
-0.024624
-0.0220199
-0.019099
-0.0159473
-0.0126403
-0.00921702
-0.00568096
-0.030213
-0.0284067
-0.0269442
-0.0250422
-0.0227552
-0.0201424
-0.017264
-0.014184
-0.0109498
-0.00754221
-0.0300006
-0.0282985
-0.0270231
-0.0253924
-0.023417
-0.0211165
-0.0185237
-0.0156881
-0.0126637
-0.0094148
-0.0297616
-0.0281558
-0.0270571
-0.0256862
-0.0240155
-0.022028
-0.0197293
-0.0171524
-0.0143572
-0.011298
-0.0295021
-0.0279867
-0.0270564
-0.0259345
-0.0245597
-0.0228825
-0.0208822
-0.0185746
-0.0160258
-0.013188
-0.0292247
-0.0277957
-0.0270272
-0.0261439
-0.0250551
-0.0236818
-0.0219798
-0.0199478
-0.0176607
-0.0150804
-0.0289271
-0.0275824
-0.0269703
-0.0263156
-0.0255013
-0.0244226
-0.0230137
-0.0212578
-0.0192437
-0.0169611
-0.0286028
-0.027342
-0.0268811
-0.0264445
-0.0258914
-0.0250946
-0.0239688
-0.0224817
-0.0207421
-0.0188003
-0.0282419
-0.027066
-0.0267496
-0.026519
-0.0262119
-0.0256809
-0.0248235
-0.0235878
-0.0220962
-0.0205104
-0.0278325
-0.0267424
-0.0265617
-0.0265222
-0.026443
-0.0261593
-0.0255555
-0.0245586
-0.0232532
-0.0219347
-0.0273611
-0.0263577
-0.0263006
-0.0264337
-0.0265605
-0.0264999
-0.0261235
-0.0253248
-0.0239715
-0.0222572
-0.026814
-0.0258984
-0.0259484
-0.0262302
-0.0265374
-0.0266782
-0.0265204
-0.0259746
-0.0249027
-0.023396
-0.0261787
-0.0253491
-0.0254853
-0.0258875
-0.0263447
-0.0266608
-0.0267026
-0.026395
-0.0256249
-0.024412
-0.0254462
-0.0246979
-0.0248956
-0.0253848
-0.0259546
-0.0264076
-0.0266074
-0.0264768
-0.0259185
-0.0249348
-0.0246119
-0.0239374
-0.0241686
-0.0247073
-0.0253473
-0.0258919
-0.0262014
-0.0261938
-0.0257854
-0.0249727
-0.0236752
-0.0230643
-0.0232996
-0.0238488
-0.0245149
-0.0251047
-0.0254777
-0.0255496
-0.0252507
-0.0245673
-0.0226399
-0.0220808
-0.0222912
-0.0228122
-0.0234611
-0.0240516
-0.0244451
-0.0245574
-0.024332
-0.0237429
-0.0215134
-0.0209941
-0.0211529
-0.0216098
-0.0222011
-0.0227513
-0.0231261
-0.0232437
-0.0230594
-0.0225378
-0.0203073
-0.0198163
-0.0199009
-0.0202622
-0.0207602
-0.0212342
-0.0215566
-0.0216492
-0.0214769
-0.0210006
-0.0190412
-0.0185633
-0.0185544
-0.0187946
-0.0191702
-0.0195386
-0.0197813
-0.0198246
-0.0196392
-0.0191844
)
;

boundaryField
{
    inlet
    {
        type            zeroGradient;
    }
    outlet
    {
        type            fixedValue;
        value           uniform 0;
    }
    cylinder
    {
        type            zeroGradient;
    }
    top
    {
        type            symmetryPlane;
    }
    bottom
    {
        type            symmetryPlane;
    }
    defaultFaces
    {
        type            empty;
    }
}


// ************************************************************************* //
