/*--------------------------------*- C++ -*----------------------------------*\
  =========                 |
  \\      /  F ield         | OpenFOAM: The Open Source CFD Toolbox
   \\    /   O peration     | Website:  https://openfoam.org
    \\  /    A nd           | Version:  7
     \\/     M anipulation  |
\*---------------------------------------------------------------------------*/
FoamFile
{
    version     2.0;
    format      ascii;
    class       surfaceScalarField;
    location    "33";
    object      phi;
}
// * * * * * * * * * * * * * * * * * * * * * * * * * * * * * * * * * * * * * //

dimensions      [0 3 -1 0 0 0 0];

internalField   nonuniform List<scalar> 
3880
(
0.000101827
-0.00238444
0.00228262
0.000334203
-0.00350285
0.00327048
0.000664689
-0.00262189
0.0022914
0.00105744
-0.000534357
0.000141603
0.00146917
0.00225558
-0.00266731
0.00186023
0.00540967
-0.00580072
0.00220354
0.00870177
-0.00904508
0.00248663
0.0119788
-0.0122619
0.00270639
0.0151248
-0.0153446
0.0180344
0.00285895
-0.0181869
7.87899e-05
-0.00246323
0.000288341
-0.0037124
0.000621
-0.00295455
0.00105611
-0.000969467
0.0015564
0.00175529
0.00208
0.00488606
0.0025925
0.00818927
0.00307149
0.0114998
0.0035033
0.014693
0.0176627
0.00387499
5.57859e-05
-0.00251902
0.000243017
-0.00389963
0.000578926
-0.00329046
0.00106022
-0.00145076
0.00165901
0.0011565
0.00233369
0.00421138
0.00304279
0.00748016
0.00375285
0.0107898
0.00443828
0.0140076
0.0170245
0.00507646
3.30112e-05
-0.00255203
0.000197512
-0.00406414
0.000533854
-0.0036268
0.00105724
-0.00197415
0.001753
0.000460738
0.00258433
0.00338006
0.00350547
0.00655902
0.00447228
0.00982296
0.00544592
0.013034
0.0160785
0.00639195
1.16941e-05
-0.00256372
0.000153133
-0.00420558
0.000484532
-0.0039582
0.00103857
-0.00252818
0.0018171
-0.000317795
0.00279418
0.00240297
0.0039257
0.00542751
0.0051604
0.00858826
0.00644633
0.011748
0.0147903
0.00773453
-7.07923e-06
-0.00255664
0.000113843
-0.0043265
0.000435086
-0.00427944
0.00100363
-0.00309672
0.00183924
-0.00115341
0.00293277
0.00130944
0.00425062
0.00410966
0.00574258
0.0070963
0.007348
0.0101426
0.0131373
0.00900102
-2.07293e-05
-0.00253592
8.66502e-05
-0.00443388
0.000396143
-0.00458893
0.000963211
-0.00366379
0.00182319
-0.00201339
0.00298742
0.000145214
0.00444206
0.00265502
0.00615073
0.00538762
0.0080563
0.00823704
0.011115
0.0100786
-2.43794e-05
-0.00251154
8.08891e-05
-0.00453915
0.000384081
-0.00489212
0.000940004
-0.00421971
0.00179303
-0.00286642
0.00297343
-0.00103518
0.00449283
0.00113562
0.00634281
0.00353764
0.00849183
0.00608802
0.00874474
0.010862
-1.48445e-05
-0.00249669
0.000106091
-0.00466008
0.000417804
-0.00520384
0.000964915
-0.00476683
0.00179107
-0.00369257
0.00293737
-0.00218149
0.00443815
-0.000365155
0.00632066
0.00165513
0.0086105
0.00379818
0.00607132
0.0112839
1.05716e-05
-0.00250726
0.000169416
-0.00481893
0.000513162
-0.00554758
0.00106841
-0.00532208
0.00186749
-0.00449165
0.00294826
-0.00326226
0.0043521
-0.00176899
0.00612191
-0.000114679
0.00834745
0.00157264
0.0112706
0.00314819
0.00191503
0.0841596
-0.0832157
0.000585628
0.113542
-0.112213
-0.000551366
0.137127
-0.13599
-0.00121628
0.155534
-0.154869
-0.00122048
0.170272
-0.170268
-0.00077139
0.184685
-0.185134
-5.4963e-05
0.204675
-0.205391
0.000107129
0.23679
-0.236952
0.000183154
0.288014
-0.28809
0.344461
-0.344278
0.00340012
0.0846345
0.00240421
0.114538
0.00142314
0.138108
0.000802897
0.156154
0.000717609
0.170357
0.000971627
0.184431
0.00139035
0.204256
0.00140416
0.236776
0.000886357
0.288531
0.345348
0.00507157
0.0846394
0.00438618
0.115224
0.00353743
0.138957
0.00290551
0.156786
0.00265363
0.170609
0.00271446
0.184371
0.00288316
0.204087
0.00262426
0.237035
0.00162175
0.289534
0.34697
0.00687921
0.0841521
0.00649055
0.115612
0.00574879
0.139698
0.00504837
0.157487
0.00460665
0.171051
0.00442502
0.184552
0.00435319
0.204159
0.00381455
0.237574
0.00234815
0.291
0.349318
0.00876053
0.0831261
0.0086654
0.115707
0.00800776
0.140356
0.00720633
0.158288
0.006542
0.171715
0.00609887
0.184995
0.00577902
0.204479
0.00498201
0.238371
0.00306494
0.292917
0.352383
0.0106388
0.0814883
0.0108474
0.115499
0.010264
0.140939
0.00934113
0.159211
0.00843216
0.172624
0.00771297
0.185714
0.00713791
0.205054
0.00609399
0.239415
0.00374278
0.295269
0.356125
0.0124372
0.0791297
0.012996
0.11494
0.0124975
0.141438
0.0114419
0.160267
0.0102727
0.173793
0.00926457
0.186723
0.00843891
0.20588
0.00716975
0.240684
0.00441018
0.298028
0.360536
0.0140453
0.0759465
0.0150047
0.113981
0.0146166
0.141826
0.0134413
0.161442
0.0120155
0.175219
0.010709
0.188029
0.00962353
0.206965
0.00813469
0.242173
0.00500694
0.301156
0.365543
0.0154482
0.0717822
0.0169497
0.112479
0.0167065
0.142069
0.0154104
0.162738
0.0137221
0.176907
0.012113
0.189638
0.0107842
0.208294
0.00909397
0.243863
0.00561192
0.304638
0.371154
0.0163119
0.0667409
0.018418
0.110373
0.0184496
0.142037
0.0171316
0.164056
0.0152506
0.178788
0.0133146
0.191574
0.0117566
0.209852
0.0098241
0.245796
0.00614737
0.308315
0.377302
0.000160085
0.0773334
-0.0107526
-0.00834795
0.118881
-0.0131905
0.14688
-0.0147104
0.165576
-0.0139458
0.178024
-0.0116604
0.189289
-0.00845501
0.206647
-0.00554077
0.242881
-0.00315836
0.305932
0.374143
0.00288375
0.0856042
-0.0111545
-0.00395798
0.125723
-0.00895045
0.151872
-0.011446
0.168072
-0.0119414
0.178519
-0.0109531
0.188301
-0.0089256
0.204619
-0.00653788
0.240494
-0.00380886
0.303203
0.370335
0.00475464
0.0921396
-0.01129
-0.000604635
0.131082
-0.00517012
0.156438
-0.00798078
0.170882
-0.00922914
0.179767
-0.00915456
0.188226
-0.00793735
0.203402
-0.00602945
0.238586
-0.00356995
0.300744
0.366765
0.00646116
0.0960517
-0.0103733
0.00277027
0.134773
-0.00150068
0.160709
-0.00500469
0.174386
-0.00735039
0.182113
-0.00848818
0.189364
-0.00837816
0.203292
-0.00690103
0.237109
-0.00415362
0.297996
0.362611
0.00685871
0.0979762
-0.00878329
0.00511294
0.136519
0.00204242
0.163779
-0.00127405
0.177703
-0.00394735
0.184786
-0.00573407
0.191151
-0.00642509
0.203983
-0.00592349
0.236607
-0.00383134
0.295904
0.35878
0.00748735
0.0982245
-0.00773561
0.00670744
0.137299
0.00388826
0.166599
0.000366039
0.181225
-0.00279792
0.18795
-0.00516154
0.193514
-0.00635906
0.205181
-0.00589424
0.236142
-0.0037362
0.293746
0.355044
0.00783572
0.0971048
-0.00671604
0.00860654
0.136528
0.00690332
0.168302
0.00357603
0.184552
5.14392e-05
0.191475
-0.00289354
0.196459
-0.00492306
0.20721
-0.00549849
0.236718
-0.0038428
0.292091
0.351201
0.00770553
0.095927
-0.00652772
0.00818316
0.13605
0.00686395
0.169621
0.00417362
0.187243
0.00108376
0.194565
-0.00164384
0.199187
-0.00358818
0.209154
-0.00426331
0.237393
-0.00307968
0.290907
0.348121
0.00841925
0.0938397
-0.00633196
0.00969993
0.13477
0.00878675
0.170534
0.00608941
0.18994
0.00264834
0.198006
-0.000616994
0.202452
-0.003117
0.211654
-0.00423329
0.238509
-0.00320956
0.289883
0.344911
0.00526492
-0.00405931
0.00659607
0.00682883
0.00554676
0.00347289
0.00119217
-0.000915105
-0.00245668
-0.00226328
0.0137721
-0.0148891
-0.00963566
0.0167559
-0.0141383
0.0188348
-0.0133689
0.0201172
-0.0116557
0.0208173
-0.00948336
0.0209647
-0.00788308
0.020828
-0.00657933
0.0204922
-0.00619186
0.0200394
-0.00587915
-0.0039862
0.0131695
-0.0186709
-0.00938773
0.0159998
-0.0169686
0.0179026
-0.0152717
0.0190089
-0.012762
0.0195212
-0.00999569
0.0194894
-0.00785126
0.0191733
-0.00626323
0.0186462
-0.00566478
0.0180452
-0.0052781
-0.00377241
0.0130373
-0.0220498
-0.00965842
0.0154296
-0.0193608
0.0169578
-0.0168
0.0177505
-0.0135547
0.0179962
-0.0102414
0.0177639
-0.00761894
0.017282
-0.00578135
0.016622
-0.00500484
0.0159372
-0.0045932
-0.00345049
0.0128473
-0.0248531
-0.0100439
0.0146664
-0.0211799
0.0157278
-0.0178614
0.0161563
-0.0139831
0.0161267
-0.0102118
0.0157178
-0.00721003
0.015115
-0.0051785
0.0143857
-0.00427553
0.0136706
-0.00387811
-0.00305433
0.012169
-0.0269481
-0.010074
0.0133696
-0.0223805
0.0139697
-0.0184615
0.0140714
-0.0140849
0.013826
-0.00996648
0.0133065
-0.00669049
0.0126497
-0.00452175
0.0119167
-0.00354248
0.0112173
-0.0031787
-0.00261581
0.0107206
-0.028295
-0.00937372
0.0113506
-0.0230104
0.0115724
-0.0186833
0.0114411
-0.0139536
0.0110756
-0.00960095
0.01053
-0.00614492
0.00989358
-0.00388528
0.00921712
-0.00286602
0.00857256
-0.00253415
-0.0021663
0.00843829
-0.0289524
-0.00778089
0.0086146
-0.0231867
0.00857847
-0.0186472
0.00832386
-0.013699
0.00793559
-0.00921268
0.0074429
-0.00565223
0.0068921
-0.00333447
0.00632054
-0.00229446
0.00576366
-0.00197727
-0.00173618
0.00545888
-0.0290408
-0.00537054
0.00532161
-0.0230494
0.00514368
-0.0184692
0.00485957
-0.0134149
0.00452495
-0.00887805
0.00414415
-0.00527143
0.0037257
-0.00291602
0.0032918
-0.00186057
0.00284793
-0.00153339
-0.00135433
0.00204014
-0.0286992
-0.00238171
0.00171336
-0.0227227
0.00147618
-0.0182321
0.00123084
-0.0131696
0.000995059
-0.00864227
0.000762737
-0.00503911
0.000500067
-0.00265335
0.00022189
-0.00158239
-0.000121281
-0.00119022
-0.0010728
-0.001532
-0.0280601
0.000892957
-0.00195592
-0.0222987
-0.00219796
-0.01799
-0.00237532
-0.0129922
-0.00249575
-0.00852184
-0.00257263
-0.00496223
-0.00267044
-0.00255554
-0.00279332
-0.00145951
-0.00298136
-0.00100218
-0.000859903
-0.00500219
-0.0272216
0.0041637
-0.00546882
-0.0218321
-0.00569434
-0.0177645
-0.00579849
-0.0128881
-0.00580249
-0.00851783
-0.00573238
-0.00503234
-0.00567747
-0.00261046
-0.00565857
-0.0014784
-0.00572737
-0.000933381
-0.000742283
-0.00819796
-0.0262873
0.00726363
-0.00866674
-0.0213633
-0.00887897
-0.0175523
-0.00890554
-0.0128615
-0.00881131
-0.00861207
-0.00861659
-0.00522706
-0.0084376
-0.00278944
-0.00830556
-0.00161045
-0.00827847
-0.000960466
-0.000707648
-0.0110035
-0.0253308
0.0100471
-0.0114495
-0.0209174
-0.0116564
-0.0173454
-0.0116151
-0.0129028
-0.0114501
-0.00877706
-0.0111655
-0.00551167
-0.0109021
-0.00305289
-0.0106958
-0.00181673
-0.0106045
-0.00105176
-0.000732414
-0.0133684
-0.0244031
0.0124406
-0.0137747
-0.020511
-0.0139865
-0.0171336
-0.0138955
-0.0129939
-0.013692
-0.00898055
-0.0133602
-0.00584342
-0.0130575
-0.00335559
-0.0128208
-0.0020535
-0.0127005
-0.00117204
-0.000787393
-0.0152917
-0.0235281
0.0144167
-0.015647
-0.0201558
-0.0158727
-0.0169078
-0.0157579
-0.0131087
-0.0155484
-0.00919
-0.0152156
-0.00617619
-0.0149183
-0.0036529
-0.014694
-0.00227781
-0.0145791
-0.001287
-0.000841464
-0.0168058
-0.022699
0.0159767
-0.0171031
-0.0198586
-0.0173484
-0.0166625
-0.017241
-0.0132162
-0.0170557
-0.0093753
-0.0167667
-0.00646518
-0.0165143
-0.00390523
-0.016341
-0.00245117
-0.0162625
-0.00136543
-0.000863499
-0.0179557
-0.0218774
0.0171341
-0.0181968
-0.0196175
-0.0184606
-0.0163986
-0.0183955
-0.0132813
-0.0182601
-0.00951075
-0.0180547
-0.00667049
-0.0178804
-0.00407958
-0.0177908
-0.00254078
-0.0177771
-0.00137917
-0.000823056
-0.0187644
-0.0210175
0.0179046
-0.0189761
-0.0194058
-0.0192537
-0.0161211
-0.0192695
-0.0132655
-0.0192066
-0.00957369
-0.0191186
-0.00675845
-0.0190495
-0.00414867
-0.0190715
-0.00251878
-0.0191489
-0.00130186
-0.000690375
-0.0192383
-0.0200913
0.0183121
-0.019488
-0.0191561
-0.0197712
-0.0158378
-0.0199034
-0.0131333
-0.0199328
-0.00954424
-0.0199887
-0.00670251
-0.0200484
-0.00408901
-0.0202073
-0.00235986
-0.0204021
-0.00110706
-0.000435919
-0.0194183
-0.0191186
0.0184456
-0.0197871
-0.0187873
-0.0200325
-0.0155924
-0.020294
-0.0128717
-0.0204399
-0.00939843
-0.0206664
-0.00647597
-0.020887
-0.00386838
-0.021212
-0.00203491
-0.0215618
-0.000757249
-3.29461e-05
-0.0816497
-0.018158
0.0806891
-0.0848798
-0.0155572
-0.0872114
-0.0132608
-0.0895495
-0.0105336
-0.091
-0.00794794
-0.0920601
-0.00541588
-0.0924966
-0.00343185
-0.0927001
-0.00183143
-0.0926902
-0.00076721
-4.24695e-05
-0.101521
-0.0165177
0.0998807
-0.103893
-0.0131852
-0.105715
-0.0114392
-0.107615
-0.00863303
-0.108877
-0.00668561
-0.109813
-0.00448048
-0.110234
-0.003011
-0.110422
-0.00164283
-0.110416
-0.000773206
-5.98317e-05
-0.121464
-0.0146687
0.119615
-0.123382
-0.0112674
-0.125069
-0.00975215
-0.126595
-0.00710718
-0.127627
-0.00565293
-0.128356
-0.00375205
-0.12868
-0.00268657
-0.128817
-0.00150585
-0.128794
-0.000796545
-7.37727e-05
-0.142905
-0.0129482
0.141184
-0.144571
-0.00960095
-0.146046
-0.0082775
-0.147251
-0.00590196
-0.148095
-0.00480901
-0.148677
-0.00317037
-0.14894
-0.00242378
-0.149058
-0.00138766
-0.149039
-0.000815172
-7.81762e-05
-0.167738
-0.011148
0.165938
-0.169184
-0.00815429
-0.170481
-0.00698131
-0.171486
-0.00489685
-0.172234
-0.00406093
-0.172739
-0.00266475
-0.173006
-0.00215688
-0.17316
-0.00123386
-0.173181
-0.000794753
-6.02234e-05
-0.19786
-0.00926889
0.195981
-0.199248
-0.00676612
-0.200529
-0.00570035
-0.201494
-0.00393218
-0.202234
-0.00332054
-0.202752
-0.00214651
-0.203123
-0.0017863
-0.2034
-0.000956979
-0.203546
-0.000648806
4.84952e-06
-0.233817
-0.00701546
0.231564
-0.235668
-0.00491489
-0.237178
-0.00419063
-0.238178
-0.00293252
-0.23898
-0.00251826
-0.239597
-0.00153009
-0.24014
-0.00124315
-0.240608
-0.000488945
-0.240936
-0.000320376
8.77069e-05
-0.274454
-0.00499716
0.272436
-0.275552
-0.00381645
-0.276648
-0.0030948
-0.277624
-0.00195651
-0.278559
-0.00158335
-0.279267
-0.000822028
-0.279933
-0.000577263
-0.280429
7.14902e-06
-0.280788
3.851e-05
0.000170625
-0.304214
-0.00236761
0.301585
-0.306834
-0.00119649
-0.30893
-0.000999121
-0.310192
-0.000695071
-0.311172
-0.000602498
-0.311684
-0.000310377
-0.312116
-0.000145286
-0.312265
0.00015575
-0.312377
0.000150619
0.000119879
-0.325039
0.322671
-0.326236
-0.327235
-0.32793
-0.328532
-0.328843
-0.328988
-0.328832
-0.328682
-0.0215387
0.082761
0.0194667
-0.0226863
0.101028
-0.0231496
0.120078
-0.0230084
0.141043
-0.0223183
0.165247
-0.020871
0.194533
-0.0184807
0.229173
-0.0125097
0.266465
-0.00785351
0.296929
0.314818
-0.0205402
0.0841121
0.0191891
-0.0214684
0.101957
-0.0217521
0.120362
-0.0214521
0.140743
-0.0206246
0.16442
-0.0190989
0.193008
-0.0165757
0.22665
-0.0122275
0.262117
-0.00687025
0.291571
0.307948
-0.0196371
0.0852069
0.0185424
-0.0203524
0.102672
-0.0204787
0.120488
-0.0200932
0.140358
-0.019231
0.163558
-0.0177379
0.191515
-0.0152733
0.224186
-0.0113509
0.258194
-0.00621316
0.286434
0.301735
-0.0185789
0.0861585
0.0176273
-0.0190988
0.103192
-0.0190602
0.12045
-0.0185785
0.139876
-0.0176805
0.16266
-0.01622
0.190054
-0.0138717
0.221837
-0.0103174
0.25464
-0.00553043
0.281647
0.296204
-0.017344
0.086989
0.0165136
-0.0177033
0.103551
-0.017529
0.120275
-0.0169652
0.139312
-0.0160398
0.161734
-0.0146178
0.188632
-0.0124185
0.219638
-0.00919139
0.251413
-0.00487705
0.277332
0.291327
-0.0159505
0.0876888
0.0152507
-0.0161554
0.103756
-0.0158684
0.119988
-0.015244
0.138688
-0.0143086
0.160799
-0.0129435
0.187267
-0.0109182
0.217613
-0.00802095
0.248515
-0.00424385
0.273555
0.287083
-0.0144352
0.0882478
0.0138762
-0.0144838
0.103804
-0.0140914
0.119596
-0.0134176
0.138014
-0.0124862
0.159868
-0.0111981
0.185979
-0.00936911
0.215784
-0.00682753
0.245974
-0.00360649
0.270334
0.283477
-0.0128315
0.0886552
0.0124241
-0.0127281
0.103701
-0.0122337
0.119102
-0.0115141
0.137294
-0.0105932
0.158947
-0.00939587
0.184782
-0.00778101
0.214169
-0.00562037
0.243813
-0.00295821
0.267672
0.280519
-0.011171
0.0888972
0.010929
-0.0109241
0.103454
-0.0103314
0.118509
-0.00956817
0.136531
-0.00866054
0.158039
-0.00756175
0.183683
-0.00617197
0.212779
-0.00440638
0.242048
-0.00230222
0.265568
0.278216
-0.0094858
0.088956
0.00942698
-0.00910575
0.103074
-0.00841567
0.117819
-0.00761152
0.135727
-0.00671761
0.157145
-0.00572236
0.182688
-0.00456322
0.21162
-0.00319756
0.240682
-0.00164769
0.264018
0.276569
-0.00781244
0.0888066
0.00796186
-0.00731464
0.102576
-0.0065219
0.117026
-0.00567895
0.134884
-0.00479618
0.156262
-0.00390426
0.181796
-0.00297408
0.21069
-0.00200667
0.239715
-0.00100183
0.263013
0.275567
-0.00619813
0.0884466
0.00655809
-0.0055878
0.101966
-0.00469499
0.116133
-0.00381218
0.134001
-0.00293796
0.155388
-0.00214126
0.180999
-0.00142777
0.209976
-0.000843231
0.23913
-0.000371903
0.262542
0.275195
-0.00469726
0.0878923
0.00525161
-0.00396817
0.101237
-0.00298679
0.115152
-0.00206178
0.133076
-0.00119865
0.154525
-0.000493062
0.180293
-1.18686e-05
0.209495
0.000259395
0.238859
0.000226317
0.262575
0.275421
-0.00334138
0.0871717
0.00406191
-0.00248108
0.100377
-0.00143746
0.114108
-0.000478617
0.132117
0.000402861
0.153644
0.00110312
0.179593
0.00144242
0.209156
0.00133437
0.238967
0.000805292
0.263104
0.276227
-0.00215112
0.0863261
0.00299678
-0.00114683
0.0993724
-0.000114343
0.113076
0.00104871
0.130954
0.00199008
0.152702
0.00261501
0.178968
0.00277754
0.208993
0.00235158
0.239393
0.00135796
0.264098
0.277584
-0.00113681
0.0854111
0.00205175
-3.46167e-05
0.0982703
0.00125715
0.111784
0.00243551
0.129776
0.00338825
0.15175
0.00397089
0.178386
0.00398632
0.208978
0.00327507
0.240104
0.00185806
0.265515
0.279443
-0.000306301
0.0845133
0.00120415
0.0011242
0.0968398
0.00242098
0.110487
0.00365681
0.12854
0.00464572
0.150761
0.0052135
0.177818
0.00511579
0.209075
0.00414928
0.241071
0.00233786
0.267326
0.28178
0.000467935
0.0836299
0.000415445
0.0020272
0.0952805
0.00336116
0.109153
0.00464627
0.127255
0.00566691
0.14974
0.00622838
0.177256
0.00604791
0.209256
0.00487799
0.24224
0.00273308
0.269471
0.284513
0.00128863
0.0826885
-0.000347228
0.00289081
0.0936783
0.00426206
0.107782
0.00559108
0.125926
0.00665193
0.148679
0.00722078
0.176688
0.00696848
0.209508
0.00560174
0.243607
0.00313408
0.271939
0.287648
0.00157526
0.0821591
-0.00104587
0.00323591
0.0920177
0.00464588
0.106372
0.00599486
0.124577
0.00708705
0.147587
0.00768695
0.176088
0.00743607
0.209759
0.00599369
0.24505
0.00333888
0.274594
0.290986
-0.0714311
0.0738066
0.0797836
-0.0632521
0.0838386
-0.057123
0.100243
-0.050681
0.118135
-0.0442119
0.141118
-0.0373815
0.169257
-0.0297018
0.202079
-0.0207784
0.236126
-0.0106356
0.264451
0.280351
-0.0841181
0.0664688
0.0914559
-0.076553
0.0762735
-0.0695057
0.0931956
-0.0619061
0.110535
-0.0545258
0.133737
-0.04648
0.161211
-0.0372294
0.192829
-0.0263402
0.225237
-0.0138799
0.251991
0.266471
-0.0980215
0.0589446
0.105546
-0.0902528
0.0685048
-0.0825714
0.0855142
-0.0743674
0.102331
-0.0659726
0.125343
-0.0562377
0.151477
-0.0449661
0.181557
-0.0315814
0.211852
-0.0160788
0.236488
0.250392
-0.114724
0.051818
0.12185
-0.10703
0.0608108
-0.0992136
0.077698
-0.0903621
0.0934798
-0.0806759
0.115656
-0.0690762
0.139877
-0.0554749
0.167956
-0.039191
0.195568
-0.0206533
0.21795
0.229739
-0.134759
0.0443151
0.142262
-0.12729
0.0533416
-0.118589
0.0689965
-0.108375
0.0832658
-0.0967493
0.104031
-0.0825879
0.125716
-0.0658832
0.151251
-0.0458929
0.175578
-0.0231454
0.195203
0.206593
-0.160733
0.0374502
0.167598
-0.152727
0.0453355
-0.142939
0.0592078
-0.131376
0.0717031
-0.117595
0.0902505
-0.100646
0.108766
-0.0803636
0.130969
-0.0561744
0.151389
-0.0296702
0.168698
0.176923
-0.19003
0.0294
0.19808
-0.181323
0.0366286
-0.169819
0.0477045
-0.155931
0.0578149
-0.138844
0.073163
-0.11769
0.0876124
-0.0920385
0.105317
-0.0622379
0.121588
-0.0305382
0.136999
0.146385
-0.226965
0.0214875
0.234878
-0.216521
0.0261844
-0.203038
0.0342216
-0.186652
0.0414286
-0.165979
0.0524903
-0.140517
0.0621502
-0.110193
0.074993
-0.0760602
0.0874559
-0.0404108
0.101349
0.105974
-0.257574
0.0103937
0.268667
-0.244214
0.012825
-0.227133
0.0171404
-0.206576
0.0208711
-0.180649
0.0265632
-0.149884
0.0313859
-0.113484
0.0385926
-0.071197
0.0451689
-0.0253315
0.0554838
0.0806427
-0.328674
0.339067
-0.315849
-0.298708
-0.277837
-0.251274
-0.219888
-0.181296
-0.136127
-0.0806427
-0.0013688
0.0820135
-0.000861093
-0.00321839
0.0933055
-0.00472163
0.107049
-0.00589421
0.123023
-0.00666441
0.143033
-0.00698837
0.167922
-0.00660329
0.197695
-0.00533256
0.233607
-0.0040344
0.267369
0.335033
-0.000733658
0.0844289
-0.00168176
-0.00278199
0.0953538
-0.00442662
0.108694
-0.0056556
0.124252
-0.00647539
0.143852
-0.00681108
0.168258
-0.00649451
0.197378
-0.00525498
0.232367
-0.00364376
0.265758
0.331389
6.58796e-05
0.0868385
-0.00247546
-0.00195901
0.0973787
-0.00364122
0.110376
-0.00489498
0.125506
-0.00574694
0.144704
-0.00610669
0.168618
-0.00588991
0.197161
-0.00475814
0.231236
-0.00332881
0.264329
0.32806
0.000987712
0.0891361
-0.00328538
-0.00112653
0.0994929
-0.00274878
0.111998
-0.0039857
0.126743
-0.00482323
0.145542
-0.00522592
0.16902
-0.00508377
0.197019
-0.00413897
0.230291
-0.00293318
0.263123
0.325127
0.0018722
0.0913851
-0.00412113
-0.00032007
0.101685
-0.00185794
0.113536
-0.0030599
0.127945
-0.00386611
0.146348
-0.00428872
0.169443
-0.00421499
0.196945
-0.0034594
0.229535
-0.00249384
0.262157
0.322633
0.00281474
0.0935417
-0.00497135
0.000695909
0.103804
-0.000884909
0.115117
-0.00205396
0.129114
-0.00283533
0.147129
-0.00327698
0.169885
-0.00329082
0.196959
-0.00272249
0.228967
-0.00201902
0.261454
0.320614
0.00381276
0.095552
-0.0058231
0.0018025
0.105814
0.000194323
0.116725
-0.000942567
0.130251
-0.00169717
0.147884
-0.00216594
0.170353
-0.00228933
0.197083
-0.00191889
0.228596
-0.00150359
0.261039
0.319111
0.00484423
0.0973683
-0.00666046
0.00295054
0.107708
0.00142874
0.118247
0.000269525
0.13141
-0.000459188
0.148613
-0.000964273
0.170859
-0.00118334
0.197302
-0.00105185
0.228465
-0.000944541
0.260931
0.318166
0.00588514
0.098944
-0.00746084
0.00413054
0.109463
0.00267413
0.119703
0.00159996
0.132484
0.00085931
0.149353
0.000314693
0.171403
4.15312e-05
0.197575
-0.000150005
0.228656
-0.000339301
0.261121
0.317827
0.00691057
0.100229
-0.00819549
0.00532057
0.111053
0.00394119
0.121083
0.00292966
0.133495
0.00221728
0.150066
0.00166857
0.171952
0.00121415
0.198029
0.000841825
0.229029
0.00027296
0.26169
0.3181
0.00791214
0.101142
-0.00882506
0.00650027
0.112464
0.00521542
0.122367
0.00426475
0.134446
0.00358796
0.150743
0.00301476
0.172525
0.00244216
0.198602
0.001825
0.229646
0.000873312
0.262641
0.318973
0.00886396
0.101615
-0.00933691
0.00767042
0.113658
0.00649117
0.123547
0.00560084
0.135336
0.0049594
0.151384
0.0043687
0.173116
0.00368078
0.19929
0.0028138
0.230513
0.00149228
0.263963
0.320466
0.00972034
0.101599
-0.00970509
0.00878521
0.114593
0.00773079
0.124601
0.0069055
0.136162
0.00630246
0.151987
0.00570589
0.173712
0.00490693
0.200089
0.00380265
0.231617
0.00211418
0.265651
0.32258
0.0104494
0.101064
-0.00991401
0.00981308
0.115229
0.00890495
0.125509
0.0081479
0.136919
0.00758875
0.152546
0.00699615
0.174305
0.00609716
0.200988
0.00477139
0.232943
0.00272461
0.267698
0.325304
0.0110212
0.0999967
-0.00995383
0.0107309
0.11552
0.00999521
0.126245
0.00930762
0.137606
0.00879992
0.153054
0.00822188
0.174883
0.00724334
0.201966
0.00571342
0.234473
0.00332314
0.270088
0.328627
0.011402
0.0984208
-0.00982605
0.0115018
0.11542
0.0109618
0.126785
0.0103444
0.138224
0.00989294
0.153505
0.0093408
0.175435
0.00830748
0.203
0.00659695
0.236183
0.00389046
0.272795
0.332518
0.011586
0.0963838
-0.00954902
0.0121419
0.114864
0.0118179
0.127109
0.0112749
0.138767
0.0108807
0.153899
0.0103692
0.175947
0.00930738
0.204061
0.00743678
0.238054
0.00443668
0.275795
0.336955
0.0115055
0.0940354
-0.00915713
0.0125356
0.113834
0.0124434
0.127201
0.011997
0.139213
0.0116669
0.15423
0.0112077
0.176406
0.0101505
0.205119
0.00816998
0.240035
0.00492603
0.279039
0.341881
0.0113966
0.0913757
-0.00873686
0.0129438
0.112287
0.013066
0.127079
0.0126981
0.139581
0.0124104
0.154517
0.0120039
0.176812
0.0109572
0.206165
0.00886882
0.242123
0.00539001
0.282518
0.347271
0.0106898
0.0889469
-0.00826106
0.0127126
0.110264
0.0131506
0.126641
0.0129239
0.139808
0.0127055
0.154736
0.0123725
0.177145
0.0114302
0.207108
0.00932156
0.244232
0.00574434
0.286095
0.353015
-0.047398
0.081641
0.054704
-0.0407582
0.103624
-0.0359138
0.121796
-0.0303108
0.134205
-0.0247562
0.149181
-0.0193713
0.17176
-0.0141568
0.201893
-0.00893827
0.239013
-0.00449823
0.281655
0.348517
-0.0712362
0.0738176
0.0790596
-0.0630541
0.0954419
-0.0547569
0.113499
-0.0463637
0.125812
-0.0388365
0.141654
-0.0306846
0.163609
-0.0224874
0.193696
-0.0144851
0.231011
-0.0071719
0.274342
0.341345
-0.0962144
0.0632741
0.106758
-0.0836361
0.0828636
-0.0722779
0.102141
-0.0627011
0.116235
-0.0534393
0.132392
-0.0429414
0.153111
-0.0319706
0.182725
-0.0207021
0.219742
-0.00989068
0.26353
0.331454
-0.121722
0.0498519
0.135144
-0.106409
0.06755
-0.0928919
0.0886241
-0.08087
0.104213
-0.0692645
0.120787
-0.0569727
0.140819
-0.043251
0.169003
-0.0280773
0.204569
-0.0132279
0.248681
0.318226
-0.149473
0.0360131
0.163311
-0.134517
0.052594
-0.118991
0.0730986
-0.103855
0.0890771
-0.0895758
0.106507
-0.0745152
0.125758
-0.0572108
0.151699
-0.0373517
0.184709
-0.0171669
0.228496
0.301059
-0.17953
0.0255452
0.189998
-0.166164
0.0392282
-0.149728
0.0566626
-0.132576
0.0719253
-0.115042
0.0889737
-0.0958145
0.10653
-0.0742113
0.130096
-0.0490794
0.159578
-0.023029
0.202446
0.27803
-0.211059
0.0178542
0.21875
-0.20032
0.0284887
-0.185235
0.0415775
-0.167655
0.0543456
-0.147358
0.0686764
-0.124224
0.083397
-0.0974075
0.103279
-0.0656085
0.127779
-0.0315449
0.168382
0.246485
-0.247211
0.0125549
0.252511
-0.23785
0.0191272
-0.224034
0.027762
-0.206103
0.0364141
-0.183861
0.0464342
-0.157481
0.0570175
-0.125518
0.0713159
-0.0881419
0.0904025
-0.0462032
0.126443
0.200282
-0.302652
0.0059335
0.309273
-0.292688
0.0091629
-0.278134
0.0132086
-0.259329
0.0176088
-0.235616
0.0227212
-0.207203
0.0286046
-0.17235
0.0364633
-0.129959
0.0480107
-0.0745773
0.0710622
0.125705
-0.372547
0.378481
-0.363384
-0.350176
-0.332567
-0.309846
-0.281241
-0.244778
-0.196767
-0.125705
0.00188502
0.0588547
-0.00603569
-0.00257407
0.0835187
-0.00659877
0.110783
-0.00992307
0.138469
-0.0118191
0.165207
-0.0120947
0.190273
-0.0107256
0.217381
-0.0086963
0.250481
-0.00528901
0.305866
0.373192
0.00103954
0.0628006
-0.00498543
-0.00336775
0.087926
-0.00753189
0.114947
-0.010725
0.141662
-0.0123486
0.166831
-0.0122929
0.190217
-0.0107673
0.215855
-0.00866403
0.248378
-0.00530977
0.302512
0.367882
0.000346343
0.0664121
-0.0039579
-0.00387898
0.0921513
-0.00782504
0.118893
-0.0106886
0.144525
-0.0119723
0.168115
-0.0116428
0.189888
-0.0100749
0.214288
-0.00799588
0.246299
-0.00496235
0.299478
0.36292
-0.000300027
0.0697483
-0.00303612
-0.00420183
0.0960531
-0.00775128
0.122442
-0.0102221
0.146996
-0.0111854
0.169078
-0.0107096
0.189412
-0.00914601
0.212724
-0.00721026
0.244363
-0.00450334
0.296771
0.358416
-0.000795968
0.0728189
-0.0022747
-0.00439952
0.0996567
-0.00755537
0.125598
-0.00962748
0.149068
-0.0102713
0.169722
-0.00965335
0.188794
-0.00812168
0.211192
-0.00635831
0.2426
-0.00397477
0.294388
0.354441
-0.001067
0.0756032
-0.00171723
-0.00434689
0.102937
-0.00713599
0.128387
-0.00883364
0.150766
-0.00920771
0.170096
-0.00847788
0.188064
-0.00701866
0.209733
-0.00543549
0.241017
-0.00338895
0.292341
0.351053
-0.00106783
0.0780672
-0.00139616
-0.00397815
0.105847
-0.00639378
0.130803
-0.00776982
0.152142
-0.00794397
0.17027
-0.00715841
0.187279
-0.00582222
0.208397
-0.00443118
0.239626
-0.00275264
0.290663
0.3483
-0.00076531
0.0801783
-0.00134584
-0.00328049
0.108362
-0.00533138
0.132854
-0.00643616
0.153247
-0.0064809
0.170315
-0.00569608
0.186494
-0.00451586
0.207217
-0.00334824
0.238458
-0.00207234
0.289387
0.346228
-0.000126159
0.0818811
-0.0015766
-0.00226525
0.110501
-0.00398285
0.134571
-0.00487021
0.154134
-0.00485048
0.170295
-0.00411774
0.185761
-0.00311557
0.206214
-0.00220733
0.23755
-0.00135352
0.288533
0.344874
0.000751171
-0.00208581
-0.000960663
-0.00237904
-0.00311404
-0.00308675
-0.00245989
-0.00163678
-0.00103904
-0.00059575
5.07937e-05
-0.00255806
0.000272569
-0.0050407
0.000675698
-0.00595071
0.00126733
-0.00591371
0.0020622
-0.00528652
0.00308188
-0.00428194
0.00434842
-0.00303553
0.00587715
-0.00164341
0.00765416
-0.000204366
0.00116669
0.000101919
-0.00265997
0.000404912
-0.00534369
0.000892822
-0.00643862
0.00155322
-0.0065741
0.00238416
-0.00611746
0.00339262
-0.0052904
0.00458932
-0.00423223
0.00598303
-0.00303711
0.0075715
-0.00179284
-0.000649541
0.000161495
-0.00282147
0.000554777
-0.00573698
0.00113857
-0.00702241
0.00188515
-0.00732069
0.00278167
-0.00701398
0.00382702
-0.00633575
0.00502788
-0.0054331
0.0063954
-0.00440463
0.00794105
-0.00333849
-0.00236691
0.00022181
-0.00304328
0.000699893
-0.00621506
0.0013697
-0.00769222
0.0021927
-0.00814369
0.00315096
-0.00797223
0.00424088
-0.00742567
0.0054681
-0.00666032
0.00684352
-0.00578006
0.00837576
-0.00487072
-0.00403509
0.000274087
-0.00331737
0.000815056
-0.00675603
0.00153731
-0.00841447
0.0023952
-0.00900158
0.00337001
-0.00894704
0.00445952
-0.00851519
0.0056703
-0.00787109
0.00701197
-0.00712172
0.00848802
-0.00634678
-0.00562108
0.000309653
-0.00362702
0.000876425
-0.0073228
0.00159705
-0.00913509
0.00242206
-0.00982659
0.0033349
-0.00985987
0.00433704
-0.00951733
0.0054376
-0.00897166
0.00664621
-0.00833033
0.00796452
-0.00766508
-0.00703028
0.000321098
-0.00394812
0.000865424
-0.00786712
0.00151776
-0.00978743
0.00222866
-0.0105375
0.00298623
-0.0106174
0.0037972
-0.0103283
0.00467457
-0.00984903
0.00563001
-0.00928577
0.00666769
-0.00870276
-0.00814348
0.000303217
-0.00425133
0.000771502
-0.00833541
0.00128652
-0.0103024
0.00180394
-0.0110549
0.0023193
-0.0111328
0.00284604
-0.010855
0.00340206
-0.0104051
0.0040026
-0.00988631
0.00465697
-0.00935713
-0.00885704
0.00025363
-0.00450496
0.000593363
-0.00867514
0.00090961
-0.0106187
0.00116924
-0.0113145
0.00137819
-0.0113418
0.00155776
-0.0110346
0.00173124
-0.0105785
0.00191753
-0.0100726
0.00212999
-0.00956959
-0.00910877
0.000172905
-0.00467787
0.000338572
-0.00884081
0.000409696
-0.0106898
0.000370259
-0.0112751
0.000238914
-0.0112104
4.51514e-05
-0.0108408
-0.000182935
-0.0103504
-0.000423212
-0.00983233
-0.000660757
-0.00933204
-0.00887657
8.6306e-05
-0.00476418
5.16052e-05
-0.00880611
-0.000150261
-0.0104879
-0.000508125
-0.0109172
-0.000988255
-0.0107303
-0.00155313
-0.010276
-0.00217126
-0.00973231
-0.00282052
-0.00918307
-0.00348738
-0.00866518
-0.00820025
-3.63475e-05
-0.00472783
-0.000298371
-0.00854408
-0.000782601
-0.0100037
-0.00145191
-0.0102479
-0.00225965
-0.00992255
-0.00316335
-0.00937228
-0.00413102
-0.00876464
-0.00514222
-0.00817188
-0.00618629
-0.00762111