/*--------------------------------*- C++ -*----------------------------------*\
  =========                 |
  \\      /  F ield         | OpenFOAM: The Open Source CFD Toolbox
   \\    /   O peration     | Website:  https://openfoam.org
    \\  /    A nd           | Version:  7
     \\/     M anipulation  |
\*---------------------------------------------------------------------------*/
FoamFile
{
    version     2.0;
    format      ascii;
    class       volVectorField;
    location    "33";
    object      U;
}
// * * * * * * * * * * * * * * * * * * * * * * * * * * * * * * * * * * * * * //

dimensions      [0 1 -1 0 0 0 0];

internalField   nonuniform List<vector> 
2000
(
(0.00184305 -0.0233419 4.30873e-22)
(0.0052356 -0.0337476 0)
(0.00930418 -0.0242089 0)
(0.0129919 -0.00275515 1.8958e-21)
(0.0160186 0.0254968 -6.45376e-22)
(0.0180984 0.0571455 -1.29781e-23)
(0.0191474 0.0899789 1.10955e-21)
(0.0192707 0.122538 0)
(0.0185872 0.153713 0)
(0.0172631 0.182461 0)
(0.00346708 -0.0240555 0)
(0.0073728 -0.0355109 1.45696e-21)
(0.0106716 -0.0267947 -1.34358e-21)
(0.0131879 -0.00587706 -2.57565e-21)
(0.0149746 0.0222297 0)
(0.0158801 0.054101 -2.12099e-21)
(0.0158463 0.087401 1.97237e-21)
(0.0149685 0.120533 0)
(0.0133606 0.1523 -3.32677e-21)
(0.0111213 0.181659 6.2478e-21)
(0.00516608 -0.024432 0)
(0.00978073 -0.0369168 -1.02355e-20)
(0.0125243 -0.0293289 0)
(0.0140787 -0.00940405 -8.25503e-21)
(0.0148356 0.0180688 0)
(0.0147879 0.0497318 6.89903e-21)
(0.0139038 0.083176 0)
(0.0122599 0.116682 -6.2423e-21)
(0.00996851 0.148962 5.8463e-21)
(0.00704372 0.178933 4.88841e-21)
(0.00688454 -0.0244625 2.61381e-21)
(0.0124009 -0.0379339 5.36119e-21)
(0.0148297 -0.0317493 2.20478e-21)
(0.015648 -0.013266 4.42429e-21)
(0.0155839 0.0130532 3.53832e-21)
(0.0147908 0.0440206 -3.74049e-21)
(0.0132773 0.0772321 -2.93688e-21)
(0.011098 0.110878 4.10997e-22)
(0.00835946 0.143578 -4.88998e-21)
(0.00498751 0.174167 -4.8817e-21)
(0.00857769 -0.0241567 2.4075e-21)
(0.0151956 -0.038528 4.26849e-21)
(0.0175809 -0.0339532 7.00021e-21)
(0.0179056 -0.017314 -3.453e-21)
(0.0172225 0.00732371 0)
(0.0158656 0.0370455 0)
(0.0139121 0.0695547 4.71596e-21)
(0.0114072 0.103019 4.25536e-21)
(0.00844388 0.13599 -3.4214e-21)
(0.00485258 0.167185 -9.96538e-21)
(0.0102165 -0.0235316 -2.1073e-21)
(0.0181579 -0.0386632 -1.76944e-21)
(0.0208054 -0.0357978 8.80236e-21)
(0.0209005 -0.0213091 -1.33982e-20)
(0.0197964 0.00115749 2.58011e-21)
(0.0180257 0.0290361 0)
(0.0157733 0.060254 0)
(0.0131118 0.0930653 -1.62706e-20)
(0.0101217 0.126025 1.53449e-20)
(0.00650384 0.157725 -3.05313e-21)
(0.0117915 -0.0226161 -1.45405e-20)
(0.021318 -0.0383106 0)
(0.0245729 -0.0371066 -1.25157e-20)
(0.0247282 -0.0249205 1.06055e-20)
(0.0234047 -0.00500637 0)
(0.0213443 0.0204429 -3.28211e-21)
(0.0188812 0.0496732 8.04154e-21)
(0.0161747 0.0811586 1.06554e-20)
(0.0133218 0.113591 -4.48097e-21)
(0.00981183 0.145495 -4.58443e-21)
(0.0133236 -0.0214622 2.74123e-20)
(0.0247423 -0.037446 2.84764e-21)
(0.028989 -0.0376846 4.1378e-21)
(0.0295188 -0.0277477 9.27369e-21)
(0.0281913 -0.010573 2.97543e-21)
(0.0259563 0.0119776 1.57671e-21)
(0.0233304 0.0384977 -1.60049e-21)
(0.0206316 0.0677927 0)
(0.0180538 0.0988612 0)
(0.0147582 0.13029 5.63141e-22)
(0.0148754 -0.0201391 -1.2872e-20)
(0.0285294 -0.0360545 9.64969e-21)
(0.0341745 -0.0373496 -7.18304e-21)
(0.0354079 -0.0293757 -1.17663e-20)
(0.0343055 -0.0148558 2.65837e-21)
(0.0320151 0.00457479 -3.08385e-21)
(0.0292529 0.0277928 -1.90447e-21)
(0.0265648 0.0539406 0)
(0.0244132 0.0824093 0)
(0.0216197 0.112051 5.34253e-22)
(0.0165459 -0.0187179 1.32799e-21)
(0.0327988 -0.0341419 -1.16877e-20)
(0.0402348 -0.0359719 1.87787e-21)
(0.0424899 -0.0294604 0)
(0.0418386 -0.0172098 0)
(0.0396017 -0.000752901 -2.84765e-21)
(0.0366724 0.0189286 0)
(0.0338247 0.0411341 4.42998e-22)
(0.0320002 0.0654418 -2.04953e-22)
(0.0306204 0.0907103 -1.9985e-22)
(0.0154367 0.239133 -1.97427e-22)
(-0.00193336 0.322436 1.99725e-22)
(-0.0111341 0.390017 6.80125e-23)
(-0.0210647 0.443175 -3.83996e-23)
(-0.023698 0.486201 -1.84793e-22)
(-0.0179132 0.528049 -4.19609e-23)
(-0.0157288 0.585611 1.22341e-22)
(-0.000639368 0.676448 5.43715e-22)
(-0.0108756 0.822838 0)
(0.00751755 0.983401 -4.53641e-22)
(0.00690385 0.239927 -9.02599e-22)
(-0.00985166 0.324265 4.0866e-22)
(-0.0183464 0.391377 -5.93028e-22)
(-0.0267197 0.443308 3.84694e-23)
(-0.0278011 0.484699 2.56979e-22)
(-0.0209481 0.525382 6.60621e-22)
(-0.0178923 0.582328 -2.93122e-22)
(-0.00244887 0.67424 -3.70993e-22)
(-0.011623 0.821175 7.42676e-22)
(0.00666546 0.98212 4.52558e-22)
(0.000445733 0.238966 0)
(-0.0160309 0.32453 4.55689e-22)
(-0.0241449 0.391457 1.1335e-22)
(-0.0312546 0.442438 0)
(-0.0311761 0.482406 -9.28136e-22)
(-0.0235526 0.522059 2.4291e-22)
(-0.0197873 0.578339 4.44536e-22)
(-0.00411156 0.671225 1.89514e-21)
(-0.0122697 0.819108 -7.40277e-22)
(0.00592372 0.980718 1.56241e-21)
(-0.00391575 0.236216 0)
(-0.0205252 0.323254 -4.59635e-22)
(-0.0286109 0.390304 0)
(-0.0347697 0.440595 6.71343e-22)
(-0.0338965 0.479416 -6.74726e-22)
(-0.0257613 0.51807 -9.04184e-22)
(-0.0214538 0.573604 -1.34025e-22)
(-0.00563437 0.667023 -1.85421e-21)
(-0.0128638 0.815935 -2.94803e-22)
(0.0051945 0.978527 -1.90785e-21)
(-0.00622229 0.23163 4.48025e-22)
(-0.0234292 0.320575 1.50724e-21)
(-0.0318571 0.388202 5.45855e-22)
(-0.0373754 0.438141 -8.36367e-23)
(-0.0360352 0.476037 0)
(-0.0276171 0.513672 -8.60487e-22)
(-0.022938 0.568421 -2.01517e-22)
(-0.00702779 0.662346 2.27401e-21)
(-0.0133413 0.812849 3.30525e-22)
(0.00457093 0.976461 -3.31688e-22)
(-0.00656551 0.225124 2.92504e-21)
(-0.024815 0.316291 -1.6239e-21)
(-0.0339464 0.384767 1.41951e-22)
(-0.0391403 0.434763 -1.41845e-22)
(-0.0376506 0.472062 -4.6536e-22)
(-0.0291496 0.508716 0)
(-0.0242616 0.562401 -1.89474e-21)
(-0.00832187 0.656228 9.43908e-22)
(-0.0138509 0.808047 1.13778e-21)
(0.00387652 0.973342 1.26892e-21)
(-0.00511516 0.216618 2.32826e-22)
(-0.0248671 0.310975 0)
(-0.0350557 0.381021 0)
(-0.0401933 0.431452 0)
(-0.0387893 0.468239 -7.03571e-22)
(-0.0303812 0.503863 1.16628e-21)
(-0.0254217 0.556486 1.84243e-21)
(-0.0094804 0.650566 -3.03852e-21)
(-0.0141974 0.804258 5.81008e-22)
(0.00333095 0.970821 -1.83192e-21)
(-0.00199313 0.205794 -1.19233e-21)
(-0.0235203 0.303129 -2.85532e-22)
(-0.0350824 0.374914 2.8286e-22)
(-0.0405085 0.426486 1.40508e-21)
(-0.0395093 0.463387 -1.84539e-21)
(-0.0313609 0.49816 0)
(-0.0265009 0.549174 -8.05369e-22)
(-0.0106545 0.642338 4.82506e-23)
(-0.0147481 0.797434 -1.00818e-21)
(0.0026114 0.966779 -1.12207e-21)
(0.00249018 0.193483 6.1419e-22)
(-0.0214155 0.296594 0)
(-0.0345629 0.371165 -6.69967e-22)
(-0.0403627 0.423638 2.06945e-21)
(-0.0397771 0.460138 -9.62736e-22)
(-0.0319852 0.493848 -3.21681e-22)
(-0.0272754 0.543665 8.0367e-22)
(-0.0115502 0.636991 -4.55431e-24)
(-0.0149509 0.793826 1.4273e-21)
(0.00215615 0.964137 1.61484e-21)
(0.00939308 0.173168 2.87243e-22)
(-0.0170901 0.280541 -2.78154e-22)
(-0.0324371 0.359563 3.15588e-23)
(-0.039378 0.415528 0)
(-0.0398438 0.453591 0)
(-0.03261 0.48683 3.0839e-22)
(-0.0283267 0.534133 1.5578e-21)
(-0.0128191 0.625383 -1.51422e-21)
(-0.015711 0.784111 -4.51344e-22)
(0.00135609 0.9591 4.35795e-22)
(0.0117714 0.175721 0)
(-0.0115899 0.288839 0)
(-0.0297183 0.366577 0)
(-0.0368521 0.41868 0)
(-0.0378077 0.45256 0)
(-0.0318616 0.482772 0)
(-0.0281354 0.527974 0)
(-0.0137271 0.620219 0)
(-0.0155579 0.779487 0)
(0.00060875 0.953551 0)
(0.0143783 0.204598 0)
(-0.00101131 0.307582 0)
(-0.0187627 0.377323 0)
(-0.0273644 0.423125 0)
(-0.0309987 0.452837 0)
(-0.0286476 0.479663 0)
(-0.0275117 0.522035 0)
(-0.0166276 0.613833 0)
(-0.0176939 0.773872 0)
(-0.000696006 0.945865 0)
(0.0168007 0.226867 0)
(0.00623392 0.326388 0)
(-0.00916771 0.391073 0)
(-0.0177652 0.429595 0)
(-0.023105 0.45395 0)
(-0.0231417 0.476867 0)
(-0.0238381 0.516384 0)
(-0.015484 0.606133 0)
(-0.0160882 0.764234 0)
(-0.00117835 0.934489 0)
(0.018035 0.239417 0)
(0.0140463 0.337706 0)
(0.000926778 0.402255 0)
(-0.0088114 0.437697 0)
(-0.0168152 0.458882 0)
(-0.020119 0.4792 0)
(-0.0232996 0.516805 0)
(-0.0183856 0.60547 0)
(-0.017811 0.761886 0)
(-0.0023274 0.926262 0)
(0.017078 0.247771 0)
(0.0177672 0.345325 0)
(0.00912711 0.412054 0)
(0.000888311 0.446684 0)
(-0.00748548 0.465231 0)
(-0.0123477 0.482096 0)
(-0.0170691 0.515345 0)
(-0.0146983 0.59906 0)
(-0.0163541 0.752602 0)
(-0.0026003 0.916372 0)
(0.0179627 0.250435 0)
(0.0206469 0.34834 0)
(0.0142176 0.419409 0)
(0.00548184 0.454859 0)
(-0.00387684 0.472255 0)
(-0.0102111 0.487842 0)
(-0.0163162 0.519852 0)
(-0.0152829 0.601299 0)
(-0.0155074 0.748978 0)
(-0.00282023 0.905291 0)
(0.0173613 0.247861 0)
(0.0231956 0.34751 0)
(0.0213424 0.425421 0)
(0.0139373 0.464661 0)
(0.00397291 0.481732 0)
(-0.00359709 0.49471 0)
(-0.0111969 0.52246 0)
(-0.0132048 0.598908 0)
(-0.0155676 0.743424 0)
(-0.00358821 0.897694 0)
(0.0180682 0.246259 0)
(0.0216681 0.346462 0)
(0.0205308 0.4289 0)
(0.0148199 0.472015 0)
(0.00628668 0.490225 0)
(-0.000662346 0.502625 0)
(-0.00780936 0.529255 0)
(-0.00977383 0.602532 0)
(-0.0125423 0.739766 0)
(-0.00301187 0.886192 0)
(0.0187525 0.239949 0)
(0.0244094 0.343692 0)
(0.0253589 0.432437 0)
(0.019932 0.478974 0)
(0.0108415 0.497842 0)
(0.00271625 0.508834 0)
(-0.00593154 0.53276 0)
(-0.00943387 0.602746 0)
(-0.0126295 0.736939 0)
(-0.00347867 0.881311 0)
(0.0114777 0.235249 0)
(0.0153341 0.338835 0)
(0.018413 0.432388 0)
(0.0165919 0.485461 0)
(0.0114306 0.507931 0)
(0.00621773 0.519731 0)
(-0.000312701 0.542648 0)
(-0.00418588 0.609381 0)
(-0.00857798 0.735424 0)
(-0.002912 0.869878 0)
(0.0311094 0.107573 9.95506e-22)
(0.0325509 0.145716 -9.79494e-22)
(0.0322432 0.173913 3.95832e-23)
(0.0287574 0.191867 0)
(0.0235798 0.203695 0)
(0.0198459 0.207431 -6.63035e-23)
(0.0166588 0.205362 1.96358e-22)
(0.0158665 0.201624 -1.92797e-22)
(0.0151603 0.193981 -2.83436e-23)
(0.00983704 0.188247 2.76403e-23)
(0.0429227 0.0898747 -9.93032e-22)
(0.0408675 0.127432 0)
(0.0374918 0.155618 -7.56078e-23)
(0.031527 0.173747 4.3503e-22)
(0.0246409 0.18545 -5.51565e-22)
(0.0194329 0.1888 6.46774e-23)
(0.0155268 0.186687 -1.5053e-22)
(0.014245 0.182089 -2.0327e-22)
(0.0133491 0.174278 -2.09003e-23)
(0.00898367 0.168123 -1.65446e-23)
(0.0538771 0.0818568 1.1699e-21)
(0.0485055 0.116051 -1.81834e-22)
(0.0423927 0.14121 1.80089e-22)
(0.0341672 0.157166 6.31731e-22)
(0.0255726 0.167046 -4.67976e-22)
(0.0189146 0.169115 0)
(0.0142687 0.166606 1.50878e-22)
(0.0124917 0.161199 -1.72977e-23)
(0.0115236 0.153651 8.04587e-23)
(0.00812702 0.147234 4.73571e-23)
(0.0636061 0.0778029 -1.91161e-22)
(0.0550908 0.106796 0)
(0.04661 0.127178 0)
(0.0363677 0.139794 0)
(0.0262426 0.14707 -7.2814e-22)
(0.0183044 0.147587 4.6738e-22)
(0.0129885 0.144626 -3.80423e-23)
(0.0107856 0.138658 1.13099e-22)
(0.00981108 0.131733 3.56955e-23)
(0.00730951 0.125171 1.5554e-23)
(0.0716898 0.0730294 -3.73336e-22)
(0.0601649 0.0955986 -2.41294e-22)
(0.049685 0.110574 3.8792e-22)
(0.037762 0.119689 -3.87634e-22)
(0.0264139 0.124358 2.57312e-22)
(0.0174935 0.123594 0)
(0.0116641 0.120392 2.0527e-22)
(0.00916228 0.114275 -2.75307e-22)
(0.00824307 0.108241 1.27071e-22)
(0.00651067 0.101647 -5.16849e-23)
(0.0777008 0.064347 -3.8447e-22)
(0.0635872 0.080145 2.78589e-22)
(0.0516203 0.0899034 2.1452e-22)
(0.0384276 0.0959948 -4.92777e-22)
(0.0261912 0.0984981 0)
(0.0165788 0.0969897 0)
(0.0103822 0.0938826 0)
(0.00769132 0.0880834 -1.74521e-22)
(0.00684496 0.0830926 0)
(0.00571476 0.0766162 0)
(0.0814832 0.0503987 0)
(0.0654768 0.0599853 -5.20308e-22)
(0.0526036 0.0651738 3.7404e-22)
(0.0385633 0.0689658 6.84647e-22)
(0.0257655 0.0698603 -6.88154e-22)
(0.015709 0.0681599 -2.89475e-22)
(0.00925532 0.0654613 3.3601e-22)
(0.00644246 0.0603848 6.51604e-22)
(0.00563784 0.0564955 -5.21752e-23)
(0.0049317 0.0503242 3.53549e-23)
(0.0831703 0.0315137 0)
(0.0660862 0.0360672 1.46897e-22)
(0.0528571 0.037441 1.43986e-22)
(0.0383532 0.0396187 0)
(0.0252873 0.0393672 -1.66446e-22)
(0.0149912 0.0378888 5.35321e-22)
(0.00835802 0.0358126 -3.77812e-22)
(0.00545302 0.031743 -7.00835e-23)
(0.00462394 0.0289422 5.75e-23)
(0.00419626 0.0232985 -5.6522e-23)
(0.0830467 0.00909809 3.92168e-23)
(0.0656861 0.0100339 -2.41895e-22)
(0.0525633 0.00822266 2.55201e-23)
(0.0379374 0.00929642 -9.60481e-23)
(0.0248438 0.00820113 -1.91598e-22)
(0.0144834 0.00718183 -2.63612e-22)
(0.00772111 0.00583052 7.04114e-23)
(0.00473343 0.0029157 4.96389e-23)
(0.00376573 0.00112846 -5.7688e-23)
(0.00338903 -0.00374514 -1.37531e-23)
(0.0814408 -0.0151006 3.01568e-23)
(0.0645131 -0.0164013 -3.04712e-23)
(0.0518596 -0.0209718 7.48183e-23)
(0.0373951 -0.0206673 9.59017e-23)
(0.0244695 -0.0224318 -9.3981e-23)
(0.0141986 -0.0229043 1.84112e-22)
(0.00735164 -0.0235197 -1.00626e-22)
(0.00427651 -0.0252542 -1.92248e-23)
(0.00309368 -0.0261613 0)
(0.00273943 -0.0300664 1.37764e-23)
(0.07873 -0.039495 -2.64687e-23)
(0.0627914 -0.0418418 2.67174e-23)
(0.050858 -0.0488941 7.13318e-23)
(0.0367688 -0.0491399 9.35522e-23)
(0.0241728 -0.0514684 9.33437e-23)
(0.0141216 -0.051415 -5.48942e-24)
(0.00723601 -0.0513515 -4.05699e-23)
(0.00405825 -0.0520078 -8.11959e-23)
(0.00263225 -0.0521782 0)
(0.00215209 -0.0550617 1.20606e-23)
(0.0753034 -0.0628519 0)
(0.0607279 -0.0653513 2.20528e-22)
(0.049632 -0.0746433 -4.24958e-22)
(0.0361064 -0.0752992 -9.36888e-23)
(0.0239515 -0.0780984 -1.85911e-22)
(0.0142271 -0.0776254 -2.61427e-22)
(0.00733185 -0.0769932 7.08915e-23)
(0.00403453 -0.0767808 5.05174e-23)
(0.0023225 -0.0763801 -6.03033e-23)
(0.00166264 -0.0783345 -1.20272e-23)
(0.0715035 -0.0844326 0)
(0.0584855 -0.0864566 1.16268e-22)
(0.0482301 -0.0976797 1.31691e-22)
(0.0354571 -0.0986885 0)
(0.0237921 -0.101836 5.36717e-22)
(0.0144791 -0.101132 -1.8019e-22)
(0.00758372 -0.100078 -1.53438e-22)
(0.00415141 -0.0992882 -3.16401e-22)
(0.00212331 -0.0985002 6.01063e-23)
(0.00127036 -0.0997066 -4.14329e-23)
(0.067595 -0.103911 0)
(0.0561924 -0.105093 -1.17227e-22)
(0.0466998 -0.117805 0)
(0.0348549 -0.119217 -6.58044e-22)
(0.0236773 -0.122546 6.61472e-22)
(0.0148309 -0.121876 2.95197e-22)
(0.0079334 -0.120559 -2.52169e-23)
(0.00435288 -0.119522 3.10425e-22)
(0.0020033 -0.118518 5.86874e-23)
(0.00096171 -0.119184 6.08553e-23)
(0.0637752 -0.121279 1.35382e-21)
(0.053963 -0.121522 -4.56461e-22)
(0.0450973 -0.135102 -2.31429e-22)
(0.0343148 -0.137106 4.62936e-22)
(0.0235902 -0.140405 0)
(0.0152265 -0.140088 2.81271e-22)
(0.0083226 -0.138644 -5.98529e-23)
(0.00458398 -0.137678 -4.1392e-22)
(0.00193383 -0.136586 -1.89309e-23)
(0.000720517 -0.136904 1.89136e-23)
(0.0601751 -0.136713 8.8041e-22)
(0.0519108 -0.136231 4.63445e-22)
(0.0434933 -0.149861 -3.86135e-22)
(0.033838 -0.152789 3.85916e-22)
(0.0235201 -0.155807 2.77428e-22)
(0.0156084 -0.156171 0)
(0.00870281 -0.154693 4.50327e-22)
(0.00480107 -0.154058 -2.43674e-22)
(0.00189532 -0.152947 -1.45825e-22)
(0.000531694 -0.153077 -3.2582e-23)
(0.0568917 -0.15042 -3.57363e-22)
(0.0501724 -0.149838 0)
(0.0419854 -0.162482 0)
(0.0334209 -0.166778 0)
(0.0234682 -0.169242 2.52767e-22)
(0.0159329 -0.170579 -5.2951e-22)
(0.00904479 -0.169105 -4.39107e-22)
(0.0049784 -0.168987 5.44982e-22)
(0.00187934 -0.167876 -3.43197e-23)
(0.000384143 -0.167943 6.62131e-23)
(0.0538505 -0.162494 -1.13961e-21)
(0.0487703 -0.162969 1.25758e-22)
(0.0406237 -0.173402 -1.24583e-22)
(0.0330239 -0.179555 -8.24442e-22)
(0.0234447 -0.181206 1.03758e-21)
(0.0161866 -0.18373 0)
(0.00935355 -0.182255 2.09286e-22)
(0.00511609 -0.182761 -8.61084e-24)
(0.00188962 -0.181638 9.78313e-23)
(0.000271005 -0.181743 2.74161e-23)
(0.0503999 -0.172724 -4.51223e-22)
(0.0472347 -0.17617 0)
(0.0392516 -0.183082 2.489e-22)
(0.0324906 -0.191517 -9.41985e-22)
(0.023425 -0.192148 4.51311e-22)
(0.016368 -0.195965 1.04887e-22)
(0.00966444 -0.194453 -2.0881e-22)
(0.00524719 -0.195625 -3.30234e-23)
(0.00194362 -0.19447 -1.89167e-22)
(0.00018638 -0.194704 -5.66667e-23)
(0.0470657 -0.180385 -1.70964e-21)
(0.0454778 -0.189834 1.66621e-21)
(0.0379971 -0.192062 1.45359e-23)
(0.0317644 -0.202991 0)
(0.0233095 -0.202474 0)
(0.0163646 -0.207559 -1.08115e-22)
(0.00987717 -0.205953 -3.37638e-22)
(0.00533654 -0.207774 3.31247e-22)
(0.00201494 -0.20657 2.84107e-23)
(0.000119273 -0.207034 -2.77691e-23)
(0.0501684 -0.189792 0)
(0.0465531 -0.221857 0)
(0.0384771 -0.212435 0)
(0.0311495 -0.229351 0)
(0.0228725 -0.226358 0)
(0.01553 -0.234443 0)
(0.00945271 -0.232606 0)
(0.00488613 -0.235868 0)
(0.00188383 -0.234308 0)
(4.70756e-05 -0.235301 0)
(0.0425801 -0.239466 0)
(0.0350779 -0.271627 0)
(0.0308411 -0.25896 0)
(0.0238773 -0.27635 0)
(0.0185081 -0.27125 0)
(0.0124919 -0.280343 0)
(0.00814602 -0.277273 0)
(0.00436358 -0.281258 0)
(0.00195752 -0.278769 0)
(0.00014034 -0.280294 0)
(0.0395136 -0.290241 0)
(0.0307576 -0.322191 0)
(0.026577 -0.307383 0)
(0.0196595 -0.325761 0)
(0.0154588 -0.318382 0)
(0.0103288 -0.328421 0)
(0.00717739 -0.323693 0)
(0.00397998 -0.328442 0)
(0.00200245 -0.32472 0)
(0.000177613 -0.326977 0)
(0.0349348 -0.344974 0)
(0.0262767 -0.376918 0)
(0.0227172 -0.360014 0)
(0.0162816 -0.379448 0)
(0.0131714 -0.369729 0)
(0.0087094 -0.381046 0)
(0.00648786 -0.374542 0)
(0.00370026 -0.380278 0)
(0.00206588 -0.375128 0)
(0.000199406 -0.378426 0)
(0.0302632 -0.407849 0)
(0.0223936 -0.440187 0)
(0.0191916 -0.421359 0)
(0.0135739 -0.442093 0)
(0.0112257 -0.430269 0)
(0.00742221 -0.443157 0)
(0.00589199 -0.434863 0)
(0.00339476 -0.441847 0)
(0.00206166 -0.435186 0)
(0.000180914 -0.439808 0)
(0.0256406 -0.48457 0)
(0.0186386 -0.516757 0)
(0.0159634 -0.497156 0)
(0.0111742 -0.51895 0)
(0.0094639 -0.505771 0)
(0.0062174 -0.520144 0)
(0.00517638 -0.510426 0)
(0.0028684 -0.518789 0)
(0.00187311 -0.510895 0)
(8.70844e-05 -0.51706 0)
(0.0200772 -0.578376 0)
(0.01487 -0.607847 0)
(0.012659 -0.590698 0)
(0.00884116 -0.611604 0)
(0.00747665 -0.59915 0)
(0.00477264 -0.613669 0)
(0.00394633 -0.603874 0)
(0.00187595 -0.61293 0)
(0.00122788 -0.604777 0)
(-0.000131854 -0.612066 0)
(0.0162683 -0.682055 0)
(0.011457 -0.704421 0)
(0.00937344 -0.69363 0)
(0.00604505 -0.70977 0)
(0.00504439 -0.701228 0)
(0.00279734 -0.712967 0)
(0.00215274 -0.705416 0)
(0.000432448 -0.713061 0)
(0.000244419 -0.706449 0)
(-0.000365679 -0.713232 0)
(0.00910072 -0.770472 0)
(0.00591873 -0.781654 0)
(0.0048472 -0.779774 0)
(0.00308847 -0.789131 0)
(0.002549 -0.78644 0)
(0.00114439 -0.792803 0)
(0.000622326 -0.788966 0)
(-0.000462322 -0.79289 0)
(-0.000380908 -0.789056 0)
(-0.000364783 -0.79303 0)
(0.00152325 -0.816401 0)
(0.00106797 -0.825363 0)
(0.00100019 -0.82746 0)
(0.000877798 -0.832475 0)
(0.000675092 -0.832267 0)
(0.000310765 -0.835017 0)
(2.64719e-05 -0.833254 0)
(-0.000284799 -0.834532 0)
(-0.000261826 -0.832514 0)
(-0.000132518 -0.834195 0)
(0.0486925 -0.210084 3.22447e-21)
(0.0442398 -0.259539 -3.16491e-21)
(0.0419745 -0.309967 5.07765e-22)
(0.0374253 -0.364784 0)
(0.0329122 -0.427809 0)
(0.0281008 -0.503924 8.06643e-22)
(0.0227837 -0.594654 -3.84485e-21)
(0.0176674 -0.690068 3.82601e-21)
(0.0110328 -0.772975 1.14929e-21)
(0.00329937 -0.812462 -1.13654e-21)
(0.0485675 -0.217807 -3.74589e-21)
(0.0452984 -0.266397 0)
(0.0431346 -0.316036 3.74738e-21)
(0.0385858 -0.370565 -9.05134e-21)
(0.0341219 -0.433516 6.21304e-21)
(0.0292363 -0.509374 -7.26474e-22)
(0.0239658 -0.598923 1.80313e-21)
(0.0183083 -0.692568 4.02499e-21)
(0.0118998 -0.772401 1.22144e-21)
(0.00409211 -0.811942 1.23471e-21)
(0.0490847 -0.225465 4.52638e-21)
(0.0469319 -0.273239 -3.83974e-21)
(0.0446845 -0.32168 3.80334e-21)
(0.0400827 -0.375519 -5.33706e-21)
(0.0355952 -0.438128 3.92275e-21)
(0.0305821 -0.513533 0)
(0.0251651 -0.601862 -1.80764e-21)
(0.0190659 -0.694029 1.56508e-22)
(0.0124981 -0.770804 -2.1424e-21)
(0.00448412 -0.811648 -2.33898e-21)
(0.050189 -0.23236 -7.49898e-22)
(0.0490328 -0.279709 0)
(0.0466353 -0.32718 0)
(0.0419595 -0.38039 0)
(0.037374 -0.442624 4.95133e-21)
(0.0321673 -0.517497 -3.33714e-21)
(0.0264741 -0.604611 -5.284e-23)
(0.0199548 -0.694997 -2.41202e-21)
(0.0129134 -0.769306 -1.24506e-21)
(0.00458061 -0.810279 -1.35963e-21)
(0.0519206 -0.238385 4.09895e-22)
(0.0515167 -0.285178 -2.48929e-21)
(0.048922 -0.331884 -2.53931e-21)
(0.0441652 -0.384693 2.53777e-21)
(0.0394227 -0.446688 -1.59229e-21)
(0.0339699 -0.521109 0)
(0.027948 -0.607131 -2.1304e-21)
(0.0209852 -0.695666 4.93975e-21)
(0.0133416 -0.76795 -2.55743e-21)
(0.00460588 -0.807924 2.6357e-21)
(0.0543538 -0.243632 -6.73588e-21)
(0.0544115 -0.289513 4.37758e-22)
(0.0515406 -0.335426 -4.66788e-22)
(0.0466635 -0.387936 2.69906e-21)
(0.0417017 -0.449797 0)
(0.0359569 -0.523873 0)
(0.0295857 -0.60898 0)
(0.0221612 -0.695878 2.70657e-21)
(0.0139123 -0.766448 0)
(0.00470134 -0.805055 0)
(0.057528 -0.248022 0)
(0.0577728 -0.292752 3.44104e-21)
(0.0545408 -0.337795 -2.36186e-21)
(0.0494686 -0.389988 -3.4378e-21)
(0.044212 -0.451721 3.45574e-21)
(0.0381234 -0.525502 2.33284e-21)
(0.0313738 -0.609851 -2.28419e-21)
(0.0234741 -0.695425 -9.71454e-21)
(0.0146493 -0.764583 6.89222e-22)
(0.0048975 -0.802007 -2.50263e-21)
(0.0614608 -0.251381 0)
(0.0616304 -0.294854 -1.0824e-21)
(0.0579689 -0.33902 -7.17343e-22)
(0.0526134 -0.390874 0)
(0.0469829 -0.452448 1.12198e-21)
(0.040494 -0.525943 -3.37846e-21)
(0.0333231 -0.609646 3.98914e-21)
(0.0249273 -0.694176 1.4784e-21)
(0.0155336 -0.762244 -1.6731e-21)
(0.00517869 -0.798855 3.3044e-21)
(0.0661707 -0.253551 8.07299e-22)
(0.0659968 -0.295737 1.32482e-21)
(0.0618483 -0.339064 -2.38619e-22)
(0.0561204 -0.390602 4.65651e-22)
(0.0500448 -0.452009 1.03453e-21)
(0.0431 -0.525248 1.84764e-21)
(0.0354526 -0.608427 -7.33978e-22)
(0.0265188 -0.692165 -8.2036e-22)
(0.016527 -0.759449 1.67864e-21)
(0.00551168 -0.795569 9.37876e-22)
(0.0716793 -0.254406 -2.7495e-22)
(0.0708807 -0.295345 2.77062e-22)
(0.0661915 -0.337863 -3.81829e-22)
(0.0599994 -0.389136 -4.65089e-22)
(0.0534167 -0.450389 6.14603e-22)
(0.0459664 -0.523422 -1.26317e-21)
(0.0377942 -0.606198 1.13355e-21)
(0.0282761 -0.689385 4.18488e-22)
(0.0176329 -0.756177 0)
(0.00589481 -0.792056 -9.39937e-22)
(0.0780079 -0.253851 2.91046e-22)
(0.076287 -0.293683 -2.93421e-22)
(0.0710075 -0.335384 -4.3597e-22)
(0.0642554 -0.386455 -5.30038e-22)
(0.0571126 -0.447572 -6.55099e-22)
(0.0491063 -0.520501 -6.83378e-23)
(0.0403512 -0.603061 4.06699e-22)
(0.0301883 -0.685961 1.3551e-21)
(0.0188312 -0.752511 0)
(0.00630971 -0.788312 -1.05678e-21)
(0.0851693 -0.251862 0)
(0.0822107 -0.290813 -1.60344e-21)
(0.0763069 -0.331634 2.98435e-21)
(0.0688918 -0.382574 5.30978e-22)
(0.0611412 -0.443543 1.3385e-21)
(0.0525334 -0.516422 2.27939e-21)
(0.0431601 -0.598884 -8.30921e-22)
(0.0323062 -0.68176 -9.26044e-22)
(0.020168 -0.748354 2.12956e-21)
(0.00678688 -0.784269 1.05428e-21)
(0.0931585 -0.248526 0)
(0.0886427 -0.286819 -1.54244e-21)
(0.082095 -0.326715 -9.34983e-22)
(0.0739109 -0.377542 0)
(0.0655203 -0.438362 -4.30816e-21)
(0.0562503 -0.511307 1.43704e-21)
(0.0461868 -0.593905 1.82677e-21)
(0.0345751 -0.676995 6.07626e-21)
(0.0215921 -0.743857 -2.12268e-21)
(0.00728537 -0.780012 4.70423e-21)
(0.101958 -0.243984 0)
(0.0955698 -0.281755 1.55571e-21)
(0.0883775 -0.320688 0)
(0.0793234 -0.371419 5.39918e-21)
(0.070254 -0.43204 -5.42684e-21)
(0.0602815 -0.504985 -3.60203e-21)
(0.0495172 -0.587797 -1.11701e-22)
(0.0371031 -0.671273 -6.31635e-21)
(0.0231928 -0.738775 -1.04902e-21)
(0.00787139 -0.775396 -5.85141e-21)
(0.11154 -0.238438 9.71741e-21)
(0.102991 -0.27564 -3.78721e-21)
(0.095118 -0.313873 9.33029e-22)
(0.0851249 -0.364236 -4.82205e-21)
(0.0753761 -0.42469 0)
(0.0646112 -0.497733 -3.81393e-21)
(0.0530585 -0.581038 -4.42499e-22)
(0.0397477 -0.665206 8.64454e-21)
(0.0248238 -0.733482 1.23088e-21)
(0.00843996 -0.770631 -1.23535e-21)
(0.121872 -0.232041 -2.34846e-21)
(0.110864 -0.268553 8.00488e-21)
(0.102347 -0.306036 5.10756e-21)
(0.0914129 -0.355722 -5.10406e-21)
(0.0809001 -0.416039 -3.37592e-21)
(0.0693283 -0.489105 0)
(0.056972 -0.572856 -8.88278e-21)
(0.0427442 -0.657957 4.44718e-21)
(0.0267249 -0.727421 4.88996e-21)
(0.00915409 -0.765392 5.3987e-21)
(0.132863 -0.225247 -1.41213e-21)
(0.119255 -0.260537 0)
(0.110026 -0.297426 0)
(0.0980684 -0.346704 0)
(0.0867046 -0.407023 -4.08945e-21)
(0.0742488 -0.480365 7.452e-21)
(0.0609665 -0.564835 9.10845e-21)
(0.045706 -0.651 -1.46047e-20)
(0.0285306 -0.721488 2.69595e-21)
(0.00975337 -0.760162 -8.01786e-21)
(0.144481 -0.217716 -1.10888e-21)
(0.128297 -0.250842 9.19966e-21)
(0.118145 -0.287602 -9.11171e-21)
(0.105252 -0.336182 1.36113e-20)
(0.0930587 -0.396102 -1.72233e-20)
(0.0797718 -0.469333 0)
(0.0656026 -0.554348 -4.82133e-21)
(0.0493026 -0.641949 -2.57812e-22)
(0.0308389 -0.714292 -5.66236e-21)
(0.0106464 -0.754179 -5.83645e-21)
(0.156243 -0.211265 -1.49704e-21)
(0.137571 -0.2421 0)
(0.12616 -0.279254 -1.34506e-20)
(0.112391 -0.327342 2.62494e-20)
(0.0992757 -0.387261 -1.03748e-20)
(0.0850466 -0.460793 -2.2356e-21)
(0.0698518 -0.546475 4.81116e-21)
(0.0524202 -0.634947 -3.38707e-22)
(0.0327095 -0.708088 8.20381e-21)
(0.0111819 -0.748581 8.63533e-21)
(0.169563 -0.200372 -7.35718e-21)
(0.148918 -0.228691 7.19709e-21)
(0.135754 -0.265941 1.37131e-21)
(0.121139 -0.3131 0)
(0.107048 -0.372469 0)
(0.0918968 -0.4459 2.15484e-21)
(0.0756735 -0.532577 1.02877e-20)
(0.0569923 -0.623428 -1.00015e-20)
(0.0356871 -0.699454 -2.84011e-21)
(0.0124028 -0.741593 2.78502e-21)
(0.18146 -0.20474 0)
(0.172306 -0.224513 0)
(0.153256 -0.262896 0)
(0.136715 -0.308389 0)
(0.120697 -0.366313 0)
(0.103529 -0.437995 0)
(0.0850698 -0.5225 0)
(0.0638666 -0.611019 0)
(0.0397266 -0.685475 0)
(0.01302 -0.727669 0)
(0.207432 -0.182793 0)
(0.212309 -0.207847 0)
(0.182663 -0.250582 0)
(0.167222 -0.295061 0)
(0.148005 -0.353318 0)
(0.127759 -0.423795 0)
(0.10559 -0.505434 0)
(0.0797989 -0.589254 0)
(0.0502492 -0.658171 0)
(0.0181754 -0.695184 0)
(0.242385 -0.159309 0)
(0.252009 -0.18371 0)
(0.212866 -0.226785 0)
(0.201986 -0.270135 0)
(0.177956 -0.328741 0)
(0.154551 -0.396891 0)
(0.127684 -0.475316 0)
(0.0961906 -0.5555 0)
(0.0598449 -0.622113 0)
(0.019296 -0.660382 0)
(0.285637 -0.140893 0)
(0.296779 -0.164395 0)
(0.252412 -0.209104 0)
(0.246749 -0.251638 0)
(0.215526 -0.309761 0)
(0.189737 -0.374396 0)
(0.15723 -0.448702 0)
(0.118987 -0.522171 0)
(0.0748632 -0.581006 0)
(0.0272579 -0.611359 0)
(0.338839 -0.119397 0)
(0.349327 -0.143015 0)
(0.301104 -0.185101 0)
(0.29744 -0.222887 0)
(0.256549 -0.277276 0)
(0.228264 -0.336181 0)
(0.187119 -0.404777 0)
(0.14067 -0.471961 0)
(0.0869793 -0.527746 0)
(0.0271905 -0.561016 0)
(0.405915 -0.106438 0)
(0.41382 -0.129182 0)
(0.364012 -0.167393 0)
(0.360393 -0.201734 0)
(0.309329 -0.25327 0)
(0.279359 -0.305964 0)
(0.227637 -0.367716 0)
(0.171892 -0.424911 0)
(0.107475 -0.47006 0)
(0.0402031 -0.490456 0)
(0.484201 -0.0824467 0)
(0.486803 -0.102377 0)
(0.436461 -0.13415 0)
(0.42651 -0.163321 0)
(0.364428 -0.207658 0)
(0.331249 -0.250261 0)
(0.261643 -0.301172 0)
(0.195068 -0.348016 0)
(0.117399 -0.391196 0)
(0.0333043 -0.420604 0)
(0.582342 -0.0724657 0)
(0.575828 -0.0882776 0)
(0.526458 -0.113835 0)
(0.504805 -0.137657 0)
(0.437971 -0.173043 0)
(0.396366 -0.204827 0)
(0.309595 -0.245242 0)
(0.23659 -0.282312 0)
(0.1461 -0.316467 0)
(0.0618766 -0.323704 0)
(0.666824 -0.037928 0)
(0.648374 -0.0460623 0)
(0.594033 -0.0623124 0)
(0.558356 -0.075835 0)
(0.484367 -0.0969256 0)
(0.42634 -0.11409 0)
(0.323572 -0.139585 0)
(0.238755 -0.161255 0)
(0.121938 -0.190635 0)
(0.00726866 -0.234838 0)
(0.849414 -0.0191386 0)
(0.82462 -0.0232533 0)
(0.779179 -0.029935 0)
(0.736329 -0.0361741 0)
(0.669562 -0.0451699 0)
(0.60136 -0.0540279 0)
(0.503234 -0.0673593 0)
(0.401168 -0.0824851 0)
(0.265044 -0.110379 0)
(0.172192 -0.163579 0)
(0.217854 -0.181879 6.47967e-21)
(0.248397 -0.158173 -6.38423e-21)
(0.283914 -0.13526 1.35968e-21)
(0.324754 -0.118058 0)
(0.375965 -0.0990323 0)
(0.439855 -0.0878069 2.53143e-21)
(0.51604 -0.0670072 -1.26298e-20)
(0.608656 -0.0594657 1.25503e-20)
(0.693528 -0.0297336 3.76821e-21)
(0.868773 -0.0160071 -3.78018e-21)
(0.228201 -0.172534 -4.10793e-21)
(0.258228 -0.148266 0)
(0.293543 -0.125774 1.00501e-20)
(0.3342 -0.109075 -2.5224e-20)
(0.385361 -0.0910072 1.77303e-20)
(0.448985 -0.0804965 -2.30616e-21)
(0.525027 -0.0608925 5.15427e-21)
(0.616425 -0.0541989 1.19496e-20)
(0.702103 -0.0264039 3.48632e-21)
(0.87504 -0.0146921 3.36433e-21)
(0.237297 -0.161921 4.53599e-21)
(0.265625 -0.137976 -8.27718e-21)
(0.300042 -0.116261 8.19938e-21)
(0.340318 -0.100182 -1.3919e-20)
(0.391377 -0.0831154 9.99284e-21)
(0.455009 -0.0733798 0)
(0.530969 -0.0550052 -5.16702e-21)
(0.621809 -0.0492023 -9.12384e-23)
(0.708771 -0.0233216 -6.34789e-21)
(0.879953 -0.0134404 -6.6989e-21)
(0.247228 -0.150616 -8.99643e-22)
(0.274737 -0.127416 0)
(0.30819 -0.10668 0)
(0.347764 -0.0912913 0)
(0.398366 -0.0752833 1.18799e-20)
(0.461715 -0.0663852 -8.15879e-21)
(0.537308 -0.0492981 -4.04466e-22)
(0.627491 -0.0444499 -6.07841e-21)
(0.715491 -0.0204735 -3.20064e-21)
(0.884924 -0.0122546 -3.27562e-21)
(0.256558 -0.139031 2.84879e-21)
(0.284259 -0.11683 -3.09224e-21)
(0.316713 -0.0971046 -5.17854e-21)
(0.355779 -0.082457 5.17561e-21)
(0.405947 -0.0675383 -3.66845e-21)
(0.469021 -0.0595216 0)
(0.544214 -0.0437529 -5.03306e-21)
(0.633704 -0.0398912 1.15847e-20)
(0.72249 -0.0178096 -5.87244e-21)
(0.890105 -0.0111259 6.53936e-21)
(0.264824 -0.127239 -5.40947e-21)
(0.29295 -0.10628 -8.43203e-22)
(0.324275 -0.0875833 -1.4083e-21)
(0.362968 -0.0737871 4.97638e-21)
(0.412812 -0.0599616 0)
(0.475783 -0.0528577 0)
(0.550743 -0.0384096 0)
(0.639689 -0.0355273 5.4444e-21)
(0.729225 -0.0153064 0)
(0.895094 -0.010052 0)
(0.272024 -0.115198 0)
(0.300496 -0.0957075 4.62462e-21)
(0.330872 -0.0780837 -3.3658e-21)
(0.368937 -0.0652717 -6.151e-21)
(0.418417 -0.0525662 6.18317e-21)
(0.481358 -0.0464237 4.41769e-21)
(0.556217 -0.0332903 -4.08338e-21)
(0.644811 -0.0313717 -1.86914e-20)
(0.735186 -0.0129635 1.31566e-21)
(0.899487 -0.00903662 -4.61001e-21)
(0.278041 -0.102858 0)
(0.306893 -0.0850821 -1.26576e-21)
(0.336585 -0.0685685 -9.56981e-22)
(0.373857 -0.0568234 0)
(0.42278 -0.0453119 2.01785e-21)
(0.485669 -0.0401868 -5.69997e-21)
(0.560473 -0.0283697 7.18248e-21)
(0.648808 -0.0274122 2.85857e-21)
(0.740096 -0.0107672 -2.84496e-21)
(0.903098 -0.00807455 6.15654e-21)
(0.282674 -0.0901756 -1.74729e-23)