/*--------------------------------*- C++ -*----------------------------------*\
  =========                 |
  \\      /  F ield         | OpenFOAM: The Open Source CFD Toolbox
   \\    /   O peration     | Website:  https://openfoam.org
    \\  /    A nd           | Version:  7
     \\/     M anipulation  |
\*---------------------------------------------------------------------------*/
FoamFile
{
    version     2.0;
    format      ascii;
    class       volScalarField;
    location    "55";
    object      p;
}
// * * * * * * * * * * * * * * * * * * * * * * * * * * * * * * * * * * * * * //

dimensions      [0 2 -2 0 0 0 0];

internalField   nonuniform List<scalar> 
2000
(
0.0298013
0.0297774
0.0299663
0.0302046
0.0304683
0.0307512
0.0310582
0.0313996
0.0317805
0.0322436
0.0301599
0.0301394
0.0303611
0.0306467
0.0309615
0.031289
0.0316239
0.0319669
0.0323127
0.0326957
0.0304457
0.030454
0.0307166
0.0310566
0.0314296
0.0318102
0.0321846
0.0325449
0.032877
0.0331944
0.0306489
0.0307153
0.0310258
0.0314241
0.031858
0.0322946
0.0327159
0.0331055
0.0334451
0.0337153
0.0307663
0.0309208
0.0312836
0.0317399
0.0322323
0.0327255
0.0331901
0.0336141
0.0339796
0.0342266
0.0307997
0.0310718
0.0314884
0.0319976
0.0325389
0.0330749
0.0335776
0.0340325
0.034433
0.0346821
0.0307572
0.0311744
0.0316415
0.0321942
0.0327696
0.0333314
0.0338536
0.0343239
0.0347521
0.0350223
0.0306573
0.0312336
0.0317477
0.0323302
0.0329195
0.0334827
0.0339988
0.0344593
0.0348935
0.0351909
0.0305178
0.0312616
0.0318137
0.0324078
0.0329857
0.0335199
0.0339975
0.0344185
0.0348373
0.0351729
0.0303621
0.0312704
0.0318472
0.0324313
0.0329684
0.0334365
0.0338309
0.0341614
0.0345054
0.0348476
0.0338352
0.0373097
0.0413337
0.0456269
0.0496588
0.0537608
0.0569564
0.060519
0.0618014
0.0637661
0.0340674
0.0370024
0.0405551
0.0444898
0.0482329
0.052087
0.0550572
0.0584099
0.0597011
0.0614803
0.0342945
0.0367856
0.039818
0.0433895
0.0468599
0.0504826
0.0532498
0.0564317
0.05767
0.05933
0.0344815
0.0366701
0.0391265
0.0423351
0.0455436
0.0489441
0.0515338
0.0545597
0.0557299
0.057315
0.0345947
0.0366444
0.0384848
0.0413371
0.0442901
0.0474782
0.0499128
0.0527961
0.0539088
0.0554365
0.0346086
0.0366603
0.0378975
0.0404005
0.0430949
0.0460749
0.0483646
0.0511132
0.0521843
0.0536761
0.0345121
0.0366366
0.0373724
0.0395332
0.0419731
0.0447566
0.0469168
0.0495426
0.050579
0.0520318
0.0342962
0.0364862
0.0369106
0.0387123
0.0408869
0.0434691
0.045505
0.0480126
0.0490303
0.0504751
0.0339627
0.0361241
0.0365046
0.0379977
0.0399336
0.0423188
0.0442401
0.0466206
0.0476061
0.0490121
0.033744
0.035629
0.0360133
0.0371751
0.0388674
0.0410527
0.0428839
0.0451499
0.0461692
0.0475889
0.0346249
0.0363947
0.0369535
0.037294
0.0380957
0.0394576
0.0408426
0.0424797
0.0433757
0.0443386
0.0297711
0.0318977
0.0333357
0.0342721
0.0350969
0.0360687
0.0370175
0.0380796
0.0387138
0.0392783
0.0244849
0.026793
0.0286019
0.0299444
0.0309975
0.0320322
0.0328703
0.0336409
0.0340242
0.0343706
0.0187829
0.0211864
0.0233744
0.02514
0.0264377
0.0275636
0.0284487
0.0291798
0.0294468
0.029664
0.0130418
0.0153579
0.0177819
0.0199274
0.0215762
0.022891
0.0238436
0.0245813
0.0248671
0.0250677
0.00779533
0.00993122
0.0124027
0.0147179
0.0165986
0.0181199
0.0191949
0.0199574
0.0202693
0.0204792
0.0035312
0.00531687
0.00755776
0.009841
0.0118243
0.0134392
0.0145634
0.0153256
0.0156328
0.015823
0.000607238
0.00194458
0.00370245
0.00562118
0.00746121
0.0090337
0.0101069
0.0108039
0.011069
0.0112178
-0.000919076
-7.64419e-05
0.00110382
0.00245426
0.0038352
0.00505971
0.0058749
0.00640004
0.00656612
0.00667222
-0.00125992
-0.000931171
-0.000422741
0.000245554
0.000964409
0.0016023
0.00197355
0.00223556
0.00225194
0.00229681
0.0321976
0.0274143
0.0223901
0.0170205
0.0116838
0.00681832
0.00289534
0.000230864
-0.00101644
-0.0013685
0.0310526
0.026165
0.0211807
0.0159393
0.0108094
0.00617874
0.00249707
2.97575e-05
-0.00105323
-0.00140457
0.0297474
0.0250004
0.0201123
0.0150139
0.0100784
0.00565682
0.00218712
-0.000106938
-0.00105373
-0.00135902
0.028523
0.0239959
0.0192136
0.0142631
0.00951953
0.00529109
0.00200621
-0.000147485
-0.00101103
-0.00121262
0.0274638
0.0231498
0.0184749
0.0136662
0.00910612
0.00505242
0.00193207
-0.000106018
-0.00091887
-0.00104369
0.0266211
0.0224739
0.0179026
0.0132248
0.00883046
0.00494101
0.00195553
7.55913e-06
-0.000781839
-0.000869179
0.0260158
0.021973
0.0174925
0.0129391
0.00869577
0.00494432
0.00207014
0.000186294
-0.00060611
-0.000691934
0.0256453
0.0216337
0.0172556
0.012802
0.00868919
0.00505351
0.00226665
0.000421839
-0.000398186
-0.000516188
0.0255004
0.0214627
0.0171725
0.0128017
0.00879967
0.00525742
0.00253391
0.000704597
-0.000165132
-0.000346045
0.0255504
0.0214472
0.0172303
0.0129237
0.00901219
0.00554199
0.00285921
0.00102426
8.57291e-05
-0.000184281
0.0257516
0.0215578
0.0174028
0.0131444
0.00930542
0.00588966
0.00322824
0.00137015
0.000347353
-3.25592e-05
0.0260729
0.021771
0.0176696
0.013446
0.00966263
0.00628619
0.00362883
0.00173299
0.000613714
0.000108276
0.0264959
0.0220743
0.0180179
0.0138178
0.0100722
0.00672088
0.0040512
0.00210513
0.000880068
0.000238131
0.0270002
0.022454
0.0184327
0.0142481
0.0105221
0.0071832
0.00448667
0.00248032
0.00114299
0.000357506
0.0275689
0.0229003
0.0189003
0.0147264
0.0110019
0.00766414
0.00492829
0.00285378
0.00140031
0.000467271
0.0281862
0.0234051
0.0194074
0.0152428
0.011503
0.0081561
0.00537069
0.0032221
0.00165087
0.000568477
0.0288266
0.0239547
0.0199388
0.0157862
0.0120174
0.00865252
0.00580989
0.00358304
0.00189434
0.000662322
0.0294799
0.0245588
0.0205024
0.0163616
0.012549
0.00915494
0.00624669
0.00393703
0.0021317
0.000750266
0.0302341
0.0253176
0.0211643
0.0170153
0.0131301
0.0096823
0.00669146
0.00428921
0.00236601
0.000832951
0.0308612
0.026084
0.0218003
0.0176515
0.0136986
0.0101909
0.00712033
0.00462709
0.0025934
0.000905451
0.0300173
0.0264409
0.0223626
0.0184396
0.0145835
0.0110871
0.00796785
0.00533318
0.00308455
0.0010677
0.0294234
0.0259321
0.0220792
0.0184449
0.0148355
0.011543
0.00852676
0.00589621
0.00352598
0.00126511
0.0298417
0.0263284
0.0224916
0.0189299
0.0153565
0.0120943
0.0090621
0.00638507
0.00390261
0.00145093
0.0306125
0.0269304
0.023037
0.0194683
0.015886
0.0126126
0.00953741
0.0068131
0.00425252
0.00165106
0.0318464
0.0278528
0.0237999
0.0201211
0.0164595
0.0131207
0.00998321
0.0072196
0.00460644
0.00187262
0.0334609
0.0290753
0.0247855
0.0208998
0.0171034
0.0136533
0.0104402
0.00762653
0.00496255
0.00209446
0.0352909
0.030508
0.0259201
0.0217643
0.0178037
0.0142178
0.0109213
0.00802668
0.00526329
0.00222385
0.037162
0.031837
0.0269832
0.0226004
0.0185066
0.0147961
0.0114035
0.00836378
0.00541501
0.00219009
0.0385036
0.0330297
0.0279514
0.0233334
0.0191048
0.0152854
0.0117914
0.0085715
0.00539963
0.00203073
0.0396007
0.0335824
0.0283294
0.0236502
0.0194088
0.0155632
0.0120164
0.00867498
0.00535711
0.00191166
0.032369
0.031958
0.0324191
0.0332248
0.034651
0.0364674
0.0385077
0.0407922
0.0423498
0.0438549
0.0328941
0.0328568
0.0334979
0.0344455
0.0360481
0.0380066
0.0401803
0.0425045
0.0441877
0.0455474
0.0331143
0.0334418
0.0343916
0.0356597
0.037563
0.0397673
0.0421548
0.0444942
0.0462748
0.0473243
0.0334892
0.034053
0.0352309
0.0368012
0.038978
0.0414265
0.0440436
0.0464963
0.0483917
0.0493295
0.0339898
0.0348134
0.0361803
0.0379917
0.0403794
0.0430256
0.0458425
0.0484631
0.0504979
0.0515095
0.0345195
0.0356578
0.0372526
0.0392956
0.0418709
0.0446889
0.0476754
0.050462
0.0526359
0.0537846
0.0350693
0.036533
0.0384008
0.0406965
0.0434732
0.0464722
0.049623
0.052559
0.0548541
0.0561203
0.0356637
0.0374391
0.0396027
0.0421641
0.0451629
0.048366
0.0516953
0.054776
0.0571759
0.0585202
0.0363154
0.0383864
0.0408603
0.0436855
0.0469197
0.050345
0.0538705
0.0571037
0.059603
0.0609996
0.0370259
0.0393721
0.0421771
0.0452563
0.0487358
0.0523927
0.0561285
0.0595258
0.0621283
0.0635682
0.0377967
0.0403821
0.0435497
0.0468685
0.0506078
0.0545015
0.0584596
0.0620328
0.0647462
0.0662293
0.0386259
0.041397
0.0449669
0.0485077
0.0525273
0.0566637
0.0608582
0.0646194
0.0674542
0.0689824
0.0394917
0.0424043
0.0464032
0.0501603
0.0544814
0.0588762
0.0633229
0.0672857
0.0702572
0.0718322
0.0403555
0.0434011
0.0478238
0.0518171
0.0564537
0.061131
0.0658461
0.0700307
0.0731638
0.074789
0.0411669
0.0443921
0.049184
0.0534746
0.0584473
0.0634271
0.0684291
0.0728525
0.0761594
0.0778459
0.0418605
0.0453837
0.0504969
0.0551117
0.0604136
0.065724
0.0710428
0.0757323
0.0792307
0.0809965
0.0424013
0.0463734
0.051726
0.0566934
0.0623349
0.0680136
0.0736851
0.0786708
0.082382
0.0842479
0.0427883
0.047271
0.0528214
0.0581645
0.0641577
0.0702378
0.0763015
0.0816305
0.0855967
0.0875946
0.0430134
0.0480856
0.0538266
0.0595717
0.0659397
0.0724516
0.0789337
0.0846363
0.0888894
0.091056
0.0428577
0.0485738
0.0544817
0.0606075
0.0673512
0.0743352
0.0813222
0.0875235
0.0921838
0.0946029
0.0442728
0.0515403
0.0578391
0.0647145
0.0721817
0.080039
0.0879371
0.0950708
0.100525
0.103481
0.0520686
0.0591755
0.0659353
0.0740259
0.0827937
0.092093
0.101416
0.109801
0.116181
0.119585
0.0606063
0.0682297
0.0759325
0.0854153
0.0955954
0.106467
0.117201
0.126712
0.133861
0.137688
0.0695738
0.0781108
0.0872224
0.0982964
0.110087
0.122723
0.134857
0.145425
0.153215
0.157259
0.0789603
0.0887042
0.0994646
0.112243
0.125798
0.140268
0.15373
0.165286
0.17359
0.177975
0.0889968
0.10003
0.112595
0.127128
0.142524
0.158764
0.17345
0.185879
0.194386
0.198463
0.0991239
0.111571
0.125842
0.142032
0.159216
0.176974
0.192785
0.205876
0.214283
0.218447
0.109123
0.122705
0.138532
0.15629
0.175172
0.194221
0.211276
0.225067
0.232961
0.234997
0.116241
0.130976
0.147997
0.166951
0.187114
0.20713
0.225361
0.239642
0.246806
0.250119
0.121614
0.136782
0.154626
0.174463
0.195591
0.216584
0.236501
0.253525
0.263442
0.249985
0.0421394
0.0493
0.0568507
0.0651203
0.0736087
0.0830942
0.0923149
0.102023
0.108377
0.113699
0.0416015
0.0491571
0.056451
0.0644856
0.0726617
0.0818525
0.0906426
0.100009
0.105724
0.110879
0.0415661
0.049586
0.0568453
0.0648113
0.0728393
0.0817561
0.0901351
0.0989226
0.103886
0.108616
0.0413877
0.0495624
0.056774
0.064694
0.0726048
0.0813088
0.0893468
0.0976754
0.102188
0.106491
0.0411431
0.0492575
0.05644
0.0642162
0.0719581
0.0804245
0.0881435
0.0961305
0.100431
0.10442
0.0408981
0.0489344
0.0560925
0.0637188
0.0712749
0.0794674
0.0868713
0.0945481
0.0987173
0.102484
0.0406425
0.048636
0.0557742
0.0633034
0.0707227
0.0786533
0.0857849
0.0931509
0.0972057
0.100782
0.0403749
0.0483465
0.0554887
0.062936
0.0702882
0.0780031
0.084954
0.0919986
0.0959895
0.0993626
0.0401113
0.048074
0.0552391
0.0626275
0.0699288
0.0774935
0.0843412
0.0910756
0.095081
0.0982232
0.0398732
0.0478379
0.0550383
0.0623971
0.0696534
0.0771221
0.0838926
0.0903988
0.0944208
0.0973639
0.0396807
0.0476531
0.0549002
0.0622579
0.0694858
0.0768958
0.0836065
0.0899657
0.0939815
0.0967872
0.0395275
0.0475103
0.054823
0.0622069
0.069434
0.07682
0.0834978
0.089767
0.0937679
0.0964873
0.039388
0.0473879
0.0547945
0.0622338
0.0694939
0.0768969
0.083577
0.0897996
0.0937934
0.0964572
0.0392485
0.047281
0.0548107
0.0623326
0.0696609
0.0771242
0.0838424
0.0900592
0.0940594
0.0966892
0.0390944
0.047193
0.0548685
0.0624997
0.069934
0.0774997
0.0842942
0.0905468
0.0945676
0.0971795
0.0388977
0.0471206
0.0549544
0.0627238
0.0703029
0.0780075
0.0849185
0.0912462
0.0953006
0.0979226
0.0386231
0.0470584
0.0550553
0.0629984
0.0707661
0.0786513
0.0857273
0.0921627
0.0962668
0.0989203
0.0382106
0.0469679
0.0551263
0.0632775
0.0712713
0.0793738
0.0866667
0.0932492
0.097425
0.100169
0.037682
0.0468958
0.0552145
0.0636092
0.0718726
0.0802324
0.0877899
0.0945449
0.0988173
0.101677
0.0366868
0.0464896
0.0550081
0.0636728
0.0722348
0.0808998
0.088819
0.0958597
0.100318
0.103435
0.0376211
0.0479169
0.0566548
0.0657519
0.0749044
0.0840823
0.0926449
0.100109
0.105024
0.108378
0.0454653
0.0550253
0.06359
0.0733676
0.0833911
0.0936266
0.103351
0.111738
0.117391
0.120673
0.0538275
0.0636194
0.0728812
0.0837996
0.0950203
0.106758
0.117961
0.127614
0.134111
0.137524
0.0621417
0.0726713
0.083328
0.0959016
0.108915
0.122845
0.136096
0.147666
0.155639
0.159696
0.0703507
0.0820519
0.0945145
0.109056
0.124391
0.141118
0.157101
0.171596
0.182197
0.187906
0.0786677
0.091768
0.106346
0.123081
0.141226
0.161224
0.180764
0.199568
0.214876
0.224704
0.0864604
0.10121
0.117817
0.136882
0.158118
0.181589
0.205747
0.230783
0.253911
0.272921
0.0940822
0.1102
0.128781
0.150243
0.174578
0.201819
0.231893
0.265483
0.301654
0.340091
0.0980799
0.115257
0.135258
0.158489
0.185574
0.217008
0.254304
0.299612
0.357243
0.430453
0.10153
0.120604
0.142199
0.167553
0.197969
0.234692
0.280605
0.341099
0.429283
0.550631
0.0350102
0.0421911
0.0490996
0.0565825
0.0637067
0.0715288
0.078035
0.0853648
0.088904
0.0908809
0.0342696
0.0414554
0.0482339
0.0553462
0.0620376
0.0695435
0.0755126
0.0826181
0.0857372
0.0881331
0.0340383
0.0413108
0.0480955
0.0549726
0.061366
0.0684724
0.0739875
0.0806256
0.083228
0.0866823
0.0337983
0.040904
0.0475091
0.0541719
0.0602992
0.0670343
0.0721708
0.0783495
0.0805462
0.0845355
0.0335952
0.0403279
0.0465946
0.0530114
0.0588027
0.0651435
0.0699075
0.075682
0.077542
0.0814601
0.0334689
0.0397443
0.0456536
0.0517471
0.0572116
0.0631121
0.0674917
0.072883
0.0744258
0.0779661
0.0334086
0.0391858
0.0447574
0.0504654
0.0556788
0.0611324
0.0651585
0.0701789
0.0714335
0.0745658
0.0334136
0.0386498
0.043878
0.0492165
0.0541533
0.0592132
0.0629821
0.0676254
0.0686839
0.0714907
0.0334892
0.038147
0.0430052
0.0479952
0.0526323
0.0573302
0.0609316
0.0651623
0.0661996
0.0687316
0.0336336
0.0376948
0.0421521
0.0467965
0.0511294
0.0555079
0.0589239
0.0627722
0.0639486
0.0661792
0.0302171
0.0312734
0.0318584
0.0324087
0.0328748
0.0332392
0.0335008
0.0336598
0.0337235
0.0335519
0.0301166
0.0312879
0.0318606
0.0323533
0.032723
0.032959
0.0330677
0.0330549
0.0329416
0.0326636
0.0300874
0.0313293
0.0318691
0.0322838
0.0325389
0.0326326
0.0325822
0.0324045
0.0321422
0.0317709
0.0301577
0.0314164
0.031904
0.032225
0.0323546
0.0323019
0.032095
0.0317613
0.0313564
0.0308648
0.0303551
0.0315703
0.0319889
0.0322056
0.0322066
0.0320114
0.031658
0.0311824
0.0306454
0.0300246
0.0307034
0.0318129
0.0321488
0.0322555
0.0321299
0.0318015
0.0313156
0.0307145
0.0300576
0.0293135
0.0312203
0.0321641
0.0324067
0.0324007
0.0321535
0.0317029
0.0310995
0.0303888
0.0296253
0.0287735
0.0319166
0.03264
0.03278
0.03266
0.0322964
0.031734
0.0310265
0.0302204
0.0293634
0.0284248
0.0327914
0.0332486
0.0332776
0.0330416
0.0325656
0.0319
0.0310993
0.0302097
0.0292707
0.0282537
0.0338201
0.0339829
0.0338952
0.0335412
0.0329557
0.0321933
0.0313087
0.030346
0.0293366
0.0282593
0.0349494
0.0348172
0.034615
0.034143
0.0334508
0.0325974
0.0316366
0.0306092
0.0295413
0.0284232
0.0362071
0.0357531
0.0354232
0.0348272
0.0340281
0.033088
0.0320578
0.0309743
0.02986
0.0287161
0.0375347
0.0367497
0.0362846
0.0355617
0.034658
0.0336368
0.0325448
0.0314142
0.0302659
0.0291096
0.0388727
0.0377622
0.0371596
0.0363108
0.0353074
0.0342128
0.0330681
0.0319003
0.0307309
0.0295761
0.0401635
0.0387437
0.0380059
0.0370367
0.0359423
0.0347845
0.033598
0.0324045
0.0312276
0.0300896
0.0413478
0.0396451
0.0387809
0.0377025
0.0365299
0.0353222
0.034107
0.0329006
0.0317307
0.030626
0.0423679
0.0404184
0.039444
0.0382741
0.0370407
0.0357996
0.034571
0.0333655
0.0322163
0.0311599
0.0431712
0.0410199
0.0399597
0.0387226
0.0374506
0.0361957
0.0349711
0.0337804
0.0326596
0.0316584
0.0437134
0.041413
0.0402991
0.0390262
0.0377424
0.0364958
0.0352932
0.0341263
0.0330279
0.0320886
0.0439602
0.0415698
0.0404415
0.0391705
0.0379073
0.036696
0.0355353
0.0343993
0.0333156
0.0324525
0.0438886
0.0414719
0.0403732
0.0391472
0.0379444
0.0368084
0.0357407
0.0347209
0.033795
0.0331877
0.0434819
0.0411077
0.040086
0.0389492
0.0378436
0.0368116
0.0358566
0.0349625
0.0341619
0.0336192
0.0427431
0.0404799
0.0395814
0.0385753
0.0375998
0.0366953
0.0358663
0.0351005
0.0344145
0.0339053
0.0416899
0.039602
0.038869
0.0380324
0.0372182
0.0364658
0.0357819
0.0351588
0.0346041
0.0341793
0.0403526
0.0384971
0.0379671
0.0373352
0.0367119
0.0361361
0.0356181
0.0351543
0.0347469
0.0344411
0.038773
0.0371973
0.0369011
0.0365049
0.0360992
0.0357228
0.0353899
0.0351011
0.0348552
0.0346858
0.0370015
0.0357414
0.0357021
0.0355667
0.0354018
0.0352446
0.0351139
0.0350146
0.0349445
0.0349274
0.0350929
0.0341721
0.034404
0.0345481
0.0346425
0.0347211
0.0348067
0.0349095
0.0350285
0.0351807
0.0331046
0.0325325
0.0330414
0.0334766
0.0338435
0.0341705
0.0344836
0.0347981
0.0351167
0.0354532
0.0311076
0.0308701
0.0316496
0.0323787
0.0330253
0.0336086
0.0341569
0.03469
0.0352156
0.0357482
0.0291974
0.0292454
0.0302696
0.0312831
0.0322084
0.0330503
0.0338371
0.0345922
0.0353282
0.0360653
0.0273178
0.0276542
0.0289136
0.0302031
0.0314036
0.0325033
0.0335287
0.0345059
0.0354518
0.0363978
0.0255251
0.0261343
0.0276079
0.0291563
0.0306224
0.0319741
0.0332343
0.0344298
0.0355796
0.0367307
0.0238626
0.024719
0.0263729
0.028157
0.0298731
0.0314661
0.0329529
0.0343594
0.0357014
0.0370429
0.0223581
0.0234314
0.02522
0.0272151
0.0291608
0.0309801
0.0326817
0.0342887
0.0358086
0.0373106
0.0210244
0.0222768
0.0241705
0.0263386
0.0284878
0.0305153
0.0324168
0.0342118
0.0358979
0.0375153
0.0198704
0.0212651
0.0232294
0.0255328
0.027856
0.0300702
0.0321557
0.0341243
0.0359606
0.0376848
0.0188994
0.0204019
0.0224005
0.0248
0.0272653
0.0296426
0.0318957
0.0340267
0.0359984
0.0378193
0.0181093
0.0196874
0.0216857
0.0241414
0.0267142
0.0292295
0.0316342
0.0339252
0.0360454
0.0379446
0.017495
0.0191189
0.0210851
0.023557
0.0262003
0.028824
0.0313578
0.0337969
0.0360988
0.0381381
0.0170454
0.0186897
0.0205956
0.0230449
0.0257199
0.0284208
0.031063
0.0336515
0.0362642
0.03882
0.0167297
0.0183839
0.0202107
0.0226027
0.0252679
0.0280017
0.0306993
0.0333343
0.035971
0.0385241
0.0165533
0.0182004
0.0199296
0.0222314
0.0248455
0.0275664
0.0302705
0.0329008
0.0354903
0.0379781
0.0165082
0.0181316
0.0197491
0.0219337
0.024462
0.0271349
0.0298187
0.0324408
0.035014
0.0374711
0.0165803
0.0181665
0.0196642
0.0217121
0.0241278
0.0267266
0.0293711
0.0319788
0.0345458
0.036993
0.0167551
0.0182939
0.0196691
0.0215677
0.0238503
0.026353
0.0289397
0.0315195
0.0340727
0.036517
0.017019
0.0185026
0.0197568
0.0214993
0.0236339
0.0260223
0.0285343
0.0310726
0.0336027
0.0360438
0.0173584
0.0187811
0.0199191
0.0215042
0.0234813
0.025741
0.0281637
0.0306488
0.0331478
0.0355827
0.0177607
0.0191178
0.0201466
0.0215775
0.0233926
0.0255133
0.0278348
0.030256
0.0327165
0.0351422
0.0182199
0.019506
0.0204325
0.0217147
0.0233668
0.0253413
0.0275514
0.0298993
0.0323145
0.0347288
0.0187388
0.0199495
0.0207795
0.0219186
0.023408
0.0252304
0.0273194
0.0295841
0.0319464
0.0343465
0.0192729
0.0204119
0.0211578
0.0221668
0.0235015
0.0251724
0.0271352
0.0293092
0.0316107
0.0339899
0.0198236
0.0208937
0.0215651
0.0224556
0.0236439
0.0251652
0.0269974
0.0290728
0.031304
0.0336503
0.0203886
0.0213918
0.0219965
0.0227794
0.0238303
0.025205
0.0269034
0.0288725
0.0310224
0.0333206
0.0209628
0.0219004
0.0224455
0.0231316
0.0240549
0.0252879
0.0268508
0.0287063
0.0307628
0.032994
0.0215415
0.0224149
0.0229066
0.0235061
0.0243121
0.02541
0.0268374
0.0285733
0.030523
0.0326622
0.0221217
0.022932
0.0233756
0.023898
0.0245974
0.0255679
0.0268623
0.0284746
0.0303048
0.0323208
0.0227012
0.0234495
0.0238494
0.0243035
0.0249069
0.025759
0.0269253
0.0284145
0.0301176
0.031974
0.023279
0.0239658
0.024326
0.0247197
0.0252376
0.0259814
0.0270266
0.0283993
0.0299848
0.0316584
0.0238545
0.0244802
0.0248041
0.0251449
0.0255875
0.0262336
0.0271651
0.0284269
0.0299286
0.0314482
0.0244284
0.0249924
0.0252828
0.0255772
0.0259546
0.0265163
0.0273514
0.0285392
0.0301517
0.0320499
0.0250027
0.0255017
0.0257611
0.0260157
0.0263367
0.0268206
0.0275546
0.0286124
0.0300792
0.0318371
0.0255771
0.0260089
0.02624
0.0264608
0.0267329
0.0271441
0.0277747
0.0286881
0.0299546
0.0314972
0.0261512
0.0265139
0.0267195
0.0269126
0.0271448
0.0274931
0.0280313
0.0288196
0.0299203
0.0312728
0.0267236
0.0270157
0.0271993
0.0273717
0.0275739
0.0278719
0.0283321
0.0290121
0.0299683
0.0311539
0.0272915
0.0275127
0.0276787
0.0278378
0.0280207
0.0282815
0.0286779
0.029263
0.0300865
0.0311219
0.02785
0.0280021
0.028156
0.0283102
0.0284849
0.0287218
0.0290693
0.0295736
0.0302773
0.0311755
0.0283923
0.0284796
0.0286284
0.0287873
0.0289654
0.0291925
0.0295062
0.0299451
0.0305436
0.0313168
0.0289082
0.0289399
0.0290914
0.0292653
0.0294593
0.0296909
0.0299867
0.0303764
0.0308854
0.0315448
0.0293839
0.0293756
0.0295395
0.0297396
0.0299622
0.0302125
0.0305062
0.0308634
0.0312995
0.0318555
)
;

boundaryField
{
    inlet
    {
        type            zeroGradient;
    }
    outlet
    {
        type            fixedValue;
        value           uniform 0;
    }
    cylinder
    {
        type            zeroGradient;
    }
    top
    {
        type            symmetryPlane;
    }
    bottom
    {
        type            symmetryPlane;
    }
    defaultFaces
    {
        type            empty;
    }
}


// ************************************************************************* //
