/*--------------------------------*- C++ -*----------------------------------*\
  =========                 |
  \\      /  F ield         | OpenFOAM: The Open Source CFD Toolbox
   \\    /   O peration     | Website:  https://openfoam.org
    \\  /    A nd           | Version:  7
     \\/     M anipulation  |
\*---------------------------------------------------------------------------*/
FoamFile
{
    version     2.0;
    format      ascii;
    class       surfaceScalarField;
    location    "55";
    object      phi;
}
// * * * * * * * * * * * * * * * * * * * * * * * * * * * * * * * * * * * * * //

dimensions      [0 3 -1 0 0 0 0];

internalField   nonuniform List<scalar> 
3880
(
-7.49212e-05
-0.000753478
0.000828399
-0.000144013
-0.0012717
0.0013408
-0.000142125
-0.0012175
0.00121562
-2.39324e-05
-0.000751805
0.000633612
0.000244105
4.95068e-05
-0.000317544
0.00068497
0.0011476
-0.00158847
0.00130893
0.00251532
-0.00313928
0.0021109
0.00412228
-0.00492425
0.00306818
0.00592691
-0.00688419
0.00786985
0.00413831
-0.00893999
-8.71457e-05
-0.000666332
-0.000173529
-0.00118532
-0.000194401
-0.00119663
-0.000105342
-0.000840863
0.000128709
-0.000184544
0.000535747
0.000740564
0.00113421
0.00191686
0.00192855
0.00332794
0.00290402
0.00495144
0.00675366
0.00402021
-9.08533e-05
-0.000575478
-0.000178461
-0.00109771
-0.000202636
-0.00117246
-0.000123747
-0.000919752
9.0864e-05
-0.000399155
0.000470486
0.000360942
0.00103937
0.00134797
0.00181107
0.00255624
0.00278082
0.00398169
0.00562091
0.00391357
-8.39075e-05
-0.000491571
-0.000152682
-0.00102894
-0.000154666
-0.00117048
-5.85084e-05
-0.00101591
0.000161989
-0.000619652
0.000533003
-1.00718e-05
0.00108069
0.000800291
0.00182526
0.00181166
0.00277301
0.00303394
0.00449486
0.00389907
-6.49261e-05
-0.000426645
-9.21621e-05
-0.0010017
-4.19247e-05
-0.00122071
0.000106081
-0.00116392
0.000368438
-0.000882009
0.000764322
-0.000405956
0.00131598
0.000248636
0.00204665
0.00108099
0.00297232
0.00210827
0.00338387
0.0040833
-3.36575e-05
-0.000392988
4.06199e-06
-0.00103942
0.000137858
-0.00135451
0.000376166
-0.00140222
0.000723928
-0.00122977
0.00118962
-0.000871648
0.00178782
-0.00034956
0.00253884
0.000329966
0.00346481
0.0011823
0.00227341
0.00457527
9.97456e-06
-0.000402962
0.000132806
-0.00116225
0.000379252
-0.00160096
0.000744285
-0.00176726
0.00122104
-0.00170652
0.00180619
-0.0014568
0.0025034
-0.00104677
0.00332516
-0.000491799
0.00429403
0.000213436
0.00112976
0.00543768
6.18438e-05
-0.000464806
0.000287373
-0.00138778
0.000668381
-0.00198196
0.00118772
-0.0022866
0.00182777
-0.00234657
0.00257422
-0.00220325
0.00341895
-0.0018915
0.0043631
-0.00143595
0.00542304
-0.000846503
-8.56257e-05
0.00663842
0.000120438
-0.000585244
0.000457642
-0.00172499
0.000983967
-0.00250829
0.00167001
-0.00297265
0.00248904
-0.0031656
0.00341837
-0.00313258
0.00444002
-0.00291314
0.00554186
-0.00253779
0.00672436
-0.00202901
-0.00140029
0.00803903
0.000181688
-0.000766932
0.000631166
-0.00217446
0.00129947
-0.0031766
0.00214477
-0.00381794
0.00313306
-0.00415389
0.00423778
-0.0042373
0.00543856
-0.00411393
0.00671804
-0.00381727
0.00805245
-0.00336341
0.00943503
-0.00278287
0.0068621
0.0447477
-0.0474714
0.0081402
0.0718134
-0.0730915
0.00805858
0.0929893
-0.0929077
0.00735122
0.112462
-0.111754
0.00637824
0.133365
-0.132392
0.00524098
0.157228
-0.156091
0.00396016
0.184736
-0.183455
0.00249114
0.216964
-0.215495
0.00105531
0.258825
-0.257389
0.307337
-0.306282
0.00726266
0.0415052
0.00918314
0.0698929
0.00946763
0.0927048
0.00892463
0.113005
0.00800399
0.134286
0.00682242
0.15841
0.00539297
0.186166
0.0036555
0.218701
0.00175627
0.260724
0.309093
0.00753295
0.0378858
0.0101492
0.0672767
0.0108506
0.0920034
0.0104988
0.113356
0.00963766
0.135147
0.00841346
0.159634
0.00683291
0.187746
0.0048254
0.220709
0.00246028
0.263089
0.311553
0.00767295
0.0341119
0.0109955
0.0639541
0.0121685
0.0908304
0.0120421
0.113483
0.0112533
0.135936
0.00999277
0.160895
0.00826449
0.189475
0.00598972
0.222984
0.00315959
0.26592
0.314713
0.00772816
0.0304671
0.011681
0.0600013
0.0133821
0.0891293
0.0135243
0.11334
0.0128262
0.136634
0.0115397
0.162181
0.00967357
0.191341
0.00713706
0.22552
0.00385037
0.269206
0.318563
0.00778779
0.0272546
0.0121719
0.0556171
0.0144541
0.0868472
0.0149125
0.112882
0.0143275
0.137219
0.0130279
0.163481
0.0110371
0.193332
0.00825248
0.228305
0.00452357
0.272935
0.323087
0.00795796
0.0247343
0.0124672
0.0511079
0.0153536
0.0839608
0.0161835
0.112052
0.0157462
0.137656
0.0144534
0.164773
0.0123543
0.195431
0.00933423
0.231325
0.00517846
0.277091
0.328265
0.00831793
0.0230548
0.0126047
0.0468212
0.0160489
0.0805165
0.0172858
0.110815
0.0170273
0.137915
0.0157619
0.166039
0.0135784
0.197614
0.0103539
0.234549
0.00580111
0.281644
0.334067
0.00887535
0.0222185
0.0126456
0.0430509
0.0165581
0.0766041
0.0182717
0.109102
0.0182416
0.137945
0.0170215
0.167259
0.0147643
0.199871
0.0113349
0.237979
0.00639957
0.286579
0.340466
0.00963668
0.0220168
0.0127145
0.0399731
0.0167608
0.0725577
0.0189298
0.106933
0.0192085
0.137666
0.0180883
0.168379
0.0158405
0.202119
0.0122328
0.241587
0.00700013
0.291812
0.347466
0.0258282
0.0332184
-0.0370297
0.0184235
0.0473778
0.0177439
0.0732374
0.0172791
0.107398
0.015341
0.139604
0.0125737
0.171146
0.0092936
0.205399
0.00555787
0.245322
0.00195702
0.295412
0.349423
0.0333336
0.0399067
-0.0400219
0.0244075
0.0563039
0.0201466
0.0774983
0.0182713
0.109273
0.0154466
0.142429
0.0120564
0.174537
0.00867138
0.208784
0.00513829
0.248855
0.00182779
0.298723
0.351251
0.0366272
0.0430822
-0.0398028
0.029336
0.0635951
0.023213
0.0836213
0.0198911
0.112595
0.0167425
0.145577
0.013049
0.17823
0.00920892
0.212624
0.00533468
0.25273
0.00191555
0.302142
0.353167
0.0365351
0.044032
-0.0374849
0.0317186
0.0684116
0.0256588
0.0896811
0.02099
0.117264
0.0168457
0.149722
0.0128337
0.182242
0.00902819
0.21643
0.005318
0.25644
0.00197496
0.305485
0.355142
0.0342057
0.0436265
-0.0338002
0.0317269
0.0708904
0.0271669
0.0942411
0.0228182
0.121612
0.0185466
0.153993
0.014019
0.18677
0.00965623
0.220793
0.00563221
0.260464
0.00213768
0.30898
0.357279
0.0301744
0.0421664
-0.0287143
0.0296231
0.0714416
0.0264067
0.0974575
0.0221695
0.12585
0.0178919
0.158271
0.0136129
0.191049
0.00947479
0.224931
0.00558636
0.264352
0.00216817
0.312398
0.359447
0.0252102
0.0397287
-0.0227725
0.0266525
0.0699994
0.0258263
0.0982837
0.0230675
0.128608
0.0190742
0.162264
0.0144802
0.195643
0.00995559
0.229455
0.0058136
0.268494
0.00227688
0.315935
0.361724
0.0196656
0.0366568
-0.0165937
0.0219111
0.0677539
0.0220199
0.0981749
0.0202774
0.130351
0.0173964
0.165145
0.0136826
0.199357
0.00965352
0.233484
0.00575548
0.272392
0.00232081
0.319369
0.364045
0.0150875
0.0326289
-0.0110595
0.0191549
0.0636864
0.0212103
0.0961195
0.0205233
0.131038
0.0178298
0.167839
0.0140324
0.203154
0.00983438
0.237682
0.00584131
0.276385
0.00235645
0.322854
0.366402
0.00849149
-0.00514693
0.0123408
0.0155707
0.0169186
0.0160153
0.0132725
0.00966602
0.00582017
0.00244923
0.0131113
-0.038971
-0.01117
0.0131649
-0.0400756
0.0122763
-0.0389142
0.0109558
-0.0361643
0.00944836
-0.0322929
0.00790358
-0.0271695
0.00643051
-0.0212994
0.00508016
-0.0152434
0.00380956
-0.00978893
-0.00430774
0.0122021
-0.0398133
-0.0113599
0.0116031
-0.0394766
0.0103908
-0.0377018
0.00890094
-0.0346744
0.00730566
-0.0306976
0.00572437
-0.0255882
0.00424703
-0.0198221
0.00291885
-0.0139152
0.00169084
-0.00856093
-0.00350158
0.0108384
-0.0398239
-0.0108278
0.00978663
-0.0384248
0.00834963
-0.0362648
0.00673246
-0.0330573
0.00506994
-0.0290351
0.00346481
-0.0239831
0.00199747
-0.0183547
0.000710378
-0.0126281
-0.000458241
-0.00739231
-0.0027695
0.00904264
-0.0392226
-0.0096439
0.00768364
-0.0370658
0.00610616
-0.0346874
0.0044192
-0.0313703
0.00273388
-0.0273498
0.00113907
-0.0223883
-0.000291441
-0.0169242
-0.00151952
-0.0114
-0.00256539
-0.00634644
-0.00210166
0.00689346
-0.0381815
-0.00793451
0.00533934
-0.0355117
0.0036878
-0.0330358
0.00198081
-0.0296633
0.00031052
-0.0256795
-0.00123044
-0.0208473
-0.0025966
-0.015558
-0.00374433
-0.0102523
-0.00467112
-0.00541965
-0.00153983
0.00449238
-0.0368316
-0.00584235
0.00282909
-0.0338484
0.00115206
-0.0313588
-0.000530724
-0.0279805
-0.00213639
-0.0240738
-0.00361072
-0.019373
-0.00488788
-0.0142809
-0.00593422
-0.00920596
-0.00673298
-0.00462088
-0.00109747
0.00194119
-0.0352687
-0.00350403
0.00022186
-0.0321291
-0.00141923
-0.0297177
-0.00305107
-0.0263487
-0.00458254
-0.0225423
-0.0059596
-0.017996
-0.00713036
-0.0131101
-0.00806005
-0.00827626
-0.00872425
-0.00395668
-0.000777906
-0.000658674
-0.0335741
-0.00103599
-0.00235834
-0.0304294
-0.00397152
-0.0281045
-0.00553309
-0.0247871
-0.00696805
-0.0211074
-0.0082336
-0.0167304
-0.00928719
-0.0120565
-0.0100912
-0.00747226
-0.01062
-0.00342789
-0.000576524
-0.00322872
-0.0317923
0.00144691
-0.00489241
-0.0287657
-0.0064416
-0.0265553
-0.0079128
-0.0233159
-0.00924246
-0.0197777
-0.0103898
-0.015583
-0.0113221
-0.0111243
-0.0119982
-0.0067961
-0.0123974
-0.0030287
-0.00048185
-0.00568391
-0.0299789
0.00387054
-0.00729294
-0.0271567
-0.00876673
-0.0250815
-0.010138
-0.0219447
-0.0113604
-0.0185553
-0.0123891
-0.0145543
-0.0132021
-0.0103113
-0.0137555
-0.00624274
-0.0140376
-0.00274661
-0.000476754
-0.00795963
-0.0281798
0.00616055
-0.0095008
-0.0256155
-0.0108962
-0.0236862
-0.012164
-0.0206768
-0.0132832
-0.0174361
-0.0141986
-0.0136389
-0.0149005
-0.0096094
-0.0153431
-0.00580009
-0.0155267
-0.00256307
-0.000539768
-0.0100158
-0.026428
0.008264
-0.0114767
-0.0241546
-0.0127942
-0.0223687
-0.0139594
-0.0195117
-0.0149829
-0.0164125
-0.0157952
-0.0128267
-0.0163992
-0.0090054
-0.0167492
-0.00545008
-0.0168575
-0.00245478
-0.00064655
-0.0118188
-0.0247495
0.0101403
-0.0131897
-0.0227837
-0.0144335
-0.021125
-0.015501
-0.0184442
-0.0164402
-0.0154733
-0.0171646
-0.0121023
-0.0176887
-0.00848121
-0.0179694
-0.00516939
-0.018029
-0.00239523
-0.000771084
-0.0133504
-0.023162
0.0117629
-0.0146239
-0.0215102
-0.0158001
-0.0199487
-0.0167792
-0.0174651
-0.0176476
-0.0146049
-0.0183037
-0.0114461
-0.0187697
-0.00801525
-0.0190078
-0.00493124
-0.0190466
-0.00235645
-0.000886834
-0.0146052
-0.0216713
0.0131145
-0.0157761
-0.0203394
-0.016892
-0.0188327
-0.0177962
-0.016561
-0.0186084
-0.0137928
-0.0192192
-0.0108353
-0.0196508
-0.00758368
-0.0198749
-0.00470714
-0.0199209
-0.00231042
-0.00096763
-0.0155888
-0.020267
0.0141845
-0.0166562
-0.019272
-0.0177175
-0.0177715
-0.0185644
-0.015714
-0.019335
-0.0130222
-0.0199252
-0.0102451
-0.0203472
-0.00716174
-0.020586
-0.00446835
-0.0206663
-0.00223003
-0.000988255
-0.0163133
-0.0189196
0.0149659
-0.0172838
-0.0183015
-0.0182917
-0.0167635
-0.0191028
-0.0149029
-0.019846
-0.0122791
-0.0204409
-0.00965018
-0.020878
-0.00672463
-0.0211594
-0.00418694
-0.0212999
-0.00208952
-0.000924739
-0.0167732
-0.0176004
0.0154541
-0.0176696
-0.0174051
-0.0186258
-0.0158074
-0.0194288
-0.0141
-0.0201611
-0.0115468
-0.0207863
-0.00902496
-0.0212635
-0.00624745
-0.0216143
-0.00383614
-0.0218394
-0.00186436
-0.00075434
-0.0169531
-0.0163068
0.0156595
-0.0178329
-0.0165253
-0.0187405
-0.0148998
-0.0195647
-0.0132758
-0.0203044
-0.010807
-0.0209838
-0.00834556
-0.0215247
-0.00570656
-0.0219696
-0.00339129
-0.0223025
-0.00153143
-0.000455177
-0.0169759
-0.01498
0.0156491
-0.0179028
-0.0155984
-0.0187094
-0.0140932
-0.019548
-0.0124372
-0.0203009
-0.0100541
-0.0210466
-0.00759989
-0.0216747
-0.00507841
-0.0222392
-0.00282678
-0.0227104
-0.00106021
-1.0344e-05
-0.0711307
-0.0130579
0.0692086
-0.0751271
-0.011602
-0.0787184
-0.0105018
-0.0823875
-0.00876808
-0.0853489
-0.00709278
-0.0877803
-0.00516848
-0.0893826
-0.00347607
-0.0903229
-0.00188652
-0.0906394
-0.00074368
-2.67866e-05
-0.0865417
-0.0111642
0.084648
-0.0891531
-0.00899059
-0.0915197
-0.0081353
-0.0939209
-0.00636688
-0.0958023
-0.00521139
-0.0973181
-0.00365266
-0.0982756
-0.00251856
-0.0988099
-0.00135223
-0.0989533
-0.000600303
-3.89373e-05
-0.102103
-0.00968522
0.100624
-0.103676
-0.0074178
-0.10527
-0.0065412
-0.106786
-0.00485135
-0.107996
-0.00400138
-0.108943
-0.00270533
-0.109501
-0.00196056
-0.109798
-0.00105578
-0.109852
-0.000545416
-4.08382e-05
-0.119864
-0.00876205
0.118941
-0.120901
-0.00638111
-0.12195
-0.00549218
-0.122898
-0.00390349
-0.123661
-0.00323858
-0.124253
-0.00211349
-0.124594
-0.00161972
-0.124781
-0.000868247
-0.124806
-0.000520765
-3.4558e-05
-0.141296
-0.00783024
0.140364
-0.142088
-0.00558892
-0.142868
-0.00471176
-0.143532
-0.00324014
-0.144082
-0.00268794
-0.14451
-0.00168622
-0.144784
-0.00134497
-0.144965
-0.000687777
-0.145026
-0.000459836
-1.7192e-06
-0.166512
-0.00672884
0.16541
-0.167342
-0.00475931
-0.168107
-0.00394611
-0.168723
-0.00262415
-0.169243
-0.00216844
-0.169644
-0.00128508
-0.169956
-0.00103251
-0.170205
-0.000438997
-0.170361
-0.000303972
4.39191e-05
-0.193135
-0.00543518
0.191841
-0.194298
-0.00359658
-0.195296
-0.00294769
-0.195973
-0.00194778
-0.196541
-0.00159996
-0.19696
-0.000866443
-0.19734
-0.00065264
-0.197637
-0.000141192
-0.197846
-9.56408e-05
9.83051e-05
-0.217804
-0.00345367
0.215823
-0.218821
-0.00257994
-0.21968
-0.00208827
-0.220326
-0.00130167
-0.220901
-0.0010254
-0.221297
-0.000470664
-0.221643
-0.000305747
-0.221859
7.48244e-05
-0.222005
4.97559e-05
0.000113422
-0.234111
-0.00193818
0.232596
-0.235554
-0.0011369
-0.23673
-0.000912139
-0.237473
-0.000559009
-0.238033
-0.000465076
-0.238312
-0.000191612
-0.238512
-0.000106191
-0.238531
9.39135e-05
-0.238546
6.45033e-05
6.94671e-05
-0.243637
0.241698
-0.244774
-0.245686
-0.246245
-0.24671
-0.246901
-0.247008
-0.246914
-0.246849
-0.0176062
0.0706864
0.0161284
-0.0184054
0.0854472
-0.018838
0.101057
-0.0188751
0.118978
-0.0184188
0.139908
-0.0171083
0.1641
-0.0146222
0.189355
-0.0106221
0.211822
-0.0057083
0.227682
0.23599
-0.0166084
0.071577
0.0157177
-0.0172803
0.0861191
-0.017625
0.101402
-0.0175687
0.118922
-0.0170234
0.139362
-0.0156784
0.162755
-0.013247
0.186924
-0.00959317
0.208169
-0.00509234
0.223181
0.230898
-0.0157812
0.0723266
0.0150317
-0.0163234
0.0866613
-0.0165607
0.101639
-0.0164367
0.118798
-0.0158513
0.138777
-0.0145285
0.161432
-0.0122078
0.184603
-0.00882946
0.20479
-0.00465328
0.219005
0.226245
-0.0148285
0.0730129
0.0141421
-0.0152692
0.0871021
-0.0153936
0.101763
-0.0151894
0.118594
-0.0145649
0.138152
-0.0132744
0.160142
-0.0110933
0.182422
-0.00800255
0.201699
-0.00419454
0.215197
0.22205
-0.0137119
0.0736233
0.0131015
-0.0140697
0.0874598
-0.0141058
0.101799
-0.0138386
0.118327
-0.0131916
0.137506
-0.0119508
0.158901
-0.0099328
0.180404
-0.00713636
0.198903
-0.00372782
0.211788
0.218322
-0.0124711
0.0741457
0.0119487
-0.0127356
0.0877243
-0.0126938
0.101758
-0.0123818
0.118015
-0.0117327
0.136856
-0.0105645
0.157733
-0.00873318
0.178573
-0.00624529
0.196415
-0.00325453
0.208797
0.215068
-0.0111401
0.0745734
0.0107124
-0.0113029
0.0878871
-0.0111829
0.101638
-0.0108343
0.117666
-0.0101976
0.13622
-0.00912249
0.156658
-0.00749855
0.176949
-0.00533661
0.194253
-0.00277416
0.206235
0.212293
-0.00974078
0.0748938
0.00942036
-0.00980208
0.0879484
-0.00960383
0.101439
-0.0092228
0.117285
-0.00860755
0.135604
-0.00764029
0.15569
-0.00623891
0.175547
-0.0044166
0.192431
-0.00228846
0.204107
0.210005
-0.00829607
0.0750885
0.00810135
-0.00825923
0.0879115
-0.00798369
0.101164
-0.00757466
0.116876
-0.00698723
0.135017
-0.00613793
0.154841
-0.0049683
0.174378
-0.00349281
0.190955
-0.00180112
0.202415
0.208204
-0.00683037
0.0751341
0.00678482
-0.00670245
0.0877836
-0.00634655
0.100808
-0.005915
0.116444
-0.0053591
0.134461
-0.0046349
0.154117
-0.00370155
0.173444
-0.0025743
0.189828
-0.00131714
0.201158
0.206887
-0.00537839
0.0750064
0.00550608
-0.005167
0.0875722
-0.00472394
0.100365
-0.00427223
0.115993
-0.00374791
0.133937
-0.00315148
0.153521
-0.00245398
0.172747
-0.00167065
0.189045
-0.000841457
0.200329
0.206045
-0.00398684
0.074709
0.00428423
-0.00367906
0.0872645
-0.00315709
0.0998429
-0.00267876
0.115514
-0.00218699
0.133445
-0.00170937
0.153043
-0.0012402
0.172278
-0.000793242
0.188598
-0.000380017
0.199916
0.205665
-0.00269715
0.0742577
0.00314847
-0.0022754
0.0868427
-0.00169115
0.0992586
-0.00118005
0.115003
-0.000724646
0.13299
-0.000360912
0.152679
-0.000113596
0.17203
1.09646e-05
0.188473
4.61814e-05
0.19988
0.205711
-0.00153927
0.0736831
0.00211379
-0.000980804
0.0862842
-0.000372802
0.0986506
0.000185419
0.114445
0.00066265
0.132512
0.000949484
0.152392
0.00100867
0.171971
0.000836421
0.188646
0.000475625
0.200241
0.206187
-0.00054102
0.0730406
0.0011836
0.000175284
0.0855679
0.000913253
0.0979127
0.00155208
0.113806
0.00200042
0.132064
0.00218794
0.152205
0.00205566
0.172104
0.00159492
0.189106
0.000874271
0.200962
0.207061
0.000354779
0.072343
0.000342768
0.00129506
0.0846277
0.00208635
0.0971214
0.00276123
0.113131
0.00320376
0.131622
0.00331337
0.152095
0.00301162
0.172405
0.00228901
0.189829
0.00123757
0.202013
0.208299
0.00122097
0.0715337
-0.000411682
0.00226174
0.0835869
0.00311384
0.0962693
0.00383934
0.112406
0.00428909
0.131172
0.00434157
0.152043
0.00389338
0.172853
0.00293287
0.190789
0.00157464
0.203372
0.209874
0.00191976
0.0707073
-0.00109328
0.00307512
0.0824315
0.00397768
0.0953667
0.00474655
0.111637
0.00520373
0.130715
0.00521243
0.152034
0.00464421
0.173422
0.00348282
0.191951
0.00185987
0.204994
0.211733
0.00255545
0.0698996
-0.00174781
0.00381633
0.0811707
0.00477449
0.0944086
0.0055884
0.110823
0.00606271
0.13024
0.0060384
0.152058
0.00535942
0.174101
0.00400633
0.193304
0.00213175
0.206869
0.213865
0.00288012
0.0694067
-0.00238717
0.00418269
0.0798681
0.00518966
0.0934016
0.00603402
0.109979
0.00652819
0.129746
0.00650353
0.152083
0.00577674
0.174827
0.00431726
0.194763
0.00228452
0.208902
0.21615
-0.0552967
0.0633258
0.0613775
-0.0498964
0.0744678
-0.0459716
0.0894768
-0.0418395
0.105847
-0.037352
0.125259
-0.0320324
0.146763
-0.0254978
0.168293
-0.0177347
0.187
-0.00905942
0.200227
0.20709
-0.0665733
0.0583778
0.0715214
-0.0617706
0.0696651
-0.0571905
0.0848967
-0.0520581
0.100714
-0.0465599
0.11976
-0.0398977
0.140101
-0.0317483
0.160143
-0.0221472
0.177399
-0.0114655
0.189545
0.195625
-0.0796554
0.0535443
0.0844889
-0.0747342
0.0647439
-0.0693007
0.0794632
-0.0632448
0.0946584
-0.0564975
0.113013
-0.048081
0.131685
-0.0379982
0.150061
-0.0262744
0.165675
-0.0133064
0.176577
0.182318
-0.0955401
0.0488886
0.100196
-0.0900298
0.0592336
-0.0838393
0.0732727
-0.0768244
0.0876436
-0.068477
0.104666
-0.0579855
0.121193
-0.0456833
0.137758
-0.0315909
0.151583
-0.0162986
0.161284
0.16602
-0.113407
0.043356
0.118939
-0.107308
0.0531349
-0.100108
0.0660731
-0.0913712
0.0789065
-0.0806107
0.0939051
-0.067535
0.108117
-0.052637
0.12286
-0.0357865
0.134732
-0.0178288
0.143327
0.148191
-0.135157
0.0378027
0.14071
-0.12787
0.0458477
-0.119102
0.0573055
-0.108123
0.0679279
-0.0948463
0.080628
-0.0792714
0.0925426
-0.0615608
0.10515
-0.041867
0.115039
-0.0214424
0.122902
0.126749
-0.1569
0.0305981
0.164104
-0.148029
0.0369776
-0.13704
0.0463161
-0.123318
0.0542062
-0.107178
0.064488
-0.0883193
0.0736835
-0.066838
0.0836685
-0.0435514
0.0917521
-0.0204699
0.0998208
0.106279
-0.180727
0.0230067
0.188319
-0.170209
0.0264594
-0.157157
0.0332641
-0.141323
0.0383724
-0.122819
0.0459832
-0.101165
0.0520296
-0.0770148
0.0595185
-0.0516022
0.0663395
-0.0271717
0.0753902
0.079107
-0.197402
0.0110446
0.209364
-0.184054
0.0131114
-0.167376
0.0165861
-0.148083
0.0190789
-0.125262
0.023163
-0.099435
0.0262023
-0.0705802
0.0306637
-0.0392813
0.0350407
-0.00809427
0.0442032
0.0710127
-0.279062
0.290107
-0.265951
-0.249364
-0.230286
-0.207123
-0.18092
-0.150257
-0.115216
-0.0710127
-0.000158434
0.063426
-0.00189
-0.00160513
0.0729681
-0.00280414
0.0856879
-0.00370303
0.101095
-0.00423866
0.119475
-0.00436264
0.140834
-0.00396617
0.163708
-0.0030635
0.187416
-0.00264609
0.208947
0.28746
0.000360762
0.0653381
-0.00227285
-0.0012381
0.0745669
-0.00250586
0.0869556
-0.00343192
0.102021
-0.00400969
0.120053
-0.0041541
0.140978
-0.00382607
0.16338
-0.00295307
0.186543
-0.00240412
0.208398
0.285056
0.000909729
0.0671103
-0.00268199
-0.00067331
0.07615
-0.00191173
0.0881941
-0.0028249
0.102934
-0.00342633
0.120654
-0.00360359
0.141156
-0.00337598
0.163152
-0.00260022
0.185767
-0.00216977
0.207967
0.282887
0.00143302
0.0687931
-0.00311575
-0.000146765
0.0777297
-0.00125425
0.0893015
-0.0021236
0.103803
-0.00270153
0.121232
-0.00292431
0.141378
-0.00277363
0.163001
-0.00215881
0.185153
-0.00186172
0.20767
0.281025
0.00194917
0.0704114
-0.00356752
0.000467012
0.0792119
-0.000596059
0.0903646
-0.00140793
0.104615
-0.00194979
0.121774
-0.00219602
0.141625
-0.00211412
0.162919
-0.00165932
0.184698
-0.0015052
0.207516
0.27952
0.00249266
0.0719447
-0.00402598
0.00114012
0.0805645
0.000118676
0.0913861
-0.000631033
0.105365
-0.00113553
0.122278
-0.00140348
0.141893
-0.00139529
0.162911
-0.00110618
0.184409
-0.00111001
0.20752
0.27841
0.00306511
0.0733627
-0.00448312
0.00185279
0.0817768
0.000948618
0.0922902
0.000230162
0.106083
-0.000236945
0.122745
-0.000536726
0.142192
-0.000591091
0.162966
-0.000502171
0.18432
-0.000675146
0.207693
0.277734
0.00365938
0.0746353
-0.00493192
0.00259846
0.0828377
0.00180285
0.0930858
0.00119194
0.106694
0.00073765
0.1232
0.000419341
0.142511
0.000286826
0.163098
0.000154627
0.184452
-0.000194845
0.208042
0.27754
0.0042689
0.075729
-0.00536263
0.00336543
0.0837412
0.00268591
0.0937654
0.00217055
0.10721
0.0017631
0.123607
0.00144085
0.142833
0.00118033
0.163359
0.000906282
0.184726
0.000290797
0.208658
0.27783
0.00488012
0.0766102
-0.00576128
0.00414108
0.0844802
0.00358685
0.0943196
0.00317069
0.107626
0.00281774
0.12396
0.00248083
0.14317
0.00212072
0.163719
0.00165888
0.185188
0.000788658
0.209528
0.278619
0.00547148
0.0772436
-0.00610488
0.00490481
0.0850469
0.00448467
0.0947397
0.00417366
0.107937
0.00387901
0.124255
0.00353321
0.143516
0.00307748
0.164175
0.00242402
0.185841
0.00130554
0.210647
0.279925
0.00603514
0.0775979
-0.00638944
0.0056476
0.0854344
0.00536857
0.0950188
0.00516847
0.108137
0.00493761
0.124486
0.00459123
0.143862
0.00404162
0.164724
0.0032016
0.186681
0.00183182
0.212016
0.281756
0.00654299
0.0776555
-0.00660067
0.00634329
0.0856341
0.00621195
0.0951501
0.00612643
0.108222
0.00596773
0.124644
0.00563058
0.144199
0.00499531
0.165359
0.00397822
0.187698
0.00235954
0.213635
0.284116
0.00697562
0.0774118
-0.00673183
0.00697357
0.0856362
0.00699218
0.0951315
0.00702432
0.10819
0.00694795
0.124721
0.0066292
0.144518
0.00592116
0.166067
0.0047392
0.18888
0.00287969
0.215495
0.286996
0.00731808
0.0768742
-0.00678049
0.00752284
0.0854314
0.00768967
0.0949647
0.00784162
0.108038
0.00785715
0.124705
0.00756974
0.144805
0.00680774
0.166829
0.005476
0.190212
0.00338906
0.217582
0.290385
0.0075589
0.0760671
-0.0067518
0.00797666
0.0850136
0.00828591
0.0946554
0.0085567
0.107767
0.00866946
0.124592
0.00842592
0.145049
0.00763162
0.167624
0.00616916
0.191675
0.00387414
0.219877
0.294259
0.00769793
0.0750305
-0.00666132
0.0083311
0.0843805
0.00877579
0.0942107
0.0091643
0.107379
0.00938186
0.124375
0.00919862
0.145232
0.00839408
0.168428
0.00682201
0.193247
0.00433824
0.22236
0.298597
0.00772926
0.0738356
-0.00653435
0.00856237
0.0835474
0.0091295
0.0936436
0.00962427
0.106884
0.00994397
0.124055
0.00983046
0.145346
0.00904119
0.169218
0.00739616
0.194892
0.00475647
0.225
0.303354
0.00773245
0.0725192
-0.00641613
0.00875539
0.0825244
0.00943279
0.0929662
0.0100247
0.106292
0.0104466
0.123633
0.010411
0.145381
0.00964576
0.169983
0.00793592
0.196601
0.00514994
0.227786
0.308504
0.00744793
0.0713668
-0.00629546
0.00856838
0.081404
0.00938312
0.0921515
0.0100653
0.10561
0.0105971
0.123102
0.0106629
0.145316
0.00999505
0.170651
0.00828632
0.19831
0.00546143
0.230611
0.313965
-0.0399588
0.0657976
0.045528
-0.0336812
0.0751264
-0.028737
0.0872073
-0.0239461
0.100819
-0.0192683
0.118424
-0.0143829
0.14043
-0.00922282
0.165491
-0.00430925
0.193397
-0.00159251
0.227894
0.312372
-0.055686
0.0599138
0.0615698
-0.049474
0.0689144
-0.0433519
0.0810852
-0.036923
0.0943903
-0.0305039
0.112005
-0.0235219
0.133448
-0.0159705
0.157939
-0.00858701
0.186013
-0.0036849
0.222992
0.308688
-0.072825
0.0536934
0.0790453
-0.065874
0.0619634
-0.0585556
0.0737668
-0.0508052
0.0866399
-0.0427947
0.103994
-0.0335709
0.124224
-0.0234776
0.147846
-0.0133829
0.175918
-0.0055923
0.215201
0.303095
-0.0917749
0.0474285
0.0980398
-0.0838387
0.0540272
-0.0756473
0.0655755
-0.066709
0.0777015
-0.0567659
0.094051
-0.0449363
0.112395
-0.032003
0.134913
-0.0188452
0.162761
-0.00797137
0.204328
0.295124
-0.113095
0.0400608
0.120463
-0.10495
0.0458819
-0.0960959
0.0567217
-0.0854587
0.0670643
-0.0730709
0.0816632
-0.0584625
0.0977864
-0.0424695
0.11892
-0.0256913
0.145982
-0.0109472
0.189584
0.284177
-0.138894
0.0329877
0.145967
-0.129841
0.0368291
-0.11947
0.0463506
-0.106743
0.0543365
-0.0920264
0.0669471
-0.0748185
0.0805785
-0.0555864
0.0996875
-0.0348788
0.125275
-0.0158807
0.170585
0.268296
-0.168186
0.0240845
0.177089
-0.158696
0.0273397
-0.146979
0.0346334
-0.132883
0.0402401
-0.116429
0.0504937
-0.0966369
0.060786
-0.0741161
0.0771666
-0.0492924
0.100451
-0.024146
0.145439
0.24415
-0.203116
0.0152917
0.211909
-0.192498
0.0167214
-0.179519
0.0216547
-0.164359
0.0250803
-0.146148
0.0322824
-0.124684
0.0393222
-0.100263
0.0527451
-0.0724017
0.0725902
-0.0403636
0.113401
0.203786
-0.254091
0.00592755
0.263455
-0.244141
0.0067714
-0.2315
0.00901355
-0.217335
0.0109157
-0.199685
0.0146322
-0.179299
0.0189358
-0.153776
0.0272229
-0.121152
0.0399657
-0.0740022
0.0662513
0.129784
-0.323493
0.32942
-0.316721
-0.307708
-0.296792
-0.28216
-0.263224
-0.236001
-0.196035
-0.129784
0.00275945
0.0477046
-0.00493612
-1.23847e-05
0.0643416
-0.00193553
0.0809684
-0.0036371
0.0997414
-0.00495369
0.121779
-0.0059278
0.146941
-0.00620523
0.177366
-0.0060644
0.211768
-0.004239
0.26163
0.325181
0.00280512
0.0495365
-0.00463698
0.000427785
0.0667189
-0.00157287
0.0829691
-0.0032823
0.101451
-0.00462809
0.123125
-0.00559984
0.147913
-0.00595238
0.177719
-0.00581741
0.211633
-0.00411814
0.25993
0.321063
0.00304602
0.0509215
-0.00443102
0.000993104
0.0687719
-0.000919006
0.0848812
-0.00256232
0.103094
-0.00389067
0.124453
-0.00485433
0.148877
-0.00528194
0.178147
-0.0051694
0.211521
-0.00377285
0.258534
0.31729
0.00335652
0.051877
-0.00431202
0.00160085
0.0705275
-0.000206648
0.0866887
-0.00171634
0.104604
-0.00298439
0.125721
-0.00395626
0.149849
-0.00443998
0.17863
-0.00444083
0.211522
-0.00332838
0.257421
0.313962
0.00371887
0.0524158
-0.00425763
0.00228614
0.0719603
0.00067816
0.0882967
-0.000796036
0.106078
-0.00198969
0.126915
-0.00296306
0.150822
-0.00350958
0.179177
-0.00365312
0.211665
-0.00281948
0.256588
0.311142
0.00415366
0.0525081
-0.00424602
0.00308004
0.0730339
0.00168226
0.0896945
0.000252622
0.107508
-0.000880225
0.128048
-0.00186465
0.151806
-0.00249698
0.179809
-0.00279719
0.211965
-0.00225941
0.25605
0.308883
0.00466466
0.0521012
-0.00425772
0.00397734
0.0737212
0.00279777
0.090874
0.00153456
0.108771
0.000375213
0.129207
-0.000662173
0.152844
-0.00137194
0.180519
-0.00186874
0.212462
-0.00165463
0.255836
0.307228
0.00522564
0.0511474
-0.0042719
0.00495799
0.0739888
0.0040141
0.0918179
0.00288299
0.109902
0.00177985
0.13031
0.000703613
0.15392
-9.82388e-05
0.181321
-0.000880166
0.213244
-0.001007
0.255963
0.306221
0.00580463
0.0496102
-0.00426735
0.00599773
0.0737957
0.00531087
0.0925048
0.00431358
0.110899
0.003253
0.131371
0.00218016
0.154993
0.00118449
0.182316
0.000149354
0.214279
-0.000313115
0.256425
0.305908
0.00636511
-0.00422641
0.00706941
0.00666654
0.00581164
0.00479038
0.00369228
0.00255321
0.00133746
0.000373341
0.000242189
-0.00100912
0.000795137
-0.00272741
0.0015863
-0.00396776
0.00256073
-0.00479237
0.00367829
-0.00527144
0.00491253
-0.00547155
0.00625048
-0.00545188
0.00769657
-0.00526335
0.00929421
-0.00496106
-0.00465871
0.000295049
-0.00130417
0.000931633
-0.003364
0.00181181
-0.00484794
0.00286621
-0.00584677
0.00404781
-0.00645305
0.00532861
-0.00675234
0.00669685
-0.00682012
0.00815542
-0.00672193
0.00971646
-0.00652209
-0.00630211
0.000337527
-0.0016417
0.00102989
-0.00405636
0.00195315
-0.0057712
0.00302378
-0.0069174
0.00418865
-0.00761792
0.00541833
-0.00798202
0.00670066
-0.00810245
0.00803432
-0.00805559
0.00941786
-0.00790563
-0.00771207
0.000365643
-0.00200734
0.00107886
-0.00476957
0.00199158
-0.00668392
0.00300898
-0.00793479
0.00407519
-0.00868413
0.00516282
-0.00906966
0.00626314
-0.00920276
0.00737729
-0.00916974
0.00850668
-0.00903503
-0.00884928
0.000375976
-0.00238332
0.00107054
-0.00546413
0.00191666
-0.00753004
0.00281387
-0.00883201
0.00370922
-0.00957947
0.00458227
-0.00994272
0.00543221
-0.0100527
0.00626766
-0.0100052
0.00709885
-0.00986622
-0.00968495
0.000365951
-0.00274927
0.00100078
-0.00609896
0.00172709
-0.00825636
0.0024467
-0.00955162
0.00311585
-0.0102486
0.00372546
-0.0105523
0.00428521
-0.0106124
0.00481238
-0.0105324
0.00532539
-0.0103792
-0.0102019
0.000334146
-0.00308341
0.000869753
-0.00663457
0.00143056
-0.00881716
0.00192927
-0.0100503
0.00233672
-0.0106561
0.00265743
-0.010873
0.00291137
-0.0108664
0.00312244
-0.0107434
0.00331313
-0.0105699
-0.0103928
0.000280543
-0.00336396
0.000682032
-0.00703605
0.00104231
-0.00917745
0.00129276
-0.0103008
0.001422
-0.0107853
0.00144784
-0.0108989
0.00139803
-0.0108166
0.00129949
-0.0106449
0.00117411
-0.0104445
-0.0102547
0.000206623
-0.00357058
0.000445998
-0.00727543
0.000582936
-0.00931438
0.000573098
-0.0102909
0.00042341
-0.0106356
0.000162531
-0.010638
-0.000177517
-0.0104765
-0.000570218
-0.0102522
-0.000996969
-0.0100178
-0.00980475
0.00011519
-0.00368577
0.000172846
-0.00733308
7.5818e-05
-0.00921736
-0.000193208
-0.0100219
-0.000610689
-0.0102181
-0.0011407
-0.010108
-0.00175054
-0.00986669
-0.0024168
-0.00958593
-0.00312526
-0.00930934
-0.00905947
2.81833e-05
-0.00371395
-9.92964e-05
-0.00720561
-0.000429269
-0.00888738
-0.000948105
-0.00950308
-0.00161751
-0.00954874
-0.00239713
-0.00932836
-0.00325582
-0.009008
-0.00417411
-0.00866764
-0.00514243
-0.00834101
-0.00804136
-7.99764e-05
-0.00363398
-0.000400439
-0.00688514
-0.000955429
-0.00833239