/*--------------------------------*- C++ -*----------------------------------*\
  =========                 |
  \\      /  F ield         | OpenFOAM: The Open Source CFD Toolbox
   \\    /   O peration     | Website:  https://openfoam.org
    \\  /    A nd           | Version:  7
     \\/     M anipulation  |
\*---------------------------------------------------------------------------*/
FoamFile
{
    version     2.0;
    format      ascii;
    class       volVectorField;
    location    "55";
    object      U;
}
// * * * * * * * * * * * * * * * * * * * * * * * * * * * * * * * * * * * * * //

dimensions      [0 1 -1 0 0 0 0];

internalField   nonuniform List<vector> 
2000
(
(-0.000662335 -0.00797691 -7.23559e-22)
(-0.00181522 -0.0131995 0)
(-0.00232253 -0.0123307 0)
(-0.00139215 -0.00705329 -3.58327e-21)
(0.000975505 0.00181867 1.11871e-21)
(0.00468765 0.0138467 1.98044e-23)
(0.00957245 0.0286923 -1.92928e-21)
(0.0153716 0.0459634 0)
(0.0216808 0.0651318 0)
(0.0280917 0.0854764 0)
(-0.000280704 -0.00720033 0)
(-0.00126887 -0.0125465 -2.79043e-21)
(-0.00204019 -0.0124292 2.57336e-21)
(-0.0016964 -0.00826184 4.77247e-21)
(-0.000180307 -0.000749426 0)
(0.00248265 0.00975887 4.22315e-21)
(0.00620382 0.0230341 -3.92716e-21)
(0.0108145 0.0388243 0)
(0.0159745 0.0567632 7.09376e-21)
(0.0212717 0.0763229 -1.36843e-20)
(4.20995e-05 -0.00632054 0)
(-0.000553792 -0.0117358 2.25711e-20)
(-0.00120357 -0.0123057 0)
(-0.00105391 -0.00918758 1.96001e-20)
(-3.05041e-05 -0.00300375 0)
(0.00187805 0.00595108 -1.72132e-20)
(0.00464575 0.0175282 0)
(0.00818731 0.0316064 1.52447e-20)
(0.0122463 0.0480023 -1.42772e-20)
(0.0163788 0.0664331 -1.39803e-20)
(0.000331805 -0.00542238 -5.9578e-21)
(0.000414582 -0.0108708 -1.12153e-20)
(0.000334151 -0.01201 -5.25164e-21)
(0.000746567 -0.00979099 -9.67524e-21)
(0.00170814 -0.00478469 -9.16734e-21)
(0.00323772 0.00272551 8.48559e-21)
(0.00534643 0.0126298 8.11545e-21)
(0.00801882 0.0249022 4.03919e-23)
(0.0111008 0.0395427 1.45231e-20)
(0.0140957 0.056544 1.39812e-20)
(0.000639375 -0.00460114 -5.97426e-21)
(0.00174682 -0.0100646 -1.14743e-20)
(0.00272558 -0.0116048 -2.14986e-20)
(0.00389831 -0.0100524 9.8831e-21)
(0.0052783 -0.00595785 0)
(0.0068709 0.000368108 0)
(0.00869962 0.00879998 -1.66785e-20)
(0.0107948 0.0193552 -1.57449e-20)
(0.0131238 0.0321878 1.49301e-20)
(0.01515 0.0475579 4.30724e-20)
(0.00103922 -0.00394735 6.00649e-21)
(0.00357032 -0.00942365 5.8332e-21)
(0.00611001 -0.0111586 -3.22448e-20)
(0.00854403 -0.00998213 5.0391e-20)
(0.010833 -0.00644695 -9.3484e-21)
(0.0129556 -0.000920966 0)
(0.0149338 0.00640648 0)
(0.0168228 0.015534 7.95251e-20)
(0.0187176 0.0267104 -7.4976e-20)
(0.0201108 0.0404053 1.4321e-20)
(0.00162573 -0.00353582 4.77044e-20)
(0.00601628 -0.00902776 0)
(0.0105936 -0.0107357 4.29626e-20)
(0.0147438 -0.0096217 -4.02708e-20)
(0.0183826 -0.00625776 0)
(0.0214653 -0.00108402 1.80366e-20)
(0.0240096 0.005621 -5.0655e-20)
(0.0260815 0.0137748 -6.40459e-20)
(0.0278988 0.0236398 3.01469e-20)
(0.0291032 0.0358051 2.90973e-20)
(0.00250304 -0.00340542 -9.52276e-20)
(0.00920878 -0.00891951 -1.16178e-20)
(0.0162301 -0.0103831 -2.16437e-20)
(0.0224534 -0.00903354 -5.06622e-20)
(0.0277676 -0.00547842 -1.92376e-20)
(0.032123 -0.000227167 -1.81536e-20)
(0.0355445 0.0063513 -7.18298e-23)
(0.0381066 0.0140588 0)
(0.0401341 0.0230852 0)
(0.0415688 0.0340355 1.72544e-22)
(0.00376854 -0.00355561 4.75242e-20)
(0.0132431 -0.00909133 -4.61513e-20)
(0.0230073 -0.0101124 3.23343e-20)
(0.0315124 -0.00828484 7.11963e-20)
(0.0386549 -0.00426417 -1.89454e-20)
(0.0444123 0.00138626 1.81512e-20)
(0.0488382 0.0082364 1.70987e-20)
(0.0520133 0.0159922 0)
(0.0543157 0.0247383 0)
(0.0561257 0.0349773 -2.57603e-22)
(0.00550768 -0.00394797 -5.89792e-21)
(0.0181659 -0.00947282 5.78033e-20)
(0.0308291 -0.00989267 -1.07381e-20)
(0.0416385 -0.00743307 0)
(0.0505533 -0.00281191 0)
(0.0576327 0.00337155 3.59573e-20)
(0.0630109 0.0106757 0)
(0.0668116 0.0188018 -3.20006e-20)
(0.0693521 0.0278175 -2.99662e-22)
(0.0711656 0.0380069 2.88686e-20)
(0.044183 0.131895 5.45642e-22)
(0.0619259 0.207062 -5.52231e-22)
(0.0645245 0.265453 -6.41169e-22)
(0.0608175 0.320099 -7.11853e-22)
(0.052211 0.379415 -8.24313e-22)
(0.0458952 0.447375 -1.94553e-23)
(0.0318979 0.525706 4.32274e-22)
(0.0279187 0.617549 1.45486e-21)
(0.00495519 0.737125 0)
(0.00910187 0.876092 -1.04574e-21)
(0.0351651 0.122553 2.03156e-21)
(0.0555181 0.201447 -2.41502e-21)
(0.0603288 0.263913 4.3391e-21)
(0.0577827 0.320508 7.13083e-22)
(0.0498515 0.380663 1.51739e-21)
(0.0440021 0.449123 2.50195e-21)
(0.030599 0.527926 -9.08745e-22)
(0.026833 0.620272 -9.7298e-22)
(0.00478913 0.739766 1.9367e-21)
(0.00861132 0.877698 1.04325e-21)
(0.0271303 0.111834 0)
(0.0493397 0.193658 -2.30007e-21)
(0.0564825 0.260772 -1.26716e-21)
(0.0551232 0.319714 0)
(0.0478116 0.380858 -4.63343e-21)
(0.0423882 0.449916 1.48349e-21)
(0.0294982 0.529295 1.61959e-21)
(0.0258948 0.622264 5.41658e-21)
(0.00469215 0.742027 -1.93044e-21)
(0.0081696 0.879127 3.86848e-21)
(0.0207553 0.100323 0)
(0.0433961 0.183644 2.31958e-21)
(0.0529678 0.25594 0)
(0.0528153 0.317661 5.60805e-21)
(0.0460788 0.379967 -5.63693e-21)
(0.0410408 0.449677 -3.23913e-21)
(0.0285863 0.529625 -1.39299e-22)
(0.0251113 0.62322 -5.31523e-21)
(0.00466738 0.743427 -8.80081e-22)
(0.00775376 0.88014 -4.77306e-21)
(0.0170494 0.0888054 3.32607e-22)
(0.0378009 0.171545 -6.64326e-21)
(0.0497637 0.249336 3.00609e-22)
(0.0508279 0.314312 -5.12624e-21)
(0.0446347 0.378078 0)
(0.0399331 0.448622 -3.14361e-21)
(0.027837 0.529312 -1.72105e-22)
(0.0244537 0.623756 6.81573e-21)
(0.00468238 0.74467 8.89242e-22)
(0.00737791 0.881098 -8.92421e-22)
(0.017161 0.0781793 -1.81625e-20)
(0.0328633 0.157826 1.16109e-20)
(0.0468526 0.240906 5.07129e-21)
(0.0491384 0.309561 -5.06853e-21)
(0.043473 0.375006 -2.75146e-21)
(0.0390687 0.446377 0)
(0.0272587 0.527717 -6.29284e-21)
(0.0239396 0.622923 3.12716e-21)
(0.00476393 0.744682 3.33413e-21)
(0.00701147 0.881525 3.41351e-21)
(0.0219176 0.0693119 -2.26939e-21)
(0.0291663 0.143335 0)
(0.0442254 0.230649 0)
(0.0477098 0.303554 0)
(0.0425713 0.371244 -2.87612e-21)
(0.0384059 0.443823 5.61886e-21)
(0.0268097 0.526145 6.18417e-21)
(0.0235043 0.622419 -9.46379e-21)
(0.00484027 0.745203 1.6409e-21)
(0.00669065 0.882155 -5.00586e-21)
(0.0313159 0.0627383 1.41004e-20)
(0.0275521 0.129208 9.88262e-21)
(0.0419639 0.218634 -9.7937e-21)
(0.046545 0.295704 1.05249e-20)
(0.0419217 0.365624 -1.30777e-20)
(0.0379879 0.439232 0)
(0.0265362 0.522282 -2.88867e-21)
(0.0232335 0.619481 9.32697e-23)
(0.00501599 0.743632 -3.05877e-21)
(0.00635886 0.882011 -3.12629e-21)
(0.044228 0.0581474 -1.20998e-20)
(0.0289485 0.116001 0)
(0.040153 0.205623 -1.13614e-20)
(0.0456308 0.287876 2.04252e-20)
(0.0415149 0.361084 -7.62496e-21)
(0.0376963 0.436415 -1.35722e-21)
(0.0263294 0.520613 2.88256e-21)
(0.0229435 0.618934 1.28012e-23)
(0.00509266 0.744099 4.46056e-21)
(0.00608894 0.882526 4.57054e-21)
(0.0582705 0.0556527 -1.01309e-20)
(0.0342206 0.10337 9.89941e-21)
(0.0394331 0.188318 1.25096e-21)
(0.0448517 0.273883 0)
(0.041295 0.350267 0)
(0.0377678 0.427422 1.31174e-21)
(0.026392 0.512872 5.38297e-21)
(0.0229625 0.61277 -5.22586e-21)
(0.00540154 0.740334 -1.34794e-21)
(0.00577619 0.881779 1.30648e-21)
(0.0799994 0.0667067 0)
(0.0491193 0.101594 0)
(0.0427841 0.176959 0)
(0.0459587 0.268583 0)
(0.0414373 0.350538 0)
(0.0373295 0.43034 0)
(0.0261281 0.516312 0)
(0.0221576 0.616893 0)
(0.00528856 0.744098 0)
(0.00526978 0.883488 0)
(0.0956623 0.0954623 0)
(0.0710785 0.131573 0)
(0.0522164 0.18745 0)
(0.0490176 0.271687 0)
(0.0428591 0.356029 0)
(0.036223 0.438024 0)
(0.0246517 0.525927 0)
(0.0203712 0.628301 0)
(0.00508217 0.755108 0)
(0.00469341 0.890299 0)
(0.0992107 0.106572 0)
(0.0849475 0.153226 0)
(0.0636958 0.20344 0)
(0.0537184 0.279514 0)
(0.0464861 0.363655 0)
(0.0392453 0.445974 0)
(0.0267656 0.533009 0)
(0.020752 0.634914 0)
(0.00566826 0.760911 0)
(0.00444173 0.892709 0)
(0.0952714 0.1109 0)
(0.0893002 0.168105 0)
(0.0721231 0.219933 0)
(0.0583819 0.291143 0)
(0.0475642 0.374221 0)
(0.0385254 0.45731 0)
(0.0263861 0.545036 0)
(0.0201994 0.647482 0)
(0.00609854 0.772873 0)
(0.00419452 0.900512 0)
(0.087161 0.111144 0)
(0.0866192 0.176964 0)
(0.0753203 0.233019 0)
(0.0631395 0.301973 0)
(0.0525814 0.384223 0)
(0.0422404 0.466827 0)
(0.0286322 0.5529 0)
(0.0209976 0.653638 0)
(0.00693223 0.777532 0)
(0.00417549 0.902343 0)
(0.0753398 0.108993 0)
(0.0786462 0.181403 0)
(0.0727992 0.244198 0)
(0.0619399 0.314303 0)
(0.0507829 0.396268 0)
(0.0408117 0.480086 0)
(0.0281332 0.567155 0)
(0.0204494 0.668292 0)
(0.00726244 0.791 0)
(0.00398435 0.911501 0)
(0.0612891 0.104164 0)
(0.0676313 0.179802 0)
(0.0683288 0.248663 0)
(0.0635127 0.322953 0)
(0.0542559 0.406304 0)
(0.0434396 0.489313 0)
(0.0298517 0.574302 0)
(0.0210905 0.673318 0)
(0.00779699 0.794647 0)
(0.0039609 0.913124 0)
(0.0464686 0.0977873 0)
(0.0542763 0.175972 0)
(0.057133 0.250101 0)
(0.0549481 0.328851 0)
(0.048807 0.41611 0)
(0.0405258 0.503168 0)
(0.0287902 0.590515 0)
(0.0205067 0.690073 0)
(0.00811858 0.809737 0)
(0.00382142 0.923789 0)
(0.0330554 0.0884699 0)
(0.0443455 0.16806 0)
(0.0529167 0.248765 0)
(0.0549569 0.333622 0)
(0.0499733 0.422848 0)
(0.0415335 0.509134 0)
(0.0295228 0.594911 0)
(0.020735 0.692892 0)
(0.00833569 0.811748 0)
(0.00380541 0.92469 0)
(0.0168019 0.0745233 0)
(0.02627 0.152079 0)
(0.0362555 0.235967 0)
(0.0429748 0.329352 0)
(0.043201 0.428446 0)
(0.0384413 0.522728 0)
(0.0287538 0.612561 0)
(0.0204886 0.711409 0)
(0.00880316 0.828181 0)
(0.00371004 0.936394 0)
(0.100223 0.0541892 8.65067e-21)
(0.106777 0.0672921 -8.50906e-21)
(0.104882 0.0699841 7.61677e-22)
(0.0980846 0.0691803 0)
(0.0878191 0.0657907 0)
(0.0739281 0.0613462 2.15009e-22)
(0.0578993 0.055436 -2.03927e-22)
(0.0414225 0.0485511 2.00674e-22)
(0.0268086 0.0404274 -3.75471e-23)
(0.0120622 0.0281813 3.70167e-23)
(0.10569 0.04873 -1.11082e-20)
(0.10696 0.0558323 0)
(0.102734 0.0549418 4.30369e-21)
(0.0948957 0.0519398 -8.54954e-21)
(0.0842462 0.0469635 4.21816e-21)
(0.070357 0.0414768 -2.11384e-22)
(0.0545845 0.0349729 1.50322e-22)
(0.0384353 0.0278501 -3.47632e-23)
(0.0239722 0.0201163 -7.24009e-23)
(0.010256 0.00852814 -4.75696e-23)
(0.108382 0.0420149 1.24834e-20)
(0.106273 0.0440521 -6.07387e-21)
(0.10078 0.0402393 6.01516e-21)
(0.0922063 0.0352048 -3.31462e-21)
(0.0811717 0.0285741 2.60077e-21)
(0.0671628 0.0219 0)
(0.0515123 0.0146058 -1.50665e-22)
(0.0356258 0.00716053 -5.66388e-24)
(0.0212924 -0.000312383 6.66752e-23)
(0.00830354 -0.0110338 8.67026e-23)
(0.109292 0.0332268 -1.92077e-21)
(0.104571 0.0309585 0)
(0.0982657 0.0248099 0)
(0.0891963 0.0181012 0)
(0.0779721 0.0100444 1.56811e-21)
(0.0639964 0.00235731 -9.58543e-22)
(0.0485595 -0.00565276 6.69709e-23)
(0.0329858 -0.0133605 7.59991e-23)
(0.0188616 -0.0206701 3.55505e-23)
(0.00684733 -0.0303094 3.64057e-23)
(0.108545 0.0225576 -1.06519e-21)
(0.101911 0.0167614 -5.079e-21)
(0.0951469 0.00868431 -2.08015e-21)
(0.0857566 0.000604658 2.07857e-21)
(0.0744779 -0.00865472 -6.01984e-22)
(0.0606771 -0.017145 0)
(0.0455588 -0.0257277 -1.2715e-22)
(0.0304016 -0.0335938 -4.12642e-23)
(0.0166593 -0.0407345 3.30756e-23)
(0.00552189 -0.0491805 -7.26595e-23)
(0.106439 0.0104155 -1.35147e-20)
(0.0985165 0.0018494 2.23456e-21)
(0.0915641 -0.00788451 5.92025e-22)
(0.0820046 -0.0170803 1.99718e-21)
(0.070795 -0.0273578 0)
(0.0572516 -0.0364622 0)
(0.0425343 -0.0454709 0)
(0.0278736 -0.0533878 6.2763e-24)
(0.0146491 -0.0602904 0)
(0.00436857 -0.0675107 0)
(0.10322 -0.00277483 0)
(0.0945267 -0.0134022 3.86805e-21)
(0.087624 -0.0246172 -2.50386e-21)
(0.0780003 -0.0347014 -1.37941e-21)
(0.0669747 -0.0458339 1.38646e-21)
(0.0537563 -0.0553925 2.25869e-22)
(0.0395209 -0.0646989 -2.94474e-22)
(0.0254265 -0.0725584 -9.26364e-23)
(0.0128198 -0.0791297 3.738e-24)
(0.0034134 -0.0851431 2.89924e-23)
(0.0990815 -0.016632 0)
(0.0900858 -0.0286694 -1.36515e-21)
(0.0833669 -0.0412402 -5.42599e-22)
(0.0737837 -0.0519907 0)
(0.0630411 -0.063843 1.596e-22)
(0.0502368 -0.0737213 -6.08137e-22)
(0.0365434 -0.0832039 1.84115e-22)
(0.0230818 -0.0909038 -2.40038e-23)
(0.0111703 -0.0970487 9.26492e-24)
(0.0026407 -0.101917 -3.98943e-23)
(0.0941576 -0.0308431 1.70482e-21)
(0.0852915 -0.0436644 1.20252e-21)
(0.0788199 -0.057492 -4.02148e-22)
(0.0694037 -0.0687131 2.03504e-22)
(0.059036 -0.0811531 2.78986e-22)
(0.0467248 -0.0912322 2.52708e-22)
(0.0336262 -0.100773 -4.37398e-23)
(0.0208602 -0.108223 -1.41402e-23)
(0.00969937 -0.11386 -9.2952e-24)
(0.00202632 -0.117682 -4.39647e-24)
(0.0885921 -0.0450987 -3.61268e-22)
(0.0801914 -0.0581572 3.64685e-22)
(0.0740627 -0.0731473 -2.6934e-22)
(0.0649202 -0.0846579 -2.03189e-22)
(0.0549969 -0.0975512 1.15934e-22)
(0.0432538 -0.107728 -2.0381e-22)
(0.0307972 -0.117209 5.94972e-23)
(0.0187818 -0.124335 -1.73093e-24)
(0.00840319 -0.129409 0)
(0.00154587 -0.132311 4.40504e-24)
(0.0826265 -0.0591423 3.63894e-22)
(0.0749202 -0.0719766 -3.67074e-22)
(0.0692052 -0.0880198 -2.7457e-22)
(0.060432 -0.0996571 -2.10016e-22)
(0.050991 -0.112858 -1.21038e-22)
(0.0398776 -0.123046 2.42252e-23)
(0.0280933 -0.13235 3.69963e-23)
(0.0168662 -0.139105 4.4221e-23)
(0.00727498 -0.143587 0)
(0.00117518 -0.145717 -6.28487e-25)
(0.0765316 -0.0727993 0)
(0.069659 -0.0850083 -1.22731e-21)
(0.0643838 -0.10196 2.07245e-21)
(0.0560614 -0.113592 2.10321e-22)
(0.0471026 -0.126936 3.14805e-22)
(0.0366584 -0.137074 3.07156e-22)
(0.025554 -0.146087 -5.56158e-23)
(0.0151287 -0.152452 -2.53833e-23)
(0.00630479 -0.156344 2.46473e-23)
(0.000891779 -0.157858 6.269e-25)
(0.0705014 -0.0859542 0)
(0.0645365 -0.0972006 -1.39346e-21)
(0.0596855 -0.11486 -5.62282e-22)
(0.0518896 -0.1264 0)
(0.0433897 -0.139699 -8.51852e-22)
(0.0336385 -0.149756 3.31003e-22)
(0.0232073 -0.158372 1.77063e-22)
(0.0135754 -0.164363 2.50204e-22)
(0.0054799 -0.167689 -2.45668e-23)
(0.000676061 -0.16874 1.96397e-23)
(0.0646666 -0.0985297 0)
(0.0596358 -0.108575 1.40497e-21)
(0.0551573 -0.126656 0)
(0.0479603 -0.138091 1.57885e-21)
(0.0398863 -0.151124 -1.58707e-21)
(0.0308394 -0.161105 -3.75788e-22)
(0.0210682 -0.16923 1.01291e-22)
(0.0122027 -0.17489 -2.64012e-22)
(0.00478574 -0.177686 -4.70038e-23)
(0.000511408 -0.17842 -3.17839e-23)
(0.0591341 -0.110476 1.39682e-20)
(0.0550354 -0.119229 -5.25065e-21)
(0.0508467 -0.137332 -5.22895e-22)
(0.0443082 -0.148732 -2.15661e-21)
(0.0366241 -0.161254 0)
(0.0282722 -0.171193 -4.05972e-22)
(0.0191433 -0.178748 1.55527e-22)
(0.0110003 -0.184138 4.25308e-22)
(0.00420718 -0.18645 1.51807e-23)
(0.000383981 -0.186995 -1.51507e-23)
(0.0539778 -0.121746 1.10795e-21)
(0.0508136 -0.129333 8.17594e-21)
(0.0468123 -0.146918 2.2409e-21)
(0.0409641 -0.158443 -2.2396e-21)
(0.0336365 -0.170191 -7.59889e-22)
(0.0259426 -0.180143 0)
(0.0174342 -0.187064 -6.38327e-22)
(0.00995415 -0.192255 3.39702e-22)
(0.00372983 -0.194128 1.57254e-22)
(0.000282662 -0.194591 3.95143e-23)
(0.0492792 -0.13226 -1.93431e-21)
(0.0470852 -0.139116 0)
(0.0431529 -0.155488 0)
(0.0379699 -0.167373 0)
(0.0309691 -0.178085 -5.78785e-22)
(0.0238592 -0.188107 1.33729e-21)
(0.0159419 -0.194348 6.62904e-22)
(0.00905106 -0.199409 -7.61296e-22)
(0.00334147 -0.200888 4.08894e-23)
(0.000198609 -0.201358 -7.95529e-23)
(0.0450639 -0.141875 -4.45823e-21)
(0.0438973 -0.148832 6.05878e-21)
(0.0399166 -0.163153 -6.0019e-21)
(0.0353139 -0.175673 3.81572e-21)
(0.0286342 -0.185118 -4.62169e-21)
(0.0220082 -0.195252 0)
(0.0146536 -0.200785 -4.1601e-22)
(0.00827306 -0.205775 -2.25247e-23)
(0.00302958 -0.206903 -1.42341e-22)
(0.000123254 -0.207452 -4.94695e-23)
(0.0407182 -0.150279 -2.09487e-21)
(0.0406955 -0.158709 0)
(0.0367672 -0.17007 -5.91013e-21)
(0.0326882 -0.18349 9.13707e-21)
(0.0264409 -0.191501 -3.1281e-21)
(0.0202501 -0.201759 -3.23033e-22)
(0.0134853 -0.206565 4.15065e-22)
(0.00756979 -0.211525 4.9653e-23)
(0.00276921 -0.212341 2.98957e-22)
(4.97077e-05 -0.213031 9.79345e-23)
(0.0363681 -0.156782 -8.51997e-21)
(0.0373577 -0.168944 8.31485e-21)
(0.0338391 -0.176518 7.67131e-22)
(0.0301141 -0.191005 0)
(0.0243964 -0.197494 0)
(0.018588 -0.207843 3.3312e-22)
(0.0124224 -0.211904 7.7243e-22)
(0.00692968 -0.216835 -7.57691e-22)
(0.00254649 -0.217361 -5.54274e-23)
(3.62065e-06 -0.218248 5.41569e-23)
(0.0387776 -0.165425 0)
(0.0377467 -0.192896 0)
(0.0337329 -0.191019 0)
(0.0289251 -0.208266 0)
(0.0231095 -0.211396 0)
(0.0170026 -0.221958 0)
(0.0112846 -0.224219 0)
(0.00614034 -0.228991 0)
(0.0023423 -0.228761 0)
(5.26536e-05 -0.230073 0)
(0.028621 -0.204524 0)
(0.0236612 -0.230896 0)
(0.021904 -0.224126 0)
(0.0176336 -0.239671 0)
(0.0145672 -0.238583 0)
(0.0104658 -0.247598 0)
(0.00721608 -0.247073 0)
(0.00393734 -0.25111 0)
(0.00167035 -0.249641 0)
(0.000102264 -0.2512 0)
(0.0265311 -0.244413 0)
(0.0207461 -0.26973 0)
(0.0183571 -0.25915 0)
(0.0138993 -0.274058 0)
(0.0113608 -0.269653 0)
(0.00780634 -0.278231 0)
(0.00553841 -0.275533 0)
(0.00300493 -0.279507 0)
(0.00145543 -0.276953 0)
(0.000111999 -0.278907 0)
(0.0232754 -0.289798 0)
(0.0172943 -0.314914 0)
(0.015137 -0.301298 0)
(0.0109295 -0.316355 0)
(0.00908185 -0.309205 0)
(0.00602502 -0.318093 0)
(0.00452675 -0.313552 0)
(0.0024531 -0.317977 0)
(0.00137706 -0.314346 0)
(0.000103418 -0.316906 0)
(0.0207288 -0.344311 0)
(0.0150833 -0.369396 0)
(0.0128163 -0.354085 0)
(0.00896557 -0.369651 0)
(0.00747861 -0.360663 0)
(0.00482491 -0.370276 0)
(0.00381408 -0.364337 0)
(0.0020201 -0.369519 0)
(0.00127259 -0.364945 0)
(5.84574e-05 -0.368326 0)
(0.0183288 -0.409456 0)
(0.0130254 -0.432902 0)
(0.0108736 -0.418372 0)
(0.00735258 -0.433644 0)
(0.00614917 -0.424415 0)
(0.00378825 -0.434326 0)
(0.00307323 -0.427878 0)
(0.00145303 -0.433622 0)
(0.000980682 -0.4286 0)
(-5.67043e-05 -0.432696 0)
(0.0151051 -0.48022 0)
(0.010538 -0.499333 0)
(0.00871986 -0.488634 0)
(0.00572775 -0.501721 0)
(0.00472996 -0.494321 0)
(0.00269183 -0.50314 0)
(0.00210588 -0.497518 0)
(0.000696657 -0.502889 0)
(0.000473921 -0.498335 0)
(-0.000195681 -0.502499 0)
(0.0113532 -0.544522 0)
(0.00787365 -0.557986 0)
(0.00634772 -0.552593 0)
(0.00400429 -0.561824 0)
(0.00319367 -0.55752 0)
(0.00155666 -0.563765 0)
(0.00108046 -0.560004 0)
(-3.15675e-05 -0.563814 0)
(-1.00508e-05 -0.560553 0)
(-0.000273982 -0.563717 0)
(0.0068922 -0.591117 0)
(0.00462287 -0.598817 0)
(0.00371425 -0.598256 0)
(0.00226636 -0.603541 0)
(0.00178392 -0.602401 0)
(0.00070778 -0.605643 0)
(0.000397076 -0.603943 0)
(-0.000324989 -0.605691 0)
(-0.000196393 -0.603957 0)
(-0.000230248 -0.605531 0)
(0.00215138 -0.614241 0)
(0.00132885 -0.619713 0)
(0.00115654 -0.621749 0)
(0.000700823 -0.624806 0)
(0.000582727 -0.625231 0)
(0.000205061 -0.626765 0)
(9.8226e-05 -0.626164 0)
(-0.000154196 -0.626756 0)
(-9.46503e-05 -0.625894 0)
(-8.45201e-05 -0.626527 0)
(0.0356125 -0.177813 9.84767e-21)
(0.0290369 -0.217761 -9.66257e-21)
(0.0283403 -0.259163 1.21813e-21)
(0.0253598 -0.30612 0)
(0.0232207 -0.36098 0)
(0.020656 -0.424306 1.32468e-21)
(0.0172572 -0.4907 -5.58419e-21)
(0.0129826 -0.549168 5.52222e-21)
(0.00813878 -0.591061 1.48051e-21)
(0.00278728 -0.611426 -1.45833e-21)
(0.0349115 -0.184118 -1.16759e-20)
(0.0296482 -0.223457 0)
(0.0292327 -0.264621 8.08353e-21)
(0.0263385 -0.311611 -1.84689e-20)
(0.0243375 -0.366265 1.16924e-20)
(0.0216866 -0.428771 -1.20781e-21)
(0.0182089 -0.493536 2.63657e-21)
(0.0137279 -0.550204 5.49504e-21)
(0.00869777 -0.590424 1.52117e-21)
(0.00305199 -0.610325 1.48644e-21)
(0.0346668 -0.19065 1.36684e-20)
(0.0307975 -0.229767 -9.10425e-21)
(0.0304841 -0.270347 9.01796e-21)
(0.0276322 -0.316883 -9.64497e-21)
(0.0256901 -0.371009 7.15766e-21)
(0.0228874 -0.432482 0)
(0.0192398 -0.495569 -2.64309e-21)
(0.0145111 -0.550597 1.27224e-22)
(0.00919937 -0.589332 -2.86208e-21)
(0.00323002 -0.609 -2.92164e-21)
(0.0349078 -0.196184 -2.20554e-21)
(0.0323448 -0.235435 0)
(0.0320676 -0.275695 0)
(0.0292521 -0.321856 0)
(0.0272965 -0.375483 7.78912e-21)
(0.0242901 -0.435921 -5.19446e-21)
(0.0204005 -0.497383 -2.12618e-23)
(0.0153694 -0.55074 -3.05958e-21)
(0.00969245 -0.588097 -1.56212e-21)
(0.00336038 -0.607274 -1.65888e-21)
(0.0357609 -0.201013 1.67783e-23)
(0.0342466 -0.240141 -6.61797e-21)
(0.0339276 -0.280162 -4.79126e-21)
(0.0311463 -0.32611 4.78831e-21)
(0.0291208 -0.379364 -2.55991e-21)
(0.0258819 -0.438894 0)
(0.0217157 -0.498899 -2.89858e-21)
(0.0163402 -0.550666 6.2547e-21)
(0.0102466 -0.586755 -3.19314e-21)
(0.00350109 -0.605246 3.25908e-21)
(0.0372937 -0.205354 -1.77719e-20)
(0.0365449 -0.24405 2.0537e-21)
(0.03608 -0.283698 -2.32513e-22)
(0.0332967 -0.329443 4.90507e-21)
(0.0311414 -0.382374 0)
(0.0276461 -0.441112 0)
(0.0231841 -0.499865 0)
(0.0174359 -0.550239 3.33913e-21)
(0.0108961 -0.585226 0)
(0.00368338 -0.603038 0)
(0.0395139 -0.209074 0)
(0.0392697 -0.247204 7.05758e-21)
(0.0385714 -0.286363 -4.74935e-21)
(0.035724 -0.331849 -5.36212e-21)
(0.0333706 -0.384439 5.39007e-21)
(0.0295874 -0.442455 3.09323e-21)
(0.0248038 -0.500135 -3.08185e-21)
(0.0186541 -0.54935 -1.19189e-20)
(0.0116416 -0.583433 8.49792e-22)
(0.00391142 -0.600691 -2.8639e-21)
(0.0424219 -0.211972 0)
(0.0424232 -0.249499 -2.3135e-21)
(0.0414336 -0.288132 -1.26702e-21)
(0.0384526 -0.333336 0)
(0.0358348 -0.385571 1.51702e-21)
(0.0317268 -0.442925 -4.59669e-21)
(0.0265838 -0.499688 5.00818e-21)
(0.0199951 -0.547962 1.76588e-21)
(0.0124745 -0.581336 -1.92042e-21)
(0.00417971 -0.598193 3.80354e-21)
(0.046026 -0.213909 2.20164e-21)
(0.0460027 -0.250832 2.46589e-21)
(0.0446816 -0.288927 -5.72908e-22)
(0.0414948 -0.333875 7.0326e-22)
(0.0385559 -0.385774 1.46829e-21)
(0.0340856 -0.442554 2.41326e-21)
(0.028538 -0.49856 -8.91928e-22)
(0.0214629 -0.546093 -9.53838e-22)
(0.0133881 -0.578935 1.92676e-21)
(0.00448309 -0.595517 1.03785e-21)
(0.0503351 -0.214783 -5.87833e-22)
(0.0500106 -0.251158 5.92843e-22)
(0.0483266 -0.288682 -6.49985e-22)
(0.0448547 -0.333427 -7.02383e-22)
(0.0415478 -0.385026 8.05845e-22)
(0.0366795 -0.441346 -1.6391e-21)
(0.0306825 -0.496767 1.3616e-21)
(0.0230704 -0.543754 4.81415e-22)
(0.0143877 -0.576231 0)
(0.00482263 -0.592642 -1.04015e-21)
(0.0553524 -0.214509 6.01432e-22)
(0.0544479 -0.250483 -6.06811e-22)
(0.0523805 -0.287358 -6.93088e-22)
(0.048535 -0.331977 -7.53424e-22)
(0.0448219 -0.383315 -8.37759e-22)
(0.0395168 -0.439316 -4.86641e-23)
(0.0330246 -0.494339 4.79321e-22)
(0.0248204 -0.540978 1.53044e-21)
(0.0154726 -0.573241 0)
(0.00519807 -0.589566 -1.12894e-21)
(0.0610752 -0.213053 0)
(0.0593104 -0.248824 -2.68935e-21)
(0.0568548 -0.284968 4.84038e-21)
(0.0525343 -0.329537 7.5473e-22)
(0.0483875 -0.380635 1.70765e-21)
(0.0426071 -0.436442 2.75353e-21)
(0.0355806 -0.491239 -9.67999e-22)
(0.0267328 -0.537728 -1.03615e-21)
(0.0166586 -0.569943 2.27231e-21)
(0.00561517 -0.586276 1.1263e-21)
(0.0674962 -0.210477 0)
(0.0645889 -0.246189 -2.68732e-21)
(0.0617544 -0.281567 -1.44072e-21)
(0.0568582 -0.326119 0)
(0.0522556 -0.377034 -5.33615e-21)
(0.045951 -0.432778 1.79023e-21)
(0.0383443 -0.48754 2.07132e-21)
(0.0287928 -0.534067 6.61808e-21)
(0.0179313 -0.566357 -2.26495e-21)
(0.00606721 -0.582774 4.86288e-21)
(0.0746052 -0.20691 0)
(0.0702776 -0.242556 2.71034e-21)
(0.0670716 -0.277299 0)
(0.0615015 -0.321769 6.90939e-21)
(0.0564305 -0.372512 -6.9448e-21)
(0.049567 -0.428261 -4.09325e-21)
(0.0413435 -0.483141 -7.10465e-23)
(0.0310429 -0.529894 -6.79384e-21)
(0.0193252 -0.56241 -1.13299e-21)
(0.0065655 -0.57901 -6.04844e-21)
(0.0823862 -0.202543 2.06075e-20)
(0.0763586 -0.237942 -7.82313e-21)
(0.0727883 -0.272201 5.8177e-22)
(0.0665062 -0.316473 -6.59284e-21)
(0.0609212 -0.367115 0)
(0.0534421 -0.423019 -4.25585e-21)
(0.044547 -0.478211 -3.04989e-22)
(0.03344 -0.525361 9.21946e-21)
(0.0208014 -0.558214 1.25239e-21)
(0.00708838 -0.57505 -1.25709e-21)
(0.0907956 -0.197566 -1.32147e-21)
(0.0828729 -0.232244 1.42216e-20)
(0.0788861 -0.266203 6.84109e-21)
(0.0718696 -0.310223 -6.83647e-21)
(0.0657325 -0.360801 -3.97102e-21)
(0.0576177 -0.416876 0)
(0.0480251 -0.472481 -9.41848e-21)
(0.0360706 -0.520225 4.72171e-21)
(0.0224352 -0.553628 5.0015e-21)
(0.00767331 -0.570796 5.33673e-21)
(0.0997572 -0.19202 -2.81765e-21)
(0.0898542 -0.225618 0)
(0.0852883 -0.259612 0)
(0.0775544 -0.303389 0)
(0.0708112 -0.354046 -4.48726e-21)
(0.0620111 -0.410443 8.44386e-21)
(0.0516467 -0.466607 9.58131e-21)
(0.0387755 -0.514995 -1.49994e-20)
(0.0240943 -0.548925 2.66452e-21)
(0.00824987 -0.566409 -7.92589e-21)
(0.109093 -0.185851 -4.78912e-21)
(0.0972994 -0.21807 1.34874e-20)
(0.0920009 -0.252134 -1.33588e-20)
(0.0836277 -0.295429 1.6174e-20)
(0.0762811 -0.345981 -2.02894e-20)
(0.0668301 -0.402577 0)
(0.055699 -0.459407 -4.99687e-21)
(0.0418712 -0.508777 -1.90425e-22)
(0.0260323 -0.543614 -5.52273e-21)
(0.00894513 -0.561578 -5.61493e-21)
(0.118526 -0.180032 -3.00102e-21)
(0.105004 -0.210801 0)
(0.0987614 -0.245253 -1.72645e-20)
(0.0897687 -0.288331 3.20123e-20)
(0.0817515 -0.339094 -1.22792e-20)
(0.0715718 -0.396078 -2.38993e-21)
(0.059582 -0.453462 4.98619e-21)
(0.0447538 -0.503365 -2.2942e-22)
(0.0277895 -0.538606 8.07355e-21)
(0.00951993 -0.556823 8.30896e-21)
(0.128496 -0.171685 -1.31261e-20)
(0.114227 -0.200119 1.2841e-20)
(0.106655 -0.234665 1.85401e-21)
(0.0970298 -0.277145 0)
(0.0883038 -0.327805 0)
(0.0774395 -0.385272 2.32338e-21)
(0.0645845 -0.443962 1.04194e-20)
(0.048632 -0.495613 -1.01765e-20)
(0.0302548 -0.532341 -2.75636e-21)
(0.0104221 -0.551192 2.70919e-21)
(0.139751 -0.172829 0)
(0.134008 -0.196334 0)
(0.122325 -0.232244 0)
(0.111139 -0.273953 0)
(0.100831 -0.323672 0)
(0.0881045 -0.379385 0)
(0.0731566 -0.435884 0)
(0.054888 -0.485387 0)
(0.0339898 -0.520783 0)
(0.0113639 -0.539431 0)
(0.163045 -0.156994 0)
(0.168307 -0.185257 0)
(0.149687 -0.224285 0)
(0.13844 -0.265286 0)
(0.125318 -0.314214 0)
(0.10935 -0.367444 0)
(0.0906317 -0.420227 0)
(0.0679922 -0.465479 0)
(0.0423404 -0.496864 0)
(0.0148573 -0.512152 0)
(0.194798 -0.141241 0)
(0.205015 -0.170688 0)
(0.179129 -0.209193 0)
(0.169381 -0.248537 0)
(0.152005 -0.296093 0)
(0.132226 -0.345965 0)
(0.108897 -0.394987 0)
(0.0811602 -0.437129 0)
(0.0499896 -0.46728 0)
(0.0163808 -0.483806 0)
(0.235074 -0.130292 0)
(0.246888 -0.158546 0)
(0.214565 -0.195736 0)
(0.207236 -0.233876 0)
(0.183719 -0.279713 0)
(0.160053 -0.325172 0)
(0.131205 -0.369735 0)
(0.0975355 -0.406932 0)
(0.060418 -0.432199 0)
(0.0213876 -0.443617 0)
(0.283007 -0.116082 0)
(0.293025 -0.141927 0)
(0.255435 -0.176506 0)
(0.248824 -0.211626 0)
(0.215998 -0.252631 0)
(0.188064 -0.291738 0)
(0.151885 -0.331465 0)
(0.111735 -0.364722 0)
(0.0679194 -0.389418 0)
(0.0213225 -0.404698 0)
(0.340544 -0.106786 0)
(0.346347 -0.129621 0)
(0.304895 -0.161495 0)
(0.296005 -0.192036 0)
(0.252909 -0.227698 0)
(0.222282 -0.261392 0)
(0.177598 -0.296682 0)
(0.130561 -0.324115 0)
(0.0801742 -0.343162 0)
(0.0296529 -0.349372 0)
(0.401059 -0.0869976 0)
(0.398291 -0.105132 0)
(0.353968 -0.131704 0)
(0.338402 -0.155234 0)
(0.285712 -0.184329 0)
(0.251602 -0.211211 0)
(0.193895 -0.239394 0)
(0.140432 -0.261407 0)
(0.0820766 -0.282734 0)
(0.0216607 -0.3024 0)
(0.465393 -0.0738667 0)
(0.453166 -0.0870816 0)
(0.409811 -0.108611 0)
(0.384943 -0.12583 0)
(0.328733 -0.149773 0)
(0.288382 -0.170061 0)
(0.220885 -0.193193 0)
(0.163827 -0.212823 0)
(0.0984616 -0.232399 0)
(0.0445612 -0.231553 0)
(0.51207 -0.0398269 0)
(0.492059 -0.0463122 0)
(0.440863 -0.0592841 0)
(0.40595 -0.0678243 0)
(0.340913 -0.0822361 0)
(0.289701 -0.0917872 0)
(0.208987 -0.10547 0)
(0.142569 -0.116702 0)
(0.0622471 -0.138864 0)
(-0.0200889 -0.186876 0)
(0.721093 -0.0201018 0)
(0.696251 -0.0236048 0)
(0.651514 -0.0289193 0)
(0.611913 -0.0336368 0)
(0.552307 -0.0407723 0)
(0.495745 -0.047556 0)
(0.416895 -0.0582616 0)
(0.33612 -0.0723173 0)
(0.228146 -0.100824 0)
(0.159025 -0.157039 0)
(0.167163 -0.152251 1.38604e-20)
(0.193312 -0.135029 -1.36541e-20)
(0.226294 -0.120091 2.08062e-21)
(0.266069 -0.109993 0)
(0.31344 -0.0975182 0)
(0.368441 -0.0893334 2.90651e-21)
(0.426917 -0.0721403 -1.35388e-20)
(0.487174 -0.0617784 1.33922e-20)
(0.53891 -0.0323972 3.78123e-21)
(0.742319 -0.0172374 -3.80788e-21)
(0.175603 -0.143559 -1.38362e-20)
(0.200854 -0.125846 0)
(0.233731 -0.111637 1.44581e-20)
(0.273542 -0.101963 -3.44374e-20)
(0.321026 -0.090181 2.28287e-20)
(0.375833 -0.0824422 -2.67645e-21)
(0.434184 -0.0662236 5.79087e-21)
(0.493901 -0.0569617 1.28039e-20)
(0.548431 -0.0294383 3.50866e-21)
(0.750286 -0.0160193 3.42995e-21)
(0.182873 -0.133827 1.61111e-20)
(0.207073 -0.116211 -1.42869e-20)
(0.239197 -0.103044 1.41518e-20)
(0.278713 -0.0938895 -1.81352e-20)
(0.326089 -0.0828913 1.32244e-20)
(0.380837 -0.0757126 0)
(0.43924 -0.0605687 -5.80503e-21)
(0.499038 -0.0525136 -7.43755e-23)
(0.556444 -0.0268009 -6.63191e-21)
(0.757412 -0.0148679 -6.87804e-21)
(0.190288 -0.12345 -2.73244e-21)
(0.214284 -0.106324 0)
(0.24558 -0.0942959 0)
(0.284747 -0.0857349 0)
(0.331864 -0.0756034 1.46756e-20)
(0.386361 -0.0691012 -9.94489e-21)
(0.444645 -0.0551319 -3.06435e-22)
(0.504348 -0.0483395 -6.52344e-21)
(0.563999 -0.0244361 -3.33583e-21)
(0.764164 -0.0138028 -3.38735e-21)
(0.197167 -0.112718 1.87011e-21)
(0.221283 -0.0963699 -8.51508e-21)
(0.251852 -0.0854884 -7.79531e-21)
(0.290901 -0.077609 7.79052e-21)
(0.337892 -0.0683738 -4.66495e-21)
(0.392225 -0.0626243 0)
(0.450381 -0.0498709 -5.72483e-21)
(0.509891 -0.0443301 1.25919e-20)
(0.571326 -0.0222456 -6.34241e-21)
(0.770605 -0.0128098 6.78827e-21)
(0.203259 -0.101672 -2.09008e-20)
(0.227282 -0.0863961 1.62875e-21)
(0.257281 -0.0766773 -9.45036e-22)
(0.296215 -0.0695808 7.67849e-21)
(0.343178 -0.061274 0)
(0.397534 -0.0563342 0)
(0.455679 -0.0447953 0)
(0.515134 -0.040458 6.08423e-21)
(0.57819 -0.0201769 0)
(0.776608 -0.0118715 0)
(0.20854 -0.0903169 0)
(0.23224 -0.0763933 9.64328e-21)
(0.261749 -0.0678563 -6.61853e-21)
(0.300498 -0.0616309 -8.53936e-21)
(0.347383 -0.0543149 8.58381e-21)
(0.401859 -0.0502444 5.29364e-21)
(0.46006 -0.0399146 -5.05683e-21)
(0.519676 -0.036734 -2.10557e-20)
(0.584315 -0.0182203 1.49519e-21)
(0.782047 -0.0109845 -4.94345e-21)
(0.21292 -0.0786763 0)
(0.236211 -0.0663391 -3.03367e-21)
(0.265256 -0.0590189 -1.74384e-21)
(0.303818 -0.0537275 0)
(0.350564 -0.0474587 2.49773e-21)
(0.405169 -0.0443222 -7.27254e-21)
(0.463409 -0.0352095 8.40037e-21)
(0.523424 -0.0331578 3.15581e-21)