/*--------------------------------*- C++ -*----------------------------------*\
  =========                 |
  \\      /  F ield         | OpenFOAM: The Open Source CFD Toolbox
   \\    /   O peration     | Website:  https://openfoam.org
    \\  /    A nd           | Version:  7
     \\/     M anipulation  |
\*---------------------------------------------------------------------------*/
FoamFile
{
    version     2.0;
    format      ascii;
    class       surfaceScalarField;
    location    "3.1";
    object      phi;
}
// * * * * * * * * * * * * * * * * * * * * * * * * * * * * * * * * * * * * * //

dimensions      [0 3 -1 0 0 0 0];

internalField   nonuniform List<scalar> 
63520
(
-2.0015e-05
0.000644839
-0.000624824
-6.70813e-05
0.00173172
-0.00168465
-0.000134662
0.00266555
-0.00259797
-0.000217199
0.00344193
-0.0033594
-0.000309782
0.0040736
-0.00398102
-0.000407938
0.00457855
-0.0044804
-0.000507617
0.00497513
-0.00487545
-0.000605195
0.00527987
-0.00518229
-0.000697487
0.00550702
-0.00541473
-0.000781738
0.00566806
-0.00558381
-0.000855595
0.0057721
-0.00569825
-0.000917087
0.00582628
-0.00576479
-0.000964565
0.0058362
-0.00578872
-0.000996672
0.00580641
-0.00577431
-0.0010123
0.00574082
-0.00572519
-0.00101055
0.00564295
-0.0056447
-0.000990737
0.0055162
-0.00553601
-0.000952353
0.00536384
-0.00540222
-0.000895058
0.00518919
-0.00524649
-0.000818686
0.00499563
-0.005072
-0.000723234
0.00478651
-0.00488196
-0.000608851
0.00456517
-0.00467956
-0.000475854
0.00433498
-0.00446798
-0.000324721
0.00409917
-0.0042503
-0.000156065
0.00386086
-0.00402952
2.93678e-05
0.003623
-0.00380844
0.000230693
0.00338833
-0.00358965
0.000446909
0.00315933
-0.00337555
0.000676913
0.00293825
-0.00316825
0.000919525
0.00272704
-0.00296966
0.0011735
0.00252737
-0.00278135
0.00143752
0.00234063
-0.00260465
0.00171025
0.00216793
-0.00244066
0.00199032
0.00201014
-0.00229021
0.00227633
0.00186796
-0.00215397
0.00256684
0.00174197
-0.00203247
0.00286032
0.00163273
-0.0019262
0.00315509
0.00154079
-0.00183556
0.00344921
0.00146903
-0.00176315
0.00142307
0.00374017
-0.00171403
-1.81961e-05
0.000663035
-6.12439e-05
0.00177477
-0.000123361
0.00272766
-0.000199651
0.00351822
-0.000285657
0.00415961
-0.000377225
0.00467012
-0.000470497
0.0050684
-0.000561966
0.00537134
-0.00064848
0.00559353
-0.0007273
0.00574688
-0.000796076
0.00584088
-0.000852811
0.00588302
-0.000895816
0.00587921
-0.000923693
0.00583429
-0.000935295
0.00575242
-0.000929688
0.00563735
-0.000906134
0.00549264
-0.000864089
0.00532179
-0.000803182
0.00512829
-0.000723204
0.00491565
-0.000624119
0.00468742
-0.000506068
0.00444712
-0.000369343
0.00419825
-0.000214394
0.00394422
-4.18269e-05
0.0036883
0.000147599
0.00343358
0.000352996
0.00318293
0.000573356
0.00293897
0.000807568
0.00270404
0.00105443
0.00248018
0.00131265
0.00226915
0.00158093
0.00207235
0.00185789
0.00189096
0.00214216
0.00172588
0.00243232
0.0015778
0.00272695
0.00144734
0.00302454
0.00133513
0.00332345
0.00124188
0.00362176
0.00117071
0.00112784
0.003917
-1.62346e-05
0.000679269
-5.48757e-05
0.00181341
-0.000111007
0.0027838
-0.000180387
0.0035876
-0.000259041
0.00423826
-0.000343157
0.00475424
-0.000429076
0.00515432
-0.000513443
0.00545571
-0.000593172
0.00567326
-0.000665547
0.00581926
-0.000728207
0.00590354
-0.000779126
0.00593394
-0.000816602
0.00591668
-0.000839203
0.00585689
-0.000845742
0.00575896
-0.000835256
0.00562686
-0.000806979
0.00546437
-0.000760327
0.00527514
-0.000694897
0.00506286
-0.00061046
0.00483122
-0.000506961
0.00458392
-0.000384512
0.00432467
-0.000243396
0.00405714
-8.40659e-05
0.00378489
9.28731e-05
0.00351136
0.000286673
0.00323978
0.00049644
0.00297316
0.000721148
0.00271426
0.000959661
0.00246553
0.00121076
0.00222908
0.00147316
0.00200674
0.00174552
0.0018
0.00202645
0.00161003
0.00231457
0.00143776
0.00260847
0.00128389
0.00290674
0.00114906
0.00320792
0.00103396
0.00351041
0.000939394
0.00381236
0.000868763
0.000828875
0.00411132
-1.41305e-05
0.0006934
-4.80863e-05
0.00184736
-9.77805e-05
0.00283349
-0.00015966
0.00364948
-0.000230242
0.00430884
-0.000306075
0.00483007
-0.000383748
0.00523199
-0.000460048
0.005532
-0.000531969
0.00574518
-0.000596832
0.00588412
-0.000652294
0.005959
-0.000696321
0.00597796
-0.000727182
0.00594754
-0.000743422
0.00587313
-0.000743834
0.00575937
-0.000727424
0.00561045
-0.000693396
0.00543034
-0.000641152
0.0052229
-0.00057027
0.00499198
-0.000480498
0.00474144
-0.000371764
0.00447519
-0.000244182
0.00419709
-9.80316e-05
0.00391099
6.62487e-05
0.00362061
0.000248052
0.00332955
0.000446617
0.00304121
0.000661035
0.00275874
0.00089027
0.00248503
0.00113318
0.00222262
0.00138852
0.00197374
0.00165499
0.00174028
0.00193122
0.00152377
0.00221584
0.00132542
0.00250745
0.00114615
0.00280465
0.000986688
0.00310606
0.000847658
0.00341025
0.000729765
0.00371569
0.000633948
0.00402064
0.000563814
0.000526795
0.00432272
-1.19362e-05
0.000705336
-4.09246e-05
0.00187635
-8.37649e-05
0.00287633
-0.000137582
0.0037033
-0.000199417
0.00437068
-0.000266187
0.00489684
-0.00033474
0.00530054
-0.000402016
0.00559928
-0.000465136
0.0058083
-0.000521465
0.00594045
-0.000568668
0.0060062
-0.000604717
0.00601401
-0.000627876
0.0059707
-0.000636671
0.00588192
-0.000629871
0.00575257
-0.00060647
0.00558705
-0.000565665
0.00538953
-0.000506834
0.00516407
-0.000429544
0.00491469
-0.000333541
0.00464544
-0.000218754
0.0043604
-8.52889e-05
0.00406363
6.65765e-05
0.00375912
0.000236392
0.0034508
0.000423543
0.0031424
0.000627257
0.0028375
0.000846615
0.00253939
0.00108057
0.00225107
0.00132795
0.00197523
0.00158752
0.00171418
0.00185794
0.00146985
0.00213785
0.00124386
0.00242586
0.00103741
0.00272057
0.000851438
0.0030206
0.000686652
0.0033246
0.000543658
0.0036312
0.000423168
0.00393895
0.000326203
0.0042462
0.000256562
0.000222291
0.0045507
-9.64679e-06
0.000714983
-3.34386e-05
0.00190014
-6.90704e-05
0.00291196
-0.000114348
0.00374858
-0.000166825
0.00442316
-0.000223802
0.00495381
-0.000282412
0.00535915
-0.000339773
0.00565664
-0.00039312
0.00586165
-0.000439888
0.00598722
-0.00047778
0.0060441
-0.000504779
0.00604101
-0.000519139
0.00598506
-0.000519385
0.00588217
-0.000504287
0.00573747
-0.000472826
0.00555559
-0.00042419
0.0053409
-0.00035776
0.00509764
-0.000273105
0.00483003
-0.000169972
0.00454231
-4.82942e-05
0.00423872
9.18147e-05
0.00392352
0.000250065
0.00360087
0.000425996
0.00327486
0.00061898
0.00294942
0.000828231
0.00262825
0.00105281
0.0023148
0.00129166
0.00201223
0.0015436
0.00172329
0.00180736
0.00145041
0.00208161
0.0011956
0.00236498
0.000960492
0.00265606
0.000746323
0.00295348
0.00055402
0.00325587
0.000384262
0.0035619
0.000237624
0.00387028
0.000114792
0.00417964
1.6839e-05
0.00448848
-5.22732e-05
-8.3916e-05
0.00479468
-7.3033e-06
0.000722286
-2.5724e-05
0.00191856
-5.38433e-05
0.00294008
-9.01459e-05
0.00378488
-0.000132713
0.00446572
-0.000179235
0.00500033
-0.000227127
0.00540704
-0.000273708
0.00570322
-0.000316351
0.00590429
-0.000352575
0.00602344
-0.000380124
0.00607165
-0.000397006
0.00605789
-0.000401492
0.00598954
-0.000392111
0.00587279
-0.000367631
0.00571299
-0.000327042
0.005515
-0.00026954
0.00528339
-0.000194513
0.00502261
-0.000101537
0.00473705
9.62397e-06
0.00443115
0.00013902
0.00410933
0.000286521
0.00377602
0.000451823
0.00343557
0.000634447
0.00309224
0.000833746
0.00275012
0.00104891
0.00241308
0.00127899
0.00208472
0.00152291
0.00176831
0.00177947
0.00146673
0.00204739
0.00118249
0.00232534
0.000917655
0.00261194
0.000673898
0.00290578
0.000452477
0.0032055
0.000254299
0.00350976
8.00048e-05
0.00381727
-6.98864e-05
0.0041268
-0.000194731
0.00443708
-0.000293447
0.00474676
-0.000361951
-0.00039107
0.00505391
-4.93938e-06
0.000727225
-1.78594e-05
0.00193148
-3.82263e-05
0.00296045
-6.51993e-05
0.00381185
-9.73733e-05
0.0044979
-0.00013283
0.00503579
-0.000169293
0.00544351
-0.000204293
0.00573822
-0.000235348
0.00593534
-0.000260077
0.00604817
-0.00027629
0.00608786
-0.00028203
0.00606363
-0.000275592
0.00598311
-0.000255523
0.00585272
-0.000220606
0.00567808
-0.000169849
0.00546425
-0.000102464
0.00521601
-1.78545e-05
0.004938
8.43788e-05
0.00463482
0.000204445
0.00431108
0.000342369
0.0039714
0.000498001
0.00362039
0.00067101
0.00326256
0.000860891
0.00290236
0.00106697
0.00254404
0.00128842
0.00219163
0.00152427
0.00184888
0.00177342
0.00151916
0.00203467
0.00120549
0.00230672
0.000910433
0.00258823
0.000636142
0.00287783
0.000384304
0.00317412
0.000156187
0.00347574
-4.73252e-05
0.00378139
-0.000225641
0.00408982
-0.000378314
0.00439986
-0.000504774
0.00471038
-0.000603963
0.00502016
-0.000671735
-0.000698409
0.0053275
-2.579e-06
0.000729804
-9.93178e-06
0.00193884
-2.23807e-05
0.0029729
-3.97413e-05
0.00382921
-6.1117e-05
0.00451927
-8.49839e-05
0.00505966
-0.000109377
0.0054679
-0.000132056
0.0057609
-0.000150698
0.00595399
-0.000163042
0.00606051
-0.000166973
0.00609179
-0.000160587
0.00605725
-0.000142218
0.00596474
-0.000110442
0.00582095
-6.40697e-05
0.0056317
-2.13576e-06
0.00540231
7.61206e-05
0.00513775
0.000171263
0.00484286
0.000283658
0.00452243
0.000413479
0.00418126
0.000560719
0.00382416
0.000725196
0.00345591
0.000906545
0.00308121
0.00110423
0.00270468
0.00131754
0.00233072
0.00154564
0.00196354
0.00178751
0.001607
0.00204206
0.00126462
0.00230805
0.000939495
0.00258419
0.000634293
0.00286913
0.0003512
0.0031615
9.19351e-05
0.00345992
-0.000142235
0.00376305
-0.000350457
0.00406962
-0.000532205
0.00437842
-0.000687117
0.00468837
-0.000814724
0.00499844
-0.000914035
0.00530761
-0.000980907
-0.00100526
0.00561446
-2.50103e-07
0.000730054
-2.02563e-06
0.00194061
-6.47045e-06
0.00297734
-1.40231e-05
0.00383676
-2.42825e-05
0.00452953
-3.61212e-05
0.0050715
-4.78875e-05
0.00547966
-5.75807e-05
0.00577059
-6.30601e-05
0.00595947
-6.21933e-05
0.00605965
-5.29595e-05
0.00608256
-3.35234e-05
0.00603781
-2.27048e-06
0.00593349
4.21799e-05
0.0057765
0.000100977
0.00557291
0.000175048
0.00532824
0.000265116
0.00504769
0.000371699
0.00473628
0.000495119
0.00439901
0.000635507
0.00404087
0.000792815
0.00366686
0.000966818
0.00328191
0.00115711
0.00289092
0.00136312
0.00249867
0.0015841
0.00210974
0.00181918
0.00172847
0.00206732
0.00135885
0.00232741
0.00100453
0.00259819
0.000668708
0.00287838
0.000354106
0.00316662
6.29624e-05
0.00346154
-0.000202986
0.00376178
-0.000442483
0.00406604
-0.000654715
0.00437307
-0.000839229
0.00468172
-0.000995767
0.00499098
-0.00112399
0.00529994
-0.001223
0.00560778
-0.00128874
-0.00131084
0.00591335
2.03148e-06
0.000728023
5.77319e-06
0.00193687
9.33866e-06
0.00297377
1.16972e-05
0.00383441
1.27745e-05
0.00452845
1.33087e-05
0.00507096
1.46345e-05
0.00547834
1.84985e-05
0.00576673
2.68487e-05
0.00595112
4.16724e-05
0.00604482
6.48786e-05
0.00605935
9.82169e-05
0.00600447
0.000143236
0.00588847
0.000201262
0.00571847
0.000273391
0.00550078
0.000360498
0.00524113
0.000463257
0.00494493
0.000582132
0.0046174
0.000717389
0.00426375
0.000869107
0.00388915
0.00103719
0.00349877
0.00122136
0.00309774
0.00142116
0.00269112
0.00163598
0.00228385
0.00186504
0.00188069
0.00210741
0.00148609
0.00236206
0.00110421
0.00262781
0.000738776
0.00290344
0.000393083
0.00318762
6.99219e-05
0.00347902
-0.000228436
0.00377628
-0.000500243
0.00407806
-0.000744262
0.00438307
-0.00095973
0.00469012
-0.00114628
0.00499811
-0.00130376
0.00530612
-0.00143199
0.00561334
-0.00153022
0.00591912
-0.00159453
-0.00161435
0.00622264
4.22944e-06
0.000723793
1.33805e-05
0.00192772
2.48794e-05
0.00296227
3.71579e-05
0.00382213
4.96927e-05
0.00451592
6.28392e-05
0.00505781
7.76166e-05
0.00546356
9.55111e-05
0.00574883
0.000118263
0.00592836
0.000147696
0.00601539
0.00018559
0.00602146
0.000233598
0.00595646
0.000293187
0.00582888
0.00036561
0.00564605
0.000451897
0.00541449
0.000552867
0.00514016
0.000669128
0.00482867
0.000801076
0.00448545
0.000948917
0.00411591
0.00111267
0.0037254
0.00129218
0.00331926
0.00148711
0.00290281
0.00169695
0.00248128
0.00192103
0.00205977
0.00215853
0.00164319
0.00240849
0.00123613
0.00266984
0.000842862
0.00294139
0.000467226
0.00322188
0.000112586
0.00351001
-0.00021821
0.00380444
-0.000522862
0.00410382
-0.000799622
0.00440684
-0.00104729
0.00471226
-0.00126515
0.00501892
-0.00145293
0.00532579
-0.00161063
0.00563201
-0.00173821
0.0059369
-0.00183511
0.00624
-0.00189762
-0.00191513
0.00654077
6.32616e-06
0.000717467
2.0714e-05
0.00191333
3.99898e-05
0.002943
6.21005e-05
0.00380002
8.61048e-05
0.00449191
0.000111993
0.00503193
0.000140473
0.00543508
0.000172761
0.00571654
0.000210376
0.00589075
0.000254964
0.0059708
0.000308165
0.00596826
0.000371512
0.00589312
0.000446375
0.00575401
0.000533924
0.0055585
0.000635113
0.0053133
0.000750685
0.00502459
0.000881173
0.00469818
0.0010269
0.00433972
0.001188
0.00395481
0.00136443
0.00354897
0.00155595
0.00312774
0.00176217
0.00269659
0.00198251
0.00226093
0.00221626
0.00182603
0.00246254
0.00139691
0.00272035
0.000978319
0.00298858
0.000574632
0.00326602
0.00018978
0.00355141
-0.000172804
0.00384343
-0.00051023
0.00414075
-0.000820179
0.00444205
-0.00110092
0.00474604
-0.00135128
0.00505153
-0.00157064
0.00535741
-0.00175881
0.00566272
-0.00191594
0.00596667
-0.00204216
0.0062687
-0.00213715
0.00656853
-0.00219745
-0.00221256
0.00686596
8.29976e-06
0.000709167
2.76976e-05
0.00189393
5.45133e-05
0.00291618
8.62705e-05
0.00376826
0.00012165
0.00445654
0.000160296
0.00499328
0.000202609
0.00539277
0.000249533
0.00566962
0.000302357
0.00583792
0.000362534
0.00591062
0.000431544
0.00589925
0.00051079
0.00581387
0.000601529
0.00566328
0.000704831
0.0054552
0.000821561
0.00519657
0.000952378
0.00489377
0.00109773
0.00455283
0.00125785
0.0041796
0.0014328
0.00377986
0.00162246
0.00335932
0.00182652
0.00292368
0.0020445
0.00247861
0.00227577
0.00202966
0.00251954
0.00158225
0.00277489
0.00114156
0.00304077
0.000712436
0.00331604
0.000299365
0.00359946
-9.36411e-05
0.00388975
-0.000463094
0.00418559
-0.000806072
0.00448566
-0.00112025
0.00478867
-0.00140393
0.00509338
-0.00165599
0.00539862
-0.00187588
0.00570336
-0.00206355
0.00600669
-0.00221927
0.00630793
-0.0023434
0.00660662
-0.00243584
0.00690266
-0.00249348
-0.00250608
0.00719618
1.01297e-05
0.000699037
3.42595e-05
0.0018698
6.83025e-05
0.00288214
0.000109426
0.00372713
0.000155977
0.00440998
0.00020728
0.00494198
0.000263436
0.00533661
0.000325115
0.00560794
0.000393367
0.00576967
0.000469442
0.00583455
0.000554644
0.00581404
0.00065023
0.00571828
0.000757329
0.00555618
0.000876898
0.00533563
0.0010097
0.00506377
0.0011563
0.00474717
0.00131705
0.00439208
0.00149209
0.00400456
0.0016814
0.00359055
0.00188477
0.00315595
0.0021018
0.00270665
0.00233195
0.00224846
0.0025745
0.00178711
0.0028286
0.00132815
0.00309328
0.000876886
0.00336742
0.000438292
0.00364985
1.69386e-05
0.0039393
-0.000383094
0.00423448
-0.000758273
0.00453406
-0.00110566
0.00483675
-0.00142294
0.00514127
-0.00170845
0.00544643
-0.00196115
0.00575113
-0.00218058
0.00605438
-0.0023668
0.00635538
-0.00252027
0.00665351
-0.00264153
0.00694842
-0.00273076
0.0072402
-0.00278526
-0.00279518
0.0075293
1.17979e-05
0.000687239
4.03345e-05
0.00184127
8.12213e-05
0.00284125
0.00013134
0.00367702
0.000188756
0.00435257
0.000252498
0.00487823
0.000322381
0.00526673
0.000398807
0.00553151
0.000482578
0.0056859
0.000574729
0.0057424
0.000676377
0.00571239
0.000788617
0.00560604
0.000912437
0.00543236
0.00104867
0.00519939
0.00119797
0.00491447
0.00136078
0.00458436
0.00153735
0.00421551
0.00172775
0.00381416
0.00193183
0.00338646
0.0021493
0.00293848
0.00237968
0.00247627
0.00262233
0.00200581
0.00287646
0.00153298
0.00314115
0.00106346
0.00341535
0.000602689
0.0036979
0.000155738
0.00398758
-0.00027274
0.00428309
-0.00067861
0.00458313
-0.00105831
0.00488637
-0.0014089
0.00519152
-0.00172809
0.00549735
-0.00201428
0.00580272
-0.00226652
0.00610658
-0.00248444
0.00640803
-0.00266826
0.00670634
-0.00281858
0.00700099
-0.00293618
0.00729175
-0.00302152
0.00757885
-0.00307236
-0.0030794
0.00786307
1.32883e-05
0.00067395
4.58658e-05
0.00180869
9.31488e-05
0.00279397
0.00015181
0.00361835
0.000219682
0.0042847
0.000295533
0.00480238
0.000378907
0.00518335
0.000469939
0.00544048
0.000569187
0.00558665
0.000677458
0.00563413
0.000795674
0.00559418
0.000924754
0.00547696
0.00106553
0.00529158
0.0012187
0.00504623
0.00138479
0.00474838
0.00156413
0.00440502
0.00175686
0.00402278
0.00196293
0.00360809
0.00218211
0.00316728
0.002414
0.00270659
0.00265802
0.00223225
0.00291344
0.00175039
0.00317939
0.00126703
0.00345487
0.000787988
0.00373875
0.00031881
0.00402982
-0.000135333
0.0043268
-0.000569726
0.00462838
-0.000980189
0.00493322
-0.00136315
0.00523999
-0.00171567
0.00554745
-0.00203554
0.00585438
-0.00232122
0.0061597
-0.00257184
0.00646245
-0.00278718
0.0067618
-0.0029676
0.0070571
-0.00311388
0.00734794
-0.00322702
0.00763421
-0.00330778
0.00791627
-0.00335442
-0.00335834
0.00819521
1.45881e-05
0.000659362
5.08058e-05
0.00177247
0.000103982
0.00274079
0.000170658
0.00355168
0.000248486
0.00420687
0.000336008
0.00471486
0.000432516
0.00508685
0.000537892
0.00533511
0.000652442
0.0054721
0.000776746
0.00550982
0.000911519
0.00545941
0.00105749
0.00533099
0.00121533
0.00513374
0.00138559
0.00487597
0.00156865
0.00456532
0.00176473
0.00420894
0.00197384
0.00381367
0.00219583
0.00338611
0.00243034
0.00293276
0.00267688
0.00246006
0.00293476
0.00197437
0.00320316
0.00148199
0.00348111
0.000989079
0.00376752
0.000501581
0.00406119
2.5141e-05
0.00436084
-0.000434988
0.00466515
-0.000874034
0.00497275
-0.00128779
0.0052823
-0.00167269
0.00559248
-0.00202585
0.00590205
-0.00234511
0.00620986
-0.00262903
0.00651489
-0.00287686
0.00681624
-0.00308854
0.00711319
-0.00326455
0.00740519
-0.00340588
0.00769193
-0.00351376
0.00797341
-0.00358926
0.00825013
-0.00363115
-0.00363169
0.00852348
1.56873e-05
0.000643675
5.51177e-05
0.00173304
0.000113638
0.00268227
0.000187736
0.00347758
0.000274938
0.00411967
0.000373596
0.0046162
0.000482773
0.00497767
0.000602107
0.00521577
0.00073166
0.00534255
0.000871781
0.0053697
0.00102297
0.00530822
0.00118576
0.0051682
0.00136065
0.00495885
0.00154803
0.00468859
0.00174814
0.00436521
0.00196106
0.00399602
0.00218668
0.00358805
0.00242472
0.00314807
0.00267473
0.00268275
0.00293608
0.00219871
0.00320798
0.00170247
0.0034895
0.00120047
0.00377957
0.000699009
0.004077
0.000204147
0.00438052
-0.000278376
0.00468877
-0.00074324
0.00500037
-0.00118563
0.00531391
-0.00160134
0.00562805
-0.00198683
0.00594146
-0.00233926
0.00625293
-0.00265659
0.00656137
-0.00293747
0.00686583
-0.00318132
0.0071655
-0.00338821
0.00745976
-0.00355881
0.00774819
-0.00369431
0.00803057
-0.00379614
0.00830701
-0.0038657
0.00857817
-0.00390231
-0.00389919
0.00884568
1.65793e-05
0.000627095
5.8776e-05
0.00169084
0.000122058
0.00261899
0.000202934
0.0033967
0.000298858
0.00402374
0.000408031
0.00450703
0.000529312
0.00485639
0.00066211
0.00508298
0.000806251
0.00519841
0.000961853
0.0052141
0.0011292
0.00514087
0.00130862
0.00498878
0.00150043
0.00476704
0.00170485
0.00448417
0.00192198
0.00414808
0.00215175
0.00376626
0.00239392
0.00334588
0.00264808
0.0028939
0.00291366
0.00241718
0.0031899
0.00192247
0.00347591
0.00141646
0.00377063
0.00090575
0.00407288
0.000396757
0.00438138
-0.000104347
0.00469474
-0.00059174
0.00501155
-0.00106005
0.00533035
-0.00150444
0.00564971
-0.0019207
0.00596825
-0.00230536
0.00628467
-0.00265568
0.00659779
-0.00296971
0.00690659
-0.00324627
0.00721018
-0.00348491
0.00750788
-0.00368591
0.00779918
-0.00385011
0.00808375
-0.00397888
0.00836153
-0.00407392
0.00863274
-0.00413691
0.00889817
-0.00416774
-0.0041607
0.00915968
1.72616e-05
0.000609834
6.17681e-05
0.00164634
0.000129205
0.00255155
0.000216179
0.00330973
0.00032012
0.0039198
0.000439116
0.00438804
0.000571853
0.00472365
0.000717526
0.0049373
0.000875738
0.00504019
0.00104638
0.00504346
0.00122951
0.00495775
0.00142526
0.00479303
0.00163375
0.00455854
0.00185505
0.00426288
0.00208907
0.00391406
0.00233561
0.00351972
0.00259429
0.00308719
0.00286457
0.00262362
0.00314574
0.00213601
0.00343691
0.00163129
0.00373705
0.00111631
0.004045
0.000597807
0.00435943
8.23203e-05
0.00467896
-0.000423876
0.00500211
-0.000914888
0.00532736
-0.0013853
0.00565321
-0.00183029
0.00597818
-0.00224568
0.00630088
-0.00262806
0.00662004
-0.00297483
0.00693451
-0.00328418
0.00724334
-0.0035551
0.00754575
-0.00378733
0.00784116
-0.00398132
0.00812919
-0.00413814
0.00840966
-0.00425935
0.00868263
-0.00434689
0.00894844
-0.00440272
0.00920801
-0.00442731
-0.00441611
0.00946343
1.77356e-05
0.000592098
6.40945e-05
0.00159998
0.000135074
0.00248057
0.000227442
0.00321736
0.000338656
0.00380859
0.000466732
0.00425996
0.000610209
0.00458017
0.000768093
0.00477942
0.000939772
0.00486852
0.00112491
0.00485832
0.00132337
0.00475929
0.00153506
0.00458133
0.00175992
0.00433368
0.00199783
0.00402497
0.00224855
0.00366334
0.00251171
0.00325655
0.00278681
0.0028121
0.00307314
0.00233729
0.00336985
0.0018393
0.00367592
0.00132522
0.00399017
0.000802058
0.0043113
0.000276683
0.00463785
-0.000244236
0.00496831
-0.000754338
0.0053011
-0.00124768
0.00563462
-0.00171882
0.00596728
-0.00216295
0.00629758
-0.00257598
0.00662412
-0.00295461
0.00694566
-0.00329637
0.00726111
-0.00359964
0.0075696
-0.00386359
0.00787047
-0.00408819
0.00816326
-0.0042741
0.00844772
-0.0044226
0.00872383
-0.00453547
0.00899178
-0.00461484
0.00925206
-0.004663
0.0095057
-0.00468095
-0.00466538
0.00975497
1.80068e-05
0.000574091
6.57698e-05
0.00155221
0.000139682
0.00240666
0.000236735
0.00312031
0.000354461
0.00369086
0.000490841
0.00412358
0.000644299
0.00442671
0.000813672
0.00461004
0.000998151
0.00468404
0.00119719
0.00465927
0.00141044
0.00454605
0.00163761
0.00435416
0.00187845
0.00409284
0.00213265
0.00377077
0.00239981
0.00339618
0.00267941
0.00297696
0.00297076
0.00252075
0.00327302
0.00203503
0.00358518
0.00152714
0.00390606
0.00100434
0.00423433
0.000473784
0.00456853
-5.75113e-05
0.00490706
-0.000582768
0.00524827
-0.00109555
0.00559047
-0.00158987
0.00593196
-0.00206031
0.0062711
-0.00250209
0.00660635
-0.00291123
0.00693633
-0.00328459
0.00725982
-0.00361986
0.00757582
-0.00391563
0.00788355
-0.00417132
0.00818246
-0.00438711
0.00847225
-0.0045639
0.00875283
-0.00470318
0.00902433
-0.00480696
0.00928707
-0.00487759
0.0095417
-0.00491763
0.00978936
-0.0049286
-0.0049085
0.0100325
1.80848e-05
0.000556006
6.68225e-05
0.00150348
0.000143076
0.00233041
0.000244117
0.00301927
0.000367595
0.00356738
0.000511494
0.00397968
0.00067415
0.00426406
0.00085426
0.00442994
0.00105083
0.00448747
0.00126313
0.00444698
0.00149059
0.00431859
0.00173273
0.00411202
0.00198912
0.00383646
0.00225925
0.00350064
0.00254255
0.00311287
0.00283834
0.00268118
0.00314574
0.00221334
0.00346377
0.001717
0.00379123
0.00119968
0.00412678
0.000668788
0.00446891
0.000131652
0.00481599
-0.000404585
0.00516626
-0.000933045
0.00551794
-0.00144723
0.00586921
-0.00194114
0.00621828
-0.00240937
0.00656345
-0.00284726
0.00690317
-0.00325096
0.00723607
-0.00361749
0.007561
-0.00394478
0.00787702
-0.00423166
0.00818349
-0.00447779
0.00848001
-0.00468362
0.00876641
-0.0048503
0.00904277
-0.00497954
0.00930939
-0.00507357
0.00956676
-0.00513495
0.00981563
-0.00516651
0.0100573
-0.00517025
-0.00514549
0.0102943
1.79833e-05
0.000538022
6.72946e-05
0.00145416
0.000145331
0.00225237
0.000249691
0.00291491
0.000378182
0.00343889
0.000528827
0.00382904
0.000699903
0.00409298
0.000889988
0.00423985
0.00109793
0.00427952
0.00132282
0.00422209
0.00156389
0.00407752
0.00182048
0.00385543
0.00209195
0.00356499
0.00237763
0.00321496
0.00267676
0.00281375
0.00298845
0.00236948
0.00331169
0.0018901
0.00364528
0.00138341
0.00398785
0.00085711
0.00433785
0.000318784
0.0046936
-0.000224095
0.00505327
-0.000764252
0.00541494
-0.00129472
0.00577668
-0.00180897
0.00613654
-0.002301
0.00649266
-0.00276549
0.00684329
-0.00319789
0.00718688
-0.00359454
0.00752208
-0.00395269
0.00784782
-0.00427052
0.00816328
-0.00454712
0.00846794
-0.00478246
0.00876157
-0.00497725
0.00904416
-0.00513289
0.00931597
-0.00525135
0.00957746
-0.00533506
0.00982928
-0.00538678
0.0100723
-0.00540957
0.010308
-0.00540593
-0.00537645
0.010539
1.77199e-05
0.000520302
6.72407e-05
0.00140464
0.000146545
0.00217307
0.000253602
0.00280785
0.000386412
0.00330608
0.000543064
0.00367239
0.000721809
0.00391424
0.00092113
0.00404053
0.00113974
0.00406091
0.00137656
0.00398527
0.00163065
0.00382343
0.00190116
0.00358492
0.00218726
0.00327889
0.00248809
0.00291413
0.0028027
0.00249913
0.00313003
0.00204216
0.00346884
0.00155129
0.00381773
0.00103452
0.00417514
0.000499702
0.00453931
-4.53837e-05
0.00490833
-0.000593117
0.00528019
-0.00113611
0.00565279
-0.00166733
0.00602404
-0.00218022
0.00639189
-0.00266885
0.00675438
-0.00312799
0.00710976
-0.00355327
0.00745647
-0.00394125
0.00779323
-0.00428945
0.00811907
-0.00459635
0.0084333
-0.00486135
0.00873555
-0.00508471
0.00902576
-0.00526745
0.0093041
-0.00541123
0.00957102
-0.00551827
0.00982715
-0.00559119
0.0100733
-0.00563294
0.0103105
-0.0056468
0.0105403
-0.0056357
-0.00560152
0.0107654
1.73164e-05
0.000502986
6.67271e-05
0.00135523
0.000146843
0.00209295
0.000256037
0.00269865
0.000392532
0.00316959
0.000554511
0.00351041
0.000740225
0.00372852
0.000948091
0.00383266
0.00117671
0.00383229
0.00142483
0.00373714
0.00169137
0.00355689
0.00197529
0.003301
0.00227558
0.0029786
0.00259118
0.00259853
0.00292095
0.00216937
0.00326359
0.00169951
0.00361768
0.00119721
0.00398158
0.000670612
0.0043535
0.00012779
0.00473143
-0.000423322
0.00511327
-0.000974952
0.00549677
-0.00151961
0.00587968
-0.00205023
0.00625974
-0.00256028
0.00663479
-0.0030439
0.00700283
-0.00349603
0.00736208
-0.00391252
0.00771105
-0.00429022
0.00804853
-0.00462693
0.00837366
-0.00492149
0.00868593
-0.00517362
0.00898512
-0.00538391
0.00927136
-0.00555369
0.00954502
-0.0056849
0.00980673
-0.00577998
0.0100573
-0.00584175
0.0102977
-0.00587334
0.0105291
-0.0058782
0.0107531
-0.00585967
-0.00582086
0.0109724
1.67976e-05
0.000486188
6.58302e-05
0.0013062
0.000146369
0.00201241
0.000257218
0.00258781
0.000396844
0.00302996
0.000563548
0.0033437
0.000755609
0.00353646
0.000971396
0.00361688
0.00120941
0.00359428
0.00146829
0.00347827
0.00174676
0.00327842
0.00204364
0.00300413
0.00235771
0.00266453
0.00268771
0.00226852
0.00303229
0.00182479
0.00338994
0.00134186
0.00375896
0.000828179
0.0041375
0.000292077
0.00452348
-0.000258193
0.00491467
-0.000814519
0.00530872
-0.001369
0.00570317
-0.00191406
0.00609558
-0.00244264
0.00648355
-0.00294826
0.00686486
-0.0034252
0.00723745
-0.00386862
0.00759958
-0.00427465
0.00794981
-0.00464045
0.00828706
-0.00496419
0.00861062
-0.00524505
0.00892013
-0.00548313
0.0092156
-0.00567937
0.00949732
-0.00583541
0.00976588
-0.00595346
0.0100221
-0.00603618
0.0102669
-0.00608658
0.0105015
-0.00610792
0.0107271
-0.00610385
0.0109455
-0.00607804
-0.00603475
0.0111594
1.61909e-05
0.000469997
6.46356e-05
0.00125775
0.000145289
0.00193176
0.000257398
0.0024757
0.000399696
0.00288766
0.000570619
0.00317278
0.000768499
0.00333858
0.000991677
0.0033937
0.00123858
0.00334738
0.00150772
0.00320913
0.00179769
0.00298845
0.00210711
0.0026947
0.00243459
0.00233705
0.00277866
0.00192445
0.00313772
0.00146573
0.00351
0.000969577
0.00389357
0.000444611
0.00428627
-0.000100625
0.00468577
-0.000657693
0.00508957
-0.00121831
0.00549505
-0.00177448
0.00589956
-0.00231857
0.00630048
-0.00284356
0.00669531
-0.00334309
0.00708175
-0.00381163
0.00745774
-0.00424462
0.0078216
-0.00463851
0.008172
-0.00499084
0.00850799
-0.00530018
0.00882904
-0.0055661
0.009135
-0.00578909
0.00942606
-0.00597044
0.00970274
-0.00611209
0.00996581
-0.00621653
0.0102163
-0.00628663
0.0104552
-0.00632555
0.010684
-0.0063367
0.010904
-0.00632385
0.011117
-0.00629102
-0.00624362
0.0113258
1.55252e-05
0.000454471
6.32353e-05
0.00121004
0.000143778
0.00185121
0.000256855
0.00236262
0.000401471
0.00274305
0.000576222
0.00299803
0.000779503
0.0031353
0.00100965
0.00316355
0.00126503
0.003092
0.00154404
0.00293011
0.00184514
0.00268735
0.00216677
0.00237307
0.00250734
0.00199648
0.00286514
0.00156665
0.00323833
0.00109255
0.00362485
0.000583051
0.00402248
4.69798e-05
0.00442877
-0.000506917
0.00484109
-0.00107001
0.00525666
-0.00163388
0.00567262
-0.00219044
0.00608611
-0.00273207
0.00649437
-0.00325182
0.0068948
-0.00374352
0.00728506
-0.0042019
0.00766317
-0.00462272
0.0080275
-0.00500285
0.00837687
-0.00534021
0.00871053
-0.00563383
0.00902812
-0.0058837
0.00932972
-0.00609069
0.00961574
-0.00625645
0.00988689
-0.00638324
0.0101441
-0.00647378
0.0103886
-0.00653113
0.0106217
-0.00655859
0.0108447
-0.0065597
0.0110592
-0.00653832
0.0112669
-0.00649877
-0.00644756
0.0114709
1.48306e-05
0.000439641
6.17257e-05
0.00116315
0.000142025
0.00177092
0.00025588
0.00224877
0.000402579
0.00259635
0.000580886
0.00281972
0.000789277
0.00292691
0.00102609
0.00292673
0.00128964
0.00282845
0.00157824
0.00264152
0.00189019
0.0023754
0.00222376
0.0020395
0.00257712
0.00164311
0.00294833
0.00119544
0.00333526
0.00070563
0.00373555
0.000182757
0.00414666
-0.000364131
0.00456582
-0.00092608
0.0049901
-0.00149429
0.00541642
-0.00206021
0.0058417
-0.00261572
0.0062629
-0.00315326
0.00667711
-0.00366604
0.00708171
-0.00414811
0.00747436
-0.00459455
0.00785315
-0.00500152
0.00821661
-0.00536631
0.00856372
-0.00568733
0.00889394
-0.00596404
0.00920714
-0.0061969
0.00950361
-0.00638717
0.00978399
-0.00653683
0.0100492
-0.00664844
0.0103004
-0.00672495
0.0105388
-0.00676957
0.010766
-0.00678574
0.0109833
-0.00677704
0.0111924
-0.00674746
0.0113952
-0.00670155
-0.00664682
0.0115945
1.4138e-05
0.000425503
6.02052e-05
0.00111708
0.00014022
0.0016909
0.000254774
0.00213421
0.000403443
0.00244768
0.000585164
0.002638
0.000798499
0.00271358
0.00104181
0.00268343
0.00131335
0.00255691
0.00161135
0.00234352
0.00193395
0.0020528
0.00227922
0.00169423
0.00264511
0.00127722
0.00302939
0.000811168
0.00342961
0.000305408
0.00384311
-0.000230739
0.00426698
-0.000788006
0.00469813
-0.00135723
0.00513331
-0.00192946
0.00556917
-0.00249607
0.00600241
-0.00304895
0.00642983
-0.00358068
0.00684845
-0.00408466
0.00725562
-0.00455528
0.00764909
-0.00498802
0.00802707
-0.0053795