/*--------------------------------*- C++ -*----------------------------------*\
  =========                 |
  \\      /  F ield         | OpenFOAM: The Open Source CFD Toolbox
   \\    /   O peration     | Website:  https://openfoam.org
    \\  /    A nd           | Version:  7
     \\/     M anipulation  |
\*---------------------------------------------------------------------------*/
FoamFile
{
    version     2.0;
    format      ascii;
    class       volScalarField;
    location    "98";
    object      p;
}
// * * * * * * * * * * * * * * * * * * * * * * * * * * * * * * * * * * * * * //

dimensions      [0 2 -2 0 0 0 0];

internalField   nonuniform List<scalar> 
2000
(
0.00660408
0.00667549
0.00680876
0.00697537
0.00715325
0.0073283
0.00749084
0.00763598
0.00776289
0.00785751
0.00663058
0.00673999
0.00688735
0.00706768
0.0072587
0.00744622
0.00761989
0.00777431
0.00790884
0.00800224
0.00663813
0.00679272
0.00695457
0.00714733
0.00734901
0.0075457
0.00772708
0.00788764
0.00802761
0.00811844
0.00663076
0.00683599
0.00701224
0.00721537
0.00742419
0.00762558
0.00780977
0.00797168
0.00811311
0.00819862
0.00661457
0.00687378
0.00706318
0.00727361
0.00748501
0.0076855
0.00786637
0.00802335
0.00816025
0.00823597
0.00659714
0.00691057
0.00711077
0.00732449
0.00753311
0.00772631
0.00789687
0.00804168
0.00816665
0.0082267
0.00658697
0.00695127
0.00715885
0.00737106
0.00757104
0.00775021
0.00790322
0.00802839
0.00813346
0.00817107
0.00659315
0.00700117
0.00721165
0.00741702
0.00760234
0.00776101
0.00788976
0.00798858
0.00806693
0.00807594
0.00662494
0.00706574
0.00727377
0.00746661
0.00763151
0.00776408
0.00786349
0.00793207
0.00798175
0.0079594
0.0066912
0.00715039
0.00735004
0.00752454
0.00766369
0.0077656
0.00783255
0.00787067
0.00789751
0.00785837
0.00795705
0.00859122
0.00922482
0.0103593
0.0115821
0.013096
0.0140599
0.0156499
0.0154132
0.0166551
0.00804002
0.00862701
0.0090913
0.0100591
0.0111418
0.0125356
0.0134232
0.0148781
0.0147802
0.0158285
0.00808179
0.00864678
0.00896142
0.00976896
0.0107186
0.0120004
0.0128147
0.0141785
0.0141475
0.0150661
0.0080773
0.00863915
0.00883184
0.00948901
0.0103129
0.0114898
0.012239
0.0135293
0.013523
0.0143768
0.00802509
0.00859319
0.00869711
0.00921849
0.00992511
0.0110043
0.0116953
0.0129201
0.0129323
0.0137606
0.00792818
0.00850146
0.00855015
0.00895545
0.00955526
0.0105428
0.0111792
0.01234
0.012372
0.0131995
0.00779482
0.00836175
0.00838387
0.00869691
0.00920304
0.0101063
0.0106951
0.0118006
0.0118641
0.0126993
0.00763159
0.00816695
0.00818727
0.00843873
0.00886668
0.00968757
0.0102271
0.0112681
0.0113639
0.0122354
0.00742712
0.00790482
0.00793929
0.00816655
0.00855387
0.00931276
0.00982015
0.0108087
0.0109455
0.0118372
0.00727301
0.00770127
0.00773222
0.00790089
0.0082206
0.00889657
0.00935717
0.0102616
0.0104677
0.0114428
0.00783204
0.00824483
0.00847726
0.00860267
0.00868561
0.0089853
0.00927111
0.00989727
0.0100604
0.0107224
0.00623146
0.00662114
0.00696939
0.00727945
0.00756325
0.00793714
0.00826678
0.00877803
0.00890502
0.00929471
0.00506926
0.00542653
0.00575035
0.00602585
0.00628303
0.00664024
0.00697519
0.00744319
0.00755889
0.00784237
0.00386224
0.00421864
0.00459146
0.00490347
0.00515921
0.00546997
0.00575913
0.00616016
0.00625588
0.00648551
0.00272377
0.00304588
0.00344824
0.00381942
0.00412569
0.00442896
0.00468191
0.00501243
0.00508521
0.00527368
0.00172807
0.00200538
0.00239915
0.0027989
0.00315094
0.00347482
0.00372551
0.00401001
0.00406487
0.0042065
0.000914957
0.00114594
0.00150859
0.00189729
0.00225185
0.00257414
0.00281935
0.00307365
0.00312362
0.00323578
0.000306216
0.000489393
0.000802784
0.00115349
0.00147705
0.00176828
0.00198841
0.00220742
0.00224215
0.00231775
-1.51831e-05
7.26174e-05
0.000310351
0.000579711
0.000818036
0.00102714
0.00117877
0.00134267
0.00135781
0.00140859
-0.000538203
-0.000266725
-3.71994e-05
0.000147045
0.000280033
0.000385035
0.000443396
0.00052058
0.000493513
0.000489308
0.00734128
0.00603041
0.00491397
0.0037461
0.00265584
0.00169611
0.000913636
0.000306045
1.26353e-05
-0.000506733
0.00708188
0.00583173
0.0047254
0.00358904
0.00254271
0.00162432
0.000879486
0.000299657
2.52329e-05
-0.000429099
0.00682943
0.0056506
0.00455436
0.00345126
0.00244396
0.00156576
0.00085569
0.000306443
4.35972e-05
-0.000338056
0.00663433
0.00552663
0.00443831
0.00336554
0.00239156
0.00154379
0.000859928
0.000333394
7.246e-05
-0.000255045
0.00649767
0.00544514
0.00436408
0.00331783
0.00237146
0.0015492
0.000885851
0.000375967
0.000110178
-0.0001807
0.00642275
0.00540224
0.00432769
0.00330232
0.00237859
0.00157692
0.000928936
0.000430343
0.000154411
-0.000114208
0.00641716
0.00539601
0.00432751
0.00331698
0.00241076
0.00162444
0.000986594
0.000493843
0.000203208
-5.5636e-05
0.00646676
0.00542375
0.00436038
0.00335859
0.00246487
0.00168886
0.00105616
0.000564024
0.000254891
-4.73201e-06
0.0065635
0.00548219
0.00442229
0.00342352
0.00253751
0.00176711
0.00113493
0.000638668
0.000308052
3.92447e-05
0.00669769
0.00556719
0.00450863
0.003508
0.00262522
0.00185622
0.00122038
0.000715913
0.000361585
7.72392e-05
0.00685761
0.00567263
0.00461366
0.00360771
0.00272428
0.00195325
0.00131021
0.000794209
0.000414644
0.000110143
0.00703464
0.0057938
0.00473303
0.0037196
0.00283197
0.00205607
0.00140275
0.000872537
0.000466732
0.000138765
0.00722333
0.00592866
0.00486412
0.00384215
0.00294674
0.00216345
0.00149706
0.000950391
0.000517679
0.000163904
0.00741843
0.00607542
0.00500423
0.00397385
0.00306718
0.00227435
0.00159246
0.0010275
0.000567466
0.000186219
0.00761545
0.00623319
0.00515114
0.00411347
0.00319226
0.00238801
0.00168852
0.00110376
0.000616177
0.000206236
0.00781018
0.00640154
0.00530291
0.00425977
0.00332115
0.00250381
0.00178498
0.00117919
0.000663953
0.000224381
0.00799639
0.0065787
0.00545718
0.00441101
0.00345297
0.00262107
0.00188163
0.00125381
0.000710963
0.000241021
0.00817017
0.00676779
0.00561631
0.00456871
0.00358922
0.00274083
0.00197928
0.00132826
0.000757646
0.000256538
0.008346
0.00699331
0.00579663
0.00474364
0.00373781
0.00286821
0.00208118
0.00140443
0.000804901
0.000271027
0.00845747
0.00721069
0.00597199
0.00491234
0.00388441
0.00299209
0.00218058
0.00147807
0.000850652
0.000283257
0.00801455
0.00723968
0.00614012
0.00512828
0.00412117
0.00320845
0.00236999
0.00162363
0.000945705
0.00031391
0.00798037
0.00719504
0.00612554
0.005176
0.00420219
0.00331738
0.00248268
0.00172581
0.00101776
0.000342333
0.00816348
0.00735252
0.00627194
0.00533712
0.00435893
0.00346987
0.00261522
0.0018343
0.0010924
0.000375082
0.00856361
0.00763324
0.00650053
0.00554184
0.00453816
0.00363048
0.00274781
0.00194136
0.00116894
0.000413416
0.0091678
0.00805182
0.00683096
0.00580727
0.00475601
0.00381042
0.00289025
0.00205431
0.00125224
0.000458343
0.00991897
0.00858997
0.00725773
0.00613302
0.00501528
0.00401274
0.003047
0.00217519
0.00134095
0.00050469
0.0107258
0.00918863
0.00773763
0.00649356
0.00530021
0.00422919
0.00321421
0.00229867
0.0014239
0.000538714
0.0114786
0.00975992
0.00819782
0.00683885
0.0055739
0.00443643
0.00337492
0.00241007
0.00148582
0.000549841
0.0120653
0.0102075
0.00855794
0.00711025
0.00579047
0.00460182
0.00350342
0.0024934
0.00152137
0.000542779
0.0123881
0.0104517
0.00875396
0.00725851
0.00591
0.00469428
0.00357592
0.00253794
0.00153499
0.000531968
0.00883499
0.00879678
0.00903886
0.00951095
0.0101823
0.0109982
0.0118826
0.0127281
0.0134064
0.0137882
0.00894278
0.0090281
0.00935513
0.00990612
0.0106452
0.0115156
0.0124428
0.0133195
0.0140184
0.0144131
0.00892869
0.00915582
0.00959898
0.0102603
0.0110994
0.0120577
0.0130533
0.0139713
0.0146862
0.0150861
0.00895835
0.00929706
0.00983602
0.0105936
0.0115238
0.0125703
0.0136453
0.0146238
0.0153754
0.0157949
0.00902619
0.00948172
0.0101114
0.0109562
0.0119668
0.0130919
0.0142417
0.0152848
0.0160835
0.0165316
0.00910439
0.00968814
0.0104209
0.0113587
0.0124522
0.0136541
0.0148738
0.0159769
0.0168205
0.0172964
0.00919165
0.0099053
0.0107529
0.0117918
0.0129764
0.0142604
0.0155508
0.0167107
0.0175944
0.0180929
0.00929479
0.0101355
0.0111054
0.0122494
0.0135312
0.0149033
0.0162685
0.0174858
0.0184072
0.0189242
0.00941746
0.0103813
0.0114796
0.01273
0.0141131
0.0155772
0.0170213
0.0182984
0.0192583
0.0197916
0.00956103
0.0106414
0.011875
0.0132323
0.0147204
0.0162797
0.0178065
0.0191462
0.0201468
0.0206955
0.00972677
0.0109123
0.0122894
0.0137531
0.0153509
0.0170089
0.0186227
0.0200281
0.0210727
0.0216364
0.00991313
0.0111897
0.0127182
0.0142872
0.0160004
0.0177612
0.0194679
0.0209433
0.022036
0.0226149
0.010113
0.0114708
0.013154
0.0148296
0.016664
0.0185335
0.02034
0.0218918
0.0230373
0.0236329
0.0103122
0.0117564
0.0135852
0.0153751
0.0173345
0.019321
0.021233
0.0228777
0.024078
0.0246938
0.010477
0.012054
0.0140038
0.0159208
0.0180085
0.0201211
0.0221482
0.0238899
0.025154
0.0257951
0.0106214
0.012337
0.0144022
0.0164536
0.0186762
0.0209253
0.0230788
0.0249247
0.0262628
0.0269357
0.0107298
0.0125972
0.0147729
0.0169646
0.0193305
0.021728
0.0240212
0.0259826
0.0274047
0.028117
0.0107789
0.0128322
0.0151077
0.0174448
0.0199605
0.022518
0.0249646
0.027057
0.0285762
0.0293384
0.0107453
0.0130337
0.015403
0.0178963
0.0205749
0.0233071
0.0259203
0.0281555
0.0297812
0.030604
0.0105823
0.0131582
0.0156135
0.0182517
0.0210903
0.0240092
0.0268165
0.0292311
0.030997
0.0319043
0.011138
0.0144093
0.0171688
0.0201102
0.0232201
0.0264052
0.0294719
0.0321354
0.0341108
0.0351625
0.0141977
0.0173923
0.0203607
0.0237747
0.0273822
0.0310699
0.0345874
0.0376099
0.039827
0.0409902
0.0176345
0.0209862
0.0242841
0.0282101
0.032325
0.0365269
0.0404714
0.0438023
0.0462102
0.0474756
0.0213135
0.0250194
0.0288371
0.0333466
0.0380015
0.0427253
0.0470552
0.0506269
0.0531391
0.0544004
0.0252394
0.0294024
0.0338247
0.0389538
0.0441724
0.0494114
0.0540789
0.0578275
0.0603793
0.0616745
0.0295015
0.0341271
0.0392032
0.0449713
0.0507748
0.0565309
0.0615083
0.0653644
0.0677741
0.0687189
0.0336464
0.0388422
0.0445341
0.0508781
0.0572369
0.0634615
0.0687151
0.072632
0.074783
0.0756554
0.0378942
0.0434141
0.0497028
0.0566513
0.0636118
0.070356
0.076026
0.080175
0.0818637
0.0806445
0.0400044
0.0463128
0.0531769
0.0606316
0.0680481
0.0751521
0.0810007
0.0851284
0.0856373
0.0871599
0.043361
0.0497365
0.057015
0.0649268
0.0730267
0.0808603
0.0880103
0.0940461
0.0957428
0.078786
0.0101517
0.0131392
0.0162458
0.019654
0.0231385
0.0272408
0.0307244
0.035126
0.0365914
0.0398779
0.00978584
0.0129266
0.0159681
0.0193351
0.0226777
0.026653
0.0298796
0.0341841
0.0353912
0.0386225
0.00960508
0.0129032
0.015924
0.019245
0.0225221
0.0263295
0.0293716
0.0334009
0.0345138
0.0374996
0.00940439
0.0127578
0.0157473
0.0190013
0.0222258
0.0258804
0.0288116
0.0325535
0.0337366
0.0363511
0.00919246
0.0125317
0.0154793
0.0186609
0.0218121
0.0253072
0.0281972
0.031641
0.0329699
0.0352057
0.00898474
0.0122812
0.0151946
0.0183126
0.0213885
0.0247373
0.0275714
0.0307678
0.0322029
0.0341271
0.00877952
0.0120169
0.0149088
0.0179767
0.0209904
0.0242187
0.0269788
0.0299837
0.0314668
0.0331501
0.00857723
0.0117414
0.014621
0.01765
0.020615
0.0237491
0.026437
0.0292898
0.0307921
0.032285
0.00838239
0.0114619
0.0143354
0.0173355
0.0202619
0.0233235
0.0259503
0.0286769
0.0301854
0.0315427
0.00819973
0.0111864
0.0140602
0.0170417
0.0199386
0.0229453
0.025523
0.0281426
0.0296517
0.0309176
0.00803287
0.010922
0.0138027
0.0167763
0.019654
0.0226209
0.0251613
0.0276905
0.0291976
0.0304
0.00787867
0.01067
0.013566
0.0165421
0.0194132
0.0223546
0.0248704
0.0273243
0.0288279
0.0299829
0.0077289
0.0104302
0.0133499
0.0163395
0.0192182
0.0221491
0.0246541
0.0270466
0.0285452
0.0296654
0.0075757
0.010205
0.0131544
0.0161694
0.0190703
0.0220061
0.0245142
0.0268586
0.0283483
0.0294481
0.0074095
0.00999626
0.0129783
0.0160319
0.0189695
0.0219266
0.0244518
0.026761
0.0282362
0.0293374
0.00721836
0.00980245
0.0128178
0.015925
0.0189144
0.0219094
0.0244662
0.0267534
0.0281996
0.0293367
0.00699048
0.00961828
0.0126672
0.0158443
0.0189017
0.0219527
0.024558
0.0268383
0.0282404
0.0294623
0.00671359
0.00943506
0.0125199
0.015783
0.018925
0.0220486
0.0247198
0.0270085
0.0283275
0.0297187
0.00634178
0.00922108
0.0123641
0.0157372
0.0189872
0.0222064
0.0249664
0.0272856
0.0285046
0.0301349
0.00591844
0.00895521
0.0121639
0.0156544
0.0190241
0.0223526
0.0252259
0.0276033
0.028649
0.0306884
0.006821
0.00999538
0.0131001
0.0166333
0.0201714
0.0236307
0.0266351
0.0291206
0.0299959
0.0324211
0.00857361
0.0120251
0.0154124
0.019306
0.0232161
0.0270399
0.0303938
0.0332007
0.0343776
0.0364918
0.0112034
0.0149512
0.0187121
0.0230833
0.0274715
0.0318119
0.0356538
0.0388333
0.0405626
0.0424071
0.0144721
0.0185821
0.0227975
0.0277603
0.0327991
0.0378837
0.0424717
0.0463518
0.0490878
0.0512994
0.0179361
0.0224744
0.0272584
0.0329499
0.0388331
0.0449322
0.0506578
0.0558498
0.0602774
0.0642374
0.0215682
0.0264999
0.0319695
0.0385098
0.0454408
0.0528759
0.0603097
0.06798
0.0760652
0.0846389
0.024345
0.0298543
0.036079
0.0435279
0.0517295
0.0609489
0.0709116
0.0827404
0.0976848
0.11675
0.0276165
0.0336262
0.040653
0.0490929
0.0587432
0.0702159
0.083855
0.10275
0.131291
0.172248
0.0282238
0.0342949
0.0415753
0.050571
0.0617109
0.0762573
0.0962513
0.127111
0.178743
0.259834
0.030683
0.0379561
0.0467942
0.058062
0.0729533
0.0934438
0.123345
0.1715
0.256554
0.389621
0.00690468
0.00855041
0.0107066
0.0134151
0.0161324
0.0193953
0.0215305
0.0246468
0.0251151
0.0270419
0.00680992
0.00848067
0.0105606
0.0131438
0.0156593
0.01874
0.0206356
0.0236449
0.0239891
0.0259669
0.00683787
0.00846747
0.0104749
0.0129621
0.0153617
0.0182485
0.0199819
0.0228024
0.0229701
0.0251518
0.00693679
0.00845585
0.0103303
0.0126789
0.0149444
0.0176488
0.0192559
0.0219007
0.0218987
0.0241066
0.00706767
0.00844754
0.0101584
0.0123465
0.0144477
0.0169663
0.0184395
0.0209407
0.0207842
0.0228524
0.00721803
0.00844791
0.00998575
0.0120098
0.0139478
0.0162784
0.0176076
0.0199868
0.019691
0.02157
0.00737951
0.00845851
0.00982097
0.0116633
0.0134689
0.0156124
0.0168076
0.0190766
0.0186635
0.0203887
0.00754309
0.00847972
0.00966267
0.011321
0.0129908
0.0149618
0.0160562
0.0182085
0.0177153
0.0193399
0.00769974
0.00851096
0.00951021
0.0109898
0.012511
0.0143094
0.0153653
0.0173562
0.0168496
0.0183955
0.00784061
0.00854976
0.00936405
0.0106694
0.0120391
0.0136852
0.0147102
0.016495
0.016078
0.0175111
0.00680116
0.00726101
0.00744585
0.00759613
0.00770441
0.00777131
0.00780221
0.0078064
0.0078071
0.00777703
0.00696813
0.00740517
0.00756712
0.00768691
0.00775942
0.0077871
0.0077771
0.00773928
0.00769493
0.00761867
0.00719483
0.00758582
0.00771783
0.00780187
0.00783483
0.00782062
0.00776757
0.00768617
0.00759735
0.00747738
0.00748403
0.00780615
0.00790185
0.00794562
0.00793624
0.00787876
0.00778244
0.00765827
0.00752682
0.0073672
0.00783684
0.00806827
0.00812187
0.00812149
0.00806774
0.00796655
0.00782774
0.00766214
0.00748881
0.00729734
0.00825106
0.00837215
0.00837853
0.00833082
0.00823135
0.00808666
0.0079066
0.00770029
0.00748163
0.00728411
0.00872105
0.00871495
0.00867
0.00857251
0.00842662
0.00823913
0.00801951
0.00777848
0.0075319
0.00727049
0.00923804
0.00909078
0.00899181
0.00884281
0.00865033
0.00842127
0.0081644
0.0078905
0.00761248
0.00731491
0.00978689
0.00949274
0.00933664
0.00913522
0.00889668
0.00862775
0.00833633
0.0080322
0.00772495
0.00740245
0.0103475
0.0099064
0.00969354
0.00944038
0.00915732
0.00885091
0.00852793
0.00819678
0.00786418
0.00752279
0.0108899
0.0103131
0.0100484
0.00974666
0.00942216
0.00908153
0.00873048
0.00837587
0.00802231
0.00766741
0.0114218
0.010709
0.0103925
0.010044
0.00968098
0.0093097
0.00893444
0.00856033
0.00819052
0.00782754
0.0119167
0.0110751
0.0107104
0.0103196
0.00992267
0.00952545
0.00913062
0.00874144
0.00836032
0.00799486
0.0123512
0.011394
0.0109877
0.010561
0.0101364
0.00971916
0.00931016
0.00891085
0.00852357
0.00816146
0.0127061
0.0116505
0.0112112
0.010757
0.0103125
0.00988208
0.00946508
0.00906105
0.00867291
0.0083202
0.0129648
0.0118311
0.0113692
0.0108977
0.0104424
0.0100068
0.00958874
0.00918577
0.00880192
0.00846463
0.0131135
0.0119244
0.0114522
0.0109752
0.0105196
0.0100879
0.00967634
0.00928052
0.00890559
0.00858861
0.0131421
0.011922
0.0114532
0.0109842
0.01054
0.010122
0.00972534
0.00934315
0.00897965
0.00868355
0.0130446
0.0118188
0.0113682
0.0109217
0.0105016
0.010108
0.00973485
0.00937116
0.00901475
0.00873141
0.0128194
0.0116135
0.0111962
0.0107875
0.0104055
0.0100486
0.00970894
0.00936982
0.00901854
0.00873856
0.0124679
0.0113075
0.0109382
0.0105828
0.0102541
0.00995013
0.0096661
0.00939473
0.00914628
0.00900293
0.0119893
0.0109032
0.0105971
0.0103092
0.010046
0.00980482
0.00958222
0.0093767
0.00920296
0.0091076
0.0113975
0.0104106
0.0101795
0.00997033
0.00978191
0.00960955
0.00945027
0.00930536
0.00918686
0.00911272
0.0107084
0.00984196
0.00969457
0.0095729
0.00946669
0.00936895
0.00927736
0.00919522
0.00913222
0.00909243
0.00994
0.00921137
0.0091537
0.00912591
0.00910796
0.00909032
0.00907141
0.00905599
0.00905201
0.00905828
0.00911266
0.0085351
0.0085702
0.00864019
0.00871492
0.00878188
0.00883998
0.00889498
0.00895371
0.00901315
0.00824848
0.00783066
0.00795865
0.00812775
0.00829767
0.00845243
0.00859101
0.00871977
0.00884506
0.00896393
0.00736963
0.00711557
0.00733396
0.00760091
0.0078665
0.00811079
0.00833227
0.00853747
0.00873276
0.00891684
0.00649809
0.00640634
0.00671041
0.00707157
0.00743125
0.00776515
0.0080707
0.00835411
0.00862191
0.00887582
0.00566343
0.00572221
0.00610309
0.00655159
0.00700121
0.00742286
0.00781218
0.00817441
0.00851605
0.00884306
0.00490818
0.00509201
0.00553163
0.00605534
0.00658686
0.00709155
0.00756226
0.00800234
0.00841755
0.00881919
0.00418959
0.0044994
0.00499242
0.00558474
0.00619137
0.00677416
0.00732306
0.00783911
0.00832622
0.00880179
0.00353107
0.00395898
0.0044983
0.0051474
0.00582042
0.00647454
0.00709672
0.00768536
0.00824101
0.00878553
0.00294881
0.00348168
0.00405629
0.00475018
0.00547857
0.00619531
0.00688418
0.00754049
0.00816027
0.00876408
0.00244873
0.00307179
0.00367048
0.00439666
0.00516856
0.00593809
0.00668584
0.00740318
0.00808063
0.00874522
0.00203296
0.00273068
0.00334306
0.004089
0.00489209
0.00570374
0.00650169
0.00727297
0.00800054
0.00871309
0.00170141
0.00245796
0.00307452
0.00382816
0.00464998
0.00549263
0.00633159
0.00714954
0.00791923
0.00866568
0.00145169
0.00225152
0.0028638
0.00361387
0.00444224
0.0053047
0.00617561
0.00703405
0.00784005
0.00860487
0.00127956
0.00210786
0.00270856
0.00344483
0.00426806
0.00513931
0.00603349
0.00692867
0.00777279
0.00854392
0.00117967
0.00202259
0.00260547
0.00331883
0.00412584
0.00499489
0.00590288
0.00683047
0.00772824
0.00852232
0.00114447
0.00198977
0.00254965
0.00323216
0.00401259
0.00486922
0.00578498
0.0067562
0.00780986
0.00888802
0.00115844
0.00199979
0.00253485
0.00318092
0.00392432
0.00475237
0.00565079
0.00661074
0.00765796
0.00871767
0.00122181
0.00205073
0.00255839
0.00316293
0.00385955
0.0046431
0.00550162
0.00642059
0.00741401
0.00841284
0.00132933
0.00213769
0.00261622
0.00317614
0.00381976
0.00454901
0.00535657
0.006229
0.00717459
0.00812407
0.00147359
0.00225486
0.00270385
0.00321838
0.00380626
0.0044762
0.00522669
0.00604788
0.00694511
0.00785035
0.00164755
0.00239682
0.00281688
0.00328703
0.00381894
0.00442731
0.00511653
0.00588082
0.00672401
0.0075848
0.00184484
0.00255866
0.00295105
0.00337904
0.00385659
0.00440325
0.00502901
0.00573237
0.00651658
0.00733058
0.00205967
0.0027357
0.00310207
0.00349095
0.00391712
0.00440374
0.00496577
0.005606
0.00632767
0.00709192
0.00228696
0.00292371
0.00326578
0.003619
0.00399769
0.00442729
0.00492689
0.0055033
0.00616005
0.0068718
0.00252366
0.00312046
0.00343964
0.00376044
0.00409574
0.00447198
0.00491145
0.00542451
0.00601506
0.00667201
0.00276854
0.00332651
0.00362421
0.00391547
0.00421116
0.00453771
0.00491966
0.0053704
0.00589391
0.00649347
0.00301065
0.00353091
0.00380893
0.00407417
0.00433502
0.00461691
0.00494557
0.00533675
0.00579394
0.00633347
0.00325047
0.00373441
0.00399396
0.00423588
0.00446593
0.00470768
0.00498712
0.00532163
0.00571351
0.00618971
0.00348778
0.0039365
0.00417836
0.00439905
0.00460166
0.00480739
0.00504159
0.00532249
0.00565038
0.00605971
0.00372204
0.00413617
0.00436074
0.00456177
0.00473983
0.00491332
0.00510617
0.00533665
0.00560207
0.00594064
0.00395324
0.00433285
0.00454029
0.00472282
0.00487873
0.00502342
0.0051787
0.00536205
0.00556667
0.00582976
0.00418186
0.00452652
0.00471685
0.00488181
0.00501763
0.00513665
0.00525816
0.00539814
0.00554424
0.005726
0.00440854
0.00471743
0.00489081
0.00503919
0.00515694
0.00525337
0.00534498
0.00544601
0.00553693
0.00562904
0.00463373
0.00490597
0.00506297
0.00519639
0.00529886
0.00537676
0.00544327
0.00550991
0.00554748
0.00553137
0.0048573
0.00509232
0.00523426
0.00535542
0.00544749
0.0055152
0.00556959
0.00562101
0.00563864
0.00554044
0.00507883
0.00527643
0.0054051
0.00551739
0.00560519
0.00567472
0.00574168
0.0058365
0.00601994
0.00633774
0.00529895
0.00545821
0.00557513
0.00568147
0.00576856
0.00584211
0.00591698
0.00602066
0.00620673
0.00648548
0.00551327
0.00563597
0.0057432
0.00584629
0.00593511
0.00601312
0.00609184
0.00619201
0.00634917
0.00655857
0.00571791
0.00580785
0.00590785
0.00601044
0.00610365
0.00618817
0.00627212
0.00637116
0.00650919
0.00667659
0.00591081
0.00597046
0.00606728
0.00617214
0.00627234
0.00636562
0.00645655
0.00655613
0.00668018
0.00681986
0.0060862
0.0061237
0.00621915
0.00632922
0.00643877
0.00654279
0.00664239
0.00674429
0.00685858
0.00697934
0.00624099
0.00626468
0.00636183
0.00647947
0.00660045
0.00671698
0.00682705
0.0069338
0.00704327
0.00715186
0.00637254
0.00639158
0.00649342
0.00662085
0.00675488
0.00688539
0.00700761
0.0071218
0.00723108
0.00733243
0.00647874
0.00650327
0.0066125
0.00675146
0.00689974
0.00704512
0.0071807
0.00730441
0.00741733
0.00751479
0.00655711
0.00659852
0.00671796
0.00686986
0.0070331
0.00719348
0.00734281
0.00747724
0.00759653
0.00769217
)
;

boundaryField
{
    inlet
    {
        type            zeroGradient;
    }
    outlet
    {
        type            fixedValue;
        value           uniform 0;
    }
    cylinder
    {
        type            zeroGradient;
    }
    top
    {
        type            symmetryPlane;
    }
    bottom
    {
        type            symmetryPlane;
    }
    defaultFaces
    {
        type            empty;
    }
}


// ************************************************************************* //
