/*--------------------------------*- C++ -*----------------------------------*\
  =========                 |
  \\      /  F ield         | OpenFOAM: The Open Source CFD Toolbox
   \\    /   O peration     | Website:  https://openfoam.org
    \\  /    A nd           | Version:  7
     \\/     M anipulation  |
\*---------------------------------------------------------------------------*/
FoamFile
{
    version     2.0;
    format      ascii;
    class       surfaceScalarField;
    location    "98";
    object      phi;
}
// * * * * * * * * * * * * * * * * * * * * * * * * * * * * * * * * * * * * * //

dimensions      [0 3 -1 0 0 0 0];

internalField   nonuniform List<scalar> 
3880
(
-1.42087e-05
-0.000460987
0.000475196
-1.25292e-05
-0.00110851
0.00110683
1.2882e-05
-0.00149653
0.00147112
6.55429e-05
-0.0016676
0.00161494
0.00014895
-0.00165014
0.00156674
0.000267498
-0.00146351
0.00134496
0.000426352
-0.00112118
0.000962325
0.000630105
-0.000633578
0.000429825
0.00088086
-9.88127e-06
-0.000240873
0.00074021
0.00117668
-0.00103603
-3.65112e-06
-0.000457336
1.90734e-05
-0.00113123
7.17831e-05
-0.00154924
0.000155224
-0.00175104
0.000270878
-0.0017658
0.000421883
-0.00161451
0.00061268
-0.00131198
0.00084777
-0.000868668
0.00113025
-0.000292362
0.000411296
0.00145916
1.01243e-05
-0.000467461
5.97823e-05
-0.00118089
0.000147419
-0.00163688
0.000270461
-0.00187409
0.000428081
-0.00192342
0.000621761
-0.00180819
0.000854872
-0.00154509
0.00113155
-0.00114534
0.00145522
-0.000616029
4.00095e-05
0.0018265
2.65234e-05
-0.000493984
0.000107925
-0.00126229
0.000236559
-0.00176551
0.000406291
-0.00204382
0.000613868
-0.00213099
0.000859018
-0.00205334
0.0011439
-0.00182997
0.00147201
-0.00147346
0.00184681
-0.00099083
-0.00038333
0.00227015
4.49216e-05
-0.000538906
0.000161145
-0.00137851
0.00033451
-0.00193888
0.000555187
-0.00226449
0.000817566
-0.00239337
0.00111976
-0.00235554
0.00146285
-0.00217306
0.00184971
-0.00186031
0.00228354
-0.00142466
-0.000866432
0.00276665
6.43498e-05
-0.000603255
0.00021642
-0.00153058
0.000435232
-0.00215769
0.000707261
-0.00253652
0.00102472
-0.00271083
0.00138442
-0.00271524
0.00178673
-0.00257537
0.00223423
-0.00230781
0.0027299
-0.00192033
-0.00141208
0.00327555
8.37059e-05
-0.000686961
0.000270243
-0.00171712
0.000531686
-0.00241913
0.000850883
-0.00285572
0.00121807
-0.00307803
0.00162907
-0.00312624
0.00208403
-0.00303032
0.00258594
-0.00280973
0.00313823
-0.00247262
-0.00201531
0.00374146
0.000101802
-0.000788763
0.000318843
-0.00193416
0.000616343
-0.00271663
0.000973653
-0.00321303
0.0013792
-0.00348357
0.00182798
-0.00357501
0.00232024
-0.00352258
0.00286027
-0.00334976
0.00345373
-0.00306608
-0.00266194
0.00410035
0.000117428
-0.000906191
0.000358439
-0.00217517
0.000681784
-0.00303998
0.0010636
-0.00359484
0.00149063
-0.0039106
0.00195703
-0.00404142
0.00246293
-0.00402849
0.00301404
-0.00390086
0.00362077
-0.00367281
-0.00333061
0.00428944
0.000129417
-0.00103561
0.000385486
-0.00243124
0.000721299
-0.00337579
0.00111034
-0.00398389
0.00153805
-0.00433832
0.00199771
-0.00450107
0.00248853
-0.00451931
0.00301572
-0.00442805
0.00359393
-0.00425103
0.00426383
-0.00400051
0.00210505
0.00976422
-0.0106926
0.00330318
0.0260888
-0.0272869
0.00395484
0.0447855
-0.0454371
0.00397812
0.0625818
-0.0626051
0.00357152
0.0797948
-0.0793882
0.00287693
0.0977991
-0.0971045
0.00200496
0.118969
-0.118097
0.000997062
0.149754
-0.148746
0.00021674
0.197235
-0.196455
0.253466
-0.25325
0.00239661
0.00882677
0.00377596
0.0247094
0.00468534
0.0438761
0.00489574
0.0623714
0.00458339
0.0801071
0.00390704
0.0984754
0.0029951
0.119881
0.00188841
0.150861
0.000781207
0.198343
0.254247
0.00272407
0.0079292
0.00422868
0.0232048
0.0053911
0.0427136
0.00580232
0.0619601
0.00559492
0.0803145
0.00494113
0.0991292
0.00398757
0.120834
0.00277236
0.152076
0.00135625
0.199759
0.255604
0.003089
0.00711036
0.00465245
0.0216414
0.00605165
0.0413144
0.00667645
0.0613353
0.00658765
0.0804033
0.00596262
0.0997542
0.00496974
0.121827
0.00364598
0.1534
0.00192476
0.20148
0.257528
0.00348745
0.00638956
0.00504267
0.0200862
0.00664908
0.039708
0.00749742
0.060487
0.00754311
0.0803576
0.00695611
0.100341
0.00592966
0.122854
0.00449995
0.15483
0.00248089
0.203499
0.260009
0.00390446
0.00576064
0.00539683
0.0185938
0.00716945
0.0379354
0.00824608
0.0594104
0.00844374
0.08016
0.00790744
0.100878
0.0068551
0.123906
0.00532377
0.156361
0.00301736
0.205805
0.263027
0.00430986
0.00519225
0.00570943
0.0171942
0.00760313
0.0360417
0.00890582
0.0581077
0.00927359
0.0797922
0.00880373
0.101347
0.00773641
0.124973
0.0061117
0.157986
0.0035342
0.208383
0.266561
0.00465367
0.00463893
0.00596471
0.0158832
0.00794134
0.0340651
0.00946278
0.0565862
0.0100169
0.0792381
0.00962862
0.101736
0.0085571
0.126045
0.00684837
0.159694
0.00401826
0.211213
0.270579
0.00486806
0.00406031
0.00613321
0.014618
0.00817
0.0320283
0.00990427
0.054852
0.0106698
0.0784726
0.0103874
0.102018
0.00932891
0.127103
0.00754652
0.161477
0.00448164
0.214278
0.275061
0.0049347
0.00338944
0.00625212
0.0133006
0.00832435
0.0299561
0.0102235
0.0529528
0.0111865
0.0775096
0.0110223
0.102182
0.0100085
0.128117
0.00815102
0.163334
0.00491956
0.217509
0.27998
0.0164035
0.00683708
-0.0198512
0.0126087
0.0170955
0.0104547
0.0321101
0.00946064
0.0539468
0.00832299
0.0786473
0.00663779
0.103867
0.00429251
0.130463
0.00150824
0.166119
-0.000494802
0.219512
0.279486
0.0172394
0.00921937
-0.0196216
0.0136274
0.0207075
0.0107462
0.0349913
0.00924073
0.0554522
0.00801091
0.0798771
0.00634865
0.10553
0.00403364
0.132778
0.00137293
0.168779
-0.000493853
0.221379
0.278992
0.0168957
0.0103114
-0.0179878
0.0141811
0.0234221
0.0112226
0.0379499
0.00922116
0.0574536
0.00771541
0.0813829
0.00601129
0.107234
0.00376618
0.135023
0.00122445
0.171321
-0.000507375
0.223111
0.278484
0.0157128
0.0105835
-0.0159849
0.0138976
0.0252373
0.0113659
0.0404816
0.00923645
0.0595831
0.00752864
0.0830907
0.00575797
0.109004
0.00356601
0.137215
0.00116671
0.17372
-0.000454253
0.224732
0.27803
0.0141945
0.0102759
-0.0138868
0.0131085
0.0263232
0.0111004
0.0424897
0.00911098
0.0615725
0.00737092
0.0848307
0.00556668
0.110809
0.00339665
0.139385
0.00107191
0.176045
-0.00046197
0.226266
0.277568
0.0125025
0.00948757
-0.0117142
0.0120301
0.0267956
0.0105229
0.0439969
0.00876486
0.0633305
0.00711928
0.0864763
0.00538448
0.112544
0.00329968
0.141469
0.00108921
0.178255
-0.00037478
0.22773
0.277193
0.0107492
0.00827182
-0.00953342
0.0108537
0.0266911
0.00986702
0.0449836
0.00838544
0.0648121
0.00684372
0.088018
0.00517057
0.114217
0.0031596
0.14348
0.00101999
0.180395
-0.000376311
0.229126
0.276817
0.00896058
0.00665045
-0.00733921
0.00954826
0.0261034
0.00902735
0.0455045
0.0078939
0.0659456
0.00655019
0.0893617
0.00500191
0.115765
0.00309494
0.145387
0.00107758
0.182412
-0.000263346
0.230467
0.276554
0.00751454
0.00445327
-0.00531736
0.00862359
0.0249943
0.00851639
0.0456117
0.00759745
0.0668645
0.00632856
0.0906306
0.00482982
0.117264
0.00297944
0.147238
0.00101744
0.184374
-0.000271696
0.231756
0.276282
0.00531906
-0.00299391
0.00711589
0.00774412
0.00731137
0.00627065
0.00482709
0.00305188
0.0011267
-0.000117971
0.00407781
-0.0200096
-0.00391935
0.00366406
-0.0192079
0.00297816
-0.0173019
0.00222107
-0.0152278
0.00144315
-0.0131089
0.000664493
-0.0109355
-0.00010762
-0.0087613
-0.000847459
-0.00659937
-0.00163055
-0.00453427
-0.0023482
0.00328149
-0.0198659
-0.00342526
0.00266731
-0.0185937
0.00188436
-0.0165189
0.00107278
-0.0144162
0.000259088
-0.0122952
-0.000539746
-0.0101367
-0.00132278
-0.00797827
-0.00206821
-0.00585394
-0.00281897
-0.00378351
-0.00177058
0.00237209
-0.0194654
-0.00277259
0.00158605
-0.0178077
0.000727152
-0.01566
-0.00012794
-0.0135611
-0.000959145
-0.011464
-0.00176397
-0.00933188
-0.00253589
-0.00720635
-0.00325876
-0.00513107
-0.00394037
-0.0031019
-0.0012785
0.00134831
-0.0188546
-0.00195911
0.000436991
-0.0168963
-0.000470744
-0.0147523
-0.00134841
-0.0126835
-0.00218613
-0.0106263
-0.00297728
-0.00854074
-0.00371772
-0.00646591
-0.00439258
-0.00445621
-0.00498562
-0.00250886
-0.000881816
0.000223998
-0.0180735
-0.00100512
-0.000766423
-0.0159059
-0.00169709
-0.0138216
-0.00257706
-0.0118035
-0.0033978
-0.00980556
-0.0041556
-0.00778293
-0.00484531
-0.0057762
-0.00545174
-0.00384977
-0.00594532
-0.00201528
-0.00058107
-0.000968871
-0.0171686
6.40177e-05
-0.001999
-0.0148758
-0.00292696
-0.0128937
-0.00378595
-0.0109445
-0.0045702
-0.0090213
-0.00527679
-0.00707634
-0.00589985
-0.00515314
-0.0064239
-0.00332573
-0.00681529
-0.00162389
-0.000370735
-0.0021911
-0.0161512
0.00117366
-0.00322588
-0.013841
-0.00412882
-0.0119907
-0.0049478
-0.0101255
-0.00567939
-0.00828971
-0.00632094
-0.0064348
-0.00686674
-0.00460734
-0.00730179
-0.00289068
-0.00759515
-0.00133052
-0.000241091
-0.00339965
-0.0150705
0.00231903
-0.00441185
-0.0128288
-0.00527288
-0.0111297
-0.00603712
-0.00936128
-0.00670463
-0.0076222
-0.00727251
-0.00586692
-0.00773645
-0.0041434
-0.00808291
-0.00254422
-0.00828767
-0.00112576
-0.000179832
-0.00455533
-0.0139615
0.00344626
-0.00552541
-0.0118587
-0.00633299
-0.0103221
-0.00703278
-0.00866149
-0.00763013
-0.00702486
-0.0081213
-0.00537575
-0.00850462
-0.00376008
-0.00876881
-0.00228003
-0.00889797
-0.000996605
-0.000173372
-0.00562558
-0.012854
0.00451805
-0.00654073
-0.0109436
-0.00728871
-0.00957414
-0.00791945
-0.00803075
-0.0084458
-0.0064985
-0.00886251
-0.00495904
-0.00917156
-0.00345103
-0.00936421
-0.00208739
-0.00943282
-0.000927991
-0.000207743
-0.00658577
-0.0117715
0.00550329
-0.00743874
-0.0100906
-0.00812607
-0.00888681
-0.00868789
-0.00746893
-0.00914719
-0.0060392
-0.00949626
-0.00460998
-0.0097413
-0.00320599
-0.00987605
-0.00195263
-0.00989998
-0.000904058
-0.000269157
-0.00742326
-0.010731
0.00638277
-0.00820961
-0.00930427
-0.00883898
-0.00825744
-0.00933583
-0.00697209
-0.00973546
-0.00563957
-0.010027
-0.00431848
-0.0102207
-0.0030122
-0.0103127
-0.00186067
-0.0103077
-0.000909061
-0.00034429
-0.00812994
-0.00974325
0.00714221
-0.00884843
-0.00858578
-0.00942578
-0.00768009
-0.00986501
-0.00653286
-0.010215
-0.00528955
-0.0104615
-0.00407201
-0.0106183
-0.0028554
-0.0106831
-0.00179586
-0.0106643
-0.000927831
-0.000420409
-0.00870516
-0.00881245
0.00777435
-0.00935678
-0.00793415
-0.00988999
-0.00714688
-0.0102815
-0.00614137
-0.0105935
-0.00497757
-0.0108088
-0.00385671
-0.0109433
-0.00272082
-0.0109964
-0.0017428
-0.0109782
-0.000946059
-0.000485383
-0.00915316
-0.00793541
0.00827613
-0.00974079
-0.00734652
-0.0102384
-0.00664929
-0.0105939
-0.00578585
-0.0108799
-0.00469152
-0.0110785
-0.00365818
-0.0112054
-0.00259387
-0.0112615
-0.00168671
-0.0112572
-0.000950349
-0.000527619
-0.00948112
-0.00710082
0.00864653
-0.0100101
-0.00681753
-0.0104798
-0.00617962
-0.0108123
-0.00545329
-0.0110844
-0.00441942
-0.0112805
-0.00346214
-0.0114138
-0.00246052
-0.0114869
-0.00161362
-0.0115091
-0.000928127
-0.000535959
-0.00969662
-0.0062889
0.0088847
-0.0101765
-0.00633762
-0.0106239
-0.00573225
-0.0109472
-0.00512998
-0.0112169
-0.00414977
-0.0114242
-0.00325482
-0.0115772
-0.00230747
-0.0116805
-0.00151037
-0.0117411
-0.000867467
-0.00049955
-0.00980116
-0.00547776
0.00899002
-0.0102491
-0.00588969
-0.0106785
-0.00530286
-0.0110071
-0.00480139
-0.0112858
-0.00387104
-0.0115177
-0.0030229
-0.0117033
-0.00212187
-0.0118493
-0.00136436
-0.01196
-0.000756812
-0.000407693
-0.00979146
-0.00465557
0.00896927
-0.0102364
-0.00544471
-0.0106519
-0.00488743
-0.0110001
-0.0044532
-0.0112994
-0.00357171
-0.0115686
-0.00275366
-0.0117991
-0.00189144
-0.012
-0.00116346
-0.012172
-0.000584808
-0.000249643
-0.00970546
-0.0038101
0.00885999
-0.0101742
-0.00497596
-0.0105673
-0.0044943
-0.0109374
-0.00408313
-0.0112664
-0.00324277
-0.0115826
-0.00243743
-0.0118701
-0.00160393
-0.0121379
-0.000895619
-0.0123837
-0.000339007
-1.49687e-05
-0.0440972
-0.00379525
0.0440823
-0.0450199
-0.00405327
-0.0460691
-0.00344508
-0.0471211
-0.00303108
-0.0480082
-0.00235573
-0.0486961
-0.00174946
-0.0491656
-0.00113443
-0.0494296
-0.000631625
-0.0495299
-0.00023873
-1.77473e-05
-0.0526638
-0.00396454
0.0528331
-0.0532204
-0.00349666
-0.0537851
-0.00288034
-0.0544252
-0.00239099
-0.0549633
-0.00181764
-0.0553829
-0.00132987
-0.0556634
-0.000853987
-0.0558115
-0.000483438
-0.0558615
-0.000188814
-2.12299e-05
-0.0633477
-0.00419406
0.0635772
-0.0635763
-0.00326802
-0.0638306
-0.00262611
-0.0641919
-0.00202963
-0.0644822
-0.00152732
-0.0647318
-0.00108033
-0.0648852
-0.000700594
-0.0649683
-0.000400275
-0.0649876
-0.000169493
-2.3328e-05
-0.0763834
-0.00433108
0.0765204
-0.0765026
-0.00314883
-0.0766189
-0.00250979
-0.0768369
-0.00181161
-0.0769934
-0.00137079
-0.0771508
-0.000922981
-0.0772349
-0.000616471
-0.0772898
-0.000345366
-0.0772971
-0.000162179
-2.16502e-05
-0.0915895
-0.00424659
0.091505
-0.0917567
-0.00298168
-0.0918854
-0.00238111
-0.0920677
-0.00162927
-0.0921882
-0.0012503
-0.0923172
-0.000794024
-0.0923832
-0.000550421
-0.0924406
-0.000288019
-0.0924557
-0.000147004
-1.16633e-05
-0.107935
-0.00386814
0.107557
-0.108244
-0.00267318
-0.108485
-0.00213932
-0.108703
-0.00141121
-0.108858
-0.00109565
-0.108996
-0.000655784
-0.10908
-0.000466694
-0.109155
-0.00021264
-0.109189
-0.000113269
4.45571e-06
-0.123686
-0.00318844
0.123006
-0.124172
-0.00218713
-0.124561
-0.00174962
-0.124845
-0.00112768
-0.125061
-0.000879177
-0.12522
-0.000497718
-0.125331
-0.000354782
-0.125415
-0.000128705
-0.125462
-6.69743e-05
1.94277e-05
-0.136957
-0.00226235
0.136031
-0.137602
-0.00154296
-0.138119
-0.0012321
-0.138464
-0.000782886
-0.138733
-0.000609819
-0.138902
-0.000328861
-0.139027
-0.000229845
-0.139097
-5.90966e-05
-0.139137
-2.62234e-05
2.42692e-05
-0.146348
-0.001172
0.145258
-0.147097
-0.000793681
-0.147695
-0.000633839
-0.148079
-0.000398963
-0.148378
-0.000310914
-0.148545
-0.000161924
-0.148664
-0.000110842
-0.148705
-1.82174e-05
-0.148726
-5.69903e-06
1.65604e-05
-0.151165
0.149993
-0.151959
-0.152593
-0.152992
-0.153303
-0.153465
-0.153576
-0.153594
-0.153599
-0.0100552
0.0450849
0.00905262
-0.0108208
0.0535986
-0.0114326
0.064189
-0.0117537
0.0768415
-0.0115808
0.0913321
-0.0107017
0.106678
-0.0089981
0.121302
-0.00650872
0.133542
-0.00341892
0.142168
0.146574
-0.00956376
0.0458773
0.00877141
-0.0102736
0.0543085
-0.0108127
0.0647281
-0.0110516
0.0770805
-0.010814
0.0910945
-0.00992242
0.105786
-0.0082895
0.119669
-0.0059658
0.131218
-0.00312303
0.139325
0.143451
-0.00908012
0.0466121
0.00834528
-0.00972172
0.05495
-0.0101816
0.065188
-0.0103464
0.0772453
-0.0100624
0.0908105
-0.00918068
0.104904
-0.00763442
0.118123
-0.005476
0.12906
-0.00286079
0.13671
0.140591
-0.00850656
0.0473165
0.00780213
-0.00908414
0.0555276
-0.00946424
0.0655681
-0.00955921
0.0773403
-0.00923869
0.09049
-0.00838078
0.104046
-0.00693659
0.116679
-0.0049585
0.127082
-0.00258495
0.134336
0.138006
-0.00783084
0.0479822
0.00716512
-0.00834651
0.0560433
-0.00865453
0.0658761
-0.00869162
0.0773773
-0.00835011
0.0901485
-0.00753272
0.103229
-0.00620582
0.115352
-0.00442068
0.125297
-0.00229933
0.132215
0.135706
-0.00707058
0.0486007
0.00645214
-0.00751943
0.0564922
-0.00775937
0.066116
-0.00774907
0.077367
-0.00740155
0.089801
-0.00664135
0.102469
-0.00544688
0.114158
-0.00386665
0.123716
-0.00200634
0.130355
0.1337
-0.00624176
0.0491645
0.00567793
-0.00662084
0.0568712
-0.0067952
0.0662904
-0.00674562
0.0773174
-0.00640422
0.0894596
-0.00571503
0.10178
-0.00466569
0.113108
-0.00330032
0.122351
-0.00170802
0.128762
0.131992
-0.00535795
0.0496649
0.00485752
-0.00566736
0.0571806
-0.00577957
0.0664026
-0.00569807
0.0772359
-0.00537265
0.0891341
-0.00476508
0.101172
-0.00387015
0.112213
-0.00272659
0.121207
-0.00140672
0.127442
0.130585
-0.00443453
0.0500925
0.00400697
-0.00467598
0.0574221
-0.00472972
0.0664563
-0.004623
0.0771292
-0.00432151
0.0888327
-0.00380342
0.100654
-0.00306893
0.111479
-0.00215098
0.12029
-0.0011051
0.126397
0.12948
-0.0034883
0.0504376
0.00314322
-0.00366516
0.057599
-0.00366312
0.0664543
-0.00353679
0.0770029
-0.00326495
0.0885608
-0.00284151
0.10023
-0.00227049
0.110908
-0.00157905
0.119598
-0.000805921
0.125623
0.128674
-0.00254458
0.0506949
0.00228722
-0.00265762
0.057712
-0.00260139
0.0663981
-0.00245919
0.0768607
-0.00221982
0.0883214
-0.00189308
0.0999038
-0.00148506
0.1105
-0.00101767
0.119131
-0.000512535
0.125118
0.128162
-0.00162042
0.0508668
0.00144853
-0.00166593
0.0577575
-0.00156097
0.0662931
-0.00140367
0.0767034
-0.0011977
0.0881155
-0.000966212
0.0996723
-0.000718449
0.110252
-0.000470716
0.118883
-0.000227154
0.124875
0.127935
-0.000745057
0.0509677
0.000644166
-0.000713668
0.0577261
-0.000571014
0.0661504
-0.00039858
0.076531
-0.000228735
0.0879456
-9.07615e-05
0.0995343
-3.3588e-06
0.110165
4.50684e-05
0.118835
4.12125e-05
0.124879
0.127976
4.25688e-05
0.0510465
-0.000121391
0.000179225
0.0575895
0.000363449
0.0659662
0.000561875
0.0763325
0.000709144
0.0877984
0.000766969
0.0994765
0.000715307
0.110216
0.000553346
0.118997
0.000305209
0.125127
0.128281
0.000852967
0.0510235
-0.00082992
0.001034
0.0574084
0.00125874
0.0657415
0.00146969
0.0761216
0.00158973
0.0876783
0.00156729
0.0994989
0.00137742
0.110406
0.00102629
0.119348
0.000550829
0.125602
0.128832
0.00156685
0.0509455
-0.00148886
0.00181094
0.0571643
0.00207228
0.0654801
0.00229969
0.0758942
0.00239848
0.0875795
0.00230532
0.0995921
0.00198985
0.110722
0.0014637
0.119874
0.000777464
0.126288
0.129609
0.00220641
0.0508347
-0.00209558
0.00250956
0.0568612
0.00280346
0.0651862
0.00304758
0.0756501
0.00313071
0.0874964
0.00297695
0.0997458
0.00254928
0.111149
0.00186356
0.12056
0.000983982
0.127168
0.130593
0.00277721
0.0507158
-0.00265838
0.00312852
0.0565099
0.00344924
0.0648655
0.00370706
0.0753922
0.00377749
0.087426
0.0035718
0.0999515
0.00304557
0.111676
0.00221805
0.121387
0.00116598
0.12822
0.131759
0.00328653
0.050618
-0.0031887
0.00366996
0.0561265
0.00401677
0.0645187
0.00428934
0.0751197
0.00435352
0.0873618
0.00410583
0.100199
0.00349291
0.112289
0.00253724
0.122343
0.00132858
0.129429
0.133088
0.00367983
0.0506098
-0.00367162
0.00405915
0.0557472
0.00443062
0.0641472
0.00471094
0.0748394
0.00476961
0.0873031
0.00449287
0.100476
0.00381855
0.112963
0.00276942
0.123392
0.00144435
0.130754
0.134532
-0.0321505
0.0469499
0.0358104
-0.0293644
0.0529611
-0.0274757
0.0622584
-0.0254272
0.0727909
-0.0229022
0.0847781
-0.0196473
0.097221
-0.015586
0.108902
-0.0108159
0.118622
-0.00553657
0.125474
0.128996
-0.0397296
0.0436647
0.0430148
-0.0370658
0.0502973
-0.0345971
0.0597897
-0.0317484
0.0699422
-0.0283703
0.0814001
-0.0241564
0.093007
-0.0190533
0.103799
-0.0131759
0.112744
-0.00675108
0.11905
0.122245
-0.0481519
0.0405263
0.0512903
-0.0453869
0.0475323
-0.0423077
0.0567105
-0.0386371
0.0662716
-0.0342498
0.0770128
-0.0288726
0.0876298
-0.0225662
0.0974922
-0.0154816
0.10566
-0.00784885
0.111417
0.114396
-0.0582007
0.0375163
0.0612106
-0.0549624
0.044294
-0.0511089
0.0528571
-0.046507
0.0616697
-0.040971
0.0714768
-0.0342822
0.080941
-0.0266156
0.0898256
-0.0181721
0.0972161
-0.00923613
0.102481
0.10516
-0.0694257
0.0339635
0.0729786
-0.0653806
0.0402488
-0.0605002
0.0479766
-0.0546285
0.0557981
-0.0475855
0.0644337
-0.0392982
0.0726537
-0.0300836
0.080611
-0.0201983
0.0873308
-0.0100148
0.0922975
0.0951447
-0.0821494
0.0303991
0.0857138
-0.0770616
0.0351611
-0.0710032
0.0419182
-0.0637158
0.0485107
-0.0551106
0.0558285
-0.0452665
0.0628096
-0.0344729
0.0698173
-0.0230432
0.0759012
-0.0116164
0.0808706
0.0835284
-0.0943236
0.0250344
0.0996883
-0.0880862
0.0289237
-0.0806206
0.0344526
-0.0714629
0.0393529
-0.0609062
0.0452719
-0.0490038
0.0509072
-0.03613
0.0569435
-0.0227813
0.0625524
-0.0100678
0.0681571
0.0734606
-0.107061
0.0198388
0.112257
-0.0998289
0.0216917
-0.0911686
0.0257923
-0.080836
0.0290203
-0.0692055
0.0336414
-0.0561541
0.0378558
-0.0421533
0.0429427
-0.0276435
0.0480426
-0.0146157
0.0551293
0.058845
-0.121853
0.00968314
0.132009
-0.111152
0.0109907
-0.0986244
0.0132646
-0.0846401
0.015036
-0.0687206
0.017722
-0.0511468
0.0202819
-0.031879
0.023675
-0.011867
0.0280306
0.00636963
0.0368927
0.0652146
-0.231108
0.240791
-0.220117
-0.206853
-0.191817
-0.174095
-0.153813
-0.130138
-0.102107
-0.0652146
0.00214084
0.0370457
-0.00337612
0.00101051
0.0441451
7.68942e-05
0.0522239
-0.000513549
0.0618011
-0.000868866
0.0733339
-0.00101161
0.0858566
-0.000804945
0.0994816
-0.000602134
0.112054
-0.00153887
0.132945
0.239252
0.00243823
0.0382236
-0.00361612
0.00133492
0.0452485
0.000456724
0.0531021
-0.000207757
0.0624656
-0.000592467
0.0737186
-0.000767687
0.0860318
-0.000625926
0.0993398
-0.000487565
0.111915
-0.00134782
0.133806
0.237904
0.00279381
0.0392968
-0.00386709
0.00173376
0.0463085
0.000877361
0.0539585
0.000208515
0.0631344
-0.000201946
0.0741291
-0.000418388
0.0862482
-0.000325002
0.0992465
-0.00029922
0.11189
-0.00115203
0.134658
0.236752
0.00315155
0.0402644
-0.00411909
0.00214348
0.0473166
0.00131872
0.0547833
0.000672767
0.0637804
0.00024474
0.0745571
-3.84773e-05
0.0865314
4.43354e-05
0.0991636
-7.25089e-05
0.112006
-0.000901833
0.135488
0.235851
0.00350282
0.0411209
-0.00435932
0.0025645
0.0482549
0.00178101
0.0555668
0.00116161
0.0643998
0.000739695
0.074979
0.000461141
0.08681
0.000429767
0.099195
0.00025759
0.112179
-0.000606691
0.136352
0.235244
0.00385764
0.0418422
-0.00457891
0.00300959
0.0491029
0.00227614
0.0563002
0.00168969
0.0649862
0.00127456
0.0753941
0.000985126
0.0870994
0.000874088
0.0993061
0.000628826
0.112424
-0.000272751
0.137254
0.234971
0.00421587
0.0423987
-0.00477245
0.00347689
0.0498419
0.00280337
0.0569738
0.00225621
0.0655334
0.00185098
0.0757994
0.00154745
0.087403
0.00136224
0.0994913
0.00103344
0.112753
9.17201e-05
0.138195
0.235063
0.00457305
0.0427612
-0.00493549
0.00395833
0.0504566
0.00335482
0.0575773
0.00285342
0.0660348
0.00246278
0.07619
0.00214548
0.0877202
0.0018885
0.0997483
0.00147236
0.113169
0.000461321
0.139206
0.235524
0.00492052
0.0429038
-0.00506312
0.00444436
0.0509328
0.00392101
0.0581006
0.00347185
0.0664839
0.00310183
0.07656
0.00277139
0.0880507
0.00244613
0.100074
0.00194146
0.113674
0.000864188
0.140284
0.236388
0.00524764
0.0428063
-0.00515016
0.00492414
0.0512563
0.00449173
0.058533
0.00410123
0.0668744
0.00375848
0.0769028
0.00341611
0.088393
0.00302693
0.100463
0.0024345
0.114266
0.00128693
0.141431
0.237675
0.00553931
0.0424567
-0.00518967
0.00538226
0.0514133
0.00505291
0.0588624
0.00472673
0.0672006
0.00441728
0.0772122
0.00406696
0.0887434
0.00361944
0.10091
0.00294233
0.114943
0.00172107
0.142653
0.239396
0.00578933
0.0418528
-0.00518545
0.0058127
0.05139
0.00559694
0.0590781
0.0053414
0.0674561
0.0050711
0.0774825
0.00471844
0.089096
0.00421853
0.10141
0.00346087
0.115701
0.00216369
0.14395
0.24156
0.00598339
0.041006
-0.0051366
0.00619907
0.0511743
0.00610594
0.0591713
0.00592796
0.0676341
0.0057032
0.0777073
0.00535589
0.0894433
0.00481149
0.101955
0.00398005
0.116532
0.00260768
0.145322
0.244168
0.00611298
0.0399418
-0.00504878
0.00652838
0.0507589
0.00656587
0.0591338
0.00647239
0.0677276
0.00629996
0.0778797
0.00596702
0.0897763
0.00538781
0.102534
0.00449164
0.117428
0.00304689
0.146767
0.247215
0.00617335
0.0387001
-0.00493167
0.0067898
0.0501424
0.0069639
0.0589597
0.00696134
0.0677301
0.00684839
0.0779927
0.00653968
0.090085
0.00593717
0.103136
0.00498753
0.118378
0.00347513
0.148279
0.25069
0.00616547
0.0373329
-0.00479826
0.00697543
0.0493325
0.00728925
0.0586458
0.00738276
0.0676366
0.00733655
0.0780389
0.00706212
0.0903594
0.0064494
0.103749
0.00545996
0.119367
0.00388485
0.149854
0.254575
0.00609764
0.0358967
-0.00466145
0.00708137
0.0483488
0.00753386
0.0581934
0.00772672
0.0674438
0.00775408
0.0780115
0.00752433
0.0905892
0.00691621
0.104357
0.00590287
0.120381
0.00427075
0.151486
0.258845
0.0059807
0.03444
-0.004524
0.00710692
0.0472225
0.00769312
0.0576072
0.00798559
0.0671513
0.00809016
0.077907
0.00791411
0.0907652
0.00732531
0.104946
0.00630679
0.121399
0.00462137
0.153172
0.263467
0.00580203
0.0329866
-0.00434866
0.00704058
0.045984
0.00776337
0.0568844
0.00815974
0.0667549
0.00834794
0.0777188
0.00823709
0.0908761
0.00768252
0.1055
0.00667714
0.122405
0.00494014
0.154909
0.268407
0.0055496
0.0314494
-0.00401238
0.00684801
0.0446856
0.00769704
0.0560353
0.00818907
0.0662629
0.00846332
0.0774445
0.00842507
0.0909143
0.00793098
0.105995
0.00695666
0.123379
0.00522647
0.156639
0.273633
-0.0132081
0.0319639
0.0126936
-0.0120528
0.0435303
-0.00997783
0.0539604
-0.00738034
0.0636654
-0.00458601
0.0746502
-0.00157588
0.0879042
0.00145031
0.102968
0.00359428
0.121235
0.00236601
0.157867
0.275999
-0.0249699
0.0312758
0.0256581
-0.022953
0.0415133
-0.0197065
0.0507139
-0.0158176
0.0597765
-0.0115976
0.0704302
-0.00698584
0.0832924
-0.0022937
0.0982762
0.0011635
0.117778
0.00118344
0.157847
0.277183
-0.0379881
0.0296801
0.0395838
-0.034853
0.0383782
-0.0302715
0.0461324
-0.0250413
0.0545463
-0.0193489
0.0647378
-0.0130472
0.0769907
-0.00657812
0.0918072
-0.00145903
0.112659
0.000151945
0.156236
0.277335
-0.0521226
0.0271478
0.0546549
-0.0475977
0.0338533
-0.0418169
0.0403516
-0.035359
0.0480884
-0.0281082
0.057487
-0.0199742
0.0688567
-0.0115953
0.0834283
-0.00458834
0.105652
-0.00136219
0.15301
0.275973
-0.0674319
0.0232492
0.0713306
-0.0616435
0.0280649
-0.05502
0.0337281
-0.0473251
0.0403935
-0.0384379
0.0485999
-0.0284714
0.0588901
-0.0181799
0.0731369
-0.00919657
0.0966684
-0.00362166
0.147435
0.272351
-0.0844136
0.0186894
0.0889734
-0.0778032
0.0214545
-0.0703574
0.0262823
-0.0613437
0.0313798
-0.0509855
0.0382417
-0.0393588
0.0472634
-0.0274006
0.0611787
-0.0163742
0.085642
-0.00781996
0.138881
0.264531
-0.104625
0.0126582
0.110656
-0.097568
0.0143977
-0.0895135
0.0182278
-0.079816
0.0216822
-0.0689047
0.0273304
-0.056544
0.0349026
-0.0435004
0.0481352
-0.0302718
0.0724133
-0.0169178
0.125527
0.247613
-0.135551
0.00628876
0.141921
-0.128102
0.00694861
-0.119435
0.00956048
-0.109415
0.0116625
-0.098104
0.0160192
-0.0854294
0.0222281
-0.0715478
0.0342536
-0.0560814
0.0569469
-0.0353863
0.104832
0.212227
-0.195118
0.00117614
0.200231
-0.189782
0.00161269
-0.182972
0.00275003
-0.175406
0.00409726
-0.166121
0.00673367
-0.154939
0.0110458
-0.139879
0.019194
-0.117188
0.0342556
-0.0766704
0.0643148
0.135556
-0.27956
0.280736
-0.277947
-0.275197
-0.2711
-0.264366
-0.253321
-0.234127
-0.199871
-0.135556
0.0018292
0.0133802
-0.00251581
0.000520631
0.0269666
-0.000905549
0.04101
-0.00221582
0.0559652
-0.00328108
0.0723958
-0.0041936
0.0898859
-0.00492403
0.111386
-0.00552668
0.142523
-0.00487257
0.199577
0.275864
0.00155334
0.0137707
-0.00194381
0.000512051
0.0280079
-0.00076875
0.0422908
-0.00201345
0.0572099
-0.00305997
0.0734423
-0.00396043
0.0907864
-0.00467451
0.112101
-0.0053115
0.14316
-0.00435763
0.198623
0.271506
0.00135686
0.0139506
-0.00153674
0.000573132
0.0287916
-0.000534191
0.0433981
-0.00166701
0.0583427
-0.00265716
0.0744325
-0.00352654
0.0916558
-0.00425292
0.112827
-0.00484554
0.143753
-0.00398556
0.197763
0.267521
0.00124189
0.0139528
-0.00124413
0.000700668
0.0293329
-0.00023057
0.0443293
-0.00123914
0.0593513
-0.00215716
0.0753505
-0.00299858
0.0924972
-0.00372914
0.113557
-0.00430818
0.144332
-0.00356804
0.197023
0.263952
0.00119875
0.0137884
-0.00103435
0.00090117
0.0296304
0.000161544
0.0450689
-0.000729718
0.0602425
-0.00157495
0.0761957
-0.00238691
0.0933091
-0.00312313
0.114294
-0.0037058
0.144915
-0.00310944
0.196426
0.260843
0.00122178
0.0134605
-0.000893923
0.00117525
0.029677
0.000648884
0.0455953
-0.000140503
0.0610319
-0.000901809
0.076957
-0.00168933
0.0940967
-0.00243423
0.115039
-0.00303944
0.14552
-0.00261543
0.196002
0.258228
0.00130548
0.0129726
-0.000817514
0.00151636
0.0294661
0.00120741
0.0459043
0.000576731
0.0616626
-0.000137642
0.0776714
-0.000911529
0.0948705
-0.00166133
0.115788
-0.00231412
0.146173
-0.00209151
0.19578
0.256136
0.00144282
0.0123338
-0.000804071
0.00191457
0.0289944
0.0018315
0.0459873
0.00135686
0.0621372
0.000706676
0.0783216
-8.3958e-05
0.0956612
-0.000806294
0.116511
-0.00154144
0.146908
-0.00154232
0.19578
0.254594
0.00162619
0.0115635
-0.000855849
0.0023565
0.028264
0.00250865
0.0458352
0.0021922
0.0624537
0.00161831
0.0788955
0.000885508
0.096394
0.000129932
0.117266
-0.000738239
0.147776
-0.000970167
0.196012
0.253624
0.0018488
-0.000977896
0.00282591
0.00322398
0.00307262
0.00257992
0.00186941
0.00103875
6.85065e-05
-0.000374096
0.000137226
-0.00117283
0.000397297
-0.00269131
0.00072917
-0.00370767
0.00110491
-0.00435962
0.00150963
-0.00474304
0.0019365
-0.00492794
0.00238401
-0.00496683
0.00285516
-0.00489919
0.00335935
-0.00475522
-0.00456051
0.000137333
-0.00131017
0.000388134
-0.00294211
0.000698909
-0.00401844
0.00104137
-0.00470208
0.00140138
-0.00510304
0.00177329
-0.00529985
0.00215676
-0.00535029
0.00255512
-0.00529755
0.00297488
-0.00517498
-0.00501089
0.000130772
-0.00144094
0.000358731
-0.00317007
0.000630436
-0.00429015
0.000918957
-0.0049906
0.00121221
-0.00539629
0.00150684
-0.00559449
0.00180474
-0.00564818
0.0021108
-0.00560362
0.00243144
-0.00549562
-0.00535204
0.000117018
-0.00155796
0.000308349
-0.0033614
0.000523568
-0.00450536
0.000738958
-0.00520599
0.000945658
-0.00560299
0.00114333
-0.00579217
0.00133639
-0.00584124
0.00153158
-0.00579881
0.0017366
-0.00570063
-0.00557454
9.59162e-05
-0.00165387
0.000237402
-0.00350289
0.000380344
-0.00464831
0.000506126
-0.00533177
0.000610122
-0.00570699
0.00069539
-0.00587744
0.000768876
-0.00591473
0.000838793
-0.00586872
0.000912432
-0.00577427
-0.00566723
6.77112e-05
-0.00172158
0.000147459
-0.00358264
0.000204887
-0.00470573
0.000228244
-0.00535513
0.0002179
-0.00569665
0.000180413
-0.00583995
0.000125031
-0.00585935
6.22521e-05
-0.00580594
2.55325e-06
-0.00571457
-0.00560066
3.31005e-05
-0.00175468
4.11503e-05
-0.00359069
3.07968e-06
-0.00466766
-8.4595e-05
-0.00526746
-0.000216076
-0.00556516
-0.00038146
-0.00567457
-0.000569718
-0.00567109
-0.000770779
-0.00560488
-0.000977161
-0.00550819
-0.00540417
-7.38304e-06
-0.0017473
-7.79524e-05
-0.00352012
-0.000217864
-0.00452775
-0.000420807
-0.00506451
-0.000675453
-0.00531052
-0.000969007
-0.00538101
-0.00128936
-0.00535074
-0.00162635