/*--------------------------------*- C++ -*----------------------------------*\
  =========                 |
  \\      /  F ield         | OpenFOAM: The Open Source CFD Toolbox
   \\    /   O peration     | Website:  https://openfoam.org
    \\  /    A nd           | Version:  7
     \\/     M anipulation  |
\*---------------------------------------------------------------------------*/
FoamFile
{
    version     2.0;
    format      ascii;
    class       volScalarField;
    location    "0.5";
    object      p;
}
// * * * * * * * * * * * * * * * * * * * * * * * * * * * * * * * * * * * * * //

dimensions      [0 2 -2 0 0 0 0];

internalField   nonuniform List<scalar> 
400
(
2.53023e-06
-0.00590191
-0.0130522
-0.0184971
-0.0205195
-0.0183273
-0.0118571
-0.00155513
0.0117822
0.0271131
0.0432285
0.0588266
0.0725992
0.0833415
0.0900922
0.0923055
0.0900613
0.0842887
0.0768963
0.0710236
0.00582648
-0.000245232
-0.00577916
-0.00949191
-0.01054
-0.00837294
-0.00291743
0.00551167
0.0163195
0.0287036
0.0417154
0.0543261
0.0655044
0.0743115
0.0800136
0.0822098
0.0809809
0.0769859
0.0712554
0.0652393
0.0133933
0.00496085
-0.00101265
-0.0044292
-0.00528193
-0.00327385
0.00159127
0.00901403
0.0184851
0.0293282
0.04074
0.0518399
0.0617348
0.0695997
0.074769
0.0768392
0.0758006
0.072057
0.0658314
0.0574343
0.0202039
0.00859157
0.00120076
-0.00268074
-0.00374003
-0.00190455
0.00271177
0.00976427
0.018759
0.0290724
0.0399679
0.0506285
0.0602058
0.0678876
0.0729742
0.0749713
0.0737305
0.0694348
0.0616616
0.0499963
0.0245904
0.0096444
0.000568285
-0.00399046
-0.00531269
-0.00351945
0.00116179
0.00831963
0.0174444
0.0279283
0.0390608
0.0500422
0.0600176
0.0681309
0.0735907
0.0757602
0.0743248
0.0692652
0.0596116
0.0444076
0.0252954
0.0069966
-0.0038209
-0.00905382
-0.0105177
-0.00850773
-0.00336577
0.00441789
0.0142984
0.0256602
0.0377907
0.0498756
0.0610157
0.0702666
0.0766956
0.0794746
0.0780872
0.0723064
0.0606548
0.0417301
0.0212435
-0.000440201
-0.0129493
-0.0186977
-0.0200296
-0.0174168
-0.0113229
-0.00232736
0.00897881
0.0219601
0.0358885
0.0499177
0.0630796
0.0743071
0.0824797
0.0865219
0.0856597
0.0794156
0.0657674
0.0428755
0.0113311
-0.0138196
-0.0278826
-0.0338312
-0.034595
-0.0308533
-0.0232111
-0.0123474
0.0010979
0.0164717
0.0330344
0.0499088
0.066051
0.0802499
0.0911543
0.097375
0.0977962
0.0915962
0.0760764
0.0488745
-0.00573133
-0.0344908
-0.0498659
-0.0555102
-0.0550707
-0.0495015
-0.039584
-0.0261087
-0.00975808
0.00881599
0.0288872
0.0495717
0.0697663
0.0881132
0.102996
0.112637
0.115458
0.110138
0.093049
0.0611079
-0.0315588
-0.0641225
-0.0803952
-0.0849487
-0.0823871
-0.0740547
-0.0609625
-0.0440243
-0.0239455
-0.00133747
0.0231376
0.0486439
0.0740673
0.0979307
0.118341
0.13305
0.139872
0.136741
0.11869
0.081544
-0.0682827
-0.104869
-0.121297
-0.123506
-0.117467
-0.105092
-0.0876906
-0.0663052
-0.0416235
-0.0141488
0.0156048
0.0469429
0.0788327
0.109754
0.137566
0.159497
0.17258
0.173667
0.1558
0.113056
-0.118895
-0.159637
-0.174832
-0.172643
-0.161083
-0.142883
-0.119723
-0.0927497
-0.062557
-0.0294333
0.0063809
0.0444722
0.0840406
0.12367
0.161079
0.192987
0.215486
0.223917
0.208348
0.159935
-0.187947
-0.232523
-0.24381
-0.233802
-0.213616
-0.187102
-0.156332
-0.12247
-0.0858725
-0.046451
-0.00399759
0.0415487
0.0898401
0.139808
0.189269
0.234586
0.270858
0.291443
0.282028
0.228815
-0.283066
-0.329542
-0.331644
-0.308112
-0.274628
-0.236389
-0.195727
-0.15358
-0.109814
-0.0637195
-0.0144123
0.0388869
0.0965705
0.158277
0.222346
0.285198
0.341162
0.381277
0.385108
0.330523
-0.418188
-0.459749
-0.442074
-0.395629
-0.342074
-0.28771
-0.234595
-0.182912
-0.13159
-0.0789591
-0.0231809
0.0375151
0.104596
0.178874
0.259878
0.344928
0.428403
0.499306
0.529616
0.483714
-0.619427
-0.636582
-0.578334
-0.494084
-0.411228
-0.335656
-0.267778
-0.20597
-0.147525
-0.0893582
-0.0283876
0.0384023
0.113874
0.200548
0.300046
0.412059
0.532932
0.651421
0.732441
0.720593
-0.9356
-0.878181
-0.741683
-0.598056
-0.47439
-0.372626
-0.288845
-0.21774
-0.153926
-0.0924299
-0.0286778
0.0417505
0.123333
0.220799
0.338999
0.482241
0.652263
0.841647
1.01495
1.09628
-1.4806
-1.20196
-0.921
-0.692547
-0.517677
-0.387702
-0.290194
-0.213425
-0.148162
-0.0872103
-0.0245291
0.0455578
0.1291
0.233296
0.36736
0.54312
0.772628
1.06029
1.39818
1.73407
-2.57157
-1.60192
-1.04347
-0.714829
-0.497799
-0.353387
-0.255529
-0.184283
-0.126596
-0.0737844
-0.0192106
0.0430637
0.119761
0.21965
0.356003
0.54982
0.829811
1.23507
1.8811
2.95926
-4.44511
-2.01727
-0.969797
-0.564339
-0.357045
-0.239034
-0.169356
-0.123297
-0.0871848
-0.0533699
-0.0166782
0.0275125
0.084297
0.161192
0.271576
0.441361
0.718802
1.2215
2.38402
4.92939
)
;

boundaryField
{
    movingWall
    {
        type            zeroGradient;
    }
    fixedWalls
    {
        type            zeroGradient;
    }
    frontAndBack
    {
        type            empty;
    }
}


// ************************************************************************* //
