/*--------------------------------*- C++ -*----------------------------------*\
  =========                 |
  \\      /  F ield         | OpenFOAM: The Open Source CFD Toolbox
   \\    /   O peration     | Website:  https://openfoam.org
    \\  /    A nd           | Version:  7
     \\/     M anipulation  |
\*---------------------------------------------------------------------------*/
FoamFile
{
    version     2.0;
    format      ascii;
    class       volVectorField;
    location    "0.5";
    object      U;
}
// * * * * * * * * * * * * * * * * * * * * * * * * * * * * * * * * * * * * * //

dimensions      [0 1 -1 0 0 0 0];

internalField   nonuniform List<vector> 
400
(
(0.000259696 -0.000254449 0)
(0.000149321 0.0001041 0)
(-0.00117533 0.000551027 0)
(-0.00348072 0.000868016 0)
(-0.00637593 0.00102701 0)
(-0.00946734 0.00104293 0)
(-0.0124006 0.00094071 0)
(-0.0148823 0.000746661 0)
(-0.0166867 0.000485545 0)
(-0.0176553 0.000180996 0)
(-0.0176991 -0.00014295 0)
(-0.0168021 -0.000460357 0)
(-0.0150272 -0.000742458 0)
(-0.0125224 -0.000957645 0)
(-0.00952403 -0.00107264 0)
(-0.00635335 -0.00105545 0)
(-0.00340021 -0.00088127 0)
(-0.00108409 -0.000543162 0)
(0.000204154 -8.43003e-05 0)
(0.000273132 0.000265715 0)
(-6.72411e-05 -0.000174788 0)
(-0.00160163 0.00163835 0)
(-0.00569469 0.00360247 0)
(-0.0117197 0.00501569 0)
(-0.0188889 0.00572232 0)
(-0.0263933 0.00573929 0)
(-0.0334578 0.00515267 0)
(-0.0394122 0.00407723 0)
(-0.0437269 0.0026375 0)
(-0.0460286 0.000962874 0)
(-0.0461105 -0.000810791 0)
(-0.0439433 -0.00253833 0)
(-0.0396853 -0.00406434 0)
(-0.03369 -0.00522662 0)
(-0.0265047 -0.00586576 0)
(-0.0188505 -0.00584381 0)
(-0.0115673 -0.00507544 0)
(-0.00551503 -0.00357478 0)
(-0.00148435 -0.00155405 0)
(-3.35514e-05 0.000232533 0)
(-0.000511955 0.00108968 0)
(-0.0036936 0.00573925 0)
(-0.0105875 0.0102227 0)
(-0.0199887 0.0134033 0)
(-0.0307572 0.0149413 0)
(-0.0418106 0.0148339 0)
(-0.0521044 0.0132513 0)
(-0.0607254 0.0104526 0)
(-0.066948 0.00673941 0)
(-0.0702596 0.00243755 0)
(-0.0703771 -0.00210644 0)
(-0.0672615 -0.00652385 0)
(-0.0611315 -0.0104261 0)
(-0.0524707 -0.0134166 0)
(-0.0420233 -0.015118 0)
(-0.0307647 -0.0152197 0)
(-0.0198251 -0.0135506 0)
(-0.0103618 -0.0101766 0)
(-0.00353124 -0.00555414 0)
(-0.000460775 -0.000946529 0)
(-0.00090586 0.00347762 0)
(-0.00566734 0.0122236 0)
(-0.0152986 0.0199186 0)
(-0.0279107 0.0251904 0)
(-0.0419738 0.0275881 0)
(-0.0561633 0.0271285 0)
(-0.0692324 0.0241007 0)
(-0.0801026 0.0189471 0)
(-0.0879224 0.0121907 0)
(-0.0920913 0.00440257 0)
(-0.0922751 -0.00380785 0)
(-0.0884223 -0.0117936 0)
(-0.0807788 -0.0188764 0)
(-0.0698997 -0.0243681 0)
(-0.0566499 -0.0276176 0)
(-0.0421803 -0.0280912 0)
(-0.0278486 -0.0254885 0)
(-0.0150895 -0.0198874 0)
(-0.00548086 -0.0119304 0)
(-0.000839472 -0.00322255 0)
(-0.00125031 0.00687346 0)
(-0.00750536 0.0209538 0)
(-0.0198006 0.0325031 0)
(-0.0355262 0.0400904 0)
(-0.0527278 0.0432754 0)
(-0.0698381 0.0421779 0)
(-0.0854387 0.037264 0)
(-0.0983322 0.0292019 0)
(-0.107588 0.0187692 0)
(-0.112555 0.0068095 0)
(-0.112863 -0.00578035 0)
(-0.10844 -0.0180501 0)
(-0.0995292 -0.0290022 0)
(-0.0867091 -0.0376194 0)
(-0.0709099 -0.0429287 0)
(-0.05341 -0.0441113 0)
(-0.0357728 -0.0406629 0)
(-0.0197293 -0.0325831 0)
(-0.007339 -0.0205901 0)
(-0.00117469 -0.00649341 0)
(-0.00157194 0.0112093 0)
(-0.00927987 0.0318712 0)
(-0.0242037 0.0479397 0)
(-0.042991 0.0580535 0)
(-0.0632367 0.0619164 0)
(-0.0831269 0.0598608 0)
(-0.101093 0.0526099 0)
(-0.115857 0.0411107 0)
(-0.12645 0.0264261 0)
(-0.132197 0.00968682 0)
(-0.132707 -0.00791689 0)
(-0.12788 -0.0251267 0)
(-0.117925 -0.0406133 0)
(-0.103395 -0.0530018 0)
(-0.0852347 -0.060944 0)
(-0.0648079 -0.0632553 0)
(-0.0438687 -0.0591186 0)
(-0.0244691 -0.0483283 0)
(-0.00921362 -0.0315527 0)
(-0.00150068 -0.0107211 0)
(-0.00189683 0.0164683 0)
(-0.0110746 0.0449661 0)
(-0.0286426 0.0662147 0)
(-0.0504644 0.0790337 0)
(-0.0736589 0.0834187 0)
(-0.0961713 0.0800477 0)
(-0.116314 0.0700008 0)
(-0.132773 0.0545655 0)
(-0.144586 0.0351175 0)
(-0.151093 0.0130764 0)
(-0.151899 -0.0100882 0)
(-0.146864 -0.0328268 0)
(-0.13613 -0.0534859 0)
(-0.120174 -0.0703151 0)
(-0.0998885 -0.0815366 0)
(-0.0766647 -0.0854995 0)
(-0.0524168 -0.0809307 0)
(-0.0295323 -0.067252 0)
(-0.0112318 -0.0449285 0)
(-0.0018535 -0.0159406 0)
(-0.00224826 0.0226828 0)
(-0.0129686 0.0602867 0)
(-0.0332401 0.0873366 0)
(-0.0580595 0.102962 0)
(-0.0840422 0.10763 0)
(-0.108914 0.102528 0)
(-0.130923 0.0892152 0)
(-0.148786 0.0693871 0)
(-0.161614 0.044754 0)
(-0.168813 0.0170089 0)
(-0.170006 -0.0121369 0)
(-0.165012 -0.0408879 0)
(-0.15387 -0.0672993 0)
(-0.136911 -0.0892477 0)
(-0.114888 -0.104477 0)
(-0.0891284 -0.110754 0)
(-0.0616389 -0.106168 0)
(-0.0351303 -0.0895427 0)
(-0.0135203 -0.0609299 0)
(-0.00226832 -0.0222613 0)
(-0.00264992 0.02993 0)
(-0.0150398 0.0779345 0)
(-0.0381001 0.111319 0)
(-0.0658225 0.129705 0)
(-0.0942875 0.134273 0)
(-0.121053 0.126934 0)
(-0.144394 0.109868 0)
(-0.16316 0.0852541 0)
(-0.176631 0.0551461 0)
(-0.184347 0.021473 0)
(-0.185995 -0.0138806 0)
(-0.181357 -0.048953 0)
(-0.170327 -0.0815784 0)
(-0.153013 -0.109296 0)
(-0.129905 -0.12934 0)
(-0.102126 -0.138776 0)
(-0.0716473 -0.134828 0)
(-0.0414413 -0.115418 0)
(-0.0162049 -0.079864 0)
(-0.00278252 -0.0298657 0)
(-0.00313392 0.0383357 0)
(-0.0173837 0.0980571 0)
(-0.0433212 0.13814 0)
(-0.0737242 0.158991 0)
(-0.104114 0.162849 0)
(-0.131981 0.152628 0)
(-0.155772 0.131304 0)
(-0.174624 0.10161 0)
(-0.188112 0.0659339 0)
(-0.196009 0.0263726 0)
(-0.198124 -0.0151219 0)
(-0.194217 -0.056545 0)
(-0.184011 -0.0956294 0)
(-0.167292 -0.129661 0)
(-0.144139 -0.155379 0)
(-0.115267 -0.169036 0)
(-0.0823916 -0.166729 0)
(-0.0486006 -0.145054 0)
(-0.0194233 -0.102112 0)
(-0.00344363 -0.0390123 0)
(-0.00375549 0.0480953 0)
(-0.0201458 0.120848 0)
(-0.0490201 0.167689 0)
(-0.0816465 0.190301 0)
(-0.113 0.1925 0)
(-0.140691 0.178567 0)
(-0.163568 0.152474 0)
(-0.181257 0.117562 0)
(-0.193795 0.0765099 0)
(-0.201308 0.0314748 0)
(-0.2038 -0.0156722 0)
(-0.201048 -0.0630554 0)
(-0.19258 -0.108484 0)
(-0.17778 -0.149147 0)
(-0.156141 -0.181371 0)
(-0.127696 -0.200538 0)
(-0.0935772 -0.201336 0)
(-0.0566857 -0.178482 0)
(-0.0233465 -0.128103 0)
(-0.00432354 -0.0500539 0)
(-0.00461945 0.0595254 0)
(-0.0235733 0.146555 0)
(-0.0553491 0.199678 0)
(-0.0893287 0.222717 0)
(-0.120063 0.221832 0)
(-0.14562 0.203142 0)
(-0.165581 0.171804 0)
(-0.180326 0.131782 0)
(-0.190539 0.0859456 0)
(-0.196822 0.0363551 0)
(-0.199458 -0.0153885 0)
(-0.198285 -0.0677551 0)
(-0.192658 -0.118868 0)
(-0.181503 -0.166063 0)
(-0.163562 -0.205449 0)
(-0.137876 -0.231592 0)
(-0.104518 -0.237525 0)
(-0.0656745 -0.215409 0)
(-0.0282125 -0.158269 0)
(-0.00554432 -0.0634811 0)
(-0.0059283 0.0731688 0)
(-0.0280847 0.175477 0)
(-0.0624691 0.233475 0)
(-0.0962033 0.254667 0)
(-0.123796 0.248674 0)
(-0.144347 0.223987 0)
(-0.15863 0.187079 0)
(-0.168076 0.142439 0)
(-0.174176 0.0929478 0)
(-0.178096 0.0403575 0)
(-0.180461 -0.0142206 0)
(-0.181236 -0.0698415 0)
(-0.179655 -0.125224 0)
(-0.174216 -0.178179 0)
(-0.162823 -0.224947 0)
(-0.143229 -0.259526 0)
(-0.113857 -0.273223 0)
(-0.0753282 -0.254924 0)
(-0.0343633 -0.192952 0)
(-0.00732391 -0.0800102 0)
(-0.00806292 0.0899804 0)
(-0.0343388 0.207901 0)
(-0.0703752 0.267765 0)
(-0.10097 0.283526 0)
(-0.12152 0.269764 0)
(-0.133069 0.237814 0)
(-0.13814 0.195388 0)
(-0.139452 0.14722 0)
(-0.139366 0.0958939 0)
(-0.139598 0.0425996 0)
(-0.141113 -0.0122581 0)
(-0.144054 -0.0685354 0)
(-0.147659 -0.12582 0)
(-0.150145 -0.182785 0)
(-0.148676 -0.236317 0)
(-0.139578 -0.2804 0)
(-0.119028 -0.304921 0)
(-0.0848836 -0.294991 0)
(-0.0422483 -0.232191 0)
(-0.0100465 -0.10073 0)
(-0.0116762 0.111597 0)
(-0.0431729 0.243799 0)
(-0.0782859 0.299889 0)
(-0.100588 0.305016 0)
(-0.108318 0.280428 0)
(-0.105719 0.240372 0)
(-0.0975347 0.193279 0)
(-0.0877892 0.143546 0)
(-0.079529 0.0930279 0)
(-0.0748198 0.0420784 0)
(-0.0748402 -0.00975464 0)
(-0.0799269 -0.0632448 0)
(-0.0894935 -0.119027 0)
(-0.101809 -0.176988 0)
(-0.11369 -0.235297 0)
(-0.120288 -0.288855 0)
(-0.115241 -0.327103 0)
(-0.0922694 -0.331605 0)
(-0.0522116 -0.275168 0)
(-0.0143124 -0.127271 0)
(-0.0176161 0.140747 0)
(-0.0548915 0.281885 0)
(-0.0828516 0.324525 0)
(-0.0880784 0.31241 0)
(-0.0751185 0.274445 0)
(-0.0526216 0.226777 0)
(-0.0275027 0.177301 0)
(-0.00456876 0.129144 0)
(0.0130365 0.0829126 0)
(0.0233711 0.0379353 0)
(0.025325 -0.00709715 0)
(0.0184309 -0.0537934 0)
(0.00290259 -0.103794 0)
(-0.0200722 -0.158361 0)
(-0.0477571 -0.217527 0)
(-0.0750496 -0.27835 0)
(-0.0936147 -0.331711 0)
(-0.0922009 -0.357447 0)
(-0.0634694 -0.318953 0)
(-0.0207144 -0.162055 0)
(-0.0260056 0.182265 0)
(-0.0664801 0.317045 0)
(-0.0735113 0.330976 0)
(-0.0481257 0.295358 0)
(-0.0056581 0.244245 0)
(0.0411297 0.192422 0)
(0.0845632 0.145086 0)
(0.120443 0.103001 0)
(0.146605 0.0651515 0)
(0.161946 0.0298887 0)
(0.165835 -0.00469079 0)
(0.157822 -0.0406631 0)
(0.137611 -0.0802936 0)
(0.105311 -0.125969 0)
(0.0621174 -0.179766 0)
(0.0116396 -0.242027 0)
(-0.0379997 -0.30778 0)
(-0.0719961 -0.359671 0)
(-0.0709815 -0.355769 0)
(-0.0285828 -0.209058 0)
(-0.0317428 0.241377 0)
(-0.0630316 0.333928 0)
(-0.0219623 0.299651 0)
(0.0505849 0.240051 0)
(0.127426 0.183002 0)
(0.19685 0.13544 0)
(0.254196 0.0974418 0)
(0.298116 0.0668821 0)
(0.328693 0.0413721 0)
(0.346336 0.0187808 0)
(0.35124 -0.00280699 0)
(0.343157 -0.02529 0)
(0.32131 -0.0508226 0)
(0.284468 -0.0820859 0)
(0.231368 -0.122471 0)
(0.161959 -0.175654 0)
(0.07984 -0.243233 0)
(-0.00333991 -0.318156 0)
(-0.0573585 -0.366745 0)
(-0.0309144 -0.270214 0)
(0.00230793 0.286369 0)
(0.0143153 0.294061 0)
(0.139843 0.210079 0)
(0.26489 0.143066 0)
(0.364215 0.0968724 0)
(0.440163 0.0655063 0)
(0.496577 0.0440281 0)
(0.536724 0.0287384 0)
(0.563305 0.017104 0)
(0.578167 0.00743556 0)
(0.582241 -0.00149967 0)
(0.575547 -0.0108075 0)
(0.557144 -0.0217573 0)
(0.524952 -0.0361779 0)
(0.475564 -0.0570192 0)
(0.404365 -0.0890486 0)
(0.305606 -0.139244 0)
(0.174284 -0.215451 0)
(0.035206 -0.310938 0)
(0.0120834 -0.304779 0)
(0.293148 0.148893 0)
(0.389648 0.127925 0)
(0.557568 0.0758012 0)
(0.674741 0.0433822 0)
(0.743792 0.0252388 0)
(0.787088 0.0149518 0)
(0.815465 0.00898707 0)
(0.833941 0.00534998 0)
(0.845368 0.00292528 0)
(0.851352 0.00109788 0)
(0.852644 -0.000502033 0)
(0.849358 -0.00217159 0)
(0.840977 -0.00424134 0)
(0.826117 -0.00726109 0)
(0.80203 -0.0122939 0)
(0.763557 -0.0214611 0)
(0.699431 -0.0389174 0)
(0.58444 -0.0723433 0)
(0.409338 -0.128341 0)
(0.302176 -0.152205 0)
)
;

boundaryField
{
    movingWall
    {
        type            fixedValue;
        value           uniform (1 0 0);
    }
    fixedWalls
    {
        type            noSlip;
    }
    frontAndBack
    {
        type            empty;
    }
}


// ************************************************************************* //
