/*--------------------------------*- C++ -*----------------------------------*\
  =========                 |
  \\      /  F ield         | OpenFOAM: The Open Source CFD Toolbox
   \\    /   O peration     | Website:  https://openfoam.org
    \\  /    A nd           | Version:  7
     \\/     M anipulation  |
\*---------------------------------------------------------------------------*/
FoamFile
{
    version     2.0;
    format      ascii;
    class       volScalarField;
    location    "7";
    object      p;
}
// * * * * * * * * * * * * * * * * * * * * * * * * * * * * * * * * * * * * * //

dimensions      [0 2 -2 0 0 0 0];

internalField   nonuniform List<scalar> 
18000
(
0.546404
0.547147
0.547567
0.547948
0.548248
0.5485
0.548765
0.54911
0.549585
0.550232
0.551084
0.552175
0.553538
0.555197
0.557157
0.559416
0.561965
0.564794
0.567887
0.571223
0.574776
0.578511
0.582394
0.586391
0.59047
0.594599
0.59875
0.602895
0.606995
0.610978
0.545886
0.546554
0.546932
0.547269
0.547528
0.54774
0.547967
0.548271
0.548702
0.5493
0.550099
0.551129
0.552419
0.553991
0.555854
0.558006
0.560441
0.563145
0.566105
0.569299
0.572701
0.576282
0.580006
0.583841
0.587757
0.591723
0.595712
0.599698
0.603636
0.607477
0.545382
0.545971
0.546302
0.546594
0.546815
0.546993
0.54719
0.547462
0.547856
0.548413
0.549167
0.550145
0.551371
0.552867
0.554641
0.556694
0.559019
0.561605
0.564435
0.56749
0.570744
0.574168
0.577731
0.581402
0.58515
0.588947
0.592768
0.596586
0.60035
0.604039
0.544874
0.545377
0.545667
0.545919
0.546108
0.546262
0.546436
0.546684
0.54705
0.547576
0.548294
0.549227
0.550399
0.551827
0.55352
0.55548
0.557703
0.560175
0.56288
0.565797
0.568903
0.572171
0.575572
0.579074
0.582651
0.586274
0.58992
0.59356
0.597139
0.600661
0.544381
0.544797
0.545045
0.545258
0.545419
0.545552
0.545709
0.54594
0.546288
0.546791
0.54748
0.548377
0.549502
0.550869
0.552489
0.554366
0.556492
0.558855
0.561437
0.564219
0.567179
0.570291
0.573528
0.57686
0.580261
0.583704
0.587166
0.59062
0.594004
0.597348
0.543894
0.544217
0.544426
0.544604
0.544742
0.54486
0.545006
0.545228
0.545566
0.546055
0.546724
0.547593
0.548677
0.549992
0.551549
0.55335
0.555387
0.557644
0.560107
0.562757
0.565572
0.568528
0.5716
0.57476
0.577981
0.581238
0.584509
0.587767
0.590948
0.594103
0.543416
0.543645
0.543815
0.543961
0.544078
0.544187
0.544329
0.544549
0.544886
0.54537
0.546026
0.546872
0.547924
0.549197
0.5507
0.552432
0.554384
0.55654
0.558887
0.561408
0.564081
0.566883
0.569789
0.572774
0.575812
0.578877
0.581949
0.585003
0.587974
0.590929
0.542944
0.543077
0.54321
0.543326
0.543426
0.543529
0.543674
0.543902
0.544245
0.544731
0.545381
0.546213
0.547241
0.54848
0.549937
0.551607
0.553479
0.55554
0.557776
0.56017
0.562703
0.565352
0.568094
0.570903
0.573754
0.576623
0.57949
0.582333
0.585085
0.58783
0.542473
0.542513
0.542608
0.542696
0.542783
0.542886
0.543041
0.543283
0.54364
0.544135
0.544787
0.545611
0.546625
0.547839
0.549257
0.55087
0.552668
0.554639
0.556769
0.559041
0.561438
0.563936
0.566514
0.569147
0.571808
0.574476
0.577134
0.57976
0.582287
0.584813
0.542001
0.541948
0.542007
0.542068
0.542146
0.542254
0.542425
0.542688
0.543066
0.543577
0.544238
0.545065
0.546072
0.547269
0.548653
0.550217
0.551948
0.553834
0.555862
0.558017
0.56028
0.562632
0.565048
0.567503
0.569975
0.57244
0.574885
0.577289
0.579587
0.581883
0.541524
0.541378
0.541402
0.54144
0.541512
0.54163
0.541823
0.542114
0.542518
0.543052
0.54373
0.544568
0.545577
0.546762
0.548121
0.549641
0.551312
0.55312
0.555051
0.557093
0.559228
0.561435
0.563692
0.565972
0.568253
0.570516
0.572745
0.574925
0.576989
0.579048
0.541035
0.5408
0.540791
0.540808
0.540878
0.541012
0.541232
0.541555
0.541993
0.542556
0.543259
0.544114
0.545131
0.546313
0.547652
0.549137
0.550754
0.552489
0.55433
0.556264
0.558276
0.560343
0.562443
0.564551
0.566644
0.568704
0.570717
0.572671
0.574501
0.576316
0.540531
0.540209
0.540169
0.540168
0.54024
0.540394
0.540646
0.541007
0.541483
0.542082
0.542816
0.543695
0.544729
0.545914
0.547241
0.548696
0.550265
0.551933
0.55369
0.555523
0.557417
0.559349
0.561297
0.563236
0.565144
0.567004
0.568803
0.570531
0.572129
0.573695
0.540004
0.539599
0.53953
0.539515
0.539594
0.539772
0.540061
0.540464
0.540984
0.541624
0.542394
0.543305
0.544361
0.545556
0.546877
0.548309
0.549835
0.551444
0.553124
0.554862
0.556644
0.558447
0.560248
0.562022
0.56375
0.565414
0.567003
0.568508
0.569878
0.571193
0.539451
0.538964
0.538871
0.538845
0.538935
0.539141
0.53947
0.53992
0.540487
0.541173
0.541986
0.542934
0.544019
0.54523
0.546551
0.547965
0.549455
0.551011
0.55262
0.554271
0.555948
0.557628
0.559287
0.560903
0.562456
0.56393
0.565314
0.566603
0.567752
0.568816
0.538864
0.538301
0.538186
0.538153
0.538257
0.538495
0.538867
0.539367
0.539986
0.540722
0.541583
0.542574
0.543693
0.544924
0.54625
0.547652
0.549114
0.550622
0.552168
0.553739
0.555318
0.55688
0.558404
0.559868
0.561254
0.562547
0.563734
0.564814
0.565752
0.56657
0.538239
0.537604
0.53747
0.537433
0.537555
0.537828
0.538246
0.538799
0.539473
0.540264
0.541177
0.542216
0.543372
0.544629
0.545965
0.54736
0.548798
0.550267
0.551757
0.553254
0.55474
0.556192
0.557587
0.558906
0.560134
0.561253
0.562254
0.563137
0.563876
0.564455
0.537571
0.536868
0.536718
0.536682
0.536825
0.537134
0.537601
0.538208
0.53894
0.539789
0.54076
0.54185
0.543048
0.544333
0.545683
0.547076
0.548496
0.549931
0.551371
0.5528
0.554199
0.555546
0.556819
0.558002
0.55908
0.560038
0.560864
0.561562
0.562117
0.562469
0.536855
0.536088
0.535926
0.535894
0.53606
0.536408
0.536924
0.537588
0.53838
0.539291
0.540322
0.541467
0.542709
0.544026
0.545392
0.546787
0.548194
0.549601
0.550996
0.552362
0.553679
0.554927
0.556085
0.557139
0.558076
0.558884
0.559548
0.560076
0.560464
0.560604
0.536084
0.535259
0.535089
0.535065
0.535257
0.535645
0.536211
0.536932
0.537786
0.538762
0.539856
0.541058
0.542346
0.543695
0.545081
0.546481
0.547878
0.549261
0.550615
0.551922
0.553162
0.554315
0.555363
0.556297
0.557104
0.557772
0.558288
0.558661
0.558901
0.558848
0.535252
0.534376
0.534201
0.534189
0.53441
0.534839
0.535455
0.536233
0.537151
0.538194
0.539353
0.540612
0.541946
0.543329
0.544735
0.546142
0.547534
0.548895
0.550211
0.551462
0.552628
0.553689
0.554634
0.555453
0.556138
0.556677
0.557058
0.557292
0.557404
0.557184
0.534356
0.533433
0.533257
0.533261
0.533513
0.533984
0.534651
0.535487
0.536469
0.53758
0.538803
0.540119
0.541499
0.542916
0.544343
0.545759
0.547145
0.548486
0.549765
0.550961
0.552054
0.553028
0.553873
0.554583
0.555152
0.555571
0.55583
0.555941
0.555947
0.555587
0.533388
0.532426
0.532254
0.532277
0.532561
0.533075
0.533793
0.534688
0.535733
0.536911
0.538198
0.539569
0.540994
0.542444
0.543891
0.545315
0.546695
0.548016
0.549257
0.550398
0.55142
0.552308
0.553055
0.553658
0.554116
0.554424
0.554571
0.554576
0.554497
0.554029
0.532345
0.531352
0.531185
0.53123
0.53155
0.532108
0.532877
0.533829
0.534938
0.53618
0.537529
0.538953
0.540421
0.541901
0.543367
0.544797
0.54617
0.547467
0.548669
0.549753
0.550702
0.551502
0.552152
0.55265
0.552999
0.553198
0.553243
0.553155
0.553013
0.552476
0.531223
0.530205
0.530049
0.530118
0.530474
0.531076
0.531896
0.532905
0.534077
0.535382
0.536789
0.538262
0.539768
0.541276
0.542758
0.544191
0.545552
0.546823
0.547981
0.549005
0.549877
0.550588
0.551136
0.551526
0.551764
0.551856
0.551802
0.551632
0.551447
0.550882
0.530017
0.528983
0.52884
0.528937
0.52933
0.529977
0.530847
0.531913
0.533144
0.534509
0.535969
0.537487
0.539027
0.540558
0.542052
0.543483
0.544828
0.546067
0.547176
0.548134
0.548924
0.549538
0.549979
0.550254
0.550375
0.550352
0.550197
0.54995
0.549738
0.549194
0.528722
0.527681
0.527556
0.527683
0.528115
0.528807
0.529727
0.530847
0.532135
0.533555
0.535064
0.536621
0.538189
0.539738
0.541237
0.542659
0.543982
0.545182
0.546235
0.54712
0.547819
0.548328
0.548652
0.548801
0.54879
0.548639
0.548369
0.548035
0.547802
0.547332
0.527337
0.526299
0.526195
0.526355
0.526827
0.527563
0.528531
0.529703
0.531045
0.532515
0.534066
0.535655
0.537245
0.538804
0.540301
0.541708
0.543
0.544153
0.545141
0.545942
0.546542
0.546934
0.547127
0.547132
0.546968
0.546661
0.546245
0.545797
0.545533
0.545207
0.525857
0.524832
0.524754
0.524951
0.525464
0.526243
0.527258
0.528479
0.529869
0.531382
0.532968
0.534582
0.536187
0.537747
0.539233
0.540615
0.541867
0.542962
0.543875
0.544583
0.54507
0.545333
0.545378
0.545216
0.544867
0.544359
0.543737
0.543111
0.542793
0.542746
0.524282
0.523283
0.523235
0.523471
0.524025
0.524846
0.525905
0.527171
0.528604
0.530152
0.531765
0.533395
0.535004
0.536557
0.538022
0.539368
0.540568
0.541595
0.542421
0.543023
0.543387
0.543506
0.543385
0.54303
0.542451
0.541665
0.540705
0.539681
0.538914
0.53869
0.624173
0.641515
0.653971
0.663459
0.669866
0.674731
0.678177
0.680723
0.68252
0.683779
0.684578
0.68497
0.685018
0.68478
0.684277
0.683526
0.682574
0.681438
0.680122
0.678633
0.676971
0.675147
0.673185
0.671097
0.668901
0.666621
0.664301
0.661986
0.659945
0.658285
0.620565
0.637576
0.650099
0.659681
0.666223
0.671205
0.67475
0.67741
0.679316
0.680653
0.68151
0.681985
0.682107
0.681926
0.681465
0.680767
0.679855
0.678756
0.677474
0.676016
0.674383
0.672585
0.670642
0.668568
0.666387
0.664114
0.661803
0.659493
0.657443
0.655784
0.616963
0.633613
0.646182
0.655859
0.662542
0.667652
0.671309
0.674091
0.676108
0.677529
0.678448
0.679003
0.679197
0.679073
0.678657
0.678012
0.677143
0.676081
0.674836
0.673409
0.671807
0.670038
0.668116
0.666061
0.663896
0.661634
0.659334
0.657032
0.654974
0.653315
0.61335
0.629624
0.642231
0.651998
0.658816
0.664072
0.667861
0.670767
0.672888
0.674403
0.675402
0.676026
0.676285
0.676219
0.675858
0.675263
0.674439
0.673416
0.672206
0.670813
0.669241
0.667502
0.665605
0.663575
0.66143
0.659186
0.656896
0.654601
0.652539
0.650876
0.609729
0.625612
0.638237
0.648092
0.655049
0.660466
0.664402
0.667437
0.669665
0.671279
0.672367
0.673055
0.673375
0.673367
0.673067
0.672519
0.671742
0.670759
0.669585
0.668226
0.666687
0.664978
0.663112
0.66111
0.658987
0.656766
0.654488
0.6522
0.650138
0.648468
0.606108
0.621581
0.63419
0.644139
0.651245
0.656837
0.66093
0.664103
0.666445
0.668159
0.669335
0.670089
0.670473
0.670522
0.67028
0.669782
0.669049
0.66811
0.666974
0.665651
0.664147
0.66247
0.660635
0.658664
0.656567
0.654371
0.652109
0.64983
0.647769
0.646091
0.602487
0.617532
0.630086
0.640138
0.647403
0.653183
0.657446
0.660767
0.663228
0.665043
0.666308
0.66713
0.667579
0.667686
0.667499
0.667053
0.666365
0.665469
0.664373
0.663086
0.661619
0.659977
0.658176
0.656238
0.654171
0.652002
0.649759
0.647491
0.645433
0.643747
0.598864
0.613468
0.625926
0.636086
0.643519
0.649502
0.65395
0.657428
0.660016
0.661934
0.663289
0.66418
0.664693
0.664858
0.664726
0.664331
0.66369
0.662837
0.661783
0.660534
0.659103
0.657501
0.655735
0.653832
0.651796
0.649658
0.647437
0.645182
0.643128
0.641434
0.595242
0.609392
0.62171
0.63198
0.63959
0.645794
0.650442
0.654087
0.65681
0.658833
0.660278
0.661239
0.661817
0.66204
0.661961
0.66162
0.661024
0.660215
0.659203
0.657994
0.656602
0.655039
0.653313
0.651448
0.649445
0.647339
0.645144
0.642904
0.640855
0.639154
0.591623
0.605309
0.617438
0.627819
0.635615
0.642058
0.64692
0.650744
0.653608
0.655741
0.657276
0.658309
0.658952
0.659233
0.659208
0.658918
0.65837
0.657604
0.656633
0.655467
0.654115
0.652593
0.650908
0.649083
0.647117
0.645045
0.642879
0.640658
0.638614
0.636906
0.588013
0.601225
0.613112
0.6236
0.631591
0.63829
0.643384
0.647401
0.650414
0.65266
0.654286
0.655392
0.656099
0.656438
0.656466
0.656227
0.655726
0.655005
0.654076
0.652952
0.651642
0.650163
0.648521
0.646738
0.644812
0.642775
0.640643
0.638443
0.636405
0.63469
0.58442
0.597145
0.608736
0.619324
0.627515
0.634488
0.639834
0.644056
0.647227
0.649591
0.65131
0.652489
0.653259
0.653655
0.653736
0.653548
0.653094
0.652416
0.65153
0.650448
0.649184
0.647748
0.646151
0.644412
0.642529
0.640531
0.638434
0.636258
0.63423
0.632508
0.580855
0.593079
0.604315
0.614988
0.623386
0.630651
0.636269
0.640711
0.644048
0.646536
0.648347
0.6496
0.650433
0.650886
0.65102
0.65088
0.650473
0.649839
0.648996
0.647957
0.64674
0.645348
0.643798
0.642105
0.640267
0.638312
0.636254
0.634106
0.632089
0.630361
0.577327
0.589037
0.599859
0.610596
0.619203
0.626776
0.632687
0.637364
0.640879
0.643494
0.6454
0.646727
0.647622
0.648132
0.648317
0.648225
0.647864
0.647273
0.646474
0.64548
0.644309
0.642963
0.641462
0.639818
0.638028
0.636117
0.634102
0.631986
0.629983
0.628249
0.573849
0.58503
0.595376
0.606148
0.614966
0.622861
0.629088
0.634016
0.63772
0.640467
0.64247
0.643871
0.644828
0.645395
0.64563
0.645583
0.645267
0.644719
0.643965
0.643015
0.641893
0.640593
0.639142
0.637549
0.63581
0.633947
0.631978
0.629898
0.627913
0.626174
0.570435
0.581072
0.590882
0.601651
0.610676
0.618906
0.62547
0.630667
0.634571
0.637454
0.639557
0.641033
0.642051
0.642674
0.642958
0.642954
0.642683
0.642178
0.641469
0.640562
0.63949
0.638238
0.636838
0.635297
0.633612
0.6318
0.629882
0.627843
0.62588
0.624137
0.5671
0.577179
0.586391
0.597112
0.606336
0.614912
0.621833
0.627317
0.631431
0.634458
0.636661
0.638213
0.639292
0.639969
0.640301
0.640338
0.640111
0.639649
0.638985
0.638123
0.637099
0.635897
0.634548
0.633062
0.631432
0.629675
0.627811
0.62582
0.623886
0.62214
0.563857
0.573367
0.581924
0.592541
0.60195
0.61088
0.618177
0.623966
0.628303
0.631478
0.633786
0.635413
0.636553
0.637281
0.637659
0.637738
0.637553
0.637133
0.636513
0.635695
0.63472
0.633569
0.632271
0.63084
0.62927
0.62757
0.625767
0.62383
0.621931
0.620186
0.560723
0.569656
0.577499
0.587953
0.597526
0.606815
0.614504
0.620614
0.625186
0.628517
0.630931
0.632635
0.633833
0.634611
0.635033
0.635152
0.635008
0.634629
0.634053
0.63328
0.632352
0.631253
0.630007
0.628632
0.627123
0.625486
0.623748
0.621872
0.620018
0.618278
0.55771
0.566064
0.573142
0.583364
0.593075
0.602719
0.610814
0.617263
0.622082
0.625576
0.628097
0.62988
0.631134
0.631959
0.632423
0.632582
0.632477
0.632138
0.631605
0.630877
0.629995
0.628948
0.627754
0.626435
0.62499
0.62342
0.621754
0.619949
0.618148
0.616419
0.554834
0.56261
0.568877
0.578793
0.58861
0.598598
0.607111
0.613911
0.618989
0.622654
0.625287
0.627147
0.628456
0.629326
0.629831
0.630027
0.629961
0.62966
0.629168
0.628485
0.627648
0.626652
0.625511
0.62425
0.62287
0.621371
0.619783
0.618058
0.616324
0.614613
0.552106
0.559311
0.564729
0.574261
0.584146
0.594462
0.603396
0.610559
0.615908
0.619752
0.622498
0.624437
0.625799
0.626712
0.627256
0.627488
0.627457
0.627195
0.626742
0.626104
0.625311
0.624365
0.623276
0.622074
0.620762
0.619338
0.617834
0.616201
0.614548
0.612867
0.54954
0.556182
0.560725
0.569793
0.5797
0.59032
0.599674
0.607209
0.612839
0.616869
0.619733
0.62175
0.623165
0.624119
0.624699
0.624964
0.624968
0.624743
0.624329
0.623733
0.622983
0.622086
0.62105
0.619906
0.618663
0.617319
0.615905
0.614376
0.612822
0.611185
0.547149
0.553238
0.556888
0.565415
0.575293
0.586185
0.59595
0.603863
0.609783
0.614006
0.61699
0.619088
0.620555
0.621547
0.622162
0.622457
0.622494
0.622304
0.621926
0.62137
0.620662
0.619813
0.61883
0.617745
0.616572
0.615311
0.613994
0.612583
0.611148
0.609576
0.544949
0.550487
0.553239
0.561155
0.570947
0.582073
0.592232
0.600525
0.60674
0.611163
0.614272
0.616451
0.617968
0.618997
0.619643
0.619967
0.620034
0.619878
0.619534
0.619017
0.618348
0.617546
0.616615
0.615589
0.614487
0.613311
0.612098
0.610817
0.609527
0.608049
0.542957
0.547937
0.549797
0.557038
0.566686
0.577998
0.588531
0.5972
0.603714
0.608343
0.61158
0.613841
0.615407
0.616469
0.617144
0.617494
0.61759
0.617465
0.617153
0.616671
0.616042
0.615284
0.614404
0.613438
0.612406
0.611317
0.610213
0.609076
0.607959
0.606617
0.541197
0.545591
0.546576
0.553091
0.562538
0.573983
0.58486
0.593896
0.600708
0.605548
0.608917
0.611257
0.612871
0.613964
0.614665
0.615039
0.615162
0.615064
0.614781
0.614334
0.613741
0.613026
0.612195
0.611288
0.610325
0.609325
0.608334
0.607354
0.606445
0.605297
0.539694
0.543449
0.543597
0.549342
0.558527
0.570032
0.581206
0.590589
0.597698
0.602756
0.606262
0.608685
0.610348
0.611472
0.612197
0.612594
0.61274
0.612668
0.612413
0.611998
0.61144
0.610766
0.609984
0.609134
0.60824
0.607328
0.606452
0.605642
0.604976
0.604108
0.538451
0.541462
0.540832
0.545769
0.554603
0.566064
0.577468
0.587181
0.594597
0.599892
0.603556
0.606075
0.607795
0.608957
0.609709
0.610132
0.610304
0.610258
0.610032
0.609648
0.609127
0.608494
0.607761
0.606967
0.606141
0.605316
0.604559
0.603927
0.603543
0.603078
0.537796
0.539525
0.538117
0.542224
0.550668
0.562072
0.57371
0.583766
0.591503
0.597048
0.600875
0.603492
0.60527
0.606466
0.607242
0.607688
0.60788
0.607858
0.607657
0.607301
0.606812
0.606217
0.60553
0.604788
0.604024
0.603281
0.602636
0.602184
0.602113
0.602223
0.538338
0.533757
0.529211
0.53109
0.539024
0.551066
0.563936
0.575211
0.583888
0.590032
0.594155
0.596859
0.598616
0.599756
0.600473
0.600883
0.601053
0.601028
0.600839
0.600513
0.600074
0.599547
0.598954
0.59833
0.597716
0.597173
0.59681
0.596832
0.59768
0.599946
0.516738
0.514737
0.512327
0.515803
0.524675
0.536871
0.549605
0.560767
0.569449
0.575692
0.579972
0.582845
0.584764
0.586048
0.586896
0.587431
0.587725
0.587826
0.58777
0.587584
0.587293
0.586924
0.586502
0.586065
0.585664
0.585375
0.585336
0.585814
0.587375
0.590629
0.493773
0.496089
0.497582
0.503342
0.512791
0.524385
0.536205
0.54665
0.554951
0.561093
0.565441
0.568456
0.570538
0.571983
0.572983
0.573663
0.574097
0.57434
0.574426
0.574386
0.574245
0.57403
0.573771
0.573505
0.573287
0.573196
0.573372
0.574082
0.57589
0.579391
0.473248
0.479312
0.484135
0.491334
0.500779
0.511571
0.522425
0.532134
0.54005
0.546096
0.550523
0.553694
0.555952
0.557571
0.558738
0.559578
0.56017
0.560566
0.560804
0.560915
0.560926
0.560864
0.560758
0.560646
0.560581
0.560641
0.560958
0.561776
0.563619
0.56712
0.454571
0.463159
0.470218
0.478293
0.487686
0.497887
0.507963
0.517032
0.524598
0.530568
0.5351
0.538464
0.540943
0.54278
0.544156
0.545191
0.545967
0.546539
0.546944
0.547215
0.547379
0.547463
0.547499
0.54752
0.547578
0.547746
0.548144
0.548997
0.550769
0.554138
0.436648
0.446679
0.455149
0.463904
0.473358
0.483163
0.492639
0.501189
0.508471
0.514398
0.519062
0.522653
0.525397
0.527501
0.529129
0.530399
0.531392
0.532164
0.532754
0.533195
0.533517
0.533746
0.533912
0.53405
0.534205
0.534447
0.534885
0.535725
0.537381
0.540567
0.418959
0.429779
0.439144
0.448402
0.4579
0.467398
0.47643
0.484606
0.491696
0.497624
0.502438
0.506274
0.509306
0.511705
0.513615
0.515149
0.516385
0.517378
0.518171
0.518795
0.519281
0.519656
0.519946
0.520188
0.520424
0.520719
0.521171
0.521971
0.523492
0.526472
0.401287
0.41254
0.422437
0.43199
0.441469
0.450731
0.459459
0.467393
0.474372
0.480334
0.485306
0.489386
0.492706
0.495406
0.497612
0.499424
0.500918
0.502148
0.503156
0.503975
0.504633
0.505156
0.505573
0.505915
0.506226
0.506563
0.507017
0.507765
0.509143
0.511908
0.383492
0.394964
0.405136
0.414829
0.424265
0.433358
0.441885
0.449665
0.456587
0.462603
0.467731
0.472041
0.475636
0.478629
0.481128
0.483221
0.484978
0.486452
0.487684
0.488705
0.489541
0.490218
0.490764
0.491209
0.491594
0.491973
0.492428
0.493122
0.494353
0.496875
0.365481
0.377031
0.38732
0.397069
0.406459
0.415432
0.423821
0.431501
0.438397
0.444477
0.449751
0.454273
0.458124
0.461394
0.464175
0.466542
0.468559
0.470277
0.471733
0.472957
0.473975
0.474812
0.475493
0.476047
0.476511
0.476935
0.477395
0.47804
0.479133
0.481412
0.347199
0.358742
0.369057
0.378816
0.38816
0.397039
0.40533
0.412945
0.419836
0.425983
0.431394
0.436109
0.440192
0.443719
0.446762
0.44939
0.451658
0.453613
0.455288
0.456713
0.457913
0.45891
0.459729
0.460397
0.460947
0.461427
0.4619
0.462501
0.46346
0.465478
0.328615
0.340097
0.350388
0.360126
0.369423
0.378229
0.386448
0.394023
0.400924
0.407139
0.412675
0.417564
0.421857
0.425616
0.428902
0.431772
0.434277
0.436455
0.438341
0.439961
0.441339
0.442496
0.443453
0.444236
0.444875
0.445412
0.445909
0.446485
0.447341
0.449119
0.309708
0.321095
0.331332
0.341031
0.350283
0.359032
0.367201
0.374752
0.381672
0.387953
0.393603
0.398646
0.403127
0.407094
0.4106
0.413694
0.416416
0.418803
0.420886
0.422689
0.424236
0.425547
0.42664
0.427542
0.428275
0.428879
0.429403
0.429953
0.430706
0.432245
0.29046
0.301731
0.311899
0.321553
0.330764
0.339469
0.347602
0.355141
0.362084
0.368429
0.37418
0.379361
0.384007
0.388159
0.391861
0.395153
0.398073
0.400653
0.402918
0.404893
0.406598
0.408051
0.409271
0.41028
0.411102
0.411772
0.412338
0.412891
0.413584
0.414908
0.27086
0.282
0.292098
0.301707
0.310882
0.319552
0.327659
0.335194
0.342162
0.348564
0.354405
0.359705
0.364494
0.368807
0.37268
0.376148
0.379243
0.381994
0.384423
0.386552
0.388402
0.38999
0.391334
0.392452
0.39336
0.394088
0.394676
0.39521
0.395833
0.396952
0.250905
0.261902
0.271939
0.281509
0.290651
0.299292
0.307379
0.314912
0.321904
0.328355
0.334272
0.339673
0.344582
0.34903
0.353048
0.356667
0.359915
0.362816
0.365391
0.367657
0.369632
0.371332
0.372777
0.373986
0.374977
0.375777
0.376415
0.376961
0.377543
0.378472
0.230604
0.241449
0.251439
0.260976
0.270085
0.278697
0.286766
0.294297
0.301307
0.307798
0.313776
0.319256
0.324261
0.328819
0.332956
0.336698
0.340071
0.343096
0.345793
0.348181
0.350273
0.352083
0.353624
0.354907
0.35595
0.356777
0.357422
0.357947
0.358477
0.359213
0.209989
0.220663
0.230621
0.240128
0.249199
0.257777
0.265824
0.273349
0.280369
0.286886
0.292907
0.298444
0.30352
0.308158
0.312382
0.31622
0.319692
0.322817
0.32561
0.328086
0.330259
0.332147
0.333765
0.335128
0.336243
0.337125
0.337796
0.338311
0.338793
0.339353
0.18913
0.199602
0.20953
0.218997
0.228011
0.236542
0.24456
0.252072
0.25909
0.265618
0.271661
0.277231
0.282348
0.287035
0.291315
0.295212
0.298749
0.301946
0.304818
0.307375
0.309624
0.311572
0.31323
0.314613
0.315739
0.316625
0.317287
0.317768
0.318185
0.318528
0.168161
0.178367
0.188232
0.197625
0.206548
0.215008
0.222983
0.230469
0.23747
0.243988
0.250025
0.255596
0.260719
0.26542
0.269721
0.273645
0.277212
0.280438
0.283337
0.285924
0.288214
0.290217
0.291935
0.29337
0.294527
0.295419
0.296064
0.296502
0.296855
0.297014
0.147295
0.157119
0.166831
0.176074
0.184847
0.193198
0.201108
0.20855
0.215513
0.221996
0.228001
0.23354
0.238635
0.243308
0.247586
0.251494
0.255058
0.258296
0.261213
0.263811
0.266094
0.268076
0.26977
0.271188
0.272333
0.273205
0.273805
0.274162
0.274398
0.274288
0.126832
0.136086
0.145469
0.154428
0.162959
0.171144
0.178954
0.186325
0.19322
0.199631
0.20556
0.211023
0.216044
0.220646
0.224854
0.228693
0.232189
0.235365
0.238241
0.240826
0.243121
0.24512
0.246818
0.248222
0.249341
0.250183
0.250742
0.251032
0.251159
0.250816
0.107121
0.115549
0.124335
0.132808
0.140966
0.148901
0.156556
0.163817
0.170611
0.176917
0.182736
0.188081
0.192974
0.197445
0.201533
0.20527
0.208678
0.211765
0.214539
0.217013
0.219202
0.221118
0.222759
0.224114
0.225177
0.225947
0.226411
0.226567
0.226508
0.225812
0.0884891
0.0958026
0.103656
0.111384
0.118992
0.126554
0.133965
0.141043
0.147669
0.153804
0.159449
0.164615
0.16932
0.173594
0.177479
0.181017
0.184249
0.187204
0.189886
0.192291
0.194412
0.196247
0.197805
0.199092
0.200104
0.200832
0.201241
0.201285
0.201016
0.199987
0.0711803
0.0771083
0.0836882
0.0903819
0.0972188
0.104244
0.111291
0.118101
0.124497
0.130411
0.135824
0.140739
0.145181
0.149198
0.152838
0.156133
0.159109
0.161796
0.164225
0.166417
0.168372
0.170072
0.171504
0.172661
0.173546
0.174164
0.174478
0.174383
0.173833
0.172315
0.0553169
0.0596799
0.0647129
0.0700929
0.0759075
0.082166
0.0886269
0.0949718
0.100986
0.106564
0.111653
0.116227
0.120302
0.123938
0.127216
0.1302
0.132923
0.135395
0.137617
0.139597
0.141349
0.14288
0.144184
0.145238
0.146029
0.146564
0.146818
0.146622
0.145779
0.143822
0.040893
0.0436795
0.0470213
0.0508478
0.0554179
0.0607024
0.0663629
0.0720485
0.0775247
0.0826369
0.0872816
0.0914102
0.0950321
0.0981979
0.100977
0.103449
0.105689
0.107741
0.10961
0.111286
0.112758
0.114029
0.115099
0.115957
0.116582
0.116988
0.11717
0.116907
0.115753
0.113232
0.0277869
0.0291692
0.0308773
0.0329761
0.0360612
0.040017
0.0444434
0.0490804
0.053733
0.0581688
0.0621833
0.0656849
0.0686969
0.0713029
0.0735902
0.0756232
0.0774436
0.0790778
0.0805471
0.0818684
0.0830452
0.0840682
0.0849247
0.0855976
0.086063
0.0863337
0.0864676
0.0862648
0.0849808
0.0821285
0.0157109
0.0159921
0.0162478
0.0168326
0.0187898
0.0213772
0.024245
0.0274311
0.0308587
0.0342634
0.0373593
0.0399665
0.0420571
0.0437374
0.0451677
0.0464635
0.0476567
0.0487317
0.0496792
0.0505154
0.0512603
0.051915
0.052466
0.0528944
0.0531686
0.0532691
0.0532782
0.0531742
0.0521016
0.0492082
0.00467494
0.00361784
0.000154491
-0.00062704
0.00153763
0.00317134
0.00444789
0.00595645
0.00778759
0.00974395
0.0115886
0.0131485
0.0143557
0.0152509
0.0159365
0.0165083
0.01702
0.0174816
0.0178883
0.0182438
0.0185572
0.0188309
0.0190602
0.0192413
0.0193592
0.0193662
0.0192715
0.0192489
0.019004
0.0170488
0.519073
0.499342
0.479661
0.461134
0.44353
0.426079
0.408587
0.391006
0.373265
0.355312
0.337117
0.318644
0.299881
0.280814
0.261444
0.241787
0.221866
0.201748
0.181517
0.161313
0.141336
0.121835
0.103112
0.0854182
0.0689617
0.0538491
0.0400714
0.0275034
0.0158462
0.00498445
0.517185
0.495959
0.476269
0.45763
0.439957
0.422495
0.405037
0.387513
0.369837
0.351952
0.333829
0.31543
0.296742
0.277755
0.258467
0.238899
0.219071
0.19906
0.178954
0.158906
0.139123
0.119862
0.101424
0.0840462
0.06792
0.05313
0.0396424
0.0273092
0.0158175
0.00505028
0.514642
0.492165
0.472612
0.454022
0.436368
0.418947
0.401538
0.384069
0.366454
0.348634
0.330579
0.312252
0.29364
0.274733
0.255527
0.236049
0.216317
0.196415
0.176435
0.156537
0.136939
0.117896
0.0997104
0.0826113
0.0667855
0.0523071
0.0391197
0.0270431
0.0157356
0.00509059
0.511525
0.488322
0.468953
0.450437
0.432805
0.41543
0.398075
0.380664
0.36311
0.345354
0.327366
0.309109
0.290571
0.271742
0.252617
0.233227
0.21359
0.193796
0.173945
0.154201
0.134795
0.115982
0.0980601
0.0812494
0.065726
0.0515495
0.0386425
0.0268005
0.0156585
0.00511798
0.508015
0.48448
0.465289
0.446872
0.429273
0.411951
0.394654
0.377303
0.35981
0.342116
0.324193
0.306005
0.287538
0.268786
0.249741
0.230436
0.210894
0.191209
0.171486
0.151901
0.132692
0.114115
0.0964646
0.0799502
0.0647335
0.050855
0.0382148
0.026587
0.0155913
0.00513546
0.50418
0.480639
0.461627
0.44333
0.425774
0.408513
0.391277
0.373986
0.356554
0.338921
0.321062
0.302941
0.284544
0.265866
0.246898
0.227678
0.208231
0.188653
0.169063
0.149639
0.130634
0.112298
0.0949248
0.0787109
0.0638007
0.0502138
0.0378275
0.0263958
0.015531
0.00514421
0.500079
0.476799
0.457971
0.439814
0.422312
0.405118
0.387946
0.370715
0.353342
0.33577
0.317974
0.299918
0.281589
0.262983
0.244092
0.224954
0.2056
0.186132
0.166677
0.14742
0.128622
0.110535
0.0934444
0.0775344
0.0629285
0.0496248
0.0374781
0.0262247
0.0154768
0.00514594
0.495778
0.472963
0.454326
0.436329
0.418892
0.401767
0.384662
0.36749
0.350177
0.332666
0.314931
0.296938
0.278675
0.260138
0.241322
0.222265
0.203005
0.183647
0.164329
0.145244
0.12666
0.108828
0.0920258
0.0764224
0.062118
0.0490881
0.037166
0.0260733
0.0154285
0.00514258
0.49134
0.469133
0.450699
0.432874
0.415516
0.398461
0.381424
0.364313
0.34706
0.329608
0.311933
0.294002
0.275803
0.257334
0.23859
0.219613
0.200447
0.1812
0.162023
0.143115
0.12475
0.107179
0.0906702
0.0753749
0.0613676
0.0486021
0.036889
0.0259405
0.0153857
0.00513898
0.486821
0.465312
0.447096
0.429453
0.412186
0.395203
0.378234
0.361185
0.343992
0.326599
0.308982
0.291112
0.272976
0.254572
0.235898
0.216999
0.197927
0.178794
0.15976
0.141033
0.122893
0.105589
0.0893775
0.0743902
0.0606751
0.0481635
0.0366441
0.0258243
0.0153474
0.00512937
0.48227
0.461507
0.443524
0.426066
0.408902
0.391994
0.375094
0.358107
0.340973
0.323638
0.306079
0.288269
0.270194
0.251853
0.233248
0.214426
0.195449
0.17643
0.157542
0.139001
0.121091
0.10406
0.0881475
0.0734666
0.0600374
0.0477687
0.0364279
0.0257225
0.0153129
0.00511829
0.477728
0.457723
0.439988
0.422717
0.405666
0.388835
0.372004
0.355079
0.338004
0.320726
0.303225
0.285473
0.267458
0.249179
0.230641
0.211897
0.193013
0.174111
0.155372
0.137022
0.119348
0.102593
0.0869806
0.072603
0.0594522
0.0474144
0.0362375
0.0256334
0.0152819
0.00510676
0.473231
0.453966
0.436491
0.419409
0.402479
0.385727
0.368966
0.352102
0.335085
0.317865
0.30042
0.282726
0.264768
0.246549
0.228079
0.209412
0.190622
0.171839
0.153253
0.1351
0.117666
0.10119
0.0858779
0.0717989
0.058918
0.0470982
0.0360706
0.0255555
0.0152543
0.00509542
0.468803
0.450245
0.433041
0.416146
0.399343
0.382672
0.365981
0.349178
0.332218
0.315055
0.297665
0.280026
0.262126
0.243967
0.225564
0.206973
0.188278
0.169617
0.151189
0.133237
0.116048
0.0998538
0.0848406
0.0710546
0.058433
0.0468175
0.0359253
0.0254875
0.0152298
0.00508483
0.464468
0.44657
0.429641
0.412932
0.39626
0.379671
0.36305
0.346308
0.329404
0.312298
0.294961
0.277377
0.259532
0.241432
0.223095
0.204581
0.185983
0.167445
0.149181
0.131436
0.114497
0.0985863
0.0838695
0.0703696
0.0579953
0.0465699
0.0357991
0.0254281
0.0152081
0.00507525
0.460238
0.442949
0.426296
0.40977
0.393231
0.376727
0.360175
0.343494
0.326646
0.309595
0.29231
0.274778
0.256989
0.238946
0.220675
0.202238
0.183737
0.165327
0.147231
0.129699
0.113014
0.0973879
0.082964
0.0697421
0.0576023
0.0463524
0.0356898
0.025376
0.0151889
0.00506684
0.456124
0.43939
0.423012
0.406663
0.390259
0.37384
0.357358
0.340737
0.323944
0.306946
0.289712
0.272231
0.254496
0.23651
0.218304
0.199943
0.181542
0.163263
0.14534
0.128025
0.111598
0.096258
0.0821227
0.0691696
0.057251
0.0461617
0.0355951
0.02533
0.015172
0.00505968
0.452132
0.4359
0.419791
0.403615
0.387344
0.371012
0.354599
0.338039
0.321299
0.304353
0.28717
0.269739
0.252057
0.234126
0.215983
0.197699
0.1794
0.161256
0.14351
0.126417
0.110249
0.0951957
0.0813436
0.0686491
0.056938
0.0459949
0.0355128
0.0252893
0.0151571
0.00505376
0.448267
0.432486
0.416638
0.400629
0.384488
0.368244
0.3519
0.3354
0.318713
0.301818
0.284684
0.267302
0.24967
0.231793
0.213713
0.195508
0.177312
0.159306
0.141741
0.124874
0.108969
0.0942006