/*--------------------------------*- C++ -*----------------------------------*\
  =========                 |
  \\      /  F ield         | OpenFOAM: The Open Source CFD Toolbox
   \\    /   O peration     | Website:  https://openfoam.org
    \\  /    A nd           | Version:  7
     \\/     M anipulation  |
\*---------------------------------------------------------------------------*/
FoamFile
{
    version     2.0;
    format      ascii;
    class       surfaceScalarField;
    location    "1.8";
    object      phi;
}
// * * * * * * * * * * * * * * * * * * * * * * * * * * * * * * * * * * * * * //

dimensions      [0 3 -1 0 0 0 0];

internalField   nonuniform List<scalar> 
35640
(
-2.96752e-05
0.00253733
-0.00250766
-9.92153e-05
0.00580236
-0.00573282
-0.000193627
0.00780813
-0.00771372
-0.000291293
0.00877666
-0.00867899
-0.000369251
0.00896302
-0.00888506
-0.000406907
0.00859025
-0.00855259
-0.000387797
0.00783316
-0.00785227
-0.000300323
0.00682476
-0.00691224
-0.000137857
0.00566685
-0.00582932
0.0001016
0.00443936
-0.00467881
0.000416053
0.00320619
-0.00352065
0.000800148
0.00201841
-0.0024025
0.00124587
0.000915444
-0.00136117
0.00174346
-7.43564e-05
-0.000423239
0.00228233
-0.000933094
0.000394224
0.00285176
-0.00165232
0.00108288
0.00344156
-0.0022317
0.0016419
0.00404256
-0.0026773
0.0020763
0.00464699
-0.00299988
0.00239546
0.00524851
-0.00321313
0.00261161
0.00584226
-0.00333215
0.00273841
0.00642467
-0.00337229
0.00278987
0.00699342
-0.00334826
0.0027795
0.00754714
-0.00327348
0.00271976
0.00808524
-0.00315985
0.00262175
0.00860767
-0.00301749
0.00249506
0.00911484
-0.00285484
0.00234767
0.00960736
-0.00267856
0.00218604
0.010086
-0.00249175
0.00201313
-0.00228746
0.0105511
0.00182238
-1.68791e-05
0.00255421
-6.09582e-05
0.00584644
-0.00012299
0.00787017
-0.00018534
0.00883901
-0.000227446
0.00900513
-0.00023002
0.00859282
-0.000177378
0.00778052
-5.8429e-05
0.00670582
0.000133138
0.00547529
0.000399142
0.00417335
0.000737332
0.002868
0.00114206
0.00161368
0.00160511
0.000452392
0.00211659
-0.000585837
0.00266577
-0.00148227
0.00324193
-0.00222848
0.00383507
-0.00282484
0.00443633
-0.00327856
0.00503827
-0.00360183
0.00563499
-0.00380985
0.00622209
-0.00391925
0.00679651
-0.00394672
0.00735635
-0.0039081
0.00790066
-0.00381779
0.00842917
-0.00368836
0.00894218
-0.0035305
0.00944031
-0.00335297
0.00992437
-0.00316262
0.0103953
-0.00296269
-0.002746
0.0108539
-4.63364e-06
0.00255885
-2.31966e-05
0.005865
-5.23166e-05
0.00789929
-7.82069e-05
0.0088649
-8.2834e-05
0.00900975
-4.84851e-05
0.00855848
3.95974e-05
0.00769244
0.000191924
0.00655349
0.000414405
0.00525281
0.000708483
0.00387928
0.00107157
0.00250492
0.00149771
0.00118754
0.00197839
-2.82913e-05
0.0025035
-0.00111094
0.00306227
-0.00204105
0.00364411
-0.00281032
0.00423921
-0.00341993
0.00483906
-0.00387842
0.00543673
-0.00419949
0.00602685
-0.00439997
0.00660555
-0.00449796
0.00717032
-0.00451148
0.00771973
-0.00445752
0.00825327
-0.00435133
0.00877105
-0.00420614
0.00927364
-0.0040331
0.0097619
-0.00384122
0.0102369
-0.00363758
0.0106996
-0.00342545
-0.00319761
0.0111512
7.12487e-06
0.00255172
1.34536e-05
0.00585867
1.74024e-05
0.00789534
2.87312e-05
0.00885357
6.27813e-05
0.0089757
0.000135624
0.00848563
0.000260873
0.00756719
0.000448308
0.00636606
0.000703309
0.0049978
0.00102687
0.00355572
0.0014159
0.00211588
0.00186403
0.000739414
0.00236244
-0.000526703
0.00290084
-0.00164934
0.00346841
-0.00260862
0.0040547
-0.00339661
0.00465026
-0.00401549
0.00524706
-0.00447523
0.00583874
-0.00479117
0.00642052
-0.00498175
0.00698917
-0.00506661
0.00754276
-0.00506507
0.00808039
-0.00499515
0.00860199
-0.00487292
0.00910804
-0.00471219
0.00959939
-0.00452446
0.0100771
-0.00431897
0.0105425
-0.0041029
0.0109966
-0.00387962
-0.00364193
0.0114409
1.79877e-05
0.00253373
4.84949e-05
0.00582816
8.51536e-05
0.00785868
0.000133956
0.00880477
0.000207537
0.00890212
0.000320064
0.00837311
0.000483919
0.00740333
0.000708015
0.00614196
0.000997022
0.0047088
0.00135126
0.00320148
0.00176711
0.00170003
0.0022377
0.000268825
0.00275382
-0.00104283
0.00330499
-0.00220051
0.00388043
-0.00318406
0.00446993
-0.00398611
0.00506446
-0.00461002
0.00565658
-0.00506735
0.00624059
-0.00537517
0.00681243
-0.00555359
0.00736954
-0.00562373
0.00791061
-0.00560615
0.0084353
-0.00551985
0.00894399
-0.00538161
0.00943752
-0.00520572
0.00991702
-0.00500395
0.0103838
-0.00478572
0.0108391
-0.00455821
0.0112844
-0.00432489
-0.00407869
0.0117211
2.79835e-05
0.00250575
8.15146e-05
0.00577463
0.000150126
0.00779007
0.000236241
0.00871866
0.000349747
0.00878862
0.000502847
0.00822001
0.000706504
0.00719968
0.00096854
0.00587993
0.00129275
0.00438459
0.00167869
0.00281554
0.00212204
0.00125669
0.00261532
-0.000224457
0.00314894
-0.00157645
0.00371225
-0.00276383
0.00429455
-0.00376636
0.00488595
-0.00457751
0.00547797
-0.00520204
0.00606386
-0.00565324
0.00663866
-0.00594998
0.00719911
-0.00611403
0.00774336
-0.00616799
0.00827079
-0.00613358
0.00878161
-0.00603067
0.00927664
-0.00587664
0.00975708
-0.00568616
0.0102243
-0.00547118
0.0106798
-0.00524118
0.0111249
-0.00500333
0.0115611
-0.00476114
-0.0045078
0.0119902
3.69624e-05
0.00246879
0.000112142
0.00569945
0.000211571
0.00769064
0.000334431
0.0085958
0.000487922
0.00863513
0.00068211
0.00802582
0.000926388
0.0069554
0.00122736
0.00557896
0.00158774
0.00402421
0.00200614
0.00239714
0.00247741
0.000785423
0.00299343
-0.000740485
0.0035442
-0.00212721
0.00411889
-0.00333852
0.00470696
-0.00435444
0.00529895
-0.0051695
0.00588703
-0.00579012
0.00646523
-0.00623144
0.00702944
-0.00651419
0.00757722
-0.00666182
0.00810754
-0.00669831
0.00862043
-0.00664647
0.00911667
-0.00652691
0.00959753
-0.0063575
0.0100645
-0.00615314
0.0105193
-0.00592591
0.0109633
-0.00568523
0.0113982
-0.00543822
0.0118254
-0.00518838
-0.00492926
0.0122469
4.48376e-05
0.00242395
0.000140043
0.00560425
0.000268872
0.00756181
0.000427566
0.0084371
0.000620673
0.00844203
0.000856099
0.0077904
0.00114152
0.00666998
0.0014821
0.00523838
0.00187931
0.00362699
0.00233067
0.00194578
0.00283009
0.000286011
0.00336871
-0.00127911
0.00393609
-0.00269459
0.00452129
-0.00392373
0.00511399
-0.00494714
0.00570526
-0.00576077
0.00628802
-0.00637288
0.00685719
-0.00680061
0.00740957
-0.00706657
0.00794364
-0.00719589
0.00845916
-0.00721383
0.00895686
-0.00714416
0.00943807
-0.00700813
0.00990448
-0.00682391
0.0103579
-0.00660656
0.0108001
-0.00636814
0.0112328
-0.00611796
0.0116576
-0.00586299
0.012076
-0.00560674
-0.00534319
0.0124899
5.15652e-05
0.00237238
0.000165022
0.00549079
0.000321552
0.00740528
0.000514822
0.00824383
0.000746847
0.00821
0.00102332
0.00751392
0.00135006
0.00634324
0.00173062
0.00485782
0.00216506
0.00319256
0.00264962
0.00146122
0.00317716
-0.000241521
0.00373803
-0.00183998
0.00432131
-0.00327788
0.00491602
-0.00451844
0.00551215
-0.00554327
0.00610139
-0.00635002
0.00667753
-0.00694902
0.00723645
-0.00735953
0.00777596
-0.00760608
0.00829546
-0.00771539
0.00879555
-0.00771392
0.00927765
-0.00762626
0.00974362
-0.0074741
0.0101955
-0.00727582
0.0106355
-0.0070465
0.0110654
-0.00679805
0.011487
-0.0065396
0.0119019
-0.00627793
0.0123117
-0.00601649
-0.00574983
0.0127183
5.71421e-05
0.00231524
0.00018696
0.00536097
0.000369291
0.00722295
0.000595615
0.00801751
0.000865557
0.00794006
0.00118258
0.0071969
0.0015505
0.00597531
0.00197112
0.0044372
0.00244288
0.00272079
0.00296063
0.000943477
0.003516
-0.000796897
0.00409853
-0.0024225
0.00469684
-0.00387619
0.00529992
-0.00512153
0.0058982
-0.00614154
0.0064841
-0.00693592
0.00705237
-0.00751729
0.00759996
-0.00790711
0.00812572
-0.00813184
0.00863002
-0.00821969
0.0091143
-0.0081982
0.00958063
-0.00809259
0.0100314
-0.00792485
0.010469
-0.00771343
0.0108957
-0.00747325
0.0113137
-0.00721601
0.0117247
-0.00695056
0.0121302
-0.00668343
0.0125317
-0.00641803
-0.00614951
0.0129314
6.15937e-05
0.00225365
0.000205844
0.00521672
0.000411951
0.00701684
0.000669604
0.00775986
0.000976211
0.00763345
0.001333
0.00684011
0.0017417
0.00556661
0.00220217
0.00397674
0.00271108
0.00221187
0.00326169
0.000392868
0.00384437
-0.00137957
0.00444771
-0.00302585
0.00505994
-0.00448841
0.00567011
-0.0057317
0.00626917
-0.0067406
0.00685042
-0.00751717
0.00740965
-0.00807653
0.00794495
-0.00844241
0.00845627
-0.00864316
0.00894496
-0.00870838
0.00941327
-0.00866651
0.0098639
-0.00854323
0.0102997
-0.00836065
0.0107234
-0.00813711
0.0111374
-0.00788729
0.011544
-0.00762256
0.0119448
-0.0073514
0.0123414
-0.00708005
0.0127353
-0.00681186
-0.0065427
0.0131284
6.49797e-05
0.00218867
0.000221762
0.00505994
0.000449569
0.00678904
0.000736701
0.00747273
0.00107854
0.00729161
0.0014741
0.00644456
0.00192292
0.00511779
0.00242276
0.00347689
0.00296838
0.00166626
0.00355125
-0.000190007
0.00416037
-0.00198869
0.00478342
-0.00364889
0.00540821
-0.0051132
0.00602402
-0.00634751
0.00662241
-0.007339
0.00719768
-0.00809244
0.00774677
-0.00862562
0.00826896
-0.0089646
0.00876533
-0.00913953
0.00923822
-0.00918127
0.00969062
-0.00911892
0.0101259
-0.00897845
0.0105471
-0.00878194
0.0109575
-0.00854745
0.0113595
-0.00828928
0.0117553
-0.00801836
0.0121467
-0.00774279
0.0125351
-0.00746845
0.0129218
-0.00719861
-0.00692992
0.013309
6.73912e-05
0.00212128
0.000234899
0.00489243
0.000482359
0.00654158
0.000797081
0.007158
0.00117261
0.00691609
0.00160577
0.0060114
0.00209385
0.00462972
0.00263236
0.00293838
0.00321392
0.00108471
0.00382813
-0.000804221
0.00446251
-0.00262307
0.00510383
-0.0042902
0.00573959
-0.00574897
0.00635939
-0.0069673
0.00695557
-0.00793518
0.00752353
-0.0086604
0.00806146
-0.00916354
0.00856987
-0.00947301
0.00905098
-0.00962064
0.00950805
-0.00963834
0.00994483
-0.00955571
0.0103651
-0.00939877
0.0107726
-0.00918937
0.0111703
-0.00894519
0.011561
-0.00868
0.0119469
-0.00840423
0.0123296
-0.0081255
0.0127105
-0.00784935
0.0130909
-0.00757896
-0.00731183
0.0134728
6.89479e-05
0.00205233
0.000245529
0.00471585
0.000510705
0.0062764
0.000851164
0.00681755
0.0012588
0.00650845
0.0017283
0.0055419
0.00225459
0.00410343
0.00283081
0.00236216
0.00344725
0.000468268
0.00409153
-0.0014485
0.00474964
-0.00328118
0.00540746
-0.00494802
0.00605233
-0.00639385
0.0066743
-0.00758927
0.00726664
-0.00852753
0.00782597
-0.00921973
0.00835179
-0.00968937
0.0088459
-0.00996711
0.0093116
-0.0100863
0.00975305
-0.0100798
0.0101747
-0.00997733
0.0105807
-0.00980483
0.0109751
-0.00958375
0.0113611
-0.00933119
0.0117415
-0.00906035
0.0121183
-0.00878104
0.0124932
-0.0085004
0.0128674
-0.00822358
0.0132421
-0.00795365
-0.00768909
0.0136194
6.97921e-05
0.00198254
0.000254
0.00453164
0.000535135
0.00599527
0.000899591
0.00645309
0.00133778
0.00607026
0.00184229
0.00503739
0.00240561
0.00354011
0.00301832
0.00174945
0.00366827
-0.000181681
0.00434097
-0.0021212
0.00502089
-0.00396109
0.00569311
-0.00562024
0.00634496
-0.00704571
0.00696711
-0.00821141
0.00755392
-0.00911434
0.00810332
-0.00976913
0.0086162
-0.0102022
0.00909562
-0.0104465
0.00954594
-0.0105367
0.00997215
-0.010506
0.0103793
-0.0103844
0.0107719
-0.0101975
0.0111541
-0.009966
0.0115294
-0.00970645
0.0119003
-0.0094313
0.012269
-0.00914974
0.012637
-0.00886836
0.0130054
-0.00859195
0.0133752
-0.00832348
-0.00806244
0.0137485
7.00812e-05
0.00191246
0.000260717
0.00434101
0.000556298
0.00569969
0.000943184
0.0060662
0.00141046
0.00560298
0.00194863
0.00449922
0.00254765
0.00294109
0.0031954
0.00110171
0.00387714
-0.000863419
0.00457622
-0.00282029
0.00527563
-0.0046605
0.00595981
-0.00630442
0.00661626
-0.00770216
0.00723645
-0.0088316
0.00781599
-0.00969387
0.00835423
-0.0103074
0.00885345
-0.0107015
0.00931795
-0.010911
0.0097531
-0.0109718
0.0101646
-0.0109175
0.010558
-0.0107778
0.0109381
-0.0105776
0.0113093
-0.0103371
0.0116748
-0.010072
0.0120374
-0.00979385
0.0123989
-0.00951127
0.0127608
-0.00923029
0.0131241
-0.00895529
0.0134899
-0.0086892
-0.00843257
0.01386
6.99819e-05
0.00184248
0.000266128
0.00414486
0.000574924
0.00539089
0.000982899
0.00565823
0.00147792
0.00510795
0.0020484
0.00392875
0.00268165
0.00230783
0.00336272
0.000420642
0.00407417
-0.00157487
0.00479719
-0.00354332
0.0055134
-0.00537671
0.00620678
-0.0069978
0.00686522
-0.00836061
0.00748122
-0.00944759
0.00805175
-0.0102644
0.00857766
-0.0108333
0.00906263
-0.0111864
0.00951215
-0.0113605
0.00993248
-0.0113922
0.01033
-0.011315
0.0107105
-0.0111583
0.0110792
-0.0109463
0.0114403
-0.0106983
0.0117972
-0.0104289
0.0121524
-0.010149
0.0125077
-0.00986659
0.0128644
-0.00958702
0.0132235
-0.00931437
0.0135858
-0.00905152
-0.00880015
0.0139534
6.96643e-05
0.00177281
0.000270698
0.00394383
0.000591793
0.0050698
0.00101977
0.00523025
0.00154135
0.00458638
0.00214279
0.00332731
0.00280867
0.00164195
0.00352104
-0.000291736
0.00425975
-0.00231358
0.00500387
-0.00428743
0.00573381
-0.00610664
0.00643334
-0.00769734
0.00709101
-0.00901827
0.00770051
-0.0100571
0.00826035
-0.0108242
0.00877288
-0.0113458
0.00924318
-0.0116567
0.0096778
-0.0117952
0.0100838
-0.0117982
0.0104681
-0.0116993
0.0108368
-0.011527
0.0111951
-0.0113047
0.0115473
-0.0110505
0.0118966
-0.0107782
0.0122454
-0.0104978
0.0125954
-0.0102166
0.0129478
-0.00993937
0.0133033
-0.0096699
0.0136628
-0.00941106
-0.00916573
0.0140284
6.92961e-05
0.00170352
0.000274893
0.00373823
0.000607692
0.004737
0.00105485
0.00478309
0.00160193
0.00403929
0.00223299
0.00269625
0.00292972
0.000945222
0.00367111
-0.00103312
0.00443424
-0.00307671
0.00519621
-0.0050494
0.00593648
-0.00684691
0.00663891
-0.00839977
0.00729293
-0.00967229
0.00789366
-0.0106578
0.0084412
-0.0113718
0.00893947
-0.0118441
0.00939481
-0.0121121
0.00981479
-0.0122151
0.0102071
-0.0121905
0.0105791
-0.0120713
0.010937
-0.0118849
0.0112861
-0.0116538
0.0116305
-0.0113948
0.0119733
-0.0111209
0.0123166
-0.0108412
0.0126621
-0.0105621
0.0130108
-0.010288
0.0133633
-0.0100225
0.0137206
-0.0097683
-0.00952972
0.0140846
6.90355e-05
0.00163448
0.000279157
0.00352811
0.000623375
0.00439278
0.00108915
0.00431732
0.00166082
0.00346761
0.00232013
0.00203695
0.00304575
0.000219604
0.00381352
-0.0018009
0.00459787
-0.00386105
0.0053741
-0.00582564
0.00612104
-0.00759384
0.00682295
-0.00910168
0.00747043
-0.0103198
0.00806018
-0.0112476
0.00859398
-0.0119056
0.00907723
-0.0123273
0.00951752
-0.0125524
0.00992325
-0.0126209
0.0103027
-0.01257
0.0106634
-0.0124319
0.0110116
-0.0122332
0.0113526
-0.0119947
0.0116902
-0.0117325
0.0120275
-0.0114582
0.0123663
-0.01118
0.012708
-0.0109038
0.0130535
-0.0106336
0.0134035
-0.0103725
0.0137588
-0.0101235
-0.00989233
0.0141214
6.9025e-05
0.00156546
0.000283894
0.00331324
0.000639531
0.00403715
0.00112357
0.00383329
0.00171902
0.00287216
0.00240514
0.00135083
0.00315746
-0.00053272
0.00394869
-0.00259213
0.00475069
-0.00466306
0.0055373
-0.00661225
0.00628706
-0.0083436
0.00698498
-0.00979959
0.00762308
-0.0109579
0.00819979
-0.0118243
0.00871856
-0.0124244
0.00918627
-0.012795
0.00961157
-0.0129777
0.0100036
-0.0130129
0.010371
-0.0129374
0.0107213
-0.0127823
0.011061
-0.0125729
0.011395
-0.0123287
0.011727
-0.0120645
0.0120596
-0.0117908
0.0123947
-0.011515
0.0127333
-0.0112424
0.0130762
-0.0109765
0.0134239
-0.0107202
0.0137772
-0.0104769
-0.0102536
0.0141385
6.93866e-05
0.00149607
0.000289452
0.00309318
0.000656749
0.00366985
0.00115888
0.00333116
0.00177734
0.0022537
0.00248872
0.000639454
0.00326532
-0.00130933
0.00407675
-0.00340355
0.00489255
-0.00547886
0.00568545
-0.00740515
0.00643409
-0.00909224
0.00712457
-0.0104901
0.00775058
-0.0115839
0.00831237
-0.0123861
0.00881506
-0.0129271
0.00926688
-0.0132468
0.00967742
-0.0133882
0.0100563
-0.0133918
0.0104126
-0.0132936
0.0107537
-0.0131235
0.011086
-0.0129051
0.0114141
-0.0126568
0.0117414
-0.0123918
0.0120703
-0.0121197
0.0124023
-0.0118471
0.0127383
-0.0115785
0.0130789
-0.0113171
0.0134245
-0.0110658
0.0137759
-0.0108282
-0.0106131
0.0141355
7.02192e-05
0.00142585
0.000296111
0.00286728
0.000675493
0.00329047
0.00119566
0.002811
0.00183635
0.00161301
0.0025713
-9.54933e-05
0.00336951
-0.00210754
0.00419759
-0.00423164
0.0050231
-0.00630437
0.00581805
-0.0082001
0.00656163
-0.00983581
0.00724136
-0.0111698
0.00785278
-0.0121953
0.00839801
-0.0129313
0.0088838
-0.0134129
0.00931958
-0.0136826
0.00971573
-0.0137843
0.0100823
-0.0137584
0.0104284
-0.0136396
0.0107614
-0.0134565
0.0110872
-0.013231
0.0114105
-0.01298
0.0117341
-0.0127154
0.0120601
-0.0124457
0.0123898
-0.0121768
0.0127238
-0.0119124
0.0130624
-0.0116556
0.0134058
-0.0114092
0.0137549
-0.0111773
-0.0109706
0.0141123
7.15966e-05
0.00135426
0.000304077
0.0026348
0.000696095
0.00289845
0.00123429
0.0022728
0.00189637
0.00095093
0.002653
-0.000852127
0.00346988
-0.00292441
0.00431083
-0.00507259
0.00514178
-0.00713532
0.00593452
-0.00899284
0.0066692
-0.0105705
0.00733506
-0.0118357
0.00792965
-0.0127899
0.00845696
-0.0134586
0.00892527
-0.0138812
0.00934506
-0.0141024
0.00972732
-0.0141666
0.0100824
-0.0141134
0.0104192
-0.0139764
0.010745
-0.0137823
0.0110656
-0.0135516
0.0113849
-0.0132993
0.0117058
-0.0130363
0.0120298
-0.0127698
0.0123579
-0.0125049
0.0126904
-0.0122449
0.0130272
-0.0119925
0.0133684
-0.0117504
0.0137148
-0.0115236
-0.0113251
0.0140693
7.35661e-05
0.00128069
0.000313479
0.00239489
0.000718745
0.00249318
0.00127495
0.00171659
0.00195744
0.000268441
0.00273367
-0.00162835
0.00356603
-0.00375678
0.00441586
-0.00592242
0.00524791
-0.00796738
0.00603424
-0.00977917
0.00675636
-0.0112926
0.00740552
-0.0124848
0.00798134
-0.0133657
0.00848966
-0.0139669
0.00894014
-0.0143316
0.00934414
-0.0145064
0.00971309
-0.0145355
0.0100574
-0.0144578
0.0103859
-0.0143049
0.0107056
-0.014102
0.0110218
-0.0138678
0.0113382
-0.0136158
0.0116572
-0.0133553
0.0119801
-0.0130927
0.0123075
-0.0128322
0.0126391
-0.0125766
0.0129747
-0.012328
0.0133137
-0.0120894
0.0136567
-0.0118666
-0.0116757
0.0140073
7.61491e-05
0.00120454
0.000324371
0.00214667
0.000743496
0.00207405
0.00131762
0.00114246
0.00201939
-0.000433322
0.00281287
-0.00242183
0.00365731
-0.00460122
0.0045119
-0.00677701
0.00534071
-0.0087962
0.00611657
-0.010555
0.00682276
-0.0119988
0.00745271
-0.0131148
0.00800816
-0.0139212
0.0084967
-0.0144555
0.00892921
-0.0147642
0.00931777
-0.014895
0.00967405
-0.0148918
0.0100084
-0.0147921
0.0103295
-0.014626
0.0106439
-0.0144165
0.0109566
-0.0141805
0.011271
-0.0139301
0.0115891
-0.0136733
0.0119118
-0.0134154
0.0122394
-0.0131598
0.0125712
-0.0129084
0.0129063
-0.0126631
0.0132435
-0.0124266
0.0135827
-0.0122059
-0.0120205
0.0139276
7.93418e-05
0.0011252
0.000336736
0.00188927
0.000770273
0.00164052
0.00136208
0.000550655
0.00208177
-0.00115301
0.00288995
-0.00323001
0.00374288
-0.00545416
0.00459804
-0.00763217
0.00541938
-0.00961753
0.00618095
-0.0113166
0.00686816
-0.012686
0.00747675
-0.0137234
0.00801056
-0.014455
0.00847881
-0.0149237
0.00889342
-0.0151788
0.00926696
-0.0152685
0.00961123
-0.0152361
0.00993641
-0.0151173
0.0102508
-0.0149404
0.0105607
-0.0147264
0.0108707
-0.0144905
0.0111838
-0.0142433
0.0115019
-0.0139914
0.0118255
-0.0137391
0.0121546
-0.0134888
0.012488
-0.0132418
0.012824
-0.0129992
0.0131605
-0.0127631
0.0134961
-0.0125414
-0.0123572
0.0138327
8.31188e-05
0.00104208
0.000350496
0.00162189
0.000798886
0.00119213
0.00140796
-5.84206e-05
0.00214399
-0.00188903
0.00296408
-0.00405011
0.00382179
-0.00631187
0.00467335
-0.00848372
0.00548313
-0.0104273
0.00622692
-0.0120604
0.00689246
-0.0133516
0.00747791
-0.0143088
0.00798916
-0.0149662
0.00843686
-0.0153714
0.00883377
-0.0155757
0.00919279
-0.0156275
0.00952566
-0.015569
0.0098423
-0.015434
0.0101506
-0.0152487
0.0104566
-0.0150323
0.0107644
-0.0147984
0.0110769
-0.0145558
0.0113958
-0.0143103
0.0117216
-0.0140649
0.0120539
-0.0138211
0.0123912
-0.0135791
0.0127308
-0.0133388
0.0130689
-0.0131013
0.013402
-0.0128744
-0.0126824
0.0137271
8.7443e-05
0.000954638
0.000365524
0.00134381
0.000829051
0.000728599
0.00145476
-0.000684129
0.0022053
-0.00263958
0.00303433
-0.00487914
0.00389301
-0.00717054
0.00473687
-0.00932758
0.00553127
-0.0112217
0.00625412
-0.0127832
0.00689571
-0.0139931
0.00745664
-0.0148697
0.0079447
-0.0154543
0.00837181
-0.0157985
0.00875135
-0.0159552
0.00909636
-0.0159725
0.00941838
-0.015891
0.00972697
-0.0157425
0.0100296
-0.0155513
0.0103319
-0.0153346
0.0106379
-0.0151043
0.0109503
-0.0148681
0.0112706
-0.0146306
0.0115998
-0.014394
0.0119376
-0.0141589
0.0122826
-0.0139242
0.0126313
-0.0136874
0.0129759
-0.0134459
0.0133012
-0.0131997
-0.012994
0.0136129
9.22703e-05
0.000862367
0.00038166
0.00105442
0.000860423
0.000249836
0.00150189
-0.0013256
0.00226489
-0.00340258
0.0030997
-0.00571395
0.00395552
-0.00802636
0.00478775
-0.0101598
0.00556324
-0.0119972
0.00626237
-0.0134824
0.00687814
-0.0146089
0.00741352
-0.0154051
0.00787806
-0.0159188
0.00828472
-0.0162052
0.00864729
-0.0163178
0.00897878
-0.016304
0.0092904
-0.0162026
0.00959128
-0.0160434
0.00988846
-0.0158485
0.0101872
-0.0156334
0.0104912
-0.0154084
0.0108032
-0.0151801
0.011125
-0.0149524
0.011458
-0.014727
0.0118032
-0.0145041
0.0121611
-0.0142821
0.0125316
-0.014058
0.0129116
-0.0138258
0.0132876
-0.0135758
0.013571
-0.0132774
0.0113555
-0.00667947
0.005875
0.011834
-0.00164603
0.00116752
0.0120817
0.00325747
-0.00350512
0.0121853
0.0069734
-0.00707698
0.0121928
0.00970253
-0.00971002
0.0121322
0.011839
-0.0117785
0.0120191
0.0137645
-0.0136513
0.0118647
0.0156459
-0.0154915
0.0116768
0.0175047
-0.0173167
0.0114609
0.0193188
-0.0191029
0.0112212
0.0210617
-0.020822
0.0109608
0.022717
-0.0224566
0.0106824
0.024282
-0.0240036
0.0103879
0.0257529
-0.0254583
0.0100791
0.0271316
-0.0268228
0.00975723
0.028418
-0.0280962
0.00942409
0.0296089
-0.0292758
0.0090805
0.0307054
-0.0303619
0.00872837
0.0317036
-0.0313515
0.0083674
0.032606
-0.0322451
0.00800027
0.0333979
-0.0330308
0.00762525
0.0341045
-0.0337294
0.00724435
0.0346844
-0.0343035
0.0068567
0.0351871
-0.0347994
0.00645861
0.0355791
-0.035181
0.00605588
0.0358173
-0.0354146
0.00563198
0.036183
-0.0357591
0.00520243
0.0359686
-0.035539
0.00474683
0.0363877
-0.0359321
0.0364371
-0.0359606
0.0115784
-0.00740395
0.0120137
-0.00208135
0.0122396
0.00303161
0.0123322
0.00688083
0.012335
0.00969972
0.0122727
0.0119014
0.0121591
0.0138781
0.0120046
0.0158005
0.0118162
0.0176931
0.0115994
0.0195356
0.0113583
0.0213027
0.011096
0.0229793
0.010815
0.0245629
0.0105167
0.0260511
0.0102036
0.0274447
0.00987682
0.0287448
0.00953791
0.0299478
0.00918771
0.0310556
0.00882858
0.0320628
0.00845986
0.0329748
0.00808415
0.0337736
0.00770017
0.0344884
0.00730997
0.0350746
0.00691272
0.0355843
0.00650478
0.0359871
0.00609211
0.03623
0.00565825
0.0366168
0.00521899
0.0364078
0.00475419
0.0368525
0.0369228
0.0117942
-0.00804696
0.0121866
-0.00247374
0.012391
0.00282718
0.0124731
0.0067988
0.0124719
0.00970091
0.0124084
0.0119649
0.0122948
0.0139916
0.0121405
0.0159547
0.0119521
0.0178815
0.0117349
0.0197528
0.0114928
0.0215449
0.0112288
0.0232433
0.0109454
0.0248464
0.0106439
0.0263526
0.0103268
0.0277618
0.00999525
0.0290763
0.00965084
0.0302922
0.00929424
0.0314122
0.00892825
0.0324287
0.00855191
0.0333511
0.00816785
0.0341577
0.00777511
0.0348812
0.00737573
0.035474
0.006969
0.035991
0.00655133
0.0364047
0.00612892
0.0366524
0.0056853
0.0370605
0.00523652
0.0368566
0.00476255
0.0373264
0.0374175
0.0120018
-0.00860784
0.0123528
-0.00282474
0.0125346
0.00264539
0.0126078
0.00672561
0.0126031
0.00970556
0.0125389
0.0120291
0.012426
0.0141045
0.0122724
0.0161083
0.0120845
0.0180694
0.0118673
0.01997
0.0116245
0.0217876
0.0113592
0.0235086
0.0110736
0.025132
0.0107693
0.026657
0.0104485
0.0280827
0.0101124
0.0294124
0.00976274
0.0306419
0.00940009
0.0317749
0.00902727
0.0328016
0.0086435
0.0337348
0.00825135
0.0345499
0.00785004
0.0352825
0.00744158
0.0358825
0.00702554
0.0364071
0.00659824
0.036832
0.00616629
0.0370844
0.005713
0.0375137
0.00525514
0.0373145
0.00477172
0.0378099
0.037921
0.0122003
-0.00908704
0.0125102
-0.00313461
0.0126714
0.00248422
0.0127359
0.00666111
0.0127285
0.00971287
0.0126644
0.0120933
0.0125524
0.0142164
0.0123999
0.0162608
0.012213
0.0182564
0.0119962
0.0201868
0.0117533
0.0220306
0.011487
0.0237748
0.0111996
0.0254194
0.0108929
0.0269637
0.0105685
0.028407
0.0102282
0.0297527
0.00987359
0.0309965
0.00950515
0.0321433
0.00912559
0.0331811
0.00873454
0.0341259
0.0083346
0.0349498
0.00792491
0.0356922
0.00750755
0.0362998
0.00708229
0.0368323
0.00664551
0.0372688
0.00620416
0.0375257
0.00574137
0.0379765
0.00527473
0.0377811
0.00478181
0.0383028
0.0384333
0.0123888
-0.00948561
0.0126584
-0.00340421
0.0128006
0.00234203
0.0128572
0.00660449
0.012848
0.00972213
0.0127843
0.0121569
0.012674
0.0143268
0.0125231
0.0164117
0.0123374
0.018442
0.0121216
0.0204026
0.0118789
0.0222733
0.011612
0.0240417
0.0113232
0.0257083
0.0110143
0.0272725
0.0106869
0.0287344
0.0103426
0.030097
0.00998329
0.0313559
0.0096093
0.0325173
0.00922328
0.0335671
0.00882513
0.034524
0.00841758
0.0353574
0.00799958
0.0361102
0.00757353
0.0367259
0.0071392
0.0372667
0.00669316
0.0377149
0.00624254
0.0379764
0.00577047
0.0384486
0.00529515
0.0382565
0.00479293
0.038805
0.0389544
0.0125667
-0.00980542
0.0127972
-0.00363469
0.012922
0.00221717
0.0129718
0.00655475
0.0129613
0.00973258
0.0128988
0.0122194
0.0127904
0.0144352
0.0126417
0.0165604
0.0124578
0.0186259
0.0122433
0.0206171
0.0120012
0.0225154
0.0117342
0.0243087
0.0114443
0.0259982
0.0111337
0.0275831
0.0108035
0.0290646
0.0104556
0.0304449
0.0100918
0.0317197
0.00971248
0.0328966
0.00932028
0.0339593
0.0089152
0.0349291
0.00850023
0.0357723
0.00807409
0.0365363
0.00763948
0.0371605
0.00719623
0.0377099
0.00674115
0.0381699
0.0062814
0.0384361
0.00580023
0.0389298
0.0053164
0.0387403
0.00480508
0.0393163
0.0394843
0.0127335
-0.010049
0.0129263
-0.00382749
0.0130355
0.00210789
0.0130795
0.00651078
0.0130686
0.00974351
0.0130077
0.0122802
0.0129017
0.0145412
0.0127555
0.0167066
0.0125738
0.0188076
0.0123611
0.0208299
0.01212
0.0227565
0.0118533
0.0245754
0.0115628
0.0262887
0.0112507
0.0278952
0.0109182
0.029397
0.0105669
0.0307962
0.0101989
0.0320877
0.00981463
0.0332809
0.00941652
0.0343574
0.00900471
0.0353409
0.00858249
0.0361945
0.0081484
0.0369704
0.00770538
0.0376035
0.00725337
0.0381619
0.00678942
0.0386339
0.00632071
0.0389048
0.00583063
0.0394199
0.00533845
0.0392325
0.00481823
0.0398366
0.0400229
0.0128888
-0.0102194
0.0130457
-0.00398439
0.0131412
0.00201235
0.0131807
0.00647134
0.0131699
0.00975426
0.0131111
0.0123391
0.0130078
0.0146445
0.0128645
0.0168499
0.0126855
0.0189867
0.0124749
0.0210405
0.0122353
0.022996
0.0119693
0.0248414
0.0116786
0.0265794
0.0113653
0.0282085
0.0110309
0.0297315
0.0106766
0.0311504
0.0103047
0.0324596
0.00991566
0.0336699
0.00951193
0.0347612
0.00909363
0.0357592
0.00866431
0.0366238
0.00822247
0.0374122
0.00777121
0.0380547
0.00731057
0.0386226
0.00683791
0.0391065
0.00636044
0.0393823
0.00586167
0.0399186
0.00536125
0.0397329
0.00483234
0.0403655
0.0405702
0.0130324
-0.0103205
0.0131555
-0.00410742
0.0132393
0.00192847
0.0132755
0.00643517
0.0132655
0.00976428
0.0132089
0.0123956
0.0131087
0.0147447
0.0129686
0.0169899
0.0127926
0.0191627
0.0125845
0.0212486
0.0123468
0.0232337
0.0120819
0.0251064
0.0117914
0.0268699
0.0114775
0.0285224
0.0111414
0.0300675
0.0107846
0.0315073
0.010409
0.0328351
0.0100155
0.0340635
0.00960643
0.0351702
0.00918189
0.0361838
0.00874563
0.0370601
0.00829625
0.0378616
0.00783692
0.0385141
0.00736781
0.0390917
0.00688659
0.0395877
0.00640052
0.0398684
0.00589329
0.0404258
0.00538476
0.0402414
0.00484737
0.0409029
0.0411262
0.0131644
-0.0103565
0.0132559
-0.00419889
0.0133303
0.00185405
0.0133645
0.00640099
0.0133556
0.00977316
0.0133015
0.0124498
0.0132044
0.0148418
0.0130678
0.0171266
0.0128951
0.0193355
0.0126898
0.0214538
0.0124545
0.023469
0.012191
0.0253698
0.0119012
0.0271597
0.011587
0.0288367
0.0112496
0.0304049
0.0108906
0.0318663
0.0105118
0.0332139
0.0101141
0.0344612
0.00969995
0.0355844
0.00926942
0.0366143
0.00882641
0.0375031
0.00836969
0.0383183
0.00790245
0.0389813
0.00742502
0.0395691
0.00693543
0.0400773
0.00644088
0.0403629
0.00592545
0.0409413
0.00540893
0.040758
0.00486329
0.0414485
0.0416908
0.0132849
-0.0103324
0.0133474
-0.00426139
0.0134148
0.00178674
0.0134481
0.00636765
0.0134407
0.00978053
0.0133891
0.0125014
0.0132952
0.0149357
0.0131621
0.0172597
0.012993
0.0195046
0.0127909
0.0216559
0.0125582
0.0237016
0.0122967
0.0256314
0.0120079
0.0274485
0.0116937
0.0291509
0.0113555
0.0307431
0.0109947
0.0322271
0.0106129
0.0335956
0.0102114
0.0348627
0.00979239
0.0360034
0.00935617
0.0370505
0.00890661
0.0379527
0.00844274
0.0387822
0.00796776
0.0394563
0.00748214
0.0400547
0.00698436
0.0405751
0.00648145
0.0408658
0.00595805
0.0414647
0.00543371
0.0412823
0.00488004
0.0420022
0.0422637
0.0133941
-0.0102537
0.0134306
-0.00429785
0.0134931
0.0017242
0.0135268
0.00633399
0.0135211
0.0097862
0.0134718
0.0125507
0.013381
0.0150265
0.0132515
0.0173892
0.0130862
0.0196698
0.0128876
0.0218545
0.012658
0.0239313
0.0123987
0.0258907
0.0121113
0.0277358
0.0117976
0.0294646
0.0114589
0.0310818
0.0110966
0.0325894
0.0107123
0.0339799
0.0103073
0.0352677
0.00988368
0.036427
0.00944204
0.0374922
0.00898615
0.0384085
0.00851533
0.039253
0.0080328
0.0399388
0.00753911
0.0405484
0.00703335
0.0410809
0.00652215
0.041377
0.00599103
0.0419958
0.00545904
0.0418143
0.00489757
0.0425636
0.0428449
0.0134923
-0.0101267
0.0135059
-0.00431139
0.0135658
0.00166426
0.0136009
0.00629895
0.013597
0.00979008
0.0135499
0.0125977
0.0134621
0.0151143
0.0133363
0.017515
0.0131749
0.0198312
0.0129801
0.0220494
0.0127537
0.0241576
0.012497
0.0261474
0.0122115
0.0280214
0.0118986
0.0297775
0.0115597
0.0314207
0.0111964
0.0329527
0.0108099
0.0343664
0.0104016
0.035676
0.00997375
0.0368549
0.00952696
0.037939
0.009065
0.0388705
0.00858738
0.0397307
0.00809752
0.0404287
0.00759584
0.0410501
0.0070823
0.0415944
0.0065629
0.0418964
0.00602429
0.0425344
0.00548484
0.0423538
0.00491583
0.0431326
0.0434341
0.0135798
-0.009958
0.0135738
-0.00430532
0.0136331
0.0016049
0.0136704
0.00626169
0.0136684
0.00979211
0.0136234
0.0126426
0.0135384
0.0151993
0.0134163
0.0176371
0.0132591
0.0199884
0.0130682
0.0222402
0.0128455
0.0243803
0.0125917
0.0264012
0.0123083
0.0283048
0.0119965