/*--------------------------------*- C++ -*----------------------------------*\
  =========                 |
  \\      /  F ield         | OpenFOAM: The Open Source CFD Toolbox
   \\    /   O peration     | Website:  https://openfoam.org
    \\  /    A nd           | Version:  7
     \\/     M anipulation  |
\*---------------------------------------------------------------------------*/
FoamFile
{
    version     2.0;
    format      ascii;
    class       volVectorField;
    location    "1.8";
    object      U;
}
// * * * * * * * * * * * * * * * * * * * * * * * * * * * * * * * * * * * * * //

dimensions      [0 1 -1 0 0 0 0];

internalField   nonuniform List<vector> 
18000
(
(-0.00185867 0.0757102 2.68708e-20)
(-0.00640839 0.173092 0)
(-0.0128833 0.232872 0)
(-0.0190611 0.261824 0)
(-0.0238136 0.267649 -8.88256e-21)
(-0.0261227 0.257028 4.48935e-20)
(-0.0253777 0.235156 -9.09489e-21)
(-0.0213093 0.205956 9.1573e-21)
(-0.0139373 0.172412 0)
(-0.00350361 0.136849 -2.76797e-20)
(0.00959964 0.101121 -9.27834e-21)
(0.0248812 0.0667022 0)
(0.0417956 0.0347283 1.84983e-20)
(0.0597895 0.00601803 1.85883e-20)
(0.0783387 -0.0189112 -3.70816e-20)
(0.0969756 -0.0398131 -3.69976e-20)
(0.115305 -0.0566742 0)
(0.133009 -0.0696641 -5.51798e-20)
(0.149852 -0.079088 1.83047e-20)
(0.165677 -0.0853364 -5.4621e-20)
(0.180394 -0.0888416 1.80977e-20)
(0.193967 -0.0900444 0)
(0.206404 -0.0893686 -1.77551e-20)
(0.217744 -0.0872023 -1.77151e-20)
(0.228044 -0.0838906 0)
(0.237378 -0.0797276 0)
(0.245819 -0.07496 -3.44895e-20)
(0.253453 -0.0697839 -3.41788e-20)
(0.260403 -0.064288 -3.39871e-20)
(0.266575 -0.0582706 3.57878e-20)
(-0.00352267 0.076381 3.80912e-20)
(-0.00936461 0.174705 6.64487e-20)
(-0.0154922 0.234992 -6.80434e-20)
(-0.0204804 0.263885 -6.94061e-20)
(-0.0235297 0.269046 -1.76829e-20)
(-0.0238853 0.257228 5.34759e-20)
(-0.0210934 0.233752 -7.22075e-20)
(-0.0149915 0.202694 -7.27791e-20)
(-0.00567818 0.16718 7.32104e-20)
(0.006556 0.129662 7.35774e-20)
(0.0212816 0.0921039 -3.68092e-20)
(0.0379696 0.0560704 -7.38539e-20)
(0.0560507 0.0227607 -3.7142e-20)
(0.0749608 -0.00697065 7.38624e-20)
(0.0941701 -0.0325932 -7.37166e-20)
(0.113215 -0.0538707 7.38342e-20)
(0.131717 -0.0708181 -1.47028e-19)
(0.149385 -0.0836459 1.09896e-19)
(0.166015 -0.0927055 -7.27276e-20)
(0.181478 -0.0984353 3.63634e-20)
(0.195717 -0.101314 -7.18946e-20)
(0.20873 -0.101823 0)
(0.220552 -0.100419 3.59177e-20)
(0.231246 -0.0975196 -7.04737e-20)
(0.240891 -0.0934879 6.97879e-20)
(0.249573 -0.0886339 0)
(0.257382 -0.0832134 -3.41034e-20)
(0.264413 -0.0774245 3.3924e-20)
(0.27078 -0.0713585 1.34813e-19)
(0.276402 -0.0648072 7.0904e-20)
(-0.00521738 0.0765878 -6.11391e-20)
(-0.0123959 0.175384 -6.64469e-20)
(-0.018174 0.236058 1.02005e-19)
(-0.0219179 0.264916 1.72998e-19)
(-0.0231518 0.269511 0)
(-0.0213995 0.256633 -7.14678e-20)
(-0.0163913 0.231714 7.22041e-20)
(-0.00808034 0.198958 2.17645e-19)
(0.00335398 0.16163 -7.32065e-20)
(0.0175535 0.122315 -7.35186e-20)
(0.0340368 0.0830834 2.20435e-19)
(0.0522411 0.045586 7.38498e-20)
(0.0715668 0.0110869 0)
(0.0914303 -0.019525 -1.47625e-19)
(0.111301 -0.0457112 2.20258e-19)
(0.130728 -0.0672484 -7.30981e-20)
(0.149354 -0.0841816 7.3357e-20)
(0.166917 -0.0967646 7.29715e-20)
(0.183249 -0.105398 3.00953e-22)
(0.198261 -0.110568 0)
(0.211935 -0.112797 2.15454e-19)
(0.224301 -0.112606 -1.42259e-19)
(0.235426 -0.110485 7.08979e-20)
(0.245401 -0.106875 0)
(0.254323 -0.102156 -6.97854e-20)
(0.262297 -0.0966527 2.75744e-19)
(0.269424 -0.0906235 -2.04472e-19)
(0.275806 -0.0842735 -6.79689e-20)
(0.281558 -0.0776916 6.65586e-20)
(0.286598 -0.0706664 7.04848e-20)
(-0.00691958 0.0764334 0)
(-0.0154764 0.175357 3.30178e-20)
(-0.0209167 0.236226 3.24405e-23)
(-0.0233702 0.264994 -1.72656e-19)
(-0.0226977 0.269073 0)
(-0.0187079 0.255245 -1.41659e-19)
(-0.0113236 0.229021 0)
(-0.000633928 0.194729 -2.1716e-19)
(0.0130839 0.15576 7.26348e-20)
(0.0293989 0.114817 -1.4557e-19)
(0.0477702 0.0740825 -1.46699e-19)
(0.0675862 0.0352918 -7.33576e-20)
(0.0882158 -0.000234081 7.32123e-20)
(0.10906 -0.0315726 7.27631e-20)
(0.129587 -0.0581799 -7.3658e-20)
(0.149359 -0.0798511 -1.45384e-19)
(0.168049 -0.0966659 1.45293e-19)
(0.185433 -0.108923 0)
(0.201384 -0.11707 0)
(0.21586 -0.121643 0)
(0.228881 -0.123207 0)
(0.240519 -0.122321 0)
(0.250875 -0.119502 0)
(0.260063 -0.115213 -1.39128e-19)
(0.268206 -0.10985 -1.38524e-19)
(0.275423 -0.103744 -5.2512e-22)
(0.281827 -0.0971604 -1.35845e-19)
(0.287527 -0.0903042 -4.59327e-22)
(0.292637 -0.0832649 -1.34326e-19)
(0.297071 -0.0758327 2.79996e-19)
(-0.00860487 0.0758633 0)
(-0.0185597 0.17448 2.95133e-19)
(-0.0236842 0.235359 3.32793e-23)
(-0.0248318 0.264012 -1.0298e-19)
(-0.0221811 0.267646 3.48175e-19)
(-0.0158416 0.252996 2.12344e-19)
(-0.00594537 0.225629 2.13501e-19)
(0.00727518 0.189977 0)
(0.0234297 0.149549 0)
(0.0419974 0.107166 2.18219e-19)
(0.0623692 0.0651153 1.29173e-22)
(0.0838807 0.0252155 -5.0951e-19)
(0.105864 -0.0111567 4.36495e-19)
(0.127701 -0.043053 -1.4612e-19)
(0.148864 -0.0699298 1.44503e-19)
(0.168937 -0.0916038 1.45142e-19)
(0.187627 -0.108192 -1.44109e-19)
(0.204754 -0.12004 1.44322e-19)
(0.220242 -0.127645 2.86466e-19)
(0.234096 -0.13159 -1.42466e-19)
(0.246386 -0.132483 -2.82769e-19)
(0.257223 -0.130913 2.80864e-19)
(0.266743 -0.127424 -2.78818e-19)
(0.275091 -0.122496 1.39124e-19)
(0.282408 -0.116537 0)
(0.28883 -0.109884 0)
(0.29448 -0.102805 1.02892e-21)
(0.299475 -0.0955029 -5.34829e-19)
(0.303924 -0.088068 2.64604e-19)
(0.307735 -0.0802956 -2.78323e-19)
(-0.0102501 0.0749589 0)
(-0.0216126 0.172875 -2.62257e-19)
(-0.0264537 0.233548 2.67396e-19)
(-0.0262855 0.262015 0)
(-0.0216079 0.265239 -5.55641e-19)
(-0.0128275 0.249869 -7.03686e-20)
(-0.000293443 0.221508 -1.42747e-19)
(0.0155936 0.18467 -7.15558e-20)
(0.0343168 0.142971 0)
(0.0552588 0.0993472 -1.44572e-19)
(0.0777293 0.0561851 1.44708e-19)
(0.101001 0.0153787 2.90751e-19)
(0.124367 -0.0216459 -2.90836e-19)
(0.147195 -0.0539195 0)
(0.168964 -0.0809038 -2.90204e-19)
(0.189284 -0.102443 2.87917e-19)
(0.207903 -0.118694 2.88582e-19)
(0.224696 -0.130053 4.29332e-19)
(0.239639 -0.137066 -4.28494e-19)
(0.252793 -0.140359 5.66944e-19)
(0.264279 -0.140579 2.82307e-19)
(0.274252 -0.138345 -2.80854e-19)
(0.282883 -0.134222 5.56011e-19)
(0.290345 -0.128703 0)
(0.296802 -0.122205 2.72767e-19)
(0.302402 -0.115066 5.41867e-19)
(0.307279 -0.107554 -2.66956e-19)
(0.311554 -0.0998695 2.6712e-19)
(0.315334 -0.0921025 -6.08546e-22)
(0.318513 -0.0840577 -2.76881e-19)
(-0.0118385 0.0737317 -2.99414e-20)
(-0.0245972 0.17054 0)
(-0.0291866 0.230787 -3.34125e-19)
(-0.0277102 0.258981 6.80034e-20)
(-0.0209687 0.261815 2.08031e-19)
(-0.00967151 0.245829 7.00116e-20)
(0.00559993 0.216622 2.82245e-19)
(0.0242682 0.178774 0)
(0.045677 0.136004 1.43293e-19)
(0.069095 0.0913519 1.43102e-19)
(0.0937402 0.047294 -1.44193e-19)
(0.118819 0.00579572 4.31819e-19)
(0.143583 -0.0316741 0)
(0.167384 -0.0641337 0)
(0.189714 -0.0910568 4.3114e-19)
(0.210218 -0.112319 -7.17573e-19)
(0.228694 -0.128125 2.85372e-19)
(0.245072 -0.138917 -2.8581e-19)
(0.259392 -0.145291 -2.8284e-19)
(0.271775 -0.147917 -8.46582e-19)
(0.282394 -0.147472 -1.14978e-21)
(0.29145 -0.144601 2.77627e-19)
(0.29915 -0.139887 -5.52773e-19)
(0.305694 -0.133831 2.73412e-19)
(0.311266 -0.126855 -1.61728e-21)
(0.31603 -0.119295 -2.70407e-19)
(0.320125 -0.111416 2.67983e-19)
(0.323677 -0.103414 0)
(0.326786 -0.0953796 2.61356e-19)
(0.329335 -0.0871301 3.98637e-22)
(-0.0133546 0.0722191 -5.96087e-20)
(-0.027483 0.167531 6.48708e-20)
(-0.031849 0.227109 -3.97853e-19)
(-0.0290746 0.254926 -2.02672e-19)
(-0.0202482 0.257377 2.74768e-19)
(-0.00637859 0.240856 -4.17733e-19)
(0.0117138 0.21094 -1.41463e-19)
(0.03326 0.172263 -2.82962e-19)
(0.057449 0.128626 2.84392e-19)
(0.0834233 0.0831637 -5.72121e-19)
(0.1103 0.0384375 -2.85942e-19)
(0.137212 -0.00352539 -1.4861e-21)
(0.163367 -0.0412234 1.4365e-19)
(0.188109 -0.0736701 -4.29146e-19)
(0.210945 -0.100358 -5.72477e-19)
(0.231562 -0.121202 3.95988e-22)
(0.249814 -0.136453 -1.19208e-21)
(0.265699 -0.146606 2.82604e-19)
(0.279323 -0.152303 2.82828e-19)
(0.290869 -0.154249 4.66836e-22)
(0.300568 -0.153154 -6.49021e-22)
(0.308666 -0.149682 2.74885e-19)
(0.315405 -0.144426 2.75572e-19)
(0.321012 -0.137893 -5.6225e-22)
(0.325691 -0.130502 -8.11767e-19)
(0.329614 -0.122589 5.34893e-19)
(0.332929 -0.11441 5.31484e-19)
(0.335762 -0.106158 -5.25725e-19)
(0.33821 -0.097919 -2.61351e-19)
(0.340138 -0.0895307 -2.71425e-19)
(-0.014786 0.0704564 -5.32966e-19)
(-0.0302375 0.163898 -6.45847e-20)
(-0.0344022 0.22256 3.31114e-19)
(-0.030344 0.249876 2.7037e-19)
(-0.0194214 0.251925 -2.74761e-19)
(-0.00293747 0.234937 2.78258e-19)
(0.0180413 0.204444 -1.40172e-19)
(0.0425422 0.165112 4.24085e-19)
(0.0695854 0.120814 -2.8438e-19)
(0.0981749 0.0747676 2.85343e-19)
(0.127317 0.0296096 1.43218e-19)
(0.156066 -0.0125826 -1.43576e-19)
(0.183589 -0.0502843 -8.55164e-19)
(0.209218 -0.0825128 5.70793e-19)
(0.232491 -0.108789 2.85445e-19)
(0.253141 -0.129072 0)
(0.271088 -0.143666 0)
(0.286402 -0.153113 -2.74282e-21)
(0.29926 -0.158098 -2.792e-19)
(0.309914 -0.159363 0)
(0.31865 -0.15764 0)
(0.32576 -0.153608 -2.75995e-19)
(0.331522 -0.147864 0)
(0.336186 -0.140916 -5.403e-19)
(0.339972 -0.133178 0)
(0.343063 -0.124979 -2.67147e-19)
(0.345609 -0.116568 5.28184e-19)
(0.34774 -0.108129 -5.22462e-19)
(0.349543 -0.0997487 0)
(0.350867 -0.0912842 0)
(-0.0161224 0.068482 4.73625e-19)
(-0.0328306 0.159699 0)
(-0.0368053 0.217191 -6.58622e-20)
(-0.0314759 0.243862 6.71127e-20)
(-0.0184515 0.245475 -4.08235e-19)
(0.000677079 0.228072 4.5447e-23)
(0.0245921 0.197121 -1.39514e-19)
(0.0521055 0.157303 0)
(0.082056 0.112551 0)
(0.113297 0.0661508 -1.41689e-19)
(0.144715 0.0208028 1.41821e-19)
(0.175281 -0.0213767 -2.84247e-19)
(0.204122 -0.0588514 2.8664e-19)
(0.230571 -0.0906536 0)
(0.254197 -0.116342 0)
(0.27479 -0.135927 0)
(0.292346 -0.149764 2.79469e-19)
(0.307011 -0.158445 -1.59278e-21)
(0.319042 -0.162694 2.80768e-19)
(0.328757 -0.163282 -5.52889e-19)
(0.336499 -0.16096 2.75774e-19)
(0.342604 -0.156412 -1.36646e-18)
(0.347384 -0.150239 1.08733e-21)
(0.351112 -0.142941 5.40288e-19)
(0.354019 -0.134924 -2.05185e-21)
(0.356296 -0.126507 5.28964e-19)
(0.358096 -0.117931 -5.22871e-19)
(0.359546 -0.109367 -5.19869e-19)
(0.360729 -0.100903 1.326e-21)
(0.361472 -0.0924214 -5.34003e-19)
(-0.0173571 0.066334 -5.88038e-20)
(-0.0352347 0.154998 0)
(-0.0390152 0.211062 1.31153e-19)
(-0.0324201 0.236931 -1.33642e-19)
(-0.0172895 0.238053 1.22304e-18)
(0.00450581 0.220271 3.66924e-23)
(0.0313934 0.18897 -1.38896e-19)
(0.0619602 0.14883 1.39856e-19)
(0.09485 0.103826 -7.01237e-19)
(0.128753 0.0573052 0)
(0.162431 0.0120129 0)
(0.194769 -0.0299078 -2.80886e-19)
(0.224858 -0.0669221 2.84172e-19)
(0.252036 -0.0980905 -2.82468e-19)
(0.275915 -0.123019 2.81261e-19)
(0.296354 -0.141773 0)
(0.313428 -0.154762 -1.11933e-18)
(0.327372 -0.162625 5.55703e-19)
(0.338519 -0.166122 2.77557e-19)
(0.347257 -0.166046 8.27255e-19)
(0.353985 -0.163158 0)
(0.359082 -0.158146 5.45505e-19)
(0.362889 -0.151603 5.39294e-19)
(0.365698 -0.14402 5.34924e-19)
(0.367751 -0.135792 -3.26962e-21)
(0.369242 -0.127224 -5.24449e-19)
(0.370326 -0.118544 5.22862e-19)
(0.371127 -0.109915 0)
(0.37172 -0.101422 1.36693e-21)
(0.371915 -0.0929774 1.06503e-18)
(-0.018485 0.0640489 -4.67289e-19)
(-0.0374241 0.149857 0)
(-0.0409868 0.204238 -5.209e-19)
(-0.0331194 0.229138 -6.64633e-19)
(-0.0158747 0.229699 -4.07133e-19)
(0.00860564 0.211556 1.37003e-19)
(0.0384917 0.180001 -6.96321e-24)
(0.0721358 0.139695 -1.39222e-19)
(0.107975 0.094642 2.59981e-21)
(0.144527 0.0482313 2.8061e-19)
(0.18042 0.0032421 2.79693e-19)
(0.214457 -0.0381724 -2.7852e-19)
(0.245696 -0.0744946 2.80779e-19)
(0.273492 -0.104826 -8.40821e-19)
(0.29751 -0.128829 8.38447e-19)
(0.317687 -0.146629 5.5707e-19)
(0.33419 -0.158689 1.39175e-18)
(0.34734 -0.165693 -2.79822e-19)
(0.357554 -0.168429 -5.49739e-19)
(0.365289 -0.167708 -3.16415e-21)
(0.370995 -0.164294 -5.45067e-19)
(0.375092 -0.158871 1.62033e-18)
(0.377946 -0.152019 -1.07622e-18)
(0.379865 -0.144217 1.06218e-18)
(0.381099 -0.135843 -5.29181e-19)
(0.381843 -0.127187 1.0456e-18)
(0.382249 -0.118463 1.95694e-21)
(0.382439 -0.109823 -1.02581e-18)
(0.382479 -0.10135 1.01373e-18)
(0.382161 -0.0929923 5.26161e-19)
(-0.0195037 0.0616611 4.67288e-19)
(-0.0393748 0.144342 0)
(-0.0426727 0.196791 1.16956e-18)
(-0.0335097 0.220547 3.9894e-19)
(-0.0141347 0.220463 0)
(0.0130488 0.201966 0)
(0.0459513 0.17024 0)
(0.0826812 0.129916 0)
(0.121458 0.0850108 2.79678e-19)
(0.160617 0.0389409 2.79161e-19)
(0.198651 -0.00549885 -5.60545e-19)
(0.234283 -0.0461625 5.60808e-19)
(0.266548 -0.0815656 8.37538e-19)
(0.29483 -0.110865 2.80905e-19)
(0.318857 -0.133787 2.75965e-19)
(0.338658 -0.150521 -8.34504e-19)
(0.354496 -0.161583 -1.107e-18)
(0.366787 -0.167695 -5.52569e-19)
(0.376029 -0.169672 5.49725e-19)
(0.382743 -0.168333 -1.09198e-18)
(0.387431 -0.164438 5.40786e-19)
(0.390548 -0.158659 -1.07694e-18)
(0.392482 -0.15156 5.3161e-19)
(0.393551 -0.143603 -2.45012e-21)
(0.394008 -0.135145 -5.23889e-19)
(0.39405 -0.12646 -1.04097e-18)
(0.393823 -0.117745 1.03056e-18)
(0.393445 -0.109144 0)
(0.392974 -0.100737 -1.41762e-21)
(0.392185 -0.0925093 -1.04966e-18)
(-0.020412 0.0592021 5.80227e-20)
(-0.0410645 0.138515 0)
(-0.0440244 0.188795 -5.18641e-19)
(-0.0335213 0.21123 1.32054e-19)
(-0.0119869 0.210407 -1.34081e-19)
(0.0179215 0.191551 0)
(0.0538519 0.159728 -1.3704e-19)
(0.0936607 0.119526 1.37976e-19)
(0.13534 0.0749616 2.77111e-19)
(0.177035 0.0294594 -8.32244e-19)
(0.217103 -0.0141885 -2.78355e-19)
(0.254195 -0.0538623 -3.1794e-22)
(0.287335 -0.0881285 -1.36096e-21)
(0.315948 -0.116212 -5.55518e-19)
(0.339843 -0.137911 -2.78864e-19)
(0.359149 -0.15348 0)
(0.374231 -0.163488 8.873e-22)
(0.385602 -0.168692 5.49443e-19)
(0.393839 -0.169921 -5.4444e-19)
(0.399527 -0.167996 0)
(0.403214 -0.163669 0)
(0.405382 -0.15759 0)
(0.406437 -0.150306 0)
(0.406703 -0.142254 -3.24301e-21)
(0.406436 -0.13377 0)
(0.405827 -0.125109 0)
(0.405018 -0.116454 5.09667e-19)
(0.404119 -0.107935 5.04642e-19)
(0.403182 -0.0996342 5.01409e-19)
(0.401966 -0.0915746 -1.51414e-21)
(-0.0212099 0.0566998 5.77659e-20)
(-0.0424719 0.132437 -1.25826e-19)
(-0.0449915 0.180325 7.71784e-19)
(-0.0330796 0.201265 -1.31345e-19)
(-0.00934042 0.199606 1.33575e-19)
(0.0233206 0.180376 6.3069e-24)
(0.0622859 0.148522 4.08135e-19)
(0.105151 0.108577 -5.48077e-19)
(0.149672 0.0645399 8.26196e-19)
(0.193801 0.0198272 1.24997e-21)
(0.235763 -0.022793 -2.75597e-19)
(0.274148 -0.0612478 5.52514e-19)
(0.307984 -0.094172 -5.52094e-19)
(0.336755 -0.120871 5.51212e-19)
(0.360365 -0.141223 0)
(0.379052 -0.155547 5.48129e-19)
(0.393291 -0.164461 0)
(0.403688 -0.16875 3.0349e-21)
(0.4109 -0.169253 -5.40412e-19)
(0.415568 -0.166782 -5.37082e-19)
(0.418279 -0.162073 5.33412e-19)
(0.419541 -0.155752 -5.2944e-19)
(0.419767 -0.148341 -5.25207e-19)
(0.419287 -0.140249 -1.04474e-18)
(0.418351 -0.131793 -5.16109e-19)
(0.417148 -0.123205 5.13208e-19)
(0.41581 -0.114653 -1.01742e-18)
(0.414441 -0.106256 -5.04639e-19)
(0.413085 -0.0980946 0)
(0.411489 -0.0902359 -5.18395e-19)
(-0.0218981 0.0541777 0)
(-0.0435765 0.126163 4.99661e-19)
(-0.0455234 0.171456 -3.85812e-19)
(-0.0321066 0.190733 -6.53078e-19)
(-0.00609851 0.188141 0)
(0.0293507 0.168519 0)
(0.071353 0.136694 -8.16218e-19)
(0.117236 0.097135 1.09378e-18)
(0.164511 0.0538082 -8.23584e-19)
(0.210939 0.0101002 0)
(0.25462 -0.0312664 2.76777e-19)
(0.294098 -0.0682863 -2.77027e-19)
(0.328426 -0.0996809 2.75559e-21)
(0.357166 -0.124847 -2.7795e-19)
(0.38033 -0.143747 -2.73044e-19)
(0.398276 -0.156765 -2.91432e-21)
(0.411588 -0.164562 5.42976e-19)
(0.420968 -0.167943 5.43366e-19)
(0.427144 -0.16775 1.03331e-21)
(0.430809 -0.164779 1.07209e-18)
(0.432582 -0.159739 -1.06565e-18)
(0.432987 -0.153233 1.05686e-18)
(0.432442 -0.145749 5.25202e-19)
(0.431277 -0.137671 5.20748e-19)
(0.429735 -0.12929 3.24536e-21)
(0.427996 -0.120817 0)
(0.426185 -0.112405 5.04949e-19)
(0.424397 -0.104163 -1.49924e-18)
(0.422671 -0.0961711 4.92208e-19)
(0.420744 -0.0885413 5.14423e-19)
(-0.022477 0.0516547 -3.42503e-19)
(-0.0443584 0.119742 -1.12185e-18)
(-0.0455688 0.162259 -1.74433e-22)
(-0.0305231 0.17972 2.14941e-21)
(-0.00216189 0.176101 -3.96068e-19)
(0.0361188 0.156071 0)
(0.081155 0.124334 -2.69325e-19)
(0.129997 0.0852857 -1.63298e-18)
(0.179911 0.0428458 8.21162e-19)
(0.228467 0.000348612 -5.46548e-19)
(0.273657 -0.0395513 8.21411e-19)
(0.313999 -0.0749384 -2.74131e-19)
(0.348594 -0.104637 5.49312e-19)
(0.377102 -0.128145 -1.36769e-18)
(0.399656 -0.145511 8.19557e-19)
(0.416741 -0.157181 -9.28382e-22)
(0.429052 -0.163856 -1.62395e-18)
(0.437381 -0.166351 5.3934e-19)
(0.442522 -0.1655 -5.35305e-19)
(0.445212 -0.162077 0)
(0.446094 -0.156762 5.27127e-19)
(0.445699 -0.150123 0)
(0.444448 -0.142617 -5.20708e-19)
(0.442662 -0.134599 5.15599e-19)
(0.440578 -0.126333 5.12858e-19)
(0.438364 -0.118012 5.04793e-19)
(0.436135 -0.109773 0)
(0.433981 -0.101714 0)
(0.431933 -0.0939158 -9.86131e-19)
(0.429723 -0.0865384 1.53001e-18)
(-0.0229465 0.0491446 3.4291e-19)
(-0.0447973 0.113218 6.21428e-19)
(-0.0450771 0.152802 -5.07408e-19)
(-0.0282503 0.16831 1.03773e-18)
(0.00256767 0.163582 1.34168e-19)
(0.0437303 0.143131 1.33391e-19)
(0.0917893 0.111541 2.31962e-21)
(0.143512 0.0731287 -5.39322e-19)
(0.195917 0.0317463 -2.70632e-19)
(0.246396 -0.00934455 2.59448e-21)
(0.292851 -0.0475813 -2.6357e-21)
(0.333802 -0.0811591 -8.1741e-19)
(0.368422 -0.10902 -2.71377e-19)
(0.396487 -0.13077 2.77297e-21)
(0.418269 -0.146545 5.41327e-19)
(0.43438 -0.15685 5.39411e-19)
(0.445626 -0.162412 2.9341e-21)
(0.452884 -0.164054 -5.34351e-19)
(0.457003 -0.162592 5.33193e-19)
(0.458756 -0.158769 -5.2889e-19)
(0.458801 -0.153231 -1.05113e-18)
(0.457671 -0.14651 -5.21826e-19)
(0.455781 -0.139029 1.03251e-18)
(0.453442 -0.131112 0)
(0.45088 -0.122997 -5.064e-19)
(0.448251 -0.114857 -1.00635e-18)
(0.44566 -0.106817 -9.96753e-19)
(0.443189 -0.098963 4.94438e-19)
(0.440867 -0.0913782 -1.46589e-18)
(0.438419 -0.0842731 5.0754e-19)
(-0.0233054 0.0466568 -5.66501e-19)
(-0.0448731 0.106627 1.23413e-19)
(-0.0439989 0.143151 5.07412e-19)
(-0.0252124 0.15659 -3.88529e-19)
(0.0081836 0.150684 1.32436e-19)
(0.0522827 0.129808 4.18755e-23)
(0.103343 0.0984297 1.34011e-18)
(0.157844 0.0607761 5.40562e-19)
(0.212559 0.0206153 5.42703e-19)
(0.264721 -0.0188869 8.15255e-19)
(0.312168 -0.0552838 -8.16026e-19)
(0.353449 -0.0869009 5.44397e-19)
(0.387839 -0.11281 1.08664e-18)
(0.415253 -0.132731 5.41762e-19)
(0.436105 -0.146883 -9.73111e-22)
(0.45114 -0.155825 -1.07694e-18)
(0.461271 -0.160304 1.07313e-18)
(0.467449 -0.161137 1.94052e-21)
(0.470571 -0.159115 -5.30124e-19)
(0.471436 -0.154947 5.25846e-19)
(0.470705 -0.149238 5.24001e-19)
(0.468909 -0.142482 -5.16788e-19)
(0.46645 -0.135066 -1.02991e-18)
(0.463627 -0.127283 -4.81985e-22)
(0.460651 -0.119347 5.07776e-19)
(0.457665 -0.111413 5.01557e-19)
(0.454765 -0.103591 9.90234e-19)
(0.452024 -0.0959595 -9.76278e-19)
(0.44947 -0.0886042 0)
(0.446827 -0.0817884 5.04459e-19)
(-0.0235515 0.0441968 2.07452e-21)
(-0.0445649 0.0999994 0)
(-0.0422866 0.133362 -3.76769e-19)
(-0.0213386 0.144641 -1.28474e-19)
(0.0147708 0.137509 -5.21298e-19)
(0.0618611 0.116216 0)
(0.115886 0.0851209 -8.01452e-19)
(0.173034 0.0483491 2.68487e-19)
(0.229847 0.00956653 0)
(0.283418 -0.0281803 -5.38725e-19)
(0.331556 -0.0625833 0)
(0.372876 -0.0921162 -8.09352e-19)
(0.406777 -0.11599 8.08172e-19)
(0.433332 -0.13404 -5.40035e-19)
(0.453109 -0.146564 -5.35695e-19)
(0.466982 -0.154165 0)
(0.475962 -0.157605 0)
(0.481065 -0.157683 5.30275e-19)
(0.483227 -0.155158 7.54202e-22)
(0.483259 -0.150699 5.22332e-19)
(0.48182 -0.144869 -5.19005e-19)
(0.479429 -0.13812 1.03227e-18)
(0.476474 -0.130803 -5.10606e-19)
(0.473234 -0.123182 0)
(0.469906 -0.115447 1.50673e-18)
(0.466619 -0.107735 -2.48201e-18)
(0.463457 -0.100145 4.93053e-19)
(0.46049 -0.0927486 4.88291e-19)
(0.457744 -0.0856348 4.79924e-19)
(0.454945 -0.0791228 9.99426e-19)
(-0.0236806 0.041766 -4.46659e-19)
(-0.0438515 0.0933593 9.77061e-19)
(-0.0398958 0.12349 5.02859e-19)
(-0.016565 0.132545 1.14942e-18)
(0.0224021 0.124158 1.42908e-18)
(0.0725337 0.102475 2.63135e-19)
(0.129468 0.071741 -1.3251e-18)
(0.189103 0.0359744 0)
(0.247766 -0.00128229 -1.06993e-18)
(0.302444 -0.0371249 -5.33488e-19)
(0.350953 -0.0694057 0)
(0.392008 -0.0967611 -5.33705e-19)
(0.425165 -0.118548 -1.07334e-21)
(0.450666 -0.134713 -1.60466e-18)
(0.469236 -0.145629 5.35694e-19)
(0.481877 -0.151934 5.32625e-19)
(0.489687 -0.15439 -1.05589e-18)
(0.493736 -0.153774 -1.05381e-18)
(0.494985 -0.150807 -6.81689e-22)
(0.494247 -0.146111 -1.85928e-21)
(0.492172 -0.140205 0)
(0.48926 -0.1335 -5.12321e-19)
(0.485878 -0.126311 -5.04795e-19)
(0.482287 -0.118873 0)
(0.478666 -0.111353 0)
(0.47513 -0.103874 1.48248e-18)
(0.471751 -0.096523 -1.46063e-18)
(0.468595 -0.089369 0)
(0.465691 -0.082505 1.43036e-18)
(0.462769 -0.0763084 -9.92578e-19)
(-0.0236868 0.0393626 4.33821e-21)
(-0.0427112 0.086725 -9.7686e-19)
(-0.0367853 0.113581 -1.24754e-19)
(-0.0108369 0.120377 -1.27625e-18)
(0.0311356 0.110733 -7.79016e-19)
(0.0843474 0.0887013 2.61884e-19)
(0.144112 0.0584185 5.31059e-19)
(0.206043 0.0237801 1.32661e-18)
(0.266276 -0.0118136 1.06992e-18)
(0.321733 -0.0456238 1.0722e-18)
(0.37028 -0.0756818 0)
(0.410768 -0.100798 5.34678e-21)
(0.442934 -0.120476 0)
(0.467202 -0.134772 1.06905e-18)
(0.484455 -0.144124 0)
(0.495812 -0.149193 -5.29737e-19)
(0.50245 -0.150734 5.32343e-19)
(0.505477 -0.149492 0)
(0.50587 -0.146142 0)
(0.504431 -0.141262 -1.54837e-18)
(0.501794 -0.135323 5.12875e-19)
(0.498435 -0.128693 0)
(0.494696 -0.121654 1.00877e-18)
(0.490818 -0.114412 1.00307e-18)
(0.486959 -0.107115 -1.9809e-18)
(0.48322 -0.0998723 1.96141e-18)
(0.479664 -0.0927627 3.40861e-21)
(0.476351 -0.085852 9.57474e-19)
(0.473314 -0.0792417 -9.53497e-19)
(0.470297 -0.0733695 0)
(-0.0235625 0.0369823 1.11621e-18)
(-0.0411219 0.0801099 -1.21152e-19)
(-0.0329184 0.103678 -9.91717e-19)
(-0.00410987 0.108209 0)
(0.041012 0.0973321 -1.02788e-18)
(0.0973261 0.0750136 0)
(0.159813 0.0452805 -1.31208e-18)
(0.223815 0.0118924 -7.96046e-19)
(0.285313 -0.0219141 -1.05944e-18)
(0.341203 -0.0535864 0)
(0.389449 -0.0813508 2.66311e-19)
(0.429074 -0.104198 2.71728e-19)
(0.460018 -0.121778 -5.3147e-19)
(0.482895 -0.134248 -1.05805e-18)
(0.498743 -0.142098 -5.25595e-19)
(0.508786 -0.146007 -2.10333e-18)
(0.514265 -0.146709 1.05024e-18)
(0.516318 -0.144911 -5.80923e-22)
(0.515917 -0.141242 -5.37839e-22)
(0.513852 -0.136227 1.54481e-18)
(0.510729 -0.130291 0)
(0.506996 -0.123763 0)
(0.502968 -0.116889 -2.82538e-21)
(0.498862 -0.109851 3.4786e-21)
(0.494817 -0.102778 -9.8099e-19)
(0.490918 -0.095768 -9.74608e-19)
(0.487217 -0.0888934 2.94433e-21)
(0.483772 -0.0822206 -9.57484e-19)
(0.480621 -0.0758624 -9.44179e-19)
(0.477532 -0.0703198 3.10992e-21)
(-0.0232983 0.0346191 0)
(-0.0390618 0.0735241 9.63264e-19)
(-0.0282636 0.0938184 8.67988e-19)
(0.00364886 0.0961101 1.2609e-19)
(0.0520534 0.084049 2.05075e-18)
(0.111469 0.0615257 -2.59335e-19)
(0.176539 0.0324502 2.09345e-18)
(0.242358 0.000430907 1.05041e-18)
(0.304788 -0.0314792 1.58788e-18)
(0.360754 -0.0609327 7.91523e-19)
(0.408363 -0.0863625 2.64976e-19)
(0.446844 -0.106943 1.32706e-18)
(0.476357 -0.122464 3.46336e-22)
(0.497711 -0.133173 5.3061e-19)
(0.512088 -0.139605 1.0546e-18)
(0.520809 -0.142439 1.05025e-18)
(0.52516 -0.142385 0)
(0.526294 -0.140106 0)
(0.525172 -0.136176 0)
(0.522556 -0.131073 0)
(0.519023 -0.125174 1.01083e-18)
(0.514987 -0.118768 0)
(0.510736 -0.11207 -3.42221e-21)
(0.506459 -0.105236 1.97127e-18)
(0.502276 -0.0983816 9.77628e-19)
(0.498256 -0.0915921 9.67891e-19)
(0.49444 -0.0849377 1.91635e-18)
(0.49088 -0.0784881 0)
(0.487623 -0.0723731 -1.87283e-18)
(0.484478 -0.0671595 1.95349e-18)
(-0.0228836 0.0322665 8.80363e-19)
(-0.0365093 0.0669756 -9.63284e-19)
(-0.0227949 0.0840381 0)
(0.0124597 0.0841437 -1.00191e-18)
(0.0642627 0.0709745 -2.60167e-19)
(0.12675 0.0483462 -7.7173e-19)
(0.194233 0.0200433 -2.34298e-18)
(0.261582 -0.010494 -5.09669e-21)
(0.324594 -0.0404156 -7.85834e-19)
(0.380275 -0.0675949 -1.84398e-18)
(0.426921 -0.0906794 -2.63642e-19)
(0.463999 -0.109024 -1.05132e-18)
(0.491901 -0.122552 -1.04971e-18)
(0.511626 -0.131587 0)
(0.524493 -0.136697 -1.04342e-18)
(0.531901 -0.138553 -1.55995e-18)
(0.53517 -0.13783 5.17937e-19)
(0.53545 -0.135141 -1.02724e-18)
(0.533682 -0.13101 -1.02031e-18)
(0.530594 -0.125862 0)
(0.526725 -0.120029 -2.01551e-18)
(0.522456 -0.113761 0)
(0.518044 -0.107243 -1.98398e-18)
(0.513653 -0.100609 -9.8127e-19)
(0.509379 -0.0939599 -1.94305e-18)
(0.505275 -0.0873717 9.61965e-19)
(0.501369 -0.0809128 -2.85555e-18)
(0.497706 -0.0746597 9.38777e-19)
(0.494342 -0.0687676 6.12133e-21)
(0.491149 -0.0638742 -9.7027e-19)
(-0.0223064 0.0299178 -8.80382e-19)
(-0.0334441 0.0604718 1.19612e-19)
(-0.0164928 0.0743689 8.54853e-19)
(0.0223304 0.0723703 1.00193e-18)
(0.077624 0.0581936 -1.01777e-18)
(0.143122 0.0355766 5.27073e-21)
(0.212811 0.00816608 1.03874e-18)
(0.281379 -0.0207838 -2.08439e-18)
(0.34461 -0.0486436 -2.56103e-19)
(0.399649 -0.0735201 2.35886e-18)
(0.445025 -0.0942774 -1.57104e-18)
(0.480467 -0.110446 2.62155e-18)
(0.506605 -0.122068 2.61768e-18)
(0.524626 -0.129534 -5.22e-19)
(0.535968 -0.133429 1.04344e-18)
(0.542092 -0.134408 1.55709e-18)
(0.544336 -0.133104 5.12577e-19)
(0.543836 -0.130079 5.91657e-21)
(0.541499 -0.125803 5.11519e-19)
(0.538016 -0.120649 5.04709e-19)
(0.533885 -0.114907 -4.94716e-19)
(0.529452 -0.108789 4.96377e-19)
(0.524941 -0.102452 -9.80849e-19)
(0.520489 -0.0960103 9.77896e-19)
(0.516171 -0.0895475 6.37278e-21)
(0.512022 -0.0831325 9.52283e-19)
(0.508054 -0.0768319 6.32371e-21)
(0.504296 -0.0707327 -9.35512e-19)
(0.500814 -0.0650283 3.19982e-21)
(0.497571 -0.0604297 0)
(-0.021554 0.0275674 0)
(-0.0298467 0.0540195 0)
(-0.00934364 0.0648418 -1.09916e-18)
(0.0332563 0.0608469 1.24225e-19)
(0.0921029 0.0457863 0)
(0.160514 0.0233109 1.02463e-18)
(0.232169 -0.00308571 2.57572e-19)
(0.301622 -0.0303531 7.802e-19)
(0.364704 -0.0560985 1.04347e-18)
(0.418757 -0.0786695 -1.04568e-18)
(0.462579 -0.0971455 1.04646e-18)
(0.496183 -0.111221 -1.04596e-18)
(0.52044 -0.121045 -1.04431e-18)
(0.53671 -0.127059 0)
(0.546535 -0.129856 0)
(0.551421 -0.130062 0)
(0.552707 -0.128265 -1.02768e-18)
(0.551503 -0.124974 1.5307e-18)
(0.548676 -0.120604 -5.05529e-19)
(0.544874 -0.115482 0)
(0.540552 -0.109853 1.4963e-18)
(0.53602 -0.103897 -4.93285e-19)
(0.531471 -0.0977418 9.80869e-19)
(0.527015 -0.0914799 -1.93366e-18)
(0.522705 -0.0851802 1.92071e-18)
(0.518553 -0.078901 -3.05873e-21)
(0.514552 -0.0727046 3.31257e-21)
(0.510709 -0.0666932 9.29187e-19)
(0.507089 -0.0611135 -4.29852e-22)
(0.503769 -0.0567423 9.59153e-19)
(-0.0206131 0.0252105 1.08781e-19)
(-0.0256997 0.0476271 -1.18185e-19)
(-0.00134085 0.0554871 2.42585e-19)
(0.04522 0.0496285 -1.48121e-18)
(0.107648 0.0338277 2.51147e-19)
(0.178837 0.0116347 0)
(0.252189 -0.0136277 1.02265e-18)
(0.322176 -0.0391308 -1.02872e-18)
(0.384743 -0.0627307 0)
(0.437481 -0.0830198 1.29433e-18)
(0.479495 -0.0992853 -2.59628e-19)
(0.511095 -0.111373 0)
(0.533386 -0.119522 -5.18204e-19)
(0.547885 -0.124212 1.03337e-18)
(0.556222 -0.126029 -5.14613e-19)
(0.559929 -0.125567 5.12472e-19)
(0.560332 -0.123364 -1.01898e-18)
(0.558504 -0.119873 -2.11584e-22)
(0.555266 -0.11546 -1.76445e-22)
(0.551216 -0.110404 -4.95801e-19)
(0.546771 -0.104911 -9.89333e-19)
(0.542203 -0.0991272 -1.81482e-22)
(0.537677 -0.0931552 3.11275e-21)
(0.53328 -0.0870645 9.65187e-19)
(0.529039 -0.0809042 -9.52454e-19)
(0.524943 -0.0747151 9.45986e-19)
(0.520953 -0.0685468 -1.86573e-18)
(0.51703 -0.0625181 -3.35596e-21)
(0.513237 -0.0569262 -1.82385e-18)
(0.509783 -0.052636 9.53857e-19)
(-0.0194694 0.0228432 0)
(-0.0209865 0.0413034 -9.39249e-19)
(0.00751654 0.0463352 0)
(0.0581934 0.0387679 5.20246e-21)
(0.124193 0.0223873 2.49836e-19)
(0.197987 0.00062433 -1.28317e-22)
(0.272737 -0.0233886 -2.04008e-18)
(0.342898 -0.0470609 7.72127e-19)
(0.404592 -0.0685071 0)
(0.455711 -0.0865624 -1.29302e-18)
(0.495699 -0.100711 2.58289e-19)
(0.525162 -0.110932 0)
(0.545433 -0.117541 -5.15481e-19)
(0.55817 -0.12104 5.13846e-19)
(0.565067 -0.121999 5.0908e-19)
(0.567666 -0.120972 1.01902e-18)
(0.567265 -0.118444 -5.06525e-19)
(0.564891 -0.114818 0)
(0.561315 -0.110408 0)
(0.557086 -0.10545 9.94522e-19)
(0.552579 -0.100115 -9.83083e-19)
(0.548035 -0.09452 9.74186e-19)
(0.543594 -0.0887401 9.68202e-19)
(0.539323 -0.0828219 9.55516e-19)
(0.535236 -0.0767889 -9.45843e-19)
(0.531295 -0.0706516 9.39339e-19)
(0.527415 -0.0644237 9.26314e-19)
(0.523445 -0.0582028 -9.16281e-19)
(0.51929 -0.0522395 2.7117e-21)
(0.515105 -0.0475286 1.89824e-18)
(-0.0181124 0.020468 1.0768e-19)
(-0.0156956 0.0350638 8.22534e-19)
(0.0172218 0.0374197 0)
(0.0721375 0.028317 9.81724e-19)
(0.141659 0.0115297 0)
(0.217848 -0.00965297 0)
(0.293674 -0.0323093 7.63848e-19)
(0.363642 -0.0541017 1.86914e-22)
(0.424121 -0.0734082 2.56281e-19)
(0.473349 -0.0893005 2.56748e-19)
(0.511125 -0.101443 -7.70932e-19)
(0.538356 -0.109935 5.13634e-19)
(0.556585 -0.115146 0)
(0.567591 -0.11759 0)
(0.573111 -0.11781 -1.02127e-18)
(0.57468 -0.116317 0)
(0.573556 -0.113544 -5.03822e-19)
(0.570714 -0.109841 5.00388e-19)
(0.566868 -0.105478 4.96731e-19)
(0.562521 -0.100651 -9.36668e-24)
(0.558006 -0.0954984 -4.88476e-19)
(0.553537 -0.0901116 0)
(0.549236 -0.0845443 -9.58553e-19)
(0.545162 -0.0788203 9.49142e-19)
(0.541326 -0.0729374 0)
(0.537704 -0.066863 0)
(0.534215 -0.0605383 0)
(0.53068 -0.0539221 0)
(0.526634 -0.047156 -9.00071e-19)
(0.522781 -0.0398571 1.88567e-18)
(0.283539 -0.0345295 -0.0276473)
(0.29606 -0.00791534 -0.0285675)
(0.305628 0.0182327 -0.0288151)
(0.309173 0.038128 -0.0290226)
(0.310432 0.0527642 -0.0291627)
(0.309624 0.0642369 -0.0292567)
(0.307323 0.074599 -0.0293069)
(0.303869 0.0847527 -0.0293276)
(0.29944 0.0948065 -0.0293291)
(0.29423 0.104627 -0.0293214)
(0.288348 0.114069 -0.029312)
(0.281881 0.123044 -0.0293068)
(0.274901 0.131536 -0.0293073)
(0.267485 0.139519 -0.0293132)
(0.259613 0.147001 -0.0293384)
(0.251503 0.153985 -0.0293822)