/*--------------------------------*- C++ -*----------------------------------*\
  =========                 |
  \\      /  F ield         | OpenFOAM: The Open Source CFD Toolbox
   \\    /   O peration     | Website:  https://openfoam.org
    \\  /    A nd           | Version:  7
     \\/     M anipulation  |
\*---------------------------------------------------------------------------*/
FoamFile
{
    version     2.0;
    format      ascii;
    class       surfaceScalarField;
    location    "80.1";
    object      phi;
}
// * * * * * * * * * * * * * * * * * * * * * * * * * * * * * * * * * * * * * //

dimensions      [0 3 -1 0 0 0 0];

internalField   nonuniform List<scalar> 
3880
(
-2.11995e-05
-0.000550184
0.000571384
-1.78849e-05
-0.00130479
0.00130148
2.44565e-05
-0.00173113
0.00168879
0.000113962
-0.0018763
0.0017868
0.000258299
-0.00177126
0.00162692
0.000466064
-0.00143694
0.00122917
0.000745761
-0.000888685
0.000608988
0.00110336
-0.000140222
-0.000217379
0.00153928
0.000792949
-0.00122886
0.00189174
0.00204496
-0.00239742
-1.04084e-05
-0.000539775
1.50284e-05
-0.00133023
8.49177e-05
-0.00180102
0.000203499
-0.00199488
0.000375961
-0.00194372
0.000609861
-0.00167084
0.000914074
-0.0011929
0.00129627
-0.00052242
0.00175954
0.000329679
0.00135292
0.00229836
5.55036e-06
-0.000545325
6.17314e-05
-0.00138641
0.000170461
-0.00190975
0.000330751
-0.00215517
0.000544243
-0.00215721
0.000816312
-0.0019429
0.00115515
-0.00153173
0.00156936
-0.000936634
0.00206461
-0.000165573
0.000778412
0.00263912
2.56471e-05
-0.000570973
0.000121091
-0.00148186
0.000279129
-0.00206779
0.000493086
-0.00236913
0.000760414
-0.00242454
0.00108351
-0.002266
0.00146897
-0.00191719
0.00192546
-0.00139312
0.00246065
-0.000700762
0.00016235
0.00307671
4.97566e-05
-0.000620729
0.00019091
-0.00162301
0.00040655
-0.00228343
0.000683814
-0.0026464
0.00101571
-0.00275643
0.00140133
-0.00265162
0.00184513
-0.00236099
0.00235514
-0.00190313
0.00294018
-0.0012858
-0.000503492
0.00360602
7.66897e-05
-0.000697419
0.000267715
-0.00181403
0.00054581
-0.00256152
0.000891832
-0.00299242
0.00129448
-0.00315909
0.00174969
-0.00310683
0.00225975
-0.00287105
0.00283174
-0.00247512
0.00347498
-0.00192904
-0.00122615
0.00419764
0.000105027
-0.000802445
0.000346937
-0.00205595
0.000687703
-0.00290229
0.00110202
-0.00340673
0.00157466
-0.00363173
0.00209887
-0.00363103
0.00267514
-0.00344732
0.00330988
-0.00310986
0.00401283
-0.00263199
-0.00200633
0.00479301
0.000133102
-0.000935547
0.000423202
-0.00234605
0.00082137
-0.00330045
0.00129641
-0.00388177
0.00182969
-0.00416502
0.00241231
-0.00421365
0.00304348
-0.0040785
0.00372949
-0.00379586
0.00448152
-0.00338403
-0.00283378
0.00530898
0.000159098
-0.00109464
0.000490696
-0.00267764
0.000935188
-0.00374495
0.00145598
-0.00440256
0.00203166
-0.00474069
0.00265171
-0.0048337
0.00331428
-0.00474107
0.0040255
-0.00450708
0.00479938
-0.00415791
-0.00368658
0.00565218
0.000181139
-0.00127578
0.000543579
-0.00304008
0.0010178
-0.00421916
0.00156267
-0.00494743
0.00215493
-0.00533296
0.00278326
-0.00546202
0.00344486
-0.00540267
0.00414437
-0.00520659
0.00489669
-0.00491023
0.00574642
-0.00453631
0.00354136
0.0169969
-0.0184933
0.00494279
0.0384847
-0.0398861
0.00543004
0.0599316
-0.0604188
0.00523405
0.079479
-0.079283
0.0046413
0.0989231
-0.0983303
0.0037867
0.119654
-0.118799
0.00275263
0.142943
-0.141909
0.00155418
0.173062
-0.171864
0.000513913
0.217488
-0.216448
0.270781
-0.270267
0.0038794
0.0154158
0.00559784
0.0367663
0.00638656
0.0591428
0.00637964
0.0794859
0.00587383
0.0994289
0.00501718
0.12051
0.00389821
0.144062
0.00253501
0.174425
0.00112723
0.218896
0.271908
0.00422197
0.013833
0.00621217
0.0347761
0.00731587
0.0580391
0.00751601
0.0792858
0.00710707
0.0998378
0.00625168
0.121366
0.00504759
0.145266
0.00351405
0.175959
0.00174504
0.220665
0.273653
0.00457661
0.0123331
0.00676601
0.0325867
0.00819103
0.0566141
0.00861766
0.0788591
0.0083196
0.100136
0.00747271
0.122213
0.00618745
0.146551
0.00448489
0.177662
0.00235598
0.222794
0.276009
0.00495255
0.0109866
0.00724662
0.0302926
0.00898683
0.0548739
0.00965971
0.0781862
0.00949006
0.100306
0.00866327
0.12304
0.00730427
0.14791
0.00543677
0.179529
0.00295519
0.225276
0.278964
0.00535195
0.00983225
0.00764936
0.0279952
0.00968144
0.0528418
0.0106185
0.0772492
0.0105976
0.100327
0.00980508
0.123832
0.00838312
0.149332
0.0063584
0.181554
0.00353549
0.228099
0.2825
0.00576009
0.00886517
0.00797423
0.025781
0.010258
0.0505581
0.011473
0.0760341
0.0116249
0.100175
0.0108857
0.124571
0.00941528
0.150803
0.0072438
0.183725
0.0040959
0.231246
0.286596
0.00613303
0.00804112
0.00821697
0.0236971
0.010704
0.0480711
0.0122032
0.0745349
0.0125476
0.0998302
0.0118789
0.12524
0.010377
0.152304
0.00807588
0.186026
0.00462428
0.234698
0.29122
0.00638962
0.00730368
0.00835509
0.0217316
0.0110047
0.0454215
0.0128053
0.0727343
0.01338
0.0992555
0.0128068
0.125813
0.0112898
0.153822
0.00886692
0.188449
0.00512898
0.238436
0.296349
0.00648326
0.00656684
0.00842865
0.0197862
0.0111655
0.0426846
0.0132155
0.0706844
0.0140285
0.0984425
0.0135813
0.12626
0.0121046
0.155298
0.00956923
0.190985
0.00561932
0.242386
0.301968
0.0195142
0.0116384
-0.0245857
0.0151281
0.0241723
0.0132392
0.0445735
0.0120671
0.0718565
0.0104922
0.100017
0.0084421
0.12831
0.00588074
0.15786
0.00285371
0.194012
0.000333655
0.244906
0.302302
0.0203613
0.0153155
-0.0240384
0.0157776
0.0287559
0.0129968
0.0473543
0.011539
0.0733143
0.00998704
0.101569
0.00798004
0.130317
0.00546801
0.160372
0.00259103
0.196889
0.00025656
0.24724
0.302558
0.0199824
0.0174359
-0.0221028
0.0161656
0.0325728
0.0129889
0.050531
0.0110677
0.0752356
0.00937296
0.103264
0.00741791
0.132272
0.00504051
0.162749
0.00232562
0.199603
0.000181823
0.249384
0.30274
0.0186897
0.0184701
-0.019724
0.015811
0.0354515
0.0128292
0.0535127
0.0107334
0.0773313
0.00894176
0.105056
0.00700924
0.134205
0.00472295
0.165035
0.00218115
0.202145
0.000179979
0.251385
0.30292
0.0170033
0.0187052
-0.0172384
0.0149429
0.0375119
0.0123664
0.0560892
0.0102947
0.0794031
0.00849033
0.10686
0.00659482
0.1361
0.00440005
0.16723
0.0019901
0.204555
0.000128098
0.253247
0.303048
0.0150904
0.0182279
-0.014613
0.0137677
0.0388345
0.0116327
0.0582242
0.00978685
0.081249
0.0081266
0.10852
0.00632176
0.137905
0.00421066
0.169341
0.00192477
0.206841
0.000158137
0.255014
0.303206
0.0131323
0.0170625
-0.0119669
0.0125709
0.0393959
0.0108797
0.0599154
0.0091763
0.0829524
0.00763409
0.110063
0.00596067
0.139579
0.00397382
0.171328
0.00178925
0.209026
0.000123527
0.25668
0.30333
0.0110835
0.0152934
-0.00931449
0.0111796
0.0392999
0.0100578
0.0610372
0.00870558
0.0843046
0.00732945
0.111439
0.00575935
0.141149
0.00385576
0.173232
0.00178802
0.211093
0.000189355
0.258278
0.303519
0.00959274
0.0127309
-0.0070302
0.0103757
0.038517
0.0095406
0.0618723
0.00825912
0.0855861
0.00696764
0.11273
0.00550776
0.142609
0.00369427
0.175045
0.00170123
0.213086
0.000169114
0.259811
0.303688
0.00712426
-0.00400547
0.00907095
0.00916928
0.00821479
0.00697954
0.00549529
0.00373738
0.00175765
0.00028499
0.00578992
-0.024869
-0.00550664
0.00541899
-0.0236674
0.00472188
-0.0214057
0.00392613
-0.0189283
0.00308951
-0.0164017
0.00222727
-0.0137508
0.00134472
-0.0110844
0.00047631
-0.00844608
-0.000535808
-0.00601808
-0.0032036
0.00487794
-0.0247652
-0.00498174
0.00423357
-0.0230231
0.00338635
-0.0205585
0.00249116
-0.0180331
0.00157877
-0.0154894
0.00065771
-0.0128297
-0.000269205
-0.0101575
-0.00117127
-0.00754401
-0.00214198
-0.00504737
-0.00244987
0.00378413
-0.0243378
-0.00421158
0.00291263
-0.0221516
0.00194803
-0.0195939
0.000971757
-0.0170568
-3.3154e-06
-0.0145143
-0.000952688
-0.0118804
-0.00189018
-0.00921999
-0.00279099
-0.00664321
-0.00368577
-0.00415259
-0.0017919
0.00250516
-0.0236474
-0.00319553
0.0014679
-0.0211143
0.000421852
-0.0185478
-0.000605306
-0.0160296
-0.00160288
-0.0135167
-0.00256691
-0.0109163
-0.00348574
-0.00830117
-0.00434431
-0.00578464
-0.00513445
-0.00336246
-0.00125109
0.00105939
-0.0227413
-0.00196548
-8.50583e-05
-0.0199698
-0.00117033
-0.0174626
-0.0022181
-0.0149819
-0.0032134
-0.0125214
-0.00415234
-0.0099774
-0.00502155
-0.00743196
-0.00580481
-0.00500137
-0.00647069
-0.00269658
-0.00083361
-0.000495517
-0.0216756
-0.000570201
-0.00170122
-0.0187641
-0.0027954
-0.0163684
-0.00382949
-0.0139478
-0.00479139
-0.0115595
-0.00567619
-0.0090926
-0.0064692
-0.00663895
-0.00715286
-0.00431771
-0.00768632
-0.00216312
-0.000535529
-0.0021193
-0.020477
0.000920733
-0.00333431
-0.0175491
-0.00440503
-0.0152977
-0.00539756
-0.0129552
-0.00630033
-0.0106567
-0.00710778
-0.00828515
-0.00780573
-0.005941
-0.00837623
-0.00374721
-0.00877955
-0.0017598
-0.000345747
-0.00373761
-0.0191929
0.00245346
-0.00492921
-0.0163575
-0.00595332
-0.0142736
-0.00688233
-0.0120262
-0.00770735
-0.00983172
-0.00842214
-0.00757035
-0.00901527
-0.00534787
-0.00946973
-0.00329275
-0.00975356
-0.00147597
-0.000248686
-0.00529468
-0.0178679
0.00396977
-0.00643755
-0.0152147
-0.00739904
-0.0133121
-0.00824966
-0.0111756
-0.00898636
-0.00909502
-0.00960179
-0.00695492
-0.0100894
-0.00486031
-0.0104341
-0.00294798
-0.010615
-0.00129509
-0.000226466
-0.00674122
-0.0165409
0.00541421
-0.00781903
-0.0141369
-0.00870912
-0.012422
-0.00947371
-0.010411
-0.0101195
-0.00844919
-0.0106371
-0.0064374
-0.0110263
-0.00447112
-0.0112747
-0.00269955
-0.0113726
-0.00119721
-0.000260465
-0.00803909
-0.015243
0.00674119
-0.00904329
-0.0131327
-0.00986021
-0.011605
-0.0105378
-0.00973338
-0.0110975
-0.00788952
-0.0115255
-0.00600939
-0.0118296
-0.00416702
-0.0119997
-0.0025295
-0.0120359
-0.00116096
-0.000332269
-0.0091679
-0.0139971
0.00792199
-0.0100934
-0.0122072
-0.0108405
-0.0108579
-0.0114357
-0.00913818
-0.0119191
-0.00740614
-0.012271
-0.00565748
-0.0125071
-0.00393093
-0.012619
-0.00241755
-0.0126149
-0.0011651
-0.000424143
-0.0101143
-0.0128187
0.0089359
-0.0109601
-0.0113614
-0.0116452
-0.0101729
-0.0121673
-0.00861599
-0.0125882
-0.0069853
-0.012881
-0.00536466
-0.0130684
-0.00374358
-0.0131433
-0.0023426
-0.0131192
-0.00118925
-0.000519221
-0.0108762
-0.0117153
0.0097728
-0.011644
-0.0105936
-0.0122775
-0.00953935
-0.0127396
-0.00815393
-0.0131136
-0.00661131
-0.0133662
-0.00511204
-0.0135246
-0.00358513
-0.0135833
-0.00228392
-0.0135582
-0.00121439
-0.000601535
-0.0114593
-0.0106855
0.0104295
-0.0121527
-0.00990015
-0.0127461
-0.00894594
-0.0131635
-0.00773656
-0.0135067
-0.00626806
-0.0137386
-0.00488015
-0.0138875
-0.00343625
-0.0139496
-0.00222183
-0.0139411
-0.00122289
-0.000655934
-0.0118749
-0.00971739
0.0109067
-0.0124996
-0.00927542
-0.0130631
-0.00838239
-0.0134529
-0.00734681
-0.0137808
-0.00594016
-0.014011
-0.00464992
-0.0141686
-0.00327869
-0.0142524
-0.00213799
-0.0142768
-0.00119851
-0.000667974
-0.0121362
-0.00878736
0.0112062
-0.0127019
-0.00870975
-0.0132425
-0.00784177
-0.0136225
-0.00696677
-0.0139493
-0.00561345
-0.0141958
-0.00440333
-0.014379
-0.00309556
-0.0145015
-0.00201543
-0.014574
-0.00112609
-0.000623794
-0.0122486
-0.00786823
0.0113295
-0.0127734
-0.00818498
-0.0132957
-0.00731942
-0.0136852
-0.00657733
-0.0140245
-0.00527414
-0.0143045
-0.00412332
-0.0145291
-0.00287095
-0.0147062
-0.00183831
-0.014841
-0.000991264
-0.000509967
-0.0122089
-0.00694453
0.0112852
-0.0127276
-0.00766631
-0.0132355
-0.00681146
-0.0136532
-0.00615964
-0.0140187
-0.00490865
-0.0143479
-0.00379414
-0.0146288
-0.00259005
-0.0148753
-0.00159183
-0.0150863
-0.000780273
-0.000313282
-0.012067
-0.00599487
0.0111174
-0.0126157
-0.00711766
-0.0130936
-0.00633353
-0.0135425
-0.00571076
-0.013944
-0.00450711
-0.0143337
-0.00340447
-0.0146858
-0.00223798
-0.0150162
-0.00126139
-0.0153189
-0.000477635
-2.15279e-05
-0.0534456
-0.00573831
0.053189
-0.0548298
-0.00573342
-0.0562697
-0.00489371
-0.0577027
-0.00427771
-0.0588834
-0.00332647
-0.0598073
-0.00248054
-0.0604285
-0.00161681
-0.0607798
-0.000910013
-0.0609088
-0.000348678
-2.64721e-05
-0.062919
-0.00560682
0.0627875
-0.0637774
-0.00487501
-0.0646009
-0.00407023
-0.0655132
-0.00336541
-0.0662568
-0.00258287
-0.0668434
-0.00189392
-0.0672268
-0.00123344
-0.0674318
-0.00070503
-0.0674962
-0.000284305
-3.28776e-05
-0.0744721
-0.0056155
0.0744808
-0.0749061
-0.00444097
-0.0753598
-0.00361657
-0.0759127
-0.00281253
-0.0763519
-0.00214367
-0.0767193
-0.00152648
-0.0769409
-0.00101184
-0.0770582
-0.000587789
-0.0770816
-0.000260882
-3.63898e-05
-0.0888753
-0.00561952
0.0888793
-0.0891555
-0.00416073
-0.0894186
-0.00335342
-0.0897752
-0.00245594
-0.0900358
-0.00188306
-0.0902774
-0.00128493
-0.0904074
-0.000881846
-0.0904885
-0.000506628
-0.0904978
-0.000251639
-3.41424e-05
-0.106313
-0.00540145
0.106095
-0.106617
-0.00385764
-0.106862
-0.00310767
-0.107157
-0.00216099
-0.10736
-0.00167992
-0.107561
-0.00108464
-0.107669
-0.0007731
-0.10776
-0.000416417
-0.107787
-0.000224101
-1.7406e-05
-0.125737
-0.00485958
0.125195
-0.126194
-0.00340126
-0.126558
-0.00274294
-0.126886
-0.00183361
-0.127124
-0.00144114
-0.127336
-0.000873029
-0.127473
-0.000636113
-0.127598
-0.000291129
-0.127661
-0.000161479
9.91895e-06
-0.144929
-0.0039681
0.144038
-0.145588
-0.00274221
-0.146124
-0.00220702
-0.146523
-0.00143488
-0.146834
-0.0011301
-0.147068
-0.000638984
-0.147245
-0.000459349
-0.147384
-0.000152403
-0.147466
-7.92517e-05
3.55895e-05
-0.161227
-0.00279242
0.160051
-0.16206
-0.00190879
-0.162736
-0.00153082
-0.163194
-0.000976876
-0.163558
-0.000766117
-0.163793
-0.000404466
-0.163975
-0.000277489
-0.164081
-4.62547e-05
-0.164144
-1.55679e-05
4.27242e-05
-0.172673
-0.0014401
0.171321
-0.173611
-0.0009711
-0.174364
-0.000777133
-0.174852
-0.000489564
-0.175234
-0.000383457
-0.175447
-0.000191872
-0.175599
-0.000125524
-0.175645
-2.48053e-07
-0.175667
6.94856e-06
2.83417e-05
-0.178492
0.177052
-0.179463
-0.18024
-0.18073
-0.181113
-0.181305
-0.18143
-0.181431
-0.181424
-0.0123038
0.0541991
0.0112937
-0.012996
0.0634797
-0.0135551
0.0750399
-0.0138481
0.0891723
-0.0136469
0.105894
-0.0126621
0.12421
-0.0106952
0.142071
-0.00776072
0.157116
-0.00408335
0.167643
0.172968
-0.0116571
0.0549372
0.0109191
-0.0123043
0.0641269
-0.0127975
0.0755331
-0.0130035
0.0893783
-0.0127234
0.105614
-0.0117118
0.123199
-0.00981875
0.140178
-0.00708227
0.15438
-0.00371139
0.164272
0.169257
-0.0110513
0.0556144
0.0103741
-0.0116354
0.0647111
-0.0120525
0.0759501
-0.0121843
0.0895101
-0.0118529
0.105283
-0.0108487
0.122195
-0.0090518
0.138381
-0.00650649
0.151835
-0.00340242
0.161168
0.165854
-0.0103507
0.0562701
0.00969503
-0.0108762
0.0652365
-0.0112122
0.0762861
-0.0112702
0.0895681
-0.0108964
0.104909
-0.0099145
0.121213
-0.0082319
0.136698
-0.00589613
0.149499
-0.00307652
0.158349
0.162778
-0.00953748
0.0568964
0.0089112
-0.0100078
0.0657069
-0.0102713
0.0765496
-0.0102674
0.0895642
-0.00986686
0.104508
-0.00892554
0.120271
-0.00737423
0.135147
-0.00526218
0.147387
-0.00273916
0.155826
0.160039
-0.00863111
0.0574825
0.00804499
-0.00903912
0.0661149
-0.00923394
0.0767444
-0.0091793
0.0895095
-0.00876858
0.104098
-0.00788694
0.11939
-0.00648459
0.133745
-0.00461
0.145512
-0.00239357
0.153609
0.157645
-0.00765083
0.0580191
0.00711417
-0.0079907
0.0664548
-0.00811773
0.0768715
-0.00802033
0.0894121
-0.00761271
0.10369
-0.00680699
0.118584
-0.00556893
0.132507
-0.00394375
0.143887
-0.00204202
0.151708
0.155603
-0.00661208
0.0584949
0.00613632
-0.00688226
0.0667249
-0.0069434
0.0769326
-0.00681009
0.0892788
-0.00641607
0.103296
-0.00569864
0.117867
-0.00463615
0.131444
-0.0032688
0.14252
-0.00168702
0.150126
0.153916
-0.00553179
0.0588966
0.00513007
-0.00573327
0.0669264
-0.00573096
0.0769303
-0.00556836
0.0891162
-0.00519632
0.102924
-0.00457625
0.117247
-0.0036966
0.130565
-0.00259155
0.141415
-0.00133163
0.148866
0.152585
-0.00442795
0.0592096
0.004115
-0.0045647
0.0670632
-0.00450006
0.0768657
-0.00431427
0.0889304
-0.00397019
0.10258
-0.0034536
0.11673
-0.00276052
0.129871
-0.00191864
0.140573
-0.000979138
0.147926
0.151605
-0.00333036
0.0594243
0.00311565
-0.00340269
0.0671355
-0.00327553
0.0767385
-0.00307053
0.0887254
-0.00275703
0.102266
-0.00234652
0.116319
-0.00183988
0.129365
-0.00125789
0.139991
-0.000633421
0.147302
0.150972
-0.00226174
0.0595428
0.00214318
-0.00226325
0.067137
-0.00207995
0.0765552
-0.00185531
0.0885008
-0.00157341
0.101984
-0.00126625
0.116012
-0.00094203
0.129041
-0.000615219
0.139664
-0.000297432
0.146984
0.150675
-0.00125484
0.0595801
0.00121762
-0.00117357
0.0670557
-0.000947027
0.0763287
-0.000701072
0.0882549
-0.000453913
0.101737
-0.000246728
0.115805
-9.89646e-05
0.128893
-1.76218e-05
0.139583
1.33376e-05
0.146953
0.150688
-0.000342497
0.0595762
0.000346328
-0.000163599
0.0668768
8.41761e-05
0.0760809
0.000384862
0.0879542
0.000617509
0.101505
0.00074185
0.115681
0.00072996
0.128905
0.000582404
0.13973
0.000326563
0.147209
0.151014
0.000536108
0.0595028
-0.000462645
0.000809354
0.0666036
0.00112537
0.0757649
0.00143012
0.0876494
0.00163543
0.101299
0.00167241
0.115644
0.0015044
0.129073
0.00113677
0.140098
0.000615031
0.147731
0.15163
0.00135626
0.0593537
-0.0012072
0.00169585
0.066264
0.00205079
0.0754099
0.00237782
0.0873224
0.00256479
0.101112
0.00252684
0.115682
0.00221771
0.129382
0.00164786
0.140668
0.00088019
0.148498
0.15251
0.00207894
0.0591673
-0.00189258
0.00248839
0.0658546
0.00287848
0.0750198
0.00322847
0.0869724
0.00340423
0.100937
0.00330383
0.115782
0.00286962
0.129816
0.00211587
0.141421
0.00112231
0.149492
0.153632
0.00271581
0.0589792
-0.00252763
0.00318533
0.0653851
0.00360323
0.0746019
0.00397081
0.0866048
0.00413723
0.10077
0.00398406
0.115935
0.00344152
0.130359
0.00252636
0.142337
0.00133325
0.150685
0.154965
0.00329088
0.0588204
-0.00313217
0.00380463
0.0648713
0.00424952
0.074157
0.00463503
0.0862193
0.0047992
0.100606
0.00460385
0.116131
0.00396486
0.130998
0.00290148
0.1434
0.00152467
0.152062
0.15649
0.0036999
0.0588277
-0.00370714
0.0042152
0.064356
0.00468497
0.0736873
0.00507825
0.085826
0.00524031
0.100444
0.00502054
0.11635
0.00432048
0.131698
0.00315701
0.144563
0.00165119
0.153568
0.158141
-0.0396272
0.0540179
0.0444369
-0.0358374
0.0605662
-0.0333419
0.0711917
-0.0307428
0.083227
-0.0276828
0.097384
-0.0237899
0.112458
-0.0189066
0.126814
-0.0131298
0.138787
-0.00671616
0.147154
0.151425
-0.0482906
0.0499006
0.052408
-0.0448812
0.0571569
-0.0418116
0.0681221
-0.0383273
0.0797426
-0.0343242
0.0933808
-0.0293218
0.107455
-0.023201
0.120694
-0.016085
0.131671
-0.00826404
0.139333
0.143161
-0.0581749
0.0459574
0.062118
-0.0547063
0.0536883
-0.0509494
0.0643652
-0.0465784
0.0753716
-0.0414508
0.0882532
-0.0350806
0.101085
-0.0275181
0.113131
-0.0189206
0.123073
-0.00958712
0.129999
0.133574
-0.0701167
0.0422164
0.0738577
-0.0661311
0.0497027
-0.0615292
0.0597632
-0.056157
0.0699995
-0.0497137
0.0818099
-0.0417754
0.0931467
-0.032578
0.103934
-0.0223291
0.112824
-0.0114043
0.119075
0.12217
-0.0834507
0.0378637
0.0878034
-0.0786452
0.0448973
-0.0729598
0.0540778
-0.0661513
0.0631909
-0.0578983
0.0735569
-0.0480322
0.0832806
-0.0369689
0.0928705
-0.0249195
0.100775
-0.0123778
0.106533
0.109792
-0.0988955
0.0334812
0.103278
-0.0929438
0.0389456
-0.085932
0.047066
-0.0773992
0.0546581
-0.0672365
0.0633943
-0.0554995
0.0715435
-0.0425192
0.0798902
-0.028593
0.0868486
-0.0144976
0.0924376
0.0952941
-0.113666
0.0272603
0.119887
-0.106444
0.0317241
-0.0977399
0.0383617
-0.0870124
0.0439306
-0.0746155
0.0509974
-0.0605171
0.0574451
-0.0450493
0.0644223
-0.0287438
0.0705432
-0.0129644
0.0766582
0.0823297
-0.129418
0.0210869
0.135591
-0.12098
0.0232864
-0.110781
0.0281629
-0.0986062
0.0317557
-0.0847941
0.0371853
-0.0690971
0.0417481
-0.0520847
0.0474099
-0.034396
0.0528545
-0.018124
0.0603862
0.0642057
-0.143473
0.0102169
0.154343
-0.131852
0.011666
-0.117965
0.0142752
-0.102358
0.0161487
-0.0843845
0.019212
-0.0644355
0.0217992
-0.0424434
0.0254178
-0.0193123
0.0297234
0.0024187
0.0386552
0.0666244
-0.243522
0.253739
-0.231856
-0.217581
-0.201432
-0.18222
-0.160421
-0.135003
-0.10528
-0.0666244
0.00187545
0.0460049
-0.00344339
0.000472148
0.0538113
-0.000549875
0.0631401
-0.00127513
0.074583
-0.0017244
0.0882526
-0.001888
0.103441
-0.00166045
0.119659
-0.00125837
0.135189
-0.00180634
0.154891
0.251932
0.00225287
0.0475406
-0.00378861
0.000888984
0.0551752
-0.000184102
0.0642131
-0.000939501
0.0753384
-0.00143471
0.0887479
-0.00163184
0.103639
-0.00148563
0.119513
-0.00113083
0.134834
-0.00160053
0.155361
0.250332
0.00270864
0.0489755
-0.00414354
0.0013844
0.0564994
0.00033132
0.0652662
-0.000452935
0.0761226
-0.00096808
0.089263
-0.00120876
0.103879
-0.00113703
0.119441
-0.000888416
0.134586
-0.0013951
0.155867
0.248937
0.00316447
0.0503132
-0.00450216
0.00188515
0.0577787
0.00087016
0.0662812
5.12984e-05
0.0769415
-0.000433338
0.0897476
-0.000720135
0.104166
-0.000701629
0.119423
-0.000588179
0.134472
-0.00113041
0.156409
0.247806
0.0036127
0.0515524
-0.0048519
0.00239745
0.058994
0.00142876
0.0672499
0.000669
0.0777013
0.000140242
0.0902764
-0.000194762
0.104501
-0.000207383
0.119435
-0.000243945
0.134509
-0.000819487
0.156985
0.246987
0.00406974
0.0526642
-0.00518158
0.00294196
0.0601218
0.00202729
0.0681646
0.00130883
0.0784197
0.000795778
0.0907894
0.000435269
0.104862
0.000329849
0.119541
0.000170177
0.134668
-0.000468153
0.157623
0.246519
0.00453451
0.0536129
-0.00548316
0.00351674
0.0611395
0.00266597
0.0690153
0.00199301
0.0790927
0.0014918
0.0912907
0.00112147
0.105232
0.000916123
0.119746
0.000667732
0.134917
-7.2165e-05
0.158363
0.246447
0.00499972
0.0543625
-0.00574935
0.00411126
0.062028
0.00333509
0.0697915
0.0027147
0.0797131
0.00222916
0.0917762
0.00184241
0.105619
0.00155135
0.120037
0.00118615
0.135282
0.000318922
0.15923
0.246765
0.00545813
0.0548763
-0.00597187
0.0047141
0.062772
0.00402324
0.0704824
0.00346253
0.0802738
0.00299979
0.0922389
0.00259605
0.106022
0.00222219
0.120411
0.00173346
0.135771
0.0007408
0.160223
0.247506
0.0058966
0.0551209
-0.00614125
0.00531275
0.0633559
0.00471869
0.0710764
0.00422463
0.0807678
0.00379297
0.0926706
0.00337297
0.106442
0.00291881
0.120865
0.00230573
0.136384
0.00118506
0.161344
0.248691
0.00629595
0.0550698
-0.0062448
0.0058891
0.0637627
0.00540524
0.0715603
0.00498399
0.0811891
0.0045902
0.0930644
0.00415802
0.106875
0.00362845
0.121395
0.00289316
0.137119
0.00164148
0.162595
0.250333
0.00664769
0.0547064
-0.00628436
0.00643527
0.0639752
0.00607435
0.0719212
0.00573273
0.0815307
0.00538316
0.093414
0.00494482
0.107313
0.00434562
0.121994
0.00349144
0.137973
0.00210666
0.16398
0.252439
0.00693302
0.0540292
-0.0062558
0.00693199
0.0639762
0.00670473
0.0721485
0.00645013
0.0817853
0.00615184
0.0937123
0.00571598
0.107749
0.00505542
0.122654
0.00408937
0.138939
0.00257332
0.165496
0.255013
0.00713986
0.0530527
-0.00616335
0.00736407
0.063752
0.00727992
0.0722326
0.00711931
0.0819459
0.00687999
0.0939516
0.00645676
0.108172
0.00574534
0.123366
0.00467761
0.140007
0.00303467
0.167139
0.258047
0.00725928
0.0518103
-0.00601685
0.00771827
0.063293
0.00778487
0.072166
0.0077242
0.0820066
0.00755232
0.0941235
0.00715277
0.108572
0.00640368
0.124115
0.00524738
0.141163
0.00348496
0.168902
0.261532
0.00728764
0.0503554
-0.00583272
0.00798451
0.0625961
0.00820571
0.0719448
0.00825007
0.0819622
0.00815416
0.0942194
0.00778904
0.108937
0.00701761
0.124886
0.00578866
0.142392
0.00391534
0.170775
0.265448
0.00722994
0.0487584
-0.00563297
0.00815622
0.0616698
0.00853222
0.0715688
0.00868594
0.0818085
0.0086735
0.0942318
0.00835584
0.109254
0.00758012
0.125662
0.00629649
0.143676
0.00432224
0.172749
0.26977
0.00710255
0.0470948
-0.005439
0.00823063
0.0605417
0.00875639
0.0710431
0.00901838
0.0815465
0.00909213
0.0941581
0.00883182
0.109515
0.00806945
0.126425
0.00675512
0.14499
0.00469097
0.174813
0.274461
0.00691715
0.0454224
-0.00524472
0.00821539
0.0592435
0.00889403
0.0703644
0.00926711
0.0811734
0.00943249
0.0939927
0.00924111
0.109706
0.00850606
0.12716
0.00717905
0.146317
0.00502921
0.176963
0.27949
0.00662834
0.0437333
-0.00493924
0.00799362
0.0578782
0.0088236
0.0695345
0.0093049
0.0806921
0.0095693
0.0937283
0.00946081
0.109815
0.0087942
0.127826
0.0074835
0.147628
0.00532699
0.17912
0.284817
-0.0203794
0.0429961
0.0211166
-0.0178515
0.0553503
-0.0148405
0.0665235
-0.0115964
0.077448
-0.00834104
0.090473
-0.00490704
0.106381
-0.00135742
0.124277
0.00142366
0.144847
0.00136124
0.179182
0.286178
-0.0341762
0.0409518
0.0362206
-0.0308815
0.0520556
-0.0266016
0.0622435
-0.0219042
0.0727506
-0.0170369
0.0856057
-0.0117598
0.101103
-0.0062447
0.118761
-0.00156796
0.14017
-2.62657e-05
0.17764
0.286152
-0.0491676
0.0381499
0.0519694
-0.0447919
0.0476799
-0.0391769
0.0566286
-0.0331042
0.0666779
-0.0266332
0.0791347
-0.0193751
0.0938454
-0.0116778
0.111064
-0.00487234
0.133365
-0.00152953
0.174298
0.284623
-0.0655691
0.0345497
0.0691692
-0.0598345
0.0419454
-0.0530935
0.0498875
-0.0457462
0.0593306
-0.0374921
0.0708806
-0.0280218
0.084375
-0.0179747
0.101017
-0.0088636
0.124254
-0.00327667
0.168711
0.281346
-0.0837149
0.0296059
0.0886587
-0.076876
0.0351065
-0.0693268
0.0423383
-0.060501
0.0505049
-0.0502056
0.0605852
-0.0384311
0.0726006
-0.025943
0.0885289
-0.014229
0.11254
-0.00576547
0.160247
0.27558
-0.104368
0.0241878
0.109786
-0.0966192
0.027358
-0.0879621
0.0336812
-0.0773567
0.0398994
-0.0651227
0.0483512
-0.0512798
0.0587577
-0.036528
0.0737772
-0.0221185
0.0981299
-0.0102142
0.148343
0.265366
-0.127736
0.0169474
0.134976
-0.119529
0.0191512
-0.109967
0.024119
-0.098281
0.0282138
-0.0850354
0.0351056
-0.0697474
0.0434697
-0.0533214
0.0573511
-0.0361229
0.0809314
-0.0190178
0.131238
0.246349
-0.158802
0.00957817
0.166171
-0.150049
0.0103981
-0.139669
0.0137391
-0.127588
0.016133
-0.113738
0.0212561
-0.0978623
0.0275936
-0.0802686
0.0397575
-0.0608656
0.0615284
-0.0367631
0.107135
0.209585
-0.214122
0.00278105
0.220919
-0.207049
0.00332508
-0.198122
0.0048121
-0.188265
0.00627589
-0.176201
0.00919225
-0.162026
0.0134186
-0.143776
0.0215075
-0.118152
0.0359043
-0.0757853
0.0647683
0.1338
-0.293004
0.295785
-0.289679
-0.284867
-0.278591
-0.269399
-0.25598
-0.234473
-0.198568
-0.1338
0.00233097
0.0220932
-0.00330754
0.000595936
0.0379556
-0.00110629
0.0536717
-0.00260745
0.0706704
-0.00381523
0.0898665
-0.00478531
0.110756
-0.0053168
0.135507
-0.00565022
0.166504
-0.00444601
0.219715
0.291339
0.00210127
0.0227195
-0.0027276
0.000679521
0.0393773
-0.000892273
0.0552435
-0.00234722
0.0721253
-0.00355337
0.0910727
-0.00451094
0.111713
-0.00506995
0.136067
-0.00541945
0.166854
-0.00424519
0.218541
0.287094
0.00198773
0.0230489
-0.00231712
0.000865892
0.0404992
-0.000534486
0.0566438
-0.00187989
0.0734707
-0.00303488
0.0922277
-0.00396506
0.112644
-0.00456134
0.136663
-0.00489445
0.167187
-0.0038781
0.217525
0.283216
0.00195914
0.0231227
-0.00203299
0.00112274
0.0413356
-0.000111737
0.0578783
-0.00131761
0.0746766
-0.00239574
0.0933058
-0.00330498
0.113553
-0.00392684
0.137285
-0.00429553
0.167556
-0.00345312
0.216682
0.279763
0.00200898
0.0229557
-0.00184194
0.00146261
0.0418819
0.00044818
0.0588928
-0.000669524
0.0757943
-0.00166752
0.0943038
-0.00255429
0.11444
-0.00320755
0.137938
-0.00363209
0.16798
-0.00297947
0.216029
0.276783
0.00213764
0.0225444
-0.00172639
0.00189114
0.0421285
0.00110062
0.0596833
6.55792e-05
0.0768294
-0.00083511
0.0952045
-0.00170871
0.115313
-0.00240097
0.13863
-0.0029022
0.168481
-0.00246481
0.215592
0.274319
0.00233606
0.0218844
-0.00167605
0.00240117
0.0420634
0.00184278
0.0602416
0.000992053
0.0776801
0.000104098
0.0960924
-0.000773342
0.116191
-0.00149901
0.139356
-0.00210875
0.169091
-0.00191536
0.215399
0.272403
0.00259107
0.0209775
-0.00168414
0.00298001
0.0416744
0.00266357
0.0605581
0.0019679
0.0783758
0.00115065
0.0969097
0.000251018
0.11709
-0.000496653
0.140103
-0.00126365
0.169858
-0.00133536
0.21547
0.271068
0.00288747
0.0198371
-0.00174709
0.00361106
0.0409508
0.00354725
0.0606219
0.00301039
0.0789126
0.00226265
0.0976574
0.00140579
0.117947
0.000551617
0.140958
-0.000390992
0.170801
-0.000726346
0.215806
0.270342
0.0032094
-0.00186556
0.00427408
0.00447715
0.00410679
0.00343389
0.00258176
0.00163065
0.000567601
-7.4755e-05
0.000198098
-0.00147388
0.000576988
-0.00341897
0.00105892
-0.00470109
0.00159995
-0.00548847
0.00217661
-0.00590962
0.00277837
-0.00606378
0.00340298
-0.00602728
0.0040545
-0.00585811
0.00474548
-0.00560121
-0.00529747
0.000204936
-0.00167882
0.000581919
-0.00379596
0.0010471
-0.00516627
0.00155523
-0.0059966
0.00208413
-0.00643852
0.00262565
-0.0066053
0.00317994
-0.00658157
0.0037521
-0.00643027
0.00435019
-0.00619931
-0.00592902
0.000202379
-0.0018812
0.000557812
-0.00415139
0.000979745
-0.0055882
0.00142414
-0.00644099
0.00187196
-0.00688634
0.0023189
-0.00705225
0.00276874
-0.00703141
0.00322911
-0.00689064
0.00370822
-0.00667841
-0.00643238
0.000189254
-0.00207045
0.000502555
-0.00446469
0.000854972
-0.00594062
0.00120652
-0.00679254
0.00154317
-0.00722299
0.00186548
-0.00737455
0.00218137
-0.0073473
0.00250161
-0.00721088
0.00283674
-0.00701355
-0.00679117
0.000164946
-0.0022354
0.000415902
-0.00471565
0.000674643
-0.00619936
0.00090825
-0.00702615
0.00110926
-0.007424
0.00128363
-0.00754892
0.00144338
-0.00750705
0.00160205
-0.00736955
0.00177216
-0.00718366
-0.00698449
0.000129482
-0.00236488
0.000299545
-0.00488571
0.000444188
-0.00634401
0.000540379
-0.00712234
0.000588337
-0.00747196
0.000599379
-0.00755996
0.000588992
-0.00749667
0.000572581
-0.00735314
0.000563372
-0.00717445
-0.00699132
8.35813e-05
-0.00244846
0.000157
-0.00495913
0.000172078
-0.00635908
0.000117881
-0.00706814
2.74529e-06
-0.00735682
-0.000156845
-0.00740037
-0.000343347
-0.00731016
-0.000540799
-0.00715569
-0.000736492
-0.00697876
-0.00680708
2.8736e-05
-0.0024772
-6.20768e-06
-0.00492419
-0.000130967
-0.00623432
-0.000341804
-0.00685731
-0.000622532
-0.00707609
-0.000953162
-0.00706974
-0.0013148
-0.00694852
-0.00169228
-0.00677821
-0.00207439
-0.00659665
-0.006428
-3.37483e-05
-0.00244345
-0.000184903
-0.00477303
-0.000453064
-0.00596616
-0.000820415
-0.00648995
-0.00126326
-0.00663325
-0.00175888
-0.00657413
-0.00228856
-0.00641884
-0.0028387
-0.00622807
-0.00340046
-0.00603489
-0.00585869
-0.000100606
-0.00234284
-0.000371103
-0.00450253