/*--------------------------------*- C++ -*----------------------------------*\
  =========                 |
  \\      /  F ield         | OpenFOAM: The Open Source CFD Toolbox
   \\    /   O peration     | Website:  https://openfoam.org
    \\  /    A nd           | Version:  7
     \\/     M anipulation  |
\*---------------------------------------------------------------------------*/
FoamFile
{
    version     2.0;
    format      ascii;
    class       volScalarField;
    location    "24";
    object      p;
}
// * * * * * * * * * * * * * * * * * * * * * * * * * * * * * * * * * * * * * //

dimensions      [0 2 -2 0 0 0 0];

internalField   nonuniform List<scalar> 
2000
(
-0.00913955
-0.0061341
-0.0041018
-0.00169753
0.000971414
0.00378441
0.00666693
0.00956792
0.0124661
0.0153565
-0.00814246
-0.00524709
-0.00336282
-0.00119532
0.00118952
0.00371352
0.00632217
0.00896726
0.0116209
0.0142763
-0.00707859
-0.00436608
-0.00262491
-0.000678839
0.00142585
0.00364523
0.00594804
0.0082979
0.0106692
0.0130526
-0.00597899
-0.00351015
-0.00190937
-0.00016488
0.00167768
0.00359429
0.00557283
0.0075928
0.0096396
0.0117076
-0.00488102
-0.00269781
-0.00123409
0.000331345
0.00194048
0.00357394
0.00522839
0.00689562
0.00857464
0.0102625
-0.00381988
-0.00194155
-0.000608908
0.000800706
0.00221058
0.00359464
0.00494627
0.00625836
0.00753724
0.00873553
-0.00282895
-0.00124914
-3.74079e-05
0.00123913
0.00248409
0.00365998
0.00474879
0.00573161
0.00661041
0.00715243
-0.0019407
-0.000627493
0.000477939
0.00164319
0.00275394
0.00376225
0.00463801
0.00534864
0.00587686
0.00559487
-0.00118596
-8.53277e-05
0.000932034
0.00200624
0.00300744
0.00388073
0.00458989
0.00510517
0.00536049
0.00413861
-0.000586311
0.000363103
0.00131604
0.00231731
0.00322713
0.0039883
0.0045695
0.00496897
0.00507828
0.00329988
0.0218383
0.0315706
0.0397746
0.0466022
0.052029
0.0565261
0.0594597
0.0624285
0.0627999
0.0642203
0.0202724
0.0296509
0.0375789
0.044115
0.0493436
0.0536996
0.0564948
0.0593618
0.0598178
0.0610909
0.0184671
0.0276293
0.0353163
0.0415983
0.0466812
0.0509172
0.0535995
0.0563882
0.056851
0.0580747
0.0164615
0.0255485
0.0329896
0.0390675
0.0440582
0.048184
0.0507747
0.0534874
0.0539387
0.0551712
0.0143399
0.0234801
0.0306224
0.0365558
0.0414914
0.0455104
0.0480209
0.050657
0.0511166
0.052381
0.0122138
0.0214154
0.028186
0.0340741
0.0389863
0.0429073
0.0453421
0.0478877
0.04837
0.0496884
0.0102992
0.0194155
0.0257484
0.0316744
0.0365548
0.0403824
0.0427471
0.0451981
0.045725
0.0470999
0.00870219
0.0172443
0.0232265
0.0293189
0.0341862
0.0379477
0.0402394
0.0425533
0.0431232
0.0445926
0.00781763
0.0151647
0.0208746
0.0270756
0.0318931
0.0356018
0.0378384
0.0400218
0.0406527
0.0421881
0.0065092
0.0124423
0.0183276
0.0247357
0.0296385
0.0333623
0.0355234
0.0374661
0.0381594
0.0398256
0.00994347
0.00957723
0.0139756
0.0196417
0.0243766
0.0280197
0.030337
0.0321064
0.0329817
0.034396
0.00313475
0.00284489
0.00756305
0.0129834
0.0174949
0.0208337
0.0228376
0.0241039
0.0247801
0.0260137
-0.00402594
-0.00285855
0.00253955
0.00781877
0.0119014
0.0146912
0.0160431
0.0165935
0.0169475
0.0182186
-0.00915548
-0.00705156
-0.00148301
0.00370186
0.00743585
0.00969924
0.0104391
0.0103446
0.0103247
0.0113952
-0.0111276
-0.00888273
-0.00396909
0.000625325
0.00398351
0.00592982
0.0062861
0.00560658
0.00550873
0.0067111
-0.0110037
-0.00884234
-0.00477325
-0.00103833
0.00183733
0.00346552
0.00366219
0.00282865
0.00259407
0.00420055
-0.00869233
-0.00719195
-0.004632
-0.00178669
0.00066274
0.00211551
0.00249269
0.00204737
0.00200959
0.00394782
-0.00535454
-0.00418202
-0.00297473
-0.00135138
0.000228566
0.00136551
0.0019767
0.00213724
0.00250318
0.00454871
-0.00249451
-0.00169738
-0.00140181
-0.000442798
0.000349778
0.00101107
0.00156535
0.00205925
0.00267414
0.0044665
5.4385e-05
0.00062277
-0.00010957
8.54917e-05
0.00034361
0.000625987
0.000921424
0.00126283
0.0014198
0.00198598
0.00362714
0.000422054
-0.00488173
-0.00912952
-0.0107278
-0.0104132
-0.00785615
-0.00511732
-0.00161069
0.000297879
0.00289262
-0.000615605
-0.00583598
-0.00975984
-0.0110748
-0.0106113
-0.00794073
-0.00506304
-0.00153062
0.000206422
0.00241804
-0.00182561
-0.00696999
-0.0106083
-0.011629
-0.0108969
-0.00806619
-0.00511896
-0.00153764
7.58586e-05
0.00164804
-0.00323288
-0.00823852
-0.0115616
-0.0122576
-0.011213
-0.0082147
-0.0051772
-0.00155199
-4.22071e-05
0.000498531
-0.00486683
-0.00969423
-0.0126529
-0.012968
-0.0115809
-0.00839719
-0.00524556
-0.00158414
-0.000150069
-0.00107285
-0.00672405
-0.0112825
-0.0138294
-0.0137236
-0.011973
-0.00859563
-0.00532139
-0.00163383
-0.00024514
-0.00296499
-0.00869723
-0.0128667
-0.0149802
-0.0144488
-0.0123466
-0.00879131
-0.00540356
-0.00170036
-0.000326456
-0.00491336
-0.0105778
-0.0142753
-0.0159822
-0.0150667
-0.0126625
-0.00896522
-0.00549419
-0.00178495
-0.000400361
-0.00658867
-0.0121247
-0.015353
-0.0167327
-0.0155148
-0.0128877
-0.00908532
-0.00548745
-0.00186327
-0.000468289
-0.00773464
-0.0131595
-0.015998
-0.0171681
-0.0157505
-0.0129957
-0.00915705
-0.00555187
-0.00196484
-0.000503153
-0.00824211
-0.0136325
-0.0161773
-0.0172649
-0.015754
-0.012956
-0.00915469
-0.00556537
-0.00208726
-0.000494112
-0.00811985
-0.0135676
-0.0159305
-0.0170227
-0.0155277
-0.0127661
-0.00907015
-0.00553815
-0.00220046
-0.000505429
-0.00746897
-0.0130298
-0.0153279
-0.0164933
-0.0151041
-0.0124575
-0.00891247
-0.00548637
-0.00229968
-0.000542119
-0.00641483
-0.0121403
-0.0144486
-0.0157386
-0.0145237
-0.0120639
-0.0087011
-0.0054156
-0.00238569
-0.000591463
-0.00507819
-0.0110066
-0.0133852
-0.0148219
-0.0138359
-0.0116118
-0.00845836
-0.0053305
-0.00245774
-0.000642843
-0.00357111
-0.0097162
-0.0122226
-0.0138058
-0.0130859
-0.0110642
-0.00819968
-0.00523575
-0.00251523
-0.000690388
-0.00199354
-0.00834213
-0.0110263
-0.0127456
-0.012315
-0.0105342
-0.00793762
-0.00513391
-0.0025585
-0.000731247
-0.000381633
-0.00690853
-0.0098282
-0.0116799
-0.0115515
-0.0100122
-0.00765034
-0.00502609
-0.00258831
-0.000764876
0.00134107
-0.00533935
-0.00861028
-0.0106154
-0.0108108
-0.00950843
-0.00743958
-0.00491852
-0.00260703
-0.000792356
0.0027645
-0.00373781
-0.00740417
-0.00954317
-0.010034
-0.00898698
-0.00711991
-0.00486105
-0.00265178
-0.00080916
0.00343483
-0.000865776
-0.00473888
-0.00697752
-0.00793964
-0.00737823
-0.00609209
-0.00435103
-0.00252509
-0.000797669
0.00463148
0.00104207
-0.00216586
-0.00417074
-0.00527678
-0.00520478
-0.0045471
-0.00335032
-0.00199811
-0.000601795
0.00697857
0.00350081
0.000363129
-0.00167583
-0.00300282
-0.00333212
-0.00315259
-0.00237798
-0.00138463
-0.000317669
0.00944341
0.00598056
0.00279261
0.000609311
-0.000970864
-0.00167005
-0.00186809
-0.00141723
-0.00068995
5.56591e-05
0.0120606
0.00841339
0.00510021
0.00270146
0.000835824
-0.000205932
-0.000713307
-0.000466394
0.000109439
0.000550108
0.0148755
0.0108833
0.00727826
0.00459479
0.00242765
0.00106948
0.000344622
0.000489151
0.00098241
0.00111494
0.0177458
0.0132826
0.00930347
0.00628426
0.00382341
0.00220522
0.0013465
0.00144433
0.00189242
0.00171114
0.0203449
0.0153005
0.0111295
0.00781144
0.00508151
0.00326152
0.00232804
0.0023609
0.00267002
0.00210176
0.0227093
0.0178382
0.0130531
0.00913491
0.00612525
0.0041922
0.00320613
0.00302168
0.00292471
0.00192969
0.0253492
0.0182128
0.013176
0.00941169
0.00663077
0.00480267
0.00378376
0.00329589
0.00273654
0.00147758
0.00650082
0.00790034
0.00991104
0.0121255
0.0148875
0.0178411
0.0208504
0.0242735
0.0256139
0.031305
0.00773488
0.00941606
0.0114217
0.0136675
0.016586
0.0196349
0.0227707
0.026243
0.0278352
0.0325879
0.00878621
0.0107044
0.0128883
0.0154299
0.0186523
0.0219334
0.0253102
0.0287797
0.0309333
0.0332001
0.00972618
0.0117272
0.0140747
0.01695
0.020474
0.0240314
0.0276751
0.031276
0.0338322
0.0346737
0.0106011
0.012707
0.0152059
0.0183589
0.022121
0.0259144
0.0297868
0.0335683
0.036411
0.037084
0.0113908
0.0137136
0.0164344
0.019852
0.0238205
0.0278088
0.0318643
0.0357998
0.0388841
0.0399906
0.0120803
0.0147195
0.0177563
0.0214749
0.0256715
0.0298587
0.0340897
0.0381563
0.0414495
0.0430405
0.0126739
0.0157089
0.0191307
0.0231902
0.027657
0.0320778
0.0365138
0.0407256
0.0441976
0.0461123
0.0131814
0.0166915
0.020543
0.0249657
0.029739
0.0344278
0.0391088
0.0435036
0.047141
0.0492329
0.0136109
0.0176815
0.0219955
0.0267926
0.0319001
0.0368761
0.0418351
0.0464497
0.0502607
0.0524646
0.0139694
0.0186875
0.0234868
0.0286681
0.0341391
0.0394099
0.0446746
0.0495348
0.0535416
0.055851
0.0142568
0.019705
0.0250016
0.0305823
0.0364473
0.0420227
0.0476215
0.0527441
0.0569747
0.0594033
0.0144613
0.0207093
0.0265074
0.0325222
0.0388005
0.0447186
0.0506851
0.0560937
0.0605659
0.0631239
0.01456
0.0216585
0.0279704
0.0344717
0.0411755
0.0474868
0.0538726
0.0595902
0.0643152
0.0670076
0.0145188
0.0225092
0.0293682
0.0363804
0.0436142
0.0503452
0.0571565
0.0632232
0.0682288
0.0710627
0.0142363
0.0231643
0.0307578
0.0382756
0.0460212
0.0532264
0.0604819
0.0669517
0.0722869
0.0752823
0.0137458
0.0237198
0.0320207
0.0401039
0.0483785
0.0561178
0.0638672
0.0708019
0.0765086
0.07969
0.0129644
0.0240932
0.033073
0.0417677
0.0506013
0.0589209
0.0672171
0.0746917
0.0808476
0.0842687
0.0119738
0.0243618
0.0340044
0.0433465
0.0527669
0.0617179
0.070613
0.0786877
0.0853422
0.0890646
0.0101703
0.0239963
0.0343677
0.0443697
0.0543927
0.064028
0.0736098
0.0824622
0.0898338
0.0940272
0.00976613
0.0254709
0.0372479
0.0486561
0.0599423
0.0711073
0.0822002
0.0927129
0.101537
0.106779
0.0202952
0.0354607
0.0473881
0.0603198
0.0736158
0.0870844
0.10082
0.114021
0.125225
0.131724
0.0332599
0.0482628
0.0605224
0.075178
0.0906857
0.106845
0.123614
0.139835
0.153696
0.161845
0.0464235
0.0613583
0.0749004
0.0920306
0.11032
0.129945
0.150213
0.170067
0.186967
0.196802
0.05898
0.0743006
0.0900074
0.110273
0.132079
0.155885
0.180309
0.204506
0.224769
0.236722
0.0711556
0.0875777
0.106291
0.130126
0.156099
0.184721
0.21414
0.243192
0.266991
0.280519
0.0830553
0.101513
0.123787
0.151362
0.181897
0.215756
0.25074
0.284876
0.31201
0.327897
0.0956093
0.116288
0.142268
0.173618
0.208886
0.248096
0.288927
0.328423
0.358431
0.373256
0.10606
0.129018
0.157972
0.192323
0.231557
0.275253
0.321296
0.365999
0.398582
0.415468
0.11375
0.138176
0.169288
0.205768
0.247714
0.294587
0.345243
0.396069
0.433234
0.435859
0.0033177
0.012371
0.0236041
0.0361217
0.0479797
0.0601128
0.0711478
0.083655
0.0936917
0.101901
0.000844876
0.0106838
0.021643
0.0338805
0.0453092
0.0571608
0.0677997
0.0801952
0.090022
0.0980417
-0.00085162
0.0102892
0.0214379
0.0336604
0.0448404
0.0563214
0.0666881
0.078676
0.0880055
0.0953929
-0.00243951
0.0092511
0.0204802
0.0327839
0.043921
0.0552428
0.0655028
0.0771416
0.0860036
0.0928199
-0.00384246
0.00786237
0.0189894
0.0312238
0.0422868
0.0535098
0.0637029
0.0751494
0.083688
0.0901353
-0.00493257
0.00655621
0.0175938
0.0296453
0.0405506
0.0516166
0.0616884
0.0730282
0.0813493
0.0875834
-0.00568244
0.00545749
0.0164937
0.0283608
0.0391167
0.0500196
0.0599328
0.0712191
0.0793571
0.0854539
-0.00604873
0.00461193
0.0156978
0.0274059
0.0380756
0.0488984
0.058665
0.0699844
0.0779404
0.083925
-0.00599069
0.00410707
0.0152435
0.0268035
0.0374292
0.0482918
0.0579226
0.0693982
0.0771785
0.0830571
-0.00545563
0.00401524
0.0152555
0.0266072
0.037228
0.0482185
0.0576846
0.0694393
0.0770683
0.082833
-0.00439854
0.00440697
0.0158172
0.0268898
0.037553
0.0487171
0.0579694
0.0700555
0.0775936
0.0832008
-0.0027937
0.0052886
0.0169609
0.0276845
0.038456
0.0497906
0.0588964
0.0711426
0.0787923
0.0840988
-0.000683671
0.0066584
0.0186569
0.0290039
0.0399617
0.051193
0.0607477
0.072799
0.0805535
0.0855659
0.00185524
0.00853271
0.0208333
0.0308613
0.0420833
0.0532121
0.0631742
0.075126
0.0828581
0.0875762
0.00471606
0.0109011
0.023405
0.0332547
0.0447879
0.0559556
0.0660901
0.0781094
0.0857115
0.0900913
0.00775321
0.013696
0.0262671
0.0361334
0.0479943
0.0593924
0.0694808
0.0816498
0.0890773
0.0930696
0.0107946
0.0168138
0.0293144
0.0394251
0.0516295
0.0635325
0.0733065
0.0856885
0.0929351
0.0964858
0.0136409
0.0200818
0.0323862
0.0429482
0.0555027
0.068134
0.0774625
0.0900792
0.0971675
0.100305
0.0161782
0.0234279
0.0354799
0.0466718
0.0595876
0.0727013
0.0824106
0.0948496
0.101767
0.104504
0.0180454
0.0262784
0.038025
0.0498936
0.0631929
0.0766837
0.0873664
0.0995409
0.106472
0.10903
0.0247342
0.0363736
0.0474651
0.0605966
0.0744914
0.0885337
0.101163
0.112307
0.118846
0.120634
0.0440239
0.0563145
0.0685285
0.0829722
0.0976684
0.112481
0.125633
0.135963
0.1414
0.141774
0.0605412
0.0742623
0.0881776
0.103705
0.119122
0.134693
0.148129
0.158311
0.163358
0.163357
0.0739943
0.0886324
0.103803
0.119982
0.136062
0.152257
0.166227
0.177232
0.183406
0.184659
0.0845898
0.0997354
0.115458
0.13196
0.148704
0.165467
0.180545
0.193607
0.202695
0.207111
0.0930161
0.108202
0.124128
0.140916
0.15842
0.176069
0.193318
0.210318
0.225305
0.236316
0.0987227
0.114083
0.129991
0.147088
0.165564
0.184822
0.205625
0.229142
0.254166
0.278162
0.103929
0.11909
0.135122
0.152873
0.172637
0.194527
0.220723
0.254675
0.297009
0.344936
0.105193
0.120225
0.136462
0.154915
0.176533
0.202657
0.237515
0.286668
0.355736
0.444303
0.10823
0.124703
0.142769
0.163824
0.189649
0.222895
0.269209
0.337539
0.44135
0.582639
0.0215035
0.0371869
0.0520223
0.0648166
0.0750063
0.0839272
0.0892391
0.0947432
0.0960524
0.0984856
0.022711
0.0373999
0.0510484
0.062952
0.0724704
0.0810352
0.0859161
0.0912729
0.0923887
0.0949664
0.0251356
0.0399627
0.0523973
0.0630298
0.0714717
0.0790741
0.0833364
0.0882242
0.0889404
0.091823
0.025894
0.0406353
0.0523601
0.0622289
0.0699479
0.0768058
0.0806535
0.0851513
0.0855268
0.0884112
0.0259386
0.0398691
0.0509558
0.0603678
0.0676721
0.074062
0.0776871
0.0819368
0.0820886
0.0847378
0.0258867
0.0388122
0.0492046
0.0581502
0.0651056
0.0711086
0.0745868
0.0786459
0.0786545
0.0810187
0.0256398
0.0377233
0.0475089
0.0559452
0.0625427
0.0681381
0.0714978
0.0753617
0.0752771
0.0774167
0.0250891
0.0364683
0.0457762
0.0537195
0.059973
0.0652394
0.0684555
0.0721156
0.0719908
0.0739774
0.0242535
0.0350073
0.0439037
0.0514231
0.0573673
0.0623135
0.065483
0.0688415
0.0688209
0.0706688
0.023164
0.0333616
0.0418902
0.0490439
0.0547128
0.0593996
0.0624724
0.0655977
0.0657733
0.0674317
-0.000161504
0.000710775
0.00162106
0.00256336
0.00339301
0.00405522
0.00453316
0.00487557
0.00525091
0.00529526
7.75408e-05
0.000962141
0.00184365
0.00273553
0.00348709
0.00404209
0.00438525
0.00453982
0.0045665
0.00430058
0.000145725
0.00112292
0.00198997
0.00283599
0.00350748
0.00394626
0.00413552
0.00407932
0.00375682
0.00308437
7.86048e-05
0.0012075
0.00207525
0.00287694
0.00346457
0.00378339
0.0038226
0.00358883
0.0030532
0.00215684
-8.71163e-05
0.00124548
0.00211958
0.00287287
0.00336704
0.0035564
0.0034433
0.00304813
0.00237267
0.00139697
-0.000299274
0.0012626
0.0021411
0.00283427
0.00321661
0.00325634
0.00297538
0.00241377
0.00161238
0.000609294
-0.000501379
0.00128273
0.00215484
0.0027684
0.00301329
0.00287596
0.00240247
0.00165488
0.000704871
-0.000357539
-0.000636704
0.00133009
0.00217687
0.00268723
0.00276896
0.00243041
0.00174376
0.000792555
-0.000328905
-0.00150985
-0.000650461
0.00143165
0.00223024
0.00261703
0.00252022
0.00197284
0.00107279
-7.74386e-05
-0.0013677
-0.00270142
-0.000501885
0.00161333
0.00234552
0.0026006
0.00232924
0.00159062
0.000505791
-0.000807982
-0.00223495
-0.00370658
-0.00017554
0.00189483
0.00255819
0.00269232
0.00227232
0.00138348
0.000165838
-0.00125465
-0.00276815
-0.00432409
0.000425007
0.00234604
0.00293402
0.00296211
0.00242697
0.00143665
0.000143984
-0.00132419
-0.00287074
-0.00444473
0.00131395
0.00299265
0.00350815
0.00345228
0.00283835
0.00179289
0.000474876
-0.000992871
-0.00252588
-0.0040636
0.00249357
0.0038553
0.00430388
0.00418289
0.00351763
0.00244971
0.00113803
-0.000298232
-0.00178371
-0.00325111
0.00395105
0.0049398
0.00532203
0.00514402
0.00443925
0.00336287
0.00207372
0.000682663
-0.000735058
-0.00211443
0.00565038
0.00622831
0.00653732
0.00629621
0.00555187
0.00446621
0.00319832
0.00185452
0.000513753
-0.000770102
0.00753285
0.00768064
0.00789966
0.00758212
0.00678668
0.00568207
0.00442609
0.00312285
0.00185695
0.000667277
0.00951893
0.00923631
0.00934378
0.00893335
0.00807307
0.00693662
0.00568017
0.00440402
0.00319466
0.00208799
0.0115163
0.0108171
0.0107962
0.0102816
0.00934876
0.00817111
0.0068998
0.00562265
0.00442004
0.00338053
0.0134247
0.012339
0.012182
0.0115652
0.0105693
0.00935961
0.00807186
0.00675927
0.00549507
0.00450785
0.0151482
0.0137197
0.0134288
0.0127262
0.0116991
0.0105061
0.00927905
0.00806541
0.00695985
0.00639533
0.0166118
0.014885
0.0144678
0.0137015
0.0126746
0.0115307
0.0103879
0.00928908
0.00832019
0.0078308
0.0177233
0.0157651
0.0152412
0.0144358
0.013434
0.0123584
0.0113086
0.0103204
0.0094552
0.00897407
0.0184244
0.0163134
0.0157096
0.0148906
0.0139359
0.0129451
0.0120006
0.0111328
0.0103821
0.00994064
0.018687
0.016506
0.0158534
0.0150477
0.0141608
0.0132716
0.0124476
0.0117158
0.0111012
0.0107408
0.0185093
0.0163399
0.0156725
0.0149069
0.0141081
0.0133372
0.0126498
0.0120705
0.0116127
0.0113669
0.0179123
0.0158309
0.0151826
0.0144826
0.0137901
0.0131529
0.012617
0.0122055
0.0119232
0.011821
0.016936
0.0150096
0.0144114
0.0137988
0.0132278
0.0127362
0.0123638
0.0121325
0.0120414
0.0121095
0.0156334
0.0139164
0.0133939
0.0128856
0.0124458
0.0121075
0.0119062
0.0118633
0.0119755
0.0122385
0.014071
0.0125992
0.0121707
0.0117764
0.0114715
0.0112878
0.0112598
0.0114092
0.0117324
0.0122121
0.0123297
0.0111141
0.0107886
0.0105114
0.0103382
0.0103034
0.0104442
0.0107834
0.011319
0.0120319
0.0104353
0.00949314
0.00927329
0.00910878
0.00905867
0.00916355
0.00946567
0.00998969
0.0107348
0.0116922
0.00844733
0.00778095
0.00766188
0.00759893
0.00765734
0.0078865
0.00833658
0.00903521
0.00997917
0.0111797
0.00641921
0.00601747
0.00598663
0.00600789
0.00615485
0.0064878
0.00706696
0.00792539
0.00905275
0.0104709
0.00439398
0.00423531
0.00427363
0.00435612
0.00456727
0.00497984
0.00566502
0.00666378
0.0079597
0.00953335
0.00240723
0.00246214
0.0025449
0.00266112
0.0029085
0.0033741
0.0041418
0.00525647
0.00669587
0.00849488
0.000491244
0.000719719
0.000818705
0.000938844
0.00119244
0.00168211
0.00250512
0.00371191
0.00526013
0.00720466
-0.00132848
-0.000971775
-0.000886801
-0.000794865
-0.000566568
-8.36427e-05
0.000764361
0.0020362
0.00366075
0.00567561
-0.00302927
-0.00259483
-0.00255471
-0.00252274
-0.00235086
-0.00190552
-0.00106391
0.000248065
0.00193434
0.0039668
-0.00459023
-0.00413268
-0.00416692
-0.00422431
-0.00413797
-0.00376062
-0.00296271
-0.00165102
9.38993e-05
0.00211448
-0.00599439
-0.00556942
-0.00570377
-0.0058752
-0.00589891
-0.0056147
-0.00489156
-0.0036131
-0.00168598
0.000622478
-0.00723331
-0.00688986
-0.00714246
-0.00744439
-0.00759543
-0.00742625
-0.00681085
-0.00565551
-0.00383777
-0.00153426
-0.00828142
-0.00807063
-0.00845329
-0.00889295
-0.00917864
-0.00913623
-0.00864395
-0.00762822
-0.00597792
-0.00378554
-0.00912339
-0.00909142
-0.00960677
-0.0101799
-0.0105941
-0.010673
-0.0102968
-0.00939827
-0.00788198
-0.00581332
-0.00975168
-0.00993475
-0.010575
-0.0112653
-0.0117902
-0.0119703
-0.0116907
-0.0108885
-0.00949024
-0.00753959
-0.0101646
-0.0105879
-0.0113351
-0.0121151
-0.0127256
-0.0129755
-0.0127662
-0.0120369
-0.0107511
-0.0089167
-0.0103669
-0.0110467
-0.0118751
-0.0127155
-0.0133607
-0.0136502
-0.0134845
-0.0128093
-0.0115994
-0.00988674
-0.0103766
-0.0113149
-0.0121886
-0.0130467
-0.0136901
-0.0139776
-0.0138208
-0.0131768
-0.0120345
-0.0104243
-0.0102271
-0.0113987
-0.0122819
-0.0131136
-0.0137129
-0.0139575
-0.0137729
-0.0131321
-0.0120424
-0.0104973
-0.00994363
-0.0113211
-0.0121714
-0.0129309
-0.0134428
-0.0136042
-0.0133554
-0.0126855
-0.0116211
-0.0101162
-0.00955087
-0.0111009
-0.011876
-0.0125184
-0.0129003
-0.0129394
-0.01259
-0.0118547
-0.0107748
-0.00926642
-0.00913089
-0.0107969
-0.0114454
-0.0119214
-0.0121284
-0.012004
-0.0115138
-0.0106707
-0.00952506
-0.00795759
-0.0087246
-0.0104439
-0.0109154
-0.0111767
-0.0111654
-0.0108372
-0.010166
-0.00917043
-0.00790666
-0.00622677
-0.0083738
-0.0100789
-0.0103252
-0.0103263
-0.0100558
-0.00948578
-0.00859459
-0.00740248
-0.00597045
-0.00413243
-0.00811949
-0.0097397
-0.00971645
-0.00941574
-0.00884915
-0.0080028
-0.00685598
-0.00542691
-0.00378284
-0.0017534
-0.00799435
-0.00945901
-0.00912832
-0.0084904
-0.00759662
-0.00644537
-0.00501385
-0.0033156
-0.00142782
0.000808666
-0.00801871
-0.00926022
-0.00859367
-0.00759195
-0.00634782
-0.00487066
-0.00313309
-0.00114233
0.0010079
0.00344663
-0.00819843
-0.00915534
-0.00813687
-0.00675604
-0.00514871
-0.00333544
-0.00128339
0.00100763
0.00342037
0.0060359
-0.00852338
-0.00914332
-0.00777156
-0.00600935
-0.00403641
-0.0018848
0.000486232
0.00309163
0.00578554
0.00854523
-0.00896655
-0.00920914
-0.00749963
-0.00536914
-0.00304244
-0.00056742
0.00209818
0.00498559
0.00794364
0.0108395
-0.00949073
-0.00932676
-0.00731198
-0.00484171
-0.00218389
0.000597966
0.00355172
0.00675398
0.0101493
0.0135897
-0.0100745
-0.00947063
-0.00719183
-0.00442362
-0.00147286
0.00157669
0.00476145
0.00816053
0.011778
0.0154462
-0.0106397
-0.0095868
-0.00710714
-0.00409978
-0.000911137
0.00235067
0.00570274
0.0092018
0.0128555
0.0166325
-0.0111162
-0.00962612
-0.00702275
-0.00384611
-0.000483211
0.00293249
0.0063995
0.00996069
0.0136115
0.0173158
-0.0114503
-0.00955376
-0.00689193
-0.00363202
-0.000162402
0.00334815
0.00687938
0.0104658
0.0141061
0.0177304
-0.0116007
-0.00934046
-0.00668731
-0.00342099
8.09967e-05
0.00362528
0.00717119
0.010739
0.0143435
0.0179151
-0.0115393
-0.00896974
-0.00638451
-0.0031864
0.000273968
0.00379025
0.00730273
0.0108153
0.0143402
0.0178379
-0.0112553
-0.00844376
-0.00596876
-0.00290712
0.000440518
0.00386701
0.00729669
0.0107164
0.0141345
0.017526
-0.0107548
-0.00778226
-0.00544214
-0.00256914
0.000601672
0.00387822
0.00717552
0.0104638
0.0137447
0.0170021
-0.0100479
-0.00700926
-0.00481842
-0.00216922
0.000771406
0.00384188
0.00695714
0.0100735
0.0131813
0.0162722
)
;

boundaryField
{
    inlet
    {
        type            zeroGradient;
    }
    outlet
    {
        type            fixedValue;
        value           uniform 0;
    }
    cylinder
    {
        type            zeroGradient;
    }
    top
    {
        type            symmetryPlane;
    }
    bottom
    {
        type            symmetryPlane;
    }
    defaultFaces
    {
        type            empty;
    }
}


// ************************************************************************* //
