/*--------------------------------*- C++ -*----------------------------------*\
  =========                 |
  \\      /  F ield         | OpenFOAM: The Open Source CFD Toolbox
   \\    /   O peration     | Website:  https://openfoam.org
    \\  /    A nd           | Version:  7
     \\/     M anipulation  |
\*---------------------------------------------------------------------------*/
FoamFile
{
    version     2.0;
    format      ascii;
    class       volVectorField;
    location    "5.4";
    object      U;
}
// * * * * * * * * * * * * * * * * * * * * * * * * * * * * * * * * * * * * * //

dimensions      [0 1 -1 0 0 0 0];

internalField   nonuniform List<vector> 
32000
(
(-0.000140467 0.00158761 -4.52273e-22)
(-0.000943739 0.0087056 0)
(-0.00239255 0.018993 -4.03285e-21)
(-0.00410959 0.0312361 0)
(-0.00596595 0.0446781 4.1966e-21)
(-0.00782469 0.0588315 0)
(-0.00958734 0.0733636 4.33438e-21)
(-0.0111799 0.0880468 -3.29531e-21)
(-0.012547 0.102724 9.84384e-25)
(-0.0136493 0.117286 1.27777e-24)
(-0.0144618 0.13165 -1.13531e-21)
(-0.0149733 0.145747 4.58474e-21)
(-0.0151811 0.15952 0)
(-0.015087 0.17291 -1.16568e-21)
(-0.0146967 0.185863 1.17053e-21)
(-0.01402 0.198326 0)
(-0.0130686 0.210247 5.92585e-21)
(-0.0118569 0.221576 -1.18875e-21)
(-0.0104006 0.232269 0)
(-0.00871541 0.242283 2.40456e-21)
(-0.00681723 0.251585 2.41002e-21)
(-0.00472192 0.260145 0)
(-0.00244478 0.267943 0)
(-6.72346e-07 0.274964 0)
(0.00259548 0.2812 0)
(0.00532896 0.286652 0)
(0.0081856 0.291325 0)
(0.0111522 0.295233 0)
(0.0142164 0.298392 -4.86794e-21)
(0.0173661 0.300824 0)
(0.0205899 0.302554 4.86401e-21)
(0.0238763 0.303611 0)
(0.0272148 0.304024 0)
(0.0305942 0.303824 0)
(0.0340028 0.303042 -4.83627e-21)
(0.0374285 0.301711 -2.42143e-21)
(0.040858 0.299859 7.23732e-21)
(0.0442876 0.297514 -8.39502e-25)
(0.0477028 0.294754 4.80178e-21)
(0.0509453 0.291686 -3.0018e-24)
(-0.000197529 0.00180228 0)
(-0.00123247 0.00920982 7.87528e-21)
(-0.00302426 0.0196858 2.01625e-21)
(-0.00513928 0.0320466 3.49724e-25)
(-0.00743056 0.0455428 -2.0979e-21)
(-0.00974552 0.0596948 0)
(-0.0119741 0.0741779 4.33168e-21)
(-0.0140361 0.0887736 -4.39181e-21)
(-0.0158722 0.103329 0)
(-0.0174395 0.117744 -8.99351e-21)
(-0.0187103 0.13194 0)
(-0.0196708 0.145852 -1.37498e-20)
(-0.0203161 0.159427 0)
(-0.0206458 0.172611 0)
(-0.0206642 0.185353 4.69146e-21)
(-0.0203798 0.197602 -4.70662e-21)
(-0.0198033 0.209309 -4.73849e-21)
(-0.0189473 0.220425 0)
(-0.0178261 0.230906 1.43399e-20)
(-0.0164547 0.240714 -4.78724e-21)
(-0.0148483 0.249813 6.70787e-24)
(-0.013022 0.258176 -1.44563e-20)
(-0.0109903 0.265783 -9.66312e-21)
(-0.00876809 0.272619 -4.85362e-21)
(-0.0063702 0.278678 1.4535e-20)
(-0.00381072 0.28396 -1.45706e-20)
(-0.00110338 0.288472 1.45903e-20)
(0.00173827 0.292225 -1.94167e-20)
(0.0047011 0.295238 -4.84508e-21)
(0.00777266 0.297532 3.22696e-23)
(0.0109412 0.299133 -1.45259e-20)
(0.0141949 0.300069 -9.6853e-21)
(0.0175213 0.300372 1.93871e-20)
(0.0209081 0.300071 -1.93164e-20)
(0.0243423 0.2992 -4.80306e-21)
(0.0278098 0.297793 -1.92664e-20)
(0.0312946 0.295882 1.58999e-24)
(0.0347908 0.293497 4.79633e-21)
(0.0382732 0.290721 -1.90643e-20)
(0.0415879 0.287664 -2.76225e-20)
(-0.00025981 0.00200716 -1.80765e-21)
(-0.00152622 0.00968829 -3.93747e-21)
(-0.00365401 0.0203646 -1.81359e-20)
(-0.00615585 0.0328505 0)
(-0.00886393 0.0464054 2.09721e-21)
(-0.011612 0.0605602 -2.13289e-21)
(-0.014282 0.074998 -2.59913e-20)
(-0.0167892 0.0895072 8.78528e-21)
(-0.0190684 0.103943 -4.44888e-21)
(-0.0210725 0.11821 2.69714e-20)
(-0.0227742 0.132234 9.08309e-21)
(-0.0241568 0.145959 4.58696e-21)
(-0.025213 0.159332 -1.84756e-20)
(-0.0259412 0.172306 0)
(-0.0263442 0.184831 0)
(-0.0264287 0.19686 9.43398e-21)
(-0.0262038 0.208345 2.68458e-23)
(-0.0256811 0.219241 -9.49794e-21)
(-0.0248746 0.229503 -9.55322e-21)
(-0.023798 0.239095 -1.9158e-20)
(-0.0224652 0.247983 2.88437e-20)
(-0.0208911 0.256141 2.30323e-23)
(-0.0190898 0.263548 -1.24738e-23)
(-0.0170755 0.270191 9.65481e-21)
(-0.0148625 0.276064 -1.93996e-20)
(-0.012465 0.281167 3.87534e-20)
(-0.00989668 0.285507 0)
(-0.00717101 0.289097 9.71339e-21)
(-0.00430115 0.291954 9.71287e-21)
(-0.00129961 0.2941 1.94244e-20)
(0.00182115 0.295563 3.22455e-23)
(0.00504825 0.29637 0)
(0.00836853 0.296552 9.68202e-21)
(0.0117685 0.296144 -9.59249e-21)
(0.0152336 0.295179 -9.57169e-21)
(0.0187472 0.293692 2.88447e-20)
(0.0222915 0.291719 -2.86271e-20)
(0.0258578 0.289294 1.91135e-20)
(0.0294098 0.286503 -2.84405e-20)
(0.032798 0.283462 1.0951e-20)
(-0.000328198 0.00225031 1.44628e-20)
(-0.00183149 0.0102461 -1.57443e-20)
(-0.00429281 0.0211286 3.22365e-20)
(-0.00716898 0.0337394 0)
(-0.0102767 0.0473495 1.25767e-20)
(-0.0134376 0.061501 2.13229e-20)
(-0.0165251 0.0758859 4.3361e-21)
(-0.0194489 0.0903005 2.95059e-24)
(-0.0221419 0.10461 1.33372e-20)
(-0.0245549 0.11872 -4.50162e-21)
(-0.0266577 0.132566 2.26962e-20)
(-0.0284321 0.146094 -2.74927e-20)
(-0.0298699 0.159258 2.77034e-20)
(-0.0309677 0.172012 -9.314e-21)
(-0.0317264 0.184312 9.35283e-21)
(-0.032152 0.196113 -1.883e-20)
(-0.0322529 0.207368 -2.84019e-20)
(-0.0320392 0.218034 9.49262e-21)
(-0.0315235 0.22807 -9.5583e-21)
(-0.030719 0.237438 2.87175e-20)
(-0.0296392 0.246107 -1.92143e-20)
(-0.0282976 0.254051 -1.9241e-20)
(-0.0267082 0.261251 0)
(-0.0248849 0.267693 0)
(-0.0228418 0.273372 -1.93259e-20)
(-0.0205923 0.278288 -1.93733e-20)
(-0.0181497 0.282448 -1.9344e-20)
(-0.0155277 0.285866 0)
(-0.0127395 0.288559 0)
(-0.00979771 0.29055 -3.86973e-20)
(-0.00671524 0.291865 -7.12203e-23)
(-0.00350551 0.292534 1.93241e-20)
(-0.000182481 0.29259 -1.92281e-20)
(0.00323919 0.292066 -1.92549e-20)
(0.0067431 0.291 1.92135e-20)
(0.0103107 0.28943 0)
(0.013922 0.287393 1.91056e-20)
(0.0175649 0.284928 -3.79997e-20)
(0.0211934 0.282126 3.7891e-20)
(0.0246601 0.279104 -4.38637e-20)
(-0.000405405 0.00249527 -7.23325e-21)
(-0.00214877 0.010807 1.18069e-20)
(-0.00493546 0.0219011 -1.61162e-20)
(-0.0081735 0.0346381 0)
(-0.0116617 0.0483026 -2.09622e-20)
(-0.0152115 0.0624497 -1.27943e-20)
(-0.0186904 0.0767812 1.7322e-20)
(-0.0220032 0.091101 0)
(-0.0250803 0.105281 -2.6675e-20)
(-0.0278712 0.119234 -8.99472e-21)
(-0.0303443 0.132899 -9.07341e-21)
(-0.0324804 0.146229 1.83372e-20)
(-0.0342691 0.15918 -1.8469e-20)
(-0.035706 0.171712 9.29118e-21)
(-0.0367914 0.183783 0)
(-0.03753 0.195351 2.8255e-20)
(-0.0379288 0.206372 9.47656e-21)
(-0.0379974 0.216804 -1.9029e-20)
(-0.0377474 0.226607 3.81468e-20)
(-0.037191 0.235747 -3.827e-20)
(-0.0363408 0.244192 3.83335e-20)
(-0.0352102 0.251917 1.92409e-20)
(-0.0338126 0.258904 0)
(-0.0321614 0.265139 1.93262e-20)
(-0.03027 0.270618 5.01055e-23)
(-0.0281515 0.27534 0)
(-0.0258191 0.279315 1.93439e-20)
(-0.0232861 0.282553 -1.93558e-20)
(-0.0205656 0.285075 1.92754e-20)
(-0.0176704 0.286902 3.86448e-20)
(-0.0146136 0.288062 -3.85363e-20)
(-0.011409 0.288586 3.84713e-20)
(-0.00807133 0.288506 0)
(-0.00461629 0.287861 0)
(-0.00106187 0.286688 3.8214e-20)
(0.00257104 0.285029 0)
(0.00626033 0.282926 0)
(0.00999064 0.280421 -3.78229e-20)
(0.0137064 0.27761 3.76605e-20)
(0.0172612 0.274614 2.18935e-20)
(-0.000491161 0.00275539 3.61465e-21)
(-0.00247982 0.0114005 0)
(-0.00558566 0.0227097 3.22154e-20)
(-0.00917099 0.0355723 4.11233e-21)
(-0.0130203 0.0492892 4.19141e-21)
(-0.0169359 0.0634284 2.55741e-20)
(-0.0207793 0.0777032 3.4628e-20)
(-0.0244516 0.0919252 0)
(-0.0278825 0.105973 8.89208e-21)
(-0.03102 0.119765 2.69614e-20)
(-0.0338311 0.133247 3.63028e-20)
(-0.036296 0.146374 -9.16596e-21)
(-0.0384034 0.159109 -2.76987e-20)
(-0.0401478 0.171415 0)
(-0.0415283 0.183253 3.74211e-20)
(-0.0425488 0.194583 0)
(-0.0432159 0.205365 5.67465e-20)
(-0.043538 0.215559 -1.89648e-20)
(-0.0435256 0.225126 0)
(-0.0431904 0.234033 -1.91486e-20)
(-0.0425445 0.24225 -3.88152e-23)
(-0.0416007 0.249752 -1.91572e-20)
(-0.0403717 0.25652 -1.92094e-20)
(-0.0388705 0.262544 1.92968e-20)
(-0.0371099 0.267818 -1.92464e-20)
(-0.0351026 0.272342 0)
(-0.0328615 0.276124 -1.93186e-20)
(-0.0303997 0.279178 1.92449e-20)
(-0.0277298 0.281522 0)
(-0.0248647 0.283178 0)
(-0.0218177 0.284176 0)
(-0.0186028 0.284547 -3.84173e-20)
(-0.0152349 0.284326 3.82143e-20)
(-0.0117313 0.283552 0)
(-0.00811151 0.282267 -1.90719e-20)
(-0.00439818 0.280515 0)
(-0.00061604 0.278343 3.78769e-20)
(0.00321617 0.275797 -1.87542e-20)
(0.00703405 0.272979 -3.75855e-20)
(0.01069 0.270014 4.34475e-20)
(-0.000586828 0.00302236 2.52924e-20)
(-0.00282569 0.0120074 -3.53957e-20)
(-0.00624232 0.0235334 -6.03936e-20)
(-0.0101604 0.0365197 -3.28857e-20)
(-0.0143502 0.0502854 -8.38016e-21)
(-0.0186061 0.0644143 -1.70505e-20)
(-0.0227858 0.0786303 -7.79011e-20)
(-0.0267879 0.0927523 -2.63221e-20)
(-0.0305404 0.106666 -4.44225e-20)
(-0.0339913 0.120296 -4.49338e-20)
(-0.037107 0.133593 -6.35293e-20)
(-0.039867 0.146517 -3.66208e-20)
(-0.0422591 0.159034 8.35551e-24)
(-0.044277 0.171112 -3.71758e-20)
(-0.0459194 0.182715 -3.74208e-20)
(-0.0471896 0.193806 -5.64477e-20)
(-0.048093 0.204348 3.7786e-20)
(-0.0486374 0.214301 -1.8955e-20)
(-0.0488326 0.22363 0)
(-0.0486897 0.232302 3.81929e-20)
(-0.0482202 0.240287 0)
(-0.0474362 0.247563 7.67544e-20)
(-0.04635 0.254112 0)
(-0.044974 0.259922 -1.92672e-20)
(-0.0433205 0.264987 1.931e-20)
(-0.0414016 0.269309 -3.84396e-20)
(-0.0392301 0.272896 0)
(-0.0368184 0.27576 -3.85305e-20)
(-0.0341789 0.277921 3.83704e-20)
(-0.0313244 0.279402 0)
(-0.0282679 0.280231 0)
(-0.0250237 0.280443 0)
(-0.0216072 0.280073 -3.80813e-20)
(-0.0180364 0.279164 0)
(-0.0143325 0.27776 -3.79787e-20)
(-0.0105202 0.275911 7.56052e-20)
(-0.00662666 0.273666 -7.53342e-20)
(-0.00267423 0.27108 3.73499e-20)
(0.00126465 0.268257 7.47342e-20)
(0.00503872 0.26533 -4.32508e-20)
(-0.000692496 0.00329375 -3.25186e-20)
(-0.00318703 0.0126239 1.01778e-23)
(-0.00690582 0.0243652 3.22052e-20)
(-0.0111404 0.037472 6.57606e-20)
(-0.015649 0.0512838 -8.37782e-21)
(-0.0202192 0.0653993 -3.40836e-20)
(-0.0247061 0.0795537 3.46144e-20)
(-0.0290062 0.0935744 5.26515e-20)
(-0.0330472 0.107353 1.77708e-20)
(-0.0367772 0.120821 4.49087e-20)
(-0.0401625 0.133932 3.62956e-20)
(-0.0431819 0.146652 5.49102e-20)
(-0.0458231 0.158952 1.1073e-19)
(-0.0480793 0.170802 5.57737e-20)
(-0.0499486 0.18217 0)
(-0.0514337 0.193021 1.87885e-20)
(-0.0525395 0.203321 1.88529e-20)
(-0.053273 0.213033 1.89341e-20)
(-0.0536434 0.222123 3.80696e-20)
(-0.0536613 0.230559 -1.90923e-20)
(-0.0533377 0.238314 0)
(-0.0526839 0.245363 -4.12696e-23)
(-0.051712 0.251691 -3.83616e-20)
(-0.0504334 0.257285 3.83897e-20)
(-0.0488601 0.262141 7.6864e-20)
(-0.0470039 0.26626 7.6883e-20)
(-0.0448769 0.269649 1.81456e-23)
(-0.0424911 0.272321 3.83379e-20)
(-0.0398586 0.274295 3.82875e-20)
(-0.0369916 0.275595 -3.8223e-20)
(-0.0339031 0.276251 3.8145e-20)
(-0.0306073 0.276298 3.80538e-20)
(-0.02712 0.275774 7.60315e-20)
(-0.0234602 0.274724 -1.17476e-22)
(-0.0196501 0.273196 1.13271e-19)
(-0.0157166 0.271243 -3.29049e-23)
(-0.0116896 0.268923 -3.7424e-20)
(-0.00759488 0.266294 -3.74386e-20)
(-0.00351221 0.263469 3.71028e-20)
(0.000400717 0.260587 4.29757e-20)
(-0.000808171 0.00356718 2.88866e-20)
(-0.00356345 0.0132425 3.93124e-20)
(-0.00757535 0.0251964 2.41347e-20)
(-0.0121096 0.0384193 -2.46577e-20)
(-0.0169143 0.0522729 -4.18667e-20)
(-0.021772 0.0663716 3.40804e-20)
(-0.0265358 0.0804626 0)
(-0.0311014 0.0943809 3.50857e-20)
(-0.0353965 0.108025 0)
(-0.0393701 0.121331 -7.18525e-20)
(-0.0429883 0.134257 1.81559e-20)
(-0.0462302 0.146775 -9.15112e-20)
(-0.0490833 0.158858 -3.6905e-20)
(-0.0515406 0.17048 1.85897e-20)
(-0.0535999 0.181614 3.88657e-23)
(-0.0552633 0.192227 -1.8776e-20)
(-0.0565354 0.202286 -3.7776e-20)
(-0.0574226 0.211758 -7.58348e-20)
(-0.0579335 0.220611 0)
(-0.0580782 0.228812 3.63446e-23)
(-0.0578672 0.236337 -3.81801e-20)
(-0.0573115 0.243161 -3.83148e-20)
(-0.056422 0.249268 3.83614e-20)
(-0.0552101 0.254648 -3.84708e-20)
(-0.0536871 0.259296 3.83367e-20)
(-0.0518644 0.263211 -7.66998e-20)
(-0.0497536 0.266401 1.32566e-23)
(-0.0473662 0.26888 -7.65781e-20)
(-0.0447136 0.270665 -3.82873e-20)
(-0.0418077 0.271783 3.03841e-24)
(-0.0386612 0.272262 -1.07048e-22)
(-0.0352882 0.27214 -3.80537e-20)
(-0.0317047 0.271457 -3.79501e-20)
(-0.0279304 0.270259 -1.41092e-22)
(-0.0239888 0.268601 -3.77082e-20)
(-0.0199085 0.26654 -1.57516e-22)
(-0.0157225 0.26414 -3.73339e-20)
(-0.01146 0.261467 1.11385e-19)
(-0.0072071 0.258642 -3.71026e-20)
(-0.00313101 0.255812 -4.29656e-20)
(-0.000933615 0.00383965 -2.88831e-20)
(-0.00395429 0.0138566 7.86224e-21)
(-0.00824962 0.0260177 -2.41399e-20)
(-0.0130664 0.0393509 -8.21569e-21)
(-0.0181441 0.0532414 3.34919e-20)
(-0.0232615 0.0673202 -8.51853e-21)
(-0.0282711 0.0813455 8.647e-21)
(-0.0330688 0.0951606 -5.26336e-20)
(-0.0375827 0.10867 1.77528e-20)
(-0.0417629 0.121815 3.59226e-20)
(-0.0455763 0.134559 0)
(-0.0490022 0.146876 7.32052e-20)
(-0.0520285 0.158745 0)
(-0.054648 0.170144 -7.43027e-20)
(-0.0568585 0.181045 -3.73737e-20)
(-0.0586617 0.191422 0)
(-0.0600619 0.201244 0)
(-0.0610649 0.21048 7.57936e-20)
(-0.0616791 0.219097 3.80663e-20)
(-0.0619142 0.227067 -7.62383e-20)
(-0.06178 0.234364 3.81478e-20)
(-0.0612868 0.240966 0)
(-0.0604452 0.246856 -3.8338e-20)
(-0.0592661 0.252025 7.6555e-20)
(-0.0577603 0.256465 -3.82549e-20)
(-0.0559387 0.260179 -3.83362e-20)
(-0.0538123 0.263172 3.82042e-20)
(-0.0513921 0.265458 0)
(-0.0486889 0.267055 7.62793e-20)
(-0.0457142 0.267989 -3.80167e-20)
(-0.0424803 0.26829 -3.80151e-20)
(-0.039001 0.267995 -8.52776e-23)
(-0.0352927 0.267148 1.50973e-19)
(-0.0313754 0.265799 -1.12858e-19)
(-0.0272737 0.264005 0)
(-0.023018 0.261831 -3.74133e-20)
(-0.0186442 0.259346 -7.44154e-20)
(-0.0141855 0.256627 3.68549e-20)
(-0.00973252 0.253803 3.67394e-20)
(-0.00546587 0.251031 0)
(-0.00106817 0.00410841 -5.77254e-20)
(-0.00435822 0.0144598 -7.8588e-21)
(-0.00892727 0.0268199 6.43136e-20)
(-0.0140089 0.0402562 -6.56783e-20)
(-0.0193356 0.0541781 0)
(-0.0246847 0.068233 0)
(-0.0299086 0.0821904 -1.72996e-20)
(-0.0349041 0.0959019 -1.41801e-23)
(-0.0396005 0.109278 1.77484e-20)
(-0.0439495 0.122264 0)
(-0.0479191 0.134828 0)
(-0.0514894 0.146949 -1.82864e-20)
(-0.0546485 0.158608 3.12442e-23)
(-0.0573898 0.169786 1.85921e-20)
(-0.0597108 0.18046 3.73734e-20)
(-0.0616134 0.190606 0)
(-0.0631012 0.200195 3.7775e-20)
(-0.0641801 0.209197 -3.78008e-20)
(-0.0648581 0.217584 -7.59901e-20)
(-0.0651445 0.225327 7.6179e-20)
(-0.0650484 0.232401 9.12026e-23)
(-0.0645795 0.238786 -3.81649e-20)
(-0.0637481 0.244464 3.82854e-20)
(-0.0625647 0.249425 -7.64806e-20)
(-0.0610396 0.253664 0)
(-0.0591831 0.25718 3.82595e-20)
(-0.0570059 0.25998 -7.63444e-20)
(-0.0545182 0.262076 3.80709e-20)
(-0.0517305 0.263487 -3.80916e-20)
(-0.0486535 0.264238 -3.79954e-20)
(-0.0452994 0.26436 -3.7972e-20)
(-0.0416817 0.263892 1.50961e-19)
(-0.0378167 0.262879 -1.1284e-19)
(-0.0337249 0.261374 -7.50246e-20)
(-0.0294316 0.25944 7.45952e-20)
(-0.0249691 0.257146 0)
(-0.0203763 0.254572 7.4069e-20)
(-0.0156902 0.251804 -7.36053e-20)
(-0.0110049 0.248981 -3.67391e-20)
(-0.00651771 0.246275 0)
(-0.00121129 0.00437088 1.22624e-19)
(-0.00477395 0.0150454 5.49399e-20)
(-0.00960637 0.0275945 -6.43131e-20)
(-0.0149348 0.041125 5.74695e-20)
(-0.0204867 0.0550715 -8.36867e-21)
(-0.026039 0.069098 1.70189e-20)
(-0.0314451 0.0829852 0)
(-0.0366035 0.096593 -1.75393e-20)
(-0.0414455 0.109837 1.77437e-20)
(-0.0459246 0.122667 1.79631e-20)
(-0.0500103 0.135056 -1.81204e-20)
(-0.0536841 0.146984 -1.83084e-20)
(-0.0569346 0.158438 1.84234e-20)
(-0.0597556 0.169401 0)
(-0.062145 0.179854 0)
(-0.0641045 0.189773 -3.75884e-20)
(-0.0656376 0.199135 3.76774e-20)
(-0.0667502 0.207912 -3.78971e-20)
(-0.0674502 0.216075 3.79283e-20)
(-0.0677462 0.223597 3.81021e-20)
(-0.0676467 0.230455 -7.62508e-20)
(-0.0671611 0.236628 7.63371e-20)
(-0.0662993 0.242101 8.42018e-23)
(-0.0650713 0.246862 -3.81506e-20)
(-0.0634872 0.250904 0)
(-0.0615566 0.254229 3.81823e-20)
(-0.0592897 0.256841 7.97985e-23)
(-0.0566965 0.258753 -3.79853e-20)
(-0.0537868 0.259982 0)
(-0.0505709 0.260554 7.57634e-20)
(-0.0470604 0.2605 -7.54025e-20)
(-0.0432688 0.259859 0)
(-0.0392125 0.258679 7.50197e-20)
(-0.0349119 0.257017 -7.46062e-20)
(-0.0303932 0.254938 0)
(-0.0256902 0.25252 0)
(-0.0208451 0.249851 0)
(-0.0158985 0.247029 -7.33496e-20)
(-0.0109465 0.244208 7.28793e-20)
(-0.00620708 0.241574 8.42556e-20)
(-0.00136208 0.00462429 -5.76914e-20)
(-0.00519967 0.0156075 -6.27944e-20)
(-0.0102849 0.0283329 -8.03277e-21)
(-0.0158421 0.0419473 2.46147e-20)
(-0.021595 0.0559105 -3.34513e-20)
(-0.0273218 0.0699033 3.4033e-20)
(-0.0328779 0.0837178 -3.45665e-20)
(-0.0381641 0.0972215 -5.25737e-20)
(-0.0431142 0.110335 0)
(-0.0476841 0.123013 -1.79589e-20)
(-0.0518453 0.13523 1.81161e-20)
(-0.0555805 0.146972 0)
(-0.0588795 0.158227 3.6899e-20)
(-0.0617368 0.168982 -3.70903e-20)
(-0.0641508 0.17922 -1.12055e-19)
(-0.0661231 0.188921 -7.25345e-23)
(-0.0676573 0.198064 7.53987e-20)
(-0.0687595 0.206622 -3.77963e-20)
(-0.0694373 0.214568 0)
(-0.0696988 0.221878 0)
(-0.0695519 0.228528 7.61442e-20)
(-0.0690058 0.234499 3.81652e-20)
(-0.06807 0.239774 -3.81027e-20)
(-0.0667543 0.244342 -3.81734e-20)
(-0.0650682 0.248198 7.62219e-20)
(-0.0630211 0.251339 -3.80321e-20)
(-0.0606226 0.253772 7.60884e-20)
(-0.0578825 0.255507 -1.51733e-19)
(-0.05481 0.256561 1.51368e-19)
(-0.0514151 0.25696 -1.50945e-19)
(-0.0477092 0.256734 1.50467e-19)
(-0.0437055 0.255924 -1.4994e-19)
(-0.0394205 0.25458 7.46297e-20)
(-0.0348746 0.252759 7.44232e-20)
(-0.0300946 0.250533 9.26667e-23)
(-0.0251156 0.247988 8.58092e-23)
(-0.0199833 0.245219 -7.32876e-20)
(-0.0147421 0.242338 2.15178e-22)
(-0.0094882 0.239517 -7.25146e-20)
(-0.00446369 0.23696 0)
(-0.0015197 0.00486634 7.205e-21)
(-0.00563356 0.0161402 -7.84191e-21)
(-0.0109607 0.029027 2.40872e-20)
(-0.0167284 0.0427134 -3.28037e-20)
(-0.0226583 0.056684 1.6716e-20)
(-0.0285312 0.0706372 0)
(-0.034205 0.0843759 0)
(-0.0395837 0.0977749 7.00924e-20)
(-0.0446041 0.11076 8.87091e-20)
(-0.049225 0.123289 -1.79323e-20)
(-0.0534202 0.13534 9.06215e-20)
(-0.0571741 0.146902 -1.82721e-20)
(-0.060478 0.157965 0)
(-0.0633271 0.168519 0)
(-0.0657203 0.178551 7.46754e-20)
(-0.0676598 0.188043 0)
(-0.0691493 0.196975 3.76272e-20)
(-0.070195 0.205323 -3.78304e-20)
(-0.0708043 0.213062 0)
(-0.0709849 0.220169 -7.59694e-20)
(-0.0707444 0.226621 -3.80538e-20)
(-0.0700915 0.2324 -1.14174e-19)
(-0.0690356 0.237488 -3.81263e-20)
(-0.0675861 0.241875 3.80446e-20)
(-0.0657523 0.245553 7.60286e-20)
(-0.0635432 0.248522 0)
(-0.0609682 0.250786 7.57732e-20)
(-0.0580367 0.252353 1.51336e-19)
(-0.0547577 0.253243 1.10505e-22)
(-0.0511411 0.253477 -7.52e-20)
(-0.0471979 0.253088 -7.5044e-20)
(-0.0429414 0.252116 7.46663e-20)
(-0.038388 0.250611 7.44503e-20)
(-0.0335584 0.248634 -1.4816e-19)
(-0.0284796 0.246262 1.47465e-19)
(-0.0231882 0.243586 -7.35286e-20)
(-0.0177332 0.240712 7.29527e-20)
(-0.0121628 0.237767 1.45174e-19)
(-0.00657142 0.234944 7.19903e-20)
(-0.00122889 0.232467 8.28392e-20)
(-0.00168311 0.00509473 -5.75774e-20)
(-0.0060736 0.0166385 5.48474e-20)
(-0.0116316 0.0296696 -4.81246e-20)
(-0.0175916 0.043414 4.91564e-20)
(-0.0236747 0.0573817 8.35289e-20)
(-0.0296653 0.0712883 -6.79915e-20)
(-0.0354247 0.0849472 8.63412e-20)
(-0.0408607 0.0982406 5.25366e-20)
(-0.0459137 0.111098 -1.24143e-19)
(-0.0505456 0.123482 3.58629e-20)
(-0.054733 0.135373 1.80871e-20)
(-0.0584625 0.146762 3.65901e-20)
(-0.0617265 0.157641 3.68673e-20)
(-0.0645219 0.168003 -7.41898e-20)
(-0.0668481 0.177838 7.46249e-20)
(-0.0687078 0.187131 1.12537e-19)
(-0.0701053 0.195863 -1.12974e-19)
(-0.0710468 0.204012 1.51172e-19)
(-0.0715396 0.211555 7.57638e-20)
(-0.071591 0.21847 1.13972e-19)
(-0.0712084 0.224736 3.80154e-20)
(-0.0704003 0.230333 7.61254e-20)
(-0.0691758 0.235246 -7.60357e-20)
(-0.0675442 0.239463 0)
(-0.0655144 0.242978 -2.27946e-19)
(-0.0630953 0.245786 1.51686e-19)
(-0.0602963 0.247893 -7.56684e-20)
(-0.0571264 0.249307 -7.54961e-20)
(-0.0535948 0.250043 -5.31906e-23)
(-0.0497111 0.250125 0)
(-0.0454866 0.249584 0)
(-0.0409346 0.248459 7.4328e-20)
(-0.0360716 0.246801 -7.41645e-20)
(-0.0309185 0.244675 7.37557e-20)
(-0.0255024 0.242159 -7.34491e-20)
(-0.0198615 0.239351 -7.30667e-20)
(-0.0140482 0.236369 0)
(-0.00811455 0.233354 -7.22091e-20)
(-0.00215119 0.230525 -7.19578e-20)
(0.00354155 0.228132 -2.4761e-19)
(-0.00185126 0.00530748 5.75827e-20)
(-0.00651767 0.0170974 -5.48453e-20)
(-0.0122951 0.0302536 6.41744e-20)
(-0.0184296 0.0440405 -1.14677e-19)
(-0.0246425 0.0579936 -8.35198e-20)
(-0.0307227 0.0718452 6.79913e-20)
(-0.036536 0.0854197 -1.38098e-19)
(-0.0419945 0.0986058 -7.0043e-20)
(-0.0470424 0.111338 8.8674e-20)
(-0.0516456 0.12358 -1.61376e-19)
(-0.0557833 0.135316 -1.08718e-19)
(-0.0594446 0.146539 -3.65675e-20)
(-0.0626238 0.157243 -1.10555e-19)
(-0.0653193 0.167423 1.11248e-19)
(-0.0675314 0.177072 -7.46244e-20)
(-0.0692636 0.186176 -7.49964e-20)
(-0.0705206 0.194719 0)
(-0.0713089 0.20268 -7.5564e-20)
(-0.0716356 0.210039 -1.13664e-19)
(-0.071508 0.216775 3.79059e-20)
(-0.0709332 0.222867 -7.59985e-20)
(-0.0699196 0.228297 0)
(-0.0684762 0.233048 7.60349e-20)
(-0.0666121 0.23711 7.59808e-20)
(-0.0643362 0.240474 -7.56536e-20)
(-0.0616572 0.243137 0)
(-0.0585846 0.245102 0)
(-0.0551275 0.246377 0)
(-0.0512951 0.246976 -2.00039e-22)
(-0.0470974 0.246921 0)
(-0.0425459 0.246241 -1.48946e-19)
(-0.0376543 0.244977 -1.56187e-22)
(-0.0324394 0.243179 -1.476e-19)
(-0.0269221 0.240912 1.46986e-19)
(-0.0211303 0.238258 -7.30932e-20)
(-0.0151031 0.235322 7.28762e-20)
(-0.00889664 0.232229 0)
(-0.00256693 0.22914 1.4393e-19)
(0.00380117 0.226301 -7.14206e-20)
(0.0098747 0.223992 0)
(-0.00202304 0.00550294 7.18923e-21)
(-0.00696362 0.0175129 0)
(-0.0129491 0.030773 -8.01164e-20)
(-0.0192405 0.0445851 9.82597e-20)
(-0.0255601 0.0585102 5.00591e-20)
(-0.0317027 0.0722974 -6.7924e-20)
(-0.0375388 0.0857816 6.90339e-20)
(-0.0429854 0.0988579 -6.99851e-20)
(-0.0479911 0.111465 0)
(-0.0525258 0.123569 7.17155e-20)
(-0.0565721 0.135155 -7.24188e-20)
(-0.0601216 0.146219 2.30735e-23)
(-0.0631709 0.156757 0)
(-0.0657199 0.166766 7.41405e-20)
(-0.0677704 0.176239 -3.7247e-20)
(-0.0693265 0.185166 7.49964e-20)
(-0.0703939 0.193532 3.764e-20)
(-0.0709791 0.20132 -7.54761e-20)
(-0.0710893 0.208508 0)
(-0.0707317 0.215078 1.13718e-19)
(-0.0699135 0.22101 3.79357e-20)
(-0.068643 0.226287 0)
(-0.0669292 0.230892 0)
(-0.064781 0.234813 0)
(-0.0622074 0.238043 7.57682e-20)
(-0.0592174 0.240577 0)
(-0.0558205 0.242418 -7.53936e-20)
(-0.052026 0.243571 1.50271e-19)
(-0.0478436 0.24405 -1.49833e-19)
(-0.043284 0.243875 0)
(-0.0383592 0.243076 7.43989e-20)
(-0.0330833 0.241689 -7.3817e-20)
(-0.0274737 0.239766 7.37196e-20)
(-0.0215519 0.237371 0)
(-0.0153462 0.234591 0)
(-0.00889706 0.231532 7.23939e-20)
(-0.00226408 0.228331 -7.19524e-20)
(0.0044924 0.225164 1.43039e-19)
(0.0112952 0.22231 -1.42122e-19)
(0.0177776 0.220084 0)
(-0.00219734 0.00567972 5.02611e-20)
(-0.00740931 0.0178814 1.56461e-20)
(-0.0135915 0.0312223 6.40878e-20)
(-0.0200224 0.0450407 6.54265e-20)
(-0.0264264 0.0589229 -6.67481e-20)
(-0.0326046 0.0726348 6.79238e-20)
(-0.0384332 0.0860214 6.89662e-20)
(-0.0438343 0.0989843 6.99849e-20)
(-0.0487614 0.111465 0)
(-0.0531886 0.123434 7.1662e-20)
(-0.0571022 0.134876 7.24185e-20)
(-0.0604966 0.145788 7.30681e-20)
(-0.063371 0.156169 0)
(-0.0657271 0.166017 -2.65338e-23)
(-0.0675684 0.175327 7.45694e-20)
(-0.0688999 0.184089 -3.74444e-20)
(-0.069728 0.192292 -3.76155e-20)
(-0.0700598 0.199918 1.13231e-19)
(-0.0699025 0.20695 5.63686e-23)
(-0.0692635 0.213369 -3.79109e-20)
(-0.0681502 0.219157 -7.58508e-20)
(-0.0665709 0.224296 0)
(-0.0645345 0.22877 0)
(-0.0620502 0.232568 0)
(-0.059127 0.235681 0)
(-0.0557743 0.238104 0)
(-0.0520019 0.239839 0)
(-0.0478197 0.240889 7.4975e-20)
(-0.0432382 0.241269 -7.46634e-20)
(-0.0382689 0.240996 0)
(-0.0329245 0.240096 0)
(-0.0272201 0.238608 7.38158e-20)
(-0.0211739 0.23658 0)
(-0.0148082 0.234076 7.29157e-20)
(-0.00815194 0.231183 -7.24983e-20)
(-0.00124689 0.228012 0)
(0.00584364 0.224708 1.43236e-19)
(0.0130546 0.221462 -1.42339e-19)
(0.0203184 0.21859 0)
(0.0272345 0.216446 0)
(-0.00237308 0.00583684 -5.74399e-20)
(-0.00785266 0.0182001 -1.56289e-20)
(-0.0142201 0.031597 1.60034e-20)
(-0.0207736 0.0454011 -6.54265e-20)
(-0.0272405 0.059224 0)
(-0.0334285 0.072848 0)
(-0.0392201 0.0861284 -5.17205e-20)
(-0.0445431 0.0989729 -1.74749e-20)
(-0.0493561 0.111327 -3.54403e-20)
(-0.0536377 0.123161 -3.5862e-20)
(-0.057378 0.134464 -3.62164e-20)
(-0.0605748 0.145231 3.64868e-20)
(-0.0632298 0.155464 3.6758e-20)
(-0.0653472 0.165161 -3.70925e-20)
(-0.0669319 0.174319 0)
(-0.0679905 0.18293 0)
(-0.06853 0.190982 -7.51956e-20)
(-0.0685582 0.198462 0)
(-0.0680827 0.205353 0)
(-0.067111 0.211636 7.56676e-20)
(-0.0656509 0.217295 8.70099e-23)
(-0.063711 0.222313 -1.30729e-24)
(-0.0613002 0.226674 -7.57198e-20)
(-0.058428 0.230366 7.55573e-20)
(-0.0551038 0.23338 7.53836e-20)
(-0.0513374 0.235712 -7.5191e-20)
(-0.0471392 0.23736 0)
(-0.04252 0.23833 7.47872e-20)
(-0.0374912 0.238632 1.44399e-23)
(-0.0320654 0.238283 -7.41575e-20)
(-0.0262566 0.237308 0)
(-0.0200811 0.235742 0)
(-0.0135581 0.233631 7.30392e-20)
(-0.00671118 0.231041 -7.26365e-20)
(0.000429819 0.228056 -7.21894e-20)
(0.00782183 0.224788 7.1762e-20)
(0.0153978 0.22139 0)
(0.0230875 0.218069 0)
(0.0308339 0.215176 0)
(0.0382049 0.213112 -7.9709e-20)
(-0.00254923 0.0059737 7.16686e-20)
(-0.00829172 0.018467 -3.12343e-20)
(-0.0148332 0.0318938 1.599e-20)
(-0.0214929 0.0456614 0)
(-0.0280017 0.0594069 8.32835e-20)
(-0.0341747 0.0729287 1.37202e-23)
(-0.039901 0.0860926 6.89047e-20)
(-0.0451143 0.098812 -5.24361e-20)
(-0.0497789 0.111036 7.08023e-20)
(-0.0538777 0.122736 -3.57833e-20)
(-0.0574054 0.133903 0)
(-0.060363 0.144532 3.65284e-20)
(-0.0627553 0.154625 -1.10345e-19)
(-0.0645889 0.164181 0)
(-0.0658708 0.173199 1.11752e-19)
(-0.0666088 0.181671 -7.47736e-20)
(-0.0668113 0.189587 -7.51341e-20)
(-0.0664865 0.196935 3.76528e-20)
(-0.0656427 0.203699 0)
(-0.064288 0.209863 -7.56531e-20)
(-0.0624305 0.21541 -7.56995e-20)
(-0.0600791 0.220324 -7.84739e-23)
(-0.0572434 0.224589 7.55406e-20)
(-0.0539329 0.228194 7.5497e-20)
(-0.0501576 0.231129 -1.50682e-19)
(-0.0459281 0.233389 7.51898e-20)
(-0.0412557 0.234973 0)
(-0.0361522 0.235884 -7.45165e-20)
(-0.0306303 0.236132 7.41984e-20)
(-0.0247039 0.235731 7.38502e-20)
(-0.0183886 0.234706 -7.34751e-20)
(-0.0117022 0.233088 7.30762e-20)
(-0.0046654 0.230923 0)
(0.00269686 0.228272 7.23358e-20)
(0.0103534 0.225219 1.43615e-19)
(0.0182597 0.221876 -1.42923e-19)
(0.0263449 0.2184 1.419e-19)
(0.034533 0.215011 -6.84911e-23)
(0.042779 0.212097 -7.02014e-20)
(0.0506216 0.210111 1.58519e-19)
(-0.00272488 0.00609005 -4.3009e-20)
(-0.00872469 0.0186809 -9.35779e-20)
(-0.0154291 0.0321099 6.38757e-20)
(-0.0221792 0.0458174 -4.89537e-20)
(-0.0287098 0.0594657 -1.67045e-20)
(-0.0348439 0.0728695 1.69382e-20)
(-0.0404777 0.0859047 -3.44354e-20)
(-0.0455511 0.0984909 -3.49105e-20)
(-0.0500341 0.11058 3.54065e-20)
(-0.0539147 0.122146 -7.15829e-20)
(-0.0571916 0.133178 -5.50283e-23)
(-0.0598699 0.143674 3.64559e-20)
(-0.0619576 0.153634 0)
(-0.0634638 0.16306 -3.70472e-20)
(-0.0643978 0.171948 -3.7275e-20)
(-0.0647692 0.180294 7.48291e-20)
(-0.0645875 0.188088 0)
(-0.0638618 0.195318 0)
(-0.0626013 0.201972 7.55043e-20)
(-0.0608147 0.208032 -7.55141e-20)
(-0.0585109 0.213484 0)
(-0.0556993 0.21831 7.55907e-20)
(-0.05239 0.222498 -7.54966e-20)
(-0.0485931 0.226034 -1.50726e-19)
(-0.0443194 0.22891 -1.92712e-23)
(-0.0395803 0.23112 7.50414e-20)
(-0.0343883 0.232661 -1.49368e-19)
(-0.0287565 0.233536 7.45152e-20)
(-0.0226992 0.233754 -7.4197e-20)
(-0.0162319 0.233328 -1.18219e-22)
(-0.00937204 0.23228 9.46275e-23)
(-0.00213917 0.230639 -7.30748e-20)
(0.00544409 0.228449 -7.24044e-20)
(0.0133511 0.225767 -7.19502e-20)
(0.0215492 0.222673 -2.80393e-22)
(0.0299924 0.219282 0)
(0.0386059 0.215747 -7.05046e-20)
(0.0473073 0.212303 1.4028e-19)
(0.0560641 0.209373 -2.09216e-19)
(0.0643902 0.207466 -2.26145e-22)
(-0.00289921 0.00618597 -1.43112e-20)
(-0.00914998 0.0188412 1.24684e-19)
(-0.0160065 0.0322438 -6.38804e-20)
(-0.0228315 0.0458663 4.8959e-20)
(-0.0293646 0.0593961 -1.33095e-19)
(-0.0354371 0.0726641 1.69257e-20)
(-0.0409524 0.0855568 -6.87987e-20)
(-0.045857 0.0979996 0)
(-0.0501268 0.109947 0)
(-0.0537551 0.121376 -7.15253e-20)
(-0.056745 0.132275 3.61687e-20)
(-0.0591057 0.142641 -1.78509e-23)
(-0.0608486 0.152475 3.67252e-20)
(-0.0619857 0.161778 0)
(-0.0625287 0.170547 -1.11646e-19)
(-0.0624893 0.178779 3.73593e-20)
(-0.0618782 0.186464 -7.50279e-20)
(-0.060706 0.193591 0)
(-0.0589826 0.200149 0)
(-0.0567178 0.206122 6.4008e-23)
(-0.0539213 0.211495 -7.54818e-20)
(-0.0506035 0.216252 7.54381e-20)
(-0.0467751 0.22038 -7.54058e-20)
(-0.0424471 0.223867 7.52438e-20)
(-0.037631 0.226703 5.96109e-23)
(-0.0323398 0.228883 6.78346e-23)
(-0.0265871 0.230404 7.46451e-20)
(-0.0203877 0.231267 -7.41789e-20)
(-0.0137576 0.23148 0)
(-0.00671419 0.231055 -7.35214e-20)
(0.000723048 0.230011 7.31709e-20)
(0.00853238 0.228377 0)
(0.0166891 0.226192 7.24028e-20)
(0.0251648 0.223511 -7.16215e-20)
(0.0339248 0.22041 7.12688e-20)
(0.0429215 0.216998 0)
(0.0520768 0.213432 2.11142e-19)
(0.0613009 0.209949 -1.39758e-19)
(0.0705736 0.207013 0)
(0.0793903 0.205187 7.81406e-20)
(-0.00307155 0.00626184 1.14303e-19)
(-0.00956621 0.0189482 -6.23117e-20)
(-0.016564 0.032295 -1.59519e-20)
(-0.0234492 0.0458064 1.62939e-20)
(-0.0299664 0.0591949 6.65152e-20)
(-0.0359553 0.0723077 0)
(-0.0413273 0.085042 6.87988e-20)
(-0.0460357 0.0973295 1.04591e-19)
(-0.0500625 0.109128 3.53177e-20)
(-0.0534062 0.120414 3.57448e-20)
(-0.0560747 0.131179 3.60935e-20)
(-0.0580815 0.141417 -1.09395e-19)
(-0.0594417 0.15113 3.67073e-20)
(-0.0601702 0.160317 1.479e-19)
(-0.0602816 0.168977 3.71864e-20)
(-0.0597896 0.177105 3.73399e-20)
(-0.0587068 0.184694 7.50274e-20)
(-0.057045 0.191732 0)
(-0.0548155 0.198209 0)
(-0.0520293 0.20411 1.50904e-19)
(-0.0486974 0.20942 -3.01668e-19)
(-0.044831 0.214125 -6.25466e-23)
(-0.040442 0.218212 0)
(-0.0355423 0.221667 0)
(-0.0301448 0.224484 7.50088e-20)