/*--------------------------------*- C++ -*----------------------------------*\
  =========                 |
  \\      /  F ield         | OpenFOAM: The Open Source CFD Toolbox
   \\    /   O peration     | Website:  https://openfoam.org
    \\  /    A nd           | Version:  7
     \\/     M anipulation  |
\*---------------------------------------------------------------------------*/
FoamFile
{
    version     2.0;
    format      ascii;
    class       volVectorField;
    location    "10.1";
    object      U;
}
// * * * * * * * * * * * * * * * * * * * * * * * * * * * * * * * * * * * * * //

dimensions      [0 1 -1 0 0 0 0];

internalField   nonuniform List<vector> 
2000
(
(0.00379513 0.00799435 -2.09334e-21)
(0.020172 0.0670088 0)
(0.0494991 0.14146 0)
(0.0806066 0.216331 -1.11341e-20)
(0.108741 0.281851 4.02175e-21)
(0.130808 0.333164 5.21009e-22)
(0.145895 0.369477 -7.00722e-21)
(0.154569 0.392474 0)
(0.157931 0.404908 0)
(0.158811 0.409448 0)
(0.00321089 0.00273008 0)
(0.013512 0.0533569 -8.46188e-21)
(0.034357 0.12168 7.802e-21)
(0.0578419 0.193363 1.49755e-20)
(0.0806229 0.259018 0)
(0.0999246 0.313157 1.48548e-20)
(0.114416 0.353873 -1.38133e-20)
(0.124011 0.381787 0)
(0.129133 0.398885 2.91145e-20)
(0.131755 0.40751 -5.61969e-20)
(0.00324874 -0.00173478 0)
(0.00866158 0.0410422 6.9073e-20)
(0.0219604 0.102747 0)
(0.0381464 0.16996 6.10886e-20)
(0.0551824 0.234041 0)
(0.0708589 0.289369 -5.71384e-20)
(0.0837583 0.333266 0)
(0.0933777 0.365413 5.7572e-20)
(0.099626 0.386977 -5.39203e-20)
(0.103414 0.399789 -5.44622e-20)
(0.00365112 -0.00533773 -1.82011e-20)
(0.00508059 0.0302294 -3.42304e-20)
(0.0117712 0.0850414 -1.61844e-20)
(0.0212676 0.146796 -2.98038e-20)
(0.0325952 0.207791 -2.88978e-20)
(0.0441724 0.262646 2.78032e-20)
(0.0547194 0.308276 2.72803e-20)
(0.0635429 0.343628 -1.66556e-21)
(0.070228 0.369105 5.31609e-20)
(0.0744643 0.385822 5.44785e-20)
(0.00414234 -0.00801491 -1.84957e-20)
(0.00221847 0.0210112 -3.57784e-20)
(0.00319211 0.0687959 -6.75129e-20)
(0.00679457 0.124368 3.08888e-20)
(0.0128133 0.181026 0)
(0.0202162 0.233874 0)
(0.0279656 0.279719 -5.74034e-20)
(0.0353487 0.317018 -5.6443e-20)
(0.041805 0.345544 5.38614e-20)
(0.0456938 0.365489 1.61952e-19)
(0.00443567 -0.00971741 1.90192e-20)
(-0.000441547 0.0134075 1.84105e-20)
(-0.00434232 0.0541132 -1.0323e-19)
(-0.00572567 0.103 1.60448e-19)
(-0.00434263 0.154363 -2.97433e-20)
(-0.000830968 0.2039 0)
(0.0040144 0.248531 0)
(0.00956295 0.286444 2.77279e-19)
(0.0152264 0.316961 -2.68613e-19)
(0.0180179 0.339139 5.32703e-20)
(0.00425085 -0.0104283 1.56699e-19)
(-0.00332883 0.00737937 0)
(-0.0112684 0.0410226 1.36604e-19)
(-0.0166509 0.0829165 -1.28261e-19)
(-0.0190371 0.128307 0)
(-0.0188492 0.173524 5.99875e-20)
(-0.0167029 0.215721 -1.70356e-19)
(-0.0131089 0.252998 -2.22717e-19)
(-0.00864349 0.284379 1.05439e-19)
(-0.00755276 0.307605 1.05402e-19)
(0.00334213 -0.0101778 -3.16631e-19)
(-0.00673126 0.00284848 -3.79297e-20)
(-0.0178106 0.0295494 -7.15938e-20)
(-0.0261205 0.0643462 -1.66327e-19)
(-0.031261 0.103374 -6.36833e-20)
(-0.0336132 0.143586 -6.21971e-20)
(-0.0337032 0.182421 -1.95906e-21)
(-0.031939 0.218023 0)
(-0.0289221 0.249225 0)
(-0.0298745 0.272377 -2.39913e-21)
(0.00153642 -0.00905953 1.59936e-19)
(-0.010744 -0.000285866 -1.54818e-19)
(-0.0239143 0.0197794 1.05862e-19)
(-0.0339525 0.0476434 2.35452e-19)
(-0.0406793 0.0802489 -6.32071e-20)
(-0.0445902 0.115143 5.95722e-20)
(-0.0462129 0.150054 5.86924e-20)
(-0.0458954 0.183252 0)
(-0.0443088 0.213376 0)
(-0.0474203 0.235331 2.90092e-21)
(-0.00122544 -0.00723977 -2.0517e-20)
(-0.0152306 -0.00213486 1.94155e-19)
(-0.0292081 0.0119018 -3.6247e-20)
(-0.0395555 0.0333635 0)
(-0.0465242 0.0599694 0)
(-0.0507542 0.0897161 1.23923e-19)
(-0.0529488 0.120676 0)
(-0.0535537 0.15136 -1.17057e-19)
(-0.0535452 0.180297 -2.43977e-21)
(-0.0593871 0.201145 1.06576e-19)
(0.146502 0.404996 2.48168e-21)
(0.123694 0.380747 -2.52427e-21)
(0.100768 0.35746 -2.75909e-21)
(0.0910601 0.340035 -2.87898e-21)
(0.0712601 0.331851 -3.02471e-21)
(0.0683568 0.331318 -2.70885e-24)
(0.0446372 0.333931 1.53855e-21)
(0.0443575 0.338801 4.77512e-21)
(0.0162895 0.343412 0)
(0.014869 0.350363 -3.27025e-21)
(0.12945 0.40834 8.60543e-21)
(0.115639 0.386364 -1.06096e-20)
(0.0974369 0.362496 1.88832e-20)
(0.0892635 0.344142 2.88401e-21)
(0.0701491 0.33549 5.84151e-21)
(0.0671598 0.334939 9.065e-21)
(0.0441333 0.337736 -3.11796e-21)
(0.0438587 0.342807 -3.17743e-21)
(0.0165085 0.347981 6.34182e-21)
(0.014881 0.355015 3.26267e-21)
(0.111165 0.407944 0)
(0.107577 0.390202 -1.01056e-20)
(0.0946846 0.366977 -5.44683e-21)
(0.0881172 0.348138 0)
(0.0694719 0.339083 -1.7575e-20)
(0.066101 0.338467 5.79094e-21)
(0.0435286 0.341351 5.94712e-21)
(0.0431283 0.346631 1.84476e-20)
(0.0164854 0.352369 -6.32121e-21)
(0.014819 0.359585 1.25974e-20)
(0.0916816 0.403153 0)
(0.0992345 0.391941 1.01938e-20)
(0.0922251 0.370692 0)
(0.0875281 0.351995 2.24713e-20)
(0.0692879 0.342679 -2.25832e-20)
(0.0653222 0.341968 -1.18128e-20)
(0.042954 0.344808 -1.76894e-22)
(0.0422757 0.35028 -1.82184e-20)
(0.0162831 0.356557 -3.04899e-21)
(0.0147 0.364087 -1.56102e-20)
(0.0710884 0.393517 4.41625e-21)
(0.090332 0.391447 -2.78194e-20)
(0.0896897 0.373501 8.96663e-22)
(0.0873129 0.355675 -2.15172e-20)
(0.0695957 0.346334 0)
(0.064939 0.345517 -1.1632e-20)
(0.0425453 0.348195 -1.53612e-22)
(0.0414123 0.353802 2.38605e-20)
(0.0159506 0.3605 3.01093e-21)
(0.014527 0.368324 -3.02266e-21)
(0.0496424 0.378525 -7.19966e-20)
(0.080543 0.388235 4.84822e-20)
(0.0865294 0.374895 2.13076e-20)
(0.087122 0.358895 -2.12857e-20)
(0.0702813 0.34992 -1.10254e-20)
(0.0650324 0.349049 0)
(0.042464 0.351468 -2.30524e-20)
(0.0407497 0.357172 1.1479e-20)
(0.0157057 0.364301 1.17061e-20)
(0.0143789 0.372685 1.17047e-20)
(0.027737 0.35882 -9.29121e-21)
(0.069973 0.382974 0)
(0.082585 0.375027 0)
(0.0867593 0.361706 0)
(0.0712179 0.353503 -1.11582e-20)
(0.0655769 0.352729 2.21455e-20)
(0.0427388 0.354882 2.28275e-20)
(0.0402201 0.360553 -3.42227e-20)
(0.0152854 0.367724 5.73656e-21)
(0.0141045 0.376185 -1.72774e-20)
(0.00587282 0.333198 5.44614e-20)
(0.0577893 0.374001 4.09821e-20)
(0.0768062 0.372571 -4.05718e-20)
(0.0856014 0.363353 4.33349e-20)
(0.0721272 0.356485 -5.37044e-20)
(0.0666417 0.355998 0)
(0.0436726 0.35787 -1.10413e-20)
(0.0406064 0.363716 1.72974e-22)
(0.0159802 0.371538 -1.10668e-20)
(0.0142764 0.381228 -1.10327e-20)
(-0.0142607 0.307271 -4.65074e-20)
(0.0465715 0.365087 0)
(0.0706857 0.369503 -4.76213e-20)
(0.0839204 0.364713 8.49645e-20)
(0.0727847 0.359648 -3.16547e-20)
(0.0677436 0.360004 -5.3988e-21)
(0.0445499 0.361821 1.10175e-20)
(0.0400033 0.367164 5.79368e-23)
(0.0144341 0.373849 1.63309e-20)
(0.0133945 0.382279 1.62327e-20)
(-0.0355928 0.269926 -4.00386e-20)
(0.0303548 0.347726 3.90132e-20)
(0.0611228 0.361663 5.10072e-21)
(0.0810898 0.363287 0)
(0.0733969 0.360309 0)
(0.0698915 0.36138 5.26507e-21)
(0.0474879 0.363286 2.10478e-20)
(0.044333 0.370291 -2.06729e-20)
(0.0204804 0.379923 -5.14852e-21)
(0.015576 0.392247 5.06303e-21)
(-0.0496386 0.238233 0)
(0.0112694 0.314455 0)
(0.035496 0.344488 0)
(0.0665111 0.360862 0)
(0.0698962 0.36905 0)
(0.0699907 0.377592 0)
(0.0439732 0.379937 0)
(0.0250224 0.377651 0)
(-0.0106933 0.37214 0)
(0.00341594 0.370353 0)
(0.0860794 0.30173 0)
(0.0720982 0.301682 0)
(0.0598849 0.316805 0)
(0.0705697 0.337248 0)
(0.0625759 0.351862 0)
(0.0715744 0.369399 0)
(0.064068 0.386579 0)
(0.0777211 0.410365 0)
(0.0590553 0.421925 0)
(0.0281245 0.426473 0)
(0.218608 0.376364 0)
(0.176769 0.352063 0)
(0.13826 0.339548 0)
(0.129442 0.352868 0)
(0.117391 0.376839 0)
(0.108098 0.397046 0)
(0.0652694 0.399516 0)
(0.0393463 0.401333 0)
(0.0186547 0.400838 0)
(0.0176044 0.407375 0)
(0.294577 0.417602 0)
(0.262576 0.398482 0)
(0.216819 0.373584 0)
(0.170937 0.358825 0)
(0.124285 0.365152 0)
(0.120922 0.396625 0)
(0.108665 0.427705 0)
(0.0991022 0.450054 0)
(0.0613453 0.471799 0)
(0.0303248 0.501924 0)
(0.330154 0.445526 0)
(0.30439 0.439953 0)
(0.273493 0.433724 0)
(0.2515 0.438 0)
(0.200588 0.438895 0)
(0.148657 0.437312 0)
(0.0863583 0.439562 0)
(0.0601976 0.444991 0)
(0.0242785 0.449259 0)
(0.0141991 0.465325 0)
(0.347586 0.454232 0)
(0.328424 0.455411 0)
(0.281018 0.438333 0)
(0.245834 0.43301 0)
(0.213859 0.452146 0)
(0.20248 0.481247 0)
(0.16072 0.502982 0)
(0.126071 0.527512 0)
(0.0693347 0.545898 0)
(0.0264089 0.564187 0)
(0.355229 0.473404 0)
(0.352334 0.503902 0)
(0.333947 0.520316 0)
(0.299435 0.516386 0)
(0.230337 0.50437 0)
(0.182792 0.506995 0)
(0.130033 0.512924 0)
(0.0987884 0.520429 0)
(0.055422 0.529852 0)
(0.0247608 0.540721 0)
(0.353239 0.447689 0)
(0.336862 0.473092 0)
(0.310118 0.492834 0)
(0.30806 0.52422 0)
(0.276929 0.550805 0)
(0.244158 0.575021 0)
(0.188251 0.600216 0)
(0.144071 0.621278 0)
(0.0855149 0.640427 0)
(0.0377616 0.658934 0)
(0.359148 0.462504 0)
(0.386606 0.54474 0)
(0.350978 0.564646 0)
(0.315845 0.567717 0)
(0.265255 0.57443 0)
(0.228169 0.585288 0)
(0.171164 0.599776 0)
(0.129703 0.612219 0)
(0.0701788 0.626427 0)
(0.0316592 0.648102 0)
(0.276211 0.313086 0)
(0.35284 0.461306 0)
(0.368175 0.553538 0)
(0.365002 0.607437 0)
(0.325184 0.644686 0)
(0.288818 0.677438 0)
(0.225634 0.707668 0)
(0.172847 0.731878 0)
(0.0961689 0.751561 0)
(0.0383777 0.772763 0)
(0.00741153 0.209574 3.87607e-20)
(0.178043 0.308372 -3.72428e-20)
(0.281665 0.380012 3.65906e-21)
(0.331867 0.416891 0)
(0.351877 0.438097 0)
(0.360516 0.440845 1.86208e-21)
(0.357554 0.443308 -4.70948e-21)
(0.337425 0.394711 4.63835e-21)
(0.303026 0.359866 2.18951e-22)
(0.217296 0.199216 -2.15793e-22)
(0.06832 0.218228 -4.64445e-20)
(0.226648 0.328046 0)
(0.305718 0.39332 2.26216e-20)
(0.340756 0.422617 -4.7368e-20)
(0.353559 0.436569 2.58254e-20)
(0.357449 0.433155 -1.90683e-21)
(0.34643 0.4223 2.64616e-21)
(0.319428 0.363028 2.99088e-21)
(0.276209 0.315984 -2.29381e-22)
(0.192209 0.154065 -3.89739e-22)
(0.129875 0.242844 5.38008e-20)
(0.262599 0.346924 -2.95337e-20)
(0.321778 0.400675 2.92565e-20)
(0.347076 0.422482 -2.01389e-20)
(0.354955 0.430271 1.53344e-20)
(0.353533 0.420034 0)
(0.335417 0.397144 -2.65196e-21)
(0.301026 0.328594 -1.25035e-22)
(0.248342 0.269094 -9.08222e-22)
(0.166644 0.108664 2.07767e-22)
(0.190675 0.273435 -8.77296e-21)
(0.292673 0.362575 0)
(0.334467 0.405403 0)
(0.35068 0.420385 0)
(0.352867 0.421058 1.15796e-20)
(0.345092 0.402464 -7.44689e-21)
(0.319065 0.366635 3.67139e-22)
(0.277346 0.289089 -1.0569e-21)
(0.218521 0.21994 -1.28359e-22)
(0.141544 0.0645806 4.62935e-22)
(0.244952 0.303712 -2.27328e-21)
(0.314765 0.374146 -2.36002e-20)
(0.342055 0.40622 -1.07907e-20)
(0.351333 0.414352 1.07813e-20)
(0.348168 0.407233 -4.07457e-21)
(0.33339 0.379239 0)
(0.299695 0.331063 -2.3195e-21)
(0.251365 0.246154 2.53929e-21)
(0.18842 0.169591 -1.08818e-21)
(0.117292 0.0231625 -3.40331e-22)
(0.287055 0.329262 -5.89415e-20)
(0.330096 0.380841 9.60783e-21)
(0.346165 0.403296 2.11991e-21)
(0.349334 0.40456 1.01535e-20)
(0.34018 0.388785 0)
(0.317854 0.350728 0)
(0.276799 0.291089 0)
(0.222901 0.200452 1.27525e-21)
(0.158165 0.118924 0)
(0.0904382 -0.0142301 0)
(0.316095 0.347163 0)
(0.339744 0.382685 1.75862e-20)
(0.346948 0.396555 -1.15337e-20)
(0.344274 0.390331 -7.77004e-21)
(0.328807 0.365191 7.80865e-21)
(0.298891 0.316987 2.30639e-21)
(0.251267 0.247403 -2.61394e-21)
(0.193263 0.153159 -4.57379e-21)
(0.128563 0.0696674 4.34943e-22)
(0.0706465 -0.0469849 2.74238e-22)
(0.334075 0.356994 0)
(0.344943 0.38011 -6.05682e-21)
(0.344865 0.385909 -2.40684e-21)
(0.336161 0.371419 0)
(0.314015 0.336534 1.28834e-21)
(0.276808 0.278681 -4.10246e-21)
(0.223712 0.201062 2.63799e-21)
(0.16337 0.105536 4.553e-22)
(0.10093 0.02346 -3.35627e-22)
(0.0532108 -0.0751084 -2.19719e-22)
(0.34426 0.360314 6.51976e-21)
(0.346512 0.373578 5.09444e-21)
(0.339837 0.371152 -1.60136e-21)
(0.324853 0.347647 9.3485e-22)
(0.296009 0.303082 1.57986e-21)
(0.252224 0.236614 1.77848e-21)
(0.195038 0.153168 -4.14964e-22)
(0.134315 0.0587459 -2.70872e-22)
(0.0762607 -0.0189787 3.36722e-22)
(0.0383263 -0.0990149 -6.7095e-24)
(0.349261 0.358981 -1.38274e-21)
(0.344858 0.363207 1.41648e-21)
(0.331895 0.352098 -1.13579e-21)
(0.31057 0.319182 -9.33228e-22)
(0.275276 0.265489 6.33278e-22)
(0.225883 0.191855 -1.20682e-21)
(0.16614 0.104918 5.81115e-22)
(0.106891 0.0138658 1.036e-22)
(0.05503 -0.057063 0)
(0.0262172 -0.119225 6.72182e-24)
(0.350536 0.354023 1.3212e-21)
(0.340285 0.348906 -1.35207e-21)
(0.321253 0.328784 -1.03059e-21)
(0.293747 0.286495 -8.43131e-22)
(0.252531 0.224638 -5.97473e-22)
(0.198691 0.145558 9.89519e-23)
(0.137954 0.0574994 2.12857e-22)
(0.0817949 -0.0280758 4.08579e-22)
(0.0374775 -0.0902476 0)
(0.0169679 -0.136084 -2.38433e-23)
(0.34872 0.345662 0)
(0.333104 0.330646 -4.40917e-21)
(0.308321 0.301549 7.45376e-21)
(0.275016 0.250356 8.44213e-22)
(0.228619 0.181593 1.26111e-21)
(0.1716 0.0989136 1.45853e-21)
(0.111329 0.0120031 -3.70486e-22)
(0.0596835 -0.0662455 -2.49092e-22)
(0.0236125 -0.118332 2.90388e-22)
(0.0103547 -0.15002 2.37822e-23)
(0.344094 0.333855 0)
(0.323588 0.308665 -4.58483e-21)
(0.293522 0.27103 -1.98349e-21)
(0.25501 0.211718 0)
(0.204374 0.137459 -3.41787e-21)
(0.145506 0.0530407 1.21536e-21)
(0.0869216 -0.0306675 7.76516e-22)
(0.040963 -0.100171 1.5279e-21)
(0.0132208 -0.14153 -2.89439e-22)
(0.00596819 -0.161585 1.48787e-22)
(0.336879 0.318713 0)
(0.312105 0.283504 4.62143e-21)
(0.277378 0.238044 0)
(0.234411 0.171587 5.40092e-21)
(0.180589 0.0932713 -5.43001e-21)
(0.120978 0.00889451 -1.5533e-21)
(0.0652757 -0.0698781 2.04994e-22)
(0.0258046 -0.129676 -1.49147e-21)
(0.00597372 -0.160357 -2.84863e-22)
(0.00332511 -0.171402 -2.37686e-22)
(0.327479 0.300611 4.12964e-20)
(0.299333 0.25591 -1.57668e-20)
(0.260662 0.203489 -1.53344e-21)
(0.213997 0.130948 -6.65815e-21)
(0.157921 0.0499775 0)
(0.0984946 -0.032757 -1.50602e-21)
(0.0467783 -0.105244 4.06642e-22)
(0.0141547 -0.154819 2.02841e-21)
(0.00143734 -0.175523 9.0094e-23)
(0.00193911 -0.180082 -8.99278e-23)
(0.316755 0.28015 2.90661e-21)
(0.286301 0.226732 2.38978e-20)
(0.244331 0.168298 6.52621e-21)
(0.194495 0.0907585 -6.52472e-21)
(0.136743 0.00834294 -2.20427e-21)
(0.0785208 -0.0714497 0)
(0.0314995 -0.136601 -2.35379e-21)
(0.00577267 -0.175896 1.26748e-21)
(-0.000923746 -0.187842 7.32335e-22)
(0.00137386 -0.188173 1.677e-22)
(0.305818 0.258036 -5.27654e-21)
(0.273564 0.196901 0)
(0.228763 0.133425 0)
(0.176036 0.0519115 0)
(0.117484 -0.0310353 -1.63437e-21)
(0.0613247 -0.106875 3.83573e-21)
(0.0193656 -0.16397 2.34586e-21)
(0.000329092 -0.193364 -2.89899e-21)
(-0.00169772 -0.198147 1.81163e-22)
(0.00127837 -0.196162 -3.45199e-22)
(0.29421 0.23528 -1.22376e-20)
(0.25952 0.16741 1.64356e-20)
(0.212557 0.0996527 -1.62917e-20)
(0.158297 0.0149516 1.01858e-20)
(0.10034 -0.0679077 -1.22834e-20)
(0.0468953 -0.138934 0)
(0.0101695 -0.187538 -1.26106e-21)
(-0.00281047 -0.207749 -1.27468e-23)
(-0.00150689 -0.207225 -5.61065e-22)
(0.00139663 -0.204484 -1.71635e-22)
(0.279623 0.213682 -5.64032e-21)
(0.242441 0.138934 0)
(0.194643 0.0670828 -1.54061e-20)
(0.140939 -0.0202224 2.37145e-20)
(0.0851615 -0.102373 -8.03424e-21)
(0.0353471 -0.167749 -8.2516e-22)
(0.0036497 -0.207488 1.25822e-21)
(-0.00440534 -0.219567 1.7066e-22)
(-0.000780621 -0.215857 1.10565e-21)
(0.0015379 -0.213551 3.49308e-22)
(0.269258 0.194929 -2.33598e-20)
(0.230931 0.111859 2.26883e-20)
(0.181452 0.0357945 2.03049e-21)
(0.126275 -0.0538391 0)
(0.0719495 -0.134826 0)
(0.0264603 -0.193568 8.51804e-22)
(-1.76772e-05 -0.223925 2.27925e-21)
(-0.00497598 -0.229296 -2.23668e-21)
(-7.08078e-05 -0.224727 -1.89712e-22)
(0.00158702 -0.22366 1.85438e-22)
(0.281118 0.14968 0)
(0.236658 0.052417 0)
(0.178122 -0.0322525 0)
(0.10536 -0.127586 0)
(0.0403406 -0.207524 0)
(0.00142831 -0.249775 0)
(-0.00817207 -0.255523 0)
(-0.00343106 -0.248266 0)
(0.00229365 -0.247851 0)
(0.00136229 -0.25068 0)
(0.175113 -0.0901213 0)
(0.0765388 -0.228078 0)
(0.0180817 -0.285302 0)
(-0.0097065 -0.330982 0)
(-0.00567557 -0.339522 0)
(0.00455085 -0.330632 0)
(0.00590976 -0.314516 0)
(0.00161116 -0.30745 0)
(-0.000569106 -0.311951 0)
(-0.000226655 -0.312903 0)
(0.117819 -0.272342 0)
(0.0533913 -0.375324 0)
(0.0455144 -0.362628 0)
(0.0290119 -0.368338 0)
(0.0268389 -0.353268 0)
(0.0197329 -0.355085 0)
(0.0100053 -0.357452 0)
(-0.000365438 -0.361258 0)
(-0.00196713 -0.362674 0)
(0.000164384 -0.361627 0)
(0.0530015 -0.381239 0)
(0.0176228 -0.43875 0)
(0.0362583 -0.397965 0)
(0.0156888 -0.420522 0)
(0.0210859 -0.404458 0)
(0.00834868 -0.417509 0)
(0.00216505 -0.417561 0)
(-0.00142555 -0.419973 0)
(0.00102005 -0.417227 0)
(0.000605684 -0.416452 0)
(0.0597225 -0.444615 0)
(0.0437121 -0.471946 0)
(0.0473061 -0.448238 0)
(0.0168522 -0.48391 0)
(0.019358 -0.469055 0)
(0.00142917 -0.488924 0)
(0.00514274 -0.478306 0)
(0.00164553 -0.482823 0)
(0.00243685 -0.479964 0)
(-0.000104259 -0.481504 0)
(0.0500852 -0.504992 0)
(0.0342053 -0.541154 0)
(0.023734 -0.534998 0)
(0.00882633 -0.55957 0)
(0.0156834 -0.542896 0)
(0.00147811 -0.558694 0)
(0.0085869 -0.545811 0)
(-0.000623366 -0.557056 0)
(0.0024587 -0.551398 0)
(-0.000570849 -0.554163 0)
(0.0345959 -0.600626 0)
(0.0208829 -0.644239 0)
(0.0187827 -0.623884 0)
(0.0131472 -0.644549 0)
(0.0114618 -0.630681 0)
(0.00140439 -0.645286 0)
(0.00686696 -0.636264 0)
(-0.00233345 -0.646308 0)
(0.00393522 -0.638845 0)
(-0.00151616 -0.643231 0)
(0.0257811 -0.731642 0)
(0.0196778 -0.766931 0)
(0.0171332 -0.743549 0)
(0.00703627 -0.77033 0)
(0.0065427 -0.754439 0)
(0.0033038 -0.770004 0)
(0.00491387 -0.760994 0)
(-0.00130632 -0.768399 0)
(0.00316121 -0.763424 0)
(-0.00231611 -0.767186 0)
(0.0152666 -0.899118 0)
(0.0109763 -0.922924 0)
(0.00930238 -0.912499 0)
(0.00588629 -0.930195 0)
(0.00490569 -0.919115 0)
(0.00189125 -0.9332 0)
(0.00277474 -0.925419 0)
(-0.00111971 -0.933258 0)
(0.000979093 -0.929255 0)
(-0.0011902 -0.931115 0)
(0.00544393 -1.03354 0)
(0.00520436 -1.04633 0)
(0.00339067 -1.04718 0)
(0.00054604 -1.05719 0)
(0.00159759 -1.05517 0)
(0.00190735 -1.06277 0)
(-0.000481674 -1.05994 0)
(-0.00139752 -1.0626 0)
(0.0012912 -1.05973 0)
(-0.000317162 -1.06206 0)
(0.274426 0.148728 2.58232e-20)
(0.193215 -0.0857575 -2.61901e-20)
(0.107229 -0.27567 3.18674e-21)
(0.0614535 -0.398361 0)
(0.0662864 -0.462782 0)
(0.054959 -0.520343 3.3082e-21)
(0.040291 -0.615415 -1.35974e-20)
(0.0267891 -0.746327 1.35877e-20)
(0.0171475 -0.906153 3.56532e-21)
(0.0058007 -1.02941 -3.56545e-21)
(0.269536 0.126734 -3.48522e-20)
(0.198792 -0.0999552 0)
(0.105518 -0.279118 2.10761e-20)
(0.065526 -0.402693 -4.76772e-20)
(0.0685879 -0.467035 2.98823e-20)
(0.0572134 -0.523683 -2.97019e-21)
(0.0429674 -0.618775 6.42589e-21)
(0.0274551 -0.749599 1.30833e-20)
(0.0181012 -0.905174 3.63021e-21)
(0.00598588 -1.02532 3.62806e-21)
(0.266354 0.111178 4.23424e-20)
(0.201641 -0.110934 -2.49231e-20)
(0.106943 -0.28656 2.46572e-20)
(0.0711639 -0.408719 -2.48838e-20)
(0.0711469 -0.470177 1.85469e-20)
(0.0598365 -0.525201 0)
(0.0460225 -0.620438 -6.44204e-21)
(0.0288486 -0.751122 3.79916e-22)
(0.0194784 -0.901767 -6.82486e-21)
(0.00616327 -1.01917 -7.00127e-21)
(0.265621 0.0975639 -6.79107e-21)
(0.204373 -0.115086 0)
(0.110907 -0.290346 0)
(0.0780688 -0.415055 0)
(0.0743938 -0.473269 1.99067e-20)
(0.0630142 -0.52635 -1.32055e-20)
(0.0494882 -0.62138 1.36153e-23)
(0.0309655 -0.7521 -7.40492e-21)
(0.0213048 -0.898908 -3.88334e-21)
(0.00642939 -1.01335 -4.20949e-21)
(0.267368 0.0873934 -2.81319e-21)
(0.209159 -0.115365 -2.06971e-20)
(0.117261 -0.289654 -1.27101e-20)
(0.0856516 -0.419215 1.26978e-20)
(0.0783286 -0.475609 -6.61445e-21)
(0.0668271 -0.527351 0)
(0.0533735 -0.621757 -7.16176e-21)
(0.0336235 -0.75269 1.53731e-20)
(0.0234591 -0.896965 -7.89336e-21)
(0.00685601 -1.00849 8.18968e-21)
(0.271706 0.0804126 -5.99882e-20)
(0.21673 -0.11187 8.36743e-21)
(0.126222 -0.28617 1.60086e-22)
(0.0937818 -0.420404 1.31594e-20)
(0.0828154 -0.47627 0)
(0.0712177 -0.52771 0)
(0.0576685 -0.621305 0)
(0.0366916 -0.752509 8.24088e-21)
(0.0257897 -0.895133 0)
(0.00745499 -1.00404 0)
(0.278525 0.0762868 0)
(0.227149 -0.104377 2.08836e-20)
(0.137999 -0.280106 -1.37613e-20)
(0.102631 -0.418897 -1.42191e-20)
(0.0878647 -0.474995 1.42937e-20)
(0.0761051 -0.526977 7.8396e-21)
(0.0623608 -0.619704 -7.887e-21)
(0.0401441 -0.751176 -2.95491e-20)
(0.0282254 -0.892636 2.08856e-21)
(0.0082039 -0.999325 -7.24569e-21)
(0.287509 0.0744545 0)
(0.240299 -0.0931685 -7.12679e-21)
(0.152752 -0.270694 -3.56886e-21)
(0.112348 -0.414763 0)
(0.0936184 -0.47197 3.89614e-21)
(0.0814808 -0.525041 -1.19697e-20)
(0.0674607 -0.616752 1.25592e-20)
(0.0440323 -0.748443 4.33789e-21)
(0.0307682 -0.889007 -4.80741e-21)
(0.00913988 -0.993769 9.60448e-21)
(0.298097 0.0741295 8.93008e-21)
(0.255877 -0.0788001 7.40624e-21)
(0.170695 -0.257361 -2.04648e-21)
(0.123019 -0.407539 1.92658e-21)
(0.100221 -0.467357 3.9045e-21)
(0.0874087 -0.521985 6.25409e-21)
(0.0730051 -0.61242 -2.26004e-21)
(0.0484143 -0.744275 -2.38303e-21)
(0.0334581 -0.884254 4.82334e-21)
(0.0102182 -0.987372 2.63562e-21)
(0.309551 0.0743904 -2.08873e-21)
(0.273343 -0.062076 2.0871e-21)
(0.19204 -0.239874 -1.86078e-21)
(0.134758 -0.396566 -1.92428e-21)
(0.107757 -0.461147 2.13177e-21)
(0.0939884 -0.517859 -4.29913e-21)
(0.079056 -0.606732 3.44414e-21)
(0.0533443 -0.738618 1.19214e-21)
(0.0363643 -0.878311 0)
(0.0115559 -0.980003 -2.64135e-21)
(0.321028 0.0749529 2.19779e-21)
(0.291936 -0.0440219 -2.19528e-21)
(0.216753 -0.218152 -2.05316e-21)
(0.147973 -0.381186 -2.10784e-21)
(0.116289 -0.453228 -2.22761e-21)
(0.101334 -0.512621 -9.84015e-23)
(0.0856645 -0.599776 1.23629e-21)
(0.0588483 -0.731614 3.86163e-21)
(0.0394645 -0.871448 0)
(0.0129988 -0.97198 -2.89346e-21)
(0.331778 0.0757843 0)
(0.310597 -0.0254308 -8.57374e-21)
(0.244225 -0.192343 1.50274e-20)
(0.163515 -0.360973 2.11152e-21)
(0.125895 -0.443485 4.64617e-21)
(0.109586 -0.506154 7.24534e-21)
(0.0928943 -0.591506 -2.47349e-21)
(0.0649513 -0.723126 -2.61039e-21)
(0.042918 -0.863356 5.77431e-21)
(0.0147536 -0.963016 2.88656e-21)
(0.341283 0.0761819 0)
(0.328219 -0.0079428 -9.53317e-21)
(0.273064 -0.163298 -4.34258e-21)
(0.182605 -0.335814 0)
(0.136746 -0.431618 -1.43742e-20)
(0.118901 -0.498445 4.88561e-21)
(0.100769 -0.582084 5.38425e-21)
(0.0716524 -0.713441 1.68241e-20)
(0.0465368 -0.854529 -5.75567e-21)
(0.0165103 -0.953484 1.25769e-20)
(0.34891 0.0754905 0)
(0.343935 0.00711092 9.612e-21)
(0.301877 -0.132617 0)
(0.206473 -0.305819 1.9388e-20)
(0.149253 -0.416943 -1.94905e-20)
(0.129423 -0.489304 -1.06944e-20)
(0.10942 -0.571243 -2.80598e-23)
(0.0790013 -0.702027 -1.72611e-20)
(0.0507382 -0.844125 -2.85675e-21)
(0.0186068 -0.942871 -1.56263e-20)
(0.35442 0.0736443 9.29399e-20)
(0.357075 0.019662 -3.43159e-20)
(0.329107 -0.102214 -5.19985e-22)
(0.235499 -0.271571 -2.00069e-20)
(0.164273 -0.398644 0)
(0.141161 -0.478846 -1.11559e-20)
(0.118891 -0.559477 -5.64753e-22)
(0.0869013 -0.689776 2.35888e-20)
(0.0549633 -0.833281 3.2352e-21)
(0.0205706 -0.931737 -3.24665e-21)
(0.357813 0.0707265 4.08568e-21)
(0.367224 0.029357 5.75292e-20)
(0.353247 -0.0738986 2.10858e-20)
(0.268515 -0.2343 -2.10856e-20)
(0.183141 -0.375901 -1.09952e-20)
(0.154107 -0.466301 0)
(0.1294 -0.545919 -2.44106e-20)
(0.0957065 -0.675152 1.21828e-20)
(0.060118 -0.820102 1.28388e-20)
(0.022852 -0.919336 1.39819e-20)
(0.359282 0.0670075 -1.32486e-20)
(0.37425 0.0360983 0)
(0.373154 -0.0491117 0)
(0.302961 -0.19589 0)
(0.207297 -0.348586 -1.20332e-20)
(0.167867 -0.452254 2.29936e-20)
(0.140944 -0.532348 2.48814e-20)
(0.104738 -0.660987 -3.86769e-20)
(0.06503 -0.807352 6.93978e-21)
(0.0248675 -0.906452 -2.0722e-20)
(0.359249 0.0631209 -2.9169e-20)
(0.378385 0.0405205 4.92365e-20)
(0.388115 -0.0288029 -4.87979e-20)
(0.335769 -0.158488 4.70955e-20)
(0.237276 -0.316431 -5.8719e-20)
(0.183034 -0.433737 0)
(0.15365 -0.515679 -1.31049e-20)
(0.115577 -0.64253 -5.44757e-22)
(0.0714053 -0.790865 -1.43534e-20)
(0.0271583 -0.892053 -1.48396e-20)
(0.358346 0.0593651 -1.44264e-20)
(0.380251 0.0430326 0)
(0.397832 -0.0132032 -5.65106e-20)
(0.364383 -0.123707 9.89261e-20)
(0.271772 -0.282394 -3.67568e-20)
(0.198712 -0.415298 -6.47036e-21)
(0.167019 -0.502451 1.3077e-20)
(0.125417 -0.628562 -6.54085e-22)
(0.0771323 -0.776892 2.09039e-20)
(0.0291508 -0.877336 2.1913e-20)
(0.356883 0.0539306 -6.26141e-20)
(0.381191 0.0419016 6.06414e-20)
(0.40275 -0.000543079 6.72465e-21)
(0.386717 -0.092829 0)
(0.309454 -0.240825 0)
(0.219422 -0.385775 6.29732e-21)
(0.182445 -0.48047 2.71403e-20)
(0.139423 -0.604561 -2.62718e-20)
(0.0851711 -0.756481 -7.0749e-21)
(0.03134 -0.860971 6.88896e-21)
(0.349663 0.0468321 0)
(0.387198 0.0340947 0)
(0.406745 0.00359358 0)
(0.413399 -0.0694767 0)
(0.367584 -0.194555 0)
(0.276906 -0.346668 0)
(0.210273 -0.463753 0)
(0.163276 -0.582806 0)
(0.101062 -0.724141 0)
(0.036302 -0.821535 0)
(0.344945 0.0175574 0)
(0.37276 0.00142275 0)
(0.393365 -0.0237359 0)
(0.414062 -0.0661048 0)
(0.407593 -0.147039 0)
(0.356768 -0.267912 0)
(0.283212 -0.397681 0)
(0.208901 -0.526359 0)
(0.12813 -0.657412 0)
(0.037983 -0.751048 0)
(0.329556 0.00148539 0)
(0.349111 -0.0184205 0)
(0.365518 -0.0454625 0)
(0.384364 -0.0794878 0)
(0.395 -0.134179 0)
(0.374965 -0.213704 0)
(0.329623 -0.316155 0)
(0.252029 -0.432583 0)
(0.156466 -0.54957 0)
(0.0495919 -0.648363 0)
(0.311951 -0.0116283 0)
(0.323665 -0.0327182 0)
(0.333831 -0.0595927 0)
(0.342805 -0.0918047 0)
(0.35229 -0.136478 0)
(0.340556 -0.192489 0)
(0.316492 -0.262685 0)
(0.258737 -0.348693 0)
(0.163892 -0.435923 0)
(0.068255 -0.520005 0)
(0.29286 -0.0213847 0)
(0.299367 -0.0417063 0)
(0.304115 -0.0667659 0)
(0.303764 -0.0957873 0)
(0.305153 -0.133852 0)
(0.289454 -0.177768 0)
(0.267306 -0.227519 0)
(0.227759 -0.287826 0)
(0.142461 -0.347161 0)
(0.0734214 -0.405615 0)
(0.274503 -0.0271589 0)
(0.277183 -0.045382 0)
(0.277981 -0.067633 0)
(0.271311 -0.0927253 0)
(0.265217 -0.124586 0)
(0.244903 -0.160209 0)
(0.216403 -0.197219 0)
(0.185612 -0.240393 0)
(0.107715 -0.278788 0)
(0.0638623 -0.304286 0)
(0.258763 -0.0307114 0)
(0.258696 -0.044943 0)
(0.256069 -0.0628342 0)
(0.24531 -0.0821745 0)
(0.233525 -0.106343 0)
(0.210588 -0.133251 0)
(0.175145 -0.159967 0)
(0.148396 -0.188797 0)
(0.077632 -0.2163 0)
(0.0462696 -0.244627 0)
(0.245954 -0.0351528 0)
(0.246303 -0.0445468 0)
(0.238558 -0.0591039 0)
(0.225475 -0.0735488 0)
(0.20983 -0.0931066 0)
(0.187141 -0.115041 0)
(0.150754 -0.135619 0)
(0.127182 -0.161471 0)
(0.0622977 -0.18551 0)
(0.0527479 -0.171611 0)
(0.281401 -0.0238272 0)
(0.281185 -0.0299437 0)
(0.25369 -0.0382954 0)
(0.230598 -0.0470317 0)
(0.200149 -0.0572202 0)
(0.16596 -0.0681306 0)
(0.107144 -0.0823411 0)
(0.0764315 -0.0912121 0)
(0.00311773 -0.110477 0)
(-0.0388925 -0.158696 0)
(0.605912 -0.0136722 0)
(0.594424 -0.0178385 0)
(0.561818 -0.0226307 0)
(0.535236 -0.0288935 0)
(0.492755 -0.0355479 0)
(0.446142 -0.0450122 0)
(0.383433 -0.0579122 0)
(0.316227 -0.0732722 0)
(0.211709 -0.106833 0)
(0.161183 -0.16861 0)
(0.3546 0.0327871 7.26917e-20)
(0.346778 0.0161536 -7.03582e-20)
(0.331768 0.00731108 9.33809e-21)
(0.313091 -0.00292938 0)
(0.292552 -0.0111522 0)
(0.273707 -0.0174904 9.82092e-21)
(0.258242 -0.0223775 -3.97209e-20)
(0.249321 -0.0284871 3.89111e-20)
(0.302587 -0.0193661 9.77105e-21)
(0.62243 -0.0112136 -1.00004e-20)
(0.349703 0.0283938 -7.82775e-20)
(0.339382 0.016526 0)
(0.324985 0.0101322 6.0907e-20)
(0.307344 0.000877973 -1.39835e-19)
(0.287927 -0.00684922 8.84498e-20)
(0.270417 -0.0135415 -9.16948e-21)
(0.256159 -0.0189332 1.83843e-20)
(0.25021 -0.0256984 3.69331e-20)
(0.310074 -0.0175921 9.16178e-21)
(0.628817 -0.0102029 9.08675e-21)
(0.344764 0.0265838 9.18427e-20)
(0.330157 0.0182152 -6.6021e-20)
(0.315564 0.0132465 6.54304e-20)
(0.299013 0.00457088 -7.07103e-20)
(0.281269 -0.00283859 5.22656e-20)
(0.265631 -0.00993363 0)
(0.253015 -0.0157803 -1.84285e-20)
(0.250765 -0.0229946 -1.29472e-22)
(0.316494 -0.0159513 -1.84632e-20)
(0.634879 -0.00926948 -1.84494e-20)
(0.34281 0.0268566 -1.51524e-20)
(0.325132 0.0213091 0)
(0.309677 0.0169477 0)
(0.293157 0.00842757 0)
(0.276193 0.00107656 5.35389e-20)
(0.261691 -0.00651277 -3.57195e-20)
(0.250257 -0.0128283 -1.633e-22)
(0.251374 -0.020329 -1.85892e-20)
(0.322326 -0.0144766 -9.26523e-21)
(0.640712 -0.00845412 -9.19923e-21)
(0.341187 0.0286824 2.9775e-21)
(0.321847 0.0254402 -4.51781e-20)
(0.305736 0.0212633 -3.33785e-20)
(0.28894 0.0126139 3.33674e-20)
(0.272273 0.00507996 -1.75846e-20)
(0.258422 -0.0031142 0)
(0.247863 -0.00994816 -1.83069e-20)
(0.251939 -0.0176644 3.70018e-20)
(0.327591 -0.0131668 -1.84854e-20)
(0.646169 -0.00776186 1.86414e-20)
(0.33906 0.0320237 -1.16977e-19)
(0.318292 0.0303297 1.3069e-20)
(0.301697 0.0260331 -1.36646e-21)
(0.28479 0.0170573 3.30656e-20)
(0.268455 0.00915723 0)
(0.25519 0.00028332 0)
(0.245481 -0.00710964 0)
(0.25226 -0.0150112 1.83654e-20)
(0.332114 -0.0120048 0)
(0.65112 -0.00718106 0)
(0.336882 0.0369358 0)
(0.31451 0.0359155 4.64002e-20)
(0.297257 0.0311668 -3.13361e-20)
(0.280323 0.0216559 -3.39161e-20)
(0.264417 0.0132358 3.4097e-20)
(0.251766 0.00364484 1.78864e-20)
(0.242958 -0.0043322 -1.78515e-20)
(0.252213 -0.0123954 -6.42659e-20)
(0.335747 -0.010966 4.61305e-21)
(0.655506 -0.00669729 -1.3936e-20)
(0.334842 0.0433668 0)
(0.310872 0.0421697 -1.51075e-20)
(0.292746 0.036644 -7.94866e-21)
(0.275737 0.0263698 0)
(0.260262 0.0172803 8.78604e-21)
(0.248195 0.00695189 -2.6309e-20)
(0.24029 -0.00163136 2.71435e-20)
(0.25174 -0.00983829 9.25764e-21)
(0.338422 -0.0100243 -9.23945e-21)
(0.65931 -0.00629722 1.87147e-20)
(0.332783 0.0512131 1.36373e-20)
(0.307369 0.049018 1.53527e-20)
(0.288288 0.0424361 -3.6108e-21)
(0.271155 0.0311892 4.12423e-21)
(0.25608 0.0212893 8.56833e-21)
(0.244534 0.0102084 1.31997e-20)
(0.237494 0.000990592 -4.48072e-21)
(0.250796 -0.00735425 -4.55431e-21)
(0.340114 -0.00915599 9.26985e-21)
(0.662546 -0.00596789 4.6429e-21)
(0.330454 0.0603843 -3.60633e-21)
(0.303822 0.0563675 3.63536e-21)
(0.283812 0.0484926 -3.94445e-21)
(0.26655 0.0361084 -4.1189e-21)
(0.251868 0.0252754 4.29907e-21)
(0.240789 0.0134284 -8.72489e-21)
(0.234558 0.00353971 6.72741e-21)
(0.249327 -0.00495888 2.29395e-21)
(0.340786 -0.00834417 0)
(0.665203 -0.00570096 -4.65308e-21)