/*--------------------------------*- C++ -*----------------------------------*\
  =========                 |
  \\      /  F ield         | OpenFOAM: The Open Source CFD Toolbox
   \\    /   O peration     | Website:  https://openfoam.org
    \\  /    A nd           | Version:  7
     \\/     M anipulation  |
\*---------------------------------------------------------------------------*/
FoamFile
{
    version     2.0;
    format      ascii;
    class       surfaceScalarField;
    location    "8";
    object      phi;
}
// * * * * * * * * * * * * * * * * * * * * * * * * * * * * * * * * * * * * * //

dimensions      [0 3 -1 0 0 0 0];

internalField   nonuniform List<scalar> 
3880
(
0.000139803
0.00340667
-0.00354647
0.000496897
0.00826128
-0.00861837
0.00102506
0.0120668
-0.0125949
0.00168451
0.0151603
-0.0158197
0.00243997
0.0177327
-0.0184881
0.00325967
0.0198965
-0.0207162
0.00411449
0.0217214
-0.0225763
0.00497723
0.0232531
-0.0241158
0.00582188
0.0245215
-0.0253661
0.0255426
0.00662367
-0.0263444
0.000148574
0.00325809
0.000536299
0.00787356
0.00111928
0.0114838
0.00185855
0.014421
0.00271876
0.0168725
0.00366716
0.0189481
0.00467274
0.0207159
0.00570535
0.0222205
0.00673492
0.0234919
0.0245459
0.00773165
0.000155881
0.00310221
0.000572964
0.00745647
0.00120918
0.0108476
0.00202618
0.013604
0.00298865
0.01591
0.00406348
0.0178733
0.00521867
0.0195607
0.0064221
0.021017
0.00764011
0.0222739
0.0233491
0.00883692
0.000162322
0.00293989
0.000608592
0.0070102
0.00129779
0.0101584
0.00219158
0.0127102
0.00325463
0.014847
0.00445396
0.0166739
0.00575764
0.018257
0.00713303
0.0196417
0.00854391
0.020863
0.0219451
0.00994792
0.000168977
0.00277091
0.000646277
0.00653291
0.00139071
0.00941396
0.00236306
0.0117379
0.00352746
0.0136826
0.00485124
0.0153502
0.00630355
0.0168047
0.00785308
0.0180921
0.00946338
0.0192527
0.0203223
0.0110861
0.000177408
0.0025935
0.00069043
0.00601988
0.00149613
0.00860826
0.00255315
0.0106808
0.0038242
0.0124115
0.00527636
0.013898
0.0068803
0.0152007
0.00860811
0.0163643
0.0104271
0.0174338
0.0184636
0.0122858
0.000189528
0.00240398
0.00074645
0.00546296
0.00162427
0.00773045
0.00277815
0.00952697
0.00416803
0.0110216
0.00575941
0.0123066
0.00752358
0.0134366
0.00943707
0.0144508
0.0114762
0.0153946
0.0163454
0.0135944
0.0002074
0.00219658
0.00082015
0.00485021
0.00178635
0.00676425
0.0030566
0.00825671
0.00458689
0.00949134
0.00633917
0.0105543
0.00828245
0.0114933
0.0103952
0.0123381
0.0126669
0.0131229
0.0139356
0.0150766
0.000232977
0.0019636
0.000916918
0.00416627
0.00199286
0.0056883
0.00340658
0.00684299
0.00511015
0.00778777
0.00706109
0.0086034
0.0092225
0.00933188
0.011566
0.00999463
0.0140857
0.0106032
0.0111826
0.0168387
0.00026779
0.00169581
0.00104069
0.00339338
0.00225117
0.00447781
0.00384099
0.00525318
0.00576111
0.00586765
0.00796949
0.00639502
0.0104295
0.00687191
0.0131066
0.00731749
0.0159677
0.0077421
0.0190662
0.00808418
0.00713019
0.0974574
-0.097964
0.0069389
0.104779
-0.104588
0.00604957
0.108554
-0.107665
0.00479719
0.111459
-0.110207
0.003424
0.11447
-0.113097
0.00212545
0.118151
-0.116852
0.00106139
0.122505
-0.121441
0.000348468
0.12716
-0.126447
2.76663e-05
0.131352
-0.131032
0.133981
-0.133953
0.00864169
0.0965474
0.00873013
0.104691
0.007976
0.109308
0.00673074
0.112705
0.00525754
0.115944
0.00376801
0.11964
0.00242445
0.123849
0.00133945
0.128245
0.000555332
0.132136
0.134536
0.0101259
0.0952584
0.0104942
0.104322
0.00988748
0.109915
0.00865944
0.113933
0.0070893
0.117514
0.00540438
0.121325
0.00377414
0.125479
0.00231324
0.129706
0.00107049
0.133379
0.135607
0.0115773
0.0936291
0.0122137
0.103686
0.0117623
0.110366
0.0105627
0.115132
0.00890323
0.119173
0.00702454
0.123204
0.00510617
0.127397
0.00326962
0.131542
0.00157424
0.135075
0.137181
0.0130042
0.091711
0.013881
0.102809
0.0135846
0.110662
0.0124229
0.116294
0.0106847
0.120911
0.00861903
0.12527
0.00641625
0.1296
0.00420802
0.13375
0.00206739
0.137215
0.139248
0.0144303
0.0895665
0.0155001
0.101739
0.0153458
0.110817
0.0142265
0.117413
0.0124209
0.122717
0.0101789
0.127512
0.00769997
0.132079
0.00512751
0.136323
0.0025504
0.139792
0.141799
0.0158918
0.0872691
0.0170873
0.100544
0.0170455
0.110859
0.0159643
0.118494
0.0141005
0.124581
0.0116951
0.129917
0.00895218
0.134822
0.00602628
0.139249
0.00302317
0.142795
0.144822
0.0174264
0.0849193
0.018665
0.0993052
0.0186885
0.110835
0.0176296
0.119553
0.0157125
0.126498
0.0131576
0.132472
0.0101661
0.137813
0.00690104
0.142514
0.00348476
0.146212
0.148307
0.0190914
0.0826666
0.0202703
0.0981262
0.0202883
0.110817
0.0192205
0.120621
0.0172477
0.128471
0.0145556
0.135164
0.0113329
0.141036
0.00774649
0.1461
0.00393302
0.150025
0.15224
0.0210791
0.0806536
0.0220078
0.0971976
0.0218877
0.110937
0.0207482
0.121761
0.0186977
0.130521
0.0158713
0.137991
0.0124334
0.144474
0.00854768
0.149986
0.00436015
0.154213
0.1566
0.0389972
0.0949662
-0.0533098
0.0327347
0.10346
0.0300505
0.113621
0.0281121
0.123699
0.0254936
0.13314
0.0217558
0.141728
0.0170141
0.149215
0.0116115
0.155389
0.00586617
0.159958
0.162466
0.0702229
0.113721
-0.0889772
0.0565544
0.117129
0.0474719
0.122704
0.0409316
0.130239
0.0351858
0.138886
0.0292035
0.147711
0.0226029
0.155816
0.0154092
0.162582
0.00780374
0.167563
0.17027
0.0984537
0.132136
-0.116869
0.0815872
0.133995
0.0677248
0.136566
0.0565464
0.141418
0.046983
0.148449
0.0380008
0.156693
0.0289415
0.164875
0.0195567
0.171967
0.00986079
0.177259
0.180131
0.119956
0.14727
-0.13509
0.103307
0.150645
0.087242
0.152631
0.0727205
0.155939
0.0596848
0.161485
0.047586
0.168792
0.0358362
0.176625
0.0240556
0.183748
0.0121014
0.189214
0.192232
0.134579
0.158084
-0.145393
0.120063
0.165161
0.103932
0.168761
0.0877494
0.172122
0.0722195
0.177015
0.0573702
0.183641
0.0429214
0.191074
0.0286117
0.198057
0.0143058
0.203519
0.206538
0.143023
0.163971
-0.14891
0.131629
0.176554
0.116807
0.183583
0.100362
0.188568
0.0835115
0.193865
0.0668002
0.200352
0.0502473
0.207627
0.0336628
0.214642
0.0169205
0.220262
0.223458
0.147603
0.164094
-0.147726
0.140231
0.183926
0.12765
0.196164
0.111817
0.2044
0.094153
0.21153
0.0755902
0.218915
0.0566949
0.226522
0.0377475
0.233589
0.018824
0.239185
0.242282
0.146116
0.157035
-0.139057
0.14399
0.186052
0.134839
0.205314
0.12101
0.21823
0.104317
0.228222
0.0857369
0.237495
0.0657138
0.246545
0.0445317
0.254772
0.0225369
0.26118
0.264819
0.143395
0.142283
-0.128643
0.148457
0.18099
0.143564
0.210206
0.130819
0.230976
0.112964
0.246077
0.0922506
0.258209
0.0700606
0.268735
0.0470726
0.27776
0.0235822
0.284671
0.288401
0.126694
-0.101925
0.14223
0.147481
0.142777
0.129624
0.110074
0.0860055
0.0589092
0.029962
0.0344922
-0.0644376
-0.0233643
0.0433908
-0.0978759
0.0490185
-0.122496
0.0516832
-0.137755
0.0518107
-0.14552
0.0498596
-0.146959
0.0456905
-0.143557
0.0399161
-0.133282
0.0314064
-0.120133
-0.0931487
0.0365082
-0.0751241
-0.0258217
0.0447366
-0.106104
0.0495493
-0.127309
0.051408
-0.139614
0.0507603
-0.144873
0.0480379
-0.144237
0.0431248
-0.138644
0.0367065
-0.126864
0.0276965
-0.111123
-0.0841875
0.0383958
-0.0854753
-0.0280445
0.0457756
-0.113484
0.0496788
-0.131212
0.0506746
-0.140609
0.0492276
-0.143426
0.0457257
-0.140735
0.0401383
-0.133056
0.033135
-0.119861
0.0239159
-0.101904
-0.0750466
0.0398382
-0.0953056
-0.030008
0.0462611
-0.119907
0.0492173
-0.134168
0.0493505
-0.140743
0.047127
-0.141202
0.042897
-0.136505
0.0367258
-0.126885
0.0292756
-0.11241
0.020004
-0.0926326
-0.0658561
0.0407059
-0.104391
-0.0316203
0.0460742
-0.125275
0.048075
-0.136169
0.0473787
-0.140046
0.0444332
-0.138257
0.0395592
-0.131631
0.0329185
-0.120244
0.025165
-0.104657
0.0160214
-0.083489
-0.0567463
0.0408678
-0.112522
-0.0327373
0.0451325
-0.12954
0.0462083
-0.137245
0.044747
-0.138585
0.0411607
-0.13467
0.0357502
-0.126221
0.0287658
-0.11326
0.0208413
-0.0967324
0.0119956
-0.0746433
-0.0479314
0.0402216
-0.119535
-0.0332084
0.0433978
-0.132716
0.0436187
-0.137466
0.0414831
-0.136449
0.0373579
-0.130545
0.0315343
-0.120397
0.0243378
-0.106063
0.0163677
-0.0887624
0.0078601
-0.0661356
-0.0398804
0.0387175
-0.125343
-0.0329097
0.0408782
-0.134877
0.0403463
-0.136934
0.0376464
-0.13375
0.0330991
-0.125998
0.026996
-0.114294
0.0197219
-0.0987893
0.0118392
-0.0808797
0.00375328
-0.0580497
-0.0329071
0.0363619
-0.129938
-0.0317666
0.0376234
-0.136138
0.0364632
-0.135774
0.0333216
-0.130608
0.0284785
-0.121155
0.0222335
-0.108049
0.0150178
-0.0915736
0.00736063
-0.0732226
-0.000359956
-0.0503291
-0.027216
0.0332128
-0.133385
-0.0297655
0.0337186
-0.136644
0.0320673
-0.134123
0.0286131
-0.127154
0.0236041
-0.116146
0.0173518
-0.101797
0.010322
-0.0845438
0.00305062
-0.0659512
-0.00368991
-0.0435886
-0.0221919
0.029379
-0.135802
-0.0269627
0.0292844
-0.13655
0.0272823
-0.13212
0.0236443
-0.123516
0.0185951
-0.111096
0.0124593
-0.0956608
0.0057258
-0.0778103
-0.00104981
-0.0591756
-0.00704857
-0.0375898
-0.0180008
0.0249709
-0.137335
-0.0234378
0.0244356
-0.136014
0.0222227
-0.129908
0.0185282
-0.119821
0.0135591
-0.106127
0.00765073
-0.0897525
0.00129809
-0.0714576
-0.00496435
-0.0529131
-0.010202
-0.0323522
-0.0145725
0.0201421
-0.138144
-0.0193328
0.0193195
-0.135192
0.017028
-0.127616
0.0133938
-0.116187
0.00861015
-0.101344
0.00301955
-0.0841619
-0.00287968
-0.0655584
-0.00856604
-0.0472268
-0.0131159
-0.0278023
-0.0118033
0.0150434
-0.138388
-0.0147998
0.0140758
-0.134224
0.011827
-0.125367
0.00835705
-0.112717
0.00384673
-0.0968333
-0.00135782
-0.0789573
-0.00676732
-0.0601489
-0.0118662
-0.0421279
-0.0157861
-0.0238824
-0.00958165
0.00982148
-0.138213
-0.0099961
0.00883501
-0.133238
0.00673769
-0.12327
0.00352076
-0.1095
-0.000646186
-0.0926663
-0.00542646
-0.074177
-0.0103305
-0.0552448
-0.0148594
-0.037599
-0.018219
-0.0205228
-0.00779662
0.00460989
-0.137753
-0.00506943
0.00371174
-0.13234
0.00186328
-0.121421
-0.0010277
-0.106609
-0.00481069
-0.0888833
-0.00913997
-0.0698478
-0.0135487
-0.0508361
-0.0175486
-0.0335992
-0.020428
-0.0176434
-0.0063415
-0.000492928
-0.1371
-0.000160928
-0.0011855
-0.131647
-0.00270985
-0.119897
-0.00522837
-0.104091
-0.00859323
-0.0855185
-0.0124741
-0.0659669
-0.0164157
-0.0468945
-0.0199441
-0.0300707
-0.0224301
-0.0151573
-0.00511617
-0.00524172
-0.13654
0.00468238
-0.00573568
-0.131153
-0.00689392
-0.118739
-0.009013
-0.101972
-0.0119614
-0.08257
-0.0154156
-0.0625127
-0.0189347
-0.0433754
-0.0220615
-0.0269439
-0.024245
-0.0129738
-0.00402768
-0.00966324
-0.136269
0.00939247
-0.00989607
-0.13092
-0.0106482
-0.117987
-0.0123509
-0.100269
-0.0148944
-0.0800266
-0.017959
-0.0594481
-0.0211145
-0.0402199
-0.0239184
-0.02414
-0.0258931
-0.0109992
-0.00298959
-0.0139406
-0.136335
0.0140063
-0.0137933
-0.131067
-0.0140388
-0.117741
-0.0152588
-0.0990488
-0.0173888
-0.0778966
-0.0201051
-0.0567318
-0.0229597
-0.0373653
-0.0255375
-0.0215623
-0.0273909
-0.00914576
-0.00191382
0.0270796
-0.124573
-0.038842
0.00786747
-0.111855
-0.0161628
-0.093711
-0.0418896
-0.0733219
-0.0664005
-0.0533857
-0.0871859
-0.0359464
-0.102652
-0.0218987
-0.112716
-0.0114985
-0.117507
-0.00435517
-0.000615653
-0.0242305
-0.108345
0.00800256
-0.0469239
-0.089162
-0.0708693
-0.0697656
-0.0930388
-0.0511524
-0.111394
-0.0350305
-0.12497
-0.0223703
-0.133818
-0.0130507
-0.138754
-0.00656231
-0.140749
-0.00236089
-0.000238004
-0.0804642
-0.0888537
0.0609732
-0.101693
-0.0679334
-0.121376
-0.0500824
-0.137424
-0.0351041
-0.149118
-0.0233368
-0.15679
-0.0146982
-0.161283
-0.00855795
-0.163541
-0.00430436
-0.164359
-0.0015428
-0.000129553
-0.133432
-0.0703127
0.114891
-0.150898
-0.0504675
-0.164575
-0.0364052
-0.174508
-0.0251709
-0.181017
-0.0168284
-0.184988
-0.0107266
-0.187245
-0.00630167
-0.188384
-0.00316484
-0.188808
-0.00111924
-8.16804e-05
-0.17986
-0.0548122
0.164359
-0.192357
-0.0379701
-0.200894
-0.0278683
-0.206748
-0.0193165
-0.210442
-0.0131352
-0.212749
-0.00841946
-0.214111
-0.00493894
-0.214822
-0.00245469
-0.215084
-0.000856526
-5.69662e-05
-0.219547
-0.0424771
0.207212
-0.22822
-0.0292971
-0.23394
-0.0221481
-0.23797
-0.0152862
-0.240598
-0.010507
-0.242334
-0.0066838
-0.243363
-0.00391037
-0.243887
-0.00193033
-0.24407
-0.000673483
-4.29922e-05
-0.254741
-0.0320658
0.244329
-0.261712
-0.022326
-0.266689
-0.0171704
-0.270274
-0.0117019
-0.272663
-0.00811821
-0.274231
-0.00511532
-0.275136
-0.00300544
-0.275591
-0.00147569
-0.275747
-0.000517549
-3.1801e-05
-0.286532
-0.0219782
0.276444
-0.293446
-0.0154122
-0.298708
-0.0119084
-0.302377
-0.00803279
-0.304855
-0.00564022
-0.306444
-0.00352628
-0.307364
-0.00208573
-0.307823
-0.00101591
-0.307982
-0.000359369
-2.13842e-05
-0.312441
-0.0112918
0.301754
-0.319928
-0.00792484
-0.325701
-0.00613587
-0.329613
-0.00412033
-0.332329
-0.00292425
-0.33404
-0.00181539
-0.335046
-0.00107959
-0.335541
-0.000521324
-0.335715
-0.000185449
-1.01882e-05
-0.327426
0.316135
-0.335351
-0.341487
-0.345607
-0.348532
-0.350347
-0.351427
-0.351948
-0.352133
-0.0268867
-0.0315833
0.019628
-0.0323998
0.0135157
-0.0353987
0.063972
-0.0358162
0.115308
-0.0340142
0.162557
-0.0303937
0.203591
-0.0251207
0.239056
-0.0181594
0.269483
-0.0096118
0.293207
0.306523
-0.0292422
-0.0253128
0.0229716
-0.0337224
0.017996
-0.0356996
0.0659491
-0.0353742
0.114983
-0.0331194
0.160302
-0.0293017
0.199773
-0.0240327
0.233787
-0.0172647
0.262715
-0.00909302
0.285035
0.29743
-0.0315209
-0.0194825
0.0256906
-0.0351785
0.0216536
-0.0362771
0.0670478
-0.0352082
0.113914
-0.0324494
0.157544
-0.0283747
0.195699
-0.0230658
0.228478
-0.0164577
0.256107
-0.00862605
0.277203
0.288804
-0.033347
-0.0140342
0.0278988
-0.0363135
0.0246201
-0.0366912
0.0674255
-0.0349744
0.112197
-0.031748
0.154317
-0.0274231
0.191374
-0.0220766
0.223132
-0.0156351
0.249666
-0.00815163
0.26972
0.280652
-0.0347263
-0.00895184
0.0296439
-0.0371046
0.0269983
-0.0368857
0.0672066
-0.0346231
0.109935
-0.0309887
0.150683
-0.0264408
0.186826
-0.021071
0.217762
-0.0148056
0.2434
-0.00767569
0.26259
0.272976
-0.0356946
-0.00419222
0.030935
-0.0375994
0.0289032
-0.0369031
0.0665103
-0.034186
0.107218
-0.0301954
0.146692
-0.0254476
0.182078
-0.020065
0.21238
-0.0139809
0.237316
-0.00720472
0.255814
0.265772
-0.0362484
0.000293513
0.0317627
-0.0378095
0.0304643
-0.0367609
0.0654617
-0.033688
0.104145
-0.0293965
0.142401
-0.0244698
0.177151
-0.01908
0.20699
-0.0131758
0.231412
-0.00674633
0.249384
0.259025
-0.0364169
0.00461541
0.032095
-0.0377235
0.0317708
-0.0364518
0.0641901
-0.0331328
0.100826
-0.028607
0.137875
-0.0235284
0.172073
-0.0181358
0.201597
-0.0124047
0.225681
-0.00630827
0.243288
0.252717
-0.0361371
0.0087569
0.0319956
-0.0373304
0.0329642
-0.0359593
0.062819
-0.0325115
0.0973778
-0.0278307
0.133194
-0.0226366
0.166879
-0.0172482
0.196209
-0.0116808
0.220113
-0.00589765
0.237505
0.246819
-0.0354432
0.0127549
0.0314452
-0.0366123
0.0341332
-0.0352608
0.0614675
-0.0318054
0.0939224
-0.0270615
0.12845
-0.0218004
0.161618
-0.0164283
0.190837
-0.0110143
0.214699
-0.00552061
0.232011
0.241299
-0.034347
0.0166405
0.0304614
-0.0355644
0.0353506
-0.0343356
0.0602388
-0.0309925
0.0905793
-0.0262881
0.123746
-0.0210215
0.156351
-0.0156859
0.185501
-0.0104158
0.209429
-0.00518364
0.226779
0.236115
-0.0328615
0.0204212
0.0290809
-0.0341786
0.0366677
-0.0331535
0.0592136
-0.0300319
0.0874577
-0.0254739
0.119188
-0.0202771
0.151154
-0.0150102
0.180234
-0.00988183
0.204301
-0.00488627
0.221783
0.231229
-0.0310231
0.0240896
0.0273547
-0.0324674
0.038112
-0.0317044
0.0584506
-0.0288975
0.0846508
-0.0245921
0.114882
-0.0195504
0.146113
-0.0143963
0.17508
-0.00941396
0.199318
-0.00463104
0.217
0.226598
-0.0288814
0.0276274
0.0253436
-0.0304559
0.0396865
-0.0299872
0.0579819
-0.0275651
0.0822287
-0.0236088
0.110926
-0.0188128
0.141317
-0.013827
0.170094
-0.00900488
0.194496
-0.00441592
0.212412
0.222182
-0.0264978
0.0310086
0.0231166
-0.0281843
0.041373
-0.0280165
0.0578141
-0.026022
0.0802341
-0.0224941
0.107398
-0.0180324
0.136855
-0.0132793
0.165341
-0.00864207
0.189859
-0.00423605
0.208006
0.217946
-0.0239417
0.0342049
0.0207454
-0.0257057
0.043137
-0.0258223
0.0579307
-0.0242698
0.0786816
-0.0212261
0.104355
-0.017178
0.132807
-0.0127261
0.160889
-0.00830858
0.185442
-0.00408386
0.203781
0.213862
-0.0212859
0.0371908
0.0183
-0.0230829
0.0449339
-0.0234485
0.0582963
-0.0223252
0.0775584
-0.0197943
0.101824
-0.0162225
0.129235
-0.012139
0.156806
-0.00798389
0.181286
-0.00394922
0.199746
0.209913
-0.0186045
0.0399508
0.0158445
-0.0203867
0.0467161
-0.0209521
0.0588616
-0.0202201
0.0768264
-0.0182001
0.0998037
-0.0151445
0.126179
-0.0114885
0.15315
-0.00764371
0.177442
-0.00381914
0.195922
0.206094
-0.0159569
0.0424728
0.0134349
-0.0176761
0.0484353
-0.018383
0.0595685
-0.0179843
0.0764277
-0.0164441
0.0982636
-0.0139173
0.123652
-0.0107357
0.149968
-0.00725349
0.173959
-0.00367425
0.192342
0.202419
-0.0133308
0.0446914
0.0111122
-0.0149156
0.0500201
-0.0156908
0.0603438
-0.0155508
0.0762876
-0.0144409
0.0971537
-0.0124404
0.121652
-0.00977987
0.147308
-0.00673323
0.170913
-0.00347101
0.18908
0.198948
-0.0960793
0.0468722
0.0938985
-0.0995737
0.0535145
-0.102349
0.063119
-0.102496
0.0764349
-0.0983759
0.0930334
-0.0887374
0.112014
-0.0731622
0.131733
-0.0521866
0.149937
-0.0271607
0.164054
0.171788
-0.0892373
0.046149
0.0899605
-0.0894946
0.0537719
-0.0894556
0.0630799
-0.0877208
0.0747001
-0.0830461
0.0883587
-0.0744046
0.103372
-0.0612575
0.118585
-0.0437571
0.132437
-0.0228196
0.143117
0.148968
-0.0810723
0.0441042
0.0831171
-0.0793439
0.0520434
-0.0772133
0.0609494
-0.0737932
0.07128
-0.0682899
0.0828554
-0.06006
0.0951421
-0.0487606
0.107286
-0.0344926
0.118169
-0.0178859
0.12651
0.131082
-0.0729476
0.0414911
0.0755607
-0.0699964
0.0490922
-0.0664205
0.0573734
-0.0617436
0.0666031
-0.0555409
0.0766527
-0.0475226
0.0871239
-0.0376172
0.0973805
-0.026037
0.106589
-0.0132863
0.113759
0.117796
-0.0659474
0.0383481
0.0690905
-0.0620478
0.0451926
-0.0573503
0.0526759
-0.0516819
0.0609348
-0.0448956
0.0698664
-0.0369746
0.0792028
-0.0280932
0.0884991
-0.0186387
0.0971341
-0.00914112
0.104262
0.108655
-0.062337
0.0341299
0.0665552
-0.0570785
0.0399341
-0.0509904
0.0465878
-0.0440585
0.0540029
-0.0363508
0.0621587
-0.0280727
0.0709247
-0.0196349
0.0800613
-0.0116839
0.0891831
-0.0049787
0.0975565
0.103676
-0.0681653
0.0274401
0.0748551
-0.0604637
0.0322325
-0.0518776
0.0380017
-0.0424285
0.0445538
-0.0323758
0.052106
-0.0221509
0.0606998
-0.0125021
0.0704125
-0.00465011
0.0813311
-0.000306961
0.0932133
0.103369
-0.0971389
0.0174416
0.107137
-0.0860141
0.0211077
-0.0734792
0.0254668
-0.0595255
0.0306001
-0.0443932
0.0369737
-0.0285417
0.0448483
-0.0129696
0.0548405
0.000126075
0.0682354
0.00606037
0.087279
0.10943
-0.171184
0.00591781
0.182708
-0.158018
0.00794175
-0.142533
0.009982
-0.124523
0.0125899
-0.103647
0.0160976
-0.0796372
0.0208385
-0.0523278
0.0275311
-0.0226704
0.0385779
0.00272658
0.0618821
0.112156
-0.307597
0.313515
-0.299655
-0.289673
-0.277083
-0.260986
-0.240147
-0.212616
-0.174038
-0.112156
-0.0068732
0.0918955
0.00887628
-0.00442858
0.0875159
-0.00210345
0.080792
-0.000171811
0.073629
0.00118841
0.0677302
0.00144438
0.0662992
0.000215111
0.0760843
-0.00222746
0.10958
-0.00371383
0.184194
0.309801
-0.00528393
0.0903155
0.00686393
-0.00328789
0.0855198
-0.00133033
0.0788344
0.000325689
0.071973
0.00138509
0.0666708
0.00144428
0.06624
0.000172436
0.0773562
-0.00213223
0.111885
-0.00341425
0.185476
0.306387
-0.00377358
0.0890761
0.00501294
-0.00216753
0.0839138
-0.000552265
0.0772192
0.000812879
0.0706079
0.00161918
0.0658645
0.00150944
0.0663497
0.000214508
0.0786511
-0.00193765
0.114037
-0.0030959
0.186634
0.303291
-0.00241044
0.0881366
0.0033499
-0.00115123
0.0826546
0.000160698
0.0759072
0.00127155
0.069497
0.00186694
0.0652691
0.00163003
0.0665866
0.00034537
0.0799358
-0.00165515
0.116037
-0.00272394
0.187703
0.300567
-0.00120534
0.087448
0.00189392
-0.000254731
0.081704
0.000819199
0.0748333
0.00170324
0.068613
0.00213002
0.0648424
0.00180823
0.0669084
0.000563646
0.0811803
-0.00128561
0.117887
-0.00230106
0.188719
0.298266
-0.000159175
0.086946
0.000661176
0.000555973
0.0809888
0.00141185
0.0739774
0.00211456
0.0679103
0.00241317
0.0645437
0.00204453
0.0672771
0.000865116
0.0823598
-0.000836473
0.119588
-0.00183298
0.189715
0.296433
0.000726599
0.0865672
-0.000347727
0.00126214
0.0804533
0.00194728
0.0732923
0.00250884
0.0673487
0.00271762
0.064335
0.00233667
0.067658
0.00124365
0.0834528
-0.000317698
0.121149
-0.00132578
0.190723
0.295107
0.00145202
0.0862498
-0.00113465
0.00186422
0.0800411
0.00242488
0.0727316
0.00288505
0.0668886
0.00304063
0.0641794
0.00267911
0.0680196
0.00169085
0.0844411
0.000265417
0.122575
-0.000785122
0.191774
0.294322
0.00201889
0.0859241
-0.0016932
0.00236282
0.0796971
0.00284219
0.0722523
0.00323919
0.0664916
0.0033763
0.0640423
0.00306324
0.0683326
0.00219566
0.0853086
0.000902433
0.123868
-0.000214653
0.192891
0.294107
0.00243096
0.0855324
-0.00203925
0.00275678
0.0793713
0.00319515
0.0718139
0.00356498
0.0661217
0.00371609
0.0638912
0.00347792
0.0685708
0.00274488
0.0860417
0.00157596
0.125037
0.000369608
0.194097
0.294477
0.00268804
0.0850295
-0.00218518
0.00304131
0.0790181
0.00347512
0.0713801
0.00385152
0.0657453
0.0040469
0.0636958
0.0039078
0.0687099
0.00332181
0.0866277
0.00227355
0.126085
0.000964238
0.195407
0.295441
0.00280856
0.0843893
-0.00216836
0.00322643
0.0786002
0.0036839
0.0709226
0.00409545
0.0653338
0.00436148
0.0634298
0.00434302
0.0687283
0.00391582
0.0870549
0.00298715
0.127014
0.00156738
0.196826
0.297009
0.00279854
0.0836041
-0.00201327
0.00331063
0.0780881
0.00381383
0.0704194
0.00428492
0.0648627
0.00464479
0.0630699
0.00476638
0.0686067
0.00450895
0.0873123
0.0037011
0.127822
0.00216837
0.198359
0.299177
0.00267519
0.0826872
-0.00175832
0.00330051
0.0774628
0.00386334
0.0698566
0.0044121
0.0643139
0.00488453
0.0625975
0.00516293
0.0683283
0.00508568
0.0873896
0.0044021
0.128505
0.00275945
0.200002
0.301936
0.00246326
0.0816732
-0.00144923
0.00320756
0.0767185
0.0038349
0.0692292
0.00447165
0.0636772
0.00506969
0.0619994
0.00551844
0.0678796
0.00563104
0.087277
0.0050772
0.129059
0.00333284
0.201746
0.305269
0.00219738
0.0806136
-0.00113777
0.0030498
0.075866
0.00373671
0.0685423
0.00446212
0.0629518
0.00519155
0.06127
0.00581984
0.0672513
0.00613096
0.0869658
0.00571391
0.129476
0.00388076
0.203579
0.30915
0.00192432
0.0795673
-0.000878049
0.00285372
0.0749366
0.00358451
0.0678115
0.0043875
0.0621488
0.00524447
0.060413
0.00605535
0.0664404
0.00657191
0.0864493
0.00630004
0.129748
0.00439531
0.205484
0.313545
0.0016962
0.0785879
-0.00071682
0.00265239
0.0739805
0.0034012
0.0670627
0.00425758
0.0612924
0.00522573
0.0594449
0.00621337
0.0654528
0.00693963
0.085723
0.00682272
0.129865
0.0048679
0.207439
0.318413
0.00154575
0.0777024
-0.000660246
0.00247767
0.0730485
0.00320953
0.0663309
0.00408321
0.0604187
0.00513403
0.0583941
0.00628392
0.0643029
0.00722268
0.0847842
0.00727313
0.129815
0.00529105
0.209421
0.323704
0.00154848
0.0767536
-0.000599658
0.00236584
0.0722312
0.00303216
0.0656645
0.0038744
0.0595765
0.0049774
0.0572911
0.00627593
0.0630044
0.00743375
0.0836264
0.00767123
0.129577
0.00567528
0.211417
0.32938
-0.0639056
0.0581059
0.0825533
-0.0471626
0.0554882
-0.0323805
0.0508825
-0.0198087
0.0470046
-0.00976754
0.0472499
-0.00272931
0.0559661
0.000950542
0.0799466
0.00151994
0.129008
0.00043507
0.212502
0.329815
-0.0726869
0.0414929
0.0892999
-0.0560561
0.0388574
-0.0405444
0.0353708
-0.0268965
0.0333567
-0.0156785
0.0360319
-0.00744935
0.047737
-0.0025503
0.0750475
-0.000570509
0.127028
-0.000237182
0.212168
0.329577
-0.0782103
0.0258227
0.0938806
-0.0621792
0.0228262
-0.0466062
0.0197978
-0.0324198
0.0191703
-0.0204649
0.0240771
-0.0114704
0.0387425
-0.00570401
0.0692811
-0.00264529
0.123969
-0.00110237
0.210625
0.328475
-0.08316
0.0115859
0.0973968
-0.0678324
0.00749863
-0.0523899
0.00435529
-0.0378934
0.00467379
-0.0254756
0.0116593
-0.016019
0.0292858
-0.00961978
0.0628819
-0.00541713
0.119767
-0.0022768
0.207485
0.326198
-0.0892339
-0.00127649
0.102096
-0.0748309
-0.00690439
-0.0597499
-0.0107256
-0.0452127
-0.00986341
-0.0326034
-0.000950082
-0.0228978
0.0195803
-0.0159381
0.0559222
-0.0102132
0.114042
-0.0044547
0.201727
0.321744
-0.0983233
-0.0122751
0.109322
-0.0855849
-0.0196428
-0.0717744
-0.0245362
-0.0581106
-0.0235272
-0.0460401
-0.0130206
-0.0361707
0.00971085
-0.028167
0.0479185
-0.0196969
0.105572
-0.0091174
0.191147
0.312626
-0.1125
-0.0199587
0.120184
-0.103474
-0.0286687
-0.0934163
-0.0345942
-0.0830882
-0.0338553
-0.0732005
-0.0229083
-0.0636833
0.000193726
-0.0530885
0.0373237
-0.0388034
0.0912865
-0.0189791
0.171323
0.293647
-0.133353
-0.0217257
0.13512
-0.131686
-0.0303356
-0.129872
-0.0364077
-0.127464
-0.0362635
-0.123339
-0.0270332
-0.115744
-0.00740126
-0.101558
0.0231377
-0.0775344
0.0672628
-0.0408958
0.134684
0.252751
-0.159256
-0.0149626
0.152493
-0.168808
-0.0207842
-0.180134
-0.0250811
-0.190959
-0.0254392
-0.197643
-0.0203486
-0.196114
-0.00893053
-0.182124
0.00914771
-0.14896
0.0340984
-0.0889667
0.0746912
0.163785
-0.181138
0.166176
-0.201923
-0.227004
-0.252443
-0.272791
-0.281722
-0.272574
-0.238476
-0.163785
-0.00412329
0.0856031
0.00107352
-0.00654791
0.0917245
-0.00826182
0.0955945
-0.00963724
0.0987722
-0.0108156
0.103275
-0.0116351
0.110141
-0.0116353
0.120184
-0.0100528
0.133537
-0.00612033
0.148561
0.160055
-0.00373845
0.0883125
0.00102905
-0.00599712
0.0939832
-0.00762837
0.0972257
-0.00895712
0.100101
-0.0100534
0.104371
-0.0107509
0.110839
-0.0106344
0.120068
-0.00906587
0.131969
-0.00544715
0.144942
0.154608
-0.00306105
0.0906826
0.000690961
-0.00513476
0.0960569
-0.00670672
0.0987977
-0.00801108
0.101405
-0.00905894
0.105419
-0.00968181
0.111462
-0.00951273
0.119899
-0.00802666
0.130483
-0.00477359
0.141689
0.149835
-0.00219334
0.0927
0.000175946
-0.00407848
0.097942
-0.00558851
0.100308
-0.00687375
0.102691
-0.00789299
0.106438
-0.00848004
0.112049
-0.00831434
0.119733
-0.00696914
0.129137
-0.00411319
0.138833
0.145721
-0.00117492
0.0944565
-0.000581619
-0.00286104
0.0996282
-0.00430114
0.101748
-0.00556787
0.103957
-0.0065766
0.107447
-0.00716516
0.112637
-0.00705509
0.119623
-0.00590249
0.127985
-0.00346866
0.136399
0.142253
-2.03108e-05
0.0959052
-0.00142839
-0.00149411
0.101102
-0.00285563
0.103109
-0.0041078
0.105209
-0.00512748
0.108466
-0.0057556
0.113265
-0.00574997
0.119617
-0.00483492
0.12707
-0.00284169
0.134406
0.139411
0.00125634
0.0970105
-0.00236158
-5.20724e-05
0.10241
-0.00126809
0.104325
-0.00251055
0.106452
-0.00356411
0.10952
-0.00426894
0.11397
-0.00441216
0.11976
-0.00377277
0.12643
-0.002233
0.132866
0.137178
0.0026452
0.0977341
-0.00336886
0.0016613
0.103394
0.000449274
0.105537
-0.000800717
0.107702
-0.00190658
0.110626
-0.00272211
0.114786
-0.00305303
0.120091
-0.00272059
0.126098
-0.0016425
0.131788
0.135536
0.00410818
0.0980558
-0.00442988
0.00337964
0.104123
0.00226298
0.106654
0.00101121
0.108954
-0.000184304
0.111821
-0.00113136
0.115733
-0.00168218
0.120642
-0.0016815
0.126097
-0.00106949
0.131176
0.134466
0.0056151
-0.00552324
0.00515022
0.00413971
0.0028864
0.00161045
0.00049095
-0.000307855
-0.000657556
-0.0005129
0.00031265
0.00138316
0.00119417
0.00251185
0.00256565
0.00310633
0.00436519
0.00345364
0.00654633
0.00368651
0.00907729
0.00386406
0.0119448
0.0040044
0.0151702
0.00409205
0.0188666
0.00404568
0.0035865
0.000369029
0.00101413
0.00137537
0.00150551
0.00292697
0.00155474
0.004957
0.00142361
0.0074193
0.00122422
0.010286
0.000997369
0.0135482
0.000742191
0.0172193
0.000420974
0.0213288
-6.38092e-05
-0.000906454
0.000433425
0.000580705
0.00157734
0.0003616
0.00332237
-0.000190298
0.00559271
-0.000846735
0.00833629
-0.00151936
0.0115184
-0.00218475
0.0151163
-0.0028557
0.0191107
-0.0035734
0.0234623
-0.00441538
-0.00548874
0.000504054
7.66511e-05
0.0017932
-0.000927547
0.00373613
-0.00213323
0.00624333
-0.00335393
0.00925105
-0.00452707
0.0127109
-0.00564455
0.0165805
-0.00672536
0.0208122
-0.00780507
0.025332
-0.00893517
-0.0101647
0.000578334
-0.000501683
0.00201398
-0.00236319
0.00414913
-0.00426838
0.0068762
-0.00608101
0.0101155
-0.00776637
0.0138018
-0.00933083
0.017874
-0.0107976
0.022265
-0.012196
0.0268874
-0.0135576
-0.0148976
0.000652961
-0.00115464
0.00222887
-0.00393911
0.00453936
-0.00657886
0.00745516
-0.00899681
0.0108779
-0.0111891
0.0147249
-0.0131778
0.0189192
-0.0149919
0.0233816
-0.0166584
0.0280228
-0.0181988
-0.0196121
0.000723984
-0.00187863
0.00242559
-0.00564071
0.00488261
-0.00903588
0.00794152
-0.0120557
0.0114841
-0.0147317
0.0154109
-0.0171046
0.0196324
-0.0192134
0.0240635
-0.0210895
0.0286182
-0.0227536
-0.0242023
0.00078694
-0.00266557
0.00259085
-0.00744462
0.00515361
-0.0115986
0.0082961
-0.0151982
0.0118804
-0.018316
0.0157925
-0.0210168
0.0199342
-0.0233551
0.0242185
-0.0253738
0.0285671
-0.0271022
-0.0285448
0.000837049
-0.00350262
0.00271114
-0.00931871
0.00532766
-0.0142152
0.0084821
-0.0183527
0.0120188
-0.0218526
0.0158125
-0.0248105
0.0197604
-0.027303
0.0237781
-0.0293916
0.0277975
-0.0311216
-0.0325139
0.000869419
-0.00437204
0.00277355
-0.0112228
0.00538237
-0.016824
0.00846832
-0.0214386
0.0118616
-0.0252459
0.0154304
-0.0283793
0.0190721
-0.0309447
0.0227088
-0.0330283
0.0262846
-0.0346974
-0.0359949
0.000906684
-0.00527872
0.00281013
-0.0131263
0.0053513
-0.0193652
0.00828641
-0.0243737
0.0114385
-0.028398
0.0146759
-0.0316167
0.0179018
-0.0341707
0.0210488
-0.0361753
0.0240748
-0.0377234
-0.0388827
0.000905077
-0.0061838
0.00274759
-0.0149688
0.0051448
-0.0217624
0.00784255
-0.0270715
0.0106631
-0.0312185
0.0134808
-0.0344344
0.0162092
-0.036899
0.018793
-0.0387591
0.0212038
-0.0401343
-0.0411167
0.000878414
-0.00706221
0.00260684
-0.0166972
0.00478904
-0.0239446
0.00716969
-0.0294521
0.00957858
-0.0336274
0.0119027
-0.0367585
0.0140697
-0.039066
0.0160378
-0.0407272
0.0177903
-0.0418868
-0.0426591
0.000824893
-0.0078871
0.0023857
-0.018258
0.00428548
-0.0258443
0.00627831
-0.0314449
0.00821011
-0.0355592
0.00998656
-0.038535
0.0115525
-0.0406319
0.012879
-0.0420537
0.013958
-0.0429657
-0.043501
0.000743932
-0.00863103
0.00208591
-0.0196
0.00364286
-0.0274013
0.00518922
-0.0329913
0.00659509
-0.0369651
0.00778991
-0.0397298