/*--------------------------------*- C++ -*----------------------------------*\
  =========                 |
  \\      /  F ield         | OpenFOAM: The Open Source CFD Toolbox
   \\    /   O peration     | Website:  https://openfoam.org
    \\  /    A nd           | Version:  7
     \\/     M anipulation  |
\*---------------------------------------------------------------------------*/
FoamFile
{
    version     2.0;
    format      ascii;
    class       volVectorField;
    location    "45.5";
    object      U;
}
// * * * * * * * * * * * * * * * * * * * * * * * * * * * * * * * * * * * * * //

dimensions      [0 1 -1 0 0 0 0];

internalField   nonuniform List<vector> 
2000
(
(-0.00186816 0.00376617 -8.16854e-22)
(-0.00379057 0.0083021 0)
(-0.00360341 0.0125349 0)
(-0.000968941 0.0175804 -4.12093e-21)
(0.00370545 0.0242632 1.35095e-21)
(0.0100539 0.0331213 6.12049e-23)
(0.0177649 0.0444648 -2.32993e-21)
(0.0265378 0.0584129 0)
(0.0360143 0.0749118 0)
(0.0456668 0.0937294 0)
(-0.00213537 0.00472898 0)
(-0.00379216 0.00856071 -3.14528e-21)
(-0.00301271 0.0114581 2.90057e-21)
(1.94877e-05 0.0149352 5.5136e-21)
(0.00476202 0.0199333 0)
(0.010796 0.0270318 5.02619e-21)
(0.0178324 0.0365803 -4.67387e-21)
(0.0256482 0.0487764 0)
(0.0339953 0.0637092 8.69406e-21)
(0.0424014 0.0814043 -1.67332e-20)
(-0.00238717 0.00545008 0)
(-0.00328289 0.00842938 2.47878e-20)
(-0.00121193 0.0100895 0)
(0.00291373 0.012198 2.20202e-20)
(0.00837188 0.0157574 0)
(0.0146575 0.0213327 -1.98071e-20)
(0.0214736 0.0292561 0)
(0.0286535 0.0397515 1.81728e-20)
(0.0360727 0.0530174 -1.70195e-20)
(0.0433262 0.06934 -1.65142e-20)
(-0.00253348 0.00581793 -6.44626e-21)
(-0.00209565 0.00778364 -1.24208e-20)
(0.0019926 0.00836066 -5.7558e-21)
(0.00791701 0.00938699 -1.08947e-20)
(0.0147482 0.0118719 -1.02755e-20)
(0.0218713 0.0163096 9.81655e-21)
(0.0289608 0.0229577 9.28894e-21)
(0.0358851 0.0320004 -2.59072e-22)
(0.0426464 0.0436826 1.68788e-20)
(0.0489523 0.058501 1.65013e-20)
(-0.00245454 0.00574365 -6.29686e-21)
(-3.79538e-05 0.00653199 -1.2383e-20)
(0.00678387 0.00622401 -2.32558e-20)
(0.0151723 0.00652108 1.07753e-20)
(0.0239778 0.00837746 0)
(0.0324721 0.0121717 0)
(0.0402985 0.01804 -1.87438e-20)
(0.0473496 0.0260634 -1.77484e-20)
(0.0537481 0.0364512 1.65738e-20)
(0.059403 0.0498076 4.8052e-20)
(-0.00201244 0.00517897 6.27582e-21)
(0.00309627 0.00463012 6.29182e-21)
(0.0133162 0.00367417 -3.37885e-20)
(0.0247288 0.0036301 5.38639e-20)
(0.0359693 0.00533485 -1.00918e-20)
(0.0462168 0.00901719 0)
(0.0551063 0.0146644 0)
(0.0625662 0.0222128 8.64675e-20)
(0.0688308 0.0317583 -8.20415e-20)
(0.0741295 0.0438848 1.5748e-20)
(-0.00106111 0.00411702 4.7856e-20)
(0.00750565 0.00210574 0)
(0.0216917 0.000770083 4.54732e-20)
(0.0365125 0.000775167 -4.29373e-20)
(0.0504191 0.00277721 0)
(0.062548 0.00682943 1.91117e-20)
(0.0725753 0.0127632 -5.30961e-20)
(0.0805057 0.0203618 -6.80332e-20)
(0.086682 0.0295587 3.1704e-20)
(0.091754 0.0408053 3.07974e-20)
(0.000546553 0.00259724 -9.45794e-20)
(0.0133585 -0.000924661 -1.19307e-20)
(0.0319294 -0.00235084 -2.19724e-20)
(0.0502992 -0.00193739 -5.20705e-20)
(0.0668031 0.000725818 -1.99045e-20)
(0.0806174 0.00549787 -1.82239e-20)
(0.0915353 0.0120667 1.02285e-21)
(0.0996969 0.0200901 0)
(0.105565 0.0293344 0)
(0.110246 0.0400451 -3.75096e-22)
(0.00294459 0.000709308 4.67243e-20)
(0.0207635 -0.00425915 -4.60098e-20)
(0.0439301 -0.00547667 3.31555e-20)
(0.0656934 -0.00436033 7.27174e-20)
(0.0843908 -0.000808918 -1.92241e-20)
(0.0993662 0.00483638 1.91236e-20)
(0.110632 0.0121535 1.74495e-20)
(0.118524 0.0207386 0)
(0.123622 0.0302564 0)
(0.127445 0.0407803 -1.14555e-21)
(0.00623715 -0.0014094 -5.62771e-21)
(0.029736 -0.00762355 5.75738e-20)
(0.0574432 -0.00834289 -1.06564e-20)
(0.0821164 -0.00633243 0)
(0.102281 -0.00184697 0)
(0.117628 0.0045851 3.56675e-20)
(0.128532 0.0124814 0)
(0.135623 0.0214608 -2.97639e-20)
(0.139606 0.0312415 4.38807e-22)
(0.142098 0.0420652 2.60138e-20)
(0.0674103 0.140285 6.78933e-22)
(0.099255 0.232743 -6.87644e-22)
(0.106689 0.310963 -7.85115e-22)
(0.0998443 0.376768 -8.75386e-22)
(0.0837945 0.440508 -1.02952e-21)
(0.0701084 0.509077 -1.65768e-23)
(0.0494017 0.589229 5.33488e-22)
(0.0403912 0.684128 1.80161e-21)
(0.0125018 0.802383 0)
(0.011831 0.937237 -1.28712e-21)
(0.0607744 0.127451 2.491e-21)
(0.0928994 0.223551 -2.93684e-21)
(0.103439 0.308815 5.25891e-21)
(0.0980007 0.378624 8.76936e-22)
(0.0824357 0.443966 1.84308e-21)
(0.0689174 0.512959 3.06919e-21)
(0.0485184 0.593224 -1.12675e-21)
(0.039565 0.688301 -1.20168e-21)
(0.0124699 0.806475 2.36545e-21)
(0.0113886 0.940296 1.28405e-21)
(0.0574902 0.114262 0)
(0.0873046 0.212052 -2.71888e-21)
(0.100544 0.304628 -1.51763e-21)
(0.0965394 0.379079 0)
(0.0814299 0.446406 -5.60085e-21)
(0.0680263 0.51601 1.76567e-21)
(0.0478247 0.596475 1.93091e-21)
(0.0388645 0.69191 6.53085e-21)
(0.0124841 0.810361 -2.35781e-21)
(0.0109821 0.943385 4.6519e-21)
(0.0583519 0.101576 0)
(0.0828053 0.198606 2.74196e-21)
(0.0980144 0.298317 0)
(0.095414 0.377987 6.54845e-21)
(0.0807519 0.447646 -6.5821e-21)
(0.0674348 0.517962 -3.85198e-21)
(0.0473634 0.598568 -2.11447e-22)
(0.0383671 0.694308 -6.34008e-21)
(0.012616 0.81313 -1.05105e-21)
(0.0106142 0.94581 -5.73298e-21)
(0.0639482 0.0902684 3.41082e-22)
(0.0798785 0.183858 -7.43252e-21)
(0.0958757 0.289849 3.21039e-22)
(0.0945663 0.375308 -5.75473e-21)
(0.0803602 0.447936 0)
(0.0670702 0.519325 -3.66356e-21)
(0.0470088 0.600273 -2.22631e-22)
(0.0379126 0.696591 8.02887e-21)
(0.012724 0.816091 1.04737e-21)
(0.0102688 0.948545 -1.05107e-21)
(0.0743422 0.0810378 -1.96255e-20)
(0.0791219 0.168699 1.2631e-20)
(0.0941981 0.279315 5.50921e-21)
(0.0939695 0.370746 -5.50659e-21)
(0.0802375 0.446622 -3.01619e-21)
(0.067008 0.519173 0)
(0.0469357 0.600365 -7.18208e-21)
(0.0377087 0.697074 3.54711e-21)
(0.0129859 0.817313 3.85274e-21)
(0.00995933 0.950237 3.92375e-21)
(0.088747 0.0742145 -2.2496e-21)
(0.0811429 0.154117 0)
(0.0930779 0.26694 0)
(0.0935666 0.364792 0)
(0.0803097 0.44494 -3.12694e-21)
(0.0670326 0.519253 6.13343e-21)
(0.0468015 0.601041 6.98222e-21)
(0.0373824 0.698525 -1.06781e-20)
(0.0131034 0.819749 1.8685e-21)
(0.00965823 0.952829 -5.73635e-21)
(0.105419 0.0696823 1.38127e-20)
(0.0862818 0.141035 9.87122e-21)
(0.0927441 0.252955 -9.78395e-21)
(0.0933798 0.355978 1.08133e-20)
(0.0806259 0.440175 -1.34247e-20)
(0.0675137 0.516381 0)
(0.0471704 0.598649 -3.1131e-21)
(0.0374928 0.696631 1.79621e-22)
(0.013499 0.819099 -3.37691e-21)
(0.00939325 0.953653 -3.46316e-21)
(0.121763 0.0666791 -1.13426e-20)
(0.094162 0.129268 0)
(0.0932401 0.238824 -1.08876e-20)
(0.0933402 0.34825 1.99183e-20)
(0.0809157 0.437883 -7.43618e-21)
(0.0676221 0.516518 -1.38486e-21)
(0.0470165 0.599595 3.10661e-21)
(0.037115 0.698411 3.42619e-23)
(0.0135145 0.821841 4.88631e-21)
(0.00911748 0.956494 5.04304e-21)
(0.134172 0.0637394 -8.88658e-21)
(0.103267 0.11672 8.69259e-21)
(0.0950837 0.218661 1.15535e-21)
(0.0935729 0.330962 0)
(0.0817858 0.426343 0)
(0.0690015 0.508712 1.32298e-21)
(0.0481242 0.593056 5.54929e-21)
(0.0377092 0.692865 -5.38952e-21)
(0.0141206 0.818486 -1.42833e-21)
(0.0088855 0.956169 1.3855e-21)
(0.139459 0.0681214 0)
(0.113615 0.114832 0)
(0.0994372 0.209633 0)
(0.0943414 0.328125 0)
(0.0809211 0.431614 0)
(0.0668845 0.51813 0)
(0.046111 0.603368 0)
(0.0357205 0.703863 0)
(0.0134443 0.829174 0)
(0.0082608 0.964999 0)
(0.133991 0.0917882 0)
(0.113323 0.144208 0)
(0.0963788 0.228008 0)
(0.0898319 0.339791 0)
(0.0782769 0.445177 0)
(0.0647262 0.533224 0)
(0.0442226 0.616904 0)
(0.0331085 0.715299 0)
(0.0125021 0.838738 0)
(0.00742577 0.970492 0)
(0.11912 0.102302 0)
(0.103384 0.162066 0)
(0.0870324 0.244588 0)
(0.0790447 0.352709 0)
(0.0693576 0.459605 0)
(0.0581973 0.550654 0)
(0.0400559 0.635755 0)
(0.029777 0.733914 0)
(0.0112474 0.856227 0)
(0.00667512 0.984473 0)
(0.0972708 0.110445 0)
(0.0856183 0.174661 0)
(0.0731415 0.257223 0)
(0.0671528 0.362775 0)
(0.060593 0.469899 0)
(0.0523116 0.562046 0)
(0.0363926 0.646171 0)
(0.0264493 0.742572 0)
(0.00957428 0.863463 0)
(0.00571364 0.988048 0)
(0.0726978 0.117579 0)
(0.0628731 0.184332 0)
(0.0528106 0.26605 0)
(0.0485942 0.369031 0)
(0.0459115 0.478041 0)
(0.0423423 0.575426 0)
(0.0307955 0.663474 0)
(0.023098 0.760135 0)
(0.00828199 0.878896 0)
(0.00503877 1.00004 0)
(0.0481807 0.12363 0)
(0.0400496 0.191755 0)
(0.0337301 0.272494 0)
(0.0323352 0.371189 0)
(0.0331879 0.478223 0)
(0.0333852 0.577034 0)
(0.0248288 0.667097 0)
(0.0181458 0.764944 0)
(0.00551349 0.88351 0)
(0.00377973 1.00138 0)
(0.0258948 0.129717 0)
(0.0159818 0.197786 0)
(0.009594 0.275103 0)
(0.00965214 0.369996 0)
(0.0150907 0.477585 0)
(0.0216834 0.582473 0)
(0.0192939 0.679205 0)
(0.0158137 0.778552 0)
(0.0046427 0.895108 0)
(0.00325303 1.01004 0)
(0.00915243 0.136404 0)
(0.000281301 0.207038 0)
(-0.00554286 0.280923 0)
(-0.00631597 0.367895 0)
(-0.000653392 0.46837 0)
(0.0078242 0.572635 0)
(0.00902289 0.673325 0)
(0.00880842 0.777601 0)
(0.00119989 0.896614 0)
(0.00188194 1.00858 0)
(-0.00567206 0.140921 0)
(-0.0165835 0.209522 0)
(-0.0233835 0.279182 0)
(-0.0230537 0.363011 0)
(-0.0144222 0.463395 0)
(-0.00138181 0.572643 0)
(0.00460249 0.679332 0)
(0.00731092 0.785413 0)
(0.000653499 0.90269 0)
(0.00142864 1.01264 0)
(-0.0111041 0.155897 0)
(-0.0231928 0.227075 0)
(-0.0336072 0.290098 0)
(-0.0371458 0.359749 0)
(-0.0315538 0.446499 0)
(-0.0191911 0.550695 0)
(-0.00913549 0.662946 0)
(-0.00137191 0.779418 0)
(-0.00314429 0.901503 0)
(4.99606e-05 1.00912 0)
(0.157153 0.0512444 5.3443e-21)
(0.145843 0.061672 -5.28143e-21)
(0.126604 0.0662091 1.69978e-22)
(0.101809 0.0706044 0)
(0.0753266 0.0752461 0)
(0.0493822 0.0802131 -3.44725e-22)
(0.0267461 0.0854328 1.36199e-21)
(0.0100991 0.0907486 -1.34028e-21)
(-0.00246063 0.0951606 -1.39567e-22)
(-0.00718216 0.105897 1.36745e-22)
(0.15617 0.0435138 -8.43781e-21)
(0.141363 0.049405 0)
(0.121708 0.0511423 7.79001e-23)
(0.0977119 0.0537358 1.09955e-21)
(0.0726687 0.0569789 -1.81613e-21)
(0.0481734 0.0612294 3.3769e-22)
(0.0268068 0.0659507 -6.84783e-22)
(0.0108573 0.0706732 -1.08242e-21)
(-0.000619836 0.0749353 -2.89219e-23)
(-0.00553075 0.0838067 6.65775e-24)
(0.155279 0.0347843 9.01937e-21)
(0.138541 0.036808 -1.98543e-21)
(0.118629 0.0361703 1.96595e-21)
(0.0949126 0.0369665 1.38538e-21)
(0.07073 0.0385151 -8.80447e-22)
(0.0472558 0.0416609 0)
(0.0269837 0.0455701 6.86358e-22)
(0.0116807 0.0496359 2.33236e-23)
(0.000938047 0.0536734 3.94981e-22)
(-0.0040583 0.0608612 1.25209e-22)
(0.153262 0.0243469 -1.247e-21)
(0.135022 0.022773 0)
(0.115391 0.0200653 0)
(0.0922886 0.0193616 0)
(0.0691063 0.0193786 -1.59344e-21)
(0.0466095 0.0214451 1.1154e-21)
(0.0272533 0.0244461 -3.11464e-23)
(0.012525 0.0278751 5.08322e-22)
(0.00226369 0.0315537 1.24074e-22)
(-0.00276416 0.0372043 -4.72974e-24)
(0.15028 0.0123643 -1.98352e-21)
(0.131117 0.00756675 -2.86844e-21)
(0.11204 0.00290831 1.80683e-23)
(0.0896491 0.000884209 -1.80534e-23)
(0.0675011 -0.000483048 4.70492e-22)
(0.0460286 0.000630238 0)
(0.0275333 0.00274228 6.36462e-22)
(0.0133669 0.00556999 -9.91736e-22)
(0.00351868 0.00879189 4.46264e-22)
(-0.00164991 0.013072 -1.20717e-22)
(0.146435 -0.00091501 -8.52019e-21)
(0.126911 -0.0084476 1.93044e-21)
(0.108634 -0.0150111 7.87528e-22)
(0.0870545 -0.0182177 -1.16944e-24)
(0.0658794 -0.0208773 0)
(0.0454548 -0.0205982 0)
(0.0277856 -0.0193196 0)
(0.0141614 -0.017062 -4.91008e-22)
(0.00461496 -0.0143596 0)
(-0.000698711 -0.0112903 0)
(0.141842 -0.0151956 0)
(0.122416 -0.0248729 1.40667e-21)
(0.105102 -0.0333465 -7.99406e-22)
(0.0844151 -0.0375854 5.3882e-22)
(0.0642524 -0.0414939 -5.4156e-22)
(0.0448621 -0.0419718 -5.37696e-22)
(0.0279924 -0.0414721 5.57033e-22)
(0.0148686 -0.0397644 1.66988e-21)
(0.00550751 -0.0376209 -1.46654e-22)
(1.88126e-05 -0.0355984 5.62078e-23)
(0.136541 -0.0301559 0)
(0.117627 -0.0412986 -6.06089e-22)
(0.10143 -0.0517263 -1.24836e-22)
(0.0816871 -0.0568595 0)
(0.0626441 -0.0619903 -2.52354e-22)
(0.0442368 -0.0631579 6.40284e-22)
(0.0281209 -0.0634098 -7.67359e-22)
(0.0154425 -0.0622517 -2.2303e-22)
(0.00617874 -0.0607036 1.48197e-22)
(0.00054011 -0.0595187 -1.12108e-22)
(0.130516 -0.0454541 1.28888e-21)
(0.112598 -0.0573791 4.58751e-22)
(0.0976376 -0.0698042 -2.63157e-22)
(0.0788796 -0.0756758 -7.10407e-24)
(0.0609813 -0.082001 -1.57311e-22)
(0.0435371 -0.0838207 -3.27404e-22)
(0.0281238 -0.0848173 1.09825e-22)
(0.0158455 -0.0842252 9.84099e-23)
(0.00662837 -0.0832757 -1.48681e-22)
(0.00085355 -0.0827214 -2.50309e-23)
(0.12389 -0.0607206 -2.24334e-22)
(0.107362 -0.0728524 2.2635e-22)
(0.0936864 -0.0872598 -7.48722e-23)
(0.0759759 -0.0937227 7.09304e-24)
(0.0592203 -0.101197 -7.44832e-23)
(0.0427291 -0.103659 1.75214e-22)
(0.0279639 -0.105396 -1.59083e-22)
(0.0160563 -0.105391 -4.88407e-23)
(0.00687012 -0.105006 0)
(0.00102117 -0.104884 2.50756e-23)
(0.116965 -0.0756733 2.40322e-22)
(0.10199 -0.0875287 -2.42284e-22)
(0.0896164 -0.103841 -1.07682e-22)
(0.0730094 -0.110773 -2.58807e-23)
(0.0573452 -0.119311 5.89406e-23)
(0.0417937 -0.122431 1.0798e-23)
(0.0276191 -0.124883 -4.1045e-23)
(0.0160682 -0.125479 -1.23463e-22)
(0.00692521 -0.12559 0)
(0.00107956 -0.125726 2.07177e-23)
(0.110031 -0.0901217 0)
(0.0966407 -0.101293 -6.46007e-22)
(0.0855086 -0.119354 1.01286e-21)
(0.0700451 -0.126684 2.59179e-23)
(0.0553594 -0.136145 -2.88809e-23)
(0.0407294 -0.139961 -1.79309e-22)
(0.0270868 -0.143068 8.47055e-23)
(0.0158914 -0.144264 7.92885e-23)
(0.00682052 -0.144773 -1.00638e-22)
(0.0010531 -0.145038 -2.06621e-23)
(0.103257 -0.103949 0)
(0.0914207 -0.114118 -9.49295e-22)
(0.0814121 -0.133663 -2.54705e-22)
(0.0671259 -0.141402 0)
(0.0532809 -0.151572 1.32726e-22)
(0.0395496 -0.156149 4.53813e-24)
(0.0263871 -0.159803 -1.04488e-22)
(0.0155554 -0.16159 -3.65872e-22)
(0.00659589 -0.162383 1.00309e-22)
(0.000969457 -0.162698 -6.20727e-23)
(0.0967304 -0.117088 0)
(0.0863871 -0.126076 9.57107e-22)
(0.0773496 -0.146688 0)
(0.064275 -0.154957 3.44809e-22)
(0.0511406 -0.16554 -3.46612e-22)
(0.0382758 -0.170963 1.63466e-22)
(0.0255581 -0.175016 6.85283e-23)
(0.0151008 -0.177377 3.36826e-22)
(0.006297 -0.17834 6.72503e-23)
(0.0008565 -0.178675 8.88634e-23)
(0.0905208 -0.129494 1.25673e-20)
(0.0816032 -0.137331 -4.67092e-21)
(0.0733545 -0.158404 -7.20975e-22)
(0.0615157 -0.167445 -1.10614e-21)
(0.048983 -0.178072 0)
(0.0369358 -0.184439 1.04692e-22)
(0.0246466 -0.188712 5.84916e-23)
(0.0145676 -0.191632 -3.58366e-22)
(0.00596325 -0.192655 -2.25869e-23)
(0.000733229 -0.193014 2.25396e-23)
(0.0846743 -0.141111 1.90485e-21)
(0.0771555 -0.148131 6.97741e-21)
(0.0694957 -0.168835 1.28631e-21)
(0.0588808 -0.179003 -1.28561e-21)
(0.0468699 -0.189255 -2.34647e-22)
(0.0355631 -0.19666 0)
(0.0237017 -0.200971 1.92015e-22)
(0.0139901 -0.204434 -1.10341e-22)
(0.00562538 -0.205424 -1.21203e-22)
(0.000610915 -0.205833 -3.09747e-23)
(0.0792947 -0.15183 -1.9175e-21)
(0.0732107 -0.158774 0)
(0.0659154 -0.178059 0)
(0.0564278 -0.189773 0)
(0.0448829 -0.199236 -1.08682e-22)
(0.034198 -0.207747 3.43199e-22)
(0.022772 -0.211929 -1.46556e-22)
(0.0133982 -0.21592 2.60788e-22)
(0.00530689 -0.216804 -2.73005e-23)
(0.00049577 -0.217302 5.76375e-23)
(0.0743572 -0.161453 -4.89398e-21)
(0.0697897 -0.169552 4.96513e-21)
(0.0626556 -0.186201 -4.91883e-21)
(0.0541287 -0.199877 1.99012e-21)
(0.043057 -0.208199 -2.35824e-21)
(0.0328596 -0.217838 0)
(0.0218953 -0.221762 -2.60225e-23)
(0.01282 -0.226263 -3.71012e-23)
(0.0050279 -0.226992 4.65614e-23)
(0.000389536 -0.227626 1.26224e-23)
(0.0687867 -0.169565 -2.15009e-21)
(0.0659879 -0.180681 0)
(0.0592092 -0.193476 -4.40462e-21)
(0.0515842 -0.209426 6.1066e-21)
(0.0412078 -0.216378 -1.93334e-21)
(0.0314594 -0.227097 -1.1513e-22)
(0.0210559 -0.230674 2.59633e-23)
(0.0122659 -0.235655 -1.04373e-23)
(0.00479821 -0.236201 -6.21237e-23)
(0.000289116 -0.237025 -2.29727e-23)
(0.0630638 -0.175297 -8.7346e-21)
(0.0617286 -0.192338 8.50971e-21)
(0.0557895 -0.200311 6.3168e-22)
(0.0488309 -0.218603 0)
(0.0393153 -0.224093 0)
(0.0299699 -0.235745 1.18925e-22)
(0.0201933 -0.238901 1.18414e-22)
(0.0116901 -0.2443 -1.16102e-22)
(0.00457516 -0.244643 3.00282e-24)
(0.000200076 -0.245729 -2.93172e-24)
(0.0685349 -0.181582 0)
(0.0627009 -0.219936 0)
(0.0560466 -0.216291 0)
(0.0473839 -0.239786 0)
(0.0376057 -0.242136 0)
(0.027616 -0.255684 0)
(0.0183335 -0.257722 0)
(0.0101652 -0.263892 0)
(0.00391851 -0.263574 0)
(0.000127868 -0.265282 0)
(0.0509003 -0.230041 0)
(0.0440152 -0.264406 0)
(0.0411204 -0.256934 0)
(0.0338177 -0.278015 0)
(0.0278659 -0.276919 0)
(0.0202623 -0.289599 0)
(0.013859 -0.289202 0)
(0.00765613 -0.295207 0)
(0.00315248 -0.29349 0)
(0.000197024 -0.295688 0)
(0.0459111 -0.276338 0)
(0.0375813 -0.309096 0)
(0.0340002 -0.298516 0)
(0.0267687 -0.318933 0)
(0.0218518 -0.314746 0)
(0.0154528 -0.327122 0)
(0.0107244 -0.324396 0)
(0.00588154 -0.330408 0)
(0.00262224 -0.327259 0)
(0.000175346 -0.330024 0)
(0.0394174 -0.327772 0)
(0.0310495 -0.359823 0)
(0.0278463 -0.346166 0)
(0.0211409 -0.366557 0)
(0.0173373 -0.359447 0)
(0.0119557 -0.372049 0)
(0.00856098 -0.367101 0)
(0.00468862 -0.373502 0)
(0.00231206 -0.368902 0)
(0.000152406 -0.37245 0)
(0.0335752 -0.388419 0)
(0.025787 -0.420146 0)
(0.022754 -0.404211 0)
(0.0167843 -0.424925 0)
(0.0138821 -0.415444 0)
(0.00936853 -0.428668 0)
(0.00697009 -0.421817 0)
(0.00377375 -0.428965 0)
(0.00203844 -0.423043 0)
(0.000103387 -0.427653 0)
(0.0282107 -0.461573 0)
(0.0210643 -0.491537 0)
(0.0183946 -0.475642 0)
(0.0131973 -0.495992 0)
(0.011049 -0.485659 0)
(0.00721541 -0.499172 0)
(0.00552012 -0.491335 0)
(0.00278303 -0.499167 0)
(0.00158691 -0.492508 0)
(-3.18314e-05 -0.498178 0)
(0.0219473 -0.54433 0)
(0.0164463 -0.569538 0)
(0.0141751 -0.557398 0)
(0.010032 -0.57525 0)
(0.00829318 -0.566528 0)
(0.00514648 -0.578773 0)
(0.00382904 -0.571627 0)
(0.00154873 -0.579136 0)
(0.00083294 -0.572925 0)
(-0.000221715 -0.578896 0)
(0.0169849 -0.624279 0)
(0.0123118 -0.642648 0)
(0.0102761 -0.636466 0)
(0.00682758 -0.649281 0)
(0.00554299 -0.644246 0)
(0.00300366 -0.653148 0)
(0.00206696 -0.648326 0)
(0.000267508 -0.653814 0)
(7.61886e-05 -0.649333 0)
(-0.00036402 -0.654036 0)
(0.0101294 -0.684534 0)
(0.00695378 -0.694244 0)
(0.0058484 -0.694798 0)
(0.00377428 -0.702209 0)
(0.00307293 -0.701586 0)
(0.00142263 -0.706172 0)
(0.00083505 -0.704224 0)
(-0.000313287 -0.706699 0)
(-0.000241751 -0.70443 0)
(-0.000312023 -0.706739 0)
(0.00246033 -0.714048 0)
(0.00175449 -0.722094 0)
(0.00162793 -0.725339 0)
(0.00120206 -0.729966 0)
(0.000964884 -0.730938 0)
(0.000465718 -0.733338 0)
(0.000207528 -0.732692 0)
(-0.000146464 -0.733647 0)
(-0.00013202 -0.732523 0)
(-0.000101865 -0.733508 0)
(0.0611447 -0.19604 1.14934e-20)
(0.0498484 -0.244867 -1.1278e-20)
(0.0468731 -0.292202 1.46517e-21)
(0.0407752 -0.344998 0)
(0.0356221 -0.406152 0)
(0.0302777 -0.477905 1.63345e-21)
(0.0243816 -0.556452 -6.94785e-21)
(0.0184973 -0.628745 6.88858e-21)
(0.0115322 -0.684448 1.85518e-21)
(0.0036108 -0.70984 -1.82974e-21)
(0.0589905 -0.20249 -1.37429e-20)
(0.0500167 -0.2504 0)
(0.0474126 -0.297381 9.79568e-21)
(0.0414849 -0.350203 -2.2427e-20)
(0.0365847 -0.411285 1.42723e-20)
(0.0312387 -0.482416 -1.47691e-21)
(0.025458 -0.559353 3.26316e-21)
(0.0191857 -0.629932 6.82493e-21)
(0.0121493 -0.683237 1.88535e-21)
(0.00410205 -0.708524 1.87053e-21)
(0.0575941 -0.209446 1.63257e-20)
(0.0508828 -0.256768 -1.10778e-20)
(0.0483372 -0.302827 1.09727e-20)
(0.0425557 -0.355057 -1.18873e-20)
(0.0378211 -0.415681 8.83107e-21)
(0.0324128 -0.485921 0)
(0.0265542 -0.56117 -3.2713e-21)
(0.0199415 -0.630353 1.7029e-22)
(0.0126502 -0.68129 -3.5401e-21)
(0.00436391 -0.707073 -3.65208e-21)
(0.0568967 -0.215445 -2.65677e-21)
(0.0522534 -0.262741 0)
(0.049653 -0.308122 0)
(0.0440283 -0.359791 0)
(0.0393655 -0.419941 9.71744e-21)
(0.0338324 -0.489248 -6.47696e-21)
(0.0277551 -0.562863 -2.06941e-23)
(0.0207957 -0.630366 -3.835e-21)
(0.0131002 -0.67937 -1.95388e-21)
(0.00447547 -0.704944 -2.07869e-21)
(0.0569919 -0.220641 7.51797e-23)
(0.0540217 -0.267669 -8.13559e-21)
(0.0512927 -0.312543 -5.97607e-21)
(0.045843 -0.363877 5.97241e-21)
(0.0411743 -0.423698 -3.19734e-21)
(0.0354737 -0.492202 0)
(0.02912 -0.564366 -3.63559e-21)
(0.0217801 -0.630091 7.85575e-21)
(0.0136089 -0.677514 -4.01374e-21)
(0.00457081 -0.702277 4.0804e-21)
(0.0579537 -0.225276 -2.21471e-20)
(0.0562136 -0.271597 2.53883e-21)
(0.0532624 -0.315863 -3.08029e-22)
(0.0479623 -0.366944 6.1598e-21)
(0.0432088 -0.426523 0)
(0.0373061 -0.494358 0)
(0.0306576 -0.565297 0)
(0.0229074 -0.629418 4.21416e-21)
(0.0142396 -0.675517 0)
(0.00472564 -0.699333 0)
(0.0597883 -0.229228 0)
(0.0588706 -0.274607 8.92138e-21)
(0.0556193 -0.318136 -5.9963e-21)
(0.0503981 -0.368927 -6.78255e-21)
(0.0454734 -0.428256 6.81792e-21)
(0.0393272 -0.495496 3.90939e-21)
(0.0323607 -0.565406 -3.90075e-21)
(0.0241738 -0.628209 -1.50596e-20)
(0.0149979 -0.673219 1.0738e-21)
(0.00495186 -0.696253 -3.62344e-21)
(0.0624814 -0.232272 0)
(0.0620044 -0.276633 -2.93172e-21)
(0.0584106 -0.319383 -1.61608e-21)
(0.0531772 -0.36986 0)
(0.0479971 -0.428906 1.92027e-21)
(0.0415595 -0.495593 -5.83631e-21)
(0.0342362 -0.564631 6.3392e-21)
(0.0255801 -0.626389 2.23082e-21)
(0.0158704 -0.670547 -2.43329e-21)
(0.00523707 -0.693043 4.8102e-21)
(0.0660254 -0.234232 2.82607e-21)
(0.0656157 -0.277576 3.15715e-21)
(0.0616596 -0.319553 -7.37934e-22)
(0.0563144 -0.36974 9.01051e-22)
(0.0508082 -0.428495 1.869e-21)
(0.0440304 -0.494703 3.06894e-21)
(0.0362993 -0.563026 -1.1341e-21)
(0.027128 -0.62398 -1.2116e-21)
(0.0168386 -0.667509 2.44133e-21)
(0.00556495 -0.689667 1.31819e-21)
(0.0704172 -0.234979 -7.5883e-22)
(0.0697088 -0.277383 7.64682e-22)
(0.0653776 -0.318573 -8.33836e-22)
(0.0598137 -0.368537 -8.99951e-22)
(0.0539239 -0.427012 1.02974e-21)
(0.0467593 -0.492847 -2.09148e-21)
(0.038573 -0.560617 1.73163e-21)
(0.0288354 -0.620992 6.10602e-22)
(0.0179075 -0.664107 0)
(0.00593533 -0.68608 -1.32111e-21)
(0.075653 -0.234395 7.81263e-22)
(0.0742878 -0.276065 -7.87663e-22)
(0.0695739 -0.316401 -8.97655e-22)
(0.0636747 -0.366236 -9.72508e-22)
(0.0573573 -0.424434 -1.07339e-21)
(0.0497573 -0.490051 -6.12227e-23)
(0.0410653 -0.55746 6.12817e-22)
(0.0307011 -0.617489 1.95073e-21)
(0.0190686 -0.660384 0)
(0.00634185 -0.68228 -1.43836e-21)
(0.0817234 -0.232437 0)
(0.0793482 -0.273669 -3.49764e-21)
(0.0742581 -0.313037 6.29119e-21)
(0.0678967 -0.362852 9.74217e-22)
(0.0611157 -0.420764 2.20122e-21)
(0.0530296 -0.486286 3.52859e-21)
(0.043802 -0.553495 -1.23568e-21)
(0.0327553 -0.61341 -1.32076e-21)
(0.0203506 -0.656296 2.89863e-21)
(0.00679974 -0.678238 1.43497e-21)
(0.0886127 -0.229183 0)
(0.0848824 -0.270229 -3.52501e-21)
(0.0794321 -0.30857 -1.87353e-21)
(0.0724742 -0.35842 0)
(0.0652172 -0.416024 -6.87014e-21)
(0.0565828 -0.481609 2.31191e-21)
(0.0467672 -0.54883 2.65596e-21)
(0.0349685 -0.60887 8.45802e-21)
(0.0217212 -0.65191 -2.88925e-21)
(0.0072889 -0.673983 6.2102e-21)
(0.0963026 -0.224779 0)
(0.0908813 -0.265747 3.55529e-21)
(0.0850921 -0.303085 0)
(0.0774207 -0.35296 8.95428e-21)
(0.0696571 -0.41034 -9.00017e-21)
(0.0604232 -0.475905 -5.25156e-21)
(0.050007 -0.543296 -7.98654e-23)
(0.0374047 -0.60368 -8.68757e-21)
(0.0232439 -0.647095 -1.44845e-21)
(0.00784308 -0.669422 -7.72484e-21)
(0.104771 -0.219414 2.73902e-20)
(0.0973431 -0.260207 -1.03873e-20)
(0.0912043 -0.296864 7.08975e-22)
(0.0827089 -0.346506 -8.61154e-21)
(0.074477 -0.40376 0)
(0.0645715 -0.46932 -5.46858e-21)
(0.0534446 -0.537185 -3.74859e-22)
(0.0399753 -0.598123 1.18027e-20)
(0.0248351 -0.642034 1.60151e-21)
(0.00841226 -0.664681 -1.60743e-21)
(0.113982 -0.213269 -1.61562e-21)
(0.104235 -0.253672 1.88556e-20)
(0.0977733 -0.289736 8.95404e-21)
(0.0884317 -0.338837 -8.948e-21)
(0.079679 -0.395974 -5.15206e-21)
(0.0690806 -0.461629 0)
(0.0572079 -0.530015 -1.20878e-20)
(0.0428418 -0.591738 6.06025e-21)
(0.0266359 -0.636446 6.40308e-21)
(0.00907306 -0.659583 6.83126e-21)
(0.123841 -0.206721 -3.78408e-21)
(0.111622 -0.2461 0)
(0.104767 -0.281862 0)
(0.0945099 -0.330594 0)
(0.0851494 -0.387777 -5.79659e-21)
(0.0737915 -0.453809 1.09301e-20)
(0.061077 -0.522875 1.23015e-20)
(0.0457294 -0.585419 -1.92332e-20)
(0.0284084 -0.630833 3.41189e-21)
(0.00968766 -0.654412 -1.01464e-20)
(0.134264 -0.199646 -6.50266e-21)
(0.119603 -0.236973 1.78547e-20)
(0.112138 -0.272939 -1.76843e-20)
(0.101062 -0.321017 2.11e-20)
(0.0910917 -0.377945 -2.64523e-20)
(0.0790311 -0.444114 0)
(0.0655056 -0.513898 -6.42542e-21)
(0.0491421 -0.577694 -2.46779e-22)
(0.0305672 -0.624386 -7.0764e-21)
(0.0104848 -0.648675 -7.19347e-21)
(0.144902 -0.193164 -4.04094e-21)
(0.127886 -0.228347 0)
(0.119458 -0.265107 -2.27508e-20)
(0.107623 -0.312797 4.1977e-20)
(0.09694 -0.369869 -1.60609e-20)
(0.0840757 -0.436431 -3.08907e-21)
(0.069623 -0.506841 6.41179e-21)
(0.0521889 -0.571292 -2.91936e-22)
(0.0324158 -0.618507 1.03487e-20)
(0.0110709 -0.643146 1.06455e-20)
(0.156383 -0.183505 -1.76004e-20)
(0.137981 -0.215773 1.72025e-20)
(0.128116 -0.252935 2.44774e-21)
(0.115578 -0.299747 0)
(0.104138 -0.3565 0)
(0.090532 -0.423355 2.98692e-21)
(0.0751532 -0.495128 1.32911e-20)
(0.0565082 -0.561723 -1.29592e-20)
(0.0351885 -0.610954 -3.49845e-21)
(0.0121257 -0.636524 3.43656e-21)
(0.16737 -0.185563 0)
(0.158994 -0.211015 0)
(0.144362 -0.25011 0)
(0.130102 -0.295718 0)
(0.117102 -0.351309 0)
(0.101645 -0.416236 0)
(0.0841439 -0.48562 0)
(0.0630973 -0.549801 0)
(0.0391041 -0.597501 0)
(0.0129933 -0.622877 0)
(0.189717 -0.166969 0)
(0.195158 -0.197012 0)
(0.172091 -0.240197 0)
(0.158595 -0.284761 0)
(0.142868 -0.339905 0)
(0.1243 -0.402532 0)
(0.103076 -0.46802 0)
(0.0775169 -0.527329 0)
(0.0484456 -0.570238 0)
(0.017127 -0.591535 0)
(0.222175 -0.148028 0)
(0.233265 -0.178665 0)
(0.201755 -0.221581 0)
(0.191262 -0.264302 0)
(0.171074 -0.318747 0)
(0.14895 -0.378055 0)
(0.12306 -0.439527 0)
(0.092084 -0.495198 0)
(0.0569081 -0.536371 0)
(0.0185765 -0.558877 0)
(0.264122 -0.134821 0)
(0.276859 -0.164085 0)
(0.238832 -0.205941 0)
(0.232377 -0.247532 0)
(0.205484 -0.30085 0)
(0.179993 -0.355368 0)
(0.148385 -0.411934 0)
(0.111019 -0.461561 0)
(0.0691592 -0.496665 0)
(0.0246641 -0.513106 0)
(0.314929 -0.118347 0)
(0.326159 -0.14553 0)
(0.283457 -0.184434 0)
(0.278593 -0.222894 0)
(0.241482 -0.271378 0)
(0.212335 -0.318844 0)
(0.172597 -0.369927 0)
(0.127974 -0.414361 0)
(0.0782158 -0.447913 0)
(0.0245567 -0.467879 0)
(0.377878 -0.108387 0)
(0.385417 -0.132978 0)
(0.339531 -0.168703 0)
(0.332563 -0.202694 0)
(0.284483 -0.245578 0)
(0.253266 -0.286645 0)
(0.203659 -0.332166 0)
(0.151218 -0.368601 0)
(0.0934023 -0.394759 0)
(0.034563 -0.404612 0)
(0.446913 -0.0871093 0)
(0.446294 -0.107162 0)
(0.397789 -0.137047 0)
(0.38383 -0.16417 0)
(0.325517 -0.19961 0)
(0.290783 -0.232678 0)
(0.225559 -0.269441 0)
(0.16554 -0.298317 0)
(0.0975797 -0.325735 0)
(0.0265857 -0.347182 0)
(0.524411 -0.0746747 0)
(0.513306 -0.0898831 0)
(0.466086 -0.114047 0)
(0.44148 -0.134425 0)
(0.379022 -0.162913 0)
(0.336523 -0.18754 0)
(0.258681 -0.216425 0)
(0.1947 -0.240407 0)
(0.118012 -0.264015 0)
(0.0517966 -0.264817 0)
(0.582394 -0.0399003 0)
(0.561628 -0.0477217 0)
(0.508398 -0.0624541 0)
(0.471621 -0.0730349 0)
(0.401283 -0.0902121 0)
(0.34583 -0.102349 0)
(0.254616 -0.119694 0)
(0.181062 -0.133324 0)
(0.0853056 -0.157759 0)
(-0.00943288 -0.203528 0)
(0.774534 -0.0198681 0)
(0.748762 -0.0237363 0)
(0.702917 -0.0296208 0)
(0.660588 -0.0349155 0)
(0.596937 -0.0427895 0)
(0.534762 -0.0501368 0)
(0.447826 -0.0615173 0)
(0.359109 -0.0753938 0)
(0.240396 -0.10358 0)
(0.163835 -0.158424 0)
(0.199081 -0.162923 1.88437e-20)
(0.225081 -0.141579 -1.85498e-20)
(0.258281 -0.124147 2.81142e-21)
(0.299092 -0.112251 0)
(0.348764 -0.0980424 0)
(0.408767 -0.089467 3.815e-21)
(0.475459 -0.0711922 -1.7534e-20)
(0.548256 -0.0615689 1.73745e-20)
(0.60922 -0.0316761 4.88247e-21)
(0.795257 -0.0167929 -4.90504e-21)
(0.207792 -0.153354 -1.88381e-20)
(0.233152 -0.131154 0)
(0.266261 -0.114665 1.93452e-20)
(0.307145 -0.10334 -4.5876e-20)
(0.356961 -0.0900135 3.02555e-20)
(0.416777 -0.0819909 -3.49182e-21)
(0.483307 -0.0648519 7.50758e-21)
(0.555307 -0.0563155 1.64503e-20)
(0.618334 -0.0283753 4.52037e-21)
(0.802652 -0.0154936 4.39571e-21)
(0.215424 -0.142377 2.20013e-20)
(0.239352 -0.120278 -1.93371e-20)
(0.271652 -0.105065 1.9155e-20)
(0.312235 -0.0944102 -2.40997e-20)
(0.362047 -0.0820495 1.7609e-20)
(0.421888 -0.074682 0)
(0.48847 -0.058765 -7.52606e-21)
(0.560321 -0.05143 -6.95746e-23)
(0.625698 -0.02541 -8.53889e-21)
(0.808944 -0.0142724 -8.81697e-21)
(0.223706 -0.130566 -3.74135e-21)
(0.246929 -0.109117 0)
(0.278407 -0.0952961 0)
(0.318455 -0.0853857 0)
(0.368018 -0.074089 1.9387e-20)
(0.42763 -0.0674894 -1.31097e-20)
(0.494065 -0.0528875 -3.58042e-22)
(0.565599 -0.0468314 -8.39447e-21)
(0.632783 -0.0227327 -4.30748e-21)
(0.814956 -0.0131397 -4.36817e-21)
(0.231487 -0.118317 2.53714e-21)
(0.254426 -0.0979063 -1.1679e-20)
(0.285251 -0.0854758 -1.05012e-20)
(0.325033 -0.0763579 1.04949e-20)
(0.374452 -0.066179 -6.19085e-21)
(0.433886 -0.060427 0)
(0.500155 -0.0471824 -7.46131e-21)
(0.571289 -0.0424161 1.63015e-20)
(0.639843 -0.0202418 -8.21928e-21)
(0.820808 -0.012074 8.75982e-21)
(0.238399 -0.105699 -2.87731e-20)
(0.261008 -0.0866986 2.33733e-21)
(0.290976 -0.0756654 -1.18593e-21)
(0.33072 -0.0674278 1.03644e-20)
(0.380138 -0.0584055 0)
(0.43959 -0.0535578 0)
(0.505838 -0.0416706 0)
(0.576724 -0.0381592 7.9056e-21)
(0.646542 -0.0178858 0)
(0.826304 -0.0110605 0)
(0.244462 -0.0927562 0)
(0.266543 -0.0754353 1.32062e-20)
(0.295522 -0.0658227 -9.04586e-21)
(0.33519 -0.0586251 -1.14422e-20)
(0.384606 -0.0507864 1.15019e-20)
(0.444162 -0.0469056 6.96107e-21)
(0.510516 -0.0363679 -6.68693e-21)
(0.58136 -0.0340758 -2.74182e-20)
(0.652478 -0.0156575 1.94831e-21)
(0.831207 -0.0100943 -6.4174e-21)
(0.249604 -0.0795076 0)
(0.270939 -0.0640961 -4.17257e-21)
(0.299127 -0.0559276 -2.3826e-21)
(0.338573 -0.0498954 0)
(0.38789 -0.0432831 3.30098e-21)
(0.447556 -0.040439 -9.65552e-21)
(0.514025 -0.031252 1.10095e-20)
(0.58503 -0.0301588 4.09337e-21)
(0.657474 -0.0135559 -4.0975e-21)
(0.835428 -0.00917651 8.5837e-21)
(0.25368 -0.065962 3.09626e-21)
(0.274173 -0.0526721 4.41743e-21)
(0.301733 -0.0459907 -8.95753e-22)