/*--------------------------------*- C++ -*----------------------------------*\
  =========                 |
  \\      /  F ield         | OpenFOAM: The Open Source CFD Toolbox
   \\    /   O peration     | Website:  https://openfoam.org
    \\  /    A nd           | Version:  7
     \\/     M anipulation  |
\*---------------------------------------------------------------------------*/
FoamFile
{
    version     2.0;
    format      ascii;
    class       volVectorField;
    location    "48";
    object      U;
}
// * * * * * * * * * * * * * * * * * * * * * * * * * * * * * * * * * * * * * //

dimensions      [0 1 -1 0 0 0 0];

internalField   nonuniform List<vector> 
2000
(
(-0.00175779 -0.000190757 -9.44295e-22)
(-0.00429119 0.00252591 0)
(-0.00547336 0.0073028 0)
(-0.00440507 0.0139185 -4.69519e-21)
(-0.00131102 0.0225065 1.50244e-21)
(0.00356989 0.0332571 4.97459e-23)
(0.00998798 0.0462909 -2.59281e-21)
(0.0176558 0.0616049 0)
(0.0261662 0.0790441 0)
(0.0349758 0.0982663 0)
(-0.00188577 0.00100625 0)
(-0.00441144 0.00343269 -3.62547e-21)
(-0.00552137 0.00712602 3.34344e-21)
(-0.00459001 0.0123007 6.26745e-21)
(-0.00191314 0.0192288 0)
(0.0022553 0.028166 5.63481e-21)
(0.00770674 0.0393031 -5.23984e-21)
(0.0142399 0.0527478 0)
(0.0215536 0.068516 9.65041e-21)
(0.0291199 0.0865431 -1.86062e-20)
(-0.00205669 0.00209297 0)
(-0.0041631 0.00414182 2.89451e-20)
(-0.00455917 0.00682786 0)
(-0.00310422 0.0107142 2.53715e-20)
(-0.00021498 0.0161662 0)
(0.00379813 0.0234527 -2.25604e-20)
(0.0087319 0.032782 0)
(0.014445 0.0443271 2.04218e-20)
(0.0207571 0.0582556 -1.91257e-20)
(0.0271465 0.0747997 -1.86974e-20)
(-0.00220211 0.00294797 -7.58978e-21)
(-0.00340051 0.00450042 -1.44435e-20)
(-0.00239234 0.00631087 -6.72239e-21)
(0.000290156 0.0091528 -1.25414e-20)
(0.00407327 0.0134376 -1.18502e-20)
(0.0085583 0.0193997 1.11473e-20)
(0.0135158 0.0272078 1.06119e-20)
(0.0188327 0.0370377 -1.55592e-22)
(0.0244551 0.0491582 1.9201e-20)
(0.0298971 0.064064 1.86873e-20)
(-0.002224 0.00345906 -7.51581e-21)
(-0.00195175 0.00437506 -1.45679e-20)
(0.00116687 0.00548588 -2.72923e-20)
(0.00577645 0.00759489 1.26e-20)
(0.0111282 0.011116 0)
(0.0167191 0.0162106 0)
(0.0222746 0.0229599 -2.16187e-20)
(0.0276827 0.0314758 -2.04646e-20)
(0.0330078 0.0420517 1.92749e-20)
(0.0378869 0.055354 5.5914e-20)
(-0.00199769 0.00354004 7.51226e-21)
(0.000371341 0.00367575 7.38937e-21)
(0.00628085 0.0042907 -4.02863e-20)
(0.0134527 0.00601426 6.35294e-20)
(0.0209612 0.00921959 -1.18451e-20)
(0.0282019 0.0139676 0)
(0.0348576 0.0202235 0)
(0.0408064 0.0279838 1.01326e-19)
(0.0462096 0.0374812 -9.60478e-20)
(0.0509657 0.0494327 1.84263e-20)
(-0.001383 0.00315108 5.85028e-20)
(0.00376232 0.00237035 0)
(0.0130685 0.00271199 5.39477e-20)
(0.0233065 0.0044018 -5.07049e-20)
(0.0333843 0.00772494 0)
(0.042619 0.0126243 2.2615e-20)
(0.0506756 0.0189427 -6.31391e-20)
(0.0574384 0.0265399 -8.05601e-20)
(0.0631388 0.0355171 3.77289e-20)
(0.0680798 0.0465307 3.66599e-20)
(-0.00024 0.002302 -1.16186e-19)
(0.00839546 0.00050378 -1.43657e-20)
(0.021586 0.000808059 -2.65728e-20)
(0.0351958 0.00278841 -6.2544e-20)
(0.0479992 0.00659215 -2.38058e-20)
(0.0592805 0.0120329 -2.20823e-20)
(0.0687315 0.0188438 6.45041e-22)
(0.0762806 0.0267639 0)
(0.0822136 0.035728 0)
(0.0873232 0.0462482 -2.53391e-22)
(0.00156467 0.00105018 5.76839e-20)
(0.0144001 -0.00178851 -5.61985e-20)
(0.0317952 -0.00128322 3.99262e-20)
(0.0488278 0.00125462 8.75755e-20)
(0.0642039 0.00578133 -2.32097e-20)
(0.077253 0.0119753 2.26963e-20)
(0.0877628 0.0194896 2.10013e-20)
(0.0957511 0.0280026 0)
(0.101532 0.0373296 0)
(0.106354 0.0478198 -8.4566e-22)
(0.00414142 -0.000497435 -7.04843e-21)
(0.0218318 -0.00429178 7.03389e-20)
(0.043531 -0.00335669 -1.3031e-20)
(0.0637394 -8.24924e-05 0)
(0.0812074 0.00524625 0)
(0.0954363 0.0121733 4.34506e-20)
(0.106429 0.0203106 0)
(0.114396 0.0293632 -3.73568e-20)
(0.119682 0.0391916 9.5872e-23)
(0.123545 0.0502266 3.31079e-20)
(0.0560508 0.144225 7.47159e-22)
(0.0848465 0.229206 -7.56433e-22)
(0.0908436 0.298272 -8.638e-22)
(0.0853026 0.358657 -9.50564e-22)
(0.071991 0.420088 -1.09004e-21)
(0.0611346 0.488549 -1.78338e-23)
(0.0429245 0.568574 5.65304e-22)
(0.0356683 0.662824 1.87972e-21)
(0.00969031 0.782138 0)
(0.0109646 0.918666 -1.33464e-21)
(0.0469887 0.131824 2.76692e-21)
(0.0780706 0.22069 -3.2611e-21)
(0.0875507 0.296216 5.84071e-21)
(0.0834516 0.359972 9.52233e-22)
(0.0706725 0.422731 1.99979e-21)
(0.060006 0.491639 3.27462e-21)
(0.0421261 0.571951 -1.18369e-21)
(0.034887 0.666463 -1.25436e-21)
(0.00966638 0.78566 2.47972e-21)
(0.0105231 0.9212 1.33146e-21)
(0.0407274 0.118711 0)
(0.0717148 0.209612 -3.09004e-21)
(0.0846267 0.292185 -1.69444e-21)
(0.0820419 0.359957 0)
(0.0697516 0.424368 -6.07585e-21)
(0.0592159 0.493881 1.94276e-21)
(0.0415545 0.574569 2.09423e-21)
(0.0342637 0.669522 6.94346e-21)
(0.0097088 0.788961 -2.47171e-21)
(0.0101249 0.923726 4.90357e-21)
(0.0384754 0.105827 0)
(0.0660706 0.196236 3.11627e-21)
(0.082055 0.286056 0)
(0.0810268 0.358488 7.32262e-21)
(0.0692079 0.42488 -7.36026e-21)
(0.0587611 0.495081 -4.17968e-21)
(0.0412378 0.57609 -1.79804e-22)
(0.0338559 0.671435 -6.78327e-21)
(0.00986309 0.79122 -1.12594e-21)
(0.00975857 0.925651 -6.05068e-21)
(0.0413456 0.0941885 4.71562e-22)
(0.0616682 0.1812 -8.6939e-21)
(0.0798353 0.277743 3.27664e-22)
(0.0803478 0.355501 -6.65974e-21)
(0.0690019 0.424443 0)
(0.0585758 0.495638 -4.02685e-21)
(0.0410729 0.577177 -1.9397e-22)
(0.0335415 0.673198 8.67282e-21)
(0.010033 0.793623 1.12173e-21)
(0.00942771 0.927824 -1.1257e-21)
(0.0498873 0.0847144 -2.32654e-20)
(0.0593051 0.165516 1.49856e-20)
(0.0780207 0.267272 6.50596e-21)
(0.0799772 0.350763 -6.5027e-21)
(0.0691231 0.422589 -3.49131e-21)
(0.058719 0.494829 0)
(0.0411901 0.576765 -7.94692e-21)
(0.03347 0.673278 3.94038e-21)
(0.0103316 0.794412 4.19435e-21)
(0.00911791 0.929087 4.25477e-21)
(0.0636459 0.0779675 -2.77881e-21)
(0.0599302 0.1504 0)
(0.0767302 0.254823 0)
(0.0798603 0.344608 0)
(0.0694985 0.420249 -3.59948e-21)
(0.0590107 0.494096 7.07974e-21)
(0.0413203 0.576826 7.77658e-21)
(0.0333605 0.674248 -1.18348e-20)
(0.0105628 0.796304 2.04261e-21)
(0.00884538 0.931109 -6.23676e-21)
(0.0810227 0.0739084 1.70943e-20)
(0.0643088 0.137019 1.22899e-20)
(0.0762623 0.240719 -1.21805e-20)
(0.0800398 0.335915 1.3076e-20)
(0.0701779 0.415283 -1.62253e-20)
(0.0597457 0.490736 0)
(0.0418951 0.574004 -3.57137e-21)
(0.033622 0.672047 1.51706e-22)
(0.0109949 0.795331 -3.76802e-21)
(0.00857536 0.931623 -3.836e-21)
(0.0994652 0.0716292 -1.4305e-20)
(0.0725248 0.125474 0)
(0.0767983 0.226333 -1.38537e-20)
(0.0804419 0.32785 2.49537e-20)
(0.0709287 0.412284 -9.2896e-21)
(0.0602509 0.490047 -1.65435e-21)
(0.0421111 0.574348 3.56389e-21)
(0.0335664 0.673386 3.41058e-23)
(0.0112052 0.797521 5.48976e-21)
(0.00835361 0.93383 5.60332e-21)
(0.11555 0.0698677 -1.16825e-20)
(0.0837573 0.114115 1.14403e-20)
(0.0792596 0.206877 1.50533e-21)
(0.0812442 0.311368 0)
(0.0722489 0.401009 0)
(0.0618704 0.481865 1.58648e-21)
(0.043367 0.567328 6.48119e-21)
(0.0342694 0.667568 -6.29341e-21)
(0.0118084 0.793995 -1.62233e-21)
(0.00810209 0.9334 1.57321e-21)
(0.131419 0.0783051 0)
(0.102883 0.116147 0)
(0.0880282 0.197734 0)
(0.0848781 0.307178 0)
(0.073538 0.404882 0)
(0.0614535 0.490031 0)
(0.0428112 0.576765 0)
(0.0335394 0.677773 0)
(0.0119457 0.803216 0)
(0.00771023 0.940327 0)
(0.133604 0.0999749 0)
(0.114268 0.145597 0)
(0.0953619 0.215467 0)
(0.0879133 0.317249 0)
(0.0759335 0.416681 0)
(0.0621052 0.502878 0)
(0.0423416 0.588322 0)
(0.0316596 0.68883 0)
(0.0112541 0.813836 0)
(0.00690802 0.947194 0)
(0.125015 0.108183 0)
(0.113129 0.163394 0)
(0.0955021 0.233211 0)
(0.0850426 0.331674 0)
(0.0728583 0.432914 0)
(0.0595885 0.521431 0)
(0.0412678 0.607227 0)
(0.0310718 0.706171 0)
(0.0118261 0.828472 0)
(0.0067038 0.957741 0)
(0.108979 0.112523 0)
(0.102419 0.174519 0)
(0.0896473 0.246941 0)
(0.080249 0.344145 0)
(0.0688377 0.445855 0)
(0.0556689 0.5343 0)
(0.0375071 0.618696 0)
(0.027138 0.717555 0)
(0.0100169 0.839883 0)
(0.00574096 0.965204 0)
(0.0889381 0.115174 0)
(0.0849951 0.181944 0)
(0.0758897 0.257463 0)
(0.0686797 0.355268 0)
(0.0602348 0.459715 0)
(0.0506454 0.551625 0)
(0.0357736 0.636423 0)
(0.0264205 0.732451 0)
(0.0101485 0.851765 0)
(0.00547499 0.973887 0)
(0.066847 0.116442 0)
(0.0651901 0.186029 0)
(0.0607452 0.264719 0)
(0.056709 0.362593 0)
(0.0501484 0.466944 0)
(0.0413935 0.559342 0)
(0.0280259 0.644821 0)
(0.0205241 0.742602 0)
(0.0075318 0.862255 0)
(0.00438266 0.980529 0)
(0.0448671 0.116775 0)
(0.0426363 0.186813 0)
(0.0403885 0.266787 0)
(0.0407289 0.366253 0)
(0.0404137 0.47481 0)
(0.0373638 0.572063 0)
(0.0270263 0.658236 0)
(0.0196261 0.752855 0)
(0.00698664 0.87009 0)
(0.00398294 0.98625 0)
(0.0260296 0.118012 0)
(0.0240277 0.190056 0)
(0.022552 0.269982 0)
(0.0231304 0.366258 0)
(0.024337 0.472598 0)
(0.0240743 0.571455 0)
(0.0179849 0.662056 0)
(0.0139445 0.761032 0)
(0.0045487 0.878781 0)
(0.00296361 0.991292 0)
(0.00861339 0.116088 0)
(0.0058409 0.186531 0)
(0.00677361 0.26584 0)
(0.0115718 0.364125 0)
(0.0182845 0.47531 0)
(0.0224174 0.578808 0)
(0.0176994 0.669734 0)
(0.01315 0.765885 0)
(0.00397595 0.882263 0)
(0.00269249 0.993718 0)
(-0.00465406 0.123987 0)
(-0.0115389 0.193556 0)
(-0.0145094 0.264937 0)
(-0.0108654 0.352978 0)
(-0.00159252 0.459001 0)
(0.00827402 0.568418 0)
(0.0101048 0.669694 0)
(0.00924778 0.772579 0)
(0.00248524 0.889397 0)
(0.00193121 0.997045 0)
(0.149165 0.059957 8.23576e-21)
(0.144489 0.0679668 -8.12963e-21)
(0.131667 0.0697283 5.29246e-22)
(0.112755 0.0703087 0)
(0.0905337 0.0703719 0)
(0.066634 0.0707347 -1.20596e-22)
(0.04374 0.0709437 8.52153e-22)
(0.0244053 0.0717096 -8.38866e-22)
(0.00852923 0.0709329 -1.21069e-22)
(-0.00256828 0.0768164 1.18942e-22)
(0.150086 0.0516625 -1.16486e-20)
(0.14086 0.0550039 0)
(0.126868 0.05385 2.39971e-21)
(0.108036 0.0526773 -3.90871e-21)
(0.0866747 0.0514158 1.05857e-21)
(0.0638887 0.0511228 1.18431e-22)
(0.0421995 0.051088 -3.94796e-22)
(0.0237123 0.051656 -7.88174e-22)
(0.00881021 0.051208 -6.53465e-23)
(-0.00167762 0.0559972 -1.05923e-23)
(0.149805 0.0424457 1.27649e-20)
(0.138262 0.0418772 -4.65632e-21)
(0.1237 0.0382858 4.61082e-21)
(0.104721 0.0354021 -8.70827e-22)
(0.0837713 0.032607 8.25886e-22)
(0.0616884 0.0313299 0)
(0.0409132 0.0307059 3.957e-22)
(0.0232011 0.0309469 1.6629e-23)
(0.00913795 0.0306886 3.2637e-22)
(-0.000855335 0.0343807 1.26153e-22)
(0.148157 0.0315457 -1.86898e-21)
(0.134808 0.0274814 0)
(0.120132 0.0218116 0)
(0.101352 0.0175147 0)
(0.0810686 0.0133708 -2.22593e-22)
(0.0597849 0.011196 2.33333e-22)
(0.0398552 0.00991219 1.79927e-23)
(0.0228251 0.00977082 3.96983e-22)
(0.00944474 0.00952807 1.06136e-22)
(-0.000108965 0.0121487 1.02101e-23)
(0.145312 0.0191947 -1.86111e-21)
(0.130784 0.0121073 -4.66956e-21)
(0.116287 0.00455357 -1.12819e-21)
(0.0978529 -0.000955993 1.12727e-21)
(0.0783395 -0.00630692 -1.17019e-23)
(0.0579531 -0.00924223 0)
(0.0388411 -0.0111649 3.67794e-22)
(0.022505 -0.0117096 -7.13333e-22)
(0.00970468 -0.0120934 3.30921e-22)
(0.00047397 -0.0104732 -1.17289e-22)
(0.141457 0.00568792 -1.29644e-20)
(0.126325 -0.00388525 2.48321e-21)
(0.112247 -0.0132097 8.45699e-22)
(0.0943133 -0.0197638 1.09407e-21)
(0.0755933 -0.0262306 0)
(0.0561358 -0.0298046 0)
(0.0378375 -0.0323431 0)
(0.0221903 -0.0333188 -3.34184e-22)
(0.00986338 -0.0339499 0)
(0.000890791 -0.0332377 0)
(0.13674 -0.00867096 0)
(0.121499 -0.0201402 3.04219e-21)
(0.108022 -0.031172 -1.8975e-21)
(0.090701 -0.0386017 -3.95816e-22)
(0.0728355 -0.0461216 3.97829e-22)
(0.0543035 -0.0502684 -2.40107e-22)
(0.0368486 -0.0534165 2.13734e-22)
(0.021841 -0.0548387 1.09641e-21)
(0.00988705 -0.0558036 -9.95322e-23)
(0.00119789 -0.0558374 5.48144e-23)
(0.131283 -0.0235824 0)
(0.11633 -0.0363148 -1.14439e-21)
(0.103629 -0.0490245 -3.78024e-22)
(0.0869949 -0.0571704 0)
(0.0700748 -0.0656998 -8.21e-23)
(0.052458 -0.0703785 9.71867e-23)
(0.0358122 -0.0741408 -4.21141e-22)
(0.0214026 -0.0760254 -1.67312e-22)
(0.00976184 -0.0773699 1.10015e-22)
(0.00136488 -0.0779512 -1.0022e-22)
(0.125127 -0.0387471 1.75608e-21)
(0.110877 -0.0521119 9.547e-22)
(0.0990793 -0.0664876 -3.90263e-22)
(0.0832053 -0.0751898 1.05973e-22)
(0.067269 -0.0846871 4.72818e-23)
(0.0505685 -0.0898796 -8.21588e-23)
(0.0346848 -0.0942597 5.07307e-23)
(0.0208405 -0.0966176 5.99497e-23)
(0.00948957 -0.0983371 -1.10374e-22)
(0.00141002 -0.0992579 -2.0207e-23)
(0.118381 -0.0538587 -3.41001e-22)
(0.1052 -0.0673079 3.44152e-22)
(0.0943688 -0.0833056 -1.95404e-22)
(0.0793338 -0.0924266 -1.05808e-22)
(0.0643918 -0.102834 1.30111e-23)
(0.0486087 -0.10854 6.85002e-24)
(0.0334424 -0.113522 -7.58284e-23)
(0.0201436 -0.116349 -3.47013e-23)
(0.00908662 -0.11839 0)
(0.00136406 -0.119461 2.0244e-23)
(0.111329 -0.0686623 3.51322e-22)
(0.0994006 -0.081742 -3.5428e-22)
(0.0895708 -0.0992771 -2.17917e-22)
(0.075439 -0.10871 -1.30028e-22)
(0.0614506 -0.119934 -2.57608e-23)
(0.0465771 -0.126165 2.06588e-23)
(0.0320797 -0.131696 -7.93291e-24)
(0.0193209 -0.134972 -6.11822e-23)
(0.00858075 -0.137243 0)
(0.00125719 -0.138317 1.44955e-23)
(0.104274 -0.0829902 0)
(0.0936598 -0.0953152 -1.07782e-21)
(0.0847991 -0.114242 1.76961e-21)
(0.0716101 -0.123927 1.30215e-22)
(0.0584776 -0.13582 1.48621e-22)
(0.0444931 -0.142602 4.34294e-23)
(0.0306122 -0.148588 2.7777e-23)
(0.0183976 -0.152278 4.11036e-23)
(0.00800608 -0.154669 -5.81517e-23)
(0.00111372 -0.155651 -1.44573e-23)
(0.0973926 -0.0967376 0)
(0.0880908 -0.108 -1.35473e-21)
(0.0801124 -0.128079 -4.66514e-22)
(0.0678994 -0.138027 0)
(0.0555049 -0.150376 -3.63924e-22)
(0.042383 -0.157755 1.78473e-22)
(0.0290733 -0.16406 2.23341e-23)
(0.0174099 -0.168129 -1.20854e-22)
(0.00740005 -0.170527 5.79619e-23)
(0.000954543 -0.171378 -3.4202e-23)
(0.0907762 -0.109835 0)
(0.0827498 -0.119856 1.36588e-21)
(0.0755313 -0.140714 0)
(0.06433 -0.151028 1.06113e-21)
(0.0525641 -0.163552 -1.06667e-21)
(0.040274 -0.171588 -8.62982e-23)
(0.0275064 -0.178047 1.00002e-22)
(0.0163964 -0.182464 9.49897e-23)
(0.00679804 -0.184765 2.21693e-23)
(0.000796578 -0.185493 4.68765e-23)
(0.0844999 -0.122235 1.53695e-20)
(0.0776989 -0.131027 -5.74966e-21)
(0.0710878 -0.152121 -7.38113e-22)
(0.0609257 -0.163008 -1.85605e-21)
(0.0496973 -0.175362 0)
(0.0381957 -0.184126 -1.39947e-22)
(0.0259575 -0.190559 1.226e-22)
(0.015392 -0.195306 -2.71569e-23)
(0.00622754 -0.197425 -8.18462e-24)
(0.000649413 -0.198068 8.16657e-24)
(0.0786142 -0.133877 1.75784e-21)
(0.0730186 -0.141734 8.75735e-21)
(0.0668473 -0.162322 2.01027e-21)
(0.0577203 -0.174083 -2.00917e-21)
(0.0469625 -0.185889 -5.49313e-22)
(0.036181 -0.195448 0)
(0.0244713 -0.201682 -1.94966e-22)
(0.014425 -0.206747 9.81025e-23)
(0.00570733 -0.208621 -4.44798e-24)
(0.000516794 -0.209237 -2.1692e-24)
(0.0732196 -0.144654 -2.22551e-21)
(0.0688646 -0.152251 0)
(0.0629461 -0.171392 0)
(0.0547742 -0.184388 0)
(0.0444379 -0.195271 -3.68212e-22)
(0.0342689 -0.20567 9.16748e-22)
(0.0230884 -0.211557 2.3737e-22)
(0.0135174 -0.216935 -2.04863e-22)
(0.00524991 -0.218525 1.31001e-24)
(0.0003984 -0.219175 8.43371e-25)
(0.0683096 -0.154379 -5.41636e-21)
(0.0652615 -0.162848 6.34668e-21)
(0.0594215 -0.17945 -6.28738e-21)
(0.0520606 -0.194041 3.27359e-21)
(0.0421491 -0.203691 -3.93007e-21)
(0.032468 -0.214933 0)
(0.0218287 -0.220365 -2.27185e-22)
(0.0126811 -0.226048 -3.59564e-23)
(0.00486149 -0.227337 -3.79869e-23)
(0.000289691 -0.228087 -1.54328e-23)
(0.0628994 -0.162668 -2.45187e-21)
(0.0613444 -0.173733 0)
(0.0557565 -0.186696 -5.90682e-21)
(0.0491603 -0.203162 8.68264e-21)
(0.0398731 -0.211373 -2.87151e-21)
(0.0306508 -0.223402 -2.40133e-22)
(0.0206405 -0.228308 2.26669e-22)
(0.0118978 -0.234278 1.82598e-23)
(0.00453274 -0.23527 1.04982e-22)
(0.000185528 -0.236188 3.20619e-23)
(0.0574057 -0.168692 -9.97468e-21)
(0.0570761 -0.185072 9.72284e-21)
(0.0522054 -0.193511 8.05127e-22)
(0.0461547 -0.211935 0)
(0.0376356 -0.21863 0)
(0.0288279 -0.231308 2.48015e-22)
(0.0194972 -0.235629 4.64335e-22)
(0.0111477 -0.241829 -4.55279e-22)
(0.00423898 -0.24253 -2.49683e-23)
(0.00010331 -0.243695 2.43785e-23)
(0.0625365 -0.175876 0)
(0.0581126 -0.211784 0)
(0.0525846 -0.209313 0)
(0.0448279 -0.232176 0)
(0.0359466 -0.235623 0)
(0.0264781 -0.249571 0)
(0.0176152 -0.252399 0)
(0.00965897 -0.258927 0)
(0.00366142 -0.258808 0)
(8.69226e-05 -0.260566 0)
(0.0459569 -0.222604 0)
(0.0394992 -0.255355 0)
(0.0370826 -0.248783 0)
(0.0304886 -0.269088 0)
(0.0252486 -0.268713 0)
(0.0183318 -0.281137 0)
(0.0125479 -0.281125 0)
(0.00686784 -0.286966 0)
(0.00281528 -0.285321 0)
(0.000160349 -0.287466 0)
(0.0416154 -0.267686 0)
(0.0337618 -0.299073 0)
(0.0305376 -0.288984 0)
(0.0238439 -0.30849 0)
(0.0194882 -0.304698 0)
(0.0136583 -0.31649 0)
(0.00947534 -0.313955 0)
(0.0051347 -0.319608 0)
(0.00230326 -0.316569 0)
(0.000149968 -0.319214 0)
(0.0355829 -0.318113 0)
(0.0276167 -0.348835 0)
(0.0247817 -0.335435 0)
(0.0185601 -0.35479 0)
(0.0152777 -0.347869 0)
(0.010395 -0.359725 0)
(0.00749119 -0.354919 0)
(0.00405491 -0.360893 0)
(0.00204273 -0.356483 0)
(0.000132497 -0.359855 0)
(0.0303292 -0.377646 0)
(0.022953 -0.407949 0)
(0.0201871 -0.392265 0)
(0.0146531 -0.411836 0)
(0.0121742 -0.402527 0)
(0.0080786 -0.414919 0)
(0.00608711 -0.40827 0)
(0.00324075 -0.414952 0)
(0.00181198 -0.409325 0)
(8.24489e-05 -0.413686 0)
(0.0256132 -0.449006 0)
(0.0188539 -0.477392 0)
(0.0163591 -0.4619 0)
(0.0115225 -0.480986 0)
(0.00968426 -0.470943 0)
(0.00618777 -0.483537 0)
(0.00480748 -0.47603 0)
(0.00234669 -0.483327 0)
(0.00139971 -0.477073 0)
(-5.28178e-05 -0.482374 0)
(0.020081 -0.528566 0)
(0.0147895 -0.552139 0)
(0.0126495 -0.540466 0)
(0.00877037 -0.557018 0)
(0.00726833 -0.548678 0)
(0.00438003 -0.559962 0)
(0.00330314 -0.553224 0)
(0.00124026 -0.560132 0)
(0.000713416 -0.554379 0)
(-0.000230365 -0.559872 0)
(0.0154678 -0.603864 0)
(0.011088 -0.620851 0)
(0.00918278 -0.614969 0)
(0.00599825 -0.626719 0)
(0.00485494 -0.621927 0)
(0.00253303 -0.630012 0)
(0.00175156 -0.625504 0)
(0.000131842 -0.630475 0)
(4.06663e-05 -0.62636 0)
(-0.000349852 -0.630611 0)
(0.00927907 -0.659816 0)
(0.00631471 -0.66887 0)
(0.00526258 -0.669189 0)
(0.00332956 -0.67593 0)
(0.00269621 -0.675199 0)
(0.00118359 -0.679336 0)
(0.000691037 -0.677472 0)
(-0.000344075 -0.679694 0)
(-0.00023085 -0.677597 0)
(-0.000294693 -0.679671 0)
(0.00236692 -0.687215 0)
(0.00162555 -0.694523 0)
(0.00149337 -0.697437 0)
(0.00105422 -0.701594 0)
(0.000854475 -0.702402 0)
(0.000381189 -0.704518 0)
(0.000171129 -0.703878 0)
(-0.000157247 -0.704711 0)
(-0.000120101 -0.703669 0)
(-9.89241e-05 -0.704541 0)
(0.0560184 -0.189289 1.2305e-20)
(0.0450776 -0.236536 -1.20757e-20)
(0.0427001 -0.2829 1.53654e-21)
(0.0370182 -0.33491 0)
(0.0324629 -0.394966 0)
(0.0277464 -0.464834 1.66437e-21)
(0.022458 -0.540119 -7.01236e-21)
(0.01701 -0.608247 6.94727e-21)
(0.0106176 -0.659665 1.85417e-21)
(0.00337444 -0.683395 -1.82802e-21)
(0.0541654 -0.195843 -1.4693e-20)
(0.0453047 -0.242193 0)
(0.0432924 -0.288199 1.01868e-20)
(0.0377536 -0.340236 -2.3236e-20)
(0.0334552 -0.400161 1.46948e-20)
(0.0287236 -0.469334 -1.50791e-21)
(0.023505 -0.542982 3.29494e-21)
(0.0177144 -0.609383 6.85265e-21)
(0.0112083 -0.658575 1.87947e-21)
(0.00379781 -0.682121 1.85899e-21)
(0.0529478 -0.202818 1.73395e-20)
(0.0461976 -0.248741 -1.15607e-20)
(0.0442727 -0.293893 1.1451e-20)
(0.0388508 -0.345332 -1.21776e-20)
(0.034722 -0.404733 9.0494e-21)
(0.0299083 -0.472938 0)
(0.0245896 -0.544865 -3.30313e-21)
(0.0184827 -0.609801 1.60331e-22)
(0.0117075 -0.656846 -3.54865e-21)
(0.00403278 -0.680674 -3.64202e-21)
(0.0523527 -0.208703 -2.80835e-21)
(0.0475612 -0.254707 0)
(0.0456274 -0.299306 0)
(0.0403396 -0.350209 0)
(0.0362898 -0.409105 9.83923e-21)
(0.0313317 -0.476324 -6.55465e-21)
(0.0257887 -0.546593 -1.82162e-23)
(0.0193462 -0.609841 -3.82423e-21)
(0.0121747 -0.655106 -1.94658e-21)
(0.00414988 -0.678631 -2.06502e-21)
(0.0525091 -0.213802 -8.8742e-24)
(0.0493138 -0.259583 -8.506e-21)
(0.0472896 -0.303764 -6.11659e-21)
(0.0421578 -0.354357 6.11282e-21)
(0.0381122 -0.412909 -3.24084e-21)
(0.0329701 -0.479285 0)
(0.027152 -0.548087 -3.64189e-21)
(0.020336 -0.6096 7.82823e-21)
(0.0127044 -0.653382 -3.99473e-21)
(0.00426106 -0.676127 4.05914e-21)
(0.0534944 -0.218388 -2.30592e-20)
(0.0514944 -0.26352 2.69606e-21)
(0.0492733 -0.307146 -2.63725e-22)
(0.0442731 -0.357489 6.28013e-21)
(0.0401537 -0.415778 0)
(0.0347956 -0.481446 0)
(0.0286843 -0.549006 0)
(0.0214642 -0.608969 4.1866e-21)
(0.013349 -0.6515 0)
(0.00442767 -0.673378 0)
(0.0553116 -0.222323 0)
(0.0541409 -0.266598 9.13844e-21)
(0.051636 -0.309534 -6.13834e-21)
(0.0467015 -0.359579 -6.84023e-21)
(0.0424217 -0.417593 6.87589e-21)
(0.0368083 -0.482623 3.90161e-21)
(0.0303797 -0.549136 -3.89582e-21)
(0.0227275 -0.607823 -1.49506e-20)
(0.0141119 -0.649325 1.06638e-21)
(0.00465832 -0.670494 -3.57816e-21)
(0.0579482 -0.225368 0)
(0.0572585 -0.268726 -3.00682e-21)
(0.0544206 -0.310932 -1.63844e-21)
(0.049469 -0.360658 0)
(0.0449451 -0.418368 1.91832e-21)
(0.0390313 -0.482808 -5.82894e-21)
(0.0322459 -0.54843 6.30039e-21)
(0.0241269 -0.606099 2.21054e-21)
(0.0149812 -0.646794 -2.40247e-21)
(0.00494235 -0.667472 4.75249e-21)
(0.0614014 -0.227357 2.91738e-21)
(0.0608439 -0.269795 3.20647e-21)
(0.0576465 -0.311269 -7.5682e-22)
(0.0525882 -0.360709 9.03989e-22)
(0.0477503 -0.418116 1.87087e-21)
(0.0414906 -0.482046 3.05529e-21)
(0.0342977 -0.546938 -1.12336e-21)
(0.0256651 -0.60382 -1.19664e-21)
(0.0159423 -0.643916 2.41041e-21)
(0.00526683 -0.664278 1.29756e-21)
(0.0656715 -0.22817 -7.73969e-22)
(0.0648992 -0.269756 7.8009e-22)
(0.0613247 -0.310473 -8.42391e-22)
(0.0560616 -0.359699 -9.0288e-22)
(0.0508534 -0.416819 1.02436e-21)
(0.0442042 -0.480351 -2.07971e-21)
(0.0365563 -0.54468 1.71377e-21)
(0.0273584 -0.600993 6.02801e-22)
(0.0170005 -0.640691 0)
(0.00563215 -0.660875 -1.30043e-21)
(0.070755 -0.2277 7.94108e-22)
(0.0694277 -0.268624 -8.00756e-22)
(0.0654645 -0.308501 -9.01277e-22)
(0.0598881 -0.357613 -9.70188e-22)
(0.0542676 -0.414454 -1.06531e-21)
(0.0471823 -0.477746 -5.76161e-23)
(0.0390295 -0.541705 6.04933e-22)
(0.0292071 -0.597673 1.92106e-21)
(0.0181497 -0.637155 0)
(0.00603361 -0.657261 -1.41122e-21)
(0.0766422 -0.225906 0)
(0.0744246 -0.26644 -3.51816e-21)
(0.0700761 -0.305354 6.31803e-21)
(0.0640658 -0.354468 9.71888e-22)
(0.0580007 -0.411023 2.18137e-21)
(0.0504308 -0.474205 3.48793e-21)
(0.0417399 -0.537959 -1.21921e-21)
(0.0312376 -0.593809 -1.29975e-21)
(0.0194145 -0.633271 2.8426e-21)
(0.00648394 -0.653415 1.4079e-21)
(0.0833175 -0.222857 0)
(0.079882 -0.263232 -3.54336e-21)
(0.0751615 -0.301123 -1.87606e-21)
(0.0685898 -0.350289 0)
(0.0620709 -0.406557 -6.79623e-21)
(0.0539544 -0.469778 2.28645e-21)
(0.0446749 -0.533539 2.61277e-21)
(0.0334256 -0.589497 8.30225e-21)
(0.0207681 -0.629092 -2.83339e-21)
(0.00696615 -0.649351 6.07516e-21)
(0.0907634 -0.218694 0)
(0.085789 -0.258998 3.57377e-21)
(0.0807198 -0.295884 0)
(0.0734684 -0.345108 8.86325e-21)
(0.0664735 -0.401137 -8.90868e-21)
(0.0577637 -0.464375 -5.16689e-21)
(0.0478735 -0.5283 -7.54735e-23)
(0.035827 -0.584576 -8.51836e-21)
(0.0222661 -0.624506 -1.42061e-21)
(0.00750936 -0.644991 -7.55658e-21)
(0.0989586 -0.213603 2.76672e-20)
(0.0921424 -0.253729 -1.04767e-20)
(0.0867108 -0.289969 6.58305e-22)
(0.0786885 -0.338885 -8.54958e-21)
(0.0712441 -0.39482 0)
(0.0618652 -0.458136 -5.37122e-21)
(0.0512752 -0.522495 -3.54532e-22)
(0.0383673 -0.579286 1.15631e-20)
(0.023838 -0.619669 1.56424e-21)
(0.00807198 -0.640445 -1.57006e-21)
(0.107868 -0.207765 -1.47626e-21)
(0.098901 -0.247423 1.89054e-20)
(0.0931692 -0.28319 8.87476e-21)
(0.0843412 -0.331445 -8.86879e-21)
(0.0763618 -0.387394 -5.07027e-21)
(0.0663126 -0.450827 0)
(0.0549895 -0.515703 -1.18303e-20)
(0.041187 -0.573234 5.9312e-21)
(0.0256049 -0.614343 6.2539e-21)
(0.00871722 -0.635561 6.65691e-21)
(0.117415 -0.201615 -3.80062e-21)
(0.106122 -0.239986 0)
(0.100025 -0.275639 0)
(0.090347 -0.3235 0)
(0.0817442 -0.379547 -5.68011e-21)
(0.0709683 -0.44334 1.07322e-20)
(0.0588189 -0.508891 1.20313e-20)
(0.0440436 -0.567199 -1.87829e-20)
(0.0273593 -0.608962 3.32421e-21)
(0.00932769 -0.630585 -9.88689e-21)
(0.127525 -0.194909 -6.62875e-21)
(0.113935 -0.231143 1.77407e-20)
(0.107202 -0.267062 -1.75715e-20)
(0.0967982 -0.314315 2.07577e-20)
(0.0875803 -0.370138 -2.60102e-20)
(0.0761271 -0.434096 0)
(0.063174 -0.500384 -6.27488e-21)
(0.0473902 -0.559881 -2.33437e-22)
(0.0294701 -0.602814 -6.88595e-21)
(0.0101014 -0.625077 -6.99404e-21)
(0.13779 -0.188614 -4.05375e-21)
(0.122042 -0.222881 0)
(0.114353 -0.259429 -2.24493e-20)
(0.103274 -0.306343 4.13244e-20)
(0.0933508 -0.362329 -1.57871e-20)
(0.0811197 -0.426699 -3.02073e-21)
(0.0672536 -0.493611 6.26155e-21)
(0.0504114 -0.553732 -2.75387e-22)
(0.0313062 -0.597155 1.00752e-20)
(0.0106905 -0.619737 1.035e-20)
(0.148784 -0.179376 -1.75874e-20)
(0.131863 -0.21089 1.71928e-20)
(0.122778 -0.247654 2.4217e-21)
(0.111062 -0.293726 0)
(0.100402 -0.349439 0)
(0.0874541 -0.414183 2.92463e-21)
(0.0726738 -0.482485 1.29704e-20)
(0.0546349 -0.544661 -1.2653e-20)
(0.0340092 -0.589946 -3.40655e-21)
(0.0117079 -0.613363 3.34696e-21)
(0.159867 -0.181136 0)
(0.152544 -0.206411 0)
(0.13886 -0.244859 0)
(0.125525 -0.289868 0)
(0.113291 -0.344487 0)
(0.0985023 -0.407339 0)
(0.0816038 -0.473309 0)
(0.0611738 -0.533145 0)
(0.0379018 -0.576956 0)
(0.0126089 -0.600172 0)
(0.182606 -0.163578 0)
(0.188275 -0.193435 0)
(0.166557 -0.235585 0)
(0.153776 -0.279632 0)
(0.138784 -0.333593 0)
(0.120855 -0.394022 0)
(0.100205 -0.456096 0)
(0.0752845 -0.511209 0)
(0.0470021 -0.550452 0)
(0.0165729 -0.569801 0)
(0.215021 -0.145772 0)
(0.226125 -0.176335 0)
(0.19624 -0.218087 0)
(0.186061 -0.260306 0)
(0.166655 -0.313262 0)
(0.145088 -0.370291 0)
(0.119767 -0.428357 0)
(0.089503 -0.479964 0)
(0.0552592 -0.517623 0)
(0.0180554 -0.538189 0)
(0.256641 -0.133375 0)
(0.269354 -0.162519 0)
(0.232939 -0.203142 0)
(0.226376 -0.244174 0)
(0.20039 -0.295755 0)
(0.175292 -0.348011 0)
(0.144286 -0.401211 0)
(0.107738 -0.447058 0)
(0.0670038 -0.478988 0)
(0.0238397 -0.493779 0)
(0.306803 -0.117636 0)
(0.31788 -0.14455 0)
(0.276587 -0.18237 0)
(0.271383 -0.220264 0)
(0.235361 -0.266915 0)
(0.206427 -0.312203 0)
(0.167487 -0.360049 0)
(0.123896 -0.401046 0)
(0.0755984 -0.431726 0)
(0.0237334 -0.450142 0)
(0.368391 -0.107989 0)
(0.375557 -0.132175 0)
(0.330877 -0.166956 0)
(0.323458 -0.200221 0)
(0.276584 -0.241208 0)
(0.245427 -0.280296 0)
(0.196975 -0.322864 0)
(0.145829 -0.356467 0)
(0.089919 -0.38027 0)
(0.0332647 -0.38893 0)
(0.435104 -0.0871813 0)
(0.433924 -0.106749 0)
(0.386532 -0.135842 0)
(0.372114 -0.162076 0)
(0.315152 -0.195846 0)
(0.280501 -0.227233 0)
(0.217113 -0.261467 0)
(0.158784 -0.288114 0)
(0.0933518 -0.313522 0)
(0.0252138 -0.334333 0)
(0.508857 -0.0745177 0)
(0.497379 -0.0892234 0)
(0.451161 -0.112742 0)
(0.426398 -0.132279 0)
(0.365487 -0.159545 0)
(0.323484 -0.1829 0)
(0.2483 -0.210032 0)
(0.186186 -0.232569 0)
(0.112561 -0.254868 0)
(0.0497708 -0.255127 0)
(0.563225 -0.0399126 0)
(0.542612 -0.0473945 0)
(0.489914 -0.0616819 0)
(0.453568 -0.0717031 0)
(0.384573 -0.0881193 0)
(0.330187 -0.0994518 0)
(0.241709 -0.11569 0)
(0.170187 -0.128509 0)
(0.078732 -0.152229 0)
(-0.0124746 -0.198625 0)
(0.759455 -0.0199563 0)
(0.733898 -0.0237193 0)
(0.688308 -0.0294544 0)
(0.646656 -0.0345824 0)
(0.584051 -0.0422506 0)
(0.523385 -0.0494021 0)
(0.438688 -0.0605541 0)
(0.352298 -0.0744084 0)
(0.236705 -0.102673 0)
(0.162421 -0.157921 0)
(0.190254 -0.159139 1.8817e-20)
(0.216476 -0.139231 -1.85274e-20)
(0.249791 -0.122711 2.77205e-21)
(0.290504 -0.111474 0)
(0.339703 -0.0978405 0)
(0.398461 -0.0894743 3.72142e-21)
(0.462888 -0.0715354 -1.70595e-20)
(0.53211 -0.0616606 1.68958e-20)
(0.590034 -0.0318824 4.73263e-21)
(0.780319 -0.0169374 -4.75731e-21)
(0.198851 -0.14986 -1.90313e-20)
(0.224379 -0.12919 0)
(0.257595 -0.11354 1.90473e-20)
(0.298381 -0.102827 -4.50863e-20)
(0.34772 -0.0900166 2.96664e-20)
(0.406289 -0.0821598 -3.41145e-21)
(0.47056 -0.0653034 7.32307e-21)
(0.539058 -0.0565177 1.60183e-20)
(0.599269 -0.0286669 4.38326e-21)
(0.787892 -0.0156588 4.26865e-21)
(0.20637 -0.139288 2.22184e-20)
(0.230561 -0.118692 -1.91391e-20)
(0.262995 -0.104242 1.89586e-20)
(0.303479 -0.0941534 -2.36277e-20)
(0.352785 -0.0822521 1.72719e-20)
(0.411354 -0.0750114 0)
(0.475681 -0.0593291 -7.34106e-21)
(0.544095 -0.0517497 -7.06016e-23)
(0.606826 -0.0257892 -8.29983e-21)
(0.794444 -0.014456 -8.56595e-21)
(0.214386 -0.127935 -3.76125e-21)
(0.237988 -0.107915 0)
(0.269643 -0.0947793 0)
(0.309638 -0.0853873 0)
(0.358692 -0.0744896 1.89602e-20)
(0.417023 -0.067981 -1.28163e-20)
(0.481219 -0.0535693 -3.44038e-22)
(0.549374 -0.0472695 -8.16997e-21)
(0.614043 -0.0232002 -4.18386e-21)
(0.800678 -0.0133422 -4.24083e-21)
(0.221878 -0.116155 2.33364e-21)
(0.245314 -0.0970843 -1.16867e-20)
(0.276304 -0.0852658 -1.03342e-20)
(0.316089 -0.076623 1.0328e-20)
(0.365009 -0.0667791 -6.05923e-21)
(0.423163 -0.061083 0)
(0.487214 -0.0479846 -7.27442e-21)
(0.555019 -0.0429687 1.5864e-20)
(0.621171 -0.0207959 -7.99436e-21)
(0.806697 -0.012298 8.50638e-21)
(0.228521 -0.104017 -2.89323e-20)
(0.251704 -0.0862431 2.43959e-21)
(0.281902 -0.0757541 -1.11828e-21)
(0.321658 -0.0679615 1.02013e-20)
(0.37058 -0.0592029 0)
(0.428753 -0.0543784 0)
(0.492796 -0.0425923 0)
(0.560396 -0.0388194 7.6987e-21)
(0.627907 -0.0185229 0)
(0.81233 -0.0113063 0)
(0.234325 -0.0915451 0)
(0.257027 -0.0753489 1.30839e-20)
(0.2864 -0.0662167 -8.95198e-21)
(0.326066 -0.0594131 -1.12169e-20)
(0.374971 -0.0517765 1.12754e-20)
(0.433246 -0.0478869 6.79322e-21)
(0.497401 -0.0374062 -6.53036e-21)
(0.564999 -0.0348357 -2.67018e-20)
(0.63389 -0.0163726 1.89811e-21)
(0.817378 -0.0103633 -6.23441e-21)
(0.239212 -0.0787598 0)
(0.261257 -0.0643808 -4.1438e-21)
(0.289947 -0.0566363 -2.34995e-21)
(0.329409 -0.050928 0)
(0.378214 -0.0444595 3.22444e-21)
(0.436618 -0.0415791 -9.43649e-21)
(0.500864 -0.0324038 1.0732e-20)
(0.568692 -0.031011 3.98418e-21)
(0.638942 -0.0143434 -3.98404e-21)
(0.821757 -0.00946791 8.3397e-21)
(0.243037 -0.0656725 3.14792e-21)
(0.264361 -0.0533274 4.37105e-21)
(0.292496 -0.0470135 -8.98045e-22)