/*--------------------------------*- C++ -*----------------------------------*\
  =========                 |
  \\      /  F ield         | OpenFOAM: The Open Source CFD Toolbox
   \\    /   O peration     | Website:  https://openfoam.org
    \\  /    A nd           | Version:  7
     \\/     M anipulation  |
\*---------------------------------------------------------------------------*/
FoamFile
{
    version     2.0;
    format      ascii;
    class       volScalarField;
    location    "9.6";
    object      p;
}
// * * * * * * * * * * * * * * * * * * * * * * * * * * * * * * * * * * * * * //

dimensions      [0 2 -2 0 0 0 0];

internalField   nonuniform List<scalar> 
2000
(
0.116782
0.120846
0.123804
0.127087
0.13048
0.133881
0.137237
0.140498
0.143625
0.146626
0.11557
0.11988
0.122946
0.126267
0.129621
0.132915
0.13611
0.139161
0.142019
0.144792
0.114372
0.118961
0.122173
0.125568
0.128916
0.132129
0.135184
0.138043
0.140639
0.143155
0.113211
0.118102
0.121486
0.124987
0.128359
0.131522
0.134463
0.137151
0.139499
0.141728
0.112055
0.117276
0.120864
0.124504
0.127935
0.131079
0.133936
0.136484
0.138614
0.140526
0.110859
0.116453
0.120279
0.124092
0.127614
0.130774
0.133583
0.136034
0.137993
0.139577
0.109572
0.115602
0.119698
0.123716
0.127361
0.130569
0.133367
0.135769
0.137637
0.138915
0.10814
0.114689
0.119088
0.123337
0.127128
0.13041
0.133229
0.135641
0.137548
0.138636
0.106513
0.11368
0.11841
0.122907
0.126854
0.130222
0.133088
0.135593
0.137816
0.139092
0.104653
0.112549
0.117627
0.122373
0.12646
0.129882
0.132755
0.135337
0.138001
0.139982
0.153308
0.162141
0.167914
0.172982
0.176588
0.179509
0.181726
0.183445
0.18467
0.185467
0.151678
0.159665
0.165386
0.170311
0.173897
0.176803
0.179009
0.180698
0.181879
0.182634
0.150097
0.157297
0.162899
0.167662
0.171213
0.174099
0.176295
0.177958
0.179106
0.17983
0.148548
0.155058
0.160468
0.165053
0.168554
0.171414
0.173598
0.175241
0.17636
0.177057
0.147004
0.152958
0.158103
0.162498
0.165934
0.168759
0.170928
0.172553
0.173645
0.17432
0.145436
0.150999
0.155816
0.16001
0.163365
0.166145
0.168296
0.1699
0.170966
0.171619
0.143822
0.149163
0.153611
0.157596
0.160856
0.163582
0.165706
0.167287
0.168325
0.168952
0.142049
0.147335
0.151439
0.155229
0.158392
0.16106
0.163156
0.164711
0.165723
0.166316
0.140035
0.14532
0.149178
0.152833
0.155932
0.158559
0.160633
0.162167
0.163154
0.163709
0.139493
0.143875
0.147291
0.150736
0.15372
0.156254
0.158257
0.159723
0.16065
0.161142
0.149675
0.146838
0.14714
0.148716
0.150462
0.152128
0.153497
0.154446
0.154975
0.155205
0.137811
0.137832
0.138882
0.140543
0.142062
0.143377
0.144419
0.145124
0.145504
0.145659
0.122619
0.12568
0.128162
0.130603
0.132489
0.13388
0.134868
0.135494
0.135822
0.135953
0.105815
0.111448
0.115594
0.119163
0.1218
0.1236
0.124768
0.125458
0.125804
0.125935
0.0876108
0.0951559
0.101007
0.105892
0.109535
0.111996
0.113524
0.114372
0.11477
0.114919
0.0685467
0.0772537
0.0844808
0.0905935
0.0953186
0.0986387
0.100771
0.102005
0.102624
0.102855
0.0499259
0.0588114
0.0667989
0.0736894
0.0791406
0.0830408
0.0855462
0.0869619
0.0876435
0.0879203
0.0309671
0.0395606
0.0475606
0.0547467
0.0607116
0.0652438
0.0683674
0.0702825
0.0712917
0.0716637
0.0152861
0.0220113
0.0289213
0.0349155
0.0397667
0.0433601
0.0457436
0.0471229
0.0478063
0.0481367
-0.00580847
0.0016773
0.0075754
0.01259
0.0167979
0.0201204
0.0224699
0.0239117
0.024628
0.0248051
0.136285
0.12607
0.112804
0.0967096
0.0794629
0.0611465
0.0441617
0.0249088
0.0141082
-0.0131029
0.135543
0.123403
0.10966
0.0929826
0.0755785
0.0573822
0.0410057
0.0219597
0.0131423
-0.0159123
0.134452
0.120096
0.105841
0.088815
0.0714385
0.0535387
0.0377621
0.0191654
0.0118553
-0.0182942
0.132153
0.116308
0.101765
0.08465
0.0674578
0.0499632
0.0347723
0.0167003
0.0105798
-0.0204503
0.129038
0.112365
0.097619
0.0805613
0.0636374
0.0466153
0.0319948
0.0145221
0.00931815
-0.0225838
0.12531
0.108393
0.0934833
0.0765897
0.0599962
0.0434959
0.0294292
0.0126415
0.00805062
-0.0249832
0.121147
0.104464
0.0894426
0.072794
0.0565777
0.0406328
0.0271067
0.0111023
0.00689382
-0.0271076
0.116807
0.100654
0.085584
0.0692322
0.0534205
0.0380468
0.0250507
0.0099266
0.00613383
-0.0256102
0.112581
0.0970424
0.081985
0.065954
0.0505541
0.03575
0.0232697
0.00907852
0.00562813
-0.0206533
0.108745
0.0937131
0.0787096
0.0630001
0.0480002
0.0337479
0.0217634
0.0084943
0.00485835
-0.0157968
0.10552
0.0907541
0.0758084
0.0604011
0.0457733
0.0320408
0.0205279
0.00818666
0.00428157
-0.0120633
0.103054
0.0882504
0.0733191
0.058177
0.0438801
0.0306227
0.0195504
0.00806937
0.00394981
-0.00910343
0.101418
0.0862796
0.0712714
0.0563404
0.0423238
0.029486
0.0188044
0.00809968
0.00381031
-0.00668758
0.100608
0.0849038
0.069683
0.0548964
0.0411037
0.0286332
0.0182811
0.00824518
0.00381392
-0.00473065
0.100563
0.0841522
0.0685504
0.0538436
0.0402149
0.0280424
0.0179733
0.00849582
0.003932
-0.00316548
0.101155
0.0839936
0.0678396
0.0531633
0.0396309
0.0276962
0.0178589
0.00883986
0.0041429
-0.00192307
0.102229
0.0843982
0.0675384
0.0527884
0.0393179
0.0275639
0.0179108
0.00926211
0.00442822
-0.000939438
0.103784
0.085596
0.0677691
0.0527872
0.0392871
0.0276395
0.0181171
0.00975667
0.00477835
-0.000155678
0.105939
0.087886
0.0689209
0.0534369
0.0397366
0.0280516
0.0185446
0.010361
0.00519761
0.000479208
0.10664
0.0900488
0.0705785
0.0546762
0.0407737
0.0289377
0.0192718
0.0111176
0.00566553
0.000977306
0.101621
0.0915328
0.0732941
0.0576065
0.0438284
0.0317806
0.0215689
0.0131799
0.00682566
0.00182789
0.0963129
0.0836067
0.0672502
0.053206
0.0411441
0.0307457
0.0218064
0.0142175
0.00790279
0.00245466
0.0941893
0.0805473
0.0656332
0.0529009
0.0416438
0.0317782
0.0231168
0.0155533
0.0089175
0.00287449
0.0943918
0.0803938
0.0661533
0.0541223
0.0432265
0.0335213
0.0248059
0.0169905
0.00988627
0.00322588
0.0967072
0.0823634
0.0682136
0.0562592
0.045308
0.0354848
0.0265398
0.0183745
0.0107828
0.00353952
0.100555
0.0856645
0.071279
0.0590245
0.0477505
0.037605
0.0282953
0.0197079
0.0116198
0.00382779
0.105277
0.0896509
0.0748529
0.0620963
0.0503636
0.0397806
0.0300289
0.0209806
0.0124001
0.00409357
0.110137
0.0937205
0.0784516
0.0651103
0.0528783
0.0418238
0.0316207
0.0221258
0.0130928
0.00432865
0.114232
0.0971417
0.0814612
0.0675919
0.0549272
0.0434629
0.0328807
0.0230217
0.0136303
0.00451087
0.1166
0.0991097
0.0831971
0.0690092
0.0560947
0.044388
0.0335879
0.0235206
0.0139269
0.00460932
0.131104
0.124567
0.118129
0.114171
0.113437
0.115377
0.118978
0.123184
0.126901
0.129124
0.13616
0.129486
0.12307
0.119256
0.118641
0.120659
0.124304
0.128538
0.132279
0.134561
0.139206
0.131192
0.124749
0.121776
0.122094
0.124865
0.12903
0.133614
0.137576
0.140004
0.143155
0.133987
0.127274
0.12476
0.125712
0.129086
0.13373
0.138679
0.142892
0.145478
0.147079
0.137655
0.130852
0.128637
0.129963
0.133725
0.138707
0.143931
0.148341
0.151047
0.151383
0.141645
0.134879
0.132966
0.134606
0.138683
0.143936
0.149381
0.15394
0.156726
0.156001
0.145898
0.139191
0.137551
0.139473
0.143839
0.14934
0.154982
0.159666
0.162505
0.16069
0.150425
0.143808
0.142385
0.144537
0.149155
0.154883
0.160705
0.165499
0.16837
0.165457
0.155198
0.148715
0.147463
0.149792
0.154619
0.160547
0.166531
0.171424
0.174311
0.170296
0.16017
0.153859
0.152749
0.155211
0.160208
0.16631
0.172442
0.177425
0.180318
0.175146
0.165284
0.159183
0.158194
0.160756
0.165889
0.172145
0.178413
0.183484
0.186375
0.179927
0.170464
0.164618
0.16374
0.166378
0.171622
0.178018
0.184416
0.189576
0.192465
0.184564
0.175627
0.170091
0.169329
0.172031
0.177366
0.183891
0.19042
0.195675
0.198569
0.188975
0.180683
0.175521
0.174893
0.177661
0.183078
0.189729
0.196392
0.201754
0.204665
0.193088
0.185546
0.180827
0.180361
0.18321
0.188709
0.195492
0.202298
0.20778
0.210726
0.196849
0.190141
0.185931
0.185666
0.18862
0.194215
0.201138
0.208102
0.213723
0.216725
0.200216
0.194398
0.190751
0.19073
0.193828
0.199544
0.206629
0.213769
0.219546
0.222632
0.203137
0.198222
0.19515
0.195401
0.198695
0.204592
0.211891
0.219248
0.225213
0.228412
0.205615
0.201626
0.199069
0.199558
0.203071
0.209218
0.216818
0.22447
0.230675
0.234032
0.207906
0.205198
0.203357
0.204138
0.20779
0.214037
0.221782
0.229606
0.235975
0.239472
0.213023
0.215398
0.217576
0.220688
0.225112
0.230847
0.237383
0.243812
0.249004
0.251887
0.219545
0.223892
0.228542
0.234002
0.240291
0.247132
0.253968
0.260081
0.264705
0.26718
0.226595
0.231964
0.23804
0.244749
0.251934
0.259205
0.265972
0.271595
0.275558
0.277576
0.232806
0.239096
0.246144
0.253605
0.261172
0.268365
0.274584
0.27929
0.282228
0.283545
0.237518
0.244682
0.252427
0.260385
0.268142
0.275129
0.280711
0.284397
0.286118
0.28649
0.240869
0.248956
0.257266
0.265626
0.273549
0.280386
0.285429
0.288136
0.288472
0.28741
0.24335
0.252458
0.261243
0.270013
0.278179
0.285024
0.289722
0.29155
0.290243
0.286493
0.24589
0.255807
0.264942
0.274159
0.282632
0.289616
0.294113
0.295111
0.291656
0.281862
0.249427
0.259714
0.269195
0.278956
0.287788
0.294908
0.299148
0.299556
0.294938
0.275398
0.2569
0.267386
0.278188
0.289792
0.300879
0.310982
0.320093
0.327004
0.314444
0.228661
0.212565
0.216236
0.222533
0.228435
0.233285
0.237188
0.240578
0.244062
0.246789
0.252737
0.211681
0.215605
0.22185
0.227467
0.232032
0.23582
0.239109
0.242653
0.245149
0.250653
0.210438
0.215396
0.221702
0.22699
0.231071
0.234503
0.23741
0.240663
0.242967
0.248047
0.209104
0.21496
0.22124
0.226193
0.230003
0.233058
0.235622
0.238596
0.240696
0.245355
0.207826
0.21437
0.220533
0.225195
0.228749
0.231504
0.233803
0.236552
0.23848
0.242773
0.206624
0.213703
0.219707
0.224132
0.227405
0.229888
0.231958
0.234505
0.2363
0.240293
0.205512
0.212937
0.218837
0.223011
0.226013
0.228236
0.230094
0.232453
0.234138
0.237881
0.20451
0.212086
0.217916
0.221843
0.224591
0.226569
0.228228
0.230406
0.23201
0.235532
0.203626
0.211152
0.216964
0.220654
0.223162
0.224904
0.226376
0.228387
0.229925
0.233255
0.202852
0.210146
0.216012
0.219468
0.221749
0.223264
0.224557
0.226415
0.227903
0.231051
0.202173
0.20909
0.215084
0.218313
0.220377
0.221669
0.222785
0.224503
0.22595
0.228946
0.20156
0.208008
0.214197
0.21721
0.219068
0.220137
0.221076
0.222657
0.224074
0.226957
0.200962
0.206923
0.213364
0.216181
0.217842
0.218686
0.21944
0.220887
0.222287
0.225095
0.200312
0.205862
0.212587
0.215245
0.216716
0.21733
0.217889
0.219199
0.220601
0.223371
0.199521
0.204843
0.211865
0.214414
0.215705
0.216083
0.21643
0.2176
0.219025
0.221803
0.198493
0.203887
0.211189
0.213698
0.21482
0.214958
0.215074
0.216094
0.217568
0.220411
0.19714
0.203013
0.210561
0.213107
0.214072
0.213961
0.213822
0.21468
0.216237
0.219222
0.195318
0.202196
0.209974
0.21265
0.213462
0.213073
0.212628
0.21331
0.215018
0.218263
0.192509
0.201191
0.209298
0.212254
0.212952
0.212264
0.211449
0.211915
0.213859
0.21756
0.188666
0.199813
0.208315
0.211728
0.212541
0.21183
0.210878
0.211171
0.213166
0.217184
0.184522
0.197985
0.206405
0.210729
0.212617
0.213342
0.213919
0.215248
0.216977
0.218807
0.19216
0.202047
0.208181
0.211094
0.211965
0.212034
0.212466
0.214028
0.216477
0.218365
0.197489
0.205269
0.20967
0.211339
0.211365
0.211097
0.21175
0.21397
0.217352
0.219817
0.200741
0.206987
0.210094
0.210865
0.210434
0.210532
0.21249
0.216816
0.222548
0.226133
0.202928
0.207854
0.209658
0.209709
0.208844
0.209945
0.214515
0.223
0.233569
0.239696
0.204538
0.208202
0.208448
0.206925
0.206827
0.210041
0.219133
0.234817
0.254181
0.265707
0.206258
0.208934
0.208065
0.206184
0.206753
0.213408
0.229503
0.25645
0.290468
0.313177
0.209036
0.211551
0.210672
0.209626
0.212619
0.224644
0.250643
0.294108
0.352132
0.401128
0.213239
0.216818
0.21734
0.218393
0.225094
0.244012
0.282422
0.347482
0.442255
0.548557
0.217637
0.223032
0.226025
0.230631
0.243833
0.273529
0.327855
0.421718
0.577969
0.797828
0.174644
0.185654
0.191086
0.19562
0.199084
0.201911
0.204415
0.207077
0.209985
0.213023
0.170173
0.182986
0.188508
0.193509
0.197268
0.200354
0.203008
0.205609
0.208131
0.210686
0.167667
0.181367
0.186727
0.191859
0.195574
0.198614
0.201187
0.20364
0.205906
0.208068
0.165682
0.179591
0.18484
0.190067
0.193726
0.196707
0.199178
0.201473
0.203522
0.20536
0.163751
0.177446
0.182673
0.188004
0.19165
0.194614
0.19702
0.19918
0.201035
0.202602
0.161996
0.175089
0.180346
0.185751
0.189393
0.192353
0.19471
0.196759
0.198448
0.199793
0.160234
0.172618
0.177918
0.183365
0.187
0.189954
0.19227
0.194223
0.195775
0.196945
0.158478
0.170065
0.175404
0.180869
0.184498
0.187445
0.189725
0.1916
0.19304
0.194073
0.156721
0.167346
0.172977
0.17829
0.181911
0.184852
0.187105
0.188915
0.190265
0.191196
0.154991
0.164701
0.170461
0.175653
0.179266
0.182198
0.184431
0.18619
0.18747
0.188324
0.102532
0.111272
0.116707
0.121686
0.125872
0.129257
0.131946
0.13409
0.135539
0.135156
0.100118
0.109832
0.115629
0.120823
0.125073
0.128376
0.130841
0.132561
0.133202
0.132117
0.097478
0.108256
0.114401
0.119778
0.124058
0.127257
0.129508
0.130902
0.131132
0.129989
0.0946815
0.106573
0.113032
0.118551
0.122822
0.12589
0.127922
0.12903
0.128997
0.127896
0.091818
0.104825
0.111552
0.117161
0.121376
0.124283
0.126088
0.126935
0.126715
0.125673
0.0890043
0.103074
0.110006
0.115644
0.119756
0.122471
0.124041
0.124646
0.124279
0.123272
0.0863827
0.101403
0.10846
0.114062
0.118022
0.120518
0.121843
0.122212
0.121705
0.12068
0.0841194
0.0999122
0.107004
0.112499
0.116263
0.118515
0.119586
0.119717
0.119055
0.117945
0.0823926
0.0987243
0.105748
0.111069
0.114596
0.116584
0.117391
0.117277
0.116434
0.115169
0.0813147
0.0979322
0.104794
0.109881
0.113144
0.114856
0.115395
0.115029
0.113974
0.112499
0.0808599
0.0975439
0.104194
0.109023
0.112015
0.113459
0.113736
0.113117
0.111823
0.110099
0.0815774
0.097929
0.104244
0.108745
0.111436
0.112596
0.112598
0.11171
0.110142
0.108144
0.0835438
0.0991576
0.105035
0.109158
0.111524
0.112389
0.112106
0.11093
0.109057
0.106776
0.0868388
0.101319
0.106675
0.110378
0.1124
0.112956
0.11237
0.110878
0.108662
0.106094
0.0915506
0.104516
0.109274
0.112516
0.114167
0.11439
0.11347
0.111618
0.109012
0.106147
0.097724
0.108818
0.11291
0.115647
0.116894
0.116749
0.115453
0.113189
0.110129
0.106932
0.105346
0.114255
0.117616
0.119805
0.120609
0.120058
0.118342
0.115609
0.112014
0.108392
0.114343
0.120807
0.123384
0.124979
0.125303
0.12431
0.122133
0.118862
0.114586
0.110347
0.124578
0.128404
0.130152
0.131115
0.130935
0.129494
0.126848
0.122962
0.117732
0.112453
0.135846
0.136917
0.137806
0.138109
0.137429
0.135605
0.132637
0.128352
0.122393
0.116053
0.14793
0.146195
0.146193
0.145804
0.144623
0.142505
0.139492
0.135534
0.130754
0.127954
0.160766
0.156105
0.155131
0.15398
0.152244
0.149775
0.146615
0.142794
0.13865
0.136333
0.173854
0.166323
0.16435
0.162391
0.160041
0.157139
0.153699
0.149775
0.145684
0.142846
0.186805
0.176573
0.173605
0.170813
0.167809
0.164418
0.160622
0.156467
0.152202
0.148828
0.199286
0.186594
0.182662
0.179038
0.17537
0.171469
0.167285
0.162849
0.15834
0.154462
0.210987
0.196134
0.191297
0.18688
0.182573
0.178179
0.17362
0.168914
0.164185
0.159921
0.221627
0.204961
0.19931
0.194173
0.189289
0.184459
0.179578
0.174652
0.169759
0.165233
0.230972
0.212876
0.206532
0.200779
0.195412
0.190231
0.185112
0.180044
0.175069
0.170385
0.238833
0.219716
0.212823
0.206586
0.200855
0.195433
0.190176
0.185066
0.180112
0.175392
0.245038
0.225336
0.218071
0.211507
0.205552
0.200012
0.194731
0.189684
0.184863
0.180233
0.249438
0.229625
0.222198
0.215488
0.209461
0.203935
0.198747
0.193869
0.189284
0.184863
0.252293
0.232657
0.225206
0.218498
0.21254
0.207154
0.202173
0.197565
0.193318
0.189217
0.25356
0.234405
0.227087
0.220537
0.214787
0.209663
0.204995
0.200748
0.196921
0.193239
0.253275
0.234902
0.227871
0.221629
0.216217
0.211465
0.207201
0.203394
0.200055
0.19687
0.251547
0.234223
0.227619
0.221816
0.216856
0.212572
0.208792
0.205485
0.202684
0.200057
0.248518
0.232468
0.226409
0.221159
0.216748
0.213012
0.209781
0.207021
0.204788
0.202759
0.244353
0.229757
0.22434
0.219735
0.215952
0.212826
0.210192
0.208013
0.206361
0.204948
0.239231
0.226223
0.221523
0.217632
0.214536
0.212067
0.210064
0.208486
0.207412
0.206606
0.233344
0.222011
0.218076
0.214947
0.212576
0.210793
0.209444
0.208479
0.207961
0.207713
0.22689
0.217269
0.214122
0.211778
0.210153
0.209071
0.208387
0.208044
0.208062
0.208345
0.220038
0.21213
0.209773
0.208218
0.207339
0.206959
0.206946
0.20725
0.207871
0.208967
0.212832
0.206677
0.205124
0.204354
0.204211
0.204512
0.205131
0.206036
0.207249
0.208734
0.205531
0.20108
0.200302
0.200285
0.200845
0.201786
0.202985
0.204411
0.206094
0.207823
0.198318
0.195463
0.19541
0.196098
0.197313
0.198853
0.200584
0.202478
0.204562
0.206531
0.191318
0.189922
0.190532
0.191867
0.193687
0.195779
0.198004
0.200325
0.202771
0.204998
0.184631
0.18454
0.185739
0.187657
0.190026
0.192623
0.195304
0.19802
0.200796
0.203295
0.178343
0.179375
0.181091
0.183521
0.186381
0.189434
0.192532
0.195613
0.19869
0.201473
0.172502
0.17447
0.176627
0.179501
0.182789
0.186249
0.189727
0.193142
0.19649
0.199543
0.167139
0.169848
0.172374
0.175621
0.179278
0.183096
0.186914
0.190633
0.194226
0.197545
0.162358
0.16557
0.168371
0.171914
0.175875
0.179998
0.184113
0.188105
0.191913
0.195499
0.1584
0.161783
0.164711
0.168442
0.172623
0.176985
0.181347
0.185571
0.189558
0.193397
0.154667
0.158183
0.161229
0.165115
0.169477
0.174037
0.178608
0.183029
0.18716
0.191228
0.151257
0.154832
0.15796
0.161957
0.166452
0.171164
0.175902
0.180483
0.184716
0.188978
0.148205
0.151751
0.154913
0.158972
0.163554
0.168372
0.173233
0.177933
0.182222
0.18663
0.145471
0.148916
0.152073
0.156153
0.16078
0.165663
0.170605
0.175383
0.179679
0.184166
0.143008
0.146298
0.149422
0.15349
0.158128
0.163042
0.168028
0.172845
0.177094
0.181576
0.140773
0.143873
0.146942
0.150975
0.155598
0.160514
0.165516
0.170345
0.174503
0.178875
0.138721
0.141618
0.144619
0.148599
0.153188
0.158088
0.163091
0.167921
0.171962
0.176086
0.136815
0.13951
0.142437
0.146354
0.150898
0.155774
0.16077
0.165592
0.169474
0.173094
0.135022
0.137531
0.140383
0.144232
0.148731
0.153596
0.158612
0.163483
0.167427
0.170688
0.133296
0.135654
0.138433
0.142212
0.146667
0.151554
0.1567
0.162042
0.167869
0.174509
0.1315
0.133815
0.136553
0.140265
0.14465
0.149483
0.15458
0.159877
0.165768
0.171765
0.129701
0.132045
0.134753
0.138389
0.142667
0.147369
0.152299
0.157351
0.162801
0.168059
0.127916
0.13035
0.133035
0.136591
0.140741
0.14528
0.150021
0.154838
0.159878
0.164923
0.126143
0.128725
0.131402
0.13488
0.138897
0.143261
0.147802
0.152422
0.157265
0.161861
0.124388
0.127172
0.129858
0.133267
0.137152
0.141335
0.145664
0.150053
0.154568
0.158587
0.122668
0.125699
0.128411
0.131763
0.135523
0.139529
0.143649
0.147807
0.152031
0.155778
0.120996
0.124308
0.127067
0.130379
0.134026
0.137865
0.141783
0.145715
0.149666
0.15323
0.119391
0.123
0.125827
0.12912
0.132671
0.136354
0.140079
0.143786
0.147463
0.150853
0.117931
0.121812
0.124716
0.128005
0.131475
0.135014
0.138553
0.142037
0.145441
0.148647
)
;

boundaryField
{
    inlet
    {
        type            zeroGradient;
    }
    outlet
    {
        type            fixedValue;
        value           uniform 0;
    }
    cylinder
    {
        type            zeroGradient;
    }
    top
    {
        type            symmetryPlane;
    }
    bottom
    {
        type            symmetryPlane;
    }
    defaultFaces
    {
        type            empty;
    }
}


// ************************************************************************* //
