/*--------------------------------*- C++ -*----------------------------------*\
  =========                 |
  \\      /  F ield         | OpenFOAM: The Open Source CFD Toolbox
   \\    /   O peration     | Website:  https://openfoam.org
    \\  /    A nd           | Version:  7
     \\/     M anipulation  |
\*---------------------------------------------------------------------------*/
FoamFile
{
    version     2.0;
    format      ascii;
    class       surfaceScalarField;
    location    "93.1";
    object      phi;
}
// * * * * * * * * * * * * * * * * * * * * * * * * * * * * * * * * * * * * * //

dimensions      [0 3 -1 0 0 0 0];

internalField   nonuniform List<scalar> 
3880
(
-1.65342e-05
-0.000469881
0.000486415
-1.57896e-05
-0.00113447
0.00113373
1.16382e-05
-0.00153094
0.00150351
7.01499e-05
-0.00170013
0.00164162
0.000164039
-0.00166958
0.00157569
0.0002986
-0.00145806
0.0013235
0.000479841
-0.00107881
0.000897573
0.00071293
-0.000542357
0.000309267
0.00100012
0.000141311
-0.000428502
0.000961653
0.00133834
-0.00129987
-5.47732e-06
-0.000464404
1.74967e-05
-0.00115745
7.35316e-05
-0.00158697
0.000163929
-0.00179053
0.00029072
-0.00179638
0.000457821
-0.00162516
0.000670581
-0.00129157
0.000934328
-0.000806104
0.00125236
-0.000176723
0.000590608
0.00162341
9.30786e-06
-0.000473712
6.11032e-05
-0.00120924
0.000154381
-0.00168025
0.000286606
-0.00192276
0.000457131
-0.0019669
0.000667962
-0.001836
0.000923292
-0.0015469
0.00122816
-0.00111098
0.00158663
-0.000535189
0.000177978
0.00199926
2.70744e-05
-0.000500786
0.000113357
-0.00129553
0.00025099
-0.00181788
0.000433341
-0.00210511
0.000656892
-0.00219045
0.000921538
-0.00210064
0.00123005
-0.00185542
0.00158683
-0.00146775
0.00199622
-0.000944577
-0.000286213
0.00246041
4.72549e-05
-0.000548041
0.000171806
-0.00142008
0.000358472
-0.00200455
0.000596337
-0.00234297
0.000879047
-0.00247316
0.00120448
-0.00242608
0.00157405
-0.00222498
0.00199138
-0.00188509
0.00246073
-0.00141392
-0.000810689
0.0029852
6.88015e-05
-0.000616842
0.000233204
-0.00158448
0.000470331
-0.00224168
0.000764976
-0.00263762
0.00110815
-0.00281633
0.00149602
-0.00281395
0.00192897
-0.00265792
0.00241017
-0.00236629
0.00294366
-0.00194741
-0.00139951
0.00353248
9.05088e-05
-0.000707351
0.000293704
-0.00178767
0.000578827
-0.0025268
0.00092646
-0.00298525
0.00132522
-0.0032151
0.00176996
-0.00325869
0.00226053
-0.00314849
0.00280032
-0.00290608
0.00339378
-0.00254087
-0.00204868
0.00404295
0.000111058
-0.00081841
0.000349102
-0.00202572
0.000675533
-0.00285323
0.00106688
-0.0033766
0.00150962
-0.00365783
0.00199752
-0.0037466
0.00253031
-0.00368129
0.00311245
-0.00348821
0.00375052
-0.00317894
-0.0027441
0.00444594
0.000129092
-0.000947501
0.000395121
-0.00229175
0.000752018
-0.00321013
0.00117258
-0.00379716
0.00164136
-0.00412661
0.00215118
-0.00425642
0.0027015
-0.00423161
0.00329798
-0.00408468
0.00395172
-0.00383269
-0.0034633
0.00467092
0.000143279
-0.00109078
0.000427702
-0.00257617
0.000800542
-0.00358297
0.00123151
-0.00422813
0.00170372
-0.00459883
0.00220917
-0.00476187
0.00274648
-0.00476892
0.00332071
-0.00465891
0.00394688
-0.00445885
0.00466668
-0.0041831
0.00239515
0.0112022
-0.012259
0.00367754
0.0287664
-0.0300488
0.0043212
0.0483218
-0.0489655
0.00430628
0.0666883
-0.0666734
0.00385682
0.0845147
-0.0840653
0.00311915
0.103192
-0.102454
0.00219955
0.124776
-0.123856
0.00113715
0.155217
-0.154154
0.000289911
0.201845
-0.200998
0.257347
-0.257058
0.002696
0.0101296
0.00418665
0.0272757
0.00510261
0.0474059
0.0052785
0.0665124
0.00492293
0.0848703
0.00419873
0.103916
0.00322707
0.125747
0.00204976
0.156394
0.000866293
0.203029
0.258214
0.00303011
0.00909875
0.00467094
0.0256349
0.00585811
0.0462187
0.00623975
0.0661308
0.00598897
0.0851211
0.00528233
0.104623
0.00425762
0.126772
0.00295635
0.157695
0.00145116
0.204534
0.259665
0.0034012
0.00815796
0.00512002
0.0239161
0.00656569
0.044773
0.00716756
0.0655289
0.00703567
0.085253
0.00635298
0.105305
0.00527829
0.127847
0.00385302
0.159121
0.00202947
0.206357
0.261694
0.00380821
0.00733495
0.00552877
0.0221955
0.00720585
0.0430959
0.00804015
0.0646946
0.00804377
0.0852494
0.00739523
0.105954
0.00627665
0.128965
0.00473028
0.160667
0.00259562
0.208492
0.26429
0.00423881
0.00662863
0.0058954
0.0205389
0.00776308
0.0412282
0.00883728
0.0636204
0.00899489
0.0850917
0.00839389
0.106555
0.00723985
0.130119
0.00557752
0.162329
0.00314229
0.210927
0.267432
0.00466393
0.00600764
0.00621626
0.0189866
0.00822661
0.0392179
0.0095412
0.0623058
0.00987252
0.0847604
0.00933593
0.107091
0.00815844
0.131297
0.006389
0.164099
0.00366928
0.213647
0.271102
0.0050319
0.00542169
0.00647785
0.0175407
0.00858748
0.0371083
0.010137
0.0607563
0.0106592
0.0842383
0.0102029
0.107548
0.00901427
0.132485
0.00714892
0.165964
0.00416368
0.216632
0.275265
0.00526905
0.00482356
0.00665038
0.0161593
0.0088314
0.0349272
0.0106132
0.0589745
0.0113545
0.083497
0.0110036
0.107899
0.00982139
0.133668
0.00786994
0.167916
0.00463659
0.219866
0.279902
0.00534904
0.0041412
0.0067703
0.0147381
0.00898912
0.0327084
0.0109513
0.0570123
0.0119013
0.082547
0.0116726
0.108127
0.0105346
0.134806
0.0084984
0.169952
0.00508705
0.223277
0.284989
0.0174485
0.00792473
-0.021232
0.0134261
0.0187604
0.0112454
0.0348891
0.0101969
0.0580608
0.00895555
0.0837883
0.00717346
0.109909
0.00475559
0.137223
0.00188522
0.172822
-0.000262874
0.225425
0.284726
0.018283
0.010532
-0.0208902
0.0144217
0.0226217
0.01147
0.0378408
0.00993065
0.0596001
0.00861201
0.085107
0.00685231
0.111669
0.0044665
0.139609
0.00172265
0.175566
-0.000287563
0.227435
0.284438
0.017889
0.0117876
-0.0191447
0.0149471
0.0255635
0.0118711
0.0409168
0.00983332
0.061638
0.008258
0.0866823
0.00647593
0.113451
0.00417408
0.141911
0.00155538
0.178185
-0.0003148
0.229305
0.284124
0.0166256
0.0121719
-0.0170098
0.0146159
0.0275732
0.0119566
0.0435761
0.0097789
0.0638157
0.00801275
0.0884484
0.00618019
0.115284
0.00394282
0.144149
0.00147694
0.180651
-0.000270503
0.231053
0.283853
0.0150104
0.0119386
-0.0147771
0.0137633
0.0288202
0.0116317
0.0457078
0.00958784
0.0658595
0.00779763
0.0902386
0.00594449
0.117137
0.00374314
0.14635
0.00136576
0.183028
-0.000284144
0.232703
0.283569
0.0132135
0.0111896
-0.0124644
0.0126086
0.0294251
0.0109841
0.0473323
0.00918219
0.0676614
0.00750139
0.0919194
0.00572663
0.118912
0.00361543
0.148461
0.00135985
0.185284
-0.000209591
0.234272
0.283359
0.0113624
0.00997305
-0.0101459
0.0113668
0.0294207
0.0102679
0.0484312
0.00873891
0.0691904
0.00717623
0.0934821
0.00548071
0.120607
0.00345484
0.150487
0.00127702
0.187461
-0.000220624
0.23577
0.283139
0.00947879
0.00831573
-0.00782147
0.00998666
0.0289128
0.00937286
0.049045
0.00820169
0.0703615
0.00684272
0.0948411
0.00527953
0.12217
0.00336191
0.152405
0.00131189
0.189511
-0.000120312
0.237202
0.283018
0.00796996
0.00604788
-0.00570211
0.00903629
0.0278465
0.00882431
0.049257
0.00785827
0.0713276
0.00658511
0.0961142
0.00508724
0.123668
0.00323459
0.154257
0.00124536
0.191501
-0.000132693
0.23858
0.282886
0.00567954
-0.00319113
0.00750998
0.00805805
0.00755384
0.00649563
0.00505256
0.00328219
0.001332
7.33477e-06
0.00449286
-0.0213945
-0.00433036
0.0040603
-0.0204576
0.00334626
-0.0184306
0.0025595
-0.0162231
0.00175211
-0.0139697
0.000944059
-0.0116564
0.000141372
-0.00934317
-0.000630179
-0.00704992
-0.00146238
-0.00486991
-0.00251102
0.0036493
-0.0212327
-0.00381108
0.00300153
-0.0198099
0.00218203
-0.0176111
0.00133433
-0.0153754
0.000485533
-0.0131209
-0.000349041
-0.0108218
-0.00116849
-0.00852373
-0.00195243
-0.00626598
-0.00275133
-0.00407101
-0.00189746
0.00267977
-0.020799
-0.0031135
0.00185007
-0.0189802
0.000948182
-0.0167092
4.92422e-05
-0.0144764
-0.000820974
-0.0122507
-0.00166562
-0.00997715
-0.00247801
-0.00771134
-0.00324279
-0.00550119
-0.0039712
-0.0033426
-0.00137219
0.0015827
-0.0201443
-0.00223734
0.000621619
-0.0180191
-0.000333908
-0.0157537
-0.0012566
-0.0135538
-0.00213875
-0.0113685
-0.00297289
-0.00914302
-0.00375578
-0.00692845
-0.00447316
-0.00478381
-0.00510932
-0.00270644
-0.000947138
0.000373133
-0.0193109
-0.00120662
-0.000669543
-0.0169764
-0.00164908
-0.0147742
-0.00257637
-0.0126265
-0.00344289
-0.010502
-0.00424455
-0.00834136
-0.00497642
-0.00619658
-0.00562342
-0.00413681
-0.00615457
-0.00217529
-0.000623881
-0.000910894
-0.0183514
-4.85687e-05
-0.00199494
-0.0158924
-0.00297157
-0.0137975
-0.00387766
-0.0117204
-0.00470699
-0.0096727
-0.00545614
-0.00759221
-0.00611898
-0.00553373
-0.00667955
-0.00357625
-0.00710186
-0.00175298
-0.000397125
-0.00222876
-0.0172743
0.00115171
-0.00331613
-0.014805
-0.004266
-0.0128476
-0.00513025
-0.0108561
-0.00590449
-0.00889846
-0.00658552
-0.00691117
-0.00716708
-0.00495217
-0.00763323
-0.0031101
-0.00795052
-0.0014357
-0.000256802
-0.00353174
-0.0161324
0.00238979
-0.00459412
-0.0137426
-0.00549934
-0.0119424
-0.00630576
-0.0100497
-0.00701225
-0.00819197
-0.00761529
-0.00630813
-0.00810995
-0.00445752
-0.00848149
-0.00273856
-0.00870349
-0.0012137
-0.000189881
-0.0047771
-0.014962
0.0036067
-0.0057941
-0.0127256
-0.00664255
-0.011094
-0.00738061
-0.00931165
-0.00801254
-0.00756004
-0.00853389
-0.00578677
-0.00894254
-0.00404887
-0.00922585
-0.00245525
-0.00936637
-0.00107318
-0.000181842
-0.0059291
-0.0137946
0.00476172
-0.00688756
-0.0117672
-0.00767287
-0.0103087
-0.00833758
-0.00864694
-0.00889395
-0.00700367
-0.00933577
-0.00534494
-0.00966495
-0.00371969
-0.00987137
-0.00224883
-0.00994654
-0.000998005
-0.000217708
-0.00696072
-0.012655
0.00582113
-0.00785348
-0.0108744
-0.00857474
-0.00958739
-0.00916624
-0.00805544
-0.00965127
-0.00651865
-0.0100208
-0.00497545
-0.0102814
-0.00345907
-0.0104255
-0.00210472
-0.0104524
-0.000971109
-0.000282684
-0.00785819
-0.0115611
0.00676427
-0.00868099
-0.0100516
-0.00934128
-0.00892711
-0.00986379
-0.00753292
-0.0102855
-0.00609697
-0.0105934
-0.00466749
-0.0107992
-0.00325331
-0.0108972
-0.00200668
-0.0108928
-0.000975543
-0.000362486
-0.0086128
-0.0105243
0.00757603
-0.00936472
-0.00929969
-0.00997052
-0.00832131
-0.010432
-0.00707149
-0.0108012
-0.00572777
-0.0110611
-0.00440758
-0.0112273
-0.00308711
-0.011296
-0.0019379
-0.0112766
-0.000994997
-0.000443479
-0.00922404
-0.00954938
0.00824909
-0.00990637
-0.00861736
-0.0104662
-0.00776146
-0.0108772
-0.00666054
-0.0112063
-0.0053986
-0.0114331
-0.00418078
-0.0115756
-0.00294462
-0.0116317
-0.00188182
-0.0116126
-0.00101412
-0.0005127
-0.00969687
-0.00863327
0.00878076
-0.0103127
-0.00800155
-0.0108358
-0.00723839
-0.0112088
-0.0062875
-0.0115109
-0.00509651
-0.01172
-0.00397165
-0.0118544
-0.00281022
-0.0119136
-0.0018226
-0.0119092
-0.00101859
-0.000557789
-0.0100396
-0.00776441
0.00917073
-0.0105943
-0.00744682
-0.0110889
-0.00674384
-0.0114379
-0.00593851
-0.0117256
-0.00480878
-0.0119323
-0.00376489
-0.0120736
-0.00266899
-0.0121508
-0.00174534
-0.0121744
-0.000995025
-0.000566883
-0.0102612
-0.00692214
0.00941892
-0.0107644
-0.00694362
-0.0112362
-0.00627199
-0.0115758
-0.00559897
-0.0118612
-0.00452337
-0.0120802
-0.00354586
-0.0122424
-0.00250681
-0.0123517
-0.00163602
-0.012416
-0.000930781
-0.000528493
-0.010364
-0.00608341
0.00952532
-0.010833
-0.00647468
-0.0112865
-0.00581846
-0.0116321
-0.00525342
-0.0119272
-0.00422825
-0.0121726
-0.00330044
-0.0123692
-0.00231019
-0.0125239
-0.00148136
-0.012641
-0.000813688
-0.000431345
-0.0103448
-0.0052358
0.00949719
-0.0108098
-0.00600968
-0.011249
-0.00537925
-0.0116158
-0.00488663
-0.0119326
-0.00391145
-0.0122178
-0.00301526
-0.0124617
-0.00206625
-0.0126744
-0.00126864
-0.0128562
-0.000631875
-0.00026418
-0.0102448
-0.0043646
0.00937361
-0.0107345
-0.00552
-0.0111493
-0.00496446
-0.0115395
-0.00449642
-0.0118871
-0.00356385
-0.0122219
-0.00268038
-0.012526
-0.00176223
-0.0128093
-0.000985277
-0.0130689
-0.000372273
-1.61914e-05
-0.0461673
-0.00427877
0.0460815
-0.0472124
-0.00447485
-0.04837
-0.00380692
-0.0495252
-0.00334121
-0.050494
-0.00259501
-0.0512464
-0.00192797
-0.0517585
-0.00125019
-0.0520464
-0.00069733
-0.052155
-0.000263676
-1.96572e-05
-0.0549458
-0.00436686
0.0550339
-0.0555875
-0.00383318
-0.0562255
-0.00316889
-0.0569397
-0.00262704
-0.0575344
-0.00200031
-0.0579986
-0.00146376
-0.058307
-0.000941817
-0.0584699
-0.000534461
-0.058524
-0.000209499
-2.39004e-05
-0.0658691
-0.00453776
0.06604
-0.0661539
-0.0035484
-0.0664606
-0.00286219
-0.0668729
-0.00221481
-0.0672017
-0.00167146
-0.0674818
-0.00118369
-0.0676525
-0.000771057
-0.0677446
-0.000442384
-0.0677649
-0.000189211
-2.63679e-05
-0.0792823
-0.00464028
0.0793848
-0.079442
-0.00338866
-0.0795947
-0.00270955
-0.0798476
-0.0019619
-0.0800294
-0.00148961
-0.0802076
-0.00100548
-0.0803026
-0.000676052
-0.0803641
-0.00038096
-0.0803717
-0.000181536
-2.44844e-05
-0.0950738
-0.00452341
0.0949569
-0.0952732
-0.00318928
-0.0954296
-0.00255307
-0.0956387
-0.00175289
-0.0957784
-0.00134991
-0.0959241
-0.000859774
-0.0959996
-0.000600496
-0.0960646
-0.000315996
-0.0960823
-0.000163831
-1.28944e-05
-0.112187
-0.00410617
0.11177
-0.11253
-0.00284662
-0.1128
-0.00228262
-0.113043
-0.00150988
-0.113217
-0.00117615
-0.113372
-0.000705101
-0.113467
-0.000505177
-0.113553
-0.000229823
-0.113593
-0.000124114
5.71305e-06
-0.128764
-0.00337638
0.128034
-0.12929
-0.00232052
-0.129713
-0.00185912
-0.130023
-0.0012003
-0.130261
-0.000938335
-0.130435
-0.000530401
-0.130561
-0.000379318
-0.130657
-0.000134364
-0.13071
-7.0326e-05
2.29939e-05
-0.142746
-0.00239111
0.141761
-0.143435
-0.00163186
-0.14399
-0.00130442
-0.144361
-0.000829437
-0.144652
-0.000647314
-0.144835
-0.000347037
-0.144972
-0.000241921
-0.14505
-5.70855e-05
-0.145095
-2.45554e-05
2.83024e-05
-0.152618
-0.00123718
0.151464
-0.153413
-0.000837391
-0.154048
-0.000669173
-0.154456
-0.000421233
-0.154775
-0.000328764
-0.154952
-0.00016959
-0.155079
-0.000115107
-0.155121
-1.48563e-05
-0.155142
-3.55567e-06
1.91584e-05
-0.157669
0.156432
-0.158506
-0.159175
-0.159597
-0.159925
-0.160095
-0.16021
-0.160225
-0.160229
-0.0105618
0.0470839
0.00955937
-0.0113151
0.0557873
-0.0119232
0.0666481
-0.0122461
0.0797077
-0.0120717
0.0947825
-0.0111689
0.110867
-0.009402
0.126267
-0.00680612
0.139165
-0.00357646
0.148235
0.152855
-0.0100363
0.0478634
0.00925678
-0.0107365
0.0564874
-0.0112729
0.0671845
-0.0115117
0.0799466
-0.0112688
0.0945396
-0.0103501
0.109948
-0.00865488
0.124572
-0.00623224
0.136743
-0.0032633
0.145266
0.149592
-0.00952658
0.0485858
0.0088042
-0.0101597
0.0571206
-0.0106168
0.0676416
-0.0107805
0.0801103
-0.0104893
0.0942483
-0.00957953
0.109038
-0.00797317
0.122965
-0.00572198
0.134491
-0.00298998
0.142534
0.146602
-0.00892582
0.0492804
0.00823127
-0.00949608
0.0576908
-0.00987238
0.0680179
-0.00996438
0.0802023
-0.00963449
0.0939184
-0.00874785
0.108152
-0.00724641
0.121464
-0.0051825
0.132428
-0.0027023
0.140054
0.1439
-0.00822042
0.0499385
0.00756233
-0.00872991
0.0582003
-0.00903324
0.0683212
-0.00906553
0.0802346
-0.00871272
0.0935656
-0.00786639
0.107306
-0.00648555
0.120083
-0.00462192
0.130564
-0.00240445
0.137836
0.141495
-0.00742852
0.0505508
0.00681619
-0.00787158
0.0586434
-0.00810578
0.0685554
-0.00808906
0.0802178
-0.00772873
0.0932053
-0.00694002
0.106517
-0.00569559
0.118839
-0.00404462
0.128913
-0.00209901
0.135891
0.139396
-0.0065668
0.0511094
0.00600819
-0.00693973
0.0590163
-0.0071069
0.0687226
-0.00704923
0.0801602
-0.00669383
0.0928499
-0.00597716
0.1058
-0.00488246
0.117744
-0.00345459
0.127485
-0.00178808
0.134224
0.137608
-0.00564924
0.0516047
0.0051539
-0.00595169
0.0593188
-0.00605492
0.0688258
-0.00596356
0.0800688
-0.00562314
0.0925095
-0.00498958
0.105167
-0.00405436
0.116809
-0.00285685
0.126288
-0.00147406
0.132841
0.136134
-0.00469155
0.0520263
0.00426995
-0.00492503
0.0595523
-0.00496774
0.0688685
-0.00484939
0.0799505
-0.00453207
0.0921922
-0.00398975
0.104624
-0.00322037
0.116039
-0.00225715
0.125324
-0.00115972
0.131744
0.134974
-0.00371082
0.0523633
0.00337387
-0.00387883
0.0597203
-0.00386341
0.0688531
-0.00372375
0.0798108
-0.00343538
0.0919038
-0.00298969
0.104179
-0.00238938
0.115439
-0.00166129
0.124596
-0.000847959
0.13093
0.134126
-0.00273352
0.0526094
0.00248744
-0.00283664
0.0598234
-0.00276432
0.0687808
-0.00260713
0.0796536
-0.00235052
0.0916472
-0.00200362
0.103832
-0.00157207
0.115008
-0.00107635
0.124101
-0.000542266
0.130396
0.133584
-0.00177797
0.0527667
0.00162064
-0.00181188
0.0598573
-0.00168825
0.0686571
-0.0015141
0.0794795
-0.00129015
0.0914232
-0.00104038
0.103582
-0.000774466
0.114742
-0.000506779
0.123833
-0.000244944
0.130135
0.133339
-0.000874364
0.0528497
0.000791295
-0.000828924
0.0598119
-0.00066533
0.0684935
-0.000473976
0.0792881
-0.000285262
0.0912345
-0.000130496
0.103427
-2.69607e-05
0.114638
2.74687e-05
0.123778
3.36708e-05
0.130128
0.133373
-6.49665e-05
0.0529223
-7.58092e-06
8.52641e-05
0.0596616
0.000293409
0.0682854
0.000516188
0.0790653
0.000684311
0.0910664
0.00075795
0.103354
0.000715774
0.11468
0.00055811
0.123936
0.000309065
0.130377
0.133682
0.00076443
0.0528866
-0.000728694
0.000970737
0.0594553
0.00122013
0.068036
0.00145574
0.0788297
0.00159715
0.090925
0.00158895
0.103362
0.00140444
0.114865
0.00105009
0.12429
0.000564735
0.130863
0.134247
0.00150064
0.0527927
-0.00140676
0.0017712
0.0591848
0.00205898
0.0677482
0.0023131
0.0785756
0.00243431
0.0908038
0.0023545
0.103442
0.00204067
0.115179
0.00150479
0.124826
0.000800395
0.131567
0.135047
0.00215749
0.0526658
-0.00203067
0.00248994
0.0588523
0.0028117
0.0674265
0.00308472
0.0783026
0.00319166
0.0906968
0.00305087
0.103582
0.00262174
0.115608
0.00192054
0.125528
0.00101516
0.132473
0.136062
0.00274197
0.0525337
-0.00260981
0.00312555
0.0584688
0.00347504
0.067077
0.00376338
0.0780142
0.0038588
0.0906014
0.00366598
0.103775
0.00313589
0.116138
0.00228818
0.126375
0.00120393
0.133557
0.137266
0.00326478
0.0524267
-0.00315775
0.00368301
0.0580505
0.00405949
0.0667005
0.00436406
0.0777097
0.00445466
0.0905108
0.00421993
0.10401
0.00360084
0.116757
0.00262026
0.127356
0.00137311
0.134804
0.138639
0.00366196
0.0524283
-0.00366363
0.00407611
0.0576364
0.00447761
0.066299
0.00479044
0.0773968
0.00487673
0.0904245
0.00461416
0.104272
0.00393367
0.117437
0.00285795
0.128432
0.00149142
0.13617
0.140131
-0.0339192
0.0484865
0.0378611
-0.0309041
0.0546212
-0.0288845
0.0642794
-0.0267176
0.0752299
-0.0240695
0.0877765
-0.0206606
0.100864
-0.0163983
0.113175
-0.0113819
0.123415
-0.00582548
0.130614
0.134305
-0.0417561
0.0450005
0.045242
-0.0389298
0.051795
-0.036335
0.0616846
-0.0333456
0.0722406
-0.0298218
0.0842526
-0.0254163
0.0964581
-0.020064
0.107823
-0.0138838
0.117235
-0.00711854
0.123849
0.127187
-0.0505292
0.0416863
0.0538434
-0.0476173
0.0488831
-0.0443975
0.0584647
-0.0405693
0.0684124
-0.0360044
0.0796877
-0.0303841
0.0908378
-0.0237698
0.101209
-0.0163164
0.109782
-0.00827102
0.115803
0.118916
-0.0610351
0.0385168
0.0642046
-0.0576466
0.0454946
-0.0536331
0.0544512
-0.0488513
0.0636307
-0.0430936
0.07393
-0.0360988
0.0838429
-0.0280577
0.0931675
-0.0191757
0.1009
-0.00975854
0.106386
0.109157
-0.0727788
0.0348003
0.0764952
-0.0685747
0.0412905
-0.0635114
0.049388
-0.0574156
0.0575348
-0.0500781
0.0665925
-0.0414054
0.0751702
-0.0317402
0.0835024
-0.0213322
0.0904915
-0.0105821
0.0956361
0.098575
-0.0861589
0.0310688
0.0898904
-0.0808743
0.0360059
-0.0745903
0.043104
-0.067006
0.0499505
-0.0580223
0.0576089
-0.0477176
0.0648654
-0.036396
0.0721808
-0.0243681
0.0784636
-0.0123044
0.0835724
0.0862706
-0.098912
0.0255116
0.104469
-0.0924599
0.0295538
-0.0847043
0.0353484
-0.075173
0.0404191
-0.0641718
0.0466077
-0.0517395
0.0524332
-0.0382461
0.0586873
-0.0241949
0.0644125
-0.010749
0.0701264
0.0755216
-0.112344
0.0201002
0.117756
-0.104836
0.0220455
-0.0958168
0.0263291
-0.0850471
0.0296494
-0.0728952
0.0344558
-0.0592148
0.0387528
-0.044499
0.0439715
-0.0292363
0.0491498
-0.0154396
0.0563297
0.0600821
-0.126865
0.00980051
0.137165
-0.11596
0.0111409
-0.103124
0.0134925
-0.0887633
0.0152889
-0.0723665
0.018059
-0.0542402
0.0206265
-0.0343351
0.0240665
-0.013594
0.0284087
0.00544906
0.0372866
0.0655311
-0.233901
0.243701
-0.22276
-0.209267
-0.193978
-0.175919
-0.155293
-0.131226
-0.102818
-0.0655311
0.00205108
0.0391842
-0.00337417
0.00085447
0.0464386
-0.000108116
0.054806
-0.000717764
0.0648142
-0.00109485
0.0768723
-0.00123789
0.0900335
-0.00101949
0.104251
-0.000760855
0.117497
-0.00160159
0.138005
0.2421
0.00236755
0.0404564
-0.00363978
0.00119828
0.0476079
0.000271203
0.0557331
-0.000402539
0.065488
-0.000815557
0.0772853
-0.000990578
0.0902085
-0.000843253
0.104103
-0.000642177
0.117296
-0.00140695
0.13877
0.240693
0.00274741
0.0416263
-0.00391732
0.00161906
0.0487362
0.000717463
0.0566347
-5.20839e-06
0.0662107
-0.00040666
0.0776868
-0.000623122
0.0904249
-0.000531545
0.104012
-0.00043997
0.117205
-0.00120903
0.139539
0.239484
0.00313013
0.0426937
-0.00419754
0.00205051
0.0498159
0.00118071
0.0575045
0.000502752
0.0668886
4.80439e-05
0.0781415
-0.000209604
0.0906826
-0.000147766
0.10395
-0.000191809
0.117249
-0.000955634
0.140303
0.238528
0.00350706
0.0436541
-0.00446744
0.00249431
0.0508286
0.0016655
0.0583333
0.00101666
0.0675375
0.000574959
0.0785832
0.000280465
0.0909771
0.000268823
0.103962
0.000120392
0.117397
-0.000657194
0.141081
0.237871
0.00388957
0.0444819
-0.00471741
0.00296474
0.0517535
0.00218539
0.0591126
0.00157055
0.0681523
0.00113615
0.0790176
0.00083667
0.0912766
0.000732558
0.104066
0.000519563
0.11761
-0.000319032
0.141919
0.237552
0.00427721
0.045146
-0.00494124
0.00345992
0.0525707
0.00273976
0.0598328
0.00216487
0.0687272
0.00174069
0.0794418
0.00142743
0.0915898
0.00124519
0.104248
0.000943541
0.117912
5.60678e-05
0.142807
0.237608
0.00466535
0.0456142
-0.00513359
0.0039713
0.0532648
0.00332032
0.0604838
0.0027917
0.0692558
0.00238249
0.079851
0.00205449
0.0919178
0.00179753
0.104505
0.00140053
0.118309
0.000427203
0.14378
0.238035
0.00504505
0.0458576
-0.00528849
0.00448889
0.053821
0.00391715
0.0610555
0.00344123
0.0697317
0.00305303
0.0802392
0.00271082
0.09226
0.00238188
0.104834
0.00188787
0.118803
0.000834568
0.144833
0.23887
0.00540487
0.0458522
-0.00539945
0.00500141
0.0542244
0.00451971
0.0615372
0.00410284
0.0701486
0.0037423
0.0805997
0.00338701
0.0926153
0.00298997
0.105231
0.00239948
0.119393
0.00126225
0.145971
0.240132
0.00572854
0.0455816
-0.00545794
0.00549271
0.0544603
0.0051134
0.0619165
0.00476112
0.0705009
0.00443423
0.0809266
0.00406972
0.0929798
0.00361007
0.105691
0.00292591
0.120077
0.00170148
0.147195
0.241833
0.00600904
0.0450397
-0.00546709
0.00595617
0.0545131
0.0056904
0.0621823
0.0054089
0.0707824
0.00512142
0.0812141
0.00475327
0.093348
0.00423691
0.106207
0.00346302
0.120851
0.00214924
0.148509
0.243983
0.00623069
0.044234
-0.00542507
0.00637474
0.0543691
0.00623201
0.062325
0.00602812
0.0709863
0.00578637
0.0814559
0.00542237
0.093712
0.00485722
0.106772
0.00400049
0.121708
0.00259838
0.149911
0.246581
0.00638375
0.0431875
-0.00533723
0.00673463
0.0540182
0.00672357
0.0623361
0.00660411
0.0711057
0.00641488
0.0816451
0.00606419
0.0940627
0.00546004
0.107376
0.00452988
0.122638
0.00304263
0.151398
0.249624
0.00646217
0.0419388
-0.00521347
0.0070242
0.0534562
0.00715165
0.0622086
0.0071229
0.0711345
0.00699342
0.0817746
0.00666603
0.0943901
0.00603469
0.108008
0.00504292
0.12363
0.00347589
0.152965
0.253099
0.00646571
0.0405412
-0.00506808
0.00723479
0.0526871
0.00750481
0.0619386
0.00757185
0.0710674
0.00750955
0.0818369
0.00721552
0.0946841
0.00657046
0.108653
0.00553139
0.124669
0.00389031
0.154606
0.25699
0.00640224
0.0390558
-0.00491681
0.00736176
0.0517276
0.00777402
0.0615263
0.00794065
0.0709008
0.00795237
0.0818252
0.00770253
0.0949339
0.00705916
0.109296
0.00598939
0.125739
0.00428095
0.156315
0.261271
0.00628494
0.0375382
-0.00476738
0.00740417
0.0506083
0.0079543
0.0609762
0.00822073
0.0706344
0.00830978
0.0817361
0.00811323
0.0951305
0.00748674
0.109923
0.00640623
0.126819
0.00463567
0.158085
0.265906
0.00610635
0.0360208
-0.0045889
0.00735363
0.0493611
0.00804542
0.0602844
0.00841601
0.0702638
0.00858859
0.0815635
0.00845683
0.0952622
0.00786181
0.110518
0.00678915
0.127892
0.00495883
0.159916
0.270865
0.00584694
0.0344313
-0.00425753
0.00715816
0.0480499
0.00798332
0.0594593
0.00845183
0.0697953
0.00871173
0.0813036
0.00865341
0.0953206
0.00811944
0.111052
0.00707463
0.128937
0.00524816
0.161742
0.276113
-0.0148706
0.0347399
0.014562
-0.0134425
0.0466217
-0.0111549
0.0571717
-0.00841025
0.0670506
-0.00550713
0.0784005
-0.00238483
0.0921983
0.00079166
0.107875
0.00309584
0.126632
0.00213838
0.162699
0.278252
-0.0271896
0.0337555
0.028174
-0.0248725
0.0443047
-0.0213733
0.0536725
-0.0172816
0.0629588
-0.0129001
0.074019
-0.00812342
0.0874216
-0.00323894
0.102991
0.000479959
0.122914
0.000907706
0.162272
0.279159
-0.0407385
0.0318837
0.0426103
-0.037284
0.0408502
-0.0324139
0.0488024
-0.0269567
0.0575017
-0.0210656
0.0681279
-0.0145311
0.0808872
-0.00775754
0.096217
-0.00220746
0.117364
-0.00021382
0.160278
0.278946
-0.0554351
0.029088
0.0582309
-0.0505713
0.0359864
-0.0445018
0.0427329
-0.0377993
0.0507991
-0.0302929
0.0606215
-0.0218338
0.0724281
-0.0130451
0.0874282
-0.00554733
0.109866
-0.00178653
0.156517
0.277159
-0.0714081
0.0249044
0.0755917
-0.0652957
0.029874
-0.058396
0.0358332
-0.0504017
0.0428048
-0.0411618
0.0513815
-0.0307646
0.0620309
-0.0199492
0.0766129
-0.0103199
0.100236
-0.00409165
0.150289
0.273067
-0.0892342
0.0200882
0.0940503
-0.082285
0.0229248
-0.0745063
0.0280544
-0.0650768
0.0333754
-0.0542451
0.0405498
-0.0420776
0.0498633
-0.0294857
0.0640211
-0.0176742
0.0884249
-0.00834888
0.140964
0.264719
-0.11014
0.0137149
0.116513
-0.102747
0.0155317
-0.0942925
0.0196003
-0.0840851
0.023168
-0.0726
0.0290647
-0.0595348
0.0367981
-0.0456768
0.0501631
-0.0315418
0.0742899
-0.0173787
0.126801
0.24734
-0.140917
0.00707202
0.14756
-0.13313
0.00774464
-0.124041
0.0105116
-0.113525
0.0126517
-0.10163
0.0171695
-0.0882223
0.0233906
-0.0735021
0.0354429
-0.0571541
0.0579419
-0.0356856
0.105332
0.211654
-0.19933
0.00157086
0.204831
-0.193595
0.00200962
-0.186299
0.00321577
-0.178221
0.00457399
-0.16832
0.00726868
-0.156484
0.0115537
-0.14073
0.0196892
-0.117398
0.0346097
-0.0764803
0.0644147
0.135174
-0.282509
0.28408
-0.2805
-0.277284
-0.27271
-0.265441
-0.253888
-0.234198
-0.199589
-0.135174
0.00196935
0.0153045
-0.00271182
0.00056666
0.0295767
-0.000927276
0.0441042
-0.00228499
0.0595886
-0.00338901
0.0766957
-0.00432127
0.0949826
-0.00499976
0.117192
-0.00554543
0.148106
-0.00482872
0.204114
0.279252
0.00169829
0.0157339
-0.00212771
0.000577711
0.0306973
-0.000771167
0.0454531
-0.00206763
0.0608851
-0.00315761
0.0777857
-0.00407719
0.0959022
-0.00475593
0.11787
-0.00532552
0.148675
-0.00432176
0.203111
0.27493
0.00151475
0.0159303
-0.00171113
0.000665688
0.0315463
-0.000507806
0.0466266
-0.00169206
0.0620693
-0.00272681
0.0788205
-0.00361578
0.0967911
-0.00431324
0.118568
-0.00484572
0.149208
-0.00395217
0.202217
0.270978
0.00141261
0.0159302
-0.00141255
0.000820724
0.0321382
-0.000176367
0.0476237
-0.00123211
0.0631251
-0.00219328
0.0797816
-0.00305535
0.0976532
-0.00376301
0.119275
-0.00429427
0.149739
-0.00353397
0.201457
0.267444
0.00138461
0.0157453
-0.00119965
0.00105082
0.032472
0.000255918
0.0484186
-0.000689361
0.0640703
-0.00157559
0.0806679
-0.00240925
0.0984869
-0.00312972
0.119996
-0.003678
0.150287
-0.00307243
0.200851
0.264371
0.00142525
0.015378
-0.00105798
0.00135751
0.0325398
0.000780514
0.0489956
-6.98917e-05
0.0649207
-0.000863432
0.0814614
-0.00167488
0.0992983
-0.0024123
0.120733
-0.00299724
0.150872
-0.00257386
0.200428
0.261797
0.00152819
0.0148311
-0.000981272
0.00173418
0.0323338
0.00138159
0.0493481
0.000703233
0.0655991
-5.51826e-05
0.0822198
-0.000857944
0.100101
-0.00160805
0.121483
-0.00225649
0.151521
-0.00204414
0.200215
0.259753
0.00168516
0.0141136
-0.00096765
0.00217034
0.0318486
0.00205101
0.0494675
0.00152975
0.0661204
0.000835888
0.0829137
-3.17361e-06
0.10094
-0.000717375
0.122198
-0.00146748
0.152271
-0.0014879
0.200236
0.258265
0.0018872
0.0132452
-0.00101882
0.00265181
0.031084
0.00277528
0.049344
0.00241478
0.0664809
0.00179841
0.0835301
0.00103327
0.101705
0.00024229
0.122989
-0.000648056
0.153161
-0.000907409
0.200495
0.257358
0.00212612
-0.00113991
0.0031613
0.00353983
0.00334732
0.00281209
0.00206321
0.00119574
0.000202347
-0.000300366
0.000152956
-0.00124374
0.000443706
-0.00286692
0.000814458
-0.00395372
0.00123317
-0.00464684
0.00168267
-0.00504833
0.00215507
-0.00523427
0.00264859
-0.00526244
0.00316644
-0.00517676
0.0037187
-0.0050111
-0.00479477
0.000154262
-0.001398
0.0004367
-0.00314936
0.000786285
-0.00430331
0.00117042
-0.00503097
0.0015728
-0.00545071
0.00198703
-0.00564849
0.00241277
-0.00568818
0.00285376
-0.00561776
0.00331689
-0.00547423
-0.00528896
0.000148197
-0.0015462
0.000407235
-0.0034084
0.000715603
-0.00461167
0.00104205
-0.00535742
0.0013726
-0.00578127
0.00170353
-0.00597942
0.00203708
-0.00602173
0.00237884
-0.00595951
0.00273567
-0.00583107
-0.00566679
0.000134125
-0.00168032
0.000354371
-0.00362864
0.000602065
-0.00485937
0.000849403
-0.00560476
0.00108607
-0.00601794
0.00131181
-0.00620515
0.00153181
-0.00624174
0.00175388
-0.00618158
0.00198646
-0.00606365
-0.00591766
0.000111825
-0.00179214
0.000278486
-0.0037953
0.000447881
-0.00502876
0.000597807
-0.00575468
0.000722754
-0.00614288
0.000826339
-0.00630874
0.000916675
-0.00633208
0.00100341
-0.00626832
0.00109587
-0.00615611
-0.00602841
8.15382e-05
-0.00187368
0.000181283
-0.00389505
0.000257647
-0.00510513
0.000296052
-0.00579309
0.000296621
-0.00614345
0.00026693
-0.00627905
0.000217624
-0.00628277
0.000160004
-0.0062107
0.00010385
-0.00609996
-0.00597313
4.40188e-05
-0.0019177
6.56557e-05
-0.00391669
3.79603e-05
-0.00507743
-4.44845e-05
-0.00571064
-0.000175442
-0.0060125
-0.000343594
-0.00611089
-0.000536327
-0.00609004
-0.000742026
-0.006005
-0.000951148
-0.00589084
-0.00577257
-7.27859e-07
-0.00191697
-6.44245e-05
-0.00385299
-0.00020309
-0.00493877
-0.000410816
-0.00550292
-0.000675169
-0.00574814
-0.000981685
-0.00580438
-0.00131664
-0.00575508
-0.00166855
-0.00565308
-0.00202837
-0.00553101
-0.00541115
-4.84427e-05
-0.00186853