/*--------------------------------*- C++ -*----------------------------------*\
  =========                 |
  \\      /  F ield         | OpenFOAM: The Open Source CFD Toolbox
   \\    /   O peration     | Website:  https://openfoam.org
    \\  /    A nd           | Version:  7
     \\/     M anipulation  |
\*---------------------------------------------------------------------------*/
FoamFile
{
    version     2.0;
    format      ascii;
    class       volScalarField;
    location    "0.7";
    object      p;
}
// * * * * * * * * * * * * * * * * * * * * * * * * * * * * * * * * * * * * * //

dimensions      [0 2 -2 0 0 0 0];

internalField   nonuniform List<scalar> 
32000
(
3.3077
3.30417
3.30417
3.3078
3.31298
3.31851
3.32485
3.33259
3.3417
3.35176
3.36228
3.37291
3.38341
3.3936
3.40339
3.41274
3.42162
3.43005
3.43805
3.44568
3.453
3.46007
3.46692
3.4736
3.48015
3.48659
3.49295
3.49924
3.5055
3.51176
3.51804
3.52433
3.53065
3.53701
3.5434
3.54983
3.55631
3.56287
3.56949
3.57607
3.29566
3.29228
3.29228
3.2959
3.30104
3.30651
3.31282
3.32056
3.3297
3.33982
3.35045
3.36118
3.37175
3.38201
3.39185
3.40123
3.41014
3.4186
3.42663
3.43429
3.44162
3.44868
3.45552
3.46217
3.46869
3.47509
3.4814
3.48763
3.49382
3.49999
3.50616
3.51235
3.51855
3.52479
3.53105
3.53735
3.5437
3.55011
3.55657
3.563
3.28334
3.28022
3.28026
3.28387
3.28897
3.29439
3.30067
3.3084
3.31756
3.32775
3.33848
3.34931
3.35996
3.37028
3.38015
3.38955
3.39849
3.40697
3.41503
3.4227
3.43003
3.43709
3.44391
3.45054
3.45702
3.46337
3.46962
3.47579
3.4819
3.48798
3.49405
3.50012
3.50621
3.51232
3.51845
3.52461
3.53082
3.53708
3.54338
3.54966
3.27082
3.26804
3.26813
3.27172
3.27677
3.28215
3.2884
3.29611
3.30529
3.31555
3.32637
3.3373
3.34803
3.3584
3.36829
3.37771
3.38667
3.39518
3.40325
3.41093
3.41826
3.42531
3.4321
3.4387
3.44514
3.45144
3.45763
3.46373
3.46976
3.47574
3.48171
3.48766
3.49362
3.4996
3.5056
3.51162
3.51768
3.52379
3.52994
3.53605
3.25817
3.2557
3.25586
3.25944
3.26443
3.26977
3.27598
3.28368
3.29289
3.30323
3.31414
3.32516
3.33597
3.34637
3.35629
3.36573
3.3747
3.38322
3.39131
3.39899
3.40631
3.41334
3.42011
3.42667
3.43306
3.43931
3.44543
3.45145
3.45739
3.46329
3.46914
3.47497
3.4808
3.48665
3.49251
3.49839
3.50429
3.51025
3.51624
3.52219
3.24541
3.24323
3.24346
3.24705
3.25198
3.25728
3.26345
3.27114
3.2804
3.29081
3.3018
3.3129
3.32377
3.33421
3.34416
3.35362
3.3626
3.37112
3.3792
3.38688
3.39419
3.4012
3.40793
3.41446
3.4208
3.42698
3.43303
3.43897
3.44482
3.45062
3.45636
3.46206
3.46776
3.47346
3.47918
3.48491
3.49066
3.49646
3.50228
3.50807
3.23255
3.23063
3.23094
3.23453
3.23942
3.24468
3.25082
3.25851
3.26781
3.27829
3.28935
3.30052
3.31145
3.32193
3.33191
3.34138
3.35036
3.35887
3.36694
3.37461
3.38191
3.38889
3.39559
3.40207
3.40835
3.41446
3.42043
3.42628
3.43205
3.43774
3.44335
3.44893
3.45449
3.46005
3.46562
3.4712
3.4768
3.48243
3.48809
3.4937
3.21957
3.21793
3.2183
3.2219
3.22675
3.23197
3.2381
3.24581
3.25515
3.26568
3.27682
3.28805
3.29903
3.30955
3.31955
3.32903
3.33801
3.3465
3.35456
3.3622
3.36947
3.37643
3.38309
3.38952
3.39573
3.40176
3.40765
3.41341
3.41908
3.42465
3.43015
3.43559
3.44101
3.44642
3.45183
3.45726
3.4627
3.46817
3.47365
3.47909
3.20649
3.20513
3.20557
3.20918
3.21399
3.21918
3.2253
3.23303
3.24243
3.25302
3.26421
3.27549
3.28651
3.29706
3.30707
3.31656
3.32554
3.33402
3.34204
3.34966
3.3569
3.36381
3.37043
3.3768
3.38294
3.38889
3.39468
3.40035
3.40591
3.41137
3.41673
3.42204
3.42732
3.43258
3.43783
3.4431
3.44837
3.45368
3.45899
3.46424
3.19334
3.19225
3.19275
3.19637
3.20115
3.20631
3.21244
3.22021
3.22965
3.24028
3.25153
3.26286
3.2739
3.28447
3.29451
3.30399
3.31296
3.32142
3.32942
3.33699
3.34419
3.35106
3.35762
3.36392
3.36998
3.37585
3.38155
3.38712
3.39256
3.39789
3.40312
3.4083
3.41343
3.41853
3.42363
3.42872
3.43383
3.43897
3.44411
3.44917
3.18011
3.17929
3.17985
3.18347
3.18823
3.19338
3.19953
3.20734
3.21682
3.2275
3.23879
3.25015
3.26122
3.27181
3.28186
3.29134
3.30028
3.30872
3.31669
3.32421
3.33136
3.33817
3.34467
3.35089
3.35687
3.36264
3.36825
3.37371
3.37903
3.38422
3.38933
3.39436
3.39934
3.40429
3.40922
3.41414
3.41909
3.42406
3.42901
3.43389
3.16682
3.16627
3.16689
3.17051
3.17524
3.18039
3.18656
3.19442
3.20395
3.21468
3.226
3.23738
3.24847
3.25908
3.26913
3.2786
3.28752
3.29593
3.30384
3.31132
3.31841
3.32516
3.33159
3.33773
3.34361
3.34929
3.35479
3.36013
3.36532
3.37039
3.37536
3.38025
3.38507
3.38985
3.39461
3.39938
3.40415
3.40895
3.41372
3.4184
3.15349
3.1532
3.15387
3.15749
3.1622
3.16735
3.17356
3.18146
3.19104
3.20182
3.21318
3.22458
3.23568
3.24629
3.25633
3.2658
3.27469
3.28304
3.2909
3.29833
3.30536
3.31204
3.31838
3.32443
3.33022
3.33579
3.34118
3.3464
3.35146
3.35639
3.36122
3.36596
3.37062
3.37523
3.37983
3.38443
3.38903
3.39365
3.39823
3.40271
3.14011
3.14008
3.14081
3.14443
3.14912
3.15428
3.16053
3.16848
3.17812
3.18894
3.20033
3.21175
3.22285
3.23345
3.24348
3.25292
3.26178
3.27008
3.27788
3.28525
3.29222
3.29882
3.30507
3.31101
3.31669
3.32216
3.32743
3.33252
3.33745
3.34225
3.34692
3.3515
3.356
3.36045
3.36488
3.36931
3.37374
3.37817
3.38255
3.38683
3.1267
3.12692
3.12771
3.13134
3.13602
3.14119
3.14748
3.15549
3.16518
3.17604
3.18746
3.1989
3.21
3.22058
3.23058
3.23999
3.24881
3.25705
3.2648
3.2721
3.27899
3.28549
3.29164
3.29748
3.30305
3.3084
3.31355
3.31851
3.32331
3.32796
3.33248
3.33689
3.34122
3.34551
3.34977
3.35403
3.35827
3.36253
3.36671
3.37077
3.11326
3.11373
3.11458
3.11823
3.1229
3.12809
3.13442
3.14249
3.15224
3.16314
3.17458
3.18603
3.19713
3.20769
3.21766
3.22702
3.23578
3.24397
3.25165
3.25887
3.26568
3.27208
3.27812
3.28385
3.28931
3.29454
3.29956
3.30439
3.30905
3.31354
3.31789
3.32214
3.32631
3.33043
3.33452
3.33859
3.34266
3.34672
3.3507
3.35454
3.09979
3.10052
3.10142
3.10509
3.10976
3.11497
3.12136
3.12949
3.1393
3.15026
3.16172
3.17316
3.18425
3.19479
3.20472
3.21403
3.22272
3.23084
3.23845
3.24559
3.2523
3.25859
3.26452
3.27013
3.27547
3.28057
3.28547
3.29016
3.29467
3.299
3.30319
3.30726
3.31127
3.31522
3.31913
3.32302
3.3269
3.33076
3.33453
3.33814
3.0863
3.08727
3.08824
3.09193
3.0966
3.10186
3.10831
3.11651
3.12639
3.13739
3.14888
3.16031
3.17137
3.18188
3.19177
3.20101
3.20963
3.21767
3.2252
3.23225
3.23885
3.24504
3.25084
3.25633
3.26154
3.26652
3.27128
3.27584
3.28019
3.28435
3.28837
3.29228
3.29612
3.29989
3.30363
3.30733
3.31101
3.31467
3.31821
3.32159
3.07279
3.07401
3.07504
3.07876
3.08344
3.08874
3.09527
3.10356
3.1135
3.12455
3.13606
3.14749
3.15851
3.16897
3.17881
3.18798
3.19652
3.20448
3.21192
3.21887
3.22536
3.23142
3.23711
3.24247
3.24755
3.25239
3.25701
3.26142
3.26561
3.26962
3.27347
3.27721
3.28087
3.28448
3.28803
3.29154
3.29501
3.29845
3.30176
3.3049
3.05926
3.06074
3.06183
3.06558
3.07028
3.07564
3.08226
3.09064
3.10065
3.11175
3.12328
3.13469
3.14567
3.15608
3.16586
3.17496
3.18341
3.19127
3.19861
3.20545
3.21183
3.21777
3.22332
3.22855
3.2335
3.2382
3.24267
3.24693
3.25096
3.25481
3.25849
3.26206
3.26555
3.26898
3.27235
3.27565
3.27891
3.28214
3.28521
3.28811
3.04574
3.04747
3.04862
3.05239
3.05713
3.06255
3.06927
3.07775
3.08785
3.099
3.11053
3.12193
3.13287
3.14322
3.15293
3.16195
3.1703
3.17806
3.18528
3.19201
3.19826
3.20408
3.2095
3.21459
3.2194
3.22395
3.22827
3.23237
3.23625
3.23993
3.24344
3.24685
3.25017
3.25342
3.25659
3.25969
3.26273
3.26574
3.26858
3.27121
3.03222
3.03421
3.03542
3.03922
3.04399
3.04949
3.05631
3.06491
3.07511
3.0863
3.09783
3.1092
3.12011
3.1304
3.14003
3.14896
3.15721
3.16485
3.17196
3.17855
3.18468
3.19036
3.19565
3.2006
3.20526
3.20966
3.21383
3.21778
3.22149
3.225
3.22834
3.23158
3.23473
3.23779
3.24077
3.24367
3.24649
3.24928
3.25187
3.25424
3.0187
3.02095
3.02222
3.02606
3.03088
3.03646
3.0434
3.05212
3.06242
3.07367
3.0852
3.09654
3.1074
3.11763
3.12717
3.136
3.14414
3.15166
3.15863
3.1651
3.17109
3.17664
3.18179
3.18659
3.19109
3.19534
3.19936
3.20314
3.20669
3.21003
3.21321
3.21627
3.21924
3.22212
3.2249
3.22759
3.2302
3.23277
3.23511
3.23721
3.0052
3.0077
3.00904
3.01291
3.01778
3.02347
3.03055
3.0394
3.0498
3.0611
3.07264
3.08394
3.09475
3.10491
3.11436
3.12308
3.1311
3.13849
3.14532
3.15164
3.1575
3.16291
3.16792
3.17257
3.17692
3.18101
3.18487
3.18849
3.19187
3.19504
3.19805
3.20093
3.20373
3.20642
3.20901
3.21149
3.21389
3.21623
3.21831
3.22014
2.99171
2.99446
2.99587
2.99979
3.00473
3.01053
3.01776
3.02675
3.03725
3.0486
3.06015
3.07142
3.08216
3.09225
3.1016
3.11021
3.1181
3.12535
3.13204
3.13821
3.14392
3.14919
3.15405
3.15855
3.16274
3.16668
3.17038
3.17383
3.17704
3.18004
3.18287
3.18559
3.1882
3.19071
3.1931
3.19538
3.19757
3.19969
3.20152
3.20308
2.97823
2.98124
2.98274
2.98671
2.99172
2.99765
3.00505
3.01418
3.02478
3.03619
3.04774
3.05898
3.06965
3.07965
3.0889
3.09739
3.10515
3.11226
3.11879
3.12481
3.13036
3.13548
3.14018
3.14453
3.14857
3.15235
3.15588
3.15916
3.1622
3.16503
3.1677
3.17025
3.17269
3.17501
3.17721
3.17929
3.18128
3.18318
3.18476
3.18606
2.96477
2.96804
2.96963
2.97367
2.97876
2.98483
2.9924
3.0017
3.0124
3.02386
3.03542
3.04662
3.05722
3.06713
3.07627
3.08463
3.09226
3.09921
3.10559
3.11145
3.11684
3.12179
3.12634
3.13053
3.13441
3.13803
3.1414
3.1445
3.14737
3.15004
3.15254
3.15492
3.15718
3.15932
3.16134
3.16323
3.16502
3.16671
3.16805
3.16911
2.95134
2.95487
2.95655
2.96066
2.96586
2.97209
2.97984
2.9893
3.00012
3.01163
3.02319
3.03435
3.04488
3.05468
3.06371
3.07194
3.07942
3.08622
3.09243
3.09813
3.10335
3.10814
3.11252
3.11655
3.12028
3.12374
3.12693
3.12986
3.13255
3.13505
3.13739
3.13961
3.1417
3.14367
3.14551
3.14722
3.14882
3.15031
3.15143
3.15227
2.93794
2.94174
2.9435
2.9477
2.95302
2.95943
2.96737
2.977
2.98794
2.9995
3.01106
3.02218
3.03263
3.04233
3.05123
3.05932
3.06665
3.07329
3.07934
3.08486
3.08992
3.09453
3.09875
3.10262
3.10619
3.10947
3.11248
3.11522
3.11774
3.12008
3.12226
3.12431
3.12624
3.12804
3.12972
3.13126
3.13269
3.134
3.13492
3.13557
2.92457
2.92863
2.9305
2.93479
2.94026
2.94685
2.955
2.96481
2.97588
2.98749
2.99904
3.01011
3.02048
3.03007
3.03883
3.04678
3.05395
3.06043
3.06631
3.07166
3.07654
3.08098
3.08503
3.08874
3.09213
3.09523
3.09805
3.10062
3.10296
3.10513
3.10715
3.10904
3.11081
3.11245
3.11396
3.11535
3.11662
3.11777
3.11852
3.11903
2.91124
2.91557
2.91756
2.92196
2.92757
2.93437
2.94274
2.95274
2.96393
2.97559
2.98713
2.99815
3.00844
3.01791
3.02653
3.03432
3.04133
3.04765
3.05335
3.05853
3.06322
3.06749
3.07137
3.07491
3.07812
3.08104
3.08367
3.08604
3.0882
3.0902
3.09205
3.09378
3.09539
3.09688
3.09824
3.09948
3.10061
3.10163
3.10225
3.10265
2.89796
2.90255
2.90468
2.90919
2.91497
2.922
2.9306
2.9408
2.9521
2.96381
2.97534
2.9863
2.99651
3.00585
3.01433
3.02196
3.0288
3.03495
3.04048
3.04547
3.04999
3.05407
3.05777
3.06113
3.06417
3.06689
3.06933
3.07151
3.07348
3.0753
3.07699
3.07855
3.08
3.08133
3.08254
3.08364
3.08465
3.08555
3.08608
3.08643
2.88474
2.8896
2.89187
2.89651
2.90246
2.90973
2.9186
2.92899
2.9404
2.95216
2.96368
2.97458
2.98469
2.99391
3.00223
3.00969
3.01637
3.02234
3.02769
3.0325
3.03683
3.04073
3.04425
3.04742
3.05027
3.0528
3.05503
3.05701
3.0588
3.06044
3.06194
3.06333
3.06461
3.06578
3.06685
3.06782
3.06871
3.06952
3.07
3.07033
2.87161
2.87673
2.87914
2.88392
2.89006
2.89759
2.90672
2.91732
2.92884
2.94064
2.95215
2.96299
2.973
2.98208
2.99025
2.99754
3.00404
3.00982
3.01499
3.01961
3.02375
3.02747
3.0308
3.03378
3.03643
3.03875
3.04078
3.04256
3.04415
3.0456
3.04691
3.04812
3.04922
3.05022
3.05114
3.05198
3.05276
3.05349
3.05395
3.05432
2.85857
2.86395
2.8665
2.87142
2.87777
2.88558
2.89498
2.90579
2.91743
2.92927
2.94076
2.95154
2.96143
2.97038
2.97838
2.9855
2.99181
2.99741
3.00239
3.00682
3.01077
3.01429
3.01742
3.0202
3.02265
3.02476
3.02658
3.02816
3.02954
3.03078
3.03189
3.0329
3.0338
3.03463
3.03538
3.03608
3.03676
3.03741
3.03788
3.03833
2.84563
2.85127
2.85395
2.85903
2.86561
2.8737
2.88339
2.89442
2.90618
2.91805
2.92952
2.94023
2.95
2.9588
2.96664
2.97358
2.9797
2.98511
2.9899
2.99414
2.99789
3.00121
3.00414
3.00671
3.00893
3.01083
3.01244
3.01379
3.01496
3.01598
3.01688
3.01766
3.01836
3.01898
3.01955
3.02009
3.02064
3.0212
3.02168
3.02225
2.8328
2.83869
2.84152
2.84677
2.85359
2.86198
2.87196
2.8832
2.89509
2.907
2.91843
2.92906
2.93872
2.94737
2.95504
2.96179
2.96772
2.97293
2.97753
2.98157
2.98513
2.98824
2.99095
2.9933
2.99531
2.99698
2.99836
2.99949
3.00043
3.00122
3.00187
3.00242
3.00287
3.00326
3.00361
3.00396
3.00436
3.0048
3.00529
3.00603
2.8201
2.82625
2.82923
2.83466
2.84172
2.85043
2.8607
2.87216
2.88418
2.89612
2.90751
2.91804
2.92758
2.93608
2.94357
2.95014
2.95587
2.96089
2.96528
2.96913
2.97248
2.97538
2.97788
2.98
2.98177
2.98321
2.98435
2.98525
2.98594
2.98648
2.98688
2.98715
2.98732
2.98743
2.98752
2.98763
2.98784
2.98817
2.98872
2.98989
2.80754
2.81394
2.8171
2.82271
2.83003
2.83905
2.84961
2.8613
2.87344
2.88541
2.89675
2.90719
2.9166
2.92495
2.93226
2.93863
2.94417
2.94899
2.95318
2.95683
2.95997
2.96265
2.96492
2.96681
2.96835
2.96955
2.97044
2.97108
2.97152
2.97179
2.9719
2.97186
2.97172
2.97148
2.97121
2.97099
2.97088
2.97098
2.97175
2.97394
2.79511
2.80177
2.80511
2.81092
2.8185
2.82784
2.83871
2.85062
2.86289
2.87487
2.88616
2.8965
2.90579
2.91397
2.92111
2.92729
2.93263
2.93724
2.94123
2.94467
2.94759
2.95006
2.9521
2.95375
2.95504
2.95599
2.95664
2.95701
2.95718
2.95716
2.95695
2.95658
2.95606
2.95542
2.95468
2.95391
2.95314
2.95247
2.95273
2.9554
3.59894
3.64172
3.68306
3.72569
3.7691
3.81306
3.85752
3.90247
3.94786
3.99377
4.0403
4.08752
4.1354
4.18395
4.23325
4.28342
4.33456
4.38677
4.44018
4.49488
4.55098
4.60847
4.66744
4.72791
4.78994
4.85352
4.91864
4.98532
5.05361
5.12384
5.19519
5.26933
5.34299
5.4225
5.49704
5.58436
5.65716
5.75583
5.82196
5.93996
3.58559
3.62915
3.67062
3.7134
3.75692
3.80098
3.84545
3.89038
3.93585
3.9818
4.02828
4.07553
4.12346
4.17199
4.22127
4.27148
4.32262
4.37481
4.42822
4.48292
4.53903
4.59654
4.65549
4.71598
4.778
4.84157
4.90667
4.97311
5.04134
5.11151
5.18286
5.25697
5.33063
5.41012
5.48468
5.57201
5.64484
5.74353
5.80971
5.9277
3.57198
3.61633
3.65791
3.70087
3.74452
3.78866
3.83315
3.8781
3.92363
3.96961
4.01607
4.06334
4.11131
4.15982
4.2091
4.25934
4.31047
4.36265
4.41607
4.47076
4.5269
4.58442
4.64335
4.70388
4.7659
4.82944
4.89453
4.96073
5.0289
5.09902
5.17035
5.24444
5.3181
5.39759
5.47217
5.55954
5.63239
5.73114
5.79738
5.91535
3.55811
3.60324
3.64496
3.68812
3.73189
3.77609
3.82064
3.86563
3.91118
3.9572
4.00369
4.05097
4.09894
4.14745
4.19676
4.24699
4.29812
4.35031
4.40373
4.45843
4.51456
4.57209
4.63104
4.69159
4.75362
4.81715
4.88215
4.94819
5.01629
5.08636
5.15766
5.23172
5.30541
5.38491
5.45953
5.54694
5.61982
5.71865
5.78495
5.90291
3.54399
3.58991
3.63176
3.67515
3.71904
3.76328
3.80791
3.85295
3.89851
3.94458
3.99112
4.0384
4.08636
4.13489
4.18423
4.23444
4.28557
4.33779
4.3912
4.44591
4.50203
4.55957
4.61855
4.67911
4.74116
4.80466
4.8694
4.93546
5.0035
5.07353
5.1448
5.21885
5.29257
5.3721
5.44675
5.53423
5.60715
5.70605
5.77243
5.89039
3.52959
3.57634
3.61832
3.66195
3.70597
3.75026
3.79497
3.84006
3.88565
3.93176
3.97835
4.02563
4.0736
4.12215
4.1715
4.22171
4.27283
4.32507
4.37848
4.43319
4.4893
4.54686
4.60587
4.66645
4.72852
4.79199
4.85647
4.92254
4.99054
5.06054
5.13179
5.20583
5.27958
5.35915
5.43384
5.5214
5.59439
5.69337
5.7598
5.87777
3.51495
3.56255
3.60465
3.64852
3.69268
3.73704
3.78182
3.82696
3.87259
3.91875
3.96538
4.01267
4.06065
4.10921
4.15859
4.20879
4.25991
4.31216
4.36557
4.42029
4.4764
4.53397
4.59301
4.65361
4.71569
4.77912
4.84336
4.90944
4.97741
5.0474
5.11862
5.19267
5.26645
5.34607
5.42082
5.50847
5.58156
5.6806
5.74708
5.86506
3.50005
3.54853
3.59075
3.63489
3.67918
3.7236
3.76846
3.81366
3.85934
3.90554
3.95222
3.99954
4.04753
4.0961
4.14549
4.19569
4.24681
4.29907
4.35248
4.4072
4.46331
4.52089
4.57996
4.64058
4.70267
4.76597
4.83004
4.89617
4.96412
5.03409
5.10531
5.17937
5.25319
5.33288
5.40769
5.49546
5.56866
5.66775
5.73426
5.85226
3.48492
3.53429
3.57664
3.62104
3.66547
3.70997
3.7549
3.80016
3.8459
3.89215
3.93888
3.98622
4.03423
4.0828
4.1322
4.18241
4.23352
4.28579
4.33919
4.39392
4.45004
4.50764
4.56672
4.62736
4.68945
4.75247
4.81648
4.88273
4.95066
5.02063
5.09185
5.16594
5.2398
5.31958
5.39449
5.48239
5.5557
5.6548
5.72136
5.8394
3.46957
3.51984
3.56231
3.60699
3.65155
3.69613
3.74114
3.78647
3.83227
3.87858
3.92536
3.97273
4.02075
4.06934
4.11874
4.16895
4.22006
4.27233
4.32574
4.38046
4.4366
4.4942
4.5533
4.61397
4.67606
4.73885
4.80283
4.86913
4.93706
5.00703
5.07826
5.15239
5.2263
5.30619
5.38122
5.46926
5.54265
5.64178
5.70838
5.82649
3.454
3.50519
3.54777
3.59273
3.63744
3.6821
3.72719
3.77258
3.81846
3.86483
3.91166
3.95907
4.0071
4.0557
4.10511
4.15532
4.20643
4.2587
4.31211
4.36683
4.42297
4.48059
4.5397
4.60039
4.66247
4.72507
4.78904
4.85538
4.9233
4.99328
5.06453
5.13871
5.21269
5.29273
5.36789
5.45606
5.52951
5.62867
5.69532
5.81353
3.43823
3.49033
3.53305
3.57828
3.62313
3.66787
3.71305
3.75851
3.80446
3.8509
3.89779
3.94524
3.99328
4.0419
4.09131
4.14153
4.19263
4.2449
4.29832
4.35303
4.40917
4.4668
4.52593
4.58664
4.64866
4.71112
4.77512
4.84147
4.9094
4.97939
5.05067
5.12491
5.199
5.2792
5.3545
5.44278
5.51627
5.61549
5.68219
5.8005
3.42227
3.47528
3.51813
3.56364
3.60862
3.65345
3.69871
3.74426
3.79029
3.83681
3.88375
3.93124
3.97931
4.02795
4.07735
4.12758
4.17868
4.23094
4.28436
4.33906
4.3952
4.45285
4.51199
4.5727
4.63457
4.69701
4.76104
4.82741
4.89536
4.96537
5.03669
5.11101
5.18524
5.26561
5.34101
5.42942
5.50292
5.60225
5.66898
5.78737
3.40613
3.46004
3.50303
3.5488
3.59393
3.63884
3.68419
3.72982
3.77595
3.82254
3.86955
3.91709
3.96518
4.01384
4.06324
4.11348
4.16458
4.21682
4.27024
4.32493
4.38107
4.43872
4.49788
4.55858
4.62021
4.68273
4.74682
4.81322
4.88119
4.95123
5.0226
5.09702
5.17141
5.25192
5.32744
5.41596
5.48947
5.58893
5.65568
5.77414
3.38982
3.44462
3.48777
3.53379
3.57905
3.62403
3.66948
3.71521
3.76144
3.80812
3.8552
3.90279
3.9509
3.99958
4.04899
4.09922
4.15032
4.20255
4.25597
4.31065
4.36677
4.42443
4.4836
4.5443
4.60574
4.66828
4.73246
4.79888
4.86689
4.93697
5.0084
5.08296
5.1575
5.23814
5.31377
5.4024
5.47592
5.57553
5.6423
5.7608
3.37335
3.42902
3.47234
3.51859
3.56399
3.60904
3.65459
3.70043
3.74677
3.79355
3.8407
3.88834
3.93648
3.98517
4.03458
4.08481
4.13591
4.18814
4.24154
4.29621
4.35232
4.40997
4.46914
4.52985
4.59114
4.65368
4.71796
4.78442
4.85246
4.92259
4.99409
5.06881
5.1435
5.22426
5.29999
5.38873
5.46227
5.56203
5.62883
5.74737
3.35674
3.41326
3.45675
3.50322
3.54873
3.59387
3.63952
3.68549
3.73195
3.77883
3.82607
3.87376
3.92193
3.97063
4.02004
4.07027
4.12136
4.17358
4.22696
4.28162
4.33772
4.39534
4.45452
4.51522
4.57639
4.63889
4.70333
4.76982
4.83792
4.9081
4.97969
5.05458
5.12939
5.21027
5.28611
5.37493
5.44851
5.54842
5.61526
5.73385
3.34
3.39735
3.44102
3.48767
3.53329
3.57851
3.62427
3.6704
3.71698
3.76398
3.8113
3.85905
3.90724
3.95596
4.00536
4.05559
4.10668
4.15888
4.21225
4.26688
4.32297
4.38057
4.43974
4.50042
4.56151
4.62395
4.68857
4.75511
4.82326
4.8935
4.96521
5.04026
5.11518
5.19618
5.2721
5.361
5.43462
5.5347
5.6016
5.72024
3.32315
3.38129
3.42513
3.47194
3.51765
3.56297
3.60886
3.65515
3.70188
3.749
3.79641
3.84421
3.89243
3.94116
3.99057
4.04078
4.09186
4.14404
4.19739
4.25201
4.30806
4.36563
4.42479
4.48544
4.54649
4.60896
4.67369
4.74028
4.8085
4.8788
4.95065
5.02584
5.10085
5.18199
5.25796
5.34695
5.42063
5.52086
5.58784
5.70655
3.30619
3.36508
3.4091
3.45603
3.50182
3.54724
3.59327
3.63974
3.68663
3.7339
3.78139
3.82926
3.87751
3.92625
3.97566
4.02586
4.07693
4.12908
4.1824
4.23699
4.29302
4.35056
4.40969
4.47025
4.53135
4.59388
4.65869
4.72534
4.79363
4.86401
4.93601
5.01131
5.08642
5.16769
5.2437
5.33278
5.40652
5.5069
5.57399
5.69278
3.28913
3.34875
3.39293
3.43994
3.48578
3.53132
3.57752
3.6242
3.67126
3.71867
3.76626
3.81419
3.86248
3.91123
3.96064
4.01083
4.06188
4.11399
4.16728
4.22184
4.27784
4.33534
4.39444
4.45484
4.51609
4.57869
4.64358
4.71028
4.77865
4.84912
4.92128
4.99668
5.07188
5.15326
5.22932
5.31851
5.39231
5.49284
5.56006
5.67892
3.27199
3.33229
3.3766
3.42365
3.46953
3.51521
3.56161
3.60852
3.65578
3.70334
3.75102
3.79902
3.84734
3.89612
3.94552
3.99569
4.04672
4.09879
4.15205
4.20657
4.26253
4.31998
4.37905
4.43935
4.50071
4.5634
4.62836
4.69512
4.76358
4.83413
4.90644
4.98195
5.05723
5.13872
5.21482
5.30413
5.37799
5.47868
5.54605
5.66498
3.25478
3.3157
3.36012
3.40714
3.45307
3.49891
3.54556
3.59271
3.64018
3.6879
3.73569
3.78375
3.83212
3.88091
3.93031
3.98046
4.03145
4.08349
4.1367
4.19118
4.24708
4.30449
4.36353
4.42376
4.48521
4.548
4.61302
4.67985
4.74841
4.81907
4.8915
4.9671
5.04248
5.12405
5.2002
5.28965
5.36357
5.46443
5.53196
5.65096
3.23751
3.299
3.34347
3.39042
3.4364
3.48243
3.52937
3.5768
3.62449
3.67237
3.72028
3.7684
3.81681
3.86561
3.915
3.96512
4.01609
4.06808
4.12124
4.17567
4.23152
4.28888
4.34788
4.40807
4.4696
4.53249
4.59758
4.66448
4.73314
4.80392
4.87646
4.95215
5.02763
5.10927
5.18547
5.27506
5.34905
5.45008
5.51777
5.63686
3.22019
3.28218
3.32663
3.37347
3.4195
3.4658
3.51305
3.56079
3.60871
3.65676
3.70479
3.75297
3.80142
3.85022
3.89961
3.94971
4.00063
4.05257
4.10569
4.16006
4.21584
4.27316
4.33211
4.39228
4.45388
4.51688
4.58204
4.64902
4.71777
4.78868
4.86131
4.93709
5.01267
5.09438
5.17064
5.26038
5.33443
5.43564
5.50349
5.62266
3.20285
3.26523
3.30957
3.35626
3.40239
3.44901
3.49662
3.54469
3.59285
3.64107
3.68922
3.73748
3.78596
3.83476
3.88413
3.93421
3.98509
4.03698
4.09004
4.14434
4.20006
4.25732
4.31623
4.37638
4.43806
4.50117
4.56639
4.63345
4.70231
4.77336
4.84607
4.92193
4.99762
5.07938
5.1557
5.24558
5.31971
5.42111
5.48912
5.60839
3.1855
3.24813
3.29226
3.3388
3.38507
3.43208
3.48009
3.52852
3.57692
3.62532
3.67359
3.72192
3.77043
3.81923
3.86859
3.91863
3.96947
4.02131
4.0743
4.12854
4.18419
4.24138
4.30024
4.36039
4.42214
4.48535
4.55065
4.6178
4.68675
4.75794
4.83073
4.90667
4.98245
5.06427
5.14065
5.23069
5.30489
5.40649
5.47467
5.59403
3.16815
3.23084
3.27466
3.32106
3.36756
3.41504
3.46348
3.51228
3.56092
3.6095
3.6579
3.70629
3.75484
3.80365
3.85299
3.90299
3.95377
4.00555
4.05848
4.11265
4.16822
4.22535
4.28415
4.34431
4.40612
4.46944
4.53481
4.60204
4.6711
4.74241
4.81528
4.89129
4.96716
5.04906
5.1255
5.2157
5.28999
5.39178
5.46013
5.57958
3.15081
3.2133
3.25673
3.30304
3.34989
3.3979
3.44682
3.49598
3.54488
3.59363
3.64215
3.69061
3.7392
3.78801
3.83732
3.88729
3.93802
3.98973
4.04258
4.09669
4.15218
4.20923
4.26796
4.32815
4.39001
4.45343
4.51888
4.5862
4.65536
4.72677
4.79973
4.87581
4.95176
5.03373
5.11024
5.20061
5.27498
5.37697
5.44549
5.56506
3.13347
3.19544
3.23844
3.28476
3.33208
3.3807
3.43011
3.47964
3.52879
3.57771
3.62636
3.67488
3.7235
3.77232
3.82161
3.87152
3.9222
3.97384
4.02661
4.08066
4.13607
4.19303
4.25169
4.3119
4.37381
4.43733
4.50285
4.57026
4.63952
4.71104
4.78408
4.86023
4.93625
5.0183
5.09489
5.18542
5.25989
5.36208
5.43076
5.55045
3.11613
3.17718
3.21977
3.26626
3.31419
3.36347
3.41337
3.46327
3.51266
3.56175
3.61053
3.65911
3.70775
3.75659
3.80585
3.8557
3.90633
3.9579
4.01058
4.06457
4.11989
4.17677
4.23535
4.29557
4.35753
4.42114
4.48673
4.55424
4.62359
4.69521
4.76833
4.84455
4.92062
5.00277
5.07944
5.17013
5.2447
5.34709
5.41596
5.53577
3.09876
3.15845
3.20072
3.2476
3.29625
3.34624
3.39662
3.44687
3.49651
3.54576
3.59466
3.64331
3.69198
3.74082
3.79005
3.83984
3.89041
3.94191
3.99451
4.04842
4.10366
4.16044
4.21894
4.27916
4.34116
4.40486
4.47053
4.53813
4.60758
4.67928
4.7525
4.82878
4.9049
4.98713
5.06389
5.15475
5.22943
5.33202
5.40108
5.52103
3.08132
3.1392
3.18133
3.22884
3.27831
3.32901
3.37987
3.43046
3.48033
3.52974
3.57877
3.62748
3.67618
3.72502
3.77421
3.82395
3.87445
3.92588
3.9784
4.03223
4.08737
4.14407
4.20247
4.26268
4.32471
4.38851
4.45424
4.52194
4.59148
4.66328
4.73657
4.81292
4.88909
4.9714
5.04825
5.13928
5.21406
5.31685
5.38612
5.50622
3.06375
3.11939
3.16167
3.21003
3.26041
3.31179
3.36311
3.41401
3.46412
3.51369
3.56283
3.61162
3.66035
3.70917
3.75833
3.80801
3.85845
3.90981
3.96225
4.01599
4.07104
4.12764
4.18594
4.24613
4.30819
4.37208
4.43787
4.50566
4.57531
4.64719
4.72056
4.79696
4.87318
4.95557
5.03252
5.12371
5.19861
5.30159
5.3711
5.49135
3.04597
3.09906
3.14186
3.19127
3.24257
3.29459
3.34634
3.39754
3.44787
3.49761
3.54687
3.59573
3.64449
3.6933
3.74242
3.79205
3.84242
3.89371
3.94607
3.99971
4.05466
4.11116
4.16935
4.22951
4.2916
4.35556
4.42143
4.48931
4.55905
4.63103
4.70446
4.78092
4.85719
4.93965
5.0167
5.10805
5.18308
5.28623
5.35601
5.47642
3.02792
3.0785
3.12221
3.17279
3.22497
3.27756
3.3297
3.38115
3.4317
3.4816
3.53096
3.5799
3.62867
3.67747
3.72655
3.77612
3.82643
3.87764
3.9299
3.98344
4.03828
4.09467
4.15274
4.21285
4.27496
4.33899
4.40492
4.47289
4.54272
4.61479
4.68829
4.7648
4.84111
4.92365
5.0008
5.09231
5.16746
5.27079
5.34086
5.46143
3.00978
3.05812
3.10305
3.15478
3.20774
3.26081
3.31328
3.36495
3.4157
3.46574
3.51519
3.56418
3.61296
3.66174
3.71077
3.76028
3.8105
3.86162
3.91379
3.96721
4.02195
4.07823
4.13619
4.19621
4.25833
4.32242
4.38839
4.45644
4.52634
4.5985
4.67207
4.74862
4.82497
4.90758
4.98482
5.07649
5.15177
5.25527
5.32566
5.44636
2.99191
3.03773
3.08381
3.13655
3.19018
3.24368
3.29647
3.34838
3.39935
3.44954
3.49911
3.54818
3.59699
3.64577
3.69477
3.74423
3.79439
3.84544
3.89752
3.95085
4.00552
4.06171
4.11965
4.17954
4.24166
4.3058
4.37178
4.43988
4.50986
4.58211
4.65574
4.73233
4.80873
4.8914
4.96874
5.06056
5.13598
5.23967
5.31041
5.43126
2.97367
3.01616
3.06309
3.11664
3.17091
3.22487
3.27809
3.33034
3.38164
3.43209
3.48186
3.53109
3.58
3.62885
3.67789
3.72735
3.77749
3.8285
3.88054
3.93381
3.98842
4.04454
4.10242
4.16224
4.22441
4.28862
4.35469
4.4229
4.49305
4.56541
4.63913
4.71578
4.79224
4.87495
4.95241
5.04439
5.12001
5.22386
5.29509
5.41606
2.95663
2.99732
3.04442
3.09833
3.1531
3.20744
3.26104
3.31362
3.36523
3.41591
3.46585
3.5152
3.56418
3.61307
3.6621
3.71152
3.76158
3.81249
3.86441
3.91752
3.97193
4.02776
4.08511
4.14504
4.20732
4.2716
4.33809
4.40655
4.4769
4.54938
4.62318
4.69983
4.77636
4.859
4.9366
5.02859
5.10448
5.20824
5.28003
5.40091
2.91485
2.96032
3.00744
3.0613
3.11671
3.17161
3.22579
3.27884
3.33077
3.38161
3.43155
3.48077
3.5295
3.57803
3.62662
3.67553
3.72501
3.77531
3.82661
3.87906
3.93278
3.9878
4.04414
4.10267
4.16504
4.23007
4.29678
4.36523
4.43545
4.50776
4.58151
4.65789
4.73453
4.81683
4.89469
4.98624
5.06274
5.16567
5.23843
5.3581
2.85388
2.89945
2.94568
3.00019
3.05641
3.11202
3.1669
3.22057
3.27297
3.32413
3.37419
3.42333
3.47179
3.51988
3.56792
3.61621
3.66504
3.71468
3.76538
3.81733
3.87075
3.92582
3.98287
4.04182
4.10246
4.1658
4.23132
4.29888
4.36847
4.44006
4.51353
4.58973
4.66652
4.74878
4.82701
4.91839
4.99515
5.09803
5.17179
5.2905
2.79323
2.83821
2.88433
2.93842
2.99469
3.0508
3.10634
3.16063
3.2135
3.265
3.31521
3.36432
3.41257
3.4603
3.50784
3.55555
3.60373
3.65271
3.70275
3.7541
3.80697
3.86152
3.91802
3.97643
4.03682
4.09947
4.16429
4.23124
4.30027
4.37146
4.44465
4.52068
4.59755
4.6798
4.75838
4.84979
4.9271
5.0298
5.10431
5.22258
2.73198
2.77601
2.82169
2.87552
2.93174
2.98808
3.04406
3.09883
3.15212
3.20395
3.25437
3.30352
3.35166
3.3991
3.44623
3.49341
3.54101
3.58935
3.63877
3.68951
3.74182
3.79588
3.85175
3.9096
3.96952
4.0316
4.09585
4.16227
4.23085
4.30172
4.37467
4.45054
4.52745
4.60974
4.68864
4.78009
4.85801
4.96056
5.03576
5.1536
2.6707
2.71367
2.75861
2.81178
2.86759
2.92387
2.98006
3.03519
3.08885
3.14099
3.19163
3.24088
3.28896
3.33621
3.38299
3.42972
3.47677
3.52451
3.57329
3.6234
3.67508
3.72851
3.78384
3.84116
3.90057
3.96214
4.02589
4.09186
4.16005
4.23063
4.30337
4.37911
4.45604
4.53836
4.61756
4.70913
4.78755
4.89012
4.96589
5.08369
2.60874
2.65056
2.69452
2.74693
2.80226
2.85829
2.91452
2.96988
3.02382
3.07625
3.12711
3.17648
3.22457
3.27167
3.31818
3.36449
3.41104
3.45821
3.50636
3.55582
3.60686
3.65966
3.7144
3.77116
3.83005
3.89112
3.95441
4.01996
4.08781
4.15812
4.23068
4.30632
4.38326
4.46565
4.5451
4.63689
4.71576
4.81855
4.89491
5.013
2.54602
2.5867
2.62955
2.68103
2.73571
2.79133
2.84742
2.90287
2.95703
3.0097
3.06078
3.11031
3.15844
3.20545
3.25174
3.2977
3.34379
3.3904
3.43794
3.48676
3.53713
3.58929
3.64341
3.6996
3.75795
3.81852
3.88136
3.94653
4.01406
4.08412
4.15651
4.23207
4.30903
4.39152
4.47121
4.56329
4.64262
4.74582
4.82284
4.94148
2.48239
2.52192
2.56358
2.614
2.66792
2.723
2.77881
2.83422
2.8885
2.94136
2.99265
3.04234
3.09055
3.13753
3.18364
3.2293
3.27496
3.32105
3.36799
3.41615
3.46586
3.51735
3.57083
3.62642
3.68421
3.74428
3.80668
3.87147
3.93869
4.00851
4.08076
4.15625
4.23326
4.31586
4.3958
4.48823
4.56805
4.67186
4.74963
4.86909
2.41776
2.45614
2.49655
2.54583
2.59887
2.6533
2.7087
2.76395
2.81825
2.87125
2.92271
2.97256
3.02087
3.06786
3.11384
3.15924
3.20451
3.2501
3.29645
3.34397
3.393
3.44381
3.49662
3.55158
3.6088
3.66835
3.73029
3.7947
3.86162
3.93121
4.00332
4.07875
4.15582
4.23856
4.31877
4.41162
4.49195
4.59656
4.67515
4.79577
2.35209
2.38931
2.42842
2.47649
2.52857
2.58223
2.63709
2.69207
2.7463
2.79936
2.85096
2.90096
2.94938
2.9964
3.0423
3.08748
3.1324
3.17752
3.2233
3.27017
3.3185
3.36861
3.42074
3.47504
3.53165
3.59066
3.65214
3.71616
3.78276
3.85212
3.92409
3.99946
4.0766
4.15949
4.24003
4.33335
4.4142
4.51983
4.59924
4.72141
2.28533
2.3214
2.3592
2.406
2.45701
2.5098
2.56401
2.6186
2.67265
2.72569
2.77738
2.82751
2.87605
2.92312
2.96897
3.01397
3.05857
3.10325
3.14848
3.1947
3.24234
3.29172
3.34312
3.39674
3.45272
3.51116
3.57214
3.63574
3.70202
3.77114
3.84297
3.91828
3.99549
4.07855
4.15944
4.25327
4.33469
4.44149
4.52174
4.64579
2.21744
2.25238
2.28887
2.33434
2.38421
2.43602
2.48947
2.54354
2.59731
2.65025
2.70196
2.75219
2.80083
2.84796
2.89379
2.93865
2.98297
3.02723
3.07192
3.11752
3.16444
3.21308
3.26373
3.31662
3.37193
3.42976
3.49022
3.55338
3.6193
3.68817
3.75983
3.83508
3.91237
3.99559
4.07686
4.17122
4.25328
4.36133
4.44244
4.56863
2.14845
2.18224
2.21741
2.26153
2.31018
2.36091
2.41349
2.46693
2.5203
2.57304
2.6247
2.67497
2.72369
2.77089
2.81672
2.86146
2.90553
2.94941
2.99359
3.03855
3.08477
3.13264
3.18251
3.23464
3.28922
3.34641
3.40629
3.46897
3.53451
3.60309
3.67457
3.74973
3.82709
3.91048
3.99213
4.08703
4.16979
4.27913