/*--------------------------------*- C++ -*----------------------------------*\
  =========                 |
  \\      /  F ield         | OpenFOAM: The Open Source CFD Toolbox
   \\    /   O peration     | Website:  https://openfoam.org
    \\  /    A nd           | Version:  7
     \\/     M anipulation  |
\*---------------------------------------------------------------------------*/
FoamFile
{
    version     2.0;
    format      ascii;
    class       surfaceScalarField;
    location    "0.7";
    object      phi;
}
// * * * * * * * * * * * * * * * * * * * * * * * * * * * * * * * * * * * * * //

dimensions      [0 3 -1 0 0 0 0];

internalField   nonuniform List<scalar> 
63520
(
-1.42817e-05
0.00176925
-0.00175497
-1.79316e-05
0.00318953
-0.00318589
1.35275e-05
0.00310434
-0.0031358
9.57363e-05
0.00207116
-0.00215337
0.000236368
0.000542957
-0.000683588
0.000436159
-0.00115595
0.000956161
0.000690702
-0.00281109
0.00255654
0.000992103
-0.00429709
0.00399569
0.00133076
-0.00555186
0.0052132
0.00169678
-0.00655679
0.00619077
0.00208107
-0.00732126
0.00693697
0.00247595
-0.00787017
0.00747529
0.00287527
-0.00823543
0.0078361
0.00327451
-0.00845063
0.00805139
0.00367053
-0.00854735
0.00815133
0.00406124
-0.00855336
0.00816265
0.00444548
-0.00849221
0.00810797
0.00482275
-0.00838295
0.00800569
0.00519292
-0.00824056
0.00787039
0.00555611
-0.00807653
0.00771334
0.00591265
-0.00789958
0.00754304
0.00626299
-0.0077161
0.00736575
0.00660755
-0.00753058
0.00718602
0.00694673
-0.0073463
0.00700712
0.00728096
-0.00716541
0.00683118
0.00761063
-0.00698941
0.00665974
0.00793609
-0.00681918
0.00649373
0.00825759
-0.00665517
0.00633367
0.00857541
-0.00649764
0.00617981
0.00888981
-0.00634657
0.00603217
0.00920098
-0.00620188
0.00589072
0.00950909
-0.00606337
0.00575526
0.0098143
-0.00593078
0.00562557
0.0101168
-0.00580386
0.0055014
0.0104166
-0.00568229
0.00538246
0.0107139
-0.00556579
0.00526846
0.0110088
-0.005454
0.0051591
0.0113014
-0.00534639
0.00505386
0.0115915
-0.00524204
0.00495192
-0.00513932
0.0118788
0.00485198
-9.60859e-06
0.00177887
-5.0661e-06
0.003185
3.65725e-05
0.00306271
0.000130175
0.00197756
0.000282631
0.000390502
0.00049379
-0.00136711
0.000758772
-0.00307607
0.00106916
-0.00460747
0.00141489
-0.0058976
0.00178596
-0.00692785
0.00217326
-0.00770856
0.00256921
-0.00826612
0.00296794
-0.00863416
0.00336517
-0.00884786
0.00375805
-0.00894023
0.00414486
-0.00894017
0.00452466
-0.00887201
0.00489711
-0.0087554
0.00526228
-0.00860572
0.00562049
-0.00843475
0.00597217
-0.00825126
0.00631778
-0.00806171
0.00665783
-0.00787062
0.00699277
-0.00768124
0.00732306
-0.0074957
0.00764905
-0.00731541
0.0079711
-0.00714123
0.0082895
-0.00697357
0.00860449
-0.00681263
0.00891631
-0.00665839
0.00922512
-0.0065107
0.00953111
-0.00636935
0.00983442
-0.00623409
0.0101352
-0.0061046
0.0104334
-0.00598057
0.0107294
-0.00586172
0.011023
-0.00574764
0.0113145
-0.00563783
0.0116036
-0.00553118
-0.00542579
0.0118901
-5.32757e-06
0.0017842
7.31009e-06
0.00317236
5.96631e-05
0.00301035
0.000165081
0.00187214
0.000329765
0.000225818
0.000552739
-0.00159008
0.000828464
-0.00335179
0.00114789
-0.00492689
0.00150062
-0.00625033
0.00187647
-0.00730371
0.00226639
-0.00809848
0.00266297
-0.0086627
0.0030606
-0.00903179
0.00345535
-0.00924261
0.00384468
-0.00932955
0.00422713
-0.00932262
0.00460204
-0.00924693
0.00496937
-0.00912272
0.00532931
-0.00896567
0.00568231
-0.00878775
0.00602889
-0.00859784
0.00636962
-0.00840244
0.00670505
-0.00820604
0.00703563
-0.00801183
0.00736186
-0.00782193
0.0076841
-0.00763765
0.00800269
-0.00745982
0.00831792
-0.0072888
0.00863
-0.00712471
0.00893915
-0.00696754
0.00924557
-0.00681711
0.00954938
-0.00667317
0.00985072
-0.00653542
0.0101497
-0.00640355
0.0104464
-0.00627728
0.0107409
-0.00615623
0.0110333
-0.00604004
0.0113236
-0.00592812
0.0116117
-0.00581929
-0.00571133
0.0118972
-1.20494e-06
0.0017854
1.97491e-05
0.0031514
8.29534e-05
0.00294715
0.000200679
0.00175441
0.000378044
4.84537e-05
0.000613182
-0.00182522
0.000899759
-0.00363837
0.00122815
-0.00525528
0.00158758
-0.00660976
0.00196782
-0.00768395
0.00235989
-0.00849055
0.00275656
-0.00905937
0.00315256
-0.0094278
0.00354433
-0.00963438
0.00392962
-0.00971485
0.00430733
-0.00970032
0.00467705
-0.00961665
0.00503894
-0.00948461
0.00539338
-0.00932011
0.00574096
-0.00913533
0.0060823
-0.00893917
0.00641801
-0.00873815
0.00674869
-0.00853673
0.00707483
-0.00833798
0.00739692
-0.00814401
0.00771534
-0.00795607
0.0080304
-0.00777488
0.00834237
-0.00760077
0.00865149
-0.00743383
0.00895796
-0.00727401
0.00926192
-0.00712107
0.0095635
-0.00697475
0.00986283
-0.00683474
0.01016
-0.00670072
0.0104551
-0.00657235
0.0107481
-0.00644927
0.0110392
-0.00633114
0.0113283
-0.00621724
0.0116154
-0.00610636
-0.00599592
0.0119
2.62583e-06
0.00178278
3.2033e-05
0.00312199
0.000106463
0.00287272
0.000236883
0.00162399
0.00042717
-0.000141832
0.000674699
-0.00207275
0.000972125
-0.0039358
0.00130927
-0.00559242
0.00167512
-0.00697561
0.00205931
-0.00806814
0.00245297
-0.00888421
0.00284923
-0.00945562
0.00324312
-0.0098217
0.00363142
-0.0100227
0.00401225
-0.0100957
0.00438483
-0.0100729
0.00474905
-0.00998088
0.00510523
-0.00984079
0.00545396
-0.00966883
0.00579594
-0.00947731
0.0061319
-0.00927513
0.00646247
-0.00906872
0.0067883
-0.00886256
0.00710994
-0.00865961
0.00742781
-0.00846189
0.00774232
-0.00827059
0.0080538
-0.00808635
0.00836249
-0.00790946
0.00866861
-0.00773994
0.00897232
-0.00757772
0.00927379
-0.00742254
0.00957313
-0.00727408
0.0098704
-0.00713201
0.0101657
-0.00699604
0.0104592
-0.00686578
0.0107508
-0.00674088
0.0110405
-0.0066209
0.0113285
-0.00650519
0.0116145
-0.00639235
-0.00627955
0.0118981
6.24439e-06
0.00177654
4.42679e-05
0.00308397
0.000130148
0.00278684
0.000273546
0.0014806
0.000477045
-0.00034533
0.000737008
-0.00233271
0.00104517
-0.00424396
0.0013908
-0.00593805
0.00176265
-0.00734745
0.00215031
-0.00845581
0.00254509
-0.00927899
0.00294039
-0.00985092
0.00333164
-0.0102129
0.00371602
-0.0104071
0.004092
-0.0104716
0.0044591
-0.01044
0.0048175
-0.0103393
0.00516775
-0.010191
0.00551059
-0.0100117
0.00584681
-0.00981353
0.00617724
-0.00960557
0.00650261
-0.00939408
0.00682351
-0.00918346
0.00714052
-0.00897663
0.00745414
-0.0087755
0.00776472
-0.00858117
0.00807254
-0.00839418
0.00837786
-0.00821479
0.00868093
-0.00804301
0.00898188
-0.00787867
0.0092808
-0.00772146
0.00957783
-0.00757111
0.00987306
-0.00742725
0.0101665
-0.00728952
0.0104583
-0.00715756
0.0107484
-0.007031
0.0110369
-0.00690937
0.0113237
-0.00679197
0.0116086
-0.00667727
-0.00656219
0.0118913
9.85651e-06
0.00176668
5.64594e-05
0.00303737
0.000153987
0.00268932
0.000310566
0.00132402
0.00052737
-0.000562135
0.000799688
-0.00260503
0.0011184
-0.00456268
0.00147224
-0.00629189
0.00184966
-0.00772488
0.00224027
-0.00884642
0.00263562
-0.00967434
0.00302949
-0.0102448
0.00341763
-0.0106011
0.0037976
-0.010787
0.00416833
-0.0108424
0.00452967
-0.0108013
0.004882
-0.0106916
0.00522606
-0.0105351
0.00556283
-0.0103484
0.0058932
-0.0101439
0.006218
-0.00993037
0.006538
-0.00971409
0.00685392
-0.00949938
0.0071663
-0.00928902
0.00747558
-0.00908477
0.00778211
-0.00888771
0.00808625
-0.00869832
0.00838821
-0.00851674
0.00868814
-0.00834295
0.00898623
-0.00817675
0.0092826
-0.00801783
0.00957732
-0.00786582
0.00987046
-0.00772038
0.0101621
-0.00758113
0.0104522
-0.0074477
0.0107409
-0.00731965
0.011028
-0.00719653
0.0113136
-0.00707758
0.0115975
-0.00696117
-0.00684388
0.0118792
1.343e-05
0.00175325
6.8641e-05
0.00298216
0.000177904
0.00258005
0.000347701
0.00115422
0.000577849
-0.000792281
0.000862461
-0.00288964
0.00119147
-0.00489169
0.00155309
-0.0066535
0.00193563
-0.00810742
0.00232874
-0.00923953
0.00272415
-0.0100698
0.00311599
-0.0106366
0.00350053
-0.0109856
0.00387575
-0.0111623
0.00424087
-0.0112075
0.00459605
-0.0111565
0.00494207
-0.0110376
0.00527984
-0.0108729
0.00561037
-0.010679
0.00593469
-0.0104682
0.00625378
-0.0102495
0.00656843
-0.0100287
0.00687926
-0.00981021
0.00718688
-0.00959663
0.00749178
-0.00938967
0.00779428
-0.00919021
0.00809464
-0.00899868
0.00839311
-0.00881522
0.00868991
-0.00863974
0.00898513
-0.00847197
0.00927887
-0.00831157
0.00957121
-0.00815817
0.00986224
-0.00801141
0.010152
-0.00787088
0.0104405
-0.00773617
0.0107277
-0.00760685
0.0110135
-0.00748242
0.011298
-0.00736208
0.0115809
-0.00724405
-0.00712466
0.0118617
1.69988e-05
0.00173625
8.07759e-05
0.00291838
0.000201783
0.00245904
0.000384871
0.000971134
0.000628304
-0.00103571
0.000924942
-0.00318628
0.00126396
-0.00523071
0.00163305
-0.00702259
0.00202023
-0.00849459
0.00241521
-0.00963452
0.00281014
-0.0104647
0.00319954
-0.011026
0.00358001
-0.0113661
0.00394995
-0.0115322
0.00430914
-0.0115667
0.004658
-0.0115054
0.00499746
-0.0113771
0.00532866
-0.0112041
0.00565285
-0.0110032
0.00597112
-0.0107865
0.00628438
-0.0105627
0.0065935
-0.0103379
0.00689923
-0.0101159
0.00720209
-0.00989949
0.00750251
-0.00969009
0.00780085
-0.00948855
0.0080974
-0.00929523
0.00839238
-0.0091102
0.00868593
-0.0089333
0.00897819
-0.00876423
0.00926926
-0.00860263
0.00955922
-0.00844812
0.0098481
-0.00830029
0.0101359
-0.00815872
0.0104227
-0.00802297
0.0107085
-0.0078926
0.0109931
-0.00776706
0.0112765
-0.00764548
0.0115585
-0.00752599
-0.00740459
0.0118384
2.04846e-05
0.00171577
9.28457e-05
0.00284602
0.000225618
0.00232627
0.000421872
0.000774882
0.000678441
-0.00129228
0.00098696
-0.00349479
0.00133566
-0.00557941
0.00171168
-0.00739862
0.00210298
-0.00888589
0.00249941
-0.0100309
0.00289331
-0.0108586
0.00327963
-0.0114123
0.00365558
-0.011742
0.00401997
-0.0118966
0.00437288
-0.0119196
0.00471506
-0.0118476
0.00504778
-0.0117098
0.00537237
-0.0115287
0.00569007
-0.0113209
0.00600209
-0.0110985
0.00630948
-0.0108701
0.00661309
-0.0106415
0.00691361
-0.0104164
0.0072116
-0.0101975
0.0075075
-0.00998599
0.00780165
-0.0097827
0.0080943
-0.00958788
0.00838567
-0.00940157
0.00867593
-0.00922355
0.00896518
-0.00905348
0.00925351
-0.00889096
0.009541
-0.00873561
0.00982769
-0.00858698
0.0101136
-0.00844463
0.0103987
-0.00830809
0.010683
-0.00817689
0.0109664
-0.00805046
0.0112488
-0.00792785
0.0115298
-0.00780703
-0.00768375
0.011809
2.39684e-05
0.0016918
0.000104812
0.00276517
0.000249248
0.00218183
0.000458627
0.000565504
0.000728181
-0.00156184
0.00104822
-0.00381484
0.00140619
-0.00593737
0.00178876
-0.00778119
0.00218364
-0.00928077
0.00258085
-0.0104282
0.00297318
-0.0112509
0.00335602
-0.0117952
0.00372698
-0.012113
0.00408537
-0.012255
0.00443169
-0.0122659
0.00476705
-0.0121829
0.00509284
-0.0120356
0.0054106
-0.0118464
0.00572174
-0.011632
0.0060275
-0.0114043
0.00632893
-0.0111715
0.00662693
-0.0109395
0.00692219
-0.0107117
0.00721527
-0.0104906
0.00750657
-0.0102773
0.00779643
-0.0100725
0.0080851
-0.00987656
0.0083728
-0.00968927
0.00865966
-0.00951041
0.0089458
-0.00933962
0.0092313
-0.00917647
0.00951626
-0.00902056
0.00980069
-0.00887141
0.0100846
-0.00872854
0.010368
-0.00859148
0.0106508
-0.00845973
0.010933
-0.00833265
0.0112144
-0.00820922
0.0114946
-0.00808725
-0.00796219
0.011773
2.73766e-05
0.00166442
0.000116658
0.00267589
0.000272692
0.0020258
0.000495003
0.000343192
0.000777275
-0.00184411
0.00110857
-0.00414613
0.0014754
-0.0063042
0.00186394
-0.00816972
0.00226183
-0.00967866
0.00265929
-0.0108256
0.0030495
-0.0116411
0.00342829
-0.012174
0.00379384
-0.0124786
0.00414592
-0.0126071
0.00448538
-0.0126054
0.00481365
-0.0125112
0.00513237
-0.0123543
0.00544323
-0.0121573
0.00574771
-0.0119365
0.00604712
-0.0117037
0.00634255
-0.011467
0.00663489
-0.0112318
0.00692484
-0.0110017
0.00721292
-0.0107786
0.00749954
-0.0105639
0.00778502
-0.010358
0.00806963
-0.0101612
0.00835354
-0.00997318
0.00863689
-0.00979377
0.00891981
-0.00962253
0.00920239
-0.00945905
0.0094847
-0.00930286
0.00976677
-0.00915347
0.0100486
-0.00901038
0.0103302
-0.0088731
0.0106116
-0.00874107
0.0108925
-0.00861362
0.0111729
-0.0084896
0.0114523
-0.00836666
-0.00823998
0.0117301
3.07438e-05
0.00163368
0.000128351
0.00257828
0.000295842
0.00185831
0.000530915
0.000108118
0.000825646
-0.00213884
0.0011678
-0.00448829
0.00154301
-0.00667941
0.00193697
-0.00856369
0.00233729
-0.010079
0.0027344
-0.0112227
0.0031219
-0.0120286
0.00349617
-0.0125482
0.0038559
-0.0128383
0.00420132
-0.0129525
0.00453367
-0.0129377
0.00485467
-0.0128322
0.00516621
-0.0126659
0.00547005
-0.0124611
0.00576781
-0.0122342
0.00606082
-0.0119967
0.0063502
-0.0117563
0.00663684
-0.0115184
0.0069214
-0.0112862
0.00720441
-0.0110616
0.00748626
-0.0108458
0.00776728
-0.0106391
0.0080477
-0.0104416
0.0083277
-0.0102532
0.00860742
-0.0100735
0.00888699
-0.0099021
0.0091665
-0.00973856
0.00944603
-0.00958239
0.00972561
-0.00943305
0.0100053
-0.00929004
0.010285
-0.00915284
0.0105648
-0.00902085
0.0108445
-0.00889332
0.0111239
-0.00876899
0.0114025
-0.00864532
-0.00851719
0.0116798
3.4057e-05
0.00159962
0.000139883
0.00247246
0.000318673
0.00167952
0.000566279
-0.000139487
0.00087315
-0.00244571
0.00122575
-0.00484089
0.00160881
-0.00706247
0.00200762
-0.0089625
0.00240974
-0.0104811
0.00280589
-0.0116189
0.00319012
-0.0124129
0.0035594
-0.0129175
0.0039129
-0.0131918
0.00425136
-0.0132909
0.00457637
-0.0132627
0.00488996
-0.0131458
0.00519419
-0.0129701
0.00549096
-0.0127579
0.00578193
-0.0125252
0.00606851
-0.0122833
0.0063518
-0.0120396
0.00663267
-0.0117993
0.00691179
-0.0115653
0.00718965
-0.0113395
0.00746665
-0.0111228
0.00774309
-0.0109155
0.0080192
-0.0107177
0.00829515
-0.0105291
0.00857108
-0.0103494
0.00884713
-0.0101782
0.00912341
-0.0100148
0.00939998
-0.00985896
0.00967691
-0.00970998
0.00995423
-0.00956736
0.010232
-0.00943057
0.0105101
-0.00929896
0.0107884
-0.00917169
0.0110668
-0.00904736
0.0113447
-0.00892322
-0.00879385
0.0116214
3.73056e-05
0.00156232
0.000151233
0.00235853
0.000341144
0.00148961
0.000601029
-0.000399374
0.000919683
-0.00276436
0.00128227
-0.00520348
0.00167262
-0.00745282
0.00207564
-0.00936551
0.00247892
-0.0108844
0.0028735
-0.0120134
0.00325391
-0.0127933
0.00361772
-0.0132813
0.00396464
-0.0135387
0.00429585
-0.0136222
0.00461332
-0.0135802
0.00491936
-0.0134518
0.0052162
-0.0132669
0.00550584
-0.0130475
0.00579
-0.0128094
0.00607011
-0.0125634
0.00634727
-0.0123168
0.00662234
-0.0120744
0.00689594
-0.0118389
0.00716858
-0.0116121
0.00744063
-0.0113948
0.00771238
-0.0111872
0.00798403
-0.0109893
0.00825576
-0.0108009
0.00852773
-0.0106214
0.00880007
-0.0104505
0.0090729
-0.0102877
0.0093463
-0.0101324
0.00962035
-0.00998403
0.00989512
-0.00984213
0.0101706
-0.0097061
0.0104469
-0.00957522
0.0107238
-0.00944857
0.011001
-0.0093246
0.0112781
-0.0092003
-0.00906992
0.0115542
4.04939e-05
0.00152182
0.000162391
0.00223663
0.000363215
0.00128878
0.000635097
-0.000671256
0.000965145
-0.00309441
0.0013372
-0.00557553
0.00173425
-0.00784988
0.00214083
-0.00977209
0.0025446
-0.0112882
0.00293698
-0.0124058
0.00331305
-0.0131694
0.00367094
-0.0136392
0.00401092
-0.0138787
0.00433463
-0.0139459
0.00464441
-0.01389
0.00494278
-0.0137502
0.00523216
-0.0135563
0.00551463
-0.01333
0.00579196
-0.0130867
0.00606558
-0.012837
0.00633659
-0.0125878
0.0066058
-0.0123436
0.00687384
-0.012107
0.00714118
-0.0118795
0.00740817
-0.0116618
0.00767509
-0.0114542
0.00794213
-0.0112564
0.00820947
-0.0110682
0.00847727
-0.0108892
0.00874567
-0.0107189
0.00901479
-0.0105568
0.00928475
-0.0104023
0.00955566
-0.0102549
0.00982761
-0.0101141
0.0101007
-0.00997915
0.0103748
-0.00984939
0.01065
-0.00972376
0.0109259
-0.00960052
0.011202
-0.0094764
-0.00934529
0.0114774
4.36214e-05
0.0014782
0.000173347
0.00210691
0.000384863
0.00107727
0.000668426
-0.00095482
0.00100943
-0.00343542
0.00139041
-0.00595651
0.00179353
-0.00825299
0.00220299
-0.0101816
0.00260657
-0.0116917
0.00299613
-0.0127954
0.00336732
-0.0135405
0.00371886
-0.0139907
0.00405158
-0.0142114
0.00436758
-0.0142619
0.00466951
-0.0141919
0.00496014
-0.0140408
0.00524201
-0.0138382
0.0055173
-0.0136053
0.0057878
-0.0133572
0.00605493
-0.0131041
0.00631975
-0.0128526
0.00658307
-0.0126069
0.00684549
-0.0123694
0.00710745
-0.0121414
0.00736927
-0.0119236
0.00763121
-0.0117161
0.00789347
-0.0115186
0.00815622
-0.011331
0.00841962
-0.0111526
0.00868382
-0.0109831
0.00894895
-0.0108219
0.00921516
-0.0106685
0.00948258
-0.0105224
0.00975136
-0.0103829
0.0100216
-0.0102494
0.0102933
-0.0101211
0.0105664
-0.0099969
0.0108407
-0.00987481
0.0111156
-0.00975124
-0.00961974
0.01139
4.66868e-05
0.00143151
0.000184094
0.0019695
0.000406067
0.000855292
0.000700964
-0.00124972
0.00105246
-0.00378692
0.00144177
-0.00634582
0.00185028
-0.0086615
0.00226193
-0.0105932
0.00266463
-0.0120944
0.00305076
-0.0131815
0.00341655
-0.0139063
0.00376134
-0.0143355
0.00408651
-0.0145366
0.00439459
-0.01457
0.00468858
-0.0144859
0.00497141
-0.0143237
0.00524575
-0.0141125
0.00551386
-0.0138734
0.00577753
-0.0136209
0.00603815
-0.0133647
0.00629678
-0.0131113
0.00655418
-0.0128643
0.00681092
-0.0126261
0.00706741
-0.0123979
0.00732395
-0.0121802
0.00758078
-0.0119729
0.00783809
-0.0117759
0.00809603
-0.0115889
0.00835478
-0.0114113
0.00861448
-0.0112428
0.00887529
-0.0110827
0.00913737
-0.0109306
0.00940091
-0.0107859
0.00966607
-0.010648
0.009933
-0.0105163
0.0102018
-0.0103899
0.0104724
-0.0102675
0.0107447
-0.010147
0.0110179
-0.0100244
-0.00989293
0.011291
4.96897e-05
0.00138182
0.000194626
0.00182457
0.000426803
0.000623112
0.000732658
-0.00155557
0.00109414
-0.0041484
0.00149117
-0.00674285
0.00190437
-0.00907469
0.00231747
-0.0110063
0.00271861
-0.0124956
0.00310068
-0.0135636
0.00346058
-0.0142662
0.00379825
-0.0146732
0.0041156
-0.0148539
0.00441561
-0.01487
0.00470155
-0.0147718
0.00497655
-0.0145987
0.00524337
-0.0143793
0.00550431
-0.0141343
0.00576117
-0.0138777
0.00601531
-0.0136189
0.00626774
-0.0133637
0.0065192
-0.0131158
0.0067702
-0.0128771
0.00702114
-0.0126489
0.0072723
-0.0124313
0.00752387
-0.0122245
0.00777604
-0.0120281
0.00802895
-0.0118418
0.00828278
-0.0116652
0.00853767
-0.0114977
0.00879379
-0.0113388
0.00905133
-0.0111881
0.00931049
-0.0110451
0.00957151
-0.010909
0.00983458
-0.0107794
0.0100999
-0.0106552
0.0103674
-0.0105351
0.0106369
-0.0104166
0.0109079
-0.0102954
-0.0101644
0.0111793
5.26315e-05
0.00132919
0.000204942
0.00167225
0.000447053
0.000381001
0.000763458
-0.00187198
0.00113439
-0.00451933
0.00153848
-0.00714695
0.00195563
-0.00949184
0.00236944
-0.0114201
0.00276834
-0.0128945
0.00314577
-0.013941
0.00349929
-0.0146198
0.00382948
-0.0150034
0.00413879
-0.0151632
0.00443058
-0.0151618
0.00470842
-0.0150497
0.00497559
-0.0148658
0.00523491
-0.0146387
0.00548871
-0.0143881
0.00573879
-0.0141278
0.00598646
-0.0138665
0.0062327
-0.0136099
0.00647819
-0.0133613
0.00672342
-0.0131224
0.00696875
-0.0128942
0.00721441
-0.012677
0.00746058
-0.0124707
0.00770743
-0.012275
0.0079551
-0.0120895
0.00820372
-0.0119138
0.00845347
-0.0117474
0.0087045
-0.0115899
0.00895703
-0.0114407
0.00921129
-0.0112993
0.00946756
-0.0111653
0.00972608
-0.0110379
0.00998708
-0.0109162
0.0102507
-0.0107986
0.0105167
-0.0106826
0.0107846
-0.0105633
-0.0104333
0.0110535
5.5515e-05
0.00127367
0.000215042
0.00151273
0.000466797
0.000129243
0.000793321
-0.0021985
0.00117313
-0.00489914
0.0015836
-0.00755742
0.00200395
-0.00991219
0.00241771
-0.0118339
0.00281369
-0.0132905
0.00318588
-0.0143132
0.00353257
-0.0149664
0.00385497
-0.0153258
0.00415604
-0.0154643
0.00443951
-0.0154452
0.0047092
-0.0153194
0.00496854
-0.0151252
0.0052204
-0.0148905
0.00546712
-0.0146349
0.00571045
-0.0143711
0.00595169
-0.0141078
0.00619175
-0.01385
0.00643127
-0.0136008
0.0066707
-0.0133618
0.00691035
-0.0131338
0.00715042
-0.0129171
0.00739107
-0.0127113
0.00763243
-0.0125163
0.00787463
-0.0123317
0.00811778
-0.0121569
0.00836204
-0.0119917
0.00860758
-0.0118354
0.0088546
-0.0116877
0.00910338
-0.0115481
0.0093542
-0.0114161
0.00960737
-0.0112911
0.0098632
-0.011172
0.0101219
-0.0110573
0.0103833
-0.0109441
0.0106472
-0.0108271
-0.0106988
0.0109126
5.8344e-05
0.00121533
0.000224921
0.00134615
0.000486021
-0.000131858
0.000822208
-0.00253469
0.0012103
-0.00528723
0.00162642
-0.00797354
0.0020492
-0.010335
0.00246215
-0.0122468
0.00285451
-0.0136828
0.00322092
-0.0146796
0.00356035
-0.0153059
0.00387466
-0.0156401
0.00416731
-0.0157569
0.00444239
-0.0157203
0.00470392
-0.0155809
0.00495546
-0.0153767
0.00519992
-0.015135
0.00543961
-0.0148745
0.00567626
-0.0146078
0.0059111
-0.0143426
0.006145
-0.0140839
0.00637856
-0.0138343
0.00661217
-0.0135954
0.0068461
-0.0133678
0.00708051
-0.0131515
0.00731553
-0.0129463
0.00755125
-0.012752
0.00778777
-0.0125682
0.0080252
-0.0123944
0.00826365
-0.0122301
0.00850329
-0.012075
0.00874431
-0.0119287
0.00898698
-0.0117908
0.00923161
-0.0116607
0.00947856
-0.011538
0.00972818
-0.0114216
0.00998078
-0.0113099
0.0102364
-0.0111997
0.0104949
-0.0110856
-0.0109596
0.0107557
6.11242e-05
0.0011542
0.000234578
0.0011727
0.000504706
-0.000401987
0.000850081
-0.00288007
0.00124581
-0.00568296
0.00166683
-0.00839457
0.00209125
-0.0107594
0.00250262
-0.0126582
0.0028907
-0.0140709
0.00325079
-0.0150397
0.00358256
-0.0156376
0.00388851
-0.015946
0.00417261
-0.016041
0.00443925
-0.0159869
0.00469263
-0.0158343
0.00493641
-0.0156205
0.00517354
-0.0153721
0.00540628
-0.0151073
0.00563631
-0.0148378
0.00586481
-0.0145711
0.0060926
-0.0143117
0.00632022
-0.0140619
0.00654801
-0.0138232
0.00677619
-0.013596
0.00700488
-0.0133802
0.00723417
-0.0131756
0.00746413
-0.012982
0.00769482
-0.0127989
0.0079263
-0.0126259
0.00815865
-0.0124625
0.008392
-0.0123084
0.00862654
-0.0121633
0.0088625
-0.0120267
0.0091002
-0.0118984
0.00933999
-0.0117778
0.00958231
-0.011664
0.00982756
-0.0115552
0.010076
-0.0114482
0.0103277
-0.0113373
-0.0112143
0.0105825
6.38609e-05
0.00109034
0.000244012
0.000992547
0.000522836
-0.000680813
0.000876899
-0.00323413
0.0012796
-0.00608566
0.00170475
-0.00881972
0.00212999
-0.0111846
0.00253903
-0.0130672
0.00292215
-0.014454
0.00327541
-0.015393
0.00359916
-0.0159614
0.00389653
-0.0162434
0.00417195
-0.0163165
0.00443012
-0.0162451
0.0046754
-0.0160796
0.00491149
-0.0158566
0.00514136
-0.015602
0.00536724
-0.0153332
0.00559072
-0.0150613
0.00581296
-0.0147934
0.00603468
-0.0145334
0.00625639
-0.0142837
0.00647838
-0.0140452
0.0067008
-0.0138184
0.00692375
-0.0136031
0.00714727
-0.0133991
0.00737139
-0.0132061
0.00759612
-0.0130236
0.00782147
-0.0128512
0.00804749
-0.0126885
0.00827424
-0.0125352
0.00850188
-0.0123909
0.00873058
-0.0122554
0.00896062
-0.0121285
0.00919236
-0.0120096
0.00942626
-0.0118979
0.00966284
-0.0117918
0.00990259
-0.0116879
0.0101459
-0.0115806
-0.0114616
0.0103932
6.65572e-05
0.00102378
0.000253223
0.000805882
0.000540396
-0.000967987
0.000902619
-0.00359635
0.00131159
-0.00649463
0.00174007
-0.00924819
0.00216533
-0.0116099
0.00257128
-0.0134732
0.00294881
-0.0148315
0.00329473
-0.0157389
0.00361014
-0.0162768
0.00389874
-0.016532
0.00416539
-0.0165831
0.00441509
-0.0164948
0.0046523
-0.0163168
0.00488079
-0.0160851
0.00510349
-0.0158247
0.00532259
-0.0155522
0.00553963
-0.0152783
0.00575566
-0.0150094
0.00597139
-0.0147491
0.00618724
-0.0144995
0.00640346
-0.0142614
0.00662015
-0.0140351
0.00683737
-0.0138203
0.00705511
-0.0136169
0.00727336
-0.0134244
0.00749207
-0.0132423
0.00771119
-0.0130703
0.00793071
-0.012908
0.00815065
-0.0127551
0.00837106
-0.0126113
0.00859205
-0.0124764
0.00881383
-0.0123503
0.00903672
-0.0122325
0.00926119
-0.0121223
0.00948787
-0.0120184
0.00971749
-0.0119175
0.00995095
-0.011814
-0.0116999
0.0101893
6.92139e-05
0.000954569
0.000262211
0.000612885
0.000557364
-0.00126314
0.000927193
-0.00396618
0.00134173
-0.00690916
0.00177272
-0.00967918
0.00219718
-0.0120344
0.0025993
-0.0138753
0.00297061
-0.0152029
0.00330873
-0.016077
0.00361549
-0.0165836
0.00389516
-0.0168117
0.00415299
-0.016841
0.00439422
-0.016736
0.00462343
-0.016546
0.00484441
-0.016306
0.00506005
-0.0160403
0.00527247
-0.0157647
0.00548314
-0.015489
0.00569306
-0.0152193
0.00590287
-0.0149589
0.00611294
-0.0147096
0.00632345
-0.0144719
0.00653447
-0.0142461
0.006746
-0.0140319
0.00695801
-0.0138289
0.0071704
-0.0136368
0.0073831
-0.013455
0.00759598
-0.0132832
0.00780895
-0.013121
0.00802196
-0.0129681
0.00823496
-0.0128243
0.00844797
-0.0126894
0.00866108
-0.0125634
0.00887452
-0.0124459
0.00908876
-0.0123366
0.00930449
-0.0122342
0.00952276
-0.0121358
0.00974506
-0.0120363
-0.0119281
0.00997324
7.18303e-05
0.000882738
0.000270972
0.000413745
0.000573719
-0.00156589
0.000950571
-0.00434303
0.00136993
-0.00732853
0.00180261
-0.0101119
0.00222545
-0.0124572
0.002623
-0.0142729
0.00298751
-0.0155674
0.0033174
-0.0164069
0.00361524
-0.0168814
0.00388584
-0.0170823
0.00413482
-0.0170899
0.00436761
-0.0169688
0.00458891
-0.0167673
0.00480247
-0.0165196
0.00501114
-0.016249
0.00521699
-0.0159705
0.0054214
-0.0156934
0.00562531
-0.0154232
0.00582929
-0.0151629
0.00603365
-0.0149139
0.00623854
-0.0146768
0.00644397
-0.0144515
0.00664991
-0.0142378
0.00685626
-0.0140352
0.0070629
-0.0138434
0.00726967
-0.0136618
0.00747639
-0.0134899
0.00768289
-0.0133275
0.00788901
-0.0131742
0.00809461
-0.0130299
0.00829956
-0.0128944
0.00850383
-0.0127676
0.00870755
-0.0126496
0.00891108
-0.0125401
0.00911521
-0.0124383
0.00932128
-0.0123419
0.00953148
-0.0122465
-0.0121453
0.00974864
7.44058e-05
0.000808331
0.000279496
0.000208655
0.000589436
-0.00187583
0.000972707
-0.0047263
0.00139614
-0.00775196
0.00182969
-0.0105454
0.00225007
-0.0128776
0.00264234
-0.0146651
0.00299949
-0.0159245
0.00332076
-0.0167282
0.00360943
-0.0171701
0.00387085
-0.0173437
0.00411096
-0.01733
0.00433538
-0.0171932
0.00454884
-0.0169807
0.00475509
-0.0167259
0.00495691
-0.0164508
0.00515629
-0.0161699
0.00535455
-0.0158917
0.00555254
-0.0156212
0.00575079
-0.0153612
0.00594955
-0.0151127
0.00614892
-0.0148762
0.00634888
-0.0146515
0.00654935
-0.0144383
0.00675019
-0.0142361
0.00695123
-0.0140444
0.00715224
-0.0138628
0.00735299
-0.0136907
0.00755322
-0.0135277
0.00775267
-0.0133737
0.00795107
-0.0132283
0.00814817
-0.0130915
0.00834376
-0.0129632
0.00853782
-0.0128437
0.00873062
-0.0127329
0.00892296
-0.0126306
0.00911652
-0.0125354
0.0093142
-0.0124442
-0.012351
0.00951992
7.69406e-05
0.00073139
0.00028777
-2.17372e-06
0.000604488
-0.00219255
0.000993554
-0.00511537
0.0014203
-0.00817871
0.00185387
-0.010979
0.00227099
-0.0132947
0.00265727
-0.0150514
0.00300654
-0.0162738
0.00331883
-0.0170404
0.00359812
-0.0174494
0.00385028
-0.0175959
0.00408153
-0.0175613
0.00429762
-0.0174093
0.00450334
-0.0171865
0.00470239
-0.0169249
0.00489747
-0.0166459
0.00509049
-0.0163629
0.0052827
-0.0160839
0.00547489
-0.0158134
0.00566751
-0.0155538
0.00586078
-0.015306
0.00605475
-0.0150702
0.00624938
-0.0148461
0.00644455
-0.0146334
0.00664007
-0.0144316
0.00683573
-0.0142401
0.00703125
-0.0140583
0.00722633
-0.0138858
0.00742064
-0.013722
0.0076138
-0.0135669
0.00780544
-0.0134199
0.00799514
-0.0132812
0.00818255
-0.0131506
0.00836746
-0.0130286
0.00854999
-0.0129154
0.00873094
-0.0128116
0.00891223
-0.0127167
0.00909752
-0.0126295
-0.0125453
0.00929183
7.94345e-05
0.000651954
0.000295778
-0.000218517
0.000618846
-0.00251562
0.00101307
-0.00550959
0.00144232
-0.00860796
0.00187508
-0.0114117
0.00228815
-0.0137078
0.00266778
-0.015431
0.00300866
-0.0166147
0.00331164
-0.0173434
0.00358138
-0.0177191
0.0038242
-0.0178387
0.00404662
-0.0177837
0.00425447
-0.0176172
0.00445255
-0.0173845
0.0046445
-0.0171169
0.00483295
-0.0168344
0.00501973
-0.0165497
0.005206
-0.0162702
0.00539249
-0.0159999
0.00557959
-0.0157409
0.00576749
-0.0154939
0.00595621
-0.0152589
0.00614568
-0.0150356
0.00633573
-0.0148235
0.00652617
-0.0146221
0.00671673
-0.0144306
0.00690709
-0.0142487
0.00709691
-0.0140756
0.00728576
-0.0139109
0.0074732
-0.0137543
0.00765872
-0.0136055
0.00784177
-0.0134642
0.00802183
-0.0133307
0.0081985
-0.0132052
0.00837171
-0.0130887
0.00854219
-0.0129821
0.00871203
-0.0128866
0.00888556
-0.012803
-0.0127286
0.00906883
8.18851e-05
0.000570068
0.000303507
-0.000440138
0.000632482
-0.00284459
0.00103121
-0.00590832
0.00146217
-0.00903892
0.00189328
-0.0118429
0.00230152
-0.014116
0.00267386
-0.0158034
0.00300588
-0.0169467
0.00329926
-0.0176368
0.00355929
-0.0179792
0.00379274
-0.0180721
0.00400637
-0.0179973
0.00420606
-0.0178169
0.0043966
-0.0175751
0.00458155
-0.0173018
0.00476348
-0.0170163
0.00494411
-0.0167303
0.00512454
-0.0164506
0.00530543
-0.0161808
0.00548714
-0.0159226
0.0056698
-0.0156765
0.00585342
-0.0154425
0.0060379
-0.0152201
0.00622307
-0.0150087
0.00640869
-0.0148077
0.00659449
-0.0146164
0.0067801
-0.0144343
0.00696513
-0.0142606
0.00714913
-0.0140949
0.00733154
-0.0139367
0.00751177
-0.0137857
0.00768915
-0.0136416
0.00786299
-0.0135046
0.00803269
-0.0133749
0.00819797
-0.0132539
0.00835936
-0.0131435
0.00851899
-0.0130462
0.00868169
-0.0129657
-0.0129013
0.00885436
8.42879e-05
0.00048578
0.000310945
-0.000666794
0.000645368
-0.00317902
0.00104793
-0.00631088
0.00147979
-0.00947078
0.0019084
-0.0122715
0.00231107
-0.0145187
0.00267552
-0.0161678
0.00299824
-0.0172694
0.00328175
-0.0179203
0.00353195
-0.0182294
0.00375602
-0.0182962
0.00396089
-0.0182022
0.00415251
-0.0180085
0.00433561
-0.0177582
0.00451368
-0.0174799
0.00468918
-0.0171918
0.00486376
-0.0169049
0.00503844
-0.0166253
0.00521384
-0.0163562
0.00539025
-0.016099
0.0055678
-0.0158541
0.00574648
-0.0156212
0.00592616
-0.0153998
0.00610668
-0.0151892
0.00628779
-0.0149888
0.00646918
-0.0147978
0.00665049
-0.0146156
0.0068313
-0.0144414
0.0070111
-0.0142747
0.00718931
-0.0141149
0.00736524
-0.0139616
0.00753812
-0.0138145
0.00770711
-0.0136735
0.0078714
-0.0135392
0.00803042
-0.013413
0.00818441
-0.0132975
0.00833532
-0.0131971
0.00848818
-0.0131186
-0.0130635
0.00865047
8.66372e-05
0.000399142
0.000318082
-0.000898238
0.000657477
-0.00351841
0.00106319
-0.00671659
0.00149513
-0.00990272
0.00192042
-0.0126967
0.00231678
-0.0149151
0.00267276
-0.0165238
0.00298578
-0.0175824
0.00325919
-0.0181937
0.00349948
-0.0184696
0.00371416
-0.0185109
0.00391034
-0.0183984
0.00409397
-0.0181921
0.00426971
-0.0179339
0.00444099
-0.0176512
0.00461016
-0.017361
0.00477878
-0.0170735
0.0049478
-0.0167943
0.00511778
-0.0165262
0.00528901
-0.0162702
0.00546157