-0.362837 	0.362837 	0.5 	0.140909
-0.380512 	0.380512 	0.5 	0.143516
-0.398188 	0.398188 	0.5 	0.14469
-0.415863 	0.415863 	0.5 	0.145967
-0.433538 	0.433538 	0.5 	0.147176
-0.451213 	0.451213 	0.5 	0.148385
-0.468888 	0.468888 	0.5 	0.149608
-0.486563 	0.486563 	0.5 	0.150835
-0.504238 	0.504238 	0.5 	0.152053
-0.521913 	0.521913 	0.5 	0.153245
-0.539588 	0.539588 	0.5 	0.154393
-0.557263 	0.557263 	0.5 	0.155482
-0.574938 	0.574938 	0.5 	0.156498
-0.592613 	0.592613 	0.5 	0.15743
-0.610288 	0.610288 	0.5 	0.158269
-0.627963 	0.627963 	0.5 	0.159009
-0.645638 	0.645638 	0.5 	0.159644
-0.663313 	0.663313 	0.5 	0.160172
-0.680988 	0.680988 	0.5 	0.160592
-0.698663 	0.698663 	0.5 	0.160905
-0.716338 	0.716338 	0.5 	0.161111
-0.734013 	0.734013 	0.5 	0.161211
-0.751688 	0.751688 	0.5 	0.161209
-0.769363 	0.769363 	0.5 	0.161107
-0.787038 	0.787038 	0.5 	0.160908
-0.804713 	0.804713 	0.5 	0.160615
-0.822388 	0.822388 	0.5 	0.16023
-0.840063 	0.840063 	0.5 	0.159757
-0.857738 	0.857738 	0.5 	0.159196
-0.875413 	0.875413 	0.5 	0.15855
-0.893088 	0.893088 	0.5 	0.157818
-0.910763 	0.910763 	0.5 	0.156997
-0.928438 	0.928438 	0.5 	0.156082
-0.946113 	0.946113 	0.5 	0.155063
-0.963788 	0.963788 	0.5 	0.15392
-0.981463 	0.981463 	0.5 	0.152629
-0.999138 	0.999138 	0.5 	0.151133
-1.01681 	1.01681 	0.5 	0.149196
-1.03449 	1.03449 	0.5 	0.146427
-1.05216 	1.05216 	0.5 	0.143657
-1.061 	1.061 	0.5 	0.139613
-1.12274 	1.12274 	0.5 	0.138457
-1.18448 	1.18448 	0.5 	0.135001
-1.24621 	1.24621 	0.5 	0.134424
-1.30795 	1.30795 	0.5 	0.129752
-1.36969 	1.36969 	0.5 	0.127311
-1.43142 	1.43142 	0.5 	0.120687
-1.49316 	1.49316 	0.5 	0.11816
-1.5549 	1.5549 	0.5 	0.115378
-1.61664 	1.61664 	0.5 	0.109684
-1.67838 	1.67838 	0.5 	0.107074
