1.11936e-18 	0.5125 	0.5 	0.0102735 	0.000322117 	0
1.11936e-18 	0.5375 	0.5 	0.030597 	0.00274018 	0
1.11936e-18 	0.5625 	0.5 	0.050565 	0.00767079 	-1.19369e-22
1.11936e-18 	0.5875 	0.5 	0.0700693 	0.0140449 	0
1.11936e-18 	0.6125 	0.5 	0.0890381 	0.0216144 	0
1.11936e-18 	0.6375 	0.5 	0.107428 	0.0300588 	-1.44727e-22
1.11936e-18 	0.6625 	0.5 	0.125215 	0.0391413 	0
1.11936e-18 	0.6875 	0.5 	0.142386 	0.0486731 	0
1.11936e-18 	0.7125 	0.5 	0.158935 	0.0585021 	0
1.11936e-18 	0.7375 	0.5 	0.174863 	0.0685053 	0
1.11936e-18 	0.7625 	0.5 	0.190174 	0.0785828 	0
1.11936e-18 	0.7875 	0.5 	0.204876 	0.088653 	-1.80807e-22
1.11936e-18 	0.8125 	0.5 	0.218977 	0.0986491 	0
1.11936e-18 	0.8375 	0.5 	0.232489 	0.108516 	0
1.11936e-18 	0.8625 	0.5 	0.245423 	0.11821 	0
1.11936e-18 	0.8875 	0.5 	0.257792 	0.127695 	0
1.11936e-18 	0.9125 	0.5 	0.269609 	0.136939 	-4.97702e-23
1.11936e-18 	0.9375 	0.5 	0.280887 	0.145921 	4.98725e-23
1.11936e-18 	0.9625 	0.5 	0.29164 	0.154621 	0
1.11936e-18 	0.9875 	0.5 	0.301884 	0.163024 	0
1.11936e-18 	1.0125 	0.5 	0.31163 	0.17112 	2.06261e-22
1.11936e-18 	1.0375 	0.5 	0.320895 	0.178901 	0
1.11936e-18 	1.0625 	0.5 	0.329692 	0.186363 	0
1.11936e-18 	1.0875 	0.5 	0.338035 	0.193501 	0
1.11936e-18 	1.1125 	0.5 	0.345939 	0.200317 	0
1.11936e-18 	1.1375 	0.5 	0.353418 	0.20681 	0
1.11936e-18 	1.1625 	0.5 	0.360484 	0.212983 	0
1.11936e-18 	1.1875 	0.5 	0.367152 	0.218842 	2.09858e-22
1.11936e-18 	1.2125 	0.5 	0.373434 	0.22439 	0
1.11936e-18 	1.2375 	0.5 	0.379343 	0.229634 	-2.09156e-22
1.11936e-18 	1.2625 	0.5 	0.384891 	0.234581 	0
1.11936e-18 	1.2875 	0.5 	0.390088 	0.23924 	0
1.11936e-18 	1.3125 	0.5 	0.394946 	0.243618 	0
1.11936e-18 	1.3375 	0.5 	0.399474 	0.247724 	-1.02851e-22
1.11936e-18 	1.3625 	0.5 	0.403681 	0.251569 	1.02295e-22
1.11936e-18 	1.3875 	0.5 	0.407574 	0.255161 	0
1.11936e-18 	1.4125 	0.5 	0.41116 	0.258512 	0
1.11936e-18 	1.4375 	0.5 	0.414443 	0.261631 	0
1.11936e-18 	1.4625 	0.5 	0.417426 	0.264526 	0
1.11936e-18 	1.4875 	0.5 	0.420109 	0.267215 	0
1.11936e-18 	1.55625 	0.5 	0.426673 	0.274179 	7.29954e-23
1.11936e-18 	1.66875 	0.5 	0.434858 	0.282147 	0
1.11936e-18 	1.78125 	0.5 	0.439185 	0.286425 	0
1.11936e-18 	1.89375 	0.5 	0.440992 	0.287841 	6.94397e-23
1.11936e-18 	2.00625 	0.5 	0.440396 	0.286406 	6.75588e-23
1.11936e-18 	2.11875 	0.5 	0.437963 	0.282669 	-6.53482e-23
1.11936e-18 	2.23125 	0.5 	0.433919 	0.27682 	3.08328e-23
1.11936e-18 	2.34375 	0.5 	0.428507 	0.269156 	-9.14592e-23
