1.11936e-18 	0.5125 	0.5 	0.1048
1.11936e-18 	0.5375 	0.5 	0.112169
1.11936e-18 	0.5625 	0.5 	0.116252
1.11936e-18 	0.5875 	0.5 	0.120466
1.11936e-18 	0.6125 	0.5 	0.124207
1.11936e-18 	0.6375 	0.5 	0.127589
1.11936e-18 	0.6625 	0.5 	0.130654
1.11936e-18 	0.6875 	0.5 	0.133435
1.11936e-18 	0.7125 	0.5 	0.135968
1.11936e-18 	0.7375 	0.5 	0.138274
1.11936e-18 	0.7625 	0.5 	0.140375
1.11936e-18 	0.7875 	0.5 	0.142289
1.11936e-18 	0.8125 	0.5 	0.144034
1.11936e-18 	0.8375 	0.5 	0.145623
1.11936e-18 	0.8625 	0.5 	0.147064
1.11936e-18 	0.8875 	0.5 	0.148364
1.11936e-18 	0.9125 	0.5 	0.149529
1.11936e-18 	0.9375 	0.5 	0.150569
1.11936e-18 	0.9625 	0.5 	0.151489
1.11936e-18 	0.9875 	0.5 	0.152298
1.11936e-18 	1.0125 	0.5 	0.153002
1.11936e-18 	1.0375 	0.5 	0.153608
1.11936e-18 	1.0625 	0.5 	0.154122
1.11936e-18 	1.0875 	0.5 	0.154551
1.11936e-18 	1.1125 	0.5 	0.154902
1.11936e-18 	1.1375 	0.5 	0.155181
1.11936e-18 	1.1625 	0.5 	0.155394
1.11936e-18 	1.1875 	0.5 	0.155544
1.11936e-18 	1.2125 	0.5 	0.155639
1.11936e-18 	1.2375 	0.5 	0.155682
1.11936e-18 	1.2625 	0.5 	0.155677
1.11936e-18 	1.2875 	0.5 	0.15563
1.11936e-18 	1.3125 	0.5 	0.155542
1.11936e-18 	1.3375 	0.5 	0.155418
1.11936e-18 	1.3625 	0.5 	0.155259
1.11936e-18 	1.3875 	0.5 	0.155069
1.11936e-18 	1.4125 	0.5 	0.154849
1.11936e-18 	1.4375 	0.5 	0.154598
1.11936e-18 	1.4625 	0.5 	0.154312
1.11936e-18 	1.4875 	0.5 	0.154048
1.11936e-18 	1.55625 	0.5 	0.153627
1.11936e-18 	1.66875 	0.5 	0.150404
1.11936e-18 	1.78125 	0.5 	0.147871
1.11936e-18 	1.89375 	0.5 	0.144048
1.11936e-18 	2.00625 	0.5 	0.140239
1.11936e-18 	2.11875 	0.5 	0.135894
1.11936e-18 	2.23125 	0.5 	0.131407
1.11936e-18 	2.34375 	0.5 	0.126675
