-0.362837 	0.362837 	0.5 	0.0223734 	0.0219788 	-8.35845e-24
-0.380512 	0.380512 	0.5 	0.0607084 	0.060677 	1.82706e-21
-0.398188 	0.398188 	0.5 	0.093805 	0.0954471 	-9.42839e-22
-0.415863 	0.415863 	0.5 	0.12275 	0.126465 	7.737e-21
-0.433538 	0.433538 	0.5 	0.148208 	0.15412 	0
-0.451213 	0.451213 	0.5 	0.170736 	0.178706 	6.0995e-21
-0.468888 	0.468888 	0.5 	0.190768 	0.200492 	1.04643e-20
-0.486563 	0.486563 	0.5 	0.208656 	0.219718 	6.37978e-21
-0.504238 	0.504238 	0.5 	0.224685 	0.236606 	-4.31584e-21
-0.521913 	0.521913 	0.5 	0.239092 	0.251359 	-1.10807e-20
-0.539588 	0.539588 	0.5 	0.252074 	0.264166 	0
-0.557263 	0.557263 	0.5 	0.263798 	0.275202 	9.11108e-21
-0.574938 	0.574938 	0.5 	0.274407 	0.284628 	4.65332e-21
-0.592613 	0.592613 	0.5 	0.284024 	0.292595 	-6.88647e-23
-0.610288 	0.610288 	0.5 	0.292755 	0.299243 	-1.51697e-23
-0.627963 	0.627963 	0.5 	0.300694 	0.3047 	1.89687e-20
-0.645638 	0.645638 	0.5 	0.307922 	0.309083 	-4.77893e-21
-0.663313 	0.663313 	0.5 	0.314509 	0.312503 	1.43472e-20
-0.680988 	0.680988 	0.5 	0.320519 	0.315057 	-4.81279e-21
-0.698663 	0.698663 	0.5 	0.326006 	0.316836 	1.44046e-20
-0.716338 	0.716338 	0.5 	0.331018 	0.317921 	-9.64599e-21
-0.734013 	0.734013 	0.5 	0.335598 	0.318385 	1.43962e-20
-0.751688 	0.751688 	0.5 	0.339783 	0.318295 	4.80635e-21
-0.769363 	0.769363 	0.5 	0.343604 	0.317708 	-1.43281e-20
-0.787038 	0.787038 	0.5 	0.347089 	0.316675 	0
-0.804713 	0.804713 	0.5 	0.350262 	0.315243 	-9.44635e-21
-0.822388 	0.822388 	0.5 	0.353142 	0.313451 	0
-0.840063 	0.840063 	0.5 	0.355746 	0.311332 	-9.32984e-21
-0.857738 	0.857738 	0.5 	0.358086 	0.308915 	0
-0.875413 	0.875413 	0.5 	0.360173 	0.306223 	9.18398e-21
-0.893088 	0.893088 	0.5 	0.362012 	0.303277 	0
-0.910763 	0.910763 	0.5 	0.363607 	0.300091 	9.01103e-21
-0.928438 	0.928438 	0.5 	0.364958 	0.296677 	-8.91455e-21
-0.946113 	0.946113 	0.5 	0.366061 	0.293041 	0
-0.963788 	0.963788 	0.5 	0.366909 	0.289185 	-8.70012e-21
-0.981463 	0.981463 	0.5 	0.367488 	0.285108 	8.58071e-21
-0.999138 	0.999138 	0.5 	0.367774 	0.280804 	0
-1.01681 	1.01681 	0.5 	0.367757 	0.276239 	0
-1.03449 	1.03449 	0.5 	0.367484 	0.271327 	-8.12087e-21
-1.05216 	1.05216 	0.5 	0.366876 	0.266227 	-9.23862e-21
-1.061 	1.061 	0.5 	0.362943 	0.253145 	7.53659e-21
-1.12274 	1.12274 	0.5 	0.355869 	0.243648 	0
-1.18448 	1.18448 	0.5 	0.343489 	0.215603 	0
-1.24621 	1.24621 	0.5 	0.340831 	0.195001 	0
-1.30795 	1.30795 	0.5 	0.336629 	0.178995 	0
-1.36969 	1.36969 	0.5 	0.320378 	0.142624 	0
-1.43142 	1.43142 	0.5 	0.312962 	0.125998 	0
-1.49316 	1.49316 	0.5 	0.294858 	0.0846718 	0
-1.5549 	1.5549 	0.5 	0.27618 	0.040375 	0
-1.61664 	1.61664 	0.5 	0.265541 	0.0211684 	0
-1.67838 	1.67838 	0.5 	0.245948 	-0.025353 	0
