/*--------------------------------*- C++ -*----------------------------------*\
  =========                 |
  \\      /  F ield         | OpenFOAM: The Open Source CFD Toolbox
   \\    /   O peration     | Website:  https://openfoam.org
    \\  /    A nd           | Version:  7
     \\/     M anipulation  |
\*---------------------------------------------------------------------------*/
FoamFile
{
    version     2.0;
    format      ascii;
    class       surfaceScalarField;
    location    "3.9";
    object      phi;
}
// * * * * * * * * * * * * * * * * * * * * * * * * * * * * * * * * * * * * * //

dimensions      [0 3 -1 0 0 0 0];

internalField   nonuniform List<scalar> 
3880
(
0.000134751
0.00316772
-0.00330248
0.000546179
0.00720509
-0.00761652
0.00120884
0.0100657
-0.0107283
0.00209248
0.0121919
-0.0130755
0.0031645
0.0138342
-0.0149062
0.00439019
0.0151415
-0.0163672
0.0057321
0.0162084
-0.0175503
0.00714952
0.0170989
-0.0185163
0.00859769
0.0178579
-0.0193061
0.0185145
0.0100274
-0.0199442
0.000143701
0.00302402
0.00058992
0.00675887
0.00131292
0.00934266
0.00228209
0.0112227
0.0034652
0.0126511
0.00482833
0.0137784
0.00633452
0.0147022
0.00794224
0.0154912
0.00960333
0.0161969
0.0168568
0.011261
0.000156241
0.00286778
0.00064509
0.00627002
0.00143809
0.00854965
0.00250282
0.010158
0.00380664
0.0113473
0.00531649
0.0122686
0.00699685
0.0130218
0.00880703
0.013681
0.0106973
0.0143066
0.0149499
0.0126043
0.00017395
0.00269383
0.000716104
0.00572787
0.00159242
0.00767334
0.00276666
0.00898376
0.00420451
0.0099094
0.0058732
0.0105999
0.0077392
0.0111558
0.00976446
0.0116557
0.0119005
0.0121705
0.012771
0.0140794
0.0001985
0.00249533
0.000807535
0.00511883
0.00178427
0.0066966
0.00308636
0.00768167
0.00467583
0.00831993
0.00651877
0.00875692
0.00858322
0.00909141
0.0108352
0.0094037
0.0132313
0.00977449
0.0102988
0.0157034
0.000231459
0.00226387
0.000923624
0.00442667
0.00202153
0.0055987
0.00347421
0.006229
0.0052376
0.00655654
0.00727413
0.0067204
0.00955141
0.00681413
0.0120397
0.00691543
0.0147044
0.00710981
0.00751834
0.0174848
0.000274116
0.00198976
0.00106763
0.00363315
0.00231023
0.0043561
0.00394006
0.00459917
0.00590445
0.00459215
0.00815878
0.00446607
0.0106663
0.00430661
0.0133985
0.00418323
0.016332
0.00417635
0.00442608
0.0194242
0.000327206
0.00166255
0.00124106
0.00271929
0.002653
0.00294416
0.00448872
0.00276345
0.00668516
0.00239571
0.00918744
0.00196378
0.0119488
0.00154529
0.0149341
0.00119791
0.0181274
0.000982994
0.00102923
0.0215243
0.000390683
0.00127187
0.00144285
0.00166712
0.00304726
0.00133975
0.00511667
0.000694041
0.0075779
-6.55131e-05
0.0103655
-0.000823791
0.0134186
-0.00150788
0.0166827
-0.00206614
0.0201282
-0.00246248
-0.00267017
0.0238276
0.000463527
0.000808342
0.0016687
0.000461956
0.0034834
-0.000474952
0.00580787
-0.00163043
0.00856213
-0.00281977
0.0116776
-0.00393922
0.0150915
-0.00492183
0.0187387
-0.00571337
0.0225351
-0.0062588
0.026445
-0.00658007
0.0116619
0.0721647
-0.0737992
0.0124514
0.0772155
-0.078005
0.0122033
0.0819771
-0.081729
0.0112107
0.0865878
-0.0855952
0.00972946
0.0911213
-0.08964
0.00795218
0.0954155
-0.0936382
0.0060331
0.0993256
-0.0974066
0.00404618
0.102943
-0.100956
0.00202975
0.10614
-0.104123
0.108447
-0.106417
0.0131989
0.0702269
0.0142157
0.0761986
0.0140666
0.0821262
0.0130399
0.0876145
0.0114105
0.0927507
0.00939587
0.0974301
0.0071719
0.10155
0.00483303
0.105282
0.00243185
0.108541
0.110879
0.0147946
0.0680365
0.0160078
0.0749854
0.015955
0.082179
0.0148991
0.0886704
0.013127
0.0945228
0.010876
0.0996811
0.00834384
0.104082
0.00564489
0.107981
0.0028478
0.111338
0.113727
0.0164599
0.0656561
0.0178234
0.0736218
0.0178564
0.082146
0.0167743
0.0897525
0.0148664
0.0964307
0.0123835
0.102164
0.00954322
0.106922
0.00647897
0.111045
0.00327669
0.11454
0.117003
0.0182034
0.0631561
0.0196578
0.0721674
0.0197579
0.082046
0.01865
0.0908603
0.0166146
0.0984662
0.0139074
0.104871
0.0107631
0.110066
0.00733167
0.114477
0.00371719
0.118155
0.120721
0.020029
0.060612
0.0215052
0.0706912
0.0216456
0.0819056
0.0205094
0.0919965
0.0183557
0.10062
0.0154354
0.107791
0.0119951
0.113507
0.00819834
0.118274
0.00416745
0.122186
0.124888
0.0219301
0.0581061
0.023355
0.0692662
0.0235021
0.0817585
0.0223325
0.0931661
0.0200707
0.102882
0.0169517
0.11091
0.0132281
0.11723
0.00907251
0.122429
0.00462474
0.126633
0.129513
0.0238802
0.0557502
0.025183
0.0679635
0.025301
0.0816404
0.024092
0.0943751
0.0217345
0.105239
0.0184356
0.114209
0.0144469
0.121219
0.00994479
0.126931
0.00508492
0.131493
0.134598
0.0258667
0.0537111
0.0269704
0.0668597
0.0270185
0.0815923
0.0257614
0.0956322
0.0233202
0.107681
0.0198625
0.117667
0.0156314
0.12545
0.0108018
0.131761
0.00554172
0.136753
0.140139
0.0279625
0.0521935
0.0287733
0.0660489
0.0286595
0.0817062
0.0273256
0.0969661
0.0247971
0.110209
0.0211938
0.12127
0.0167439
0.1299
0.0116146
0.13689
0.00598022
0.142388
0.14612
0.104642
0.0683942
-0.120842
0.0922335
0.0784571
0.0817417
0.0921979
0.0716149
0.107093
0.0610545
0.120769
0.0498545
0.13247
0.0380333
0.141721
0.0256627
0.149261
0.0129097
0.155141
0.159029
0.132833
0.0858178
-0.150256
0.116079
0.0952108
0.100761
0.107516
0.0864119
0.121442
0.0723941
0.134787
0.0583304
0.146534
0.0440639
0.155987
0.0295457
0.163779
0.0148334
0.169853
0.173863
0.151597
0.102578
-0.168357
0.134069
0.11274
0.116783
0.124802
0.100056
0.138169
0.0836278
0.151216
0.067239
0.162923
0.050716
0.17251
0.03403
0.180465
0.0171335
0.18675
0.190996
0.165892
0.118299
-0.181614
0.148669
0.129963
0.130861
0.14261
0.112962
0.156067
0.0949363
0.169241
0.0766491
0.18121
0.0579577
0.191202
0.0389348
0.199488
0.0196076
0.206077
0.210604
0.179338
0.133259
-0.194298
0.162535
0.146766
0.144611
0.160535
0.126009
0.174669
0.106732
0.188518
0.0866577
0.201285
0.0656929
0.212167
0.0440545
0.221126
0.0220557
0.228076
0.23266
0.192659
0.147508
-0.206908
0.176225
0.1632
0.158328
0.178432
0.139298
0.193699
0.119184
0.208632
0.0979921
0.222477
0.075702
0.234457
0.0521863
0.244642
0.0269576
0.253304
0.259617
0.207838
0.159849
-0.220179
0.192289
0.178749
0.174582
0.196138
0.154916
0.213365
0.133023
0.230524
0.108698
0.246802
0.0821925
0.260962
0.054523
0.272312
0.026934
0.280893
0.286551
0.219307
0.16657
-0.226029
0.206073
0.191984
0.189366
0.212845
0.170606
0.232125
0.149934
0.251196
0.12673
0.270005
0.100143
0.28755
0.0696715
0.302783
0.0358684
0.314696
0.32242
0.229091
0.15894
-0.221461
0.225308
0.195766
0.211339
0.226814
0.190066
0.253398
0.163968
0.277294
0.134609
0.299364
0.102944
0.319215
0.0697103
0.336017
0.035141
0.349266
0.35756
0.20654
-0.177901
0.222452
0.225771
0.21751
0.199013
0.171602
0.13655
0.0951331
0.0490221
0.0403878
-0.129908
-0.0313222
0.0456108
-0.155479
0.0484717
-0.171218
0.0502908
-0.183433
0.0514236
-0.195431
0.0520276
-0.207512
0.0508983
-0.21905
0.0474682
-0.222598
0.0381513
-0.212144
-0.165814
0.0408082
-0.137768
-0.0329481
0.0452833
-0.159954
0.0477387
-0.173674
0.0493156
-0.18501
0.0502574
-0.196373
0.0505706
-0.207825
0.0489671
-0.217446
0.0447558
-0.218387
0.0346709
-0.202059
-0.153261
0.0408059
-0.144698
-0.0338758
0.0445669
-0.163715
0.0466487
-0.175755
0.0480099
-0.186371
0.0487838
-0.197147
0.0487882
-0.20783
0.0467144
-0.215372
0.0417146
-0.213387
0.0310909
-0.191435
-0.140249
0.0401681
-0.150716
-0.0341502
0.0432933
-0.166841
0.0450685
-0.177531
0.0462647
-0.187567
0.0468981
-0.19778
0.0466039
-0.207535
0.0440705
-0.212839
0.0383627
-0.207679
0.027338
-0.18041
-0.126916
0.0388466
-0.155823
-0.0337393
0.041414
-0.169408
0.0429575
-0.179074
0.0440467
-0.188656
0.0445717
-0.198305
0.0439976
-0.206961
0.041031
-0.209872
0.0347109
-0.201359
0.0234577
-0.169157
-0.113397
0.0368145
-0.160048
-0.0325897
0.0389237
-0.171517
0.0403168
-0.180467
0.041358
-0.189698
0.0418062
-0.198753
0.0409764
-0.206131
0.0376113
-0.206507
0.030772
-0.19452
0.0195057
-0.157891
-0.0998414
0.0340846
-0.163456
-0.0306762
0.035851
-0.173284
0.0371748
-0.181791
0.0382217
-0.190745
0.038622
-0.199153
0.037565
-0.205075
0.0338426
-0.202785
0.0265608
-0.187238
0.0154821
-0.146812
-0.086564
0.0307068
-0.166147
-0.0280159
0.0322465
-0.174823
0.0335742
-0.183119
0.0346723
-0.191843
0.0350517
-0.199533
0.0338029
-0.203826
0.029776
-0.198758
0.0221437
-0.179606
0.011236
-0.135905
-0.0743255
0.026757
-0.168237
-0.0246672
0.0281744
-0.176241
0.0295667
-0.184511
0.0307532
-0.193029
0.0311385
-0.199918
0.029742
-0.202429
0.0254806
-0.194496
0.0176361
-0.171761
0.00698531
-0.125254
-0.0635741
0.0223267
-0.169843
-0.0207211
0.0237073
-0.177621
0.0252103
-0.186014
0.0265152
-0.194334
0.0269354
-0.200338
0.0254442
-0.200938
0.0210357
-0.190088
0.0131355
-0.163861
0.00285355
-0.114972
-0.0543339
0.0175263
-0.171066
-0.0163026
0.0189329
-0.179028
0.0205778
-0.187659
0.0220246
-0.195781
0.0225104
-0.200824
0.0209837
-0.199411
0.0165239
-0.185628
0.00872631
-0.156063
-0.00109023
-0.105155
-0.0464765
0.0124341
-0.171989
-0.0115114
0.0139085
-0.180502
0.0157159
-0.189466
0.0173268
-0.197392
0.017915
-0.201412
0.016419
-0.197915
0.0120055
-0.181215
0.00446393
-0.148522
-0.00442334
-0.0962681
-0.0394507
0.00716095
-0.172664
-0.00648612
0.00872288
-0.182064
0.0107044
-0.191448
0.0124974
-0.199185
0.0132257
-0.20214
0.0118252
-0.196515
0.00754573
-0.176935
0.000402056
-0.141378
-0.00781246
-0.0880536
-0.0333437
0.00176976
-0.173081
-0.00135288
0.00345489
-0.183749
0.0056146
-0.193608
0.00760467
-0.201175
0.00851196
-0.203048
0.00726943
-0.195272
0.00319212
-0.172858
-0.00360959
-0.134576
-0.0110896
-0.0805736
-0.0280768
-0.00354106
-0.173302
0.00376266
-0.00181652
-0.185474
0.000510972
-0.195935
0.0027139
-0.203378
0.00383918
-0.204173
0.0028136
-0.194247
-0.0010083
-0.169036
-0.00736662
-0.128218
-0.0142084
-0.0737318
-0.0235376
-0.00875926
-0.173294
0.00875035
-0.00702436
-0.187209
-0.0045365
-0.198423
-0.00211205
-0.205802
-0.00072977
-0.205555
-0.00148604
-0.193491
-0.00497987
-0.165542
-0.0108956
-0.122302
-0.0171528
-0.0674747
-0.0196091
-0.0137701
-0.173037
0.0135134
-0.0120659
-0.188913
-0.00943628
-0.201053
-0.00678523
-0.208453
-0.00512408
-0.207216
-0.00557811
-0.193037
-0.00872971
-0.162391
-0.0141926
-0.116839
-0.0199175
-0.0617498
-0.016177
-0.0183923
-0.172621
0.0179763
-0.0167755
-0.19053
-0.0140527
-0.203776
-0.011201
-0.211305
-0.00926254
-0.209155
-0.00940324
-0.192896
-0.0122148
-0.159579
-0.0172508
-0.111803
-0.0225033
-0.0564973
-0.0131328
-0.022595
-0.172135
0.0221092
-0.0211785
-0.191946
-0.0184289
-0.206525
-0.0153945
-0.214339
-0.0131617
-0.211388
-0.0129624
-0.193095
-0.0154298
-0.157112
-0.0200689
-0.107164
-0.0249148
-0.0516514
-0.0103747
-0.0267013
-0.171357
0.0259229
-0.0256627
-0.192985
-0.0229213
-0.209267
-0.019634
-0.217627
-0.016987
-0.214035
-0.0163413
-0.193741
-0.0183756
-0.155077
-0.022669
-0.102871
-0.0271508
-0.0471697
-0.00778783
0.0149887
-0.174154
-0.0121909
0.0162042
-0.1942
0.0164889
-0.209551
0.0113896
-0.212527
-0.00386508
-0.19878
-0.030691
-0.166915
-0.065555
-0.120213
-0.0998112
-0.0686146
-0.121972
-0.0250093
-0.00156796
-0.0133245
-0.177791
0.0169606
-0.0106141
-0.196911
-0.0130394
-0.207126
-0.0248485
-0.200718
-0.0486161
-0.175013
-0.0820932
-0.133438
-0.11757
-0.0847362
-0.145677
-0.040508
-0.15985
-0.0108361
0.000338306
-0.042263
-0.180518
0.0449907
-0.0423002
-0.196873
-0.0503814
-0.199045
-0.0700826
-0.181017
-0.100598
-0.144497
-0.135762
-0.0982733
-0.166708
-0.053791
-0.186473
-0.0207426
-0.193605
-0.00370427
0.000241016
-0.0756359
-0.180063
0.0751807
-0.0812758
-0.191233
-0.096874
-0.183447
-0.123861
-0.15403
-0.157625
-0.110733
-0.189699
-0.0661994
-0.212437
-0.0310525
-0.223108
-0.0100717
-0.22498
-0.00183265
-0.000310155
-0.114915
-0.173593
0.108445
-0.128536
-0.177613
-0.152178
-0.159804
-0.183723
-0.122484
-0.21571
-0.0787466
-0.240167
-0.0417427
-0.253308
-0.0179117
-0.25703
-0.00634943
-0.25663
-0.00223266
-0.00049395
-0.160738
-0.158437
0.145582
-0.183393
-0.154958
-0.213157
-0.13004
-0.244765
-0.0908767
-0.270475
-0.0530359
-0.285597
-0.0266215
-0.291029
-0.0124793
-0.291417
-0.00596116
-0.291072
-0.00257768
-0.000272849
-0.211368
-0.132929
0.185861
-0.242134
-0.124192
-0.274694
-0.0974804
-0.302536
-0.0630354
-0.320448
-0.035123
-0.32829
-0.0187795
-0.330149
-0.010621
-0.330421
-0.00568904
-0.330896
-0.002103
-8.01817e-06
-0.26146
-0.0973441
0.225875
-0.298902
-0.0867507
-0.331974
-0.0644084
-0.355262
-0.039747
-0.367708
-0.0226766
-0.372715
-0.0137727
-0.374776
-0.0085601
-0.376189
-0.00427609
-0.377039
-0.00125339
5.36325e-05
-0.304879
-0.051484
0.259019
-0.347171
-0.0444584
-0.379758
-0.0318215
-0.400105
-0.0194008
-0.411016
-0.011765
-0.416992
-0.00779707
-0.420734
-0.00481841
-0.422838
-0.00217137
-0.423538
-0.000553193
9.29919e-06
-0.331776
0.280292
-0.376235
-0.408056
-0.427457
-0.439222
-0.447019
-0.451838
-0.454009
-0.454562
-0.0375851
-0.00460396
0.0299982
-0.0438834
0.0232589
-0.0487339
0.0498412
-0.0519479
0.0783948
-0.0528543
0.109352
-0.0506381
0.143366
-0.0443453
0.179569
-0.033492
0.215021
-0.0183118
0.243839
0.261981
-0.0386558
0.00203039
0.0320214
-0.0441093
0.0287124
-0.048263
0.0539948
-0.0507861
0.0809179
-0.0510991
0.109665
-0.0484947
0.140761
-0.0421544
0.173228
-0.0316289
0.204496
-0.0172204
0.22943
0.24476
-0.0394071
0.00813103
0.0333065
-0.0441348
0.0334401
-0.0475822
0.0574423
-0.0494184
0.0827541
-0.0491665
0.109413
-0.0462114
0.137806
-0.0398578
0.166875
-0.0297223
0.19436
-0.0161069
0.215815
0.228653
-0.0395298
0.0137287
0.0339322
-0.0436032
0.0375135
-0.046386
0.0602251
-0.0475886
0.0839566
-0.0468389
0.108663
-0.0436117
0.134579
-0.0373266
0.16059
-0.0276609
0.184694
-0.0149196
0.203074
0.213734
-0.0390516
0.0188238
0.0339564
-0.0425154
0.0409773
-0.0446882
0.062398
-0.0453301
0.0845985
-0.0441637
0.107497
-0.0407498
0.131165
-0.0346141
0.154454
-0.0254917
0.175572
-0.0136843
0.191266
0.200049
-0.0380379
0.02343
0.0334317
-0.0409464
0.0438858
-0.0425668
0.0640184
-0.0427239
0.0847556
-0.0412215
0.105994
-0.0377017
0.127645
-0.0317868
0.148539
-0.0232658
0.167051
-0.01243
0.18043
0.187619
-0.0365555
0.0275698
0.0324156
-0.0389737
0.0463041
-0.0401087
0.0651533
-0.0398605
0.0845075
-0.0381014
0.104235
-0.0345499
0.124094
-0.028915
0.142904
-0.0210349
0.159171
-0.011185
0.17058
0.176434
-0.0346781
0.0312739
0.030974
-0.0366747
0.0483006
-0.0373983
0.0658769
-0.0368262
0.0839353
-0.0348876
0.102297
-0.0313716
0.120578
-0.0260636
0.137596
-0.0188461
0.151953
-0.00997443
0.161709
0.16646
-0.0324852
0.0345788
0.0291803
-0.0341282
0.0499437
-0.0345169
0.0662656
-0.0337006
0.083119
-0.0316554
0.100251
-0.0282339
0.117156
-0.023288
0.13265
-0.0167386
0.145404
-0.0088184
0.153789
0.157642
-0.0300566
0.0375235
0.0271119
-0.0314114
0.0512985
-0.0315398
0.066394
-0.0305543
0.0821334
-0.0284691
0.0981662
-0.025192
0.113879
-0.0206316
0.12809
-0.0147418
0.139514
-0.00773125
0.146778
0.14991
-0.0274731
0.0401461
0.0248505
-0.028599
0.0524244
-0.0285372
0.0663322
-0.0274504
0.0810467
-0.0253836
0.0960994
-0.0222909
0.110787
-0.0181282
0.123927
-0.012877
0.134263
-0.00672288
0.140624
0.143187
-0.0248001
0.042479
0.0224672
-0.0257467
0.0533709
-0.0255565
0.066142
-0.0244277
0.0799179
-0.0224291
0.0941008
-0.019552
0.10791
-0.0157915
0.120167
-0.011151
0.129622
-0.00579528
0.135268
0.137392
-0.0221049
0.0445492
0.0200347
-0.0229115
0.0541775
-0.0226458
0.0658763
-0.0215246
0.0787967
-0.0196348
0.092211
-0.016996
0.105271
-0.013634
0.116805
-0.00956962
0.125558
-0.00495008
0.130649
0.132442
-0.0194429
0.0463772
0.0176148
-0.0201375
0.0548721
-0.0198388
0.0655777
-0.0187651
0.077723
-0.0170159
0.0904618
-0.0146303
0.102885
-0.0116577
0.113832
-0.00813148
0.122032
-0.00418524
0.126702
0.128257
-0.0168593
0.0479781
0.0152585
-0.017459
0.0554718
-0.0171593
0.065278
-0.0161635
0.0767271
-0.0145782
0.0888766
-0.0124543
0.100761
-0.00985829
0.111236
-0.00683124
0.119005
-0.00349706
0.123368
0.12476
-0.0143881
0.049362
0.0130042
-0.0149004
0.0559841
-0.0146218
0.0649994
-0.0137253
0.0758306
-0.0123202
0.0874714
-0.0104614
0.0989025
-0.00822703
0.109002
-0.00566088
0.116439
-0.00288072
0.120588
0.121879
-0.0120511
0.0505352
0.0108779
-0.0124771
0.0564102
-0.0122325
0.0647548
-0.0114492
0.0750473
-0.0102336
0.0862559
-0.00863945
0.0973083
-0.00675121
0.107113
-0.00461013
0.114298
-0.00233062
0.118309
0.119549
-0.00986139
0.0515015
0.00889509
-0.0101995
0.0567483
-0.00999376
0.064549
-0.00932923
0.0743828
-0.00830602
0.0852327
-0.00697212
0.0959744
-0.00541463
0.105556
-0.00366662
0.11255
-0.00184039
0.116482
0.117708
-0.0078269
0.0522589
0.00706943
-0.00806859
0.05699
-0.00789776
0.0643782
-0.0073501
0.0738351
-0.00651598
0.0843985
-0.00543546
0.0948939
-0.00419528
0.104316
-0.00281436
0.111169
-0.0014023
0.11507
0.116306
-0.00590973
0.0527384
0.00543029
-0.00603206
0.0571123
-0.00588556
0.0642317
-0.00545363
0.0734032
-0.00480989
0.0837548
-0.003985
0.094069
-0.00305942
0.10339
-0.00203294
0.110142
-0.00100756
0.114045
0.115298
-0.0690955
0.0468187
0.0750152
-0.0651732
0.05319
-0.0612902
0.0603487
-0.0564201
0.068533
-0.0500004
0.0773351
-0.0418836
0.0859523
-0.0322039
0.0937103
-0.021509
0.0994472
-0.0105675
0.103103
0.104731
-0.0632846
0.0409343
0.069169
-0.0581467
0.0480522
-0.0531286
0.0553306
-0.0475934
0.0629978
-0.0411798
0.0709214
-0.0338021
0.0785746
-0.0255803
0.0854885
-0.0169624
0.0908294
-0.00835032
0.0944914
0.0963804
-0.0562774
0.0355653
0.0616464
-0.051065
0.0428397
-0.0457494
0.050015
-0.0400639
0.0573124
-0.033864
0.0647215
-0.0272043
0.0719149
-0.0202167
0.0785008
-0.0132857
0.0838985
-0.00654106
0.0877467
0.0898393
-0.0490767
0.0309787
0.0536632
-0.044083
0.0378461
-0.0387389
0.0446709
-0.033049
0.0516224
-0.027067
0.0587395
-0.0209807
0.0658286
-0.0149919
0.0725121
-0.00949541
0.0784019
-0.00454321
0.0827945
0.0852961
-0.0422789
0.0268895
0.0463681
-0.0374442
0.0330115
-0.0320395
0.0392661
-0.0262552
0.0458382
-0.0203071
0.0527913
-0.0145269
0.0600485
-0.00926681
0.067252
-0.00501703
0.0741521
-0.0020278
0.0798053
0.0832683
-0.037015
0.0229219
0.0409827
-0.031999
0.0279955
-0.0262288
0.0334958
-0.0200074
0.0396168
-0.0136697
0.0464537
-0.00770427
0.054083
-0.00273538
0.0622831
0.000557475
0.0708593
0.00135552
0.0790072
0.0846238
-0.0372284
0.0182936
0.0418567
-0.0313217
0.0220888
-0.0245005
0.0266746
-0.0170316
0.0321479
-0.00932046
0.0387426
-0.00195526
0.0467178
0.00405445
0.0562734
0.0074482
0.0674655
0.00625887
0.0801965
0.0908827
-0.0559318
0.0118243
0.062401
-0.0483124
0.0144694
-0.0394697
0.0178319
-0.0294029
0.0220811
-0.0183721
0.0277118
-0.00685848
0.0352042
0.00405434
0.0453606
0.0121913
0.0593286
0.012554
0.0798338
0.103437
-0.124388
0.00394719
0.132265
-0.115461
0.00554246
-0.104788
0.00715883
-0.0919741
0.00926754
-0.076637
0.0123748
-0.0583891
0.0169563
-0.0368045
0.023776
-0.0125959
0.03512
0.0078235
0.0594144
0.11126
-0.28087
0.284818
-0.275328
-0.268169
-0.258902
-0.246527
-0.229571
-0.205795
-0.170675
-0.11126
-0.00367519
0.074302
0.00438836
-0.00246156
0.0679554
-0.00109906
0.0602839
0.000102423
0.0524617
0.000989791
0.0454808
0.00122888
0.0407436
0.000434806
0.0426508
-0.00161301
0.0644488
-0.00334337
0.133995
0.281474
-0.00280562
0.0738728
0.00323484
-0.00187564
0.0670254
-0.000732677
0.0591409
0.000293276
0.0514358
0.000987289
0.0447868
0.00110389
0.040627
0.000297867
0.0434568
-0.00158337
0.0663301
-0.00306501
0.135477
0.278409
-0.00197888
0.0736592
0.0021925
-0.0012836
0.0663301
-0.000359023
0.0582164
0.000473302
0.0506034
0.00100617
0.0442539
0.0010187
0.0406145
0.000217045
0.0442584
-0.00148459
0.0680317
-0.00276908
0.136761
0.27564
-0.00124684
0.0736137
0.00129235
-0.000758182
0.0658415
-3.0994e-05
0.0574892
0.000633284
0.0499391
0.00103287
0.0438543
0.00097241
0.0406749
0.000203496
0.0450274
-0.00131288
0.0695481
-0.00242653
0.137875
0.273214
-0.000625028
0.0736909
0.000547858
-0.000313346
0.0655298
0.000257318
0.0569185
0.000771741
0.0494247
0.00106711
0.0435589
0.000964965
0.0407771
0.000255812
0.0457365
-0.00107075
0.0708747
-0.00204053
0.138845
0.271173
-9.85307e-05
0.0738026
-1.32466e-05
4.03931e-05
0.0653909
0.000497782
0.0564611
0.000892845
0.0490297
0.00111136
0.0433404
0.000995276
0.0408931
0.000368533
0.0463633
-0.000766148
0.0720093
-0.00161733
0.139696
0.269556
0.00030578
0.0739986
-0.000501708
0.000385601
0.065311
0.000698859
0.0561479
0.000998937
0.0487296
0.00116595
0.0431734
0.00106045
0.0409986
0.000534839
0.0468889
-0.000407686
0.0729519
-0.00116294
0.140451
0.268393
0.000613539
0.0741969
-0.000811871
0.000638438
0.0652861
0.000859353
0.0559269
0.00108989
0.048499
0.00122858
0.0430347
0.00115522
0.041072
0.000746209
0.0472979
-9.42302e-06
0.0737075
-0.000683133
0.141125
0.26771
0.000832148
0.0743524
-0.000987617
0.000824373
0.0652939
0.000979553
0.0557718
0.0011638
0.0483148
0.00129497
0.0429035
0.00127224
0.0410947
0.000992929
0.0475772
0.000433286
0.0742671
-0.000183036
0.141741
0.267527
0.000967595
0.0744305
-0.00104575
0.000947725
0.0653138
0.00106029
0.0556592
0.00121804
0.0481571
0.00135938
0.0427622
0.00140268
0.0410514
0.00126315
0.0477167
0.000894076
0.0746362
0.000328264
0.142307
0.267855
0.0010207
0.0744105
-0.00100072
0.0010096
0.0653249
0.00109967
0.0555691
0.00124757
0.0480091
0.00141361
0.0425962
0.00153533
0.0409297
0.00154348
0.0477086
0.00136512
0.0748146
0.000844225
0.142828
0.268699
0.001011
0.0742884
-0.000888892
0.00102556
0.0653103
0.00110457
0.0554901
0.00125341
0.0478603
0.00145365
0.0423959
0.00166246
0.0407209
0.00182435
0.0475467
0.00183792
0.074801
0.00136087
0.143305
0.27006
0.000948736
0.0740724
-0.000732727
0.00100207
0.065257
0.00107539
0.0554168
0.0012313
0.0477044
0.00147108
0.0421561
0.00177252
0.0404195
0.00209225
0.047227
0.00229923
0.074594
0.00186919
0.143735
0.271929
0.00085308
0.0737845
-0.00056512
0.000950591
0.0651595
0.00101723
0.0553502
0.00118033
0.0475413
0.00145993
0.0418765
0.00185582
0.0400236
0.00233557
0.0467472
0.00273765
0.0741919
0.00236155
0.144111
0.274291
0.000748668
0.0734584
-0.000422617
0.000885422
0.0650227
0.00093793
0.0552976
0.00110164
0.0473776
0.00141572
0.0415625
0.00190366
0.0395356
0.00254344
0.0461074
0.00314217
0.0735932
0.00283008
0.144423
0.277121
0.000666798
0.0731334
-0.000341798
0.000824293
0.0648652
0.000848665
0.0552733
0.000999144
0.0472271
0.00133612
0.0412255
0.00190867
0.0389631
0.00270582
0.0453103
0.00350224
0.0727968
0.00326661
0.144659
0.280387
0.000646197
0.0728431
-0.000355909
0.000789555
0.0647219
0.000764806
0.055298
0.000880469
0.0471114
0.00122166
0.0408843
0.00186506
0.0383197
0.00281318
0.0443622
0.0038073
0.0718027
0.00366254
0.144803
0.28405
0.000725264
0.0726151
-0.000497252
0.000806771
0.0646404
0.000704951
0.0553998
0.000756786
0.0470596
0.00107578
0.0405653
0.00176814
0.0376273
0.00285546
0.0432749
0.00404609
0.0706121
0.00400802
0.144842
0.288058
0.000918941
0.0724777
-0.000781573
0.000897057
0.0646623
0.000683485
0.0556134
0.000637375
0.0471057
0.000901572
0.0403011
0.00161307
0.0369158
0.00282274
0.0420652
0.0042112
0.0692236
0.00429584
0.144757
0.292354
0.00128172
0.0723506
-0.00115459
0.00107276
0.0648712
0.000705127
0.055981
0.000522616
0.0472882
0.000701896
0.0401218
0.00140394
0.0362138
0.00272165
0.0407475
0.00432042
0.0676248
0.0045407
0.144537
0.296895
-0.0567572
0.0578471
0.0712608
-0.0444995
0.0526135
-0.0342473
0.0457289
-0.0255653
0.0386062
-0.0179665
0.032523
-0.0113057
0.029553
-0.00585427
0.0352961
-0.00221783
0.0639884
-0.000599697
0.142919
0.296295
-0.062519
0.0462717
0.0740944
-0.0515076
0.041602
-0.0415129
0.0357342
-0.03243
0.0295233
-0.0240516
0.0241446
-0.0163777
0.0218791
-0.0097705
0.0286888
-0.00483396
0.0590518
-0.00165995
0.139744
0.294635
-0.0664936
0.0363463
0.0764191
-0.0568575
0.031966
-0.047489
0.0263657
-0.0383693
0.0204036
-0.0294051
0.0151804
-0.020715
0.0131891
-0.0128259
0.0207997
-0.00652392
0.0527498
-0.00219842
0.135419
0.292437
-0.0706554
0.0280741
0.0789276
-0.0621384
0.0234489
-0.0534017
0.0176291
-0.0443657
0.0113676
-0.0349232
0.00573782
-0.0252176
0.00348358
-0.0159378
0.0115199
-0.00815973
0.0449717
-0.00260482
0.129864
0.289832
-0.0754289
0.0208464
0.0826565
-0.067885
0.015905
-0.0598354
0.00957949
-0.0510469
0.00257906
-0.041284
-0.00402508
-0.0306187
-0.00718172
-0.0198624
0.000763615
-0.0104995
0.0356089
-0.00340094
0.122766
0.286431
-0.0808349
0.01469
0.0869913
-0.0743084
0.00937847
-0.0672512
0.00252226
-0.0591747
-0.00549742
-0.0495508
-0.0136489
-0.0382815
-0.0184511
-0.0263184
-0.0111994
-0.0151829
0.0244733
-0.0057689
0.113352
0.280662
-0.0867632
0.00929099
0.0921622
-0.0814642
0.00407939
-0.0759956
-0.00294626
-0.0696904
-0.0118026
-0.0616697
-0.0216696
-0.0514241
-0.0286967
-0.0395046
-0.0231189
-0.0266964
0.0116651
-0.0127989
0.099454
0.267863
-0.0929865
0.00517197
0.0971055
-0.0895056
0.000598464
-0.0865788
-0.00587305
-0.0838123
-0.0145691
-0.0803176
-0.0251644
-0.0751317
-0.0338826
-0.0676597
-0.0305909
-0.0546669
-0.00132763
-0.0324025
0.0771896
0.23546
-0.0987914
0.00206675
0.101897
-0.0975006
-0.000692333
-0.0984267
-0.00494704
-0.101884
-0.0111116
-0.107806
-0.0192424
-0.114996
-0.0266924
-0.119202
-0.0263856
-0.11476
-0.00576877
-0.0803352
0.0427644
0.155125
-0.103049
0.105116
-0.103742
-0.108689
-0.1198
-0.139043
-0.165735
-0.192121
-0.19789
-0.155125
-0.00097084
0.0728962
-0.000664585
-0.00204817
0.0751717
-0.002626
0.0769969
-0.00298215
0.0792838
-0.00316574
0.0828401
-0.00316463
0.0869902
-0.00284969
0.0918473
-0.0022198
0.0964757
-0.00122929
0.100906
0.103887
-0.000148473
0.0743202
-0.00127554
-0.00109279
0.076116
-0.00166083
0.0775649
-0.00206853
0.0796915
-0.00232031
0.0830919
-0.00240637
0.0870763
-0.00220529
0.0916462
-0.00173566
0.096006
-0.000960746
0.100131
0.102926
0.000967028
0.0753977
-0.00204449
2.56051e-05
0.0770574
-0.000517086
0.0781076
-0.000987252
0.0801616
-0.00133312
0.0834378
-0.00153653
0.0872797
-0.00148552
0.0915952
-0.00120686
0.0957274
-0.000675752
0.0996001
0.10225
0.00212784
0.0761737
-0.00290386
0.00139512
0.0777902
0.000785741
0.078717
0.000206305
0.0807411
-0.000266403
0.0839105
-0.000596937
0.0876102
-0.000717996
0.0917162
-0.000653207
0.0956626
-0.000382545
0.0993295
0.101868
0.00334902
0.0766443
-0.00381961
0.00278368
0.0783555
0.00217931
0.0793214
0.00153455
0.0813858
0.000939677
0.0845054
0.000428569
0.0881213
9.74589e-05
0.0920473
-8.44804e-05
0.0958445
-8.29997e-05
0.099328
0.101785
0.00462644
0.0767905
-0.00477268
0.0042481
0.0787338
0.00366161
0.0799079
0.00294433
0.0821031
0.00221417
0.0852355
0.00152718
0.0888083
0.000974649
0.0925998
0.000542651
0.0962765
0.00023862
0.099632
0.102023
0.00595412
0.07659
-0.00575359
0.00578371
0.0789042
0.0052322
0.0804594
0.00444608
0.0828892
0.00357198
0.0861096
0.00268979
0.0896905
0.00189401
0.0933956
0.00118453
0.096986
0.000568685
0.100248
0.102592
0.00732447
0.0760263
-0.00676079
0.00738091
0.0788478
0.00688256
0.0809577
0.00603358
0.0837382
0.00500978
0.0871334
0.0039179
0.0907824
0.0028612
0.0944523
0.00185574
0.0979915
0.000912162
0.101191
0.103504
0.00873283
0.0750937
-0.0078002
0.00903039
0.0785502
0.00860241
0.0813857
0.00769783
0.0846428
0.00652124
0.08831
0.00520819
0.0920954
0.00387539
0.0957851
0.00255701
0.0993099
0.00127013
0.102478
0.104774
0.010179
-0.00888453
0.0107243
0.010381
0.00942858
0.00809858
0.00655585
0.00493443
0.00328799
0.00164292
0.000544395
0.000263947
0.00191283
-0.000906479
0.00394638
-0.0025085
0.00653205
-0.0042161
0.00958573
-0.00587345
0.0130456
-0.00739912
0.0168746
-0.00875085
0.0210779
-0.00991664
0.0257699
-0.0109508
-0.0121324
0.000628569
-0.000364621
0.00215909
-0.002437
0.00440378
-0.00475319
0.00723346
-0.00704578
0.0105548
-0.00919481
0.0143015
-0.0111458
0.0184324
-0.0128818
0.0229343
-0.0144185
0.0278114
-0.0158279
-0.0172692
0.000711854
-0.00107648
0.00239555
-0.00412069
0.00483025
-0.0071879
0.00786588
-0.0100814
0.0113932
-0.0127221
0.01533
-0.0150827
0.019614
-0.0171658
0.0241928
-0.0189973
0.0289985
-0.0206335
-0.0221465
0.00079007
-0.00186654
0.00260856
-0.00593917
0.00519818
-0.00977752
0.00838437
-0.0132676
0.0120384
-0.0163761
0.0160599
-0.0191042
0.0203665
-0.0214724
0.0248824
-0.0235132
0.0295193
-0.0252705
-0.0267773
0.000858781
-0.00272532
0.00278447
-0.00786486
0.00548149
-0.0124745
0.00874942
-0.0165355
0.0124402
-0.0200668
0.0164384
-0.0231024
0.0206502
-0.0256841
0.0249932
-0.0278563
0.029386
-0.0296633
-0.0311306
0.000913462
-0.00363879
0.00291022
-0.00986162
0.00565663
-0.0152209
0.00892752
-0.0198064
0.0125587
-0.023698
0.0164256
-0.0269694
0.0204322
-0.0296907
0.0245024
-0.0319265
0.0285727
-0.0337335
-0.0351477
0.000949653
-0.00458844
0.00297387
-0.0118858
0.00570364
-0.0179507
0.0088925
-0.0229953
0.0123654
-0.0271708
0.0159959
-0.0306
0.0196942
-0.0333889
0.0233979
-0.0356303
0.0270661
-0.0374017
-0.0387578
0.00096317
-0.00555161
0.00296533
-0.013888
0.00560733
-0.0205927
0.00862705
-0.026015
0.0118454
-0.0303891
0.0151413
-0.033896
0.0184378
-0.0366853
0.021691
-0.0388835
0.0248828
-0.0405935
-0.0418908
0.000950374
-0.00650198
0.00287702
-0.0158146
0.00535838
-0.0230741
0.0081242
-0.0287808
0.0109988
-0.0332638
0.0138733
-0.0367704
0.016688
-0.0395
0.01942
-0.0416155
0.0220723
-0.0432458
-0.0444858
0.000908307
-0.00741029
0.00270444
-0.0176108
0.00495419
-0.0253238
0.00738798
-0.0312146
0.00984119
-0.035717
0.0122223
-0.0391516
0.0144922
-0.0417699
0.0166483
-0.0437717
0.0187124
-0.0453099
-0.0464945
0.000877594
-0.00828788
0.0025125
-0.0192457
0.00447536
-0.0272867
0.00651129
-0.0332505
0.00847621
-0.0376819
0.0103016
-0.040977
0.0119708
-0.0434391
0.0135009
-0.0453018
0.0149292
-0.0467382
-0.0478678
0.000792038
-0.00907992
0.0022006
-0.0206542
0.00381187
-0.0288979
0.00539297
-0.0348316
0.0068247
-0.0391136
0.00806254
-0.0422148
0.00911032
-0.0444869
0.0100013
-0.0461928
0.0107842
-0.0475211
-0.048595
0.000680703
-0.00976062
0.00181861
-0.0217922
0.00303117
-0.0301105
0.00411695
-0.0359174
0.00498591
-0.0399826
0.00561771
-0.0428466
0.00603411
-0.0449033
0.00628043
-0.0464391
0.00641256
-0.0476532
-0.0486685
0.00054574
-0.0103064
0.00137594
-0.0226224
0.00215475
-0.0308893
0.00272016
-0.0364828
0.00301385
-0.0402763
0.00303826
-0.042871
0.00282925
-0.0446943
0.00243955
-0.0460494
0.00192862
-0.0471423
-0.0480928
0.000390508
-0.0106969
0.000884809
-0.0231167
0.00120779
-0.0312123