/*--------------------------------*- C++ -*----------------------------------*\
  =========                 |
  \\      /  F ield         | OpenFOAM: The Open Source CFD Toolbox
   \\    /   O peration     | Website:  https://openfoam.org
    \\  /    A nd           | Version:  7
     \\/     M anipulation  |
\*---------------------------------------------------------------------------*/
FoamFile
{
    version     2.0;
    format      ascii;
    class       volScalarField;
    location    "0.6";
    object      p;
}
// * * * * * * * * * * * * * * * * * * * * * * * * * * * * * * * * * * * * * //

dimensions      [0 2 -2 0 0 0 0];

internalField   nonuniform List<scalar> 
18000
(
3.70961
3.71225
3.71689
3.72469
3.73636
3.75146
3.7687
3.7867
3.80443
3.82128
3.83703
3.8517
3.86539
3.87825
3.89042
3.90208
3.91337
3.92443
3.93534
3.94619
3.95703
3.96786
3.9787
3.98958
4.00052
4.01155
4.02271
4.03401
4.04547
4.05704
3.68841
3.69135
3.69598
3.70375
3.71546
3.73069
3.74814
3.76639
3.78436
3.80141
3.81733
3.83212
3.84589
3.85878
3.87094
3.88256
3.89378
3.90473
3.91551
3.92619
3.93683
3.94744
3.95805
3.96869
3.97936
3.99012
4.00097
4.01194
4.02307
4.03428
3.66671
3.67003
3.67467
3.68243
3.69418
3.70956
3.72723
3.74572
3.7639
3.78115
3.79723
3.81213
3.82597
3.83888
3.85103
3.8626
3.87373
3.88457
3.89519
3.90569
3.91612
3.9265
3.93687
3.94724
3.95764
3.9681
3.97863
3.98926
4.00002
4.01085
3.64462
3.64835
3.65299
3.66075
3.67257
3.68811
3.706
3.72471
3.74311
3.76055
3.77677
3.79178
3.80567
3.81859
3.83072
3.84222
3.85326
3.86396
3.87442
3.88472
3.89492
3.90506
3.91517
3.92527
3.93538
3.94552
3.95571
3.96599
3.97637
3.98679
3.62215
3.62629
3.63096
3.63874
3.65066
3.66638
3.68449
3.70343
3.72204
3.73964
3.75599
3.77109
3.78503
3.79795
3.81004
3.82147
3.8324
3.84295
3.85323
3.86331
3.87328
3.88316
3.893
3.90281
3.91261
3.92241
3.93225
3.94215
3.95213
3.96213
3.59937
3.60394
3.60863
3.61645
3.62848
3.6444
3.66274
3.68192
3.70072
3.71848
3.73495
3.75012
3.76408
3.77699
3.78903
3.80037
3.81117
3.82156
3.83163
3.84149
3.85121
3.86083
3.87038
3.87989
3.88935
3.8988
3.90827
3.91777
3.92735
3.93691
3.57631
3.58132
3.58603
3.59391
3.60608
3.62222
3.64081
3.66021
3.67919
3.69709
3.71367
3.72889
3.74287
3.75574
3.76772
3.77896
3.78961
3.79981
3.80968
3.8193
3.82876
3.8381
3.84735
3.85653
3.86564
3.87472
3.8838
3.89289
3.90205
3.91116
3.55302
3.55845
3.5632
3.57115
3.5835
3.59987
3.61872
3.63835
3.65751
3.67554
3.69219
3.70745
3.72141
3.73425
3.74614
3.75725
3.76775
3.77775
3.78739
3.79677
3.80595
3.815
3.82393
3.83276
3.84151
3.8502
3.85887
3.86754
3.87626
3.88491
3.52952
3.53538
3.54016
3.54822
3.56076
3.5774
3.59653
3.61638
3.6357
3.65384
3.67056
3.68583
3.69977
3.71253
3.72432
3.7353
3.74562
3.75542
3.76482
3.77393
3.78282
3.79155
3.80014
3.80862
3.81699
3.82528
3.83352
3.84176
3.85002
3.85819
3.50585
3.51213
3.51696
3.52514
3.53791
3.55485
3.57426
3.59433
3.61381
3.63205
3.64881
3.66408
3.67796
3.69064
3.70231
3.71313
3.72326
3.73284
3.74199
3.75081
3.7594
3.7678
3.77603
3.78413
3.7921
3.79997
3.80778
3.81557
3.82337
3.83103
3.48205
3.48872
3.49361
3.50195
3.51499
3.53225
3.55195
3.57225
3.59188
3.6102
3.62697
3.64221
3.65603
3.6686
3.68013
3.69077
3.7007
3.71004
3.71892
3.72745
3.73571
3.74376
3.75163
3.75933
3.76689
3.77433
3.78169
3.78902
3.79634
3.80349
3.45814
3.4652
3.47015
3.47868
3.49203
3.50964
3.52965
3.55017
3.56993
3.58831
3.60508
3.62027
3.634
3.64645
3.65782
3.66827
3.67797
3.68706
3.69566
3.70388
3.7118
3.71949
3.72697
3.73426
3.74139
3.74838
3.75529
3.76214
3.76896
3.77558
3.43415
3.44159
3.44662
3.45538
3.46907
3.48706
3.50739
3.52812
3.54801
3.56642
3.58316
3.59828
3.6119
3.62422
3.6354
3.64565
3.65511
3.66393
3.67223
3.68012
3.68769
3.695
3.70208
3.70894
3.71563
3.72217
3.7286
3.73497
3.74128
3.74736
3.41011
3.41792
3.42304
3.43206
3.44614
3.46454
3.48519
3.50614
3.52613
3.54455
3.56125
3.57628
3.58978
3.60193
3.61292
3.62294
3.63215
3.64069
3.64867
3.65621
3.66342
3.67033
3.67699
3.68343
3.68966
3.69573
3.70168
3.70755
3.71335
3.71886
3.38605
3.39422
3.39945
3.40877
3.42328
3.44211
3.46309
3.48425
3.50432
3.52275
3.53938
3.5543
3.56765
3.57961
3.59039
3.60017
3.60911
3.61735
3.625
3.63219
3.63902
3.64552
3.65175
3.65774
3.66351
3.6691
3.67456
3.67993
3.68519
3.69013
3.36201
3.37051
3.37588
3.38555
3.40053
3.4198
3.44112
3.46247
3.48262
3.50103
3.51758
3.53236
3.54554
3.55731
3.56786
3.57738
3.58603
3.59395
3.60126
3.60809
3.61452
3.62061
3.62639
3.63192
3.63722
3.64233
3.64728
3.65213
3.65685
3.6612
3.33802
3.34685
3.35237
3.36243
3.37791
3.39765
3.41931
3.44085
3.46106
3.47943
3.49588
3.51051
3.5235
3.53504
3.54534
3.55459
3.56294
3.57053
3.57749
3.58394
3.58996
3.59561
3.60095
3.60601
3.61083
3.61545
3.6199
3.62422
3.62838
3.63212
3.3141
3.32325
3.32896
3.33945
3.35547
3.3757
3.3977
3.41941
3.43966
3.45797
3.4743
3.48877
3.50154
3.51285
3.52288
3.53183
3.53986
3.54711
3.55371
3.55977
3.56537
3.57058
3.57546
3.58005
3.58439
3.58851
3.59244
3.59624
3.59982
3.60295
3.29031
3.29977
3.30569
3.31665
3.33324
3.35397
3.3763
3.39818
3.41845
3.43669
3.45288
3.46715
3.4797
3.49075
3.5005
3.50914
3.51683
3.52373
3.52995
3.53561
3.54078
3.54554
3.54996
3.55407
3.55792
3.56154
3.56496
3.56823
3.57123
3.57374
3.26668
3.27644
3.2826
3.29407
3.31126
3.3325
3.35516
3.37718
3.39746
3.41562
3.43165
3.44571
3.45801
3.46878
3.47823
3.48654
3.49389
3.50041
3.50625
3.51149
3.51623
3.52054
3.52448
3.52812
3.53148
3.53461
3.53751
3.54025
3.54267
3.54456
3.24324
3.25329
3.25971
3.27173
3.28955
3.31131
3.3343
3.35645
3.37672
3.39477
3.41062
3.42445
3.43649
3.44697
3.4561
3.46406
3.47105
3.4772
3.48263
3.48745
3.49174
3.49559
3.49907
3.50223
3.50511
3.50773
3.51013
3.51235
3.51419
3.51548
3.22002
3.23035
3.23708
3.24968
3.26816
3.29044
3.31374
3.33601
3.35626
3.37418
3.38983
3.40342
3.41518
3.42534
3.43413
3.44173
3.44834
3.4541
3.45912
3.46351
3.46735
3.47074
3.47374
3.47642
3.47882
3.48096
3.48287
3.48458
3.48587
3.48659
3.19707
3.20767
3.21472
3.22797
3.24713
3.26992
3.29351
3.31589
3.33609
3.35387
3.3693
3.38262
3.39408
3.40392
3.41235
3.41958
3.4258
3.43115
3.43575
3.4397
3.44308
3.446
3.44853
3.45073
3.45265
3.45432
3.45575
3.45698
3.45775
3.45797
3.17442
3.18528
3.1927
3.20662
3.22648
3.24979
3.27365
3.29611
3.31625
3.33386
3.34906
3.3621
3.37324
3.38273
3.39079
3.39763
3.40345
3.40838
3.41255
3.41604
3.41895
3.42139
3.42344
3.42517
3.42661
3.42782
3.42881
3.4296
3.42991
3.42972
3.15211
3.16322
3.17105
3.18568
3.20625
3.23006
3.25418
3.2767
3.29676
3.31418
3.32913
3.34187
3.35268
3.36181
3.36948
3.37592
3.38132
3.38582
3.38953
3.39255
3.39498
3.39693
3.39849
3.39973
3.40071
3.40146
3.40202
3.40244
3.40236
3.40191
3.13018
3.14153
3.1498
3.16519
3.18648
3.21078
3.23514
3.25769
3.27764
3.29486
3.30954
3.32197
3.33243
3.34118
3.34845
3.35447
3.35944
3.36349
3.36673
3.36926
3.37119
3.37263
3.37368
3.37442
3.37491
3.37521
3.37538
3.37544
3.37506
3.37455
3.10868
3.12026
3.12902
3.14518
3.1672
3.19198
3.21656
3.23912
3.25893
3.27592
3.29031
3.30242
3.31252
3.32087
3.32772
3.33331
3.33783
3.34141
3.34416
3.34618
3.34759
3.3485
3.34901
3.34922
3.3492
3.34905
3.34885
3.3486
3.34802
3.34777
3.08764
3.09945
3.10873
3.1257
3.14845
3.17369
3.19846
3.221
3.24065
3.2574
3.27149
3.28325
3.29296
3.3009
3.30732
3.31247
3.31653
3.31962
3.32186
3.32335
3.3242
3.32454
3.32446
3.32408
3.3235
3.32283
3.32224
3.32175
3.32125
3.32187
3.06712
3.07915
3.08899
3.10679
3.13026
3.15595
3.18087
3.20337
3.22284
3.23931
3.25308
3.26448
3.2738
3.28131
3.2873
3.29199
3.29557
3.29816
3.29987
3.3008
3.30107
3.30078
3.30006
3.29899
3.29769
3.29632
3.29507
3.2941
3.29391
3.29642
3.04714
3.05939
3.06982
3.08848
3.11267
3.13877
3.16383
3.18625
3.20551
3.2217
3.23513
3.24614
3.25505
3.26213
3.26767
3.27189
3.27498
3.27705
3.27821
3.27857
3.27823
3.27729
3.27584
3.27399
3.27181
3.2694
3.26689
3.26442
3.26318
3.26668
4.09586
4.17629
4.26115
4.34989
4.4426
4.53787
4.63482
4.73272
4.83065
4.92798
5.02437
5.1194
5.21305
5.30555
5.3971
5.48825
5.57944
5.67124
5.76412
5.85872
5.95507
6.05466
6.15463
6.26277
6.36192
6.48668
6.57569
6.72443
6.80261
6.96625
4.07222
4.15363
4.23885
4.32777
4.42072
4.51621
4.61339
4.71162
4.8099
4.90751
5.0042
5.09951
5.19337
5.28601
5.37764
5.46881
5.56003
5.6518
5.74465
5.83922
5.93552
6.03507
6.13502
6.24316
6.34233
6.46706
6.55608
6.7049
6.78303
6.94683
4.04786
4.13031
4.21593
4.30502
4.39822
4.49398
4.59144
4.69002
4.78864
4.88658
4.98359
5.07916
5.17325
5.26604
5.35776
5.44897
5.54023
5.63197
5.72481
5.81937
5.91564
6.01518
6.11514
6.22327
6.32248
6.44721
6.53625
6.68517
6.76326
6.92722
4.02282
4.10638
4.19239
4.28165
4.37511
4.47118
4.56897
4.66789
4.76687
4.8652
4.96254
5.05838
5.1527
5.24565
5.33747
5.42875
5.52003
5.61177
5.70462
5.79917
5.89544
5.995
6.09498
6.20311
6.30236
6.42713
6.5162
6.66526
6.7433
6.90745
3.99716
4.08188
4.16824
4.25769
4.35143
4.44782
4.54597
4.64526
4.74463
4.84336
4.94104
5.03717
5.13173
5.22485
5.31679
5.40815
5.49945
5.5912
5.68408
5.77862
5.87491
5.9745
6.07452
6.18267
6.28199
6.40682
6.49595
6.64517
6.72317
6.88751
3.97091
4.05682
4.14349
4.23314
4.32719
4.42392
4.52245
4.62213
4.72191
4.82106
4.91911
5.01554
5.11036
5.20366
5.29572
5.38715
5.4785
5.57027
5.66317
5.75773
5.85406
5.95369
6.05377
6.16198
6.26138
6.3863
6.47549
6.62491
6.70287
6.86742
3.9441
4.03123
4.11816
4.20803
4.30241
4.39949
4.49842
4.59852
4.69874
4.79832
4.89676
4.99351
5.08858
5.18209
5.27428
5.36578
5.45719
5.54898
5.64192
5.7365
5.83289
5.93258
6.03274
6.14102
6.24053
6.36557
6.45484
6.60447
6.68241
6.84718
3.91676
4.00515
4.09228
4.18237
4.27709
4.37454
4.47389
4.57444
4.67512
4.77514
4.874
4.97109
5.06643
5.16013
5.25247
5.34406
5.43553
5.52735
5.62032
5.71495
5.8114
5.91116
6.01143
6.11981
6.21945
6.34463
6.434
6.58387
6.66178
6.82679
3.88894
3.9786
4.06587
4.1562
4.25125
4.34908
4.44888
4.5499
4.65107
4.75156
4.85084
4.94829
5.04389
5.13781
5.23031
5.32198
5.41351
5.50538
5.59839
5.69308
5.7896
5.88946
5.98984
6.09834
6.19814
6.32348
6.41296
6.56311
6.64099
6.80624
3.86068
3.9516
4.03895
4.12951
4.22493
4.32314
4.4234
4.52491
4.6266
4.72757
4.82728
4.92512
5.021
5.11514
5.2078
5.29957
5.39116
5.48309
5.57614
5.6709
5.76751
5.86748
5.96798
6.07663
6.1766
6.30212
6.39172
6.54217
6.62004
6.78553
3.83201
3.92419
4.01156
4.10235
4.19812
4.29673
4.39748
4.4995
4.60172
4.7032
4.80336
4.90159
4.99777
5.09213
5.18497
5.27682
5.36849
5.46047
5.55358
5.64842
5.74513
5.84522
5.94587
6.05468
6.15484
6.28056
6.37029
6.52106
6.59892
6.76465
3.80299
3.89637
3.98372
4.07474
4.17086
4.26987
4.37113
4.47367
4.57646
4.67846
4.77907
4.87771
4.97421
5.0688
5.16181
5.25376
5.34549
5.43755
5.53072
5.62565
5.72247
5.82269
5.92351
6.03249
6.13285
6.25879
6.34867
6.49978
6.57764
6.74362
3.77366
3.86818
3.95548
4.04669
4.14316
4.24258
4.34436
4.44745
4.55081
4.65336
4.75445
4.85351
4.95034
5.04515
5.13834
5.2304
5.3222
5.41434
5.50757
5.6026
5.69954
5.79991
5.9009
6.01007
6.11065
6.23682
6.32685
6.47834
6.5562
6.72243
3.74407
3.83963
3.92685
4.01824
4.11505
4.21489
4.31721
4.42086
4.52481
4.62792
4.7295
4.829
4.92616
5.02121
5.11457
5.20675
5.29861
5.39084
5.48414
5.57927
5.67635
5.77687
5.87806
5.98742
6.08823
6.21465
6.30485
6.45673
6.53461
6.70108
3.71428
3.81075
3.89787
3.98942
4.08655
4.18681
4.28967
4.39391
4.49847
4.60216
4.70424
4.80418
4.90169
4.99698
5.09052
5.18282
5.27475
5.36707
5.46045
5.55568
5.65291
5.75359
5.85498
5.96454
6.06559
6.19229
6.28266
6.43496
6.51287
6.67958
3.68434
3.78156
3.86856
3.96024
4.05767
4.15837
4.26179
4.36662
4.47179
4.57609
4.67868
4.77908
4.87695
4.97248
5.0662
5.15863
5.25063
5.34303
5.4365
5.53184
5.62922
5.73007
5.83167
5.94144
6.04275
6.16974
6.26029
6.41304
6.49099
6.65794
3.65431
3.75208
3.83896
3.93074
4.02846
4.12959
4.23357
4.33902
4.44481
4.54973
4.65286
4.75371
4.85195
4.94774
5.04163
5.13419
5.22626
5.31874
5.4123
5.50775
5.60529
5.70632
5.80814
5.91812
6.0197
6.14701
6.23775
6.39096
6.46899
6.63615
3.62424
3.72233
3.80908
3.90095
3.99893
4.1005
4.20504
4.31111
4.41755
4.5231
4.62679
4.7281
4.82672
4.92276
5.01683
5.10951
5.20166
5.29421
5.38786
5.48343
5.58113
5.68234
5.78438
5.8946
5.99645
6.12409
6.21504
6.36875
6.44687
6.61423
3.59419
3.69232
3.77895
3.87089
3.96912
4.07112
4.17623
4.28293
4.39002
4.49622
4.60048
4.70227
4.80126
4.89756
4.99181
5.08462
5.17683
5.26945
5.3632
5.45889
5.55675
5.65814
5.76042
5.87087
5.97301
6.101
6.19216
6.3464
6.42465
6.59218
3.56422
3.66208
3.74859
3.84059
3.93904
4.04148
4.14714
4.25449
4.36225
4.46911
4.57396
4.67623
4.77559
4.87217
4.96659
5.05952
5.1518
5.24448
5.33833
5.43413
5.53216
5.63373
5.73624
5.84695
5.94937
6.07775
6.16912
6.32392
6.40234
6.57002
3.53437
3.63163
3.71803
3.81009
3.90874
4.0116
4.11781
4.22582
4.33426
4.44179
4.54724
4.65001
4.74975
4.8466
4.94119
5.03422
5.12657
5.2193
5.31325
5.40917
5.50735
5.60912
5.71186
5.82283
5.92555
6.05432
6.14593
6.3013
6.37995
6.54775
3.50471
3.601
3.68731
3.77942
3.87825
3.98152
4.08828
4.19694
4.30607
4.41428
4.52034
4.62361
4.72374
4.82087
4.91562
5.00875
5.10116
5.19394
5.28797
5.38401
5.48234
5.5843
5.68728
5.79853
5.90154
6.03073
6.12259
6.27855
6.3575
6.52538
3.4753
3.57021
3.65642
3.74858
3.84757
3.95124
4.05853
4.16786
4.2777
4.3866
4.49328
4.59706
4.69758
4.79499
4.88989
4.98311
5.07558
5.16841
5.26252
5.35868
5.45715
5.5593
5.66252
5.77404
5.87735
6.00697
6.0991
6.25567
6.33499
6.50293
3.44617
3.53923
3.62535
3.71754
3.81668
3.92074
4.02857
4.13857
4.24912
4.35872
4.46604
4.57036
4.67128
4.76896
4.86401
4.95731
5.04984
5.14272
5.23688
5.33316
5.43177
5.53411
5.63757
5.74938
5.85299
5.98304
6.07546
6.23266
6.31245
6.48042
3.41739
3.50816
3.59422
3.68643
3.78568
3.8901
3.99846
4.10911
4.22039
4.3307
4.43868
4.54352
4.64485
4.7428
4.838
4.93138
5.02396
5.11688
5.2111
5.30748
5.40623
5.50876
5.61245
5.72455
5.82847
5.95896
6.05168
6.20953
6.28989
6.45786
3.38917
3.47743
3.56345
3.65566
3.75497
3.8597
3.96853
4.07981
4.19178
4.30279
4.41141
4.51677
4.61848
4.71669
4.81203
4.90546
4.99806
5.09101
5.18528
5.28175
5.38062
5.48332
5.58724
5.69962
5.80383
5.93475
6.02778
6.18629
6.26735
6.43529
3.3619
3.44734
3.53324
3.62537
3.72467
3.82967
3.93892
4.05077
4.16343
4.27511
4.38435
4.49022
4.59227
4.69071
4.78616
4.87962
4.97222
5.06517
5.15945
5.25599
5.35496
5.4578
5.56194
5.67458
5.77908
5.91042
6.00378
6.16294
6.24483
6.41274
3.33542
3.41643
3.50177
3.59371
3.693
3.79831
3.90802
4.02052
4.13393
4.24639
4.35634
4.46278
4.56526
4.66397
4.75958
4.85312
4.94576
5.03874
5.13307
5.22969
5.32879
5.4318
5.53618
5.64912
5.75393
5.88574
5.97946
6.13936
6.22232
6.39024
3.30838
3.38242
3.46652
3.55814
3.65739
3.76309
3.87342
3.98673
4.1011
4.21454
4.32543
4.43267
4.53579
4.63499
4.73094
4.82472
4.91755
5.0107
5.10521
5.20203
5.30138
5.40467
5.50939
5.62274
5.72798
5.86037
5.95459
6.11527
6.1997
6.36769
3.28315
3.35233
3.43483
3.52616
3.62528
3.73124
3.84215
3.95613
4.07129
4.18556
4.29723
4.40513
4.50875
4.60829
4.70446
4.79836
4.89126
4.98446
5.07903
5.17592
5.27542
5.37889
5.48388
5.59746
5.70311
5.83575
5.93056
6.09153
6.17758
6.34552
3.22176
3.29206
3.37101
3.46205
3.56109
3.66786
3.78002
3.89541
4.01208
4.12782
4.24068
4.3493
4.45306
4.55222
4.64758
4.74038
4.83204
4.92401
5.01747
5.11339
5.21216
5.31499
5.41973
5.53283
5.63881
5.7707
5.86665
6.02684
6.1167
6.2834
3.11546
3.18497
3.26124
3.35103
3.45026
3.55866
3.67344
3.79196
3.91204
4.03116
4.14696
4.25771
4.36255
4.46171
4.55616
4.64741
4.73717
4.82715
4.91877
5.01311
5.11064
5.21247
5.31666
5.42908
5.53534
5.66642
5.76349
5.92327
6.01524
6.17984
3.01283
3.0785
3.15156
3.23945
3.33789
3.44651
3.56251
3.68298
3.80554
3.92746
4.046
4.15906
4.26548
4.36529
4.45953
4.54986
4.63823
4.7266
4.81662
4.90953
5.00592
5.10687
5.21058
5.32252
5.42905
5.55973
5.65797
5.81733
5.91078
6.07472
2.91058
2.97223
3.04228
3.12819
3.22512
3.33291
3.44902
3.57045
3.69464
3.81875
3.93977
4.0552
4.16354
4.26453
4.35912
4.44905
4.53643
4.62347
4.71203
4.80355
4.89877
4.99881
5.10196
5.2135
5.32018
5.45081
5.54996
5.70917
5.80378
5.96778
2.80927
2.86685
2.93327
3.01636
3.11101
3.21711
3.33241
3.45391
3.57898
3.70472
3.82791
3.94572
4.05625
4.15888
4.25434
4.34436
4.43118
4.51717
4.60443
4.69464
4.78869
4.88778
4.99034
5.10151
5.20832
5.3391
5.43904
5.59862
5.69427
5.8589
2.70749
2.76129
2.82407
2.90406
2.99598
3.09973
3.21339
3.3341
3.45928
3.58599
3.71093
3.83097
3.94381
4.0484
4.14516
4.23571
4.32233
4.40754
4.49367
4.58262
4.6755
4.77361
4.87553
4.9863
5.09327
5.22434
5.32509
5.48561
5.58232
5.7483
2.60505
2.65534
2.71445
2.79101
2.87973
2.98055
3.09189
3.21108
3.33563
3.46268
3.5889
3.71093
3.8261
3.93289
4.03133
4.1228
4.20959
4.2943
4.37945
4.4672
4.5589
4.65599
4.75725
4.86757
4.97473
5.10618
5.2078
5.36991
5.46763
5.63597
2.50161
2.54864
2.60413
2.6771
2.76229
2.85973
2.96815
3.08513
3.20835
3.33506
3.46201
3.58568
3.70306
3.8122
3.91261
4.00539
4.09269
4.17716
4.26151
4.34813
4.43864
4.53466
4.63519
4.74503
4.85239
4.98425
5.08686
5.25111
5.34992
5.52197
2.3971
2.44102
2.49298
2.56224
2.64365
2.73731
2.8423
2.95645
3.07764
3.20334
3.33039
3.45526
3.57464
3.68614
3.78876
3.88317
3.97131
4.05584
4.13957
4.22514
4.31444
4.40931
4.50905
4.61834
4.72589
4.85815
4.96191
5.12861
5.22866
5.40553
2.29151
2.33242
2.3809
2.44639
2.52382
2.6134
2.7145
2.82524
2.94376
3.06774
3.19423
3.31973
3.44077
3.55454
3.65951
3.75583
3.84514
3.93001
4.01332
4.09793
4.18601
4.27966
4.37848
4.48713
4.59482
4.72745
4.83254
5.00181
5.10335
5.28619
2.1848
2.22282
2.26788
2.32955
2.40287
2.48811
2.58493
2.69174
2.80694
2.92851
3.0537
3.17921
3.30143
3.41723
3.52458
3.62303
3.71381
3.7993
3.88243
3.96619
4.05304
4.14539
4.24316
4.35102
4.45876
4.59166
4.69823
4.87005
4.97336
5.16311
2.07695
2.1122
2.15391
2.21175
2.28086
2.36155
2.45376
2.55617
2.66746
2.7859
2.90905
3.03382
3.15663
3.27409
3.38371
3.48442
3.57693
3.66335
3.74652
3.82957
3.91521
4.00615
4.1027
4.20961
4.31723
4.45027
4.55834
4.73258
4.83794
5.03523
1.96803
2.00058
2.03905
2.09306
2.15789
2.23386
2.32118
2.41877
2.52558
2.64022
2.76055
2.88376
3.00643
3.12503
3.23665
3.33964
3.4341
3.52171
3.60519
3.68768
3.77214
3.86158
3.95671
4.06246
4.16972
4.3027
4.41219
4.58865
4.69633
4.90123
1.85809
1.88803
1.92334
1.97355
2.03405
2.10519
2.18738
2.2798
2.38162
2.49179
2.6085
2.72928
2.85097
2.97003
3.08323
3.18837
3.28489
3.37394
3.45796
3.54009
3.62342
3.71128
3.80478
3.9091
4.01572
4.14836
4.25912
4.43744
4.54766
4.75972
1.74704
1.77457
1.80685
1.8533
1.90948
1.9757
2.05259
2.13953
2.2359
2.34096
2.45327
2.57072
2.69049
2.80916
2.92332
3.03031
3.12887
3.21954
3.30435
3.38631
3.46861
3.55482
3.64648
3.74905
3.85466
3.98664
4.09839
4.27819
4.39099
4.60942
1.63507
1.66029
1.68967
1.73241
1.78428
1.84556
1.91702
1.99822
2.08874
2.1881
2.29526
2.40847
2.5253
2.6426
2.75691
2.86521
2.96562
3.05798
3.14381
3.22582
3.30719
3.39171
3.48132
3.5818
3.686
3.81688
3.92926
4.11007
4.22529
4.44909
1.52237
1.54533
1.57188
1.611
1.65861
1.71494
1.78088
1.85614
1.94047
2.03363
2.13493
2.243
2.35583
2.47063
2.58408
2.69294
2.7948
2.88878
2.97574
3.05799
3.13858
3.22141
3.30879
3.40682
3.50915
3.63841
3.75097
3.93221
4.04952
4.2776
1.40898
1.42975
1.45359
1.48917
1.53259
1.58401
1.64438
1.71355
1.79143
1.87797
1.97275
2.07483
2.18259
2.29369
2.40509
2.51351
2.61615
2.71145
2.79954
2.88216
2.96212
3.04331
3.12831
3.22355
3.32349
3.45054
3.56273
3.7437
3.86265
4.09386
1.2949
1.3136
1.33488
1.36703
1.40634
1.4529
1.50771
1.57074
1.64198
1.72153
1.80925
1.90452
2.00617
2.11231
2.22034
2.32709
2.42955
2.52559
2.61458
2.69762
2.77709
2.8567
2.93924
3.03135
3.12839
3.25252
3.36371
3.54355
3.6636
3.89677
1.18023
1.19697
1.21582
1.24467
1.27997
1.32178
1.37108
1.42794
1.49242
1.56474
1.64493
1.7327
1.82726
1.92723
2.03045
2.13407
2.23508
2.33094
2.42036
2.50367
2.58267
2.66077
2.74079
2.82952
2.92315
3.04363
3.15303
3.33073
3.45128
3.68514
1.06503
1.07994
1.09649
1.12217
1.1536
1.19076
1.23466
1.28539
1.34306
1.40796
1.48028
1.55998
1.64662
1.73923
1.83618
1.93506
2.03306
2.12749
2.21648
2.29959
2.378
2.45459
2.53208
2.61722
2.70697
2.82301
2.92973
3.10413
3.22447
3.4576
0.94933
0.96254
0.976967
0.999601
1.02731
1.05999
1.09859
1.14326
1.19414
1.25155
1.3158
1.387
1.46499
1.54919
1.63845
1.73093
1.82416
1.91551
2.00275
2.08483
2.1622
2.23716
2.31207
2.39346
2.47894
2.58975
2.6928
2.86253
2.98181
3.21247
0.833162
0.844797
0.857283
0.877033
0.90118
0.929526
0.962976
1.00171
1.04588
1.09583
1.1519
1.21431
1.2831
1.35801
1.43835
1.52279
1.60935
1.69563
1.77937
1.85911
1.93459
2.00742
2.07955
2.15703
2.23794
2.3428
2.44107
2.60449
2.72169
2.94771
0.71654
0.726739
0.737499
0.754539
0.775273
0.799439
0.827892
0.860851
0.898457
0.941027
0.988907
1.04238
1.10162
1.16662
1.23699
1.31189
1.38987
1.46898
1.54711
1.62262
1.69474
1.76445
1.83323
1.90654
1.98261
2.08083
2.17316
2.32833
2.44214
2.66069
0.599429
0.608391
0.617704
0.632203
0.649646
0.669783
0.693405
0.720754
0.751956
0.787289
0.827077
0.871621
0.921156
0.975794
1.03541
1.09954
1.16724
1.23706
1.30722
1.37614
1.44281
1.50773
1.57198
1.64039
1.71125
1.80217
1.88737
2.03191
2.14054
2.34806
0.481759
0.489774
0.498035
0.51017
0.524415
0.540645
0.559584
0.581485
0.60646
0.63474
0.666605
0.702333
0.742152
0.786225
0.834603
0.887085
0.943108
1.00171
1.06156
1.12131
1.1799
1.23758
1.2952
1.35719
1.42198
1.50469
1.58145
1.7123
1.81339
2.00547
0.363681
0.371036
0.378712
0.388669
0.399775
0.412181
0.426555
0.443158
0.462103
0.483551
0.507702
0.534783
0.56501
0.598544
0.635474
0.675762
0.719137
0.765027
0.812571
0.860696
0.908313
0.955794
1.00379
1.05664
1.11338
1.18607
1.25261
1.36562
1.45554
1.62679
0.246888
0.253468
0.260693
0.268572
0.276547
0.285156
0.295054
0.306503
0.319598
0.334422
0.351103
0.369792
0.390645
0.413802
0.439342
0.467267
0.497483
0.529721
0.56355
0.598299
0.632027
0.666526
0.701778
0.741871
0.786873
0.845664
0.898995
0.988388
1.06229
1.20629
0.137547
0.142209
0.147958
0.15343
0.158216
0.163036
0.168532
0.174962
0.18237
0.190774
0.200235
0.210834
0.22264
0.235726
0.250146
0.265891
0.282878
0.300934
0.319816
0.339794
0.35825
0.378198
0.399341
0.423717
0.452048
0.490267
0.524499
0.581806
0.628322
0.734727
0.0430923
0.0439901
0.0461085
0.0481426
0.0496711
0.0510297
0.0525579
0.0543942
0.0565569
0.0590379
0.0618333
0.0649567
0.0684321
0.072263
0.0764419
0.0809548
0.0857221
0.0905405
0.0948541
0.0965946
0.103397
0.110923
0.117921
0.126433
0.136213
0.150072
0.16287
0.181775
0.194378
0.240716
3.16024
3.04785
2.95129
2.85149
2.7529
2.65324
2.55286
2.45137
2.34879
2.24519
2.14055
2.03481
1.92806
1.82014
1.71108
1.60091
1.49057
1.37946
1.26762
1.15516
1.04218
0.928686
0.81474
0.700424
0.585748
0.470844
0.356092
0.242753
0.135595
0.0436737
3.13605
3.0239
2.9293
2.83052
2.7329
2.63406
2.53449
2.43376
2.33194
2.22912
2.12526
2.02034
1.91438
1.80723
1.69879
1.58933
1.47988
1.36955
1.25849
1.1468
1.03457
0.921833
0.808644
0.695093
0.581187
0.46708
0.353176
0.240741
0.134442
0.0435966
3.11252
3.00157
2.90867
2.81097
2.7143
2.6163
2.51752
2.41754
2.31647
2.21439
2.11131
2.00718
1.90195
1.79558
1.68744
1.57907
1.47032
1.36071
1.25038
1.13939
1.02785
0.915806
0.803305
0.69044
0.577226
0.463835
0.35068
0.239002
0.133363
0.0433899
3.08886
2.97971
2.88831
2.79175
2.696
2.59884
2.50087
2.40163
2.30129
2.19998
2.09767
1.99426
1.88977
1.78381
1.67664
1.56907
1.461
1.35209
1.24245
1.13216
1.02129
0.909927
0.798094
0.685889
0.573349
0.460639
0.348188
0.237249
0.132353
0.0432052
3.0656
2.95862
2.86853
2.77312
2.67827
2.58193
2.48477
2.38623
2.28661
2.18604
2.08445
1.98174
1.87772
1.77254
1.66624
1.5594
1.45199
1.34376
1.23479
1.12516
1.01496
0.904248
0.793052
0.681477
0.569584
0.457527
0.345749
0.235523
0.13139
0.0430316
3.04281
2.93823
2.84928
2.75502
2.66103
2.5655
2.46915
2.37128
2.27237
2.17249
2.07158
1.96937
1.86604
1.76166
1.65616
1.55001
1.44324
1.33567
1.22735
1.11837
1.00881
0.898723
0.788144
0.677179
0.56591
0.454482
0.343354
0.233828
0.130467
0.0428517
3.02061
2.91854
2.8306
2.73747
2.64431
2.54961
2.45403
2.35681
2.25859
2.15932
2.05889
1.95736
1.85482
1.75114
1.64638
1.54091
1.43475
1.32783
1.22014
1.1118
1.00285
0.893368
0.783391
0.673019
0.562352
0.451531
0.341026
0.232176
0.129578
0.042664
2.99908
2.89956
2.81251
2.7205
2.62814
2.53424
2.43938
2.34283
2.24523
2.14626
2.04662
1.94584
1.84397
1.74096
1.6369
1.53208
1.42654
1.32024
1.21317
1.10543
0.99708
0.888185
0.778796
0.669004
0.558914
0.448673
0.338764
0.230567
0.128716
0.0424693
2.97827
2.88127
2.79507
2.7041
2.61254
2.51937
2.42524
2.32936
2.23183
2.13384
2.03487
1.93473
1.83349
1.73113
1.62773
1.52354
1.4186
1.3129
1.20643
1.09928
0.991504
0.883173
0.774354
0.665122
0.555583
0.445897
0.336561
0.228997
0.127875
0.0422677
2.9583
2.86362
2.77832
2.68823
2.59753
2.50493
2.41156
2.31574
2.21929
2.12195
2.02356
1.92403
1.82338
1.72164
1.61887
1.51529
1.41093
1.30581
1.19992
1.09333
0.986111
0.878325
0.770051
0.661356
0.552343
0.443193
0.33441
0.22746
0.127049
0.0420589
2.93932
2.84652
2.76228
2.67284
2.58312
2.49058
2.39799
2.30309
2.20728
2.11053
2.01269
1.91373
1.81365
1.71251
1.61033
1.50733
1.40354
1.29897
1.19364
1.08758
0.9809
0.873635
0.765877
0.657696
0.549189
0.440554
0.332308
0.225953
0.126234
0.0418429
2.92145
2.82991
2.74696
2.65778
2.56852
2.47716
2.3851
2.29097
2.19576
2.09956
2.00225
1.90383
1.8043
1.70372
1.60212
1.49968
1.39643
1.29239
1.18758
1.08204
0.975871
0.869105
0.761835
0.654145
0.546126
0.437988
0.330259
0.224479
0.12543
0.0416197
2.90479
2.81369
2.73139
2.64347
2.55493
2.46437
2.37278
2.27935
2.1847
2.08904
1.99223
1.89433
1.79534
1.6953
1.59425
1.49233
1.3896
1.28607
1.18177
1.07672
0.971034
0.864744
0.757937
0.650717
0.543167
0.435501
0.328266
0.223036
0.124634
0.0413893
2.88802
2.79852
2.71684
2.62995
2.54196
2.45213
2.36099
2.26822
2.17411
2.07897
1.98265
1.88525
1.78675
1.68723
1.5867
1.48529
1.38307
1.28002
1.1762
1.07163
0.966399
0.860564
0.754199
0.647425
0.540323
0.4331
0.326329
0.221626
0.123847
0.0411522
2.87167
2.78442
2.703
2.61706
2.52959
2.44042
2.34974
2.25757
2.16399
2.06934
1.97349
1.87656
1.77856
1.67953
1.5795
1.47857
1.37682
1.27425
1.17089
1.06677
0.961976
0.856573
0.750633
0.64428
0.537597
0.430785
0.324447
0.220247
0.123068
0.0409091
2.85611
2.77106
2.68989
2.6048
2.5178
2.42925
2.33903
2.24742
2.15433
2.06016
1.96476
1.86829
1.77075
1.67219
1.57264
1.47217
1.37088
1.26875
1.16583
1.06214
0.957765
0.852774
0.747239
0.64128
0.534985
0.428552
0.322618
0.218901
0.122301
0.0406609
2.84145
2.75835
2.67745
2.59313
2.50659
2.41863
2.32884
2.23776
2.14515
2.05142
1.95647
1.86043
1.76333
1.66522
1.56612
1.4661
1.36523
1.26353
1.16102
1.05774
0.953762
0.849162
0.744012
0.638418
0.532481
0.426399
0.320842
0.21759
0.121547
0.0404088
2.8277
2.74626
2.66569
2.58207
2.49596
2.40855
2.31918
2.22859
2.13642
2.04313
1.9486
1.85298
1.75631
1.65862
1.55995
1.46034
1.35988
1.25858
1.15645
1.05356
0.949962
0.845729
0.740942
0.635687
0.530078
0.424323
0.319123
0.216317
0.12081
0.0401544
2.81484
2.73481
2.65459
2.57161
2.4859
2.39902
2.31004
2.21991
2.12817
2.03529
1.94117
1.84595
1.74968
1.65239
1.55412
1.45491
1.35483
1.2539
1.15213
1.0496
0.946358
0.842471
0.738024
0.633083
0.527777
0.422329
0.317467
0.215086
0.120091
0.0398987
2.80284
2.72399
2.64413
2.56174
2.47641
2.39003
2.30142
2.21173
2.12039
2.02791
1.93418
1.83933
1.74344
1.64653
1.54864
1.4498
1.35007
1.24949
1.14806
1.04586
0.942952
0.839389
0.735258
0.630608
0.525582
0.420422
0.315877
0.213897
0.119391
0.0396424
2.7917
2.71382
2.63432
2.55248
2.46749
2.38159
2.29332
2.20405
2.11309
2.021
1.92763
1.83314
1.7376
1.64104
1.5435
1.44501
1.34561
1.24535
1.14423
1.04234
0.93975
0.836489
0.732648
0.628269
0.5235
0.418606
0.314357
0.212749
0.118708
0.0393855
2.78139
2.70431
2.62515
2.54382
2.45915
2.3737
2.28575
2.19688
2.10628
2.01455
1.92152
1.82737
1.73216
1.63594
1.53872
1.44056
1.34145
1.24149
1.14066
1.03906
0.936759
0.833778
0.730201
0.626071
0.521536
0.416883
0.312904
0.211638
0.11804
0.0391278
2.7719
2.69546
2.61661
2.53575
2.45137
2.36636
2.27871
2.19022
2.09994
2.00856
1.91585
1.82203
1.72712
1.63121
1.5343
1.43643
1.33761
1.23791
1.13735
1.03602
0.933989
0.831262
0.727923
0.62402
0.519694
0.415252
0.311514
0.210561
0.117383
0.0388691
2.7632
2.68727
2.60871
2.52829
2.44416
2.35957
2.27219
2.18407
2.09409
2.00304
1.91063
1.81711
1.72249
1.62687
1.53024
1.43264
1.33407
1.23462
1.13432
1.03323
0.931442
0.828946
0.725817
0.622117
0.517973
0.41371
0.310183
0.209514
0.116737
0.0386092
2.75529
2.67974
2.60144
2.52141
2.43752
2.35332
2.2662
2.17842
2.08872
1.99798
1.90585
1.81261
1.71827
1.62292
1.52654
1.42919
1.33086
1.23163
1.13157
1.0307
0.92912
0.826829
0.723885
0.620361
0.516371
0.412254
0.308908
0.208499
0.116102
0.0383498
2.74815
2.67287
2.5948
2.51513
2.43143
2.34763
2.26073
2.17327
2.08383
1.99337
1.9015
1.80853
1.71444
1.61934
1.5232
1.42607
1.32796
1.22894
1.12909
1.02841
0.927021
0.824909
0.722123
0.618748
0.514883
0.410882
0.307689
0.207516
0.115478
0.0380885
2.74176
2.66666
2.58878
2.50943
2.42591
2.34246
2.25577
2.16862
2.07941
1.98922
1.89759
1.80487
1.71102
1.61614
1.52021
1.42329
1.32538
1.22655
1.12688
1.02637
0.92514
0.823181
0.720531
0.617276
0.51351
0.409596
0.306529
0.206569
0.114867
0.0377935
2.73611
2.66109
2.58337
2.50431
2.42094
2.33784
2.25132
2.16446
2.07546
1.98552
1.89412
1.80163
1.70799
1.61331
1.51757
1.42083
1.32311
1.22444
1.12493
1.02458
0.923475
0.821645
0.719107
0.615945
0.512251
0.408398
0.30543
0.20566
0.114268
0.0375334
2.73119
2.65616
2.57859
2.49977
2.41653
2.33374
2.24738
2.16078
2.07198
1.98227
1.89108
1.79879
1.70535
1.61085
1.51528
1.41871
1.32114
1.22262
1.12324
1.02301
0.922022
0.820298
0.717851
0.614756
0.511109
0.407293
0.304396
0.204788
0.113681
0.0372793
2.72698
2.65187
2.57441
2.4958
2.41266
2.33016
2.24394
2.15759
2.06896
1.97947
1.88846
1.79637
1.7031
1.60875
1.51334
1.4169
1.31947
1.22108
1.12181
1.02168
0.920783
0.819143
0.716764
0.613711
0.510087
0.406284
0.303427
0.20395
0.113103
0.0370227
2.72347
2.64821
2.57085
2.4924
2.40934
2.3271
2.24101
2.15488
2.06641
1.97711
1.88628
1.79435
1.70123
1.60702
1.51173
1.41542
1.3181
1.21981
1.12063
1.02059
0.919764
0.818185
0.715852
0.612816
0.509191
0.405374
0.302522
0.203144
0.112533
0.0367646
2.72065
2.64517
2.56789
2.48956
2.40657
2.32456
2.23857
2.15264
2.06433
1.9752
1.88452
1.79274
1.69974
1.60565
1.51047