/*--------------------------------*- C++ -*----------------------------------*\
  =========                 |
  \\      /  F ield         | OpenFOAM: The Open Source CFD Toolbox
   \\    /   O peration     | Website:  https://openfoam.org
    \\  /    A nd           | Version:  7
     \\/     M anipulation  |
\*---------------------------------------------------------------------------*/
FoamFile
{
    version     2.0;
    format      ascii;
    class       surfaceScalarField;
    location    "0.6";
    object      phi;
}
// * * * * * * * * * * * * * * * * * * * * * * * * * * * * * * * * * * * * * //

dimensions      [0 3 -1 0 0 0 0];

internalField   nonuniform List<scalar> 
35640
(
-9.77152e-06
0.0025366
-0.00252683
8.39895e-05
0.00219065
-0.00228441
0.000338125
-0.000742065
0.000487928
0.000760667
-0.00442597
0.00400343
0.00132861
-0.00785969
0.00729175
0.00200444
-0.010617
0.0099412
0.00274923
-0.0126055
0.0118607
0.00353032
-0.0138992
0.0131181
0.00432384
-0.0146357
0.0138422
0.00511428
-0.0149594
0.0141689
0.0058928
-0.014996
0.0142175
0.00665518
-0.0148444
0.014082
0.00740017
-0.0145774
0.0138324
0.00812822
-0.0142459
0.0135179
0.00884054
-0.0138842
0.0131719
0.00953867
-0.0135144
0.0128162
0.0102242
-0.0131501
0.0124646
0.0108987
-0.0127995
0.012125
0.0115635
-0.0124668
0.011802
0.0122197
-0.0121538
0.0114976
0.0128683
-0.0118609
0.0112124
0.0135101
-0.0115878
0.0109459
0.0141458
-0.0113332
0.0106975
0.0147761
-0.0110961
0.0104658
0.0154014
-0.0108751
0.0102497
0.0160223
-0.0106688
0.0100479
0.0166392
-0.010476
0.00985918
0.0172523
-0.0102956
0.00968241
0.0178621
-0.0101266
0.00951681
-0.009969
0.0184682
0.00936294
2.45639e-06
0.00253415
0.000118722
0.00207438
0.000399551
-0.00102289
0.000848707
-0.00487513
0.00143936
-0.00845033
0.00213142
-0.0113091
0.002885
-0.0133591
0.00366766
-0.0146819
0.00445665
-0.0154247
0.0052379
-0.0157406
0.00600397
-0.0157621
0.00675193
-0.0155924
0.00748154
-0.015307
0.00819391
-0.0149583
0.00889077
-0.014581
0.00957402
-0.0141976
0.0102455
-0.0138216
0.0109067
-0.0134607
0.0115591
-0.0131191
0.0122037
-0.0127984
0.0128416
-0.0124988
0.0134734
-0.0122196
0.0140999
-0.0119597
0.0147215
-0.0117178
0.0153388
-0.0114924
0.0159523
-0.0112822
0.0165621
-0.0110858
0.0171686
-0.0109021
0.0177722
-0.0107301
-0.0105692
0.0183724
1.44551e-05
0.0025197
0.000153918
0.00193492
0.000462711
-0.00133169
0.000939391
-0.00535181
0.00155286
-0.0090638
0.00226041
-0.0120166
0.00302138
-0.01412
0.00380395
-0.0154645
0.00458668
-0.0162074
0.00535711
-0.016511
0.00610933
-0.0165143
0.00684167
-0.0163247
0.00755486
-0.0160202
0.00825074
-0.0156541
0.00893151
-0.0152618
0.00959933
-0.0148654
0.0102562
-0.0144784
0.0109037
-0.0141083
0.0115432
-0.0137587
0.0121759
-0.0134311
0.0128026
-0.0131255
0.0134241
-0.0128411
0.0140409
-0.0125765
0.0146536
-0.0123304
0.0152625
-0.0121013
0.015868
-0.0118877
0.0164704
-0.0116882
0.0170699
-0.0115017
0.0176667
-0.011327
-0.011163
0.0182605
2.63997e-05
0.0024933
0.000190018
0.0017713
0.000527787
-0.00166945
0.00103232
-0.00585634
0.00166801
-0.0096995
0.0023898
-0.0127384
0.00315655
-0.0148868
0.00393726
-0.0162452
0.00471202
-0.0169822
0.00547009
-0.0172691
0.00620713
-0.0172513
0.00692278
-0.0170404
0.00761872
-0.0167161
0.00829743
-0.0163329
0.00896155
-0.0159259
0.00961351
-0.0155174
0.0102554
-0.0151203
0.0108888
-0.0147417
0.0115152
-0.0143851
0.0121356
-0.0140515
0.0127508
-0.0137407
0.0133616
-0.0134518
0.0139684
-0.0131833
0.0145717
-0.0129337
0.0151718
-0.0127014
0.015769
-0.0124849
0.0163636
-0.0122828
0.0169558
-0.0120938
0.0175456
-0.0119168
-0.0117499
0.0181326
3.84323e-05
0.00245486
0.000226753
0.00158298
0.000593986
-0.00203669
0.00112625
-0.0063886
0.00178338
-0.0103566
0.00251807
-0.0134731
0.00328891
-0.0156576
0.00406598
-0.0170222
0.00483111
-0.0177473
0.00557535
-0.0180134
0.00629601
-0.017972
0.00699402
-0.0177384
0.00767196
-0.0173941
0.00833295
-0.0169938
0.00898
-0.016573
0.00961573
-0.0161531
0.0102423
-0.0157468
0.0108614
-0.0153608
0.0114743
-0.014998
0.0120821
-0.0146593
0.0126856
-0.0143442
0.0132853
-0.0140515
0.0138817
-0.0137797
0.0144753
-0.0135273
0.0150663
-0.0132924
0.0156549
-0.0130736
0.0162415
-0.0128694
0.016826
-0.0126783
0.0174085
-0.0124994
-0.0123298
0.0179884
5.05013e-05
0.00240436
0.000263945
0.00136953
0.000660826
-0.00243357
0.0012204
-0.00694817
0.00189792
-0.0110342
0.00264398
-0.0142192
0.00341713
-0.0164308
0.00418879
-0.0177939
0.00494264
-0.0185011
0.00567167
-0.0187424
0.00637484
-0.0186752
0.00705436
-0.0184179
0.00771369
-0.0180534
0.00835651
-0.0176367
0.00898614
-0.0172026
0.00960537
-0.0167724
0.0102164
-0.0163579
0.0108209
-0.0159653
0.0114201
-0.0155973
0.0120151
-0.0152543
0.0126065
-0.0149356
0.0131948
-0.0146399
0.0137806
-0.0143655
0.0143641
-0.0141108
0.0149456
-0.0138739
0.0155254
-0.0136533
0.0161034
-0.0134474
0.01668
-0.0132549
0.0172549
-0.0130743
-0.0129023
0.0178274
6.25969e-05
0.00234177
0.000301329
0.0011308
0.000727747
-0.00285998
0.00131396
-0.00753439
0.00201064
-0.0117308
0.00276641
-0.0149749
0.00354004
-0.0172044
0.00430447
-0.0185583
0.00504544
-0.0192421
0.00575794
-0.0194549
0.00644264
-0.0193599
0.00710295
-0.0190782
0.00774316
-0.0186936
0.00836745
-0.0182609
0.00897942
-0.0178146
0.00958195
-0.0173749
0.0101772
-0.0169531
0.0107669
-0.016555
0.0113523
-0.0161826
0.0119341
-0.0158361
0.0125131
-0.0155146
0.0130898
-0.0152166
0.0136645
-0.0149403
0.0142377
-0.0146839
0.0148094
-0.0144456
0.0153799
-0.0142238
0.0159492
-0.0140168
0.0165175
-0.0138231
0.0170845
-0.0136413
-0.0134672
0.0176493
7.46811e-05
0.00226709
0.000338679
0.000866804
0.000794286
-0.00331559
0.00140628
-0.00814638
0.00212071
-0.0124453
0.00288439
-0.0157386
0.00365657
-0.0179766
0.00441196
-0.0193137
0.00513849
-0.0199686
0.00583326
-0.0201497
0.00649859
-0.0200252
0.00713909
-0.0197187
0.00775978
-0.0193143
0.00836529
-0.0188664
0.00895942
-0.0184087
0.00954509
-0.0179606
0.0101245
-0.0175325
0.0106992
-0.0171297
0.0112704
-0.0167537
0.0118389
-0.0164046
0.0124052
-0.0160809
0.0129699
-0.0157813
0.0135333
-0.0155037
0.0140957
-0.0152463
0.0146572
-0.0150072
0.0152181
-0.0147847
0.0157784
-0.014577
0.016338
-0.0143828
0.0168969
-0.0142002
-0.0140241
0.0174537
8.67064e-05
0.00218038
0.000375801
0.00057771
0.000860066
-0.00379985
0.00149677
-0.00878308
0.00222734
-0.0131758
0.002997
-0.0165083
0.00376574
-0.0187453
0.00451028
-0.0200583
0.00522088
-0.0206792
0.00589681
-0.0208256
0.00654203
-0.0206704
0.00716222
-0.0203389
0.00776311
-0.0199152
0.00834967
-0.019453
0.00892584
-0.0189849
0.00949457
-0.0185293
0.010058
-0.0180959
0.0106176
-0.0176893
0.0111744
-0.0173106
0.0117292
-0.0169594
0.0122826
-0.0166343
0.012835
-0.0163336
0.0133866
-0.0160553
0.0139379
-0.0157975
0.0144888
-0.0155582
0.0150397
-0.0153355
0.0155905
-0.0151279
0.0161412
-0.0149335
0.0166916
-0.0147505
-0.0145726
0.0172402
9.86305e-05
0.00208175
0.000412531
0.000263809
0.000924756
-0.00431208
0.0015849
-0.00944323
0.00232982
-0.0139207
0.00310341
-0.0172819
0.00386668
-0.0195086
0.00459857
-0.0207901
0.00529186
-0.0213725
0.00594796
-0.0214817
0.00657241
-0.0212949
0.00717192
-0.0209384
0.00775282
-0.0204961
0.00832035
-0.0200205
0.00887853
-0.019543
0.00943024
-0.019081
0.00997754
-0.0186432
0.0105218
-0.0182336
0.0110641
-0.0178529
0.0116051
-0.0175003
0.0121452
-0.0171744
0.0126848
-0.0168733
0.0132243
-0.0165949
0.013764
-0.0163371
0.0143039
-0.0160981
0.0148443
-0.0158759
0.0153852
-0.0156688
0.0159266
-0.015475
0.0164681
-0.0152919
-0.0151125
0.017008
0.000110423
0.00197133
0.000448731
-7.44987e-05
0.00098805
-0.0048514
0.00167017
-0.0101253
0.00242749
-0.0146781
0.00320283
-0.0180572
0.00395856
-0.0202643
0.00467608
-0.0215077
0.00535077
-0.0220472
0.00598617
-0.0221171
0.00658933
-0.021898
0.00716791
-0.021517
0.00772873
-0.0210569
0.00827721
-0.020569
0.00881738
-0.0200832
0.00935206
-0.0196157
0.00988319
-0.0191744
0.0104121
-0.0187625
0.0109396
-0.0183804
0.0114664
-0.0180271
0.0119928
-0.0177009
0.0125194
-0.0173998
0.0130463
-0.0171218
0.0135738
-0.0168646
0.0141022
-0.0166264
0.0146316
-0.0164053
0.0151621
-0.0161993
0.0156937
-0.0160066
0.0162258
-0.015824
-0.0156433
0.0167565
0.000122058
0.00184927
0.000484276
-0.000436717
0.00104966
-0.00541678
0.0017521
-0.0108278
0.00251969
-0.0154457
0.00329454
-0.0188321
0.00404067
-0.0210104
0.00474217
-0.0222092
0.00539708
-0.0227021
0.00601104
-0.022731
0.00659252
-0.0224795
0.00715002
-0.0220745
0.00769074
-0.0215976
0.00822022
-0.0210985
0.00874243
-0.0206054
0.00926008
-0.0201333
0.00977498
-0.0196893
0.0102883
-0.0192758
0.0108009
-0.0188929
0.0113132
-0.0185394
0.0118257
-0.0182134
0.0123387
-0.0179128
0.0128524
-0.0176355
0.0133673
-0.0173795
0.0138835
-0.0171426
0.0144012
-0.016923
0.0149207
-0.0167188
0.0154418
-0.0165277
0.0159639
-0.0163461
-0.0161644
0.016485
0.000133512
0.00171576
0.000519052
-0.000822257
0.00110931
-0.00600704
0.00183023
-0.0115487
0.00260585
-0.0162213
0.0033779
-0.0196041
0.0041124
-0.0217449
0.00479631
-0.0228931
0.00543039
-0.0233362
0.0060223
-0.023323
0.00658183
-0.023039
0.00711819
-0.0226108
0.00763888
-0.0221183
0.00814945
-0.0216091
0.00865377
-0.0211097
0.00915442
-0.020634
0.00965306
-0.0201879
0.0101507
-0.0197735
0.0106481
-0.0193903
0.0111457
-0.019037
0.0116438
-0.0187115
0.0121428
-0.0184118
0.0126428
-0.0181356
0.0131443
-0.017881
0.0136476
-0.0176459
0.0141529
-0.0174284
0.0146605
-0.0172264
0.0151704
-0.0170375
0.0156817
-0.0168574
-0.016675
0.0161923
0.000144766
0.00157099
0.000552948
-0.00123044
0.00116673
-0.00662082
0.00190413
-0.0122861
0.0026854
-0.0170025
0.00345232
-0.020371
0.00417321
-0.0224658
0.00483809
-0.0235579
0.00545041
-0.0239485
0.0060198
-0.0238923
0.00655722
-0.0235765
0.00707247
-0.0231261
0.00757324
-0.0226191
0.00806504
-0.0221009
0.00855159
-0.0215963
0.00903529
-0.0211177
0.00951764
-0.0206703
0.00999955
-0.0202554
0.0104816
-0.0198724
0.0109641
-0.0195195
0.0114474
-0.0191948
0.0119318
-0.0188962
0.0124176
-0.0186214
0.012905
-0.0183684
0.0133945
-0.0181354
0.0138865
-0.0179203
0.0143812
-0.0177211
0.0148788
-0.0175351
0.0153782
-0.0173569
-0.0171741
0.0158773
0.000155802
0.00141519
0.000585851
-0.00166049
0.00122166
-0.00725663
0.00197339
-0.0130378
0.00275786
-0.017787
0.00351729
-0.0211305
0.00422269
-0.0231712
0.00486721
-0.0242025
0.00545699
-0.0245383
0.00600348
-0.0244388
0.00651873
-0.0240917
0.00701298
-0.0236203
0.00749401
-0.0231001
0.00796721
-0.0225741
0.00843611
-0.0220652
0.00890293
-0.0215845
0.00936899
-0.0211363
0.00983504
-0.0207214
0.0103015
-0.0203388
0.0107687
-0.0199867
0.0112369
-0.019663
0.0117062
-0.0193655
0.012177
-0.0190921
0.0126495
-0.018841
0.0131243
-0.0186102
0.0136018
-0.0183978
0.0140825
-0.0182018
0.0145663
-0.0180189
0.0150525
-0.0178431
-0.0176605
0.015539
0.0001666
0.00124859
0.000617652
-0.00211154
0.00127385
-0.00791283
0.00203763
-0.0138016
0.00282277
-0.0185721
0.00357241
-0.0218801
0.0042605
-0.0238593
0.00488347
-0.0248254
0.00545004
-0.0251049
0.00597341
-0.0249622
0.0064665
-0.0245848
0.00693992
-0.0240938
0.00740142
-0.0235616
0.00785621
-0.0230289
0.00830763
-0.0225166
0.00875766
-0.0220345
0.00920745
-0.0215861
0.00965757
-0.0211716
0.0101084
-0.0207896
0.01056
-0.0204383
0.0110126
-0.0201156
0.0114663
-0.0198192
0.0119214
-0.0195473
0.0123783
-0.0192978
0.0128373
-0.0190692
0.013299
-0.0188596
0.0137641
-0.0186668
0.0142326
-0.0184875
0.0147039
-0.0183145
-0.0181328
0.0151762
0.000177142
0.00107145
0.000648244
-0.00258264
0.00132307
-0.00858765
0.0020965
-0.014575
0.00287973
-0.0193554
0.00361731
-0.0226177
0.00428641
-0.0245284
0.00488675
-0.0254258
0.00542961
-0.0256477
0.00592971
-0.0254623
0.00640076
-0.0250559
0.00685357
-0.0245466
0.00729577
-0.0240038
0.00773238
-0.0234655
0.00816648
-0.0229507
0.00859985
-0.0224679
0.0090334
-0.0220196
0.00946756
-0.0216057
0.00990252
-0.0212246
0.0103384
-0.0208742
0.0107751
-0.0205523
0.0112128
-0.0202569
0.0116516
-0.0199861
0.0120918
-0.0197381
0.0125339
-0.0195113
0.0129785
-0.0193042
0.0134262
-0.0191145
0.0138775
-0.0189387
0.0143319
-0.0187688
-0.0185892
0.0147883
0.000187406
0.000884048
0.000677525
-0.00307276
0.00136908
-0.00927921
0.00214966
-0.0153556
0.00292841
-0.0201341
0.00365174
-0.023341
0.00430028
-0.0251769
0.00487707
-0.0260026
0.0053958
-0.0261665
0.0058726
-0.0259391
0.00632178
-0.025505
0.00675422
-0.024979
0.0071774
-0.024427
0.00759606
-0.0238841
0.00801303
-0.0233677
0.00842986
-0.0228847
0.00884725
-0.022437
0.00926548
-0.022024
0.00968458
-0.0216437
0.0101045
-0.0212941
0.0105251
-0.0209729
0.0109463
-0.0206782
0.0113683
-0.020408
0.0117911
-0.0201609
0.0122152
-0.0199354
0.0126411
-0.0197301
0.0130697
-0.0195431
0.0135015
-0.0193706
0.0139367
-0.019204
-0.019028
0.0143755
0.00019737
0.000686679
0.000705394
-0.00358079
0.00141167
-0.00998548
0.00219683
-0.0161408
0.00296852
-0.0209058
0.00367549
-0.024048
0.00430203
-0.0258035
0.00485449
-0.026555
0.0053488
-0.0266608
0.00580236
-0.0263927
0.00622989
-0.0259326
0.00664225
-0.0253914
0.00704666
-0.0248314
0.00744762
-0.0242851
0.00784767
-0.0237677
0.00824811
-0.0232851
0.00864946
-0.0228384
0.00905182
-0.0224263
0.00945509
-0.022047
0.00985904
-0.021698
0.0102634
-0.0213773
0.010668
-0.0210827
0.0110726
-0.0208126
0.0114773
-0.0205656
0.0118824
-0.0203405
0.0122882
-0.020136
0.0126957
-0.0199506
0.0131057
-0.0197806
0.0135193
-0.0196176
-0.0194475
0.0139388
0.000207017
0.000479662
0.00073175
-0.00410552
0.00145064
-0.0107044
0.00223774
-0.0169279
0.00299984
-0.0216679
0.00368846
-0.0247366
0.0042917
-0.0264067
0.00481915
-0.0270825
0.00528889
-0.0271305
0.00571932
-0.0268231
0.00612545
-0.0263387
0.00651801
-0.0257839
0.00690395
-0.0252173
0.00728745
-0.0246686
0.00767079
-0.0241511
0.00805501
-0.0236694
0.00844048
-0.0232238
0.00882713
-0.022813
0.0092147
-0.0224345
0.0096028
-0.0220861
0.00999099
-0.0217655
0.0103788
-0.0214706
0.010766
-0.0211998
0.0111522
-0.0209518
0.0115374
-0.0207257
0.011922
-0.0205206
0.0123066
-0.0203352
0.0126926
-0.0201666
0.0130821
-0.0200072
-0.0198455
0.0134802
0.000216324
0.000263338
0.000756491
-0.00464569
0.00148578
-0.0114337
0.00227218
-0.0177143
0.00302221
-0.0224179
0.00369059
-0.025405
0.00426937
-0.0269855
0.0047713
-0.0275844
0.00521636
-0.0275756
0.00562383
-0.0272306
0.00600883
-0.0267237
0.00638189
-0.026157
0.00674963
-0.0255851
0.00711592
-0.0250349
0.00748275
-0.0245179
0.00785097
-0.0240376
0.00822076
-0.0235936
0.00859192
-0.0231841
0.00896404
-0.0228066
0.00933655
-0.0224586
0.0097088
-0.0221377
0.0100801
-0.0218419
0.0104499
-0.0215695
0.0108175
-0.0213194
0.0111826
-0.0210908
0.0115451
-0.020883
0.0119055
-0.0206956
0.0122653
-0.0205264
0.0126285
-0.0203703
-0.0202202
0.0130031
0.000225274
3.80645e-05
0.000779518
-0.00519993
0.00151693
-0.0121711
0.00229996
-0.0184973
0.00303552
-0.0231535
0.00368191
-0.0260514
0.00423521
-0.0275388
0.00471119
-0.0280604
0.00513158
-0.027996
0.00551629
-0.0276153
0.00588045
-0.0270879
0.00623428
-0.0265108
0.00658408
-0.0259349
0.00693338
-0.0253842
0.00728393
-0.0248684
0.00763636
-0.02439
0.00799072
-0.023948
0.00834668
-0.0235401
0.0087037
-0.0231637
0.00906105
-0.022816
0.00941787
-0.0224945
0.00977324
-0.0221973
0.0101262
-0.0219225
0.0104757
-0.0216689
0.0108209
-0.021436
0.0111611
-0.0212233
0.0114966
-0.021031
0.0118288
-0.0208587
0.0121632
-0.0207047
-0.0205689
0.0125119
0.000233842
-0.000195777
0.000800735
-0.00576682
0.00154393
-0.0129143
0.00232092
-0.0192743
0.0030397
-0.0238722
0.0036625
-0.0266742
0.00418943
-0.0280657
0.00463916
-0.0285101
0.00503493
-0.0283917
0.00539711
-0.0279774
0.0057407
-0.0274315
0.00607558
-0.0268457
0.00640767
-0.0262669
0.00674019
-0.0257167
0.00707464
-0.0252029
0.0074115
-0.0247269
0.00775071
-0.0242872
0.00809184
-0.0238812
0.00843423
-0.0235061
0.00877701
-0.0231588
0.00911915
-0.0228367
0.00945947
-0.0225376
0.00979664
-0.0222596
0.0101292
-0.0220015
0.0104556
-0.0217624
0.0107745
-0.0215422
0.0110852
-0.0213418
0.011389
-0.0211625
0.0116926
-0.0210083
-0.0208883
0.0120121
0.000242007
-0.000437784
0.000820055
-0.00634487
0.00156663
-0.0136608
0.00233497
-0.0200426
0.00303477
-0.024572
0.00363249
-0.0272719
0.0041323
-0.0285655
0.00455557
-0.0289334
0.00492683
-0.028763
0.00526671
-0.0283173
0.00558999
-0.0277548
0.00590615
-0.0271618
0.00622073
-0.0265815
0.00653664
-0.0260326
0.00685516
-0.0255214
0.00717667
-0.0250484
0.00750102
-0.0246115
0.00782771
-0.0242079
0.00815602
-0.0238344
0.00848499
-0.0234877
0.00881345
-0.0231651
0.00914001
-0.0228641
0.00946301
-0.0225826
0.00978049
-0.0223189
0.0100902
-0.0220721
0.0103899
-0.0218419
0.0106777
-0.0216295
0.0109536
-0.0214384
0.0112249
-0.0212796
-0.0211745
0.011511
0.000249746
-0.00068753
0.000837397
-0.00693253
0.00158493
-0.0144084
0.00234204
-0.0207998
0.00302078
-0.0252508
0.00359208
-0.0278432
0.00406414
-0.0290376
0.00446082
-0.0293301
0.0048077
-0.0291099
0.00512552
-0.0286351
0.00542873
-0.028058
0.00572636
-0.0274595
0.00602358
-0.0268787
0.006323
-0.026332
0.00662573
-0.0258241
0.00693207
-0.0253547
0.00724182
-0.0249213
0.00755448
-0.0245206
0.0078693
-0.0241492
0.00818531
-0.0238037
0.00850129
-0.0234811
0.00881573
-0.0231786
0.00912672
-0.0228936
0.00943188
-0.0226241
0.00972834
-0.0223685
0.0100127
-0.0221262
0.0102812
-0.021898
0.0105319
-0.021689
0.0107707
-0.0215184
-0.021423
0.0110193
0.000257042
-0.000944574
0.000852691
-0.00752818
0.00159873
-0.0151544
0.00234211
-0.0215431
0.00299782
-0.0259065
0.00354152
-0.0283869
0.00398531
-0.0294814
0.00435534
-0.0297001
0.004678
-0.0294325
0.00497397
-0.0289311
0.00525729
-0.0283413
0.00553655
-0.0277387
0.00581649
-0.0271587
0.00609948
-0.026615
0.0063865
-0.0261112
0.00667778
-0.025646
0.00697315
-0.0252167
0.00727214
-0.0248196
0.00757405
-0.0244511
0.00787799
-0.0241077
0.0081828
-0.0237859
0.00848698
-0.0234828
0.00878855
-0.0231952
0.00908493
-0.0229205
0.00937271
-0.0226563
0.00964743
-0.022401
0.00990344
-0.0221541
0.0101353
-0.0219209
0.010345
-0.0217281
-0.0216313
0.0105533
0.00026388
-0.00120845
0.000865877
-0.00813018
0.00160798
-0.0158965
0.00233519
-0.0222703
0.00296604
-0.0265373
0.00348109
-0.0289019
0.00389621
-0.0298965
0.00423957
-0.0300435
0.00453817
-0.0297311
0.00481248
-0.0292054
0.00507607
-0.0286049
0.00533702
-0.0279997
0.00559972
-0.0274214
0.00586627
-0.0268816
0.00613758
-0.0263825
0.00641385
-0.0259223
0.00669496
-0.0254978
0.00698052
-0.0251051
0.00726998
-0.0247406
0.00756263
-0.0244003
0.00785753
-0.0240808
0.0081534
-0.0237786
0.00844847
-0.0234903
0.00874021
-0.0232122
0.00902506
-0.0229412
0.00929784
-0.0226737
0.00955115
-0.0224074
0.00977602
-0.0221457
0.0099675
-0.0219196
-0.021802
0.0101382
0.000270254
-0.00147871
0.000876911
-0.00873683
0.00161263
-0.0166322
0.00232132
-0.022979
0.00292563
-0.0271416
0.0034111
-0.0293874
0.00379724
-0.0302826
0.00411397
-0.0303602
0.00438866
-0.0300058
0.00464148
-0.0294582
0.00488543
-0.0288488
0.0051281
-0.0282423
0.00537349
-0.0276668
0.00562353
-0.0271316
0.00587902
-0.026638
0.00614021
-0.0261835
0.00640703
-0.0257646
0.00667923
-0.0253773
0.00695649
-0.0250178
0.00723838
-0.0246822
0.00752435
-0.0243668
0.00781362
-0.0240679
0.00810504
-0.0237817
0.00839678
-0.023504
0.00868582
-0.0232302
0.00896693
-0.0229548
0.00923151
-0.0226719
0.00946731
-0.0223815
0.0096611
-0.0221134
-0.0219534
0.00981247
0.000276178
-0.00175489
0.000885773
-0.00934643
0.00161268
-0.0173591
0.00230061
-0.023667
0.00287682
-0.0277178
0.00333194
-0.0298425
0.00368886
-0.0306396
0.003979
-0.0306503
0.00422993
-0.0302567
0.00446137
-0.0296897
0.00468574
-0.0290732
0.00491007
-0.0284667
0.00513804
-0.0278947
0.00537139
-0.0273649
0.00561087
-0.0268774
0.00585676
-0.0264294
0.00610907
-0.0260169
0.00636775
-0.025636
0.00663271
-0.0252828
0.00690388
-0.0249534
0.00718125
-0.0246442
0.0074648
-0.0243515
0.00775448
-0.0240714
0.00805011
-0.0237996
0.00835085
-0.0235309
0.00865405
-0.023258
0.00895285
-0.0229707
0.00923118
-0.0226599
0.00945706
-0.0223393
-0.0221292
0.0096328
0.000281694
-0.00203658
0.000892467
-0.0099572
0.00160815
-0.0180748
0.00227319
-0.024332
0.00281991
-0.0282646
0.003244
-0.0302666
0.00357152
-0.0309671
0.00383516
-0.030914
0.00406246
-0.030484
0.00427259
-0.0298998
0.00447734
-0.0292779
0.00468322
-0.0286726
0.00489357
-0.0281051
0.00510997
-0.0275813
0.00533313
-0.0271006
0.00556336
-0.0266596
0.00580077
-0.0262543
0.00604547
-0.0258807
0.00629763
-0.0255349
0.00655753
-0.0252133
0.00682568
-0.0249123
0.00710285
-0.0246286
0.00739028
-0.0243588
0.0076899
-0.0240992
0.00800459
-0.0238456
0.00833848
-0.0235919
0.00869703
-0.0233293
0.00908236
-0.0230452
0.00945763
-0.0227145
0.00955859
-0.0222301
0.0190886
-0.0477912
0.0471709
0.0195019
-0.0425643
0.042151
0.0197999
-0.0398465
0.0395485
0.0199915
-0.0376454
0.0374538
0.0201099
-0.0354516
0.0353332
0.0201769
-0.033256
0.0331889
0.0202078
-0.0311479
0.031117
0.0202136
-0.029182
0.0291762
0.0202015
-0.0273608
0.0273729
0.0201766
-0.0256979
0.0257228
0.0201421
-0.024156
0.0241905
0.0200993
-0.0227562
0.022799
0.02005
-0.0214591
0.0215084
0.0199931
-0.0202836
0.0203404
0.0199292
-0.0191963
0.0192603
0.0198584
-0.0182099
0.0182807
0.0197791
-0.0173051
0.0173844
0.0196928
-0.0164916
0.0165779
0.0195978
-0.0157598
0.0158548
0.0194945
-0.0151129
0.0152162
0.019383
-0.0145564
0.0146679
0.0192614
-0.0140715
0.0141931
0.0191325
-0.0136918
0.0138207
0.0189891
-0.0133579
0.0135013
0.0188414
-0.0131334
0.013281
0.0186727
-0.0130406
0.0132093
0.0184924
-0.0124371
0.0126175
0.0183106
-0.0140346
0.0142163
0.0180781
-0.0102697
0.0105022
-0.0141338
0.0143603
0.0189641
-0.0483829
0.019371
-0.0429713
0.0196729
-0.0401485
0.0198723
-0.0378447
0.0199994
-0.0355787
0.0200756
-0.0333322
0.0201153
-0.0311875
0.0201299
-0.0291966
0.0201262
-0.0273571
0.0201085
-0.0256802
0.0200811
-0.0241286
0.0200444
-0.0227196
0.0200012
-0.0214159
0.0199494
-0.0202319
0.0198903
-0.0191372
0.0198235
-0.018143
0.0197479
-0.0172295
0.0196649
-0.0164086
0.0195722
-0.0156672
0.0194716
-0.0150123
0.0193618
-0.0144465
0.019242
-0.0139516
0.0191146
-0.0135645
0.0189728
-0.013216
0.0188271
-0.0129878
0.0186605
-0.0128741
0.018483
-0.0122596
0.0183052
-0.0138568
0.0180764
-0.0100409
-0.0139149
0.0188216
-0.0489441
0.0192236
-0.0433733
0.0195304
-0.0404553
0.0197374
-0.0380517
0.0198738
-0.0357151
0.0199601
-0.0334184
0.0200094
-0.0312368
0.0200333
-0.0292205
0.0200383
-0.0273621
0.0200287
-0.0256706
0.020009
-0.0241089
0.0199791
-0.0226897
0.0199424
-0.0213791
0.0198965
-0.020186
0.0198428
-0.0190835
0.0197807
-0.018081
0.0197096
-0.0171584
0.0196303
-0.0163293
0.019541
-0.0155779
0.0194434
-0.0149147
0.0193361
-0.0143392
0.0192188
-0.0138343
0.0190936
-0.0134393
0.018954
-0.0130764
0.018811
-0.0128447
0.0186469
-0.0127101
0.0184731
-0.0120858
0.0182998
-0.0136834
0.0180752
-0.00981641
-0.0137043
0.0186619
-0.0494734
0.0190595
-0.0437709
0.0193719
-0.0407677
0.0195872
-0.0382671
0.0197337
-0.0358616
0.0198304
-0.0335152
0.0198899
-0.0312963
0.0199238
-0.0292544
0.0199381
-0.0273763
0.0199374
-0.0256699
0.0199258
-0.0240973
0.0199036
-0.0226675
0.0198738
-0.0213493
0.0198346
-0.0201468
0.0197869
-0.0190358
0.0197303
-0.0180243
0.0196642
-0.0170924
0.0195891
-0.0162541
0.0195041
-0.015493
0.01941
-0.0148206
0.019306
-0.0142352
0.0191918
-0.0137201
0.0190695
-0.013317
0.0189328
-0.0129396
0.0187929
-0.0127048
0.0186322
-0.0125493
0.0184626
-0.0119162
0.0182943
-0.0135152
0.0180747
-0.00959675
-0.0135022
0.0184847
-0.0499697
0.018879
-0.0441652
0.0191973
-0.041086
0.0194218
-0.0384915
0.0195789
-0.0360187
0.0196868
-0.0336231
0.0197572
-0.0313667
0.0198017
-0.0292989
0.0198257
-0.0274004
0.0198345
-0.0256786
0.0198317
-0.0240946
0.0198178
-0.0226536
0.0197956
-0.0213272
0.0197638
-0.020115
0.0197226
-0.0189946
0.0196721
-0.0179739
0.0196119
-0.0170321
0.0195415
-0.0161837
0.0194616
-0.0154131
0.0193715
-0.0147305
0.0192715
-0.0141352
0.019161
-0.0136096
0.0190423
-0.0131984
0.0189091
-0.0128064
0.0187731
-0.0125688
0.0186162
-0.0123925
0.0184515
-0.0117515
0.0182889
-0.0133525
0.0180745
-0.00938239
-0.0133092
0.0182901
-0.0504323
0.0186821
-0.0445572
0.0190069
-0.0414109
0.0192412
-0.0387258
0.0194097
-0.0361872
0.0195293
-0.0337426
0.0196112
-0.0314487
0.0196668
-0.0293545
0.0197015
-0.027435
0.0197201
-0.0256973
0.0197269
-0.0241013
0.0197218
-0.0226486
0.0197079
-0.0213132
0.0196841
-0.0200912
0.0196502
-0.0189607
0.0196064
-0.0179301
0.0195526
-0.0169783
0.0194877
-0.0161189
0.0194133
-0.0153387
0.0193279
-0.0146451
0.0192326
-0.0140399
0.0191264
-0.0135033
0.019012
-0.013084
0.0188829
-0.0126773
0.0187514
-0.0124372
0.018599
-0.0122401
0.0184399
-0.0115924
0.0182833
-0.0131959
0.0180747
-0.00917382
-0.0131258
0.0180786
-0.0508616
0.0184688
-0.0449474
0.0188007
-0.0417427
0.0190455
-0.0389706
0.0192262
-0.0363679
0.019358
-0.0338745
0.0194522
-0.0315429
0.0195195
-0.0294218
0.0195653
-0.0274808
0.0195945
-0.0257265
0.0196113
-0.0241181
0.0196159
-0.0226531
0.0196108
-0.0213081
0.0195956
-0.020076
0.0195697
-0.0189348
0.0195332
-0.0178937
0.0194865
-0.0169316
0.0194278
-0.0160602
0.0193595
-0.0152703
0.0192795
-0.0145651
0.0191894
-0.0139498
0.0190881
-0.013402
0.0189786
-0.0129745
0.0188543
-0.012553
0.0187278
-0.0123107
0.0185804
-0.0120927
0.0184276
-0.0114395
0.0182775
-0.0130458
0.0180752
-0.00897153
-0.0129524
0.0178505
-0.0512583
0.0182393
-0.0453362
0.0185787
-0.0420822
0.0188349
-0.0392268
0.0190285
-0.0365614
0.0191733
-0.0340193
0.0192803
-0.0316499
0.0193598
-0.0295013
0.0194175
-0.0275385
0.0194578
-0.0257667
0.0194853
-0.0241456
0.0195001
-0.0226679
0.0195044
-0.0213124
0.0194984
-0.02007
0.0194812
-0.0189176
0.0194526
-0.0178651
0.0194136
-0.0168927
0.0193618
-0.0160084
0.0193001
-0.0152086
0.0192262
-0.0144913
0.019142
-0.0138655
0.0190462
-0.0133063
0.0189422
-0.0128705
0.0188232
-0.0124339
0.0187024
-0.0121899
0.0185606
-0.0119509
0.0184146
-0.0112935
0.0182714
-0.0129026
0.0180759
-0.00877604
-0.0127893
0.017606
-0.0516241
0.0179936
-0.0457238
0.0183413
-0.0424299
0.0186097
-0.0394952
0.0188168
-0.0367685
0.0189751
-0.0341776
0.0190956
-0.0317703
0.019188
-0.0295937
0.0192582
-0.0276087
0.0193101
-0.0258186
0.0193488
-0.0241843
0.0193745
-0.0226937
0.0193889
-0.0213268
0.0193927
-0.0200737
0.0193849
-0.0189098
0.0193648
-0.017845
0.0193341
-0.0168619
0.0192899
-0.0159642
0.0192353
-0.015154
0.0191682
-0.0144242
0.0190903
-0.0137876
0.0190008
-0.0132167
0.0189027
-0.0127724
0.0187896
-0.0123209
0.0186752
-0.0120755
0.0185394
-0.0118152
0.0184009
-0.0111551
0.0182651
-0.0127667
0.0180769
-0.00858788
-0.0126371
0.0173455
-0.0519617
0.0177319
-0.0461102
0.0180887
-0.0427867
0.0183701
-0.0397767
0.0185914
-0.0369898
0.0187638
-0.03435
0.0188984
-0.0319049
0.0190041
-0.0296995
0.0190874
-0.027692
0.0191516
-0.0258828
0.0192021
-0.0242348
0.0192393
-0.0227309
0.0192645
-0.021352
0.0192785
-0.0200877
0.0192808
-0.018912
0.0192699
-0.0178341
0.0192479
-0.01684
0.019212
-0.0159283
0.0191651
-0.015107
0.0191054
-0.0143645
0.0190345
-0.0137167
0.0189517
-0.013134
0.0188602
-0.0126809
0.0187537
-0.0122143
0.0186461
-0.0119679
0.0185169
-0.011686
0.0183866
-0.0110248
0.0182584
-0.0126386
0.0180781
-0.0084076
-0.0124961
0.0170693
-0.0522744
0.0174544
-0.0464953
0.0178211
-0.0431534
0.0181163
-0.0400719
0.0183524
-0.0372258
0.0185395
-0.0345371
0.0186888
-0.0320542
0.0188084
-0.0298191
0.0189054
-0.0277889
0.0189825
-0.0259599
0.0190453
-0.0242976
0.0190946
-0.0227802
0.0191312
-0.0213886
0.0191562
-0.0201126
0.019169
-0.0189249
0.019168
-0.0178331
0.0191553
-0.0168273
0.0191284
-0.0159013
0.0190896
-0.0150682
0.019038
-0.0143129
0.0189746
-0.0136534
0.0188992
-0.0130586
0.0188148
-0.0125965
0.0187154
-0.0121149
0.0186153
-0.0118678
0.018493
-0.0115637
0.0183715
-0.0109032
0.0182513
-0.0125184
0.0180794
-0.00823575
-0.0123667
0.0167779
-0.0525674
0.0171618
-0.0468792
0.017539
-0.0435306
0.0178487
-0.0403816
0.0181002
-0.0374773
0.0183024
-0.0347393
0.0184671
-0.0322189
0.0186012
-0.0299532
0.0187123
-0.0279001
0.018803
-0.0260506
0.0188786
-0.0243733
0.0189406
-0.0228422
0.0189893
-0.0214373
0.0190256
-0.020149
0.0190497
-0.018949
0.0190591
-0.0178425
0.0190563
-0.0168245
0.019039
-0.015884
0.0190089
-0.0150382
0.018966
-0.01427
0.0189107
-0.0135981
0.0188433
-0.0129911
0.0187666
-0.0125198
0.0186747
-0.012023
0.0185827
-0.0117757
0.0184678
-0.0114488
0.0183557
-0.0107911
0.0182438
-0.0124065
0.0180809
-0.00807287
-0.0122493
0.0164721
-0.0528472
0.016855
-0.0472621
0.017243
-0.0439185
0.0175678
-0.0407064
0.017835
-0.0377445
0.018053
-0.0349573
0.0182335
-0.0323994
0.0183825
-0.0301022
0.0185084
-0.028026
0.0186132
-0.0261554
0.0187023
-0.0244623
0.0187774
-0.0229173
0.0188388
-0.0214987
0.0188871
-0.0201973
0.018923
-0.0189848
0.0189435
-0.017863
0.018951
-0.016832
0.0189439
-0.0158768
0.0189232
-0.0150175
0.0188894
-0.0142363
0.0188429
-0.0135516
0.0187839
-0.0129321
0.0187155
-0.0124513
0.0186317
-0.0119393
0.0185483
-0.0116923
0.0184411
-0.0113416
0.0183391
-0.0106891
0.0182358
-0.0123032
0.0180824
-0.0079195
-0.0121442
0.0161527
-0.0531225
0.0165353
-0.0476447
0.0169339
-0.0443171
0.0172742
-0.0410467
0.0175575
-0.0380278
0.0177915
-0.0351913
0.0179883
-0.0325963
0.0181529
-0.0302668
0.0182939
-0.0281671
0.0184134
-0.0262749
0.0185164
-0.0245653
0.0186052
-0.0230061
0.0186799
-0.0215734
0.0187407
-0.0202582
0.0187889
-0.019033
0.0188212
-0.0178953
0.0188396
-0.0168504
0.0188432
-0.0158804
0.0188324
-0.0150068
0.0188084
-0.0142122
0.0187712
-0.0135144
0.0187212
-0.0128821
0.0186616
-0.0123917
0.0185863
-0.011864
0.018512
-0.011618
0.0184131
-0.0112426
0.0183217
-0.0105977
0.0182272
-0.0122087
0.0180839
-0.00777624
-0.0120518
0.0158207
-0.0534042
0.0162041
-0.0480281
0.0166127
-0.0447257
0.0169688
-0.0414028
0.0172681
-0.0383271
0.0175185
-0.0354417
0.017732
-0.0328097
0.0179126
-0.0304474
0.0180692
-0.0283236
0.0182039
-0.0264096
0.0183213
-0.0246827
0.0184241
-0.0231089
0.0185127
-0.021662
0.0185866
-0.0203321
0.0186476
-0.0190939
0.0186922
-0.01794
0.018722
-0.0168802
0.0187369
-0.0158953
0.0187367
-0.0150066
0.0187228
-0.0141983
0.0186956
-0.0134871
0.0186551
-0.0128417
0.0186049
-0.0123415
0.0185386
-0.0117978
0.018474
-0.0115533
0.0183836
-0.0111523
0.0183034
-0.0105175
0.0182179
-0.0121231
0.0180853
-0.00764372