/*--------------------------------*- C++ -*----------------------------------*\
  =========                 |
  \\      /  F ield         | OpenFOAM: The Open Source CFD Toolbox
   \\    /   O peration     | Website:  https://openfoam.org
    \\  /    A nd           | Version:  7
     \\/     M anipulation  |
\*---------------------------------------------------------------------------*/
FoamFile
{
    version     2.0;
    format      ascii;
    class       volScalarField;
    location    "0.9";
    object      p;
}
// * * * * * * * * * * * * * * * * * * * * * * * * * * * * * * * * * * * * * //

dimensions      [0 2 -2 0 0 0 0];

internalField   nonuniform List<scalar> 
18000
(
2.74756
2.74899
2.75214
2.75562
2.76005
2.76622
2.77446
2.7846
2.79608
2.80828
2.82062
2.83266
2.84415
2.85497
2.86509
2.87459
2.88354
2.89204
2.90019
2.90805
2.91569
2.92315
2.93047
2.93769
2.94483
2.95194
2.95903
2.96614
2.97327
2.98036
2.73422
2.73603
2.73921
2.74261
2.74686
2.75284
2.76095
2.77101
2.78248
2.79469
2.80706
2.81913
2.83064
2.84144
2.85155
2.86101
2.8699
2.87834
2.8864
2.89416
2.90168
2.90901
2.91619
2.92325
2.93023
2.93716
2.94407
2.95097
2.9579
2.96476
2.72068
2.72292
2.72615
2.72947
2.73356
2.73936
2.74733
2.75731
2.76876
2.78098
2.79337
2.80545
2.81695
2.82774
2.8378
2.84721
2.85603
2.86439
2.87235
2.88
2.88739
2.89458
2.90161
2.9085
2.91531
2.92205
2.92876
2.93546
2.94217
2.9488
2.70704
2.70971
2.71298
2.71623
2.72015
2.72578
2.73362
2.74353
2.75495
2.76717
2.77956
2.79163
2.80311
2.81386
2.82387
2.83321
2.84196
2.85021
2.85807
2.86559
2.87284
2.87988
2.88674
2.89347
2.90009
2.90663
2.91314
2.91963
2.92611
2.9325
2.69332
2.6964
2.69971
2.70288
2.70665
2.71211
2.71983
2.72967
2.74106
2.75328
2.76565
2.7777
2.78914
2.79984
2.80978
2.81904
2.82769
2.83584
2.84356
2.85095
2.85805
2.86492
2.87161
2.87815
2.88458
2.89093
2.89722
2.90348
2.90972
2.91586
2.67951
2.68301
2.68635
2.68945
2.69307
2.69838
2.70599
2.71577
2.72713
2.73933
2.75168
2.76369
2.77507
2.78569
2.79556
2.80471
2.81326
2.82128
2.82887
2.8361
2.84304
2.84974
2.85624
2.86259
2.86882
2.87495
2.88102
2.88705
2.89304
2.89892
2.66562
2.66954
2.67293
2.67596
2.67943
2.68461
2.69212
2.70185
2.71319
2.72535
2.73766
2.74961
2.76091
2.77145
2.78121
2.79026
2.79867
2.80656
2.814
2.82107
2.82783
2.83435
2.84066
2.8468
2.85282
2.85873
2.86456
2.87035
2.87609
2.88169
2.65168
2.65601
2.65943
2.66241
2.66575
2.6708
2.67823
2.68793
2.69924
2.71137
2.72362
2.73548
2.74669
2.75712
2.76677
2.77569
2.78397
2.7917
2.79898
2.80587
2.81245
2.81877
2.82488
2.83081
2.8366
2.84228
2.84787
2.8534
2.85887
2.86419
2.63769
2.64242
2.64588
2.6488
2.65203
2.65698
2.66436
2.67402
2.6853
2.69739
2.70956
2.72133
2.73243
2.74274
2.75225
2.76103
2.76916
2.77672
2.78382
2.79053
2.79691
2.80303
2.80892
2.81463
2.82019
2.82563
2.83097
2.83624
2.84143
2.84645
2.62367
2.62878
2.63227
2.63514
2.63827
2.64315
2.65049
2.66014
2.6714
2.68343
2.69551
2.70718
2.71814
2.72831
2.73768
2.7463
2.75426
2.76165
2.76856
2.77507
2.78124
2.78715
2.79282
2.7983
2.80362
2.8088
2.81388
2.81887
2.82378
2.8285
2.6096
2.61509
2.61861
2.62144
2.6245
2.62933
2.63665
2.6463
2.65753
2.6695
2.68149
2.69302
2.70385
2.71386
2.72306
2.73151
2.73929
2.74649
2.7532
2.7595
2.76547
2.77114
2.77658
2.78182
2.78689
2.79181
2.79662
2.80134
2.80595
2.81035
2.5955
2.60135
2.6049
2.60769
2.6107
2.61551
2.62285
2.6325
2.64371
2.65561
2.66749
2.67889
2.68955
2.69939
2.70842
2.71669
2.72427
2.73127
2.73777
2.74386
2.7496
2.75504
2.76024
2.76523
2.77004
2.77469
2.77922
2.78365
2.78796
2.79203
2.58136
2.58755
2.59113
2.5939
2.59688
2.6017
2.60908
2.61875
2.62994
2.64177
2.65353
2.66478
2.67527
2.68493
2.69376
2.70183
2.70921
2.716
2.72229
2.72815
2.73365
2.73886
2.74381
2.74855
2.75309
2.75747
2.76171
2.76584
2.76985
2.77358
2.56718
2.57371
2.5773
2.58006
2.58304
2.58791
2.59535
2.60506
2.61624
2.62799
2.63963
2.65071
2.66101
2.67047
2.6791
2.68696
2.69413
2.7007
2.70676
2.71239
2.71766
2.72262
2.72732
2.73179
2.73606
2.74016
2.74411
2.74794
2.75163
2.75501
2.55297
2.55982
2.56343
2.56619
2.56919
2.57414
2.58166
2.59143
2.6026
2.61427
2.62577
2.63668
2.64679
2.65604
2.66445
2.67209
2.67904
2.68538
2.69121
2.69661
2.70163
2.70634
2.71078
2.71499
2.71898
2.72279
2.72645
2.72997
2.73333
2.73637
2.53872
2.54587
2.54949
2.55227
2.55534
2.56039
2.56803
2.57787
2.58903
2.60062
2.61198
2.6227
2.6326
2.64163
2.64982
2.65723
2.66395
2.67006
2.67565
2.68081
2.68558
2.69004
2.69422
2.69815
2.70187
2.7054
2.70875
2.71197
2.715
2.71768
2.52443
2.53188
2.53551
2.53832
2.54147
2.54667
2.55445
2.56438
2.57554
2.58704
2.59825
2.60878
2.61846
2.62727
2.63522
2.6424
2.64888
2.65475
2.6601
2.66501
2.66954
2.67374
2.67765
2.68131
2.68476
2.68799
2.69105
2.69396
2.69666
2.69898
2.51011
2.51783
2.52147
2.52433
2.52761
2.53298
2.54094
2.55096
2.56213
2.57354
2.58459
2.59492
2.60438
2.61295
2.62067
2.6276
2.63384
2.63947
2.64457
2.64923
2.6535
2.65744
2.6611
2.66449
2.66766
2.67061
2.67338
2.67598
2.67834
2.68031
2.49575
2.50374
2.50739
2.51032
2.51375
2.51934
2.5275
2.53763
2.5488
2.56013
2.57101
2.58114
2.59036
2.59869
2.60616
2.61285
2.61884
2.62422
2.62907
2.63348
2.6375
2.64118
2.64457
2.6477
2.6506
2.65328
2.65575
2.65806
2.6601
2.66171
2.48136
2.4896
2.49326
2.49628
2.49991
2.50576
2.51413
2.52439
2.53557
2.5468
2.55752
2.56743
2.57642
2.58449
2.59171
2.59815
2.60389
2.60901
2.61362
2.61777
2.62153
2.62496
2.6281
2.63097
2.6336
2.63601
2.63821
2.64023
2.64196
2.64324
2.46694
2.47543
2.4791
2.48224
2.4861
2.49223
2.50085
2.51125
2.52243
2.53357
2.54412
2.55381
2.56255
2.57038
2.57733
2.58351
2.58899
2.59387
2.59821
2.60211
2.60562
2.6088
2.61168
2.61429
2.61667
2.61882
2.62077
2.62252
2.62396
2.62493
2.45251
2.46123
2.46492
2.4682
2.47233
2.47879
2.48767
2.49821
2.5094
2.52044
2.53081
2.54028
2.54878
2.55634
2.56304
2.56895
2.57417
2.57879
2.58287
2.58651
2.58977
2.59269
2.59532
2.59769
2.59982
2.60174
2.60345
2.60496
2.60614
2.60685
2.43807
2.44701
2.45073
2.45418
2.45862
2.46544
2.47461
2.48529
2.4965
2.50743
2.51762
2.52686
2.53511
2.54241
2.54884
2.55448
2.55943
2.56378
2.56761
2.57099
2.57398
2.57665
2.57903
2.58116
2.58307
2.58476
2.58626
2.58757
2.58853
2.58905
2.42363
2.43278
2.43654
2.44019
2.44499
2.45219
2.46167
2.4725
2.48371
2.49454
2.50455
2.51356
2.52155
2.52858
2.53474
2.54011
2.54479
2.54886
2.55242
2.55553
2.55827
2.56068
2.56281
2.5647
2.56639
2.56788
2.5692
2.57035
2.57115
2.57156
2.40923
2.41857
2.42238
2.42626
2.43146
2.43907
2.44886
2.45986
2.47107
2.48179
2.49161
2.50039
2.50812
2.51488
2.52076
2.52585
2.53025
2.53404
2.53732
2.54016
2.54262
2.54477
2.54665
2.5483
2.54977
2.55108
2.55225
2.55328
2.554
2.55441
2.39486
2.40439
2.40826
2.41242
2.41804
2.4261
2.43622
2.44737
2.45858
2.46918
2.47882
2.48736
2.49483
2.50132
2.50691
2.51172
2.51583
2.51933
2.52232
2.52487
2.52705
2.52892
2.53053
2.53194
2.53319
2.53431
2.53535
2.5363
2.53701
2.53759
2.38056
2.39027
2.39421
2.39868
2.40477
2.4133
2.42374
2.43505
2.44626
2.45674
2.46618
2.47449
2.4817
2.4879
2.49322
2.49773
2.50154
2.50475
2.50743
2.50968
2.51156
2.51312
2.51444
2.51558
2.51659
2.51753
2.51845
2.51936
2.52014
2.52107
2.36635
2.37622
2.38027
2.38509
2.39167
2.40068
2.41146
2.42292
2.43413
2.44449
2.45373
2.46179
2.46873
2.47466
2.47968
2.48389
2.4874
2.49029
2.49267
2.49459
2.49614
2.49738
2.49837
2.49919
2.49991
2.50062
2.5014
2.5023
2.50332
2.50498
2.35225
2.36229
2.36646
2.37165
2.37877
2.38828
2.3994
2.411
2.42219
2.43243
2.44146
2.44928
2.45596
2.4616
2.46633
2.47023
2.47342
2.47599
2.47804
2.47962
2.48082
2.48169
2.48231
2.48274
2.48307
2.4834
2.48387
2.48461
2.48598
2.48903
2.3383
2.34848
2.3528
2.35841
2.36609
2.37611
2.38756
2.39931
2.41048
2.42058
2.42941
2.43699
2.44339
2.44875
2.45317
2.45676
2.45963
2.46187
2.46357
2.46479
2.46561
2.46609
2.46628
2.46624
2.46605
2.46578
2.46553
2.46542
2.46615
2.47012
3.00401
3.04945
3.09096
3.13314
3.17546
3.21768
3.25993
3.30242
3.34534
3.38887
3.43329
3.47875
3.52542
3.57339
3.62268
3.6732
3.72469
3.77713
3.83083
3.88651
3.9432
4.00352
4.06223
4.1294
4.18737
4.26424
4.31868
4.40599
4.45612
4.55514
2.98802
3.03468
3.07656
3.11908
3.16163
3.20404
3.24642
3.28893
3.33187
3.37546
3.41984
3.46525
3.51195
3.55991
3.60918
3.65965
3.71076
3.76306
3.8167
3.87249
3.92929
3.98965
4.04836
4.11556
4.1735
4.25037
4.30477
4.3921
4.44223
4.54131
2.97165
3.01958
3.06183
3.10471
3.14753
3.19012
3.23262
3.27516
3.31814
3.36177
3.40612
3.4515
3.49822
3.54617
3.59544
3.64588
3.69642
3.74875
3.80238
3.85831
3.91521
3.97561
4.03433
4.10156
4.1595
4.2364
4.29079
4.37816
4.4283
4.52747
2.95493
3.00416
3.04677
3.09006
3.13317
3.17591
3.21854
3.26115
3.30416
3.3478
3.39213
3.43753
3.48422
3.53217
3.58146
3.63188
3.68195
3.73421
3.78791
3.844
3.90096
3.9614
4.02017
4.08742
4.14539
4.22233
4.27677
4.36417
4.41433
4.51361
2.93786
2.98843
3.03141
3.07513
3.11854
3.16144
3.20419
3.24688
3.28993
3.33356
3.37791
3.4233
3.46997
3.51792
3.56723
3.61761
3.66728
3.71947
3.77333
3.82954
3.88656
3.94704
4.00586
4.07315
4.1312
4.20821
4.26269
4.35013
4.40032
4.49975
2.92048
2.9724
3.01576
3.05993
3.10366
3.14673
3.18961
3.23238
3.27546
3.31909
3.36344
3.40884
3.45548
3.50344
3.55275
3.60288
3.6524
3.70457
3.75862
3.81494
3.87201
3.93253
3.99143
4.0588
4.11695
4.19404
4.24854
4.33604
4.38628
4.48589
2.9028
2.95609
2.99985
3.04448
3.08853
3.13178
3.17479
3.21764
3.26076
3.3044
3.34875
3.39413
3.44076
3.48872
3.53804
3.58769
3.63733
3.68956
3.74381
3.8002
3.85732
3.91788
3.97689
4.04438
4.10264
4.17982
4.23432
4.32192
4.37222
4.47202
2.88484
2.93951
2.98368
3.02879
3.07317
3.11661
3.15976
3.20269
3.24584
3.28949
3.33384
3.37921
3.42581
3.47377
3.5231
3.57235
3.62209
3.67446
3.72889
3.78533
3.84249
3.90311
3.96226
4.02988
4.08826
4.16553
4.22002
4.30777
4.35815
4.45811
2.86664
2.92267
2.96727
3.01289
3.05759
3.10123
3.14452
3.18754
3.23072
3.27439
3.31872
3.36407
3.41066
3.4586
3.50795
3.55683
3.60668
3.65928
3.71385
3.77031
3.82752
3.88823
3.94754
4.01531
4.07379
4.15116
4.20565
4.29361
4.34406
4.44416
2.84821
2.90561
2.95064
2.99677
3.04181
3.08566
3.12908
3.17219
3.21541
3.25908
3.30341
3.34873
3.39529
3.44321
3.49259
3.54113
3.59114
3.64397
3.69869
3.75516
3.81242
3.87325
3.93275
4.00065
4.05923
4.13669
4.19119
4.27941
4.32995
4.43017
2.82959
2.88832
2.93381
2.98045
3.02583
3.0699
3.11347
3.15667
3.19992
3.2436
3.28791
3.3332
3.37973
3.42762
3.477
3.52526
3.57547
3.62853
3.68336
3.73987
3.7972
3.85819
3.91786
3.98589
4.04456
4.12212
4.17666
4.26517
4.31581
4.41614
2.81079
2.87082
2.91678
2.96396
3.00968
3.05398
3.09769
3.14098
3.18426
3.22795
3.27224
3.31749
3.36398
3.41182
3.46118
3.50922
3.55971
3.61297
3.66789
3.72445
3.78187
3.84305
3.90287
3.97103
4.02976
4.10744
4.16205
4.25088
4.30162
4.40208
2.79185
2.85314
2.89959
2.94729
2.99336
3.0379
3.08176
3.12514
3.16845
3.21214
3.25641
3.30162
3.34806
3.39584
3.44507
3.49297
3.54388
3.59728
3.65229
3.70891
3.76645
3.8278
3.88777
3.95605
4.01483
4.09266
4.14737
4.23652
4.28738
4.388
2.77279
2.83529
2.88225
2.93047
2.97689
3.02168
3.0657
3.10916
3.1525
3.19619
3.24043
3.28559
3.33198
3.37968
3.42858
3.4767
3.528
3.5815
3.63656
3.69326
3.75094
3.81246
3.87255
3.94094
3.99977
4.07779
4.13261
4.22208
4.27308
4.37388
2.75363
2.81728
2.86478
2.9135
2.96029
3.00533
3.0495
3.09305
3.13643
3.18011
3.22433
3.26942
3.31575
3.36338
3.41209
3.46047
3.51206
3.56563
3.62073
3.67749
3.73535
3.797
3.85722
3.92571
3.9846
4.06282
4.11779
4.20757
4.25872
4.35974
2.73442
2.79913
2.84719
2.89641
2.94356
2.98887
3.0332
3.07684
3.12025
3.16392
3.2081
3.25313
3.29939
3.34695
3.39555
3.44419
3.49603
3.54966
3.60479
3.66163
3.71966
3.78143
3.84178
3.91035
3.96932
4.04777
4.1029
4.193
4.24431
4.34557
2.71517
2.78085
2.82952
2.8792
2.92671
2.97231
3.0168
3.06053
3.10397
3.14763
3.19177
3.23674
3.28291
3.3304
3.37895
3.42785
3.47987
3.53361
3.58876
3.64567
3.70386
3.76576
3.82622
3.89488
3.95394
4.03263
4.08795
4.17836
4.22986
4.33137
2.69592
2.76245
2.81176
2.8619
2.90978
2.95566
3.00032
3.04413
3.08762
3.13125
3.17535
3.22024
3.26633
3.31374
3.36228
3.41145
3.4636
3.51747
3.57264
3.62962
3.68795
3.74997
3.81054
3.87928
3.93846
4.01741
4.07293
4.16367
4.21537
4.31715
2.67672
2.74396
2.79394
2.84451
2.89276
2.93894
2.98377
3.02768
3.07119
3.11481
3.15886
3.20367
3.24967
3.29699
3.34555
3.39497
3.44723
3.50123
3.55642
3.6135
3.67194
3.73408
3.79472
3.86358
3.92288
4.0021
4.05785
4.14893
4.20086
4.30292
2.65759
2.72538
2.77607
2.82706
2.87567
2.92216
2.96716
3.01116
3.05471
3.0983
3.1423
3.18704
3.23293
3.28016
3.32874
3.37842
3.43077
3.48488
3.54012
3.5973
3.65584
3.71809
3.77878
3.84777
3.9072
3.98671
4.04269
4.13412
4.18632
4.28867
2.63859
2.70674
2.75816
2.80957
2.85853
2.90534
2.95052
2.99461
3.0382
3.08175
3.12569
3.17035
3.21613
3.26326
3.31187
3.3618
3.41422
3.46843
3.52373
3.58102
3.63964
3.702
3.76273
3.83185
3.89143
3.97124
4.02746
4.11926
4.17176
4.27442
2.61979
2.68805
2.74022
2.79204
2.84135
2.88849
2.93386
2.97804
3.02165
3.06518
3.10906
3.15363
3.19929
3.24631
3.29494
3.34511
3.39759
3.45187
3.50725
3.56467
3.62334
3.6858
3.74658
3.81583
3.87557
3.95568
4.01215
4.10433
4.15719
4.26018
2.60124
2.66933
2.72226
2.77451
2.82417
2.87163
2.91719
2.96145
3.0051
3.04859
3.0924
3.13689
3.18242
3.22931
3.27796
3.32835
3.38089
3.43523
3.4907
3.54824
3.60696
3.66949
3.73031
3.7997
3.85961
3.94004
3.99676
4.08934
4.14261
4.24594
2.58304
2.65059
2.70427
2.75696
2.80696
2.85475
2.90051
2.94486
2.98854
3.03199
3.07574
3.12013
3.16553
3.21228
3.26092
3.31154
3.36414
3.41853
3.47408
3.53172
3.59049
3.65307
3.71395
3.78348
3.84355
3.92431
3.98129
4.07429
4.12803
4.23173
2.56524
2.63187
2.68626
2.73942
2.78978
2.83788
2.88384
2.92828
2.97198
3.01541
3.05908
3.10337
3.14862
3.19522
3.24381
3.29465
3.34732
3.40175
3.45739
3.51512
3.57393
3.63653
3.69748
3.76717
3.8274
3.90848
3.96575
4.05916
4.11345
4.21756
2.54799
2.61333
2.66841
2.72204
2.77275
2.82115
2.8673
2.91181
2.95553
2.9989
3.04248
3.08666
3.13175
3.17816
3.22667
3.2777
3.33046
3.38492
3.44065
3.49845
3.5573
3.6199
3.68092
3.75075
3.81116
3.89255
3.95012
4.04397
4.09889
4.20345
2.53153
2.5952
2.65089
2.70498
2.75603
2.80466
2.85097
2.89555
2.93924
2.98255
3.02603
3.07008
3.11501
3.16122
3.20958
3.26074
3.31361
3.36808
3.42388
3.48173
3.5406
3.60319
3.66429
3.73426
3.79483
3.87651
3.9344
4.02869
4.08435
4.18941
2.5159
2.57682
2.6329
2.68748
2.7389
2.78781
2.83432
2.87899
2.92271
2.966
3.00941
3.05336
3.09818
3.14429
3.19252
3.24382
3.29669
3.35114
3.40698
3.46486
3.52375
3.58632
3.64748
3.71759
3.77833
3.86029
3.91853
4.01328
4.06981
4.17545
2.50044
2.55681
2.61298
2.66816
2.72013
2.76949
2.81635
2.86127
2.90513
2.9485
2.99192
3.03585
3.08059
3.12657
3.17467
3.22636
3.27939
3.33389
3.38972
3.44764
3.50655
3.56912
3.63035
3.70062
3.76157
3.8438
3.90245
3.99766
4.05523
4.16161
2.48552
2.53825
2.59429
2.65009
2.70261
2.75237
2.79952
2.84461
2.88852
2.93187
2.97519
3.01894
3.06336
3.10867
3.15637
3.20843
3.26259
3.31725
3.37305
3.43102
3.48997
3.55248
3.61375
3.68409
3.74528
3.82762
3.88671
3.98218
4.04093
4.14818
2.44594
2.50014
2.55617
2.61354
2.66708
2.71717
2.76423
2.80896
2.85228
2.89494
2.93748
2.98038
3.02389
3.06805
3.11341
3.16677
3.22059
3.27514
3.33058
3.38815
3.44687
3.50891
3.57002
3.64002
3.70161
3.78369
3.84372
3.93938
4.00119
4.11085
2.37728
2.4323
2.4879
2.54586
2.59997
2.65032
2.69738
2.74184
2.78475
2.82694
2.8691
2.91187
2.95588
3.0019
3.04986
3.09772
3.14862
3.20162
3.25665
3.31375
3.37235
3.43442
3.49575
3.56554
3.62752
3.70968
3.77071
3.86708
3.93121
4.04166
2.30984
2.36365
2.41818
2.47599
2.53052
2.58117
2.62828
2.6725
2.71493
2.75651
2.79798
2.84002
2.88316
2.92771
2.97468
3.02294
3.0735
3.12596
3.18056
3.2374
3.29589
3.35791
3.41953
3.4893
3.55177
3.63399
3.6959
3.79257
3.85795
3.96849
2.24111
2.29311
2.34655
2.40431
2.45915
2.51006
2.55732
2.60143
2.6435
2.68455
2.72539
2.76676
2.80927
2.85341
2.89917
2.94691
2.99684
3.04887
3.10304
3.1596
3.21793
3.27985
3.34161
3.41145
3.47433
3.55661
3.61921
3.71597
3.78204
3.89248
2.17163
2.2217
2.27369
2.33085
2.38566
2.43668
2.48409
2.5282
2.57004
2.61065
2.65091
2.69159
2.73335
2.77668
2.82182
2.869
2.91838
2.96999
3.02379
3.08007
3.13825
3.20007
3.26191
3.3318
3.395
3.47737
3.54044
3.63723
3.70368
3.81403
2.10073
2.1488
2.19905
2.25542
2.31009
2.3612
2.40877
2.45294
2.49463
2.53487
2.57459
2.61459
2.65561
2.69816
2.7426
2.78916
2.83798
2.88914
2.94258
2.99859
3.05661
3.11832
3.18021
3.25013
3.31358
3.39608
3.45947
3.5564
3.62305
3.73348
2.02824
2.07438
2.1228
2.17814
2.23248
2.28356
2.33127
2.37554
2.41715
2.4571
2.49632
2.53568
2.57594
2.61772
2.66141
2.70731
2.75554
2.80621
2.85928
2.915
2.97286
3.03444
3.09636
3.16629
3.22995
3.31263
3.37623
3.47345
3.54022
3.65096
1.95402
1.9983
2.04482
2.09893
2.15277
2.20373
2.25154
2.29595
2.33754
2.37726
2.41604
2.45478
2.4943
2.53526
2.57817
2.62333
2.67094
2.72108
2.77374
2.82915
2.88681
2.94826
3.01019
3.08013
3.14396
3.22684
3.2906
3.38829
3.45514
3.56648
1.87804
1.92049
1.96508
2.01781
2.07099
2.1217
2.16955
2.21409
2.25571
2.29526
2.33365
2.37181
2.41058
2.45071
2.49277
2.53714
2.58405
2.63361
2.6858
2.74087
2.7983
2.85959
2.92153
2.99146
3.05546
3.13856
3.20245
3.30076
3.36769
3.47993
1.80028
1.84092
1.88356
1.93477
1.9871
2.03742
2.08523
2.12988
2.17157
2.21101
2.24907
2.28666
2.3247
2.36397
2.40513
2.44864
2.49476
2.54366
2.59533
2.65
2.70717
2.76827
2.83019
2.90009
2.96427
3.04761
3.11165
3.21069
3.27771
3.39109
1.72077
1.75962
1.80025
1.84981
1.90113
1.9509
1.99854
2.04326
2.08502
2.1244
2.16218
2.19926
2.23656
2.27495
2.31515
2.3577
2.40295
2.4511
2.50217
2.55637
2.61323
2.67411
2.73598
2.80584
2.8702
2.95375
3.018
3.11783
3.18498
3.29969
1.63953
1.67659
1.71518
1.76295
1.81307
1.86212
1.90947
1.95417
1.99599
2.03533
2.07287
2.10947
2.14606
2.18355
2.22273
2.26425
2.30851
2.35579
2.40616
2.45981
2.5163
2.5769
2.63869
2.70848
2.77303
2.85677
2.92127
3.02191
3.08925
3.20539
1.55662
1.59187
1.62838
1.67422
1.72297
1.7711
1.81798
1.86256
1.90438
1.94369
1.98103
2.01719
2.05309
2.08966
2.12778
2.16815
2.21132
2.25761
2.30715
2.36015
2.41617
2.47645
2.53811
2.60779
2.67252
2.7564
2.82122
2.92263
2.99021
3.10779
1.4721
1.50552
1.53992
1.5837
1.63086
1.67786
1.72406
1.76837
1.81011
1.84936
1.88653
1.92229
1.95752
1.99317
2.03017
2.06932
2.11126
2.15642
2.20498
2.25721
2.31266
2.37252
2.43399
2.50351
2.5684
2.65236
2.71753
2.81962
2.88756
3.00646
1.38603
1.4176
1.44986
1.49143
1.5368
1.58244
1.62775
1.67158
1.71313
1.75226
1.78925
1.82462
1.85921
1.89395
1.92979
1.96764
2.00822
2.05209
2.0995
2.15079
2.20553
2.26488
2.32608
2.39537
2.46038
2.54435
2.6099
2.71254
2.78092
2.90097
1.2985
1.3282
1.35828
1.39753
1.44089
1.48493
1.52907
1.57221
1.61337
1.65228
1.68904
1.72405
1.75802
1.79185
1.82651
1.86298
1.90207
1.94447
1.99055
2.0407
2.09456
2.15326
2.21408
2.28307
2.34814
2.43204
2.49798
2.60099
2.66992
2.79086
1.20962
1.2374
1.26528
1.30208
1.34324
1.38541
1.42811
1.47026
1.51083
1.54936
1.58581
1.62042
1.65378
1.68672
1.72019
1.7552
1.79269
1.83344
1.87796
1.92676
1.97953
2.03739
2.0977
2.16627
2.23132
2.31504
2.38136
2.48459
2.55412
2.67566
1.11943
1.1453
1.17096
1.2052
1.24397
1.28402
1.32496
1.36582
1.40551
1.44345
1.47944
1.51359
1.54633
1.57838
1.61065
1.64416
1.67992
1.71885
1.76159
1.80877
1.8602
1.917
1.9766
2.0446
2.10953
2.19295
2.25962
2.36287
2.43307
2.55487
1.02804
1.05198
1.07544
1.10704
1.14323
1.18091
1.21978
1.259
1.29747
1.33455
1.36987
1.40343
1.43549
1.46663
1.4977
1.52968
1.56363
1.60056
1.64128
1.68654
1.73632
1.79177
1.85042
1.91765
1.98233
2.06528
2.13226
2.23531
2.30622
2.42795
0.935591
0.957578
0.978837
1.00773
1.04119
1.07625
1.11273
1.14993
1.1868
1.22264
1.25704
1.28982
1.3211
1.35129
1.38114
1.41156
1.44362
1.4784
1.51686
1.5599
1.60768
1.66141
1.7188
1.78498
1.8492
1.93149
1.9987
2.10132
2.17299
2.29425
0.842112
0.862165
0.881271
0.907428
0.938016
0.970253
1.00403
1.03883
1.07368
1.10788
1.141
1.17272
1.20302
1.23216
1.26074
1.28957
1.31968
1.35219
1.38816
1.42867
1.47404
1.52563
1.58132
1.64608
1.70957
1.79091
1.85825
1.96017
2.03264
2.153
0.747682
0.765835
0.78287
0.806293
0.833908
0.863127
0.893916
0.925934
0.958339
0.990469
1.02186
1.05213
1.08116
1.10907
1.13627
1.16347
1.19159
1.22173
1.25502
1.29267
1.3352
1.38413
1.43761
1.50044
1.56277
1.6428
1.71007
1.81098
1.88428
2.00325
0.65234
0.668668
0.683754
0.704493
0.729065
0.755103
0.782645
0.811528
0.841053
0.870626
0.899777
0.928149
0.95552
0.981894
1.00754
1.03301
1.05908
1.08679
1.11723
1.15172
1.19097
1.23668
1.28728
1.34751
1.40807
1.48623
1.55313
1.6526
1.72674
1.84371
0.556275
0.570776
0.584083
0.602225
0.623706
0.646425
0.670493
0.695911
0.722143
0.748688
0.775058
0.800971
0.826177
0.850611
0.874418
0.897981
0.92191
0.94709
0.974548
1.00563
1.04117
1.08304
1.13
1.18674
1.24469
1.32016
1.38614
1.48359
1.55855
1.67276
0.459493
0.47228
0.484087
0.49976
0.518103
0.537377
0.557771
0.579432
0.601991
0.625043
0.648106
0.670947
0.693379
0.715336
0.73689
0.758277
0.779886
0.802421
0.826771
0.854204
0.88564
0.923035
0.965489
1.01768
1.07184
1.14339
1.20752
1.30195
1.37738
1.48771
0.362259
0.373486
0.384188
0.397565
0.412712
0.428405
0.444943
0.462592
0.481156
0.500321
0.519584
0.538666
0.557623
0.576468
0.595248
0.61405
0.63303
0.652721
0.673779
0.697325
0.724259
0.756584
0.793645
0.840037
0.888926
0.954801
1.01571
1.10566
1.18113
1.28642
0.265989
0.27553
0.285334
0.296562
0.308458
0.320444
0.33296
0.346366
0.360657
0.37572
0.390832
0.405311
0.419998
0.435038
0.450508
0.466157
0.481989
0.498462
0.515889
0.535229
0.557265
0.583907
0.614621
0.653825
0.695537
0.753266
0.808194
0.890585
0.963193
1.0606
0.174919
0.181885
0.190163
0.199063
0.207651
0.215842
0.224186
0.233092
0.242668
0.252945
0.264521
0.273378
0.283262
0.294013
0.305498
0.317223
0.329247
0.341798
0.354951
0.369513
0.386076
0.406329
0.429803
0.460442
0.493272
0.540286
0.58723
0.659342
0.726975
0.810296
0.0955314
0.0990125
0.104324
0.110077
0.115148
0.119546
0.123746
0.128098
0.132638
0.137113
0.141358
0.147769
0.153483
0.159976
0.166827
0.173992
0.181501
0.189026
0.196865
0.205609
0.215582
0.227987
0.242366
0.261763
0.281853
0.313187
0.344142
0.397983
0.453889
0.51831
0.0298741
0.0300007
0.0315437
0.0333958
0.0349097
0.0360127
0.0368907
0.0377079
0.0384914
0.0391388
0.0394585
0.039343
0.0402569
0.0427765
0.0452743
0.0478526
0.0504623
0.0528071
0.0551449
0.0577267
0.0607455
0.0645705
0.0689592
0.0751671
0.0811288
0.0920438
0.101963
0.124494
0.146035
0.174556
2.40377
2.33062
2.26603
2.19772
2.12944
2.05931
1.98761
1.91418
1.83902
1.76214
1.68358
1.60338
1.52163
1.43836
1.35363
1.26755
1.18022
1.09169
1.00201
0.911441
0.819819
0.727411
0.633793
0.540241
0.44617
0.352212
0.259737
0.172182
0.0943265
0.0313362
2.38691
2.31333
2.24977
2.18178
2.11398
2.04422
1.97291
1.89987
1.82511
1.74864
1.67053
1.59079
1.50953
1.42678
1.34259
1.25708
1.17034
1.08243
0.993366
0.90347
0.81248
0.720639
0.62785
0.53499
0.441688
0.348555
0.257001
0.170433
0.0933437
0.0315314
2.37019
2.29682
2.23419
2.16663
2.09931
2.02997
1.95907
1.88645
1.8121
1.73608
1.65842
1.57915
1.49839
1.41616
1.33251
1.24755
1.16138
1.07407
0.985588
0.896318
0.805918
0.714582
0.62258
0.530351
0.437747
0.345354
0.25459
0.168782
0.0922868
0.0315307
2.35334
2.28056
2.21877
2.15166
2.08481
2.0159
1.94542
1.87321
1.7993
1.72371
1.64651
1.56771
1.48745
1.40573
1.32261
1.2382
1.15261
1.0659
0.977994
0.889302
0.799401
0.708725
0.617428
0.525819
0.433881
0.342187
0.252175
0.167139
0.0913331
0.0315095
2.33665
2.26476
2.20369
2.13708
2.07068
2.0022
1.93212
1.86033
1.78684
1.71168
1.63494
1.5566
1.47683
1.39562
1.31302
1.22914
1.14411
1.05799
0.970632
0.882515
0.793012
0.703077
0.61243
0.521425
0.430126
0.339101
0.249808
0.16552
0.0904432
0.0314744
2.3202
2.24938
2.18894
2.12286
2.05689
1.98883
1.91915
1.84777
1.77469
1.69996
1.62367
1.54578
1.46649
1.38578
1.30369
1.22032
1.13585
1.05027
0.96345
0.875733
0.786914
0.697579
0.607547
0.517126
0.426443
0.336061
0.247467
0.163921
0.0895936
0.0314096
2.30405
2.23444
2.17455
2.10902
2.04345
1.97581
1.90652
1.83555
1.76287
1.68856
1.61271
1.53525
1.45644
1.37623
1.29462
1.21177
1.12785
1.04277
0.956411
0.869118
0.781003
0.692234
0.602786
0.512929
0.422837
0.333076
0.245158
0.162344
0.088775
0.0313141
2.28826
2.21994
2.16054
2.09556
2.03038
1.96316
1.89424
1.82368
1.75138
1.67749
1.60206
1.52504
1.44671
1.36696
1.28582
1.20348
1.12006
1.0355
0.949391
0.862796
0.775266
0.687036
0.598148
0.508834
0.41931
0.330148
0.242885
0.160791
0.0879812
0.0311923
2.27287
2.20589
2.14691
2.0825
2.0177
1.95087
1.88232
1.81216
1.74023
1.66677
1.59174
1.51515
1.43729
1.35798
1.27732
1.19544
1.11249
1.0282
0.942774
0.85669
0.769701
0.68199
0.593635
0.504846
0.415866
0.327281
0.240652
0.159261
0.0872069
0.0310473
2.25792
2.19228
2.13368
2.06984
2.0054
1.93896
1.87078
1.801
1.72945
1.65639
1.58175
1.50561
1.42818
1.34931
1.2691
1.18763
1.10496
1.02124
0.93639
0.85079
0.764309
0.677096
0.589252
0.500968
0.41251
0.324477
0.238459
0.157756
0.086448
0.0308813
2.24344
2.17914
2.12087
2.0576
1.9935
1.92745
1.85963
1.79022
1.71902
1.64638
1.57211
1.4964
1.41936
1.34095
1.26118
1.17982
1.09779
1.01456
0.930229
0.845089
0.759092
0.672356
0.585
0.497201
0.409239
0.321735
0.236308
0.156275
0.0857019
0.0306957
2.22947
2.16646
2.1085
2.04579
1.98202
1.91634
1.84886
1.77982
1.70899
1.63671
1.56284
1.48749
1.41083
1.33294
1.25316
1.17251
1.09091
1.00814
0.924283
0.839587
0.754051
0.667773
0.580881
0.493545
0.406054
0.319054
0.234198
0.154818
0.0849671
0.0304931
2.21601
2.15426
2.09657
2.03441
1.97095
1.90565
1.8385
1.76981
1.69937
1.62736
1.55396
1.47884
1.40255
1.32492
1.24571
1.1655
1.0843
1.00196
0.918554
0.834283
0.749185
0.663345
0.576892
0.489996
0.402953
0.316435
0.23213
0.153384
0.084243
0.0302779
2.20311
2.14253
2.08511
2.02348
1.96031
1.89538
1.82858
1.76015
1.69015
1.6183
1.54548
1.47028
1.39457
1.31733
1.23857
1.15878
1.07795
0.996021
0.913041
0.829178
0.744497
0.659073
0.573036
0.486556
0.399936
0.313878
0.230104
0.151976
0.0835295
0.0300537
2.19079
2.13128
2.07414
2.013
1.95013
1.88551
1.81908
1.75081
1.68137
1.60942
1.53702
1.46237
1.38695
1.31007
1.23174
1.15233
1.07188
0.990326
0.907748
0.824274
0.739988
0.65496
0.569312
0.483224
0.397006
0.311384
0.228123
0.150593
0.0828266
0.0298228
2.17913
2.12049
2.06368
2.00296
1.94042
1.87599
1.81007
1.7417
1.6726
1.6012
1.52901
1.45483
1.37969
1.30315
1.22521
1.14617
1.06606
0.984876
0.902677
0.819574
0.73566
0.651006
0.565725
0.480004
0.394164
0.308956
0.226186
0.149238
0.0821345
0.0295867
2.16821
2.11014
2.05368
1.99335
1.93119
1.86668
1.80108
1.73326
1.66431
1.59338
1.52139
1.44763
1.37277
1.29655
1.21898
1.14028
1.06051
0.979673
0.897832
0.815081
0.731518
0.647215
0.562277
0.476899
0.391413
0.306595
0.224296
0.14791
0.0814533
0.0293465
2.15806
2.10026
2.04406
1.98394
1.92212
1.85814
1.79262
1.72526
1.65646
1.58594
1.51416
1.44078
1.3662
1.29029
1.21306
1.13469
1.05524
0.974721
0.893216
0.810798
0.727564
0.64359
0.558972
0.473912
0.388755
0.304304
0.222451
0.146609
0.0807833
0.0291031
2.14826
2.09075
2.035
1.97523
1.91357
1.85004
1.78462
1.71766
1.64903
1.57887
1.50732
1.43428
1.35997
1.28435
1.20744
1.12938
1.05023
0.970021
0.888832
0.806726
0.723799
0.640131
0.555812
0.471044
0.386191
0.302081
0.220652
0.145337
0.0801252
0.0288581
2.13879
2.08202
2.02641
1.96701
1.9055
1.84237
1.77708
1.71046
1.64203
1.57219
1.50087
1.42813
1.35408
1.27874
1.20213
1.12435
1.04549
0.965575
0.88468
0.802868
0.720226
0.636841
0.552798
0.468296
0.383721
0.299927
0.218899
0.144091
0.0794795
0.0286133
2.12988
2.07387
2.01833
1.95929
1.89792
1.83514
1.76999
1.70368
1.63544
1.56589
1.49479
1.42233
1.34854
1.27347
1.19713
1.11962
1.04103
0.961384
0.880761
0.799223
0.716846
0.63372
0.549929
0.465669
0.381345
0.297842
0.217191
0.142873
0.0788469
0.02837
2.12158
2.06625
2.01077
1.95204
1.89083
1.82835
1.76335
1.69732
1.62927
1.55998
1.4891
1.4169
1.34335
1.26852
1.19244
1.11519
1.03684
0.957448
0.877078
0.795791
0.713657
0.630768
0.547208
0.463165
0.379064
0.295825
0.215528
0.141683
0.0782282
0.0281294
2.1139
2.05915
2.00374
1.94528
1.88421
1.822
1.75716
1.69138
1.62351
1.55446
1.48379
1.41183
1.33851
1.26391
1.18806
1.11104
1.03293
0.953768
0.873629
0.792572
0.710662
0.627987
0.544634
0.460784
0.376879
0.293878
0.213912
0.140521
0.0776242
0.0278924
2.10686
2.05257
1.99723
1.939
1.87808
1.81611
1.75142
1.68586
1.61816
1.54934
1.47887
1.40713
1.33401
1.25963
1.18399
1.10719
1.02929
0.950343
0.870415
0.789568
0.707861
0.625378
0.542209
0.458528
0.374792
0.292003
0.212343
0.139388
0.077036
0.02766
2.10045
2.04651
1.99125
1.9332
1.87242
1.81067
1.74612
1.68077
1.61324
1.54462
1.47433
1.40279
1.32986
1.25568
1.18024
1.10363
1.02593
0.947174
0.867438
0.786778
0.705254
0.622943
0.539935
0.456401
0.372808
0.290202
0.210824
0.138285
0.0764647
0.0274333
2.09466
2.04098
1.9858
1.9279
1.86725
1.80569
1.74127
1.67611
1.60873
1.5403
1.47018
1.39882
1.32607
1.25206
1.1768
1.10037
1.02284
0.944262
0.864698
0.784204
0.702844
0.620683
0.537814
0.454404
0.370929
0.288479
0.209357
0.137214
0.0759114
0.0272132
2.08948
2.03598
1.98088
1.92309
1.86256
1.80116
1.73686
1.67189
1.60464
1.53638
1.46641
1.39522
1.32262
1.24878
1.17367
1.09741
1.02004
0.941608
0.862195
0.781848
0.70063
0.6186
0.535848
0.452542
0.369161
0.286838
0.207945
0.136178
0.0753774
0.0270008
2.08491
2.03152
1.97648
1.91877
1.85835
1.7971
1.73291
1.66809
1.60097
1.53286
1.46303
1.39199
1.31953
1.24583
1.17087
1.09474
1.01751
0.939212
0.859931
0.77971
0.698614
0.616694
0.534039
0.450816
0.367507
0.285285
0.206593
0.135179
0.0748644
0.0267973
2.08094
2.02759
1.9726
1.91494
1.85462
1.79349
1.7294
1.66472
1.59772
1.52974
1.46004
1.38912
1.31679
1.24322
1.16838
1.09237
1.01525
0.937073
0.857904
0.777789
0.696795
0.614965
0.532387
0.44923
0.365973
0.283825
0.205306
0.134222
0.0743746
0.0266041
2.07756
2.02419
1.96924
1.9116
1.85136
1.79034
1.72634
1.66178
1.59488
1.52702
1.45743
1.38662
1.3144
1.24093
1.1662
1.0903
1.01328
0.935189
0.856113
0.776083
0.69517
0.613411
0.530893
0.447785
0.364563
0.282466
0.204091
0.133311
0.0739108
0.0264228
2.07477
2.02131
1.9664
1.90874
1.84858
1.78763
1.72371
1.65926
1.59245
1.52469
1.4552
1.38449
1.31236
1.23898
1.16433
1.08851
1.01157
0.933558
0.854554
0.77459
0.693737
0.612031
0.529557
0.446484
0.363284