/*--------------------------------*- C++ -*----------------------------------*\
  =========                 |
  \\      /  F ield         | OpenFOAM: The Open Source CFD Toolbox
   \\    /   O peration     | Website:  https://openfoam.org
    \\  /    A nd           | Version:  7
     \\/     M anipulation  |
\*---------------------------------------------------------------------------*/
FoamFile
{
    version     2.0;
    format      ascii;
    class       surfaceScalarField;
    location    "0.9";
    object      phi;
}
// * * * * * * * * * * * * * * * * * * * * * * * * * * * * * * * * * * * * * //

dimensions      [0 3 -1 0 0 0 0];

internalField   nonuniform List<scalar> 
35640
(
-2.66043e-05
0.00334996
-0.00332336
-3.22124e-05
0.00593613
-0.00593052
3.6135e-05
0.00579857
-0.00586692
0.000213295
0.00405604
-0.0042332
0.000513962
0.00156455
-0.00186521
0.000934895
-0.00109867
0.000677738
0.00145957
-0.00357969
0.00305501
0.00206405
-0.00568963
0.00508515
0.00272258
-0.00735555
0.00669702
0.00341172
-0.00858007
0.00789094
0.00411259
-0.00940962
0.00870875
0.00481154
-0.00991064
0.00921169
0.0054997
-0.0101536
0.00946546
0.00617209
-0.0102038
0.00953141
0.0068266
-0.0101166
0.00946208
0.00746296
-0.00993638
0.00930001
0.00808208
-0.00969712
0.009078
0.00868539
-0.00942372
0.0088204
0.00927456
-0.00913391
0.00854474
0.00985126
-0.00883981
0.00826312
0.010417
-0.00854939
0.00798367
0.0109731
-0.00826767
0.00771158
0.0115207
-0.00799755
0.00744995
0.0120607
-0.00774051
0.00720047
0.012594
-0.00749707
0.00696379
0.0131212
-0.00726715
0.00673997
0.0136428
-0.00705027
0.00652867
0.0141592
-0.00684572
0.00632925
0.0146708
-0.00665216
0.00614056
-0.0064649
0.0151772
0.00595852
-1.32944e-05
0.00336326
6.51499e-06
0.00591632
0.000106639
0.00569845
0.000318029
0.00384465
0.000652435
0.00123014
0.00110411
-0.00155035
0.00165445
-0.00413003
0.0022781
-0.00631328
0.00294868
-0.00802613
0.00364297
-0.00927436
0.0043429
-0.0101095
0.00503595
-0.0106037
0.00571453
-0.0108322
0.00637483
-0.0108641
0.00701577
-0.0107575
0.00763794
-0.0105585
0.00824283
-0.010302
0.00883234
-0.0100132
0.00940843
-0.00971
0.00997292
-0.0094043
0.0105274
-0.00910389
0.0110733
-0.00881354
0.0116116
-0.00853591
0.0121434
-0.00827228
0.0126693
-0.00802299
0.01319
-0.00778781
0.0137059
-0.00756616
0.0142174
-0.00735721
0.0147247
-0.00715946
-0.00696762
0.0152274
-4.35856e-07
0.00336369
4.47121e-05
0.00587117
0.000177147
0.00556601
0.000423645
0.00359816
0.00079273
0.000861055
0.00127576
-0.00203337
0.00185174
-0.00470602
0.00249382
-0.00695535
0.00317514
-0.00870746
0.0038729
-0.00997212
0.00457008
-0.0108067
0.00525546
-0.0112891
0.00592286
-0.0114996
0.00656973
-0.011511
0.00719604
-0.0113838
0.00780318
-0.0111657
0.00839324
-0.0108921
0.00896853
-0.0105885
0.00953124
-0.0102727
0.0100833
-0.00995638
0.0106264
-0.009647
0.0111619
-0.00934906
0.011691
-0.00906493
0.0122144
-0.00879568
0.0127328
-0.00854146
0.0132469
-0.00830187
0.013757
-0.00807624
0.0142634
-0.00786361
0.0147663
-0.00766234
-0.00746656
0.0152652
1.14772e-05
0.00335222
8.22562e-05
0.00580039
0.000247697
0.00540057
0.000530254
0.0033156
0.000934741
0.000456568
0.00144924
-0.00254787
0.00205025
-0.00530703
0.00270949
-0.00761459
0.00339984
-0.00939781
0.00409916
-0.0106714
0.00479166
-0.0114992
0.00546765
-0.0119651
0.00612239
-0.0121543
0.00675465
-0.0121432
0.00736543
-0.0119946
0.00795691
-0.0117572
0.00853172
-0.0114669
0.00909251
-0.0111493
0.00964167
-0.0108219
0.0101812
-0.010496
0.0107129
-0.0101787
0.0112381
-0.0098742
0.0117577
-0.00958459
0.0122727
-0.00931066
0.0127836
-0.00905239
0.013291
-0.00880925
0.0137952
-0.00858041
0.0142964
-0.00836483
0.0147948
-0.0081607
-0.0079616
0.0152898
2.30147e-05
0.0033292
0.000119206
0.0057042
0.000317986
0.00520179
0.000637119
0.00299647
0.00107728
1.64068e-05
0.00162298
-0.00309357
0.00224809
-0.00593214
0.00292298
-0.00828948
0.00362052
-0.0100953
0.00431945
-0.0113704
0.00500543
-0.0121852
0.0056704
-0.01263
0.00631116
-0.0127951
0.00692781
-0.0127599
0.00752236
-0.0125892
0.00809771
-0.0123325
0.008657
-0.0120262
0.00920316
-0.0116955
0.00973872
-0.0113574
0.0102658
-0.011023
0.0107861
-0.010699
0.0113008
-0.010389
0.0118111
-0.0100949
0.0123176
-0.00981719
0.012821
-0.00955574
0.0133216
-0.00930986
0.0138198
-0.00907858
0.0143157
-0.00886077
0.0148094
-0.00865443
-0.00845263
0.0153005
3.39867e-05
0.00329521
0.000155395
0.0055828
0.00038775
0.00496944
0.00074375
0.00264047
0.00121952
-0.000459359
0.00179573
-0.00366978
0.00244364
-0.00658005
0.00313246
-0.00897831
0.00383522
-0.0107981
0.00453179
-0.0120669
0.00520947
-0.0128629
0.00586193
-0.0132825
0.00648755
-0.0134207
0.00708775
-0.0133601
0.00766553
-0.0131669
0.00822446
-0.0128915
0.0087681
-0.0125698
0.0092996
-0.012227
0.00982161
-0.0118794
0.0103363
-0.0115377
0.0108452
-0.0112079
0.0113496
-0.0108934
0.0118505
-0.0105958
0.0123485
-0.0103152
0.0128443
-0.0100515
0.013338
-0.00980361
0.0138301
-0.00957064
0.0143206
-0.00935129
0.0148096
-0.00914339
-0.00893951
0.0152964
4.44753e-05
0.00325074
0.000190795
0.00543648
0.000456695
0.00470354
0.000849496
0.00224767
0.00136043
-0.000970291
0.00196617
-0.00427553
0.00263537
-0.00724925
0.00333623
-0.00967917
0.00404219
-0.0115041
0.00473446
-0.0127592
0.00540212
-0.0135305
0.0060407
-0.0139211
0.00665019
-0.0140302
0.0072333
-0.0139432
0.00779394
-0.0137276
0.0083363
-0.0134338
0.00886428
-0.0130978
0.00938122
-0.0127439
0.0098898
-0.012388
0.0103921
-0.01204
0.0108898
-0.0117055
0.011384
-0.0113876
0.0118755
-0.0110873
0.012365
-0.0108048
0.012853
-0.0105394
0.0133397
-0.0102904
0.0138255
-0.0100564
0.0143105
-0.00983623
0.0147945
-0.00962741
-0.00942204
0.015277
5.45163e-05
0.00319622
0.000225348
0.00526565
0.000524535
0.00440435
0.000953779
0.00181843
0.00149914
-0.00151565
0.00213315
-0.00490954
0.0028219
-0.007938
0.00353278
-0.01039
0.00423986
-0.0122111
0.00492591
-0.0134453
0.00558196
-0.0141866
0.00620544
-0.0145445
0.00679797
-0.0146227
0.0073635
-0.0145087
0.00790679
-0.0142709
0.00843257
-0.0139596
0.00894501
-0.0136102
0.00944755
-0.0132464
0.0099429
-0.0128834
0.0104331
-0.0125302
0.0109196
-0.012192
0.0114035
-0.0118715
0.0118857
-0.0115694
0.0123666
-0.0112857
0.0128468
-0.0110196
0.0133264
-0.01077
0.0138057
-0.0105357
0.0142848
-0.0103153
0.0147636
-0.0101062
-0.00989998
0.0152415
6.41391e-05
0.00313209
0.000259004
0.00507078
0.000591034
0.00407232
0.00105611
0.00135335
0.00163489
-0.00209443
0.00229567
-0.00557031
0.00300203
-0.00864437
0.00372078
-0.0111088
0.00442686
-0.0129172
0.00510483
-0.0141232
0.00574777
-0.0148295
0.00635508
-0.0151518
0.00693
-0.0151976
0.00747762
-0.0150563
0.00800351
-0.0147967
0.00851282
-0.0144689
0.00900993
-0.0141073
0.00949833
-0.0137348
0.00998067
-0.0133657
0.0104589
-0.0130084
0.0109344
-0.0126676
0.0114082
-0.0123453
0.011881
-0.0120422
0.0123532
-0.0117579
0.0128253
-0.0114916
0.0132975
-0.0112422
0.01377
-0.0110083
0.014243
-0.0107883
0.0147162
-0.0105794
-0.0103729
0.0151892
7.33701e-05
0.00305872
0.00029173
0.00485242
0.000656005
0.00370805
0.00115609
0.000853275
0.00176703
-0.00270537
0.00245282
-0.0062561
0.00317468
-0.00936623
0.00389903
-0.0118332
0.00460198
-0.0136202
0.00527005
-0.0147913
0.00589852
-0.015458
0.00648876
-0.0157421
0.00704558
-0.0157544
0.00757515
-0.0155859
0.00808371
-0.0153053
0.00857678
-0.014962
0.00905885
-0.0145894
0.00953341
-0.0142094
0.010003
-0.0138353
0.0104695
-0.0134749
0.0109341
-0.0131322
0.0113978
-0.012809
0.0118611
-0.0125055
0.0123245
-0.0122213
0.0127884
-0.0119555
0.0132529
-0.0117067
0.0137183
-0.0114736
0.0141846
-0.0112546
0.0146518
-0.0110467
-0.0108405
0.0151194
8.22374e-05
0.00297648
0.000323515
0.00461115
0.000719312
0.00331225
0.00125338
0.000319211
0.00189499
-0.00334698
0.0026038
-0.00696491
0.00333885
-0.0101013
0.00406647
-0.0125608
0.00476415
-0.0143178
0.00542061
-0.0154478
0.00603339
-0.0160708
0.00660583
-0.0163145
0.00714422
-0.0162928
0.00765573
-0.0160974
0.00814717
-0.0157967
0.00862431
-0.0154391
0.00909171
-0.0150568
0.00955278
-0.0146705
0.0100099
-0.0142925
0.0104649
-0.0139298
0.0109188
-0.0135861
0.0113724
-0.0132625
0.0118262
-0.0129593
0.0122806
-0.0126757
0.0127359
-0.0124108
0.0131923
-0.0121631
0.0136501
-0.0119314
0.0141093
-0.0117139
0.0145699
-0.0115072
-0.011302
0.0150314
9.07733e-05
0.0028857
0.000354369
0.00434755
0.00078086
0.00288576
0.00134771
-0.000247633
0.00201827
-0.00401755
0.00274791
-0.00769455
0.00349368
-0.0108471
0.00422214
-0.0132892
0.00491247
-0.0150082
0.0055557
-0.016091
0.00615173
-0.0166668
0.0067058
-0.0168686
0.0072256
-0.0168126
0.00771918
-0.016591
0.00819381
-0.0162714
0.00865543
-0.0159007
0.00910857
-0.0155099
0.00955652
-0.0151184
0.0100016
-0.0147375
0.0104452
-0.0143735
0.0108885
-0.0140294
0.011332
-0.0137061
0.0117762
-0.0134035
0.0122214
-0.0131209
0.0126678
-0.0128572
0.0131158
-0.0126111
0.0135654
-0.012381
0.0140168
-0.0121653
0.0144701
-0.0119605
-0.0117568
0.0149248
9.9014e-05
0.00278669
0.000384319
0.00406225
0.000840586
0.00242949
0.00143883
-0.00084588
0.00213641
-0.00471512
0.00288447
-0.00844261
0.00363838
-0.011601
0.00436523
-0.0140161
0.00504617
-0.0156891
0.0056747
-0.0167195
0.00625306
-0.0172452
0.00678836
-0.0174039
0.00728956
-0.0173138
0.00776547
-0.0170669
0.00822369
-0.0167296
0.00867025
-0.0163473
0.00910959
-0.0159493
0.00954484
-0.0155537
0.00997809
-0.0151708
0.0104107
-0.0148061
0.0108435
-0.0144621
0.0112769
-0.0141395
0.0117114
-0.013838
0.0121471
-0.0135567
0.0125844
-0.0132944
0.0130232
-0.0130499
0.0134641
-0.0128219
0.013907
-0.0126083
0.014352
-0.0124055
-0.012204
0.0147992
0.000106998
0.00267969
0.000413402
0.00375585
0.000898445
0.00194445
0.00152655
-0.00147399
0.00224899
-0.00543756
0.00301289
-0.00920651
0.00377224
-0.0123603
0.00449504
-0.0147389
0.00516463
-0.0163587
0.00577713
-0.017332
0.00633709
-0.0178051
0.00685337
-0.0179202
0.00733609
-0.0177965
0.00779468
-0.0175255
0.00823697
-0.0171719
0.00866898
-0.0167793
0.00909501
-0.0163753
0.00951798
-0.0159766
0.00993978
-0.0155926
0.0103615
-0.0152279
0.010784
-0.0148845
0.0112074
-0.014563
0.0116321
-0.0142627
0.0120581
-0.0139827
0.0124857
-0.013722
0.012915
-0.0134793
0.0133464
-0.0132532
0.0137799
-0.0130418
0.0142158
-0.0128414
-0.0126427
0.0146546
0.000114765
0.00256493
0.000441663
0.00342895
0.000954401
0.00143171
0.00161066
-0.00213025
0.00235563
-0.00618252
0.00313262
-0.0099835
0.00389466
-0.0131224
0.00461098
-0.0154552
0.0052674
-0.0170151
0.00586268
-0.0179273
0.00640365
-0.0183461
0.00690082
-0.0184173
0.00736531
-0.018261
0.00780702
-0.0179672
0.00823392
-0.0175988
0.00865192
-0.0171973
0.00906514
-0.0167885
0.00947627
-0.0163878
0.00988696
-0.0160032
0.0102982
-0.0156391
0.0107104
-0.0152967
0.0111238
-0.0149764
0.0115386
-0.0146774
0.0119547
-0.0143989
0.0123723
-0.0141396
0.0127916
-0.0138985
0.0132127
-0.0136743
0.013636
-0.0134651
0.0140618
-0.0132673
-0.0130721
0.0144912
0.000122353
0.00244257
0.000469144
0.00308216
0.00100842
0.00089244
0.00169097
-0.0028128
0.00245595
-0.0069475
0.00324317
-0.0107707
0.00400509
-0.0138843
0.00471259
-0.0161627
0.00535412
-0.0176567
0.00593116
-0.0185044
0.00645273
-0.0188677
0.00693083
-0.0188954
0.00737742
-0.0187076
0.00780277
-0.0183925
0.00821486
-0.0180109
0.00861942
-0.0176018
0.00902035
-0.0171895
0.00942008
-0.0167875
0.00982002
-0.0164032
0.0102209
-0.01604
0.0106231
-0.0156989
0.0110266
-0.0153799
0.0114314
-0.0150822
0.0118375
-0.014805
0.0122448
-0.014547
0.0126535
-0.0143072
0.0130637
-0.0140845
0.0134759
-0.0138773
0.0138907
-0.0136821
-0.0134914
0.01431
0.0001298
0.00231277
0.000495883
0.00271608
0.00106045
0.000327872
0.00176729
-0.00351964
0.00254961
-0.00772982
0.0033441
-0.0115652
0.00410311
-0.0146433
0.00479952
-0.0168591
0.00542461
-0.0182817
0.00598254
-0.0190623
0.00648443
-0.0193696
0.00694362
-0.0193546
0.00737275
-0.0191368
0.00778229
-0.0188021
0.00818016
-0.0184087
0.00857187
-0.0179935
0.00896102
-0.0175786
0.0093498
-0.0171763
0.00973937
-0.0167928
0.0101303
-0.0164309
0.0105226
-0.0160913
0.0109164
-0.0157736
0.0113113
-0.0154772
0.0117072
-0.0152009
0.012104
-0.0149438
0.0125017
-0.0147049
0.0129004
-0.0144832
0.0133007
-0.0142776
0.0137037
-0.0140851
-0.0138998
0.0141121
0.000137135
0.00217564
0.000521907
0.00233131
0.00111045
-0.000260666
0.00183941
-0.00424861
0.00263627
-0.00852667
0.003435
-0.0123639
0.00418836
-0.0153967
0.00487153
-0.0175423
0.00547877
-0.018889
0.0060169
-0.0196004
0.00649898
-0.0198516
0.00693951
-0.0197952
0.00735166
-0.0195489
0.00774599
-0.0191964
0.00813024
-0.018793
0.00850966
-0.018373
0.00888756
-0.0179565
0.00926584
-0.0175545
0.00964544
-0.0171724
0.0100267
-0.0168121
0.0104095
-0.0164741
0.0107937
-0.0161578
0.0111788
-0.0158623
0.0115646
-0.0155867
0.0119508
-0.01533
0.0123373
-0.0150913
0.0127242
-0.0148701
0.013112
-0.0146654
0.0135024
-0.0144755
-0.0142969
0.0138995
0.000144386
0.00203125
0.000547227
0.00192847
0.00115833
-0.000871764
0.00190714
-0.00499742
0.00271561
-0.00933515
0.00351554
-0.0131639
0.00426055
-0.0161417
0.00492847
-0.0182102
0.00551662
-0.0194771
0.00603441
-0.0201182
0.00649666
-0.0203139
0.00691888
-0.0202174
0.00731458
-0.0199446
0.00769429
-0.0195761
0.00806552
-0.0191642
0.00843321
-0.0187407
0.00880037
-0.0183237
0.00916862
-0.0179228
0.00953865
-0.0175424
0.0099106
-0.017184
0.0102842
-0.0168477
0.0106591
-0.0165327
0.0110348
-0.016238
0.0114107
-0.0159626
0.0117864
-0.0157057
0.0121617
-0.0154666
0.0125364
-0.0152448
0.0129114
-0.0150404
0.0132889
-0.014853
-0.0146821
0.0136741
0.00015157
0.00187968
0.000571843
0.0015082
0.001204
-0.00150392
0.00197025
-0.00576366
0.00278734
-0.0101522
0.00358542
-0.0139619
0.00431949
-0.0168757
0.00497031
-0.018861
0.00553829
-0.0200451
0.00603534
-0.0206153
0.00647787
-0.0207564
0.00688217
-0.0206217
0.00726196
-0.0203244
0.00762765
-0.0199418
0.00798644
-0.019523
0.00834294
-0.0190972
0.00869984
-0.0186806
0.0090585
-0.0182814
0.00941941
-0.0179033
0.0097825
-0.0175471
0.0101474
-0.0172126
0.0105135
-0.0168988
0.0108801
-0.0166046
0.0112465
-0.0163291
0.0116121
-0.0160713
0.0119763
-0.0158308
0.0123391
-0.0156076
0.0127012
-0.0154024
0.0130653
-0.0152171
-0.015055
0.0134382
0.000158702
0.00172098
0.000595734
0.00107117
0.00124736
-0.00215555
0.00202852
-0.00654482
0.00285118
-0.0109749
0.00364441
-0.0147552
0.00436507
-0.0175964
0.0049971
-0.0194931
0.00554401
-0.020592
0.00602004
-0.0210913
0.00644302
-0.0211794
0.00682984
-0.0210085
0.00719428
-0.0206889
0.00754652
-0.020294
0.0078934
-0.0198699
0.0082392
-0.019443
0.00858631
-0.0190277
0.00893585
-0.018631
0.00928809
-0.0182555
0.0096428
-0.0179018
0.00999944
-0.0175692
0.0103573
-0.0172566
0.0107154
-0.0169628
0.011073
-0.0166866
0.0114291
-0.0164274
0.011783
-0.0161846
0.0121342
-0.0159588
0.0124835
-0.0157517
0.0128341
-0.0155677
-0.0154153
0.0131944
0.000165784
0.0015552
0.000618867
0.000618089
0.00128827
-0.00282495
0.00208173
-0.00733827
0.00290687
-0.0118
0.00369231
-0.0155406
0.00439725
-0.0183013
0.00500897
-0.0201048
0.00553405
-0.0211171
0.00598892
-0.0215462
0.0063926
-0.0215831
0.00676239
-0.0213783
0.00711202
-0.0210385
0.00745132
-0.0206333
0.00778679
-0.0202053
0.00812235
-0.0197785
0.0084601
-0.0193654
0.00880093
-0.0189718
0.00914497
-0.0185996
0.00949183
-0.0182487
0.00984085
-0.0179182
0.0101911
-0.0176069
0.0105417
-0.0173133
0.0108913
-0.0170363
0.0112389
-0.016775
0.0115833
-0.0165291
0.0119238
-0.0162994
0.0122609
-0.0160888
0.0125982
-0.015905
-0.0157622
0.0129451
0.000172814
0.00138239
0.00064119
0.000149716
0.0013266
-0.00351036
0.00212965
-0.00814133
0.0029542
-0.0126246
0.00372902
-0.0163154
0.00441606
-0.0189884
0.00500612
-0.0206948
0.00550879
-0.0216198
0.00594246
-0.0219798
0.00632712
-0.0219678
0.00668034
-0.0217315
0.00701564
-0.0213738
0.00734248
-0.0209602
0.00766696
-0.0205298
0.00799266
-0.0201042
0.00832143
-0.0196942
0.00865396
-0.0193043
0.00899025
-0.0189359
0.00932982
-0.0185883
0.0096719
-0.0182603
0.0100155
-0.0179505
0.0103594
-0.0176572
0.0107023
-0.0173791
0.0110427
-0.0171154
0.0113791
-0.0168655
0.0117103
-0.0166306
0.0120362
-0.0164147
0.0123604
-0.0162292
-0.0160952
0.0126935
0.000179784
0.0012026
0.00066264
-0.000333137
0.00136217
-0.00420989
0.00217207
-0.00895123
0.00299297
-0.0134455
0.00375444
-0.0170769
0.00442161
-0.0196555
0.00498885
-0.0212621
0.00546864
-0.0220995
0.00588114
-0.0223923
0.00624711
-0.0223337
0.00658419
-0.0220686
0.00690559
-0.0216952
0.00722037
-0.021275
0.00753421
-0.0208436
0.00785037
-0.0204204
0.00817046
-0.0200143
0.00849504
-0.0196289
0.00882402
-0.0192648
0.00915686
-0.0189211
0.00949273
-0.0185962
0.00983057
-0.0182883
0.0101691
-0.0179957
0.0105067
-0.0177168
0.0108417
-0.0174504
0.0111722
-0.0171959
0.0114961
-0.0169545
0.0118125
-0.0167311
0.0121244
-0.0165411
-0.0164138
0.0124429
0.000186681
0.00101592
0.000683142
-0.000829595
0.00139484
-0.00492159
0.00220878
-0.00976517
0.00302302
-0.0142597
0.00376858
-0.0178225
0.00441407
-0.020301
0.0049575
-0.0218055
0.00541407
-0.0225561
0.00580549
-0.0227838
0.00615311
-0.0226813
0.00647444
-0.0223899
0.00678232
-0.0220031
0.00708534
-0.021578
0.0073888
-0.0211471
0.00769563
-0.0207272
0.00800726
-0.0203259
0.00832417
-0.0199458
0.0086462
-0.0195869
0.00897283
-0.0192477
0.00930324
-0.0189266
0.00963637
-0.0186214
0.00997086
-0.0183302
0.0103051
-0.018051
0.0106369
-0.0177823
0.0109641
-0.0175231
0.0112836
-0.017274
0.0115931
-0.0170407
0.0118943
-0.0168423
-0.0167175
0.012198
0.000193486
0.000822435
0.000702609
-0.00133871
0.00142443
-0.00564341
0.00223958
-0.0105803
0.00304425
-0.0150644
0.00377148
-0.0185497
0.00439366
-0.0209232
0.00491245
-0.0223243
0.00534557
-0.0229892
0.00571608
-0.0231543
0.00604565
-0.0230109
0.00635157
-0.0226958
0.00664622
-0.0222977
0.00693771
-0.0218695
0.00723091
-0.0214403
0.00752853
-0.0210248
0.00783182
-0.0206292
0.00814119
-0.0202552
0.00845654
-0.0199022
0.00877739
-0.0195686
0.00910303
-0.0192522
0.00943247
-0.0189509
0.00976441
-0.0186621
0.0100972
-0.0183838
0.0104287
-0.0181137
0.0107559
-0.0178503
0.0110751
-0.0175933
0.011382
-0.0173476
0.0116754
-0.0171357
-0.0170065
0.0119645
0.000200179
0.000622256
0.000720952
-0.00185948
0.00145077
-0.00637323
0.00226431
-0.0113939
0.00305658
-0.0158567
0.00376324
-0.0192564
0.00436068
-0.0215206
0.00485414
-0.0228177
0.0052637
-0.0233988
0.00561347
-0.023504
0.00592527
-0.0233227
0.00621606
-0.0229866
0.00649768
-0.0225793
0.00677774
-0.0221495
0.00706073
-0.0217233
0.00734909
-0.0213132
0.007644
-0.0209241
0.00794586
-0.0205571
0.00825462
-0.020211
0.00856996
-0.0198839
0.00889135
-0.0195736
0.009218
-0.0192775
0.00954887
-0.018993
0.00988243
-0.0187173
0.0102165
-0.0184478
0.0105481
-0.0181818
0.0108723
-0.0179175
0.0111831
-0.0176583
0.011475
-0.0174275
-0.0172832
0.0117516
0.000206738
0.000415519
0.000738075
-0.00239082
0.00147371
-0.00710887
0.00228283
-0.012203
0.00305999
-0.0166338
0.00374401
-0.0199404
0.00431546
-0.0220921
0.00478306
-0.0232853
0.00516899
-0.0237847
0.00549821
-0.0238333
0.00579251
-0.023617
0.00606837
-0.0232625
0.00633706
-0.022848
0.00660568
-0.0224181
0.00687835
-0.021996
0.00715731
-0.0215921
0.00744364
-0.0212104
0.00773779
-0.0208512
0.00803983
-0.020513
0.00834965
-0.0201938
0.00866701
-0.019891
0.00899151
-0.019602
0.00932256
-0.019324
0.00965916
-0.0190539
0.00999956
-0.0187882
0.0103407
-0.018523
0.0106772
-0.018254
0.0110009
-0.017982
0.0113019
-0.0177286
-0.0175572
0.011576
0.000213148
0.000202371
0.000753892
-0.00293156
0.0014931
-0.00784807
0.002295
-0.0130049
0.00305449
-0.0173933
0.003714
-0.0205999
0.00425839
-0.0226365
0.00469971
-0.0237267
0.00506203
-0.0241471
0.0053709
-0.0241421
0.0056479
-0.023894
0.00590895
-0.0235236
0.00616471
-0.0231038
0.00642176
-0.0226752
0.00668389
-0.0222581
0.00695312
-0.0218614
0.0072305
-0.0214878
0.00751652
-0.0211372
0.00781141
-0.0208079
0.00811532
-0.0204977
0.00842836
-0.020204
0.0087507
-0.0199243
0.00908249
-0.0196558
0.0094238
-0.0193952
0.0097743
-0.0191387
0.0101324
-0.0188811
0.0104938
-0.0186153
0.0108473
-0.0183356
0.0111711
-0.0180524
-0.0178501
0.011464
0.000219409
-1.70374e-05
0.000768324
-0.00348048
0.00150879
-0.00858854
0.00230076
-0.0137969
0.00304017
-0.0181327
0.00367347
-0.0212332
0.00418989
-0.0231529
0.00460465
-0.0241414
0.00494341
-0.0244858
0.0052321
-0.0244308
0.00549195
-0.0241539
0.00573824
-0.0237698
0.00598097
-0.0233465
0.00622622
-0.0229204
0.00647743
-0.0225093
0.00673648
-0.0221204
0.00700434
-0.0217557
0.00728157
-0.0214144
0.00756856
-0.0210949
0.00786568
-0.0207948
0.00817344
-0.0205118
0.00849254
-0.0202434
0.00882401
-0.0199873
0.00916936
-0.0197406
0.00953071
-0.0195001
0.00991086
-0.0192613
0.0103131
-0.0190176
0.0107379
-0.0187604
0.0111614
-0.0184759
0.0114175
-0.0181062
0.0156978
-0.0291399
0.0286193
0.0160418
-0.0238796
0.0235356
0.0162635
-0.0202781
0.0200564
0.0164008
-0.0178542
0.0177169
0.0164746
-0.0158368
0.015763
0.0164996
-0.0138277
0.0138028
0.0164865
-0.0118269
0.0118399
0.0164438
-0.00989958
0.00994237
0.0163765
-0.00805932
0.00812657
0.0162874
-0.0063195
0.00640858
0.016179
-0.00468428
0.00479267
0.0160532
-0.00314259
0.00326845
0.0159115
-0.00168453
0.00182617
0.0157561
-0.000330499
0.000485961
0.0155895
0.000944263
-0.000777651
0.0154145
0.00212526
-0.00195036
0.0152314
0.00325504
-0.00307187
0.0150355
0.00434405
-0.0041482
0.014829
0.00527219
-0.00506564
0.0146097
0.00613043
-0.00591114
0.0143828
0.00687951
-0.00665261
0.0141462
0.00754124
-0.00730468
0.0139059
0.0080609
-0.00782058
0.0136522
0.00855159
-0.00829787
0.0133961
0.00891655
-0.00866049
0.0131301
0.00906472
-0.00879873
0.0128415
0.00985537
-0.00956676
0.0125672
0.00854336
-0.00826899
0.0122405
0.0110292
-0.0107026
0.00958646
-0.00924163
0.0157071
-0.0296196
0.0160368
-0.0242093
0.0162549
-0.0204962
0.0163942
-0.0179935
0.0164719
-0.0159145
0.0165021
-0.013858
0.016495
-0.0118197
0.0164574
-0.00986204
0.0163949
-0.00799686
0.0163112
-0.00623572
0.0162065
-0.00457956
0.0160834
-0.00301956
0.0159448
-0.00154588
0.0157908
-0.000176449
0.0156259
0.00110917
0.0154547
0.00229641
0.0152693
0.00344048
0.0150719
0.00454147
0.0148634
0.00548068
0.0146411
0.00635266
0.0144115
0.0071091
0.0141725
0.00778017
0.0139282
0.0083053
0.0136718
0.00880799
0.0134118
0.0091765
0.0131427
0.00933387
0.0128508
0.0101472
0.0125742
0.00882008
0.0122449
0.0113585
0.0099315
0.0157036
-0.030058
0.0160197
-0.0245254
0.0162344
-0.0207109
0.0163762
-0.0181352
0.0164587
-0.0159971
0.0164946
-0.0138938
0.0164937
-0.0118188
0.0164622
-0.00983054
0.0164051
-0.00793985
0.0163268
-0.00615735
0.0162265
-0.00447933
0.0161072
-0.00290017
0.0159716
-0.00141034
0.0158196
-2.44519e-05
0.015657
0.00127181
0.0154919
0.00246154
0.0153014
0.00363095
0.0151041
0.0047388
0.0148944
0.00569038
0.0146695
0.00657752
0.0144376
0.007341
0.0141965
0.00802128
0.0139489
0.00855294
0.0136899
0.00906693
0.0134268
0.00943965
0.0131548
0.00960582
0.01286
0.010442
0.0125815
0.0090986
0.01225
0.01169
0.0102762
0.015687
-0.0304552
0.0159904
-0.0248287
0.0162021
-0.0209227
0.0163468
-0.0182799
0.0164348
-0.0160851
0.016477
-0.0139359
0.0164827
-0.0118245
0.0164578
-0.0098056
0.0164071
-0.00788913
0.0163344
-0.00608467
0.0162392
-0.00438416
0.0161242
-0.00278512
0.015992
-0.0012782
0.0158429
0.000124719
0.0156829
0.00143182
0.0155233
0.00262107
0.0153302
0.00382407
0.0151323
0.00493671
0.0149217
0.00590096
0.0146949
0.00680433
0.0144613
0.00757463
0.0142181
0.00826452
0.0139681
0.00880289
0.0137065
0.00932858
0.0134411
0.00970498
0.0131663
0.00988064
0.0128693
0.010739
0.0125891
0.00937882
0.0122559
0.0120232
0.0106198
0.0156572
-0.030812
0.0159486
-0.0251201
0.0161578
-0.0211319
0.016306
-0.0184282
0.0164002
-0.0161793
0.0164492
-0.0139849
0.0164621
-0.0118374
0.0164444
-0.00978796
0.0164007
-0.00784542
0.016334
-0.00601794
0.0162446
-0.00429475
0.0161346
-0.00267514
0.0160062
-0.0011498
0.0158605
0.000270388
0.0157039
0.00158847
0.0155495
0.00277547
0.0153549
0.00401869
0.0151574
0.0051342
0.0149448
0.00611352
0.0147174
0.00703174
0.0144825
0.00780951
0.0142374
0.00850962
0.0139859
0.00905439
0.0137217
0.0095928
0.0134547
0.00997195
0.0131769
0.0101585
0.0128786
0.0110373
0.0125971
0.00966026
0.0122628
0.0123576
0.0109616
0.0156147
-0.0311302
0.0158941
-0.0253995
0.0161013
-0.0213391
0.0162538
-0.0185807
0.0163548
-0.0162803
0.0164111
-0.0140412
0.0164318
-0.0118581
0.016422
-0.00977817
0.0163858
-0.00780923
0.0163257
-0.00595787
0.0162426
-0.00421161
0.0161382
-0.00257072
0.0160142
-0.00102583
0.0158726
0.000411944
0.0157217
0.00173945
0.0155688
0.00292835
0.015375
0.00421241
0.0151784
0.00533087
0.0149646
0.00632734
0.0147368
0.00725947
0.0145012
0.00804512
0.0142548
0.00875607
0.0140021
0.00930708
0.013736
0.00985884
0.0134672
0.0102408
0.0131865
0.0104393
0.0128876
0.0113361
0.0126057
0.00994212
0.0122706
0.0126927
0.0113012
0.0155595
-0.0314127
0.0158267
-0.0256667
0.0160328
-0.0215452
0.0161902
-0.0187381
0.0162984
-0.0163885
0.0163628
-0.0141056
0.0163918
-0.0118871
0.0163904
-0.00977677
0.0163623
-0.00778108
0.0163095
-0.00590514
0.0162332
-0.00413531
0.0161349
-0.0024724
0.016016
-0.000906952
0.0158792
0.000548798
0.0157363
0.00188236
0.0155812
0.00308344
0.0153907
0.00440286
0.0151955
0.00552605
0.0149809
0.00654195
0.0147533
0.00748709
0.0145175
0.00828094
0.0142702
0.00900337
0.0140168
0.00956042
0.013749
0.0101267
0.0134784
0.0105113
0.0131956
0.0107221
0.0128964
0.0116354
0.0126146
0.0102238
0.0122791
0.0130283
0.0116382
0.0154916
-0.0316627
0.0157465
-0.0259215
0.0159521
-0.0217508
0.0161153
-0.0189013
0.0162312
-0.0165045
0.0163042
-0.0141786
0.0163422
-0.0119251
0.0163498
-0.00978433
0.0163302
-0.00776153
0.0162855
-0.00586041
0.0162166
-0.00406641
0.0161249
-0.00238072
0.0160117
-0.000793814
0.0158801
0.00068044
0.0157452
0.00201727
0.0155891
0.00323954
0.0154021
0.00458981
0.0152087
0.00571953
0.0149938
0.00675681
0.0147668
0.00771405
0.0145314
0.00851642
0.0142836
0.00925111
0.01403
0.00981402
0.0137603
0.0103964
0.0134886
0.0107831
0.0132044
0.0110063
0.012905
0.0119348
0.0126234
0.0105055
0.0122878
0.0133639
0.0119723
0.0154108
-0.0318843
0.0156534
-0.0261642
0.0158595
-0.0219569
0.0160291
-0.0190708
0.0161532
-0.0166286
0.0162354
-0.0142608
0.0162829
-0.0119725
0.0163
-0.0098014
0.0162895
-0.00775112
0.0162534
-0.0058243
0.0161925
-0.00400552
0.0161081
-0.00229626
0.0160013
-0.00068707
0.0158753
0.000806432
0.0157486
0.00214404
0.0155922
0.00339593
0.0154096
0.00477239
0.0152174
0.00591175
0.0150031
0.00697117
0.0147775
0.00793958
0.0145429
0.00875104
0.0142952
0.0094988
0.0140412
0.010068
0.0137701
0.0106675
0.0134977
0.0110555
0.0132124
0.0112915
0.0129134
0.0122337
0.012632
0.0107869
0.0122971
0.0136987
0.0123034
0.015317
-0.0320819
0.0155478
-0.026395
0.0157553
-0.0221643
0.0159319
-0.0192474
0.0160646
-0.0167614
0.0161564
-0.0143526
0.0162139
-0.01203
0.016241
-0.00982851
0.0162403
-0.00775041
0.0162134
-0.0057974
0.0161611
-0.00395322
0.0160845
-0.00221961
0.0159848
-0.000587372
0.0158649
0.000926256
0.0157465
0.00226248
0.0155904
0.00355204
0.0154123
0.00495051
0.0152221
0.00610198
0.015009
0.00718422
0.0147854
0.0081632
0.014552
0.00898441
0.0143047
0.00974608
0.0140504
0.0103224
0.0137784
0.0109395
0.0135055
0.0113284
0.0132199
0.0115771
0.0129215
0.0125321
0.0126407
0.0110678
0.0123072
0.0140322
0.0126314
0.0152103
-0.0322608
0.0154301
-0.0266148
0.0156399
-0.0223741
0.015824
-0.0194315
0.0159656
-0.016903
0.0160674
-0.0144545
0.0161354
-0.012098
0.016173
-0.00986615
0.0161825
-0.00775992
0.0161654
-0.00578029
0.0161223
-0.00391011
0.0160541
-0.00215137
0.0159621
-0.000495385
0.0158491
0.00103927
0.0157389
0.00237265
0.0155835
0.00370744
0.0154104
0.00512363
0.0152226
0.00628983
0.0150118
0.00739494
0.0147905
0.00838456
0.0145587
0.0092162
0.014312
0.0099928
0.0140578
0.0105765
0.0137852
0.0112121
0.0135122
0.0116014
0.0132266
0.0118627
0.0129293
0.0128294
0.0126493
0.0113478
0.0123177
0.0143637
0.0129558
0.0150911
-0.032427
0.0153012
-0.0268249
0.0155141
-0.022587
0.015706
-0.0196235
0.0158565
-0.0170535
0.0159685
-0.0145665
0.0160474
-0.0121768
0.016096
-0.00991478
0.0161163
-0.00778018
0.0161095
-0.00577351
0.0160761
-0.00387679
0.0160169
-0.00209214
0.0159333
-0.000411796
0.015828
0.00114463
0.0157257
0.00247493
0.0155713
0.00386182
0.0154042
0.00529077
0.0152191
0.00647487
0.0150114
0.00760268
0.0147928
0.00860317
0.0145628
0.00944616
0.0143169
0.0102387
0.0140632
0.0108303
0.0137902
0.0114851
0.0135178
0.0118738
0.0132326
0.0121479
0.0129369
0.0131251
0.0126576
0.0116271
0.0123286
0.0146928
0.013276
0.0149596
-0.0325875
0.0151622
-0.0270275
0.015379
-0.0228037
0.0155786
-0.0198231
0.0157379
-0.0172128
0.0158602
-0.0146887
0.0159502
-0.0122668
0.0160101
-0.00997476
0.0160416
-0.00781164
0.0160456
-0.00577756
0.0160226
-0.00385378
0.015973
-0.00204248
0.0158985
-0.000337309
0.0158019
0.00124122
0.0157064
0.00257042
0.0155534
0.00401479
0.0153937
0.00545049
0.0152118
0.00665674
0.0150077
0.00780686
0.0147921
0.00881869
0.0145643
0.00967401
0.0143197
0.0104832
0.0140664
0.0110836
0.0137937
0.0117578
0.0135223
0.0121453
0.0132376
0.0124326
0.012944
0.0134187
0.0126658
0.0119054
0.0123398
0.0150187
0.0135912
0.014817
-0.0327498
0.015015
-0.0272255
0.0152359
-0.0230247
0.0154429
-0.0200301
0.0156105
-0.0173805
0.0157428
-0.0148211
0.0158441
-0.0123681
0.0159157
-0.0100464
0.0159588
-0.00785468
0.0159741
-0.00579286
0.0159619
-0.00384159
0.0159223
-0.00200292
0.0158575
-0.000272498
0.0157716
0.00132708
0.015679
0.0026631
0.0155313
0.00416239
0.0153789
0.00560299
0.0152007
0.0068349
0.0150007
0.00800688
0.0147885
0.00903091
0.0145633
0.00989921
0.0143202
0.0107263
0.0140677
0.0113361
0.013796
0.0120295
0.0135256
0.0124156
0.0132416
0.0127166
0.0129505
0.0137098
0.0126736
0.0121823
0.0123513
0.015341
0.0139005
0.0146641
-0.0329227
0.0148618
-0.0274232
0.0150865
-0.0232494
0.0152998
-0.0202434
0.0154751
-0.0175557
0.0156172
-0.0149632
0.0157297
-0.0124806
0.0158132
-0.0101298
0.0158681
-0.00790958
0.015895
-0.00581977
0.015894
-0.00384063
0.015865
-0.00197393
0.0158104
-0.000217822
0.0157344
0.00140306
0.0156457
0.00275179
0.0155057
0.00430238
0.0153591
0.00574963
0.0151857
0.00700826
0.0149903
0.00820226
0.0147818
0.00923948
0.0145595
0.0101215
0.0143181