/*--------------------------------*- C++ -*----------------------------------*\
  =========                 |
  \\      /  F ield         | OpenFOAM: The Open Source CFD Toolbox
   \\    /   O peration     | Website:  https://openfoam.org
    \\  /    A nd           | Version:  7
     \\/     M anipulation  |
\*---------------------------------------------------------------------------*/
FoamFile
{
    version     2.0;
    format      ascii;
    class       volScalarField;
    location    "5.6";
    object      p;
}
// * * * * * * * * * * * * * * * * * * * * * * * * * * * * * * * * * * * * * //

dimensions      [0 2 -2 0 0 0 0];

internalField   nonuniform List<scalar> 
8000
(
0.259457
0.261854
0.263493
0.265346
0.267247
0.26918
0.271125
0.273062
0.274976
0.276852
0.278681
0.280455
0.28217
0.283822
0.285411
0.286936
0.288399
0.289803
0.291151
0.292439
0.258232
0.260655
0.262337
0.264238
0.26618
0.268143
0.270107
0.272052
0.273962
0.275824
0.27763
0.279372
0.281047
0.282653
0.284188
0.285656
0.287057
0.288394
0.289661
0.290895
0.256933
0.259416
0.261158
0.263117
0.265109
0.26711
0.2691
0.271058
0.272969
0.274821
0.276607
0.278321
0.279958
0.281518
0.283002
0.284412
0.285752
0.28702
0.288206
0.289379
0.255617
0.258175
0.259981
0.262004
0.26405
0.266093
0.268112
0.270086
0.272001
0.273847
0.275615
0.277301
0.278903
0.28042
0.281853
0.283205
0.284482
0.285682
0.286787
0.287889
0.25428
0.256924
0.2588
0.260891
0.262996
0.265085
0.267137
0.269131
0.271054
0.272896
0.27465
0.276311
0.277879
0.279354
0.280737
0.282033
0.283248
0.284378
0.285404
0.286424
0.252912
0.255654
0.257606
0.259773
0.261941
0.264081
0.26617
0.268189
0.270123
0.271964
0.273706
0.275345
0.276882
0.278318
0.279654
0.280895
0.282047
0.283109
0.284055
0.284984
0.251507
0.25436
0.256395
0.258644
0.260882
0.263078
0.265209
0.267255
0.269204
0.271048
0.27278
0.2744
0.275909
0.277308
0.278599
0.279786
0.280877
0.281871
0.282741
0.283568
0.25006
0.253037
0.255163
0.257502
0.259815
0.262071
0.264248
0.266326
0.268293
0.270141
0.271867
0.273471
0.274955
0.27632
0.277569
0.278706
0.279738
0.280666
0.281463
0.282175
0.248565
0.251682
0.253907
0.256341
0.258736
0.261058
0.263285
0.265397
0.267384
0.26924
0.270962
0.272553
0.274015
0.27535
0.276561
0.277651
0.278626
0.279493
0.280222
0.280809
0.247015
0.25029
0.252621
0.25516
0.257642
0.260034
0.262314
0.264464
0.266474
0.268338
0.27006
0.27164
0.273083
0.274392
0.275569
0.276617
0.27754
0.27835
0.27902
0.279472
0.245403
0.248856
0.251304
0.253954
0.25653
0.258997
0.261333
0.263523
0.265556
0.267432
0.269154
0.270726
0.272153
0.273439
0.274587
0.275599
0.276478
0.277238
0.27786
0.278169
0.243724
0.247379
0.249951
0.252721
0.255396
0.257942
0.260337
0.262567
0.264625
0.266513
0.268237
0.269803
0.271216
0.272483
0.273608
0.274591
0.275433
0.276156
0.276745
0.276909
0.241972
0.245853
0.24856
0.251459
0.254238
0.256866
0.259322
0.261593
0.263676
0.265577
0.267302
0.268861
0.270263
0.271514
0.272622
0.273585
0.274402
0.275102
0.275682
0.275702
0.240142
0.244276
0.247129
0.250164
0.253053
0.255766
0.258284
0.260596
0.262703
0.264615
0.26634
0.267892
0.269281
0.27052
0.271615
0.272568
0.273375
0.274073
0.274676
0.274566
0.23823
0.242646
0.245655
0.248834
0.251839
0.254638
0.257217
0.25957
0.2617
0.26362
0.265343
0.266884
0.268259
0.269485
0.270572
0.271525
0.272338
0.273063
0.273737
0.273528
0.236234
0.240963
0.244137
0.247469
0.250592
0.253479
0.25612
0.258512
0.260661
0.262585
0.2643
0.265826
0.267182
0.268391
0.269471
0.27043
0.271268
0.272055
0.272866
0.272621
0.234154
0.239225
0.242576
0.246068
0.249313
0.252288
0.254989
0.257416
0.259581
0.261503
0.263203
0.264705
0.266034
0.267218
0.268283
0.269249
0.270123
0.271006
0.272039
0.271875
0.231989
0.237436
0.240973
0.244631
0.248
0.251063
0.253822
0.256281
0.258456
0.260369
0.262045
0.263511
0.264799
0.265941
0.266976
0.267937
0.268846
0.269858
0.271258
0.271433
0.229746
0.235598
0.23933
0.243159
0.246654
0.249804
0.252617
0.255103
0.257281
0.259177
0.260817
0.262234
0.263459
0.264533
0.265504
0.266427
0.267356
0.268571
0.270698
0.271898
0.227433
0.233718
0.237651
0.241656
0.245276
0.24851
0.251374
0.253882
0.256056
0.257925
0.259518
0.260866
0.262003
0.262966
0.263803
0.264574
0.265372
0.266614
0.269311
0.271964
0.295257
0.299689
0.302954
0.306226
0.308907
0.311379
0.313552
0.315511
0.317259
0.318814
0.320184
0.321378
0.322403
0.323267
0.32398
0.324552
0.324993
0.325314
0.325525
0.325629
0.29386
0.298102
0.301368
0.304604
0.307275
0.309739
0.311912
0.313875
0.315628
0.317192
0.318573
0.319778
0.320815
0.321693
0.322418
0.323004
0.323457
0.323791
0.324011
0.324129
0.292435
0.296538
0.299781
0.302988
0.305644
0.3081
0.310271
0.312236
0.313996
0.315568
0.31696
0.318177
0.319227
0.320119
0.320858
0.321458
0.321924
0.322271
0.322501
0.322631
0.290975
0.294999
0.298195
0.30138
0.304016
0.306463
0.308631
0.310597
0.312363
0.313943
0.315346
0.316576
0.31764
0.318546
0.3193
0.319914
0.320393
0.320754
0.320994
0.321137
0.289466
0.293485
0.296607
0.299779
0.302392
0.304829
0.306992
0.308958
0.310728
0.312317
0.313731
0.314974
0.316053
0.316974
0.317743
0.318371
0.318865
0.319238
0.319489
0.319644
0.287898
0.291995
0.295016
0.298184
0.300772
0.303198
0.305355
0.30732
0.309094
0.310691
0.312116
0.313373
0.314467
0.315403
0.316188
0.316831
0.317339
0.317724
0.317986
0.318153
0.286258
0.290527
0.29342
0.296596
0.299155
0.30157
0.303719
0.305683
0.30746
0.309065
0.3105
0.311771
0.312881
0.313832
0.314633
0.315292
0.315813
0.316211
0.316484
0.316663
0.284533
0.289077
0.291818
0.295013
0.297542
0.299946
0.302087
0.304047
0.305826
0.307438
0.308885
0.310169
0.311294
0.312262
0.313079
0.313753
0.314289
0.314699
0.314982
0.315171
0.282712
0.287642
0.290209
0.293433
0.295933
0.298326
0.300457
0.302413
0.304193
0.305811
0.307269
0.308567
0.309708
0.310692
0.311525
0.312214
0.312765
0.313188
0.31348
0.313679
0.280786
0.286213
0.288594
0.291854
0.294327
0.296708
0.298828
0.300779
0.30256
0.304184
0.305652
0.306965
0.308122
0.309123
0.309971
0.310676
0.31124
0.311676
0.311978
0.312185
0.278751
0.284782
0.286972
0.290274
0.292723
0.295092
0.2972
0.299146
0.300926
0.302556
0.304035
0.305362
0.306535
0.307552
0.308417
0.309137
0.309715
0.310163
0.310474
0.310688
0.276607
0.283336
0.285343
0.28869
0.291119
0.293475
0.295572
0.297511
0.299292
0.300927
0.302417
0.303758
0.304947
0.305982
0.306863
0.307598
0.30819
0.308649
0.308968
0.309186
0.274365
0.281861
0.28371
0.287096
0.289512
0.291854
0.29394
0.295874
0.297655
0.299296
0.300798
0.302154
0.303359
0.30441
0.305307
0.306057
0.306662
0.307132
0.307458
0.30768
0.272045
0.280337
0.282072
0.285489
0.287899
0.290225
0.292302
0.294231
0.296014
0.297663
0.299177
0.300547
0.301769
0.302837
0.303751
0.304515
0.305133
0.305613
0.305945
0.306168
0.26969
0.278749
0.28043
0.283865
0.286275
0.288587
0.290657
0.292583
0.29437
0.296027
0.297554
0.29894
0.300178
0.301263
0.302193
0.302971
0.303601
0.30409
0.304427
0.304649
0.267371
0.277092
0.278792
0.282224
0.284642
0.286941
0.289007
0.290933
0.292724
0.294391
0.295931
0.297332
0.298586
0.299688
0.300634
0.301426
0.302067
0.302563
0.302903
0.303122
0.265162
0.275339
0.277146
0.280558
0.282994
0.285281
0.287347
0.289274
0.291072
0.29275
0.294304
0.295721
0.296993
0.298111
0.299072
0.299878
0.300528
0.30103
0.301373
0.301587
0.263075
0.273338
0.275376
0.278774
0.281251
0.283539
0.285615
0.287553
0.289367
0.291065
0.292641
0.294082
0.295376
0.296516
0.297497
0.298319
0.298981
0.29949
0.299835
0.300043
0.261495
0.27105
0.273399
0.276784
0.279337
0.281655
0.283767
0.28574
0.287591
0.289325
0.290937
0.292412
0.293738
0.294907
0.295911
0.296751
0.297427
0.297942
0.298289
0.298489
0.262494
0.269809
0.272073
0.275302
0.277894
0.28022
0.28235
0.284336
0.286193
0.287925
0.289528
0.29099
0.2923
0.29345
0.294436
0.295258
0.295916
0.296414
0.296745
0.296926
0.27221
0.272277
0.272856
0.275338
0.277702
0.279765
0.28163
0.283329
0.284874
0.286276
0.287544
0.288683
0.289693
0.290575
0.291329
0.291955
0.292454
0.292828
0.293076
0.293203
0.261967
0.262904
0.264321
0.267391
0.270217
0.272594
0.274697
0.276584
0.27827
0.279778
0.281125
0.282325
0.283385
0.284309
0.2851
0.285758
0.286286
0.286682
0.286946
0.287079
0.250544
0.25279
0.255167
0.258796
0.262085
0.264846
0.267258
0.269388
0.271262
0.272913
0.274368
0.275652
0.276778
0.277756
0.278593
0.27929
0.27985
0.280271
0.280553
0.280695
0.238933
0.24243
0.245656
0.249788
0.253554
0.256749
0.259521
0.261935
0.264026
0.265835
0.267404
0.268766
0.269946
0.270962
0.271826
0.272543
0.273117
0.27355
0.273839
0.273984
0.226472
0.231024
0.235071
0.239739
0.244027
0.247717
0.250917
0.253689
0.256068
0.258103
0.259844
0.261334
0.262609
0.263694
0.264608
0.265362
0.265964
0.266414
0.266715
0.266865
0.213233
0.218643
0.223442
0.228645
0.23346
0.237667
0.241337
0.244519
0.247247
0.249571
0.251545
0.253219
0.254637
0.255832
0.256829
0.257646
0.258293
0.258775
0.259096
0.259256
0.199387
0.205486
0.210938
0.216643
0.221963
0.226677
0.230825
0.234442
0.237557
0.240212
0.242464
0.244365
0.245965
0.247304
0.248413
0.249314
0.250023
0.250549
0.250897
0.25107
0.184985
0.191642
0.19765
0.203813
0.209601
0.214795
0.219408
0.223463
0.226978
0.229989
0.232548
0.234708
0.23652
0.23803
0.239274
0.240279
0.241065
0.241645
0.242027
0.242216
0.170038
0.177152
0.183636
0.190211
0.196421
0.202054
0.207103
0.211579
0.215489
0.218862
0.22174
0.224177
0.226222
0.227923
0.229321
0.230445
0.231319
0.231962
0.232383
0.232592
0.154553
0.162051
0.168947
0.175887
0.182469
0.188489
0.193931
0.198793
0.203075
0.206795
0.209989
0.212705
0.21499
0.216892
0.218453
0.219706
0.220679
0.22139
0.221856
0.222086
0.138552
0.146372
0.15363
0.160882
0.167779
0.17413
0.179908
0.185108
0.18972
0.193756
0.197243
0.200223
0.202741
0.204841
0.206566
0.207951
0.209024
0.209807
0.210319
0.210572
0.122058
0.13015
0.137721
0.145229
0.152377
0.158991
0.165042
0.170516
0.175402
0.179703
0.183443
0.186656
0.189383
0.191665
0.193543
0.195052
0.196221
0.197075
0.197632
0.197906
0.105171
0.113454
0.121274
0.128964
0.136284
0.143082
0.149325
0.154997
0.160084
0.164585
0.168519
0.171915
0.174809
0.17724
0.179247
0.180862
0.182115
0.18303
0.183627
0.18392
0.0879439
0.0963511
0.10434
0.112119
0.119515
0.126402
0.132742
0.138518
0.143714
0.14833
0.15238
0.155892
0.158896
0.161429
0.163526
0.165218
0.166534
0.167495
0.168122
0.16843
0.0707122
0.0790383
0.087046
0.0947708
0.102106
0.108952
0.115268
0.121029
0.126221
0.130844
0.13491
0.138445
0.141478
0.144043
0.146172
0.147894
0.149234
0.150214
0.150854
0.151171
0.0534109
0.0616096
0.0694706
0.0769752
0.0840845
0.0907304
0.0968666
0.102466
0.107515
0.112015
0.11598
0.119435
0.122407
0.124929
0.127029
0.128734
0.130065
0.131041
0.131679
0.131988
0.0371835
0.0446137
0.0519651
0.0589471
0.0655708
0.0717849
0.0775276
0.0827609
0.08747
0.0916573
0.0953391
0.0985404
0.101292
0.103624
0.105566
0.107141
0.108371
0.109271
0.109862
0.11017
0.0208174
0.0279246
0.0345388
0.0407086
0.0465474
0.0520508
0.0571563
0.0618187
0.06602
0.0697601
0.073053
0.0759224
0.0783972
0.080506
0.0822738
0.0837189
0.0848537
0.0856878
0.086233
0.086476
0.0081682
0.0129104
0.0183238
0.0231948
0.0277512
0.0320181
0.0359281
0.039441
0.0425522
0.0452742
0.0476302
0.049651
0.0513692
0.0528152
0.054014
0.0549847
0.05574
0.0562872
0.0566528
0.0569597
-0.0122591
-0.00549199
-0.000933432
0.00312288
0.00687989
0.0103273
0.013454
0.0162564
0.0187285
0.0208753
0.0227185
0.0242904
0.0256263
0.0267572
0.027705
0.0284826
0.029095
0.029539
0.0297776
0.029711
0.255706
0.246404
0.238094
0.228056
0.216912
0.204638
0.191443
0.177437
0.162734
0.147421
0.13161
0.115341
0.098827
0.0819563
0.0654708
0.0483465
0.0338451
0.0157555
0.010563
-0.0217277
0.256026
0.244363
0.236088
0.22561
0.214179
0.201674
0.188314
0.174197
0.159432
0.144098
0.128304
0.112085
0.0956757
0.0789165
0.062686
0.0456514
0.0318507
0.0132363
0.0109118
-0.0254952
0.256132
0.242436
0.233991
0.222955
0.211173
0.1984
0.184864
0.170643
0.155834
0.140504
0.124755
0.108611
0.0923194
0.0756967
0.0596995
0.0428193
0.0295951
0.010768
0.0104999
-0.0286143
0.254984
0.239935
0.231479
0.220052
0.208046
0.195097
0.181447
0.167162
0.152333
0.137019
0.121319
0.105255
0.0890816
0.0726024
0.0568271
0.0401223
0.0274008
0.00845357
0.00991464
-0.0315446
0.253281
0.237272
0.228813
0.217068
0.204888
0.191803
0.178064
0.163732
0.148893
0.1336
0.117951
0.101969
0.0859153
0.0695876
0.0540298
0.0375205
0.02525
0.00624493
0.00923965
-0.0344319
0.25124
0.234609
0.22608
0.214058
0.20172
0.188514
0.174701
0.16033
0.145485
0.130217
0.114622
0.0987278
0.0827961
0.0666288
0.0512846
0.0349921
0.0231216
0.00412466
0.00845747
-0.0373081
0.248882
0.23195
0.223288
0.211034
0.198554
0.185244
0.171366
0.156964
0.142118
0.126878
0.111341
0.0955372
0.0797311
0.0637327
0.0485984
0.0325428
0.0210218
0.00209561
0.00757158
-0.0402165
0.246257
0.229303
0.220453
0.208015
0.195408
0.182007
0.168073
0.153645
0.138802
0.123593
0.108115
0.0924064
0.0767292
0.0609075
0.0459807
0.0301809
0.0189624
0.000165582
0.00659405
-0.0432091
0.243429
0.226682
0.217598
0.205019
0.192297
0.178817
0.164833
0.150384
0.135545
0.120368
0.104952
0.0893418
0.073797
0.0581597
0.0434395
0.0279142
0.0169555
-0.00165306
0.00553845
-0.0463215
0.240463
0.224103
0.214748
0.202064
0.189237
0.175686
0.161656
0.147187
0.132353
0.11721
0.101858
0.0863491
0.0709406
0.0554949
0.0409827
0.025751
0.0150151
-0.00334074
0.00440927
-0.0496267
0.237419
0.221575
0.211927
0.199166
0.186241
0.172624
0.158551
0.144063
0.129234
0.114125
0.0988375
0.0834339
0.0681658
0.0529192
0.0386186
0.0237008
0.013159
-0.00486417
0.00315898
-0.053516
0.234358
0.21911
0.209158
0.19634
0.183322
0.169643
0.155526
0.141018
0.126194
0.111119
0.0958973
0.0806015
0.0654783
0.0504381
0.0363553
0.0217737
0.011412
-0.00616054
0.00169509
-0.0587322
0.231339
0.216722
0.206465
0.193601
0.180494
0.166751
0.152591
0.13806
0.123239
0.108197
0.0930423
0.0778572
0.0628833
0.0480569
0.0342005
0.0199792
0.00980454
-0.00713713
0.000154751
-0.0637787
0.228417
0.214423
0.20387
0.190962
0.177767
0.163959
0.149752
0.135195
0.120374
0.105364
0.0902775
0.0752053
0.0603853
0.0457798
0.03216
0.0183235
0.00836087
-0.007734
-0.000864388
-0.0599419
0.225646
0.21223
0.201394
0.188437
0.175152
0.161275
0.147015
0.132429
0.117605
0.102626
0.0876075
0.0726502
0.0579881
0.0436102
0.0302378
0.0168079
0.00708822
-0.00797776
-0.00145537
-0.0478731
0.223071
0.210158
0.199057
0.186039
0.17266
0.158706
0.144389
0.129768
0.114937
0.0999866
0.0850363
0.0701953
0.0556951
0.0415504
0.0284354
0.0154282
0.00597569
-0.00794812
-0.00196112
-0.0377949
0.220734
0.208226
0.196876
0.18378
0.170301
0.156262
0.141879
0.127216
0.112375
0.0974505
0.0825677
0.067844
0.0535087
0.0396016
0.0267523
0.0141768
0.0050045
-0.0077483
-0.00242146
-0.0305748
0.218672
0.20645
0.194868
0.181671
0.168082
0.153947
0.139491
0.12478
0.109923
0.0950213
0.080205
0.0655988
0.0514309
0.0377642
0.0251866
0.013045
0.00415878
-0.00747489
-0.00325212
-0.0245843
0.216915
0.204851
0.193047
0.179725
0.166014
0.151771
0.13723
0.122463
0.107585
0.0927023
0.0779508
0.0634619
0.0494629
0.0360378
0.0237359
0.0120246
0.0034254
-0.00716232
-0.00382216
-0.0198804
0.215488
0.203444
0.191427
0.17795
0.164103
0.149737
0.135102
0.120269
0.105364
0.0904963
0.0758073
0.061435
0.0476057
0.034422
0.0223975
0.0111083
0.00279767
-0.00678
-0.00423799
-0.0161761
0.214411
0.202248
0.190021
0.176357
0.162357
0.147852
0.13311
0.118203
0.103263
0.088406
0.0737768
0.0595196
0.0458599
0.0329161
0.0211687
0.0102901
0.00226705
-0.00640353
-0.00452062
-0.0132134
0.213702
0.201281
0.188839
0.174954
0.160782
0.146122
0.131259
0.116267
0.101284
0.0864327
0.0718599
0.0577156
0.0442244
0.0315177
0.0200453
0.00956334
0.00182189
-0.0060363
-0.00469181
-0.0108245
0.213372
0.200558
0.187893
0.173751
0.159386
0.144551
0.129553
0.114465
0.0994312
0.0845786
0.0700581
0.0560241
0.0426994
0.030226
0.0190252
0.00892404
0.00146006
-0.0056745
-0.00476752
-0.00888896
0.213431
0.200093
0.18719
0.172755
0.158175
0.143145
0.127996
0.112799
0.0977055
0.0828454
0.0683728
0.0544457
0.0412846
0.0290398
0.0181056
0.00836896
0.00117757
-0.00531589
-0.00476057
-0.00731281
0.213884
0.199902
0.186741
0.171974
0.157154
0.141908
0.126591
0.111272
0.0961091
0.0812346
0.0668047
0.0529806
0.0399793
0.0279576
0.017284
0.00789479
0.000969375
-0.00495753
-0.00468294
-0.00602244
0.214736
0.199996
0.186552
0.171417
0.156329
0.140844
0.125341
0.109886
0.0946438
0.0797472
0.0653545
0.0516288
0.0387828
0.0269778
0.016558
0.00749874
0.000830947
-0.00459661
-0.0045458
-0.0049605
0.215988
0.200389
0.186631
0.17109
0.155706
0.139958
0.12425
0.108644
0.093311
0.0783843
0.0640228
0.0503902
0.0376942
0.0260989
0.0159251
0.00717833
0.000758221
-0.00423072
-0.00435919
-0.00408227
0.217638
0.201093
0.186985
0.171002
0.15529
0.139254
0.12332
0.107548
0.092112
0.0771465
0.0628097
0.0492644
0.0367126
0.0253197
0.0153827
0.00693118
0.000747386
-0.00385794
-0.00413193
-0.0033527
0.219686
0.202118
0.187618
0.17116
0.155086
0.138736
0.122553
0.106598
0.0910475
0.0760342
0.0617151
0.0482505
0.035837
0.0246382
0.0149287
0.00675488
0.000794778
-0.00347687
-0.00387166
-0.00274413
0.222135
0.203473
0.188537
0.171571
0.155098
0.138407
0.121952
0.105798
0.0901183
0.0750475
0.0607382
0.0473481
0.0350661
0.0240525
0.0145605
0.00664697
0.000896834
-0.00308662
-0.0035849
-0.00223459
0.224989
0.205165
0.189743
0.172242
0.155331
0.13827
0.121519
0.105146
0.0893246
0.0741859
0.059878
0.0465566
0.0343978
0.0235606
0.0142755
0.00660484
0.00105007
-0.00268671
-0.00327711
-0.00180655
0.228182
0.207231
0.191244
0.173177
0.155789
0.138328
0.121256
0.104646
0.0886668
0.0734492
0.0591355
0.0458723
0.0338307
0.0231601
0.0140709
0.00662573
0.00125105
-0.00227704
-0.00295281
-0.00144583
0.231746
0.209675
0.193044
0.174388
0.156479
0.138586
0.121166
0.104299
0.0881464
0.0728376
0.0585072
0.0452954
0.0333623
0.0228485
0.0139435
0.00670677
0.00149644
-0.00185774
-0.00261565
-0.00114086
0.235671
0.212519
0.19516
0.175884
0.15741
0.139054
0.121257
0.104108
0.0877644
0.0723516
0.0579944
0.044825
0.0329914
0.0226237
0.0138909
0.00684543
0.00178332
-0.00142892
-0.00226839
-0.000882038
0.239932
0.215765
0.197578
0.177653
0.158574
0.139724
0.121525
0.104073
0.0875225
0.0719929
0.0575988
0.0444622
0.0327186
0.0224859
0.0139121
0.00704037
0.00210971
-0.000990282
-0.00191285
-0.000661201
0.24444
0.219336
0.200218
0.179631
0.159923
0.140563
0.121943
0.104175
0.0874059
0.0717504
0.057312
0.0442011
0.0325395
0.0224315
0.0140041
0.00728919
0.00247338
-0.000541725
-0.00155031
-0.000471319
0.249107
0.223237
0.203112
0.181844
0.161479
0.141579
0.122507
0.104394
0.0873851
0.0715886
0.0570967
0.0440059
0.0324223
0.0224341
0.0141465
0.00757743
0.0028647
-8.7214e-05
-0.00118344
-0.000306266
0.254262
0.228103
0.206837
0.184763
0.163613
0.143047
0.123406
0.104849
0.087523
0.0715285
0.0569451
0.0438512
0.0323328
0.0224582
0.014307
0.00787946
0.00326578
0.00036408
-0.000816751
-0.000160581
0.260201
0.234452
0.211836
0.188787
0.166695
0.145327
0.124994
0.105887
0.088151
0.0718782
0.0571323
0.0439712
0.0324592
0.0226455
0.0145847
0.00825939
0.00371371
0.000832553
-0.000439331
-2.89508e-05
0.263181
0.238314
0.214898
0.191361
0.168803
0.147102
0.126507
0.10721
0.0893398
0.0729726
0.0581574
0.0449395
0.0333749
0.023512
0.0154011
0.00902929
0.00441271
0.00143443
6.29429e-06
9.32726e-05
0.257875
0.236224
0.213856
0.191004
0.169002
0.147996
0.128103
0.109473
0.0921988
0.0763177
0.0618448
0.0487984
0.03722
0.0271724
0.0187277
0.0119302
0.00679298
0.00325369
0.0012208
0.000375543
0.257751
0.235291
0.211382
0.187145
0.164005
0.142189
0.121846
0.103132
0.0861214
0.0708216
0.0571996
0.0452057
0.0347887
0.0259026
0.0185029
0.0125325
0.00791102
0.00452815
0.00224305
0.000722849
0.255177
0.23253
0.207703
0.182824
0.159295
0.137348
0.11715
0.098821
0.0823839
0.0677935
0.0549686
0.043811
0.0342168
0.0260806
0.0192958
0.013748
0.0093097
0.00584113
0.00317962
0.00104159
0.251567
0.229157
0.203687
0.178479
0.154891
0.133139
0.113379
0.0956811
0.0800025
0.0662344
0.0542356
0.0438528
0.0349316
0.0273227
0.0208848
0.0154815
0.0109772
0.00723458
0.00409985
0.00134555
0.248336
0.225131
0.199701
0.174576
0.151251
0.12997
0.110846
0.0938825
0.0789757
0.0659627
0.0546571
0.0448687
0.0364129
0.0291174
0.0228257
0.017396
0.0126967
0.00860184
0.00497486
0.00163527
0.245326
0.22172
0.196394
0.171635
0.148829
0.128197
0.109799
0.0935757
0.0793675
0.0669718
0.056174
0.046765
0.0385503
0.0313548
0.025024
0.0194229
0.0144302
0.00993226
0.00580868
0.00191298
0.24317
0.219422
0.194307
0.170105
0.147957
0.128031
0.110335
0.0947513
0.0810869
0.0691171
0.0586166
0.049374
0.041199
0.033925
0.0274088
0.0215269
0.0161697
0.0112342
0.00661266
0.00218157
0.242362
0.218617
0.193828
0.170272
0.1488
0.129523
0.1124
0.0972818
0.0839566
0.0721972
0.0617831
0.0525128
0.0442087
0.0367179
0.0299102
0.0236729
0.0179054
0.0125123
0.00739447
0.00244311
0.243195
0.219543
0.195143
0.172223
0.15134
0.132564
0.115826
0.10096
0.0877567
0.0760005
0.0654856
0.0560269
0.0474625
0.0396535
0.0324804
0.0258384
0.0196321
0.0137704
0.00815927
0.00269901
0.245762
0.222253
0.198243
0.175861
0.155407
0.136939
0.120371
0.105543
0.0922629
0.0803323
0.0695658
0.059796
0.050876
0.042678
0.0350897
0.0280107
0.0213478
0.0150116
0.00891055
0.00295027
0.249978
0.226621
0.202949
0.180955
0.16074
0.142374
0.125773
0.110796
0.097273
0.0850288
0.0738981
0.0637297
0.0543882
0.0457535
0.0377172
0.0301804
0.0230502
0.0162369
0.00964996
0.00319741
0.255614
0.232388
0.208972
0.187193
0.167034
0.148586
0.131782
0.116507
0.102616
0.0899572
0.0783838
0.0677573
0.0579508
0.0488484
0.0403435
0.0323365
0.0247337
0.0174442
0.0103768
0.00344024
0.262342
0.239206
0.215954
0.194234
0.173973
0.155299
0.138164
0.122485
0.10814
0.0950016
0.0829353
0.0718138
0.0615159
0.0519282
0.0429438
0.0344619
0.0263868
0.0186263
0.0110873
0.00367757
0.269765
0.246674
0.223503
0.201718
0.181245
0.162244
0.144696
0.128547
0.1137
0.100044
0.0874586
0.0758246
0.0650246
0.0549462
0.0454818
0.036529
0.0279899
0.0197699
0.0117738
0.00390693
0.277436
0.254354
0.231206
0.209274
0.188522
0.169141
0.151141
0.134494
0.119127
0.104945
0.0918376
0.0796929
0.0683967
0.0578369
0.0479052
0.0384969
0.0295122
0.0208539
0.0124238
0.00412421
0.284883
0.261787
0.238627
0.216507
0.195453
0.175681
0.157228
0.140093
0.124221
0.109531
0.0959242
0.0832931
0.0715263
0.0605126
0.0501424
0.0403093
0.0309113
0.0218487
0.01302
0.00432359
0.291618
0.268502
0.245315
0.223002
0.201661
0.181525
0.162657
0.145076
0.128746
0.113597
0.0995399
0.0864718
0.0742838
0.0628651
0.0521053
0.0418966
0.0321347
0.0227174
0.0135404
0.00449772
0.297174
0.27404
0.250825
0.228344
0.206762
0.186321
0.167107
0.149156
0.132446
0.116919
0.102489
0.0890609
0.0765263
0.0647752
0.0536966
0.0431814
0.0331237
0.0234192
0.0139606
0.00463843
0.301141
0.277995
0.254759
0.232157
0.210401
0.18974
0.170278
0.152063
0.13508
0.119281
0.104585
0.0908987
0.0781163
0.0661279
0.0548222
0.0440892
0.033822
0.0239145
0.014257
0.00473759
0.303204
0.280043
0.256802
0.234135
0.21229
0.191515
0.171924
0.15357
0.136446
0.120505
0.10567
0.0918497
0.0789384
0.0668268
0.0554034
0.0445577
0.0341822
0.0241699
0.0144096
0.00478805
0.281397
0.282052
0.280253
0.277613
0.274552
0.271708
0.269498
0.26827
0.268307
0.269774
0.2727
0.276982
0.282389
0.288587
0.295164
0.301666
0.307618
0.31257
0.316123
0.31801
0.287662
0.28844
0.28674
0.284258
0.28142
0.278792
0.276792
0.27573
0.275865
0.277349
0.280216
0.284372
0.289606
0.295599
0.301959
0.308248
0.314008
0.318808
0.322262
0.324134
0.293059
0.293221
0.291309
0.288712
0.285896
0.28337
0.281531
0.280679
0.281054
0.282784
0.285875
0.290214
0.295573
0.301634
0.308009
0.314273
0.319988
0.324742
0.328162
0.330045
0.298781
0.298327
0.296162
0.293534
0.290723
0.288264
0.286532
0.285819
0.286351
0.288241
0.291482
0.295943
0.301389
0.307498
0.313885
0.320134
0.325819
0.330542
0.333939
0.335834
0.304607
0.303613
0.301337
0.298667
0.295918
0.293565
0.291963
0.291386
0.292047
0.294048
0.29737
0.301881
0.307343
0.313436
0.319783
0.325976
0.331599
0.336269
0.339626
0.34152
0.310376
0.308845
0.306477
0.303788
0.301134
0.298918
0.29747
0.297047
0.297843
0.299948
0.303337
0.307874
0.313324
0.319373
0.325652
0.331763
0.337302
0.341899
0.345203
0.347083
0.316061
0.314004
0.311539
0.308846
0.306303
0.304236
0.302952
0.302688
0.30362
0.305824
0.309271
0.313822
0.319247
0.325237
0.331433
0.337449
0.342892
0.347406
0.350647
0.352504
0.321631
0.319051
0.316544
0.313858
0.311436
0.309525
0.30841
0.308304
0.309365
0.311659
0.315151
0.319702
0.325086
0.331004
0.337105
0.343014
0.348351
0.352773
0.355944
0.357769
0.327048
0.324031
0.321481
0.318812
0.31652
0.314772
0.313831
0.313881
0.315065
0.317438
0.320962
0.325499
0.330827
0.336658
0.342651
0.348443
0.353665
0.357987
0.361082
0.362868
0.332293
0.3289
0.326322
0.323686
0.321531
0.319951
0.319184
0.31939
0.320692
0.323135
0.32668
0.33119
0.33645
0.342182
0.348056
0.35372
0.358819
0.363034
0.366049
0.367788
0.33734
0.333622
0.331041
0.328456
0.326445
0.325036
0.324444
0.324801
0.326216
0.328722
0.332277
0.33675
0.341933
0.347555
0.353301
0.358831
0.3638
0.367903
0.370832
0.372519
0.341969
0.33818
0.335617
0.333104
0.331241
0.330004
0.329585
0.330089
0.331611
0.334173
0.337731
0.342158
0.347254
0.352759
0.358369
0.363758
0.368593
0.372579
0.375421
0.377052
0.346521
0.342569
0.340031
0.337609
0.335898
0.334833
0.334584
0.33523
0.336852
0.339464
0.343018
0.347392
0.352395
0.357776
0.363246
0.368489
0.373185
0.377053
0.379805
0.381376
0.350779
0.346769
0.344265
0.341954
0.340398
0.339505
0.33942
0.340204
0.34192
0.344575
0.348119
0.352434
0.357338
0.362591
0.367916
0.373011
0.377567
0.381313
0.383976
0.385484
0.354736
0.350762
0.348304
0.346121
0.344723
0.344
0.344076
0.34499
0.346795
0.349487
0.353015
0.357268
0.362069
0.367191
0.372369
0.377313
0.381729
0.385354
0.387926
0.389371
0.358403
0.354538
0.352134
0.350098
0.348858
0.348304
0.348535
0.349574
0.35146
0.354185
0.357694
0.36188
0.366576
0.371565
0.376594
0.381388
0.385663
0.389167
0.39165
0.393031
0.361776
0.35809
0.355747
0.353873
0.352792
0.352405
0.352785
0.353942
0.355905
0.358656
0.362142
0.366258
0.370848
0.375704
0.380585
0.385229
0.389365
0.392749
0.395143
0.396463
0.364857
0.361411
0.359136
0.357437
0.356516
0.356293
0.356815
0.358085
0.360117
0.362891
0.366351
0.370396
0.374878
0.379601
0.384336
0.388832
0.39283
0.396097
0.398405
0.399664
0.367652
0.364498
0.3623
0.360785
0.360023
0.359961
0.36062
0.361996
0.364092
0.366883
0.370315
0.374288
0.378664
0.383255
0.387845
0.392196
0.396059
0.39921
0.401435
0.402636
0.370169
0.367351
0.365237
0.363914
0.363311
0.363406
0.364196
0.365671
0.367826
0.370631
0.374031
0.377932
0.382202
0.386664
0.391112
0.39532
0.399052
0.402092
0.404236
0.40538
0.372421
0.36997
0.367952
0.366826
0.36638
0.366627
0.367542
0.369111
0.371318
0.374133
0.377501
0.38133
0.385495
0.38983
0.394139
0.398209
0.401812
0.404744
0.40681
0.407902
0.37442
0.372357
0.370445
0.369519
0.369228
0.369625
0.370658
0.372313
0.374569
0.377391
0.380725
0.384482
0.388545
0.392756
0.396931
0.400865
0.404345
0.407172
0.409163
0.410206
0.376182
0.374518
0.372724
0.371999
0.371862
0.372402
0.373547
0.375284
0.377583
0.380409
0.383708
0.387396
0.391358
0.395449
0.399493
0.403297
0.406657
0.409384
0.411302
0.4123
0.377724
0.376459
0.374798
0.374272
0.374286
0.374964
0.376216
0.378028
0.380366
0.383195
0.386458
0.390077
0.393943
0.397917
0.401835
0.405513
0.408757
0.411386
0.413236
0.414192
0.379065
0.378189
0.376675
0.376344
0.376508
0.377318
0.378671
0.380553
0.382927
0.385755
0.388984
0.392535
0.396307
0.400169
0.403965
0.407521
0.410654
0.41319
0.414974
0.41589
0.380223
0.379714
0.378364
0.378224
0.378536
0.379472
0.380921
0.382867
0.385273
0.3881
0.391294
0.39478
0.398462
0.402215
0.405893
0.409332
0.412358
0.414805
0.416526
0.417406
0.381215
0.381047
0.379878
0.379921
0.380379
0.381436
0.382974
0.384981
0.387415
0.390239
0.393398
0.396822
0.400418
0.404067
0.407632
0.410958
0.413881
0.416243
0.417903
0.418749
0.382059
0.382196
0.381226
0.381446
0.382048
0.383218
0.384841
0.386903
0.389363
0.392183
0.395309
0.398673
0.402186
0.405736
0.409193
0.412411
0.415234
0.417514
0.419116
0.419931
0.382772
0.383174
0.38242
0.382809
0.383551
0.384829
0.386531
0.388644
0.391128
0.393944
0.397038
0.400345
0.403778
0.407233
0.410587
0.413701
0.41643
0.41863
0.420176
0.420963
0.383369
0.383993
0.383472
0.384022
0.3849
0.386279
0.388054
0.390215
0.39272
0.395531
0.398595
0.401848
0.405206
0.408571
0.411826
0.414842
0.417479
0.419603
0.421096
0.421855
0.383862
0.384665
0.384393
0.385095
0.386105
0.387577
0.389421
0.391625
0.394151
0.396957
0.399993
0.403195
0.406483
0.409762
0.412923
0.415844
0.418393
0.420445
0.421885
0.422619
0.384263
0.385204
0.385194
0.386039
0.387173
0.388732
0.39064
0.392885
0.395429
0.398232
0.401242
0.404396
0.407618
0.410817
0.413889
0.416719
0.419184
0.421165
0.422556
0.423264
0.384583
0.385626
0.385885
0.386864
0.388115
0.389753
0.39172
0.394003
0.396566
0.399366
0.402353
0.405463
0.408623
0.411746
0.414734
0.417478
0.419862
0.421776
0.423118
0.423802
0.384827
0.385944
0.386475
0.387578
0.388936
0.390648
0.392669
0.394989
0.397569
0.400369
0.403335
0.406405
0.409508
0.41256
0.415469
0.41813
0.420438
0.422286
0.423581
0.424242
0.385001
0.386175
0.386972
0.38819
0.389645
0.391423
0.393496
0.395851
0.39845
0.40125
0.404199
0.407233
0.410283
0.41327
0.416103
0.418687
0.42092
0.422706
0.423955
0.424593
0.385109
0.386338
0.387385
0.38871
0.390253
0.392094
0.394215
0.396604
0.399221
0.402023
0.404956
0.407958
0.41096
0.413885
0.416647
0.419157
0.42132
0.423044
0.424248
0.424863
0.38516
0.38645
0.387719
0.389141
0.390765
0.392663
0.394831
0.397251
0.399887
0.402693
0.405613
0.408586
0.411545
0.414413
0.417109
0.419548
0.421643
0.423308
0.424469
0.425061
0.385134
0.386473
0.387922
0.38943
0.391125
0.393077
0.395288
0.397743
0.400402
0.403219
0.406137
0.409093
0.412019
0.414842
0.417482
0.41986
0.421893
0.423504
0.424623
0.425193
0.384916
0.386334
0.387942
0.389541
0.3913
0.393302
0.395556
0.398047
0.400736
0.403574
0.406502
0.409456
0.412367
0.41516
0.417759
0.420088
0.422071
0.423635
0.424717
0.425268