/*--------------------------------*- C++ -*----------------------------------*\
  =========                 |
  \\      /  F ield         | OpenFOAM: The Open Source CFD Toolbox
   \\    /   O peration     | Website:  https://openfoam.org
    \\  /    A nd           | Version:  7
     \\/     M anipulation  |
\*---------------------------------------------------------------------------*/
FoamFile
{
    version     2.0;
    format      ascii;
    class       volVectorField;
    location    "5.6";
    object      U;
}
// * * * * * * * * * * * * * * * * * * * * * * * * * * * * * * * * * * * * * //

dimensions      [0 1 -1 0 0 0 0];

internalField   nonuniform List<vector> 
2000
(
(-0.00147584 0.0323321 -6.79792e-21)
(0.00279103 0.0946517 0)
(0.0147342 0.14829 0)
(0.030481 0.191998 -3.39593e-20)
(0.0475746 0.224892 1.1028e-20)
(0.0641484 0.247197 3.98499e-22)
(0.0791497 0.260269 -1.90015e-20)
(0.0920974 0.266089 0)
(0.102873 0.266842 0)
(0.111863 0.264639 0)
(-0.00487469 0.031012 0)
(-0.00748174 0.0891282 -2.61576e-20)
(-0.00214033 0.138472 2.41207e-20)
(0.00857563 0.178801 4.54283e-20)
(0.0223971 0.209652 0)
(0.0374181 0.231195 4.0711e-20)
(0.0523541 0.244522 -3.78561e-20)
(0.0664014 0.251323 0)
(0.0790462 0.253546 6.90028e-20)
(0.0900366 0.253149 -1.31278e-19)
(-0.00826464 0.0303814 0)
(-0.0171117 0.0843441 2.08664e-19)
(-0.0176202 0.128956 0)
(-0.0114135 0.165196 1.81744e-19)
(-0.000648788 0.193148 0)
(0.0127901 0.213046 -1.608e-19)
(0.0275091 0.225815 0)
(0.0425169 0.232913 1.44777e-19)
(0.0570358 0.236087 -1.35588e-19)
(0.0701604 0.237224 -1.29769e-19)
(-0.0117543 0.0303612 -5.48472e-20)
(-0.0261023 0.0802933 -1.04098e-19)
(-0.0314404 0.119956 -4.83738e-20)
(-0.0288958 0.151645 -9.01461e-20)
(-0.0206261 0.176056 -8.46112e-20)
(-0.00848355 0.193548 7.99257e-20)
(0.00611317 0.204949 7.52071e-20)
(0.0220968 0.211532 -1.14399e-21)
(0.0385671 0.214882 1.34753e-19)
(0.0539888 0.216911 1.29821e-19)
(-0.0153882 0.0308102 -5.4824e-20)
(-0.034323 0.0768829 -1.05035e-19)
(-0.0431488 0.111623 -1.95851e-19)
(-0.043032 0.138642 9.03076e-20)
(-0.0362484 0.159202 0)
(-0.0246647 0.173806 0)
(-0.0096897 0.183228 -1.51657e-19)
(0.00758223 0.188573 -1.43008e-19)
(0.0262408 0.191256 1.33857e-19)
(0.0442564 0.193229 3.84765e-19)
(-0.0191337 0.0315085 5.49511e-20)
(-0.0415089 0.0739063 5.29043e-20)
(-0.0521032 0.104027 -2.91835e-19)
(-0.0527234 0.126683 4.54932e-19)
(-0.0458601 0.143525 -8.44995e-20)
(-0.0334796 0.155233 0)
(-0.0170219 0.162527 0)
(0.00233802 0.16633 7.06609e-19)
(0.0236813 0.167827 -6.66669e-19)
(0.0448991 0.168823 1.27711e-19)
(-0.022877 0.0321694 4.38094e-19)
(-0.0472745 0.0710531 0)
(-0.0575465 0.0971746 3.89661e-19)
(-0.0567127 0.116169 -3.63456e-19)
(-0.0476196 0.129954 0)
(-0.0324098 0.139378 1.59478e-19)
(-0.0127078 0.145087 -4.44844e-19)
(0.0100699 0.1478 -5.62e-19)
(0.0347815 0.148382 2.62931e-19)
(0.0601047 0.148181 2.52111e-19)
(-0.0264338 0.0324808 -8.75081e-19)
(-0.0511403 0.0679383 -1.05054e-19)
(-0.058718 0.0909279 -1.94393e-19)
(-0.0538289 0.107297 -4.52397e-19)
(-0.0398736 0.119215 -1.69685e-19)
(-0.0193389 0.127598 -1.57246e-19)
(0.00572827 0.133008 2.84801e-21)
(0.0334449 0.135977 0)
(0.0620292 0.136924 0)
(0.0920025 0.13687 -2.43455e-21)
(-0.029559 0.0321439 4.36994e-19)
(-0.0525994 0.0641821 -4.17041e-19)
(-0.0548968 0.085017 2.91477e-19)
(-0.0431756 0.100071 6.3369e-19)
(-0.021568 0.111674 -1.67631e-19)
(0.00681081 0.120698 1.59398e-19)
(0.0391855 0.127613 1.4781e-19)
(0.0729277 0.132848 0)
(0.105359 0.136248 0)
(0.13861 0.139789 -1.5708e-21)
(-0.0319293 0.0309231 -5.42805e-20)
(-0.051144 0.059531 5.21724e-19)
(-0.045445 0.0791923 -9.64832e-20)
(-0.0241638 0.0943871 0)
(0.00760767 0.10737 0)
(0.0458208 0.118816 3.11854e-19)
(0.0867873 0.129026 0)
(0.126996 0.138404 -2.69054e-19)
(0.163152 0.146294 -7.64746e-22)
(0.192777 0.160345 2.36618e-19)
(0.123971 0.257445 5.0571e-21)
(0.135927 0.253896 -5.1351e-21)
(0.128466 0.256081 -5.27906e-21)
(0.127516 0.259184 -5.39945e-21)
(0.0952479 0.262773 -5.53949e-21)
(0.100073 0.270396 -4.75833e-24)
(0.0493161 0.27187 2.8087e-21)
(0.0676319 0.282121 8.63208e-21)
(0.00377295 0.281148 0)
(0.0371687 0.300964 -5.88823e-21)
(0.11006 0.250712 1.95977e-20)
(0.128224 0.251198 -2.07588e-20)
(0.125935 0.256993 3.67013e-20)
(0.129166 0.262683 5.40854e-21)
(0.0985576 0.267754 1.08798e-20)
(0.104229 0.276188 1.66889e-20)
(0.0536461 0.277928 -5.65971e-21)
(0.0706467 0.288275 -5.74789e-21)
(0.00713649 0.286636 1.15075e-20)
(0.036724 0.307056 5.8746e-21)
(0.0982757 0.241408 0)
(0.122404 0.246492 -2.04592e-20)
(0.124516 0.256336 -1.05287e-20)
(0.131379 0.265162 0)
(0.102092 0.272136 -3.27236e-20)
(0.108559 0.28168 1.08766e-20)
(0.0580597 0.284005 1.1026e-20)
(0.0738262 0.294483 3.3849e-20)
(0.0105209 0.292569 -1.14701e-20)
(0.0363019 0.31352 2.30193e-20)
(0.0894929 0.229306 0)
(0.118812 0.239797 2.06341e-20)
(0.124495 0.254263 0)
(0.134324 0.266743 4.27426e-20)
(0.105907 0.275918 -4.29589e-20)
(0.113009 0.286874 -2.19594e-20)
(0.0624579 0.290052 -1.38846e-22)
(0.0770105 0.300739 -3.35892e-20)
(0.0137564 0.298913 -5.61948e-21)
(0.0358974 0.32034 -2.85468e-20)
(0.0849649 0.214582 1.84279e-21)
(0.11772 0.231174 -6.04167e-20)
(0.126021 0.25092 5.27733e-22)
(0.138122 0.267544 -4.21593e-20)
(0.11008 0.279138 0)
(0.117605 0.291815 -2.17856e-20)
(0.0668267 0.296054 -1.29601e-22)
(0.0801384 0.307059 4.42455e-20)
(0.0167624 0.305618 5.5634e-21)
(0.0355189 0.327413 -5.58523e-21)
(0.086689 0.198119 -1.60521e-19)
(0.119639 0.220871 1.02457e-19)
(0.129227 0.246436 4.21195e-20)
(0.142863 0.267623 -4.20877e-20)
(0.1147 0.281797 -2.12253e-20)
(0.122421 0.296489 0)
(0.0712179 0.30195 -4.32887e-20)
(0.0832388 0.313436 2.16099e-20)
(0.0195283 0.312629 2.18297e-20)
(0.0351576 0.334855 2.18535e-20)
(0.0972776 0.181693 -2.00019e-20)
(0.125539 0.209516 0)
(0.134343 0.241022 0)
(0.148605 0.267138 0)
(0.119823 0.284045 -2.14006e-20)
(0.127503 0.301043 4.25573e-20)
(0.0756519 0.307817 4.30098e-20)
(0.0863468 0.319942 -6.44074e-20)
(0.022101 0.319878 1.07493e-20)
(0.0348915 0.342089 -3.22973e-20)
(0.118952 0.167791 1.21654e-19)
(0.136807 0.198182 8.48709e-20)
(0.141856 0.234786 -8.40645e-20)
(0.155556 0.265856 8.51827e-20)
(0.125582 0.285534 -1.05481e-19)
(0.133018 0.30515 0)
(0.0803232 0.313377 -2.10689e-20)
(0.0896363 0.326437 2.0033e-22)
(0.0245099 0.3274 -2.09439e-20)
(0.0345677 0.350683 -2.08834e-20)
(0.15176 0.158466 -1.02762e-19)
(0.154476 0.188819 0)
(0.151918 0.229112 -9.64509e-20)
(0.163484 0.265065 1.70055e-19)
(0.131789 0.287407 -6.29899e-20)
(0.138657 0.309697 -1.04937e-20)
(0.0848287 0.319237 2.10231e-20)
(0.0928701 0.333329 7.48813e-23)
(0.0268823 0.334865 3.09635e-20)
(0.03469 0.355985 3.07599e-20)
(0.19701 0.155025 -8.53159e-20)
(0.183462 0.178296 8.42472e-20)
(0.167878 0.219632 1.0703e-20)
(0.174215 0.260655 0)
(0.139492 0.286251 0)
(0.145717 0.312301 1.03052e-20)
(0.0906702 0.323679 4.06287e-20)
(0.0971793 0.339537 -3.98416e-20)
(0.0293109 0.343294 -9.87656e-21)
(0.0340823 0.371185 9.69657e-21)
(0.318884 0.185698 0)
(0.264965 0.196729 0)
(0.219712 0.227626 0)
(0.205062 0.270105 0)
(0.158107 0.297682 0)
(0.15766 0.327554 0)
(0.0974697 0.341771 0)
(0.101555 0.359839 0)
(0.0328102 0.357927 0)
(0.0373442 0.349414 0)
(0.368857 0.249315 0)
(0.318908 0.258914 0)
(0.27215 0.274845 0)
(0.249829 0.30701 0)
(0.190946 0.329162 0)
(0.186214 0.35934 0)
(0.116168 0.37006 0)
(0.128436 0.388927 0)
(0.054572 0.408172 0)
(0.0443344 0.487817 0)
(0.389157 0.290675 0)
(0.346503 0.30488 0)
(0.304071 0.321885 0)
(0.278409 0.349845 0)
(0.220456 0.375482 0)
(0.199833 0.40251 0)
(0.117393 0.421927 0)
(0.0926986 0.433018 0)
(-0.0177337 0.425119 0)
(0.0193197 0.386339 0)
(0.40771 0.324165 0)
(0.37087 0.34233 0)
(0.325633 0.355579 0)
(0.3005 0.381359 0)
(0.232725 0.401231 0)
(0.23437 0.433427 0)
(0.164056 0.451855 0)
(0.196007 0.488436 0)
(0.139926 0.519774 0)
(0.0852484 0.565477 0)
(0.429569 0.361584 0)
(0.393535 0.386583 0)
(0.360055 0.41594 0)
(0.337614 0.448205 0)
(0.273223 0.475441 0)
(0.233361 0.494868 0)
(0.125942 0.501608 0)
(0.0809344 0.491548 0)
(-0.0296676 0.49012 0)
(0.0359035 0.515206 0)
(0.458044 0.383636 0)
(0.419044 0.40874 0)
(0.361439 0.423548 0)
(0.333963 0.452119 0)
(0.273607 0.486553 0)
(0.284579 0.534473 0)
(0.219211 0.572747 0)
(0.221952 0.60954 0)
(0.108592 0.636418 0)
(0.0639399 0.661568 0)
(0.485164 0.429758 0)
(0.468654 0.47401 0)
(0.446683 0.519042 0)
(0.419373 0.551262 0)
(0.325444 0.565858 0)
(0.268343 0.581725 0)
(0.153231 0.589623 0)
(0.137268 0.606209 0)
(0.0527505 0.604988 0)
(0.0548961 0.600886 0)
(0.515412 0.429022 0)
(0.455577 0.44624 0)
(0.401358 0.482264 0)
(0.408002 0.545815 0)
(0.36907 0.608407 0)
(0.367717 0.665783 0)
(0.277156 0.705479 0)
(0.23732 0.741856 0)
(0.118544 0.775398 0)
(0.0801897 0.812894 0)
(0.581564 0.509015 0)
(0.581426 0.57251 0)
(0.513776 0.598631 0)
(0.454402 0.614479 0)
(0.357498 0.639249 0)
(0.325827 0.676394 0)
(0.227402 0.705914 0)
(0.200404 0.723066 0)
(0.0837546 0.740515 0)
(0.0686694 0.778421 0)
(0.464898 0.349261 0)
(0.547524 0.491268 0)
(0.554725 0.598025 0)
(0.557638 0.679255 0)
(0.482218 0.741859 0)
(0.447164 0.804303 0)
(0.332232 0.858673 0)
(0.279944 0.903358 0)
(0.135256 0.933077 0)
(0.0765755 0.971817 0)
(0.377022 0.199514 7.12457e-20)
(0.418511 0.246763 -7.04121e-20)
(0.431106 0.28127 7.28465e-21)
(0.447009 0.313233 0)
(0.465779 0.346942 0)
(0.491509 0.367662 4.10821e-21)
(0.51661 0.412004 -1.06667e-20)
(0.543635 0.409261 1.04486e-20)
(0.544465 0.437592 5.40857e-22)
(0.401477 0.247008 -5.35303e-22)
(0.412461 0.211161 -9.2542e-20)
(0.430297 0.255786 0)
(0.437436 0.285094 4.72536e-20)
(0.453696 0.315882 -1.00275e-19)
(0.47279 0.346004 5.6019e-20)
(0.499164 0.367185 -4.28046e-21)
(0.521917 0.406421 6.10198e-21)
(0.5414 0.395547 6.83251e-21)
(0.520138 0.403943 -6.19997e-22)
(0.368541 0.202188 -7.22634e-22)
(0.429006 0.218495 1.05111e-19)
(0.440248 0.257921 -5.95746e-20)
(0.447626 0.284014 5.89779e-20)
(0.464442 0.314381 -4.39743e-20)
(0.483249 0.342082 3.33523e-20)
(0.508445 0.363308 0)
(0.528125 0.396822 -6.11521e-21)
(0.538585 0.378244 -3.4943e-22)
(0.494132 0.366435 -1.92493e-21)
(0.334628 0.156334 2.78642e-22)
(0.442184 0.222827 -1.652e-20)
(0.448701 0.260633 0)
(0.454703 0.283835 0)
(0.471816 0.313728 0)
(0.490421 0.33879 2.62345e-20)
(0.514237 0.359774 -1.68843e-20)
(0.529747 0.385713 9.02403e-22)
(0.52723 0.356474 -2.27103e-21)
(0.462184 0.3252 -2.57342e-22)
(0.298315 0.10983 9.28679e-22)
(0.449174 0.224446 -5.26584e-21)
(0.456562 0.261339 -4.61188e-20)
(0.462378 0.281902 -2.34062e-20)
(0.480141 0.311439 2.33843e-20)
(0.498337 0.334264 -9.2174e-21)
(0.519614 0.354076 0)
(0.528895 0.370511 -5.35903e-21)
(0.511952 0.330123 5.43165e-21)
(0.428282 0.280465 -2.2255e-21)
(0.262593 0.0638344 -6.83848e-22)
(0.454639 0.224726 -1.18837e-19)
(0.464497 0.261534 1.81518e-20)
(0.46905 0.27963 3.44281e-21)
(0.487179 0.308792 2.24045e-20)
(0.504613 0.329362 0)
(0.522218 0.346639 0)
(0.523541 0.352039 0)
(0.490548 0.299581 2.66178e-21)
(0.391184 0.232568 0)
(0.226098 0.01987 0)
(0.459114 0.224612 0)
(0.472047 0.260659 3.77068e-20)
(0.475433 0.276515 -2.48249e-20)
(0.49388 0.305159 -1.7981e-20)
(0.51006 0.323289 1.80705e-20)
(0.522689 0.336437 5.37563e-21)
(0.514076 0.329448 -6.21743e-21)
(0.464849 0.264887 -9.53822e-21)
(0.352325 0.1822 9.04074e-22)
(0.182484 -0.0205528 9.87107e-22)
(0.463335 0.224194 0)
(0.478771 0.258882 -1.28891e-20)
(0.481092 0.273022 -5.52046e-21)
(0.49936 0.300811 0)
(0.513537 0.315967 3.03602e-21)
(0.519863 0.323294 -9.78889e-21)
(0.499962 0.303169 5.9451e-21)
(0.434869 0.226849 8.13597e-22)
(0.311206 0.131366 -4.72429e-22)
(0.149723 -0.0572564 -9.8801e-22)
(0.466892 0.22323 1.43514e-20)
(0.484048 0.25618 1.15634e-20)
(0.486004 0.269053 -3.48194e-21)
(0.503598 0.295422 2.25679e-21)
(0.514889 0.306806 3.79708e-21)
(0.513778 0.306794 4.27347e-21)
(0.481679 0.27323 -9.37523e-22)
(0.401845 0.186241 -5.14062e-22)
(0.269314 0.0813112 4.73965e-22)
(0.11934 -0.0907759 -1.66068e-22)
(0.469566 0.221548 -3.17515e-21)
(0.487727 0.252684 3.23794e-21)
(0.489963 0.264538 -2.67366e-21)
(0.50623 0.288852 -2.25261e-21)
(0.5136 0.295528 1.55587e-21)
(0.504097 0.286921 -2.94439e-21)
(0.459549 0.24017 1.28584e-21)
(0.366708 0.144072 1.63259e-22)
(0.229215 0.0329403 0)
(0.0923636 -0.120547 1.66341e-22)
(0.471365 0.219161 3.14729e-21)
(0.490127 0.248393 -3.20498e-21)
(0.493073 0.259231 -2.57016e-21)
(0.507367 0.280858 -2.13825e-21)
(0.509747 0.281854 -1.49281e-21)
(0.491166 0.263761 2.58357e-22)
(0.434404 0.204453 4.98167e-22)
(0.330731 0.100718 7.61446e-22)
(0.191893 -0.0137452 0)
(0.0680799 -0.14752 6.67326e-23)
(0.47242 0.216007 0)
(0.491571 0.243263 -1.10013e-20)
(0.495279 0.252999 1.87464e-20)
(0.506947 0.271337 2.14062e-21)
(0.50338 0.265766 3.28991e-21)
(0.475319 0.237661 3.63883e-21)
(0.407042 0.166721 -8.21452e-22)
(0.294855 0.0569805 -4.34292e-22)
(0.157027 -0.0581943 3.15445e-22)
(0.0471833 -0.172369 -6.65466e-23)
(0.472607 0.212011 0)
(0.491948 0.237278 -1.18898e-20)
(0.496321 0.245759 -5.09875e-21)
(0.504882 0.260207 0)
(0.494735 0.247362 -8.86716e-21)
(0.457135 0.209086 3.22183e-21)
(0.378335 0.127638 1.79624e-21)
(0.259584 0.0135814 2.64135e-21)
(0.125256 -0.099624 -3.14412e-22)
(0.0299649 -0.195171 1.80537e-23)
(0.471666 0.207239 0)
(0.491114 0.230458 1.1982e-20)
(0.496193 0.23745 0)
(0.501416 0.24745 1.45504e-20)
(0.484352 0.226893 -1.46296e-20)
(0.437354 0.178626 -3.67429e-21)
(0.34911 0.0879946 7.67708e-22)
(0.225702 -0.0286636 -2.40047e-21)
(0.0969648 -0.137586 -4.25854e-22)
(0.0163604 -0.215827 -9.84875e-23)
(0.469485 0.201861 1.1245e-19)
(0.489747 0.222723 -4.28224e-20)
(0.495725 0.227973 -4.06978e-21)
(0.497453 0.233121 -1.83588e-20)
(0.473167 0.204755 0)
(0.416957 0.146975 -3.53308e-21)
(0.320222 0.0484881 1.50173e-21)
(0.193969 -0.069168 3.45381e-21)
(0.0720684 -0.171872 8.89302e-23)
(0.0061026 -0.234366 -8.86668e-23)
(0.466688 0.195907 7.75151e-21)
(0.489476 0.213826 6.65847e-20)
(0.495977 0.21734 1.83127e-20)
(0.493676 0.217495 -1.83087e-20)
(0.461727 0.18155 -6.04223e-21)
(0.396606 0.114913 0)
(0.292132 0.0097923 -4.54151e-21)
(0.164727 -0.107558 2.32514e-21)
(0.0505748 -0.202552 9.29258e-22)
(-0.00117597 -0.25095 2.33481e-22)
(0.464856 0.189125 -1.54476e-20)
(0.48945 0.203685 0)
(0.495421 0.205926 0)
(0.488414 0.20111 0)
(0.448868 0.157929 -4.10452e-21)
(0.375441 0.0831039 1.01425e-20)
(0.264969 -0.0276799 4.47763e-21)
(0.138155 -0.143712 -4.44356e-21)
(0.0324349 -0.229914 2.01826e-22)
(-0.00616254 -0.265871 -4.3032e-22)
(0.461678 0.181974 -3.5277e-20)
(0.483691 0.19316 4.85224e-20)
(0.488298 0.194168 -4.80931e-20)
(0.47722 0.184354 2.92484e-20)
(0.43167 0.134221 -3.53171e-20)
(0.351819 0.0517445 0)
(0.23825 -0.0638973 -2.53574e-21)
(0.114202 -0.177735 6.71244e-26)
(0.0175385 -0.254369 -5.79362e-22)
(-0.00935463 -0.279611 -2.74635e-22)
(0.451344 0.1763 -1.68745e-20)
(0.467904 0.183229 0)
(0.472367 0.182091 -4.73603e-20)
(0.45939 0.166906 7.20133e-20)
(0.409955 0.10998 -2.43328e-20)
(0.325753 0.0202613 -2.15513e-21)
(0.211535 -0.0995709 2.52991e-21)
(0.0929119 -0.210272 3.22924e-22)
(0.00599253 -0.276489 1.26728e-21)
(-0.0110602 -0.292549 4.82989e-22)
(0.444451 0.173183 -7.56524e-20)
(0.460735 0.173821 7.372e-20)
(0.46634 0.169167 6.69448e-21)
(0.451054 0.148478 0)
(0.396399 0.0851105 0)
(0.306061 -0.0113749 2.32758e-21)
(0.189002 -0.135027 4.05887e-21)
(0.074763 -0.242023 -3.91544e-21)
(-0.00195452 -0.296697 -2.27305e-22)
(-0.0115458 -0.304836 2.21589e-22)
(0.472764 0.157586 0)
(0.49678 0.148582 0)
(0.499257 0.136441 0)
(0.472382 0.104563 0)
(0.400508 0.0284039 0)
(0.290203 -0.0819712 0)
(0.155539 -0.214358 0)
(0.0343794 -0.315016 0)
(-0.021767 -0.340698 0)
(-0.00707416 -0.331868 0)
(0.489368 0.0895906 0)
(0.481716 0.0744546 0)
(0.443605 0.0447952 0)
(0.362475 -0.0378913 0)
(0.234821 -0.164727 0)
(0.0989593 -0.29402 0)
(0.00851242 -0.39254 0)
(-0.0171245 -0.426239 0)
(-0.00766864 -0.410488 0)
(0.00448103 -0.399649 0)
(0.498385 0.02663 0)
(0.463427 -0.0325687 0)
(0.388825 -0.106309 0)
(0.271706 -0.224746 0)
(0.150041 -0.346393 0)
(0.0516421 -0.433727 0)
(-0.00329546 -0.469378 0)
(-0.00910246 -0.457329 0)
(0.00704203 -0.443504 0)
(0.00659577 -0.447844 0)
(0.462523 -0.089988 0)
(0.37219 -0.193896 0)
(0.25793 -0.298668 0)
(0.131733 -0.415457 0)
(0.0375398 -0.504046 0)
(-0.00652199 -0.538779 0)
(-0.00610566 -0.531128 0)
(0.010052 -0.501306 0)
(0.0123939 -0.500814 0)
(0.000504545 -0.510123 0)
(0.388655 -0.249317 0)
(0.261672 -0.397071 0)
(0.14497 -0.500432 0)
(0.0552776 -0.582254 0)
(0.0163192 -0.608356 0)
(0.0130546 -0.594779 0)
(0.020267 -0.57198 0)
(0.0176377 -0.564004 0)
(0.00467581 -0.580588 0)
(-0.00308599 -0.58359 0)
(0.288861 -0.452099 0)
(0.14938 -0.604743 0)
(0.0700133 -0.650044 0)
(0.0296936 -0.675635 0)
(0.0287188 -0.661348 0)
(0.0306796 -0.644899 0)
(0.0233695 -0.641139 0)
(0.00653941 -0.651094 0)
(-0.00281965 -0.664027 0)
(-0.00144605 -0.659106 0)
(0.186934 -0.635856 0)
(0.076653 -0.740501 0)
(0.0561273 -0.727871 0)
(0.0430794 -0.734401 0)
(0.0451122 -0.724358 0)
(0.0286165 -0.73072 0)
(0.00866893 -0.741953 0)
(-0.00245748 -0.748355 0)
(-0.000252846 -0.74943 0)
(0.00094773 -0.745283 0)
(0.116771 -0.787808 0)
(0.0573017 -0.845013 0)
(0.0644424 -0.819747 0)
(0.0438077 -0.847074 0)
(0.032745 -0.857455 0)
(0.00755135 -0.868831 0)
(0.000746645 -0.870867 0)
(0.00331643 -0.869527 0)
(0.00407573 -0.870969 0)
(-0.00051044 -0.870753 0)
(0.0775412 -0.962812 0)
(0.0531464 -0.99086 0)
(0.0444974 -1.00108 0)
(0.0124786 -1.05189 0)
(0.012619 -1.05236 0)
(0.00897009 -1.05231 0)
(0.00538636 -1.05227 0)
(0.00346218 -1.05691 0)
(0.000177438 -1.06021 0)
(-0.000272081 -1.05897 0)
(0.0391191 -1.09694 0)
(0.0216711 -1.15039 0)
(-0.00329271 -1.18621 0)
(0.000706297 -1.19803 0)
(0.0205129 -1.19907 0)
(0.00254084 -1.21997 0)
(-0.00510582 -1.21465 0)
(0.00250152 -1.21991 0)
(0.00100819 -1.22219 0)
(-0.000182809 -1.22132 0)
(0.433657 0.146998 7.94824e-20)
(0.481306 0.0674284 -7.82266e-20)
(0.48967 0.00918377 9.35403e-21)
(0.47927 -0.0961999 0)
(0.419423 -0.239245 0)
(0.328089 -0.424319 9.11703e-21)
(0.2222 -0.615017 -3.75126e-20)
(0.139472 -0.777408 3.7641e-20)
(0.0864822 -0.949348 1.06631e-20)
(0.0399096 -1.05787 -1.06539e-20)
(0.422991 0.127994 -1.02613e-19)
(0.474791 0.0477204 0)
(0.486493 -0.00347176 6.32207e-20)
(0.486375 -0.102574 -1.4111e-19)
(0.432727 -0.234469 8.66892e-20)
(0.345896 -0.408856 -8.31856e-21)
(0.238663 -0.597246 1.8091e-20)
(0.150468 -0.761796 3.77906e-20)
(0.0907966 -0.932139 1.12928e-20)
(0.0392486 -1.03606 1.10392e-20)
(0.413706 0.106186 1.23673e-19)
(0.467042 0.0275248 -7.74136e-20)
(0.482355 -0.0144996 7.66523e-20)
(0.490591 -0.111821 -7.29926e-20)
(0.445382 -0.232844 5.47627e-20)
(0.365292 -0.396075 0)
(0.258133 -0.577094 -1.81368e-20)
(0.164162 -0.740476 1.3641e-21)
(0.0955076 -0.907105 -2.02775e-20)
(0.0370397 -1.01053 -2.11465e-20)
(0.404279 0.0840106 -2.02947e-20)
(0.457464 0.0102072 0)
(0.476843 -0.0281786 0)
(0.491561 -0.12012 0)
(0.456166 -0.230745 5.77163e-20)
(0.385025 -0.38376 -3.80958e-20)
(0.280414 -0.557531 -1.35442e-22)
(0.180915 -0.720165 -2.1832e-20)
(0.101163 -0.882851 -1.16201e-20)
(0.0337376 -0.986955 -1.25917e-20)
(0.394839 0.0615457 -1.68113e-21)
(0.446029 -0.00513672 -6.1751e-20)
(0.468949 -0.0427357 -3.98973e-20)
(0.489139 -0.128136 3.98592e-20)
(0.464392 -0.227902 -1.93442e-20)
(0.403544 -0.369814 0)
(0.304194 -0.536717 -2.05377e-20)
(0.200065 -0.699898 4.53018e-20)
(0.108101 -0.859943 -2.3389e-20)
(0.0300188 -0.966637 2.4501e-20)
(0.38521 0.0393884 -1.72021e-19)
(0.433081 -0.0210805 2.22462e-20)
(0.458693 -0.0576128 3.85325e-22)
(0.483134 -0.136167 4.14515e-20)
(0.469415 -0.225246 0)
(0.419594 -0.354759 0)
(0.328276 -0.513328 0)
(0.220845 -0.676413 2.42759e-20)
(0.116396 -0.83475 0)
(0.0265059 -0.947714 0)
(0.375458 0.0183679 0)
(0.419165 -0.0366285 6.46696e-20)
(0.446373 -0.0721962 -4.30081e-20)
(0.473471 -0.144185 -4.32573e-20)
(0.470422 -0.223475 4.34767e-20)
(0.431928 -0.339978 2.28935e-20)
(0.351622 -0.488006 -2.28997e-20)
(0.242988 -0.648409 -8.70706e-20)
(0.126301 -0.803939 6.1827e-21)
(0.0238889 -0.92741 -2.15209e-20)
(0.365652 9.74271e-05 0)
(0.404929 -0.0507385 -2.16941e-20)
(0.43249 -0.0857714 -1.12306e-20)
(0.460332 -0.152079 0)
(0.466714 -0.222934 1.14493e-20)
(0.439239 -0.326526 -3.5272e-20)
(0.372724 -0.46219 3.66932e-20)
(0.266304 -0.616884 1.28548e-20)
(0.138591 -0.767036 -1.43775e-20)
(0.0230749 -0.904104 2.85669e-20)
(0.356027 -0.0158421 2.2963e-20)
(0.39068 -0.0627044 2.25842e-20)
(0.41765 -0.0977807 -5.80693e-21)
(0.444309 -0.159521 5.89465e-21)
(0.458024 -0.22364 1.16068e-20)
(0.440444 -0.315105 1.82984e-20)
(0.389478 -0.437297 -6.56416e-21)
(0.289891 -0.583553 -6.9635e-21)
(0.154243 -0.725545 1.4425e-20)
(0.0252821 -0.877619 7.77638e-21)
(0.346547 -0.0301148 -5.80397e-21)
(0.377127 -0.0724231 5.79405e-21)
(0.402506 -0.107796 -5.76591e-21)
(0.42641 -0.165951 -5.88654e-21)
(0.444694 -0.225234 6.23944e-21)
(0.435052 -0.306078 -1.2564e-20)
(0.399673 -0.41462 1.00013e-20)
(0.31185 -0.55008 3.50603e-21)
(0.173549 -0.681114 0)
(0.032688 -0.847743 -7.79338e-21)
(0.337183 -0.0417968 5.93334e-21)
(0.364458 -0.0800008 -5.92622e-21)
(0.387614 -0.115539 -6.08914e-21)
(0.407851 -0.170886 -6.25252e-21)
(0.427691 -0.227079 -6.45494e-21)
(0.423393 -0.299393 -2.06985e-22)
(0.401669 -0.395163 3.4964e-21)
(0.329559 -0.518236 1.10351e-20)
(0.195136 -0.63543 0)
(0.0488891 -0.812988 -8.37675e-21)
(0.327906 -0.0510682 0)
(0.35261 -0.0857419 -2.43857e-20)
(0.373265 -0.120971 4.31667e-20)
(0.389713 -0.174135 6.26273e-21)
(0.408419 -0.228446 1.32443e-20)
(0.406667 -0.294555 2.05485e-20)
(0.394937 -0.379304 -7.04842e-21)
(0.340312 -0.489759 -7.44198e-21)
(0.215514 -0.591001 1.63726e-20)
(0.0764514 -0.771122 8.35696e-21)
(0.318732 -0.0583404 0)
(0.341429 -0.0899488 -2.50467e-20)
(0.359519 -0.124288 -1.25325e-20)
(0.372673 -0.17567 0)
(0.388372 -0.228692 -4.0615e-20)
(0.386697 -0.2907 1.37051e-20)
(0.380311 -0.366653 1.47075e-20)
(0.342158 -0.465679 4.63572e-20)
(0.229718 -0.550794 -1.63195e-20)
(0.111812 -0.720962 3.52879e-20)
(0.309799 -0.06395 0)
(0.330784 -0.0927874 2.5258e-20)
(0.346338 -0.125777 0)
(0.356952 -0.175512 5.40256e-20)
(0.368761 -0.227381 -5.43063e-20)
(0.365471 -0.286857 -2.92671e-20)
(0.359795 -0.356231 -2.77341e-22)
(0.334714 -0.445843 -4.66573e-20)
(0.233315 -0.516743 -7.69959e-21)
(0.144002 -0.663893 -4.37081e-20)
(0.301351 -0.0681277 2.08088e-19)
(0.320628 -0.0943934 -7.74883e-20)
(0.333718 -0.125738 1.04681e-21)
(0.342459 -0.173818 -5.38868e-20)
(0.350323 -0.224375 0)
(0.344651 -0.282256 -2.9837e-20)
(0.335971 -0.346883 -1.25761e-21)
(0.319458 -0.429118 6.28744e-20)
(0.224749 -0.488796 8.69296e-21)
(0.161463 -0.60393 -8.7258e-21)
(0.293682 -0.0710305 -8.4978e-22)
(0.311006 -0.0948972 1.32953e-19)
(0.321745 -0.124447 5.50396e-20)
(0.32899 -0.170842 -5.50094e-20)
(0.333356 -0.219813 -2.87979e-20)
(0.325309 -0.276445 0)
(0.311299 -0.337615 -6.27026e-20)
(0.299218 -0.413978 3.07595e-20)
(0.206137 -0.465278 3.31016e-20)
(0.160306 -0.54604 3.57235e-20)
(0.287053 -0.0727694 -2.74371e-20)
(0.302019 -0.0944129 0)
(0.310572 -0.122136 0)
(0.316392 -0.166863 0)
(0.317888 -0.21405 -3.03634e-20)
(0.30792 -0.269391 5.90723e-20)
(0.287592 -0.327933 6.29279e-20)
(0.277074 -0.399242 -9.62857e-20)
(0.181784 -0.444195 1.73492e-20)
(0.145276 -0.494151 -5.25724e-20)
(0.28161 -0.0735117 -5.57361e-20)
(0.293763 -0.0930845 1.1399e-19)
(0.300358 -0.118997 -1.12917e-19)
(0.304606 -0.162034 1.17715e-19)
(0.303831 -0.207325 -1.46374e-19)
(0.292557 -0.260984 0)
(0.265945 -0.317431 -3.15692e-20)
(0.255604 -0.384033 -2.018e-22)
(0.156058 -0.424065 -3.37536e-20)
(0.124132 -0.449887 -3.46838e-20)
(0.277204 -0.0733201 -2.90946e-20)
(0.286178 -0.0909544 0)
(0.291178 -0.115271 -1.33127e-19)
(0.293689 -0.156885 2.3688e-19)
(0.291138 -0.20059 -8.84723e-20)
(0.279014 -0.252404 -1.53939e-20)
(0.24663 -0.30713 3.15003e-20)
(0.236031 -0.368796 -8.4494e-22)
(0.131839 -0.404647 4.90359e-20)
(0.10345 -0.413826 5.0903e-20)
(0.27295 -0.070185 -1.23022e-19)
(0.2784 -0.0868373 1.19726e-19)
(0.282334 -0.109388 1.5036e-20)
(0.282834 -0.149057 0)
(0.279325 -0.191442 0)
(0.267309 -0.240758 1.52735e-20)
(0.229973 -0.294721 6.32948e-20)
(0.219688 -0.352137 -6.1779e-20)
(0.111012 -0.385369 -1.62658e-20)
(0.0849416 -0.383127 1.60331e-20)
(0.261686 -0.0800422 0)
(0.260001 -0.0922289 0)
(0.262588 -0.113711 0)
(0.253823 -0.152076 0)
(0.249241 -0.189476 0)
(0.234038 -0.230794 0)
(0.190697 -0.278123 0)
(0.182109 -0.317721 0)
(0.068573 -0.342109 0)
(0.0600337 -0.333129 0)
(0.243944 -0.0792104 0)
(0.232212 -0.0955519 0)
(0.238324 -0.117177 0)
(0.219137 -0.147519 0)
(0.212178 -0.177611 0)
(0.194738 -0.209785 0)
(0.147516 -0.243835 0)
(0.145977 -0.268848 0)
(0.0396079 -0.282587 0)
(0.0553567 -0.283773 0)
(0.223504 -0.0625452 0)
(0.208698 -0.0796594 0)
(0.210675 -0.103979 0)
(0.19042 -0.129909 0)
(0.180022 -0.157616 0)
(0.165321 -0.185957 0)
(0.116623 -0.211758 0)
(0.122817 -0.2317 0)
(0.0270006 -0.239374 0)
(0.0567022 -0.24322 0)
(0.206045 -0.0573949 0)
(0.190299 -0.0742756 0)
(0.188293 -0.0947326 0)
(0.168249 -0.114745 0)
(0.153889 -0.13715 0)
(0.142289 -0.160992 0)
(0.0923442 -0.180932 0)
(0.105052 -0.198567 0)
(0.0170826 -0.204594 0)
(0.0536185 -0.205705 0)
(0.186039 -0.0497723 0)
(0.172943 -0.0656514 0)
(0.168431 -0.0845345 0)
(0.150012 -0.101407 0)
(0.132725 -0.119721 0)
(0.12436 -0.139676 0)
(0.0734933 -0.154996 0)
(0.0906547 -0.170389 0)
(0.0078335 -0.176184 0)
(0.0479744 -0.175668 0)
(0.170073 -0.0422623 0)
(0.157605 -0.0555814 0)
(0.151074 -0.0715998 0)
(0.134052 -0.0861122 0)
(0.114478 -0.101466 0)
(0.109114 -0.118814 0)
(0.0576646 -0.131961 0)
(0.0780373 -0.146072 0)
(-0.000945765 -0.152648 0)
(0.0418275 -0.151376 0)
(0.156476 -0.0357518 0)
(0.145226 -0.0459694 0)
(0.137001 -0.058657 0)
(0.120789 -0.0704636 0)
(0.0990999 -0.0829187 0)
(0.0957144 -0.097402 0)
(0.043366 -0.11022 0)
(0.0660499 -0.123427 0)
(-0.00869558 -0.132709 0)
(0.0362498 -0.141947 0)
(0.147726 -0.0293127 0)
(0.137386 -0.0357988 0)
(0.126908 -0.0456017 0)
(0.110559 -0.0548761 0)
(0.0866973 -0.0654954 0)
(0.0834977 -0.0779614 0)
(0.0293592 -0.0910227 0)
(0.0537108 -0.105226 0)
(-0.0236708 -0.124004 0)
(0.0303911 -0.114312 0)
(0.17334 -0.0176706 0)
(0.166034 -0.021868 0)
(0.148968 -0.0277653 0)
(0.128033 -0.0341794 0)
(0.0977319 -0.0427907 0)
(0.091796 -0.0444088 0)
(0.0197761 -0.0647915 0)
(0.0399078 -0.0682246 0)
(-0.0531651 -0.0855837 0)
(-0.0355557 -0.158878 0)
(0.474185 -0.0067148 0)
(0.467169 -0.00950016 0)
(0.446376 -0.0116388 0)
(0.426746 -0.0150576 0)
(0.400907 -0.0193425 0)
(0.371909 -0.0233394 0)
(0.322552 -0.0385884 0)
(0.293349 -0.0464135 0)
(0.18028 -0.0836662 0)
(0.18724 -0.159452 0)
(0.272082 -0.0673991 1.29615e-19)
(0.254411 -0.0622892 -1.25985e-19)
(0.231215 -0.0454972 1.58001e-20)
(0.211083 -0.0439056 0)
(0.18927 -0.0369399 0)
(0.173175 -0.0323561 1.52041e-20)
(0.159401 -0.0277184 -5.99948e-20)
(0.153076 -0.0229713 5.88125e-20)
(0.189094 -0.0149227 1.45323e-20)
(0.486543 -0.00560049 -1.48217e-20)
(0.271178 -0.0613747 -1.42997e-19)
(0.252595 -0.0551878 0)
(0.22973 -0.0386127 1.02414e-19)
(0.209543 -0.0383847 -2.32056e-19)
(0.188475 -0.0317943 1.4406e-19)
(0.173107 -0.0284154 -1.44118e-20)
(0.159951 -0.0244919 2.84868e-20)
(0.155177 -0.0203112 5.64584e-20)
(0.194769 -0.0139549 1.39383e-20)
(0.491811 -0.00525667 1.37343e-20)
(0.269551 -0.0535059 1.66401e-19)
(0.248649 -0.0480666 -1.13988e-19)
(0.226408 -0.0321858 1.12962e-19)
(0.206398 -0.0331501 -1.15e-19)
(0.186784 -0.0270297 8.53137e-20)
(0.172367 -0.0247429 0)
(0.160174 -0.0214838 -2.8554e-20)
(0.157123 -0.0177593 -1.02954e-22)
(0.200014 -0.0132213 -2.82113e-20)
(0.497186 -0.00507629 -2.79473e-20)
(0.270126 -0.0441401 -2.7169e-20)
(0.246853 -0.0407471 0)
(0.224748 -0.0260031 0)
(0.204236 -0.0279999 0)
(0.185713 -0.0225086 8.52896e-20)
(0.171854 -0.0212276 -5.67213e-20)
(0.160485 -0.0186431 -7.87678e-23)
(0.158877 -0.0153856 -2.8455e-20)
(0.204787 -0.0127086 -1.41808e-20)
(0.502453 -0.00505798 -1.40313e-20)
(0.270936 -0.0335927 2.42785e-21)
(0.245682 -0.033048 -8.00391e-20)
(0.223975 -0.0198797 -5.54037e-20)
(0.202654 -0.0227397 5.53827e-20)
(0.185014 -0.0180678 -2.81868e-20)
(0.171467 -0.0177479 0)
(0.160811 -0.0158954 -2.84786e-20)
(0.160343 -0.0131979 5.70437e-20)
(0.208884 -0.0123412 -2.8511e-20)
(0.50743 -0.00517741 2.84809e-20)
(0.271127 -0.0219784 -2.07528e-19)
(0.243858 -0.0246635 2.48813e-20)
(0.223123 -0.0137101 -7.83305e-22)
(0.201029 -0.0172983 5.47883e-20)
(0.184287 -0.0136296 0)
(0.170986 -0.0142466 0)
(0.16102 -0.0132058 0)
(0.16145 -0.0111854 2.84704e-20)
(0.212206 -0.0120291 0)
(0.51204 -0.00540014 0)
(0.27087 -0.00977026 0)
(0.241347 -0.0153532 7.91567e-20)
(0.221997 -0.00736599 -5.3224e-20)
(0.199271 -0.0116467 -5.49056e-20)
(0.183425 -0.0091525 5.51963e-20)
(0.170347 -0.0107031 2.81127e-20)
(0.161044 -0.0105654 -2.81917e-20)
(0.162133 -0.00933759 -9.98596e-20)
(0.214785 -0.0116963 7.17897e-21)
(0.516311 -0.00569489 -2.15278e-20)
(0.27039 0.00198162 0)
(0.238439 -0.00532552 -2.60002e-20)
(0.220599 -0.000783346 -1.32654e-20)
(0.197469 -0.00578972 0)
(0.182429 -0.00461682 1.38913e-20)
(0.169545 -0.00711927 -4.18006e-20)
(0.160851 -0.00797197 4.24602e-20)
(0.162349 -0.00765718 1.43223e-20)
(0.2166 -0.0112954 -1.43773e-20)
(0.520208 -0.00603368 2.89191e-20)
(0.269796 0.0121761 2.44725e-20)
(0.235439 0.00476304 2.59394e-20)
(0.218871 0.00595961 -6.35805e-21)
(0.195662 0.000210886 6.72591e-21)
(0.181276 -3.45046e-05 1.37414e-20)
(0.168566 -0.00351787 2.08889e-20)
(0.160416 -0.0054293 -7.03847e-21)
(0.16208 -0.00614911 -7.11082e-21)
(0.217571 -0.0108128 1.44245e-20)
(0.523717 -0.00637781 7.21423e-21)
(0.269071 0.0204821 -6.24693e-21)
(0.232711 0.0142405 6.30842e-21)
(0.216788 0.0127145 -6.57104e-21)
(0.193852 0.00625964 -6.71684e-21)
(0.17992 0.00456021 6.85346e-21)
(0.167388 6.47905e-05 -1.38624e-20)
(0.159667 -0.00293911 1.05598e-20)
(0.161369 -0.00479101 3.56779e-21)
(0.217669 -0.0102743 0)
(0.526868 -0.00671244 -7.23015e-21)
(0.268119 0.0276983 6.22025e-21)
(0.230593 0.0228701 -6.28373e-21)
(0.214443 0.0194021 -6.52809e-21)
(0.192044 0.0122785 -6.67492e-21)
(0.178349 0.00913877 -6.83337e-21)
(0.165985 0.0036131 -1.12963e-23)
(0.158548 -0.000507897 3.49157e-21)