/*--------------------------------*- C++ -*----------------------------------*\
  =========                 |
  \\      /  F ield         | OpenFOAM: The Open Source CFD Toolbox
   \\    /   O peration     | Website:  https://openfoam.org
    \\  /    A nd           | Version:  7
     \\/     M anipulation  |
\*---------------------------------------------------------------------------*/
FoamFile
{
    version     2.0;
    format      ascii;
    class       surfaceScalarField;
    location    "9";
    object      phi;
}
// * * * * * * * * * * * * * * * * * * * * * * * * * * * * * * * * * * * * * //

dimensions      [0 3 -1 0 0 0 0];

internalField   nonuniform List<scalar> 
35640
(
1.79987e-05
-0.000308514
0.000290515
6.67726e-05
-0.000665428
0.000616654
0.000144132
-0.000786029
0.00070867
0.000248866
-0.00072176
0.000617026
0.000380381
-0.000509517
0.000378003
0.000538415
-0.000177099
1.90643e-05
0.000722887
0.000253479
-0.00043795
0.000933779
0.000764676
-0.000975568
0.00117099
0.00134231
-0.00157953
0.00143428
0.00197461
-0.0022379
0.00172317
0.00265156
-0.00294045
0.00203687
0.00336431
-0.00367801
0.00237423
0.00410476
-0.00444211
0.00273368
0.00486524
-0.00522468
0.00311322
0.00563832
-0.00601786
0.00351041
0.00641672
-0.00681391
0.00392239
0.00719323
-0.00760522
0.00434595
0.00796079
-0.00838435
0.00477759
0.00871255
-0.00914419
0.00521362
0.00944199
-0.00987803
0.00565027
0.0101431
-0.0105797
0.0060838
0.0108103
-0.0112438
0.00651063
0.011439
-0.0118658
0.00692742
0.0120252
-0.012442
0.00733119
0.0125659
-0.0129697
0.00771939
0.0130589
-0.0134471
0.00809
0.0135026
-0.0138732
0.00844166
0.0138957
-0.0142473
0.00877376
0.0142364
-0.0145685
0.0145186
0.00908668
-0.0148316
1.73608e-05
-0.000325875
6.39444e-05
-0.000712012
0.000137333
-0.000859418
0.000236246
-0.000820673
0.000360144
-0.000633414
0.000508879
-0.000325833
0.000682464
7.9894e-05
0.000880966
0.000566174
0.00110441
0.00111887
0.00135267
0.00172635
0.00162543
0.0023788
0.00192208
0.00306766
0.00224171
0.00378513
0.00258302
0.00452392
0.00294433
0.00527701
0.00332354
0.00603751
0.00371816
0.00679861
0.00412536
0.00755359
0.004542
0.00829592
0.00496469
0.0090193
0.00538997
0.00971779
0.0058143
0.010386
0.00623426
0.011019
0.00664657
0.0116129
0.00704827
0.0121642
0.00743676
0.0126704
0.0078099
0.0131294
0.00816614
0.0135394
0.00850464
0.0138979
0.0141979
0.00882535
1.66588e-05
-0.000342534
6.08328e-05
-0.000756185
0.000129935
-0.000928521
0.00022272
-0.000913458
0.000338756
-0.00074945
0.000478014
-0.000465091
0.000640618
-8.271e-05
0.000826755
0.000380038
0.00103655
0.000909071
0.00127001
0.0014929
0.00152692
0.00212189
0.00180686
0.00278772
0.00210909
0.0034829
0.00243254
0.00420047
0.00277581
0.00493375
0.00313709
0.00567623
0.00351424
0.00642146
0.00390474
0.00716309
0.00430579
0.00789487
0.00471434
0.00861074
0.00512719
0.00930494
0.00554104
0.00997212
0.00595265
0.0106074
0.00635886
0.0112067
0.00675675
0.0117663
0.0071437
0.0122834
0.00751751
0.0127556
0.00787651
0.0131804
0.00821964
0.0135547
0.0138711
0.00854643
1.58523e-05
-0.000358386
5.72904e-05
-0.000797624
0.000121732
-0.000992963
0.000208023
-0.000999749
0.000315863
-0.00085729
0.000445385
-0.000594612
0.000596858
-0.000234183
0.000770575
0.000206321
0.000966784
0.000712862
0.00118559
0.00127409
0.00142692
0.00188056
0.00169045
0.00252419
0.00197561
0.00319773
0.00228155
0.00389453
0.00260705
0.00460824
0.0029506
0.00533268
0.00331031
0.00606175
0.00368399
0.00678942
0.00406913
0.00750973
0.00446299
0.00821688
0.00486264
0.0089053
0.00526502
0.00956973
0.00566708
0.0102054
0.00606582
0.010808
0.00645837
0.0113738
0.00684217
0.0118997
0.00721499
0.0123828
0.00757505
0.0128204
0.00792112
0.0132087
0.0135399
0.00825233
1.48928e-05
-0.000373279
5.32775e-05
-0.000836008
0.000112637
-0.00105232
0.000191999
-0.00107911
0.000291261
-0.000956552
0.000410723
-0.000714074
0.000550825
-0.000374285
0.000712003
4.51428e-05
0.000894617
0.000530247
0.00109888
0.00106983
0.0013248
0.00165464
0.0015722
0.00227679
0.00184064
0.0029293
0.00212939
0.00360577
0.00243747
0.00430017
0.00276355
0.0050066
0.00310601
0.00571929
0.0034629
0.00643252
0.00383201
0.00714062
0.00421086
0.00783803
0.00459679
0.00851937
0.00498698
0.00917954
0.00537858
0.00981379
0.00576873
0.0104178
0.00615471
0.0109878
0.00653399
0.0115204
0.00690434
0.0120125
0.00726395
0.0124607
0.00761141
0.0128612
0.0132058
0.0079455
1.37739e-05
-0.000387053
4.87251e-05
-0.000870959
0.000102546
-0.00110614
0.000174504
-0.00115107
0.000264737
-0.00104678
0.000373763
-0.0008231
0.00050221
-0.000502732
0.000650664
-0.000103311
0.000819606
0.000361306
0.00100935
0.000880083
0.00122002
0.00144397
0.00145153
0.00204528
0.00170353
0.00267729
0.00197547
0.00333384
0.00226648
0.00400916
0.00257543
0.00469765
0.0029009
0.00539382
0.00324119
0.00609223
0.00359432
0.00678749
0.00395806
0.00747428
0.00432999
0.00814744
0.00470753
0.008802
0.00508802
0.0094333
0.00546878
0.0100371
0.0058472
0.0106094
0.00622083
0.0111467
0.0065875
0.0116458
0.00694534
0.0121029
0.00729281
0.0125138
0.0128703
0.00762835
1.24642e-05
-0.000399517
4.35908e-05
-0.000902086
9.13817e-05
-0.00115393
0.000155423
-0.00121511
0.000236152
-0.00112751
0.000334329
-0.000921277
0.000450788
-0.000619191
0.00058629
-0.000238812
0.000741443
0.000206152
0.000916669
0.000704857
0.00111218
0.00124845
0.00132799
0.00182948
0.00156385
0.00244143
0.0018193
0.00307839
0.00209362
0.00373484
0.00238583
0.00440544
0.00269467
0.00508497
0.00301865
0.00576826
0.003356
0.00645015
0.00370471
0.00712557
0.00406258
0.00778957
0.00442724
0.00843733
0.00479623
0.00906431
0.00516704
0.00966625
0.00553719
0.0102392
0.00590435
0.0107796
0.00626636
0.0112838
0.00662136
0.0117479
0.00696766
0.0121675
0.0125345
0.00730342
1.09487e-05
-0.000410466
3.78344e-05
-0.000928971
7.90875e-05
-0.00119519
0.000134686
-0.00127071
0.00020541
-0.00119824
0.0002923
-0.00100817
0.000396421
-0.000723312
0.000518715
-0.000361105
0.000659926
6.4941e-05
0.000820589
0.000544194
0.00100102
0.00106803
0.00120129
0.00162921
0.00142126
0.00222145
0.00166056
0.00283909
0.00191857
0.00347683
0.00219444
0.00412957
0.00248707
0.00479234
0.00279513
0.00546021
0.00311701
0.00612826
0.00345092
0.00679166
0.00379485
0.00744564
0.00414663
0.00808555
0.00450398
0.00870696
0.00486455
0.00930568
0.00522601
0.00987776
0.00558611
0.0104195
0.00594277
0.0109271
0.0062941
0.0113966
0.00663831
0.0118233
0.0121996
0.00697324
9.21462e-06
-0.00041968
3.14348e-05
-0.000951191
6.56332e-05
-0.00122939
0.000112256
-0.00131733
0.00017247
-0.00125845
0.000247634
-0.00108333
0.000339058
-0.000814736
0.000447875
-0.000469922
0.000574977
-6.21611e-05
0.000721014
0.000398156
0.000886392
0.000902649
0.00107127
0.00144432
0.0012756
0.00201713
0.00149906
0.00261563
0.00174115
0.00323474
0.00200112
0.0038696
0.00227799
0.00451547
0.00257057
0.00516763
0.00287741
0.00582142
0.00319689
0.00647218
0.00352717
0.00711536
0.00386626
0.00774646
0.00421204
0.00836118
0.00456233
0.0089554
0.00491491
0.00952518
0.00526766
0.0100667
0.00561853
0.0105762
0.00596564
0.0110495
0.00630705
0.0114818
0.0118663
0.00664037
7.25804e-06
-0.000426938
2.43844e-05
-0.000968318
5.10148e-05
-0.00125602
8.81377e-05
-0.00135445
0.000137355
-0.00130767
0.000200364
-0.00114634
0.00027874
-0.000893113
0.000373817
-0.000564998
0.000486642
-0.000174986
0.000617984
0.000266814
0.000768344
0.000752289
0.000937965
0.0012747
0.00112686
0.00182824
0.0013348
0.00240768
0.00156136
0.00300818
0.00180587
0.00362509
0.00206747
0.00425387
0.00234507
0.00489003
0.00263738
0.00552911
0.0029429
0.00616666
0.00325996
0.0067983
0.00358672
0.0074197
0.0039212
0.00802669
0.00426138
0.00861522
0.00460516
0.00918139
0.00495051
0.00972139
0.00529542
0.0102313
0.005638
0.0107069
0.0059762
0.0111436
0.0115351
0.00630735
5.07769e-06
-0.000432016
1.66906e-05
-0.00097993
3.52592e-05
-0.00127458
6.23846e-05
-0.00138158
0.000100143
-0.00134543
0.0001506
-0.00119679
0.000215605
-0.000958118
0.000296701
-0.000646093
0.000395096
-0.00027338
0.000511682
0.000150228
0.000647056
0.000616915
0.000801545
0.00112021
0.000975228
0.00165456
0.00116796
0.00221496
0.00137936
0.00279677
0.00160887
0.00339558
0.00185571
0.00400703
0.00211889
0.00462685
0.00239723
0.00525077
0.00268936
0.00587453
0.00299374
0.00649392
0.00330867
0.00710477
0.00363232
0.00770305
0.00396276
0.00828478
0.00429803
0.00884612
0.00463617
0.00938326
0.00497521
0.00989227
0.00531322
0.0103689
0.00564803
0.0108088
0.0112064
0.00597672
2.67919e-06
-0.000434695
8.3779e-06
-0.000985629
1.84215e-05
-0.00128463
3.50924e-05
-0.00139825
6.09784e-05
-0.00137131
9.85304e-05
-0.00123435
0.000149884
-0.00100947
0.000216795
-0.000713004
0.000300639
-0.000357224
0.000402432
4.8435e-05
0.000522871
0.000496476
0.000662366
0.000980719
0.000821066
0.00149586
0.00099889
0.00203713
0.00119554
0.00260012
0.00141052
0.0031806
0.00164312
0.00377443
0.00189245
0.00437752
0.00215744
0.00498578
0.00243682
0.00559515
0.00272917
0.00620157
0.00303291
0.00680104
0.00334631
0.00738964
0.00366758
0.00796351
0.00399483
0.00851886
0.00432617
0.00905192
0.00465966
0.00955878
0.00499331
0.0100352
0.00532481
0.0104773
0.0108802
0.005651
6.43752e-08
-0.000434759
-5.12721e-07
-0.000985051
5.88185e-07
-0.00128573
6.40297e-06
-0.00140406
2.00634e-05
-0.00138497
4.44196e-05
-0.0012587
8.1899e-05
-0.00104695
0.000134478
-0.000765583
0.000203696
-0.000426442
0.000290699
-3.85682e-05
0.000396285
0.000390889
0.000520947
0.000856057
0.000664909
0.0013519
0.000828154
0.00187389
0.00101045
0.00241783
0.00121137
0.00297968
0.00143029
0.00355551
0.00166639
0.00414141
0.00191869
0.00473348
0.00218602
0.00532781
0.00246706
0.00592053
0.00276033
0.00650777
0.00306421
0.00708575
0.00337701
0.00765072
0.00369691
0.00819896
0.00402206
0.00872677
0.00435053
0.00923031
0.00468026
0.0097055
0.00500878
0.0101488
0.0105563
0.00533269
-2.72894e-06
-0.00043203
-9.92552e-06
-0.000977855
-1.81269e-05
-0.00127753
-2.34981e-05
-0.00139869
-2.23404e-05
-0.00138613
-1.13945e-05
-0.00126965
1.20631e-05
-0.00107041
5.02287e-05
-0.000803748
0.000104809
-0.000481022
0.000177079
-0.000110838
0.000267939
0.000300029
0.000377967
0.000746028
0.000507462
0.0012224
0.000656478
0.00172487
0.00082485
0.00224945
0.00101222
0.00279232
0.00121802
0.00334971
0.00144152
0.00391791
0.00168182
0.00449318
0.00193785
0.00507179
0.00220836
0.00565002
0.00249197
0.00622416
0.00278717
0.00679055
0.00309232
0.00734557
0.00340569
0.0078856
0.00372543
0.00840702
0.00404961
0.00890614
0.00437606
0.00937904
0.00470216
0.00982271
0.0102342
0.00502425
-5.70067e-06
-0.000426329
-1.97872e-05
-0.000963768
-3.75779e-05
-0.00125974
-5.43819e-05
-0.00138189
-6.59144e-05
-0.0013746
-6.85029e-05
-0.00126706
-5.9127e-05
-0.00107978
-3.53723e-05
-0.000827502
4.63236e-06
-0.000521026
6.22917e-05
-0.000168497
0.00013861
0.000223711
0.000234254
0.000650384
0.000349598
0.00110706
0.000484768
0.0015897
0.000639667
0.00209455
0.000813998
0.00261799
0.00100728
0.00315643
0.00121884
0.00370634
0.00144787
0.00426415
0.00169337
0.00482629
0.00195418
0.0053892
0.00222902
0.00594933
0.00251644
0.00650314
0.00281487
0.00704713
0.00312264
0.00757783
0.0034379
0.00809176
0.00375867
0.00858537
0.00408268
0.00905503
0.00440712
0.00949826
0.00991325
0.00472811
-8.81641e-06
-0.000417512
-3.00101e-05
-0.000942574
-5.75929e-05
-0.00123215
-8.59794e-05
-0.0013535
-0.000110287
-0.00135029
-0.00012643
-0.00125092
-0.000131095
-0.00107512
-0.000121654
-0.000836943
-9.60737e-05
-0.000546606
-5.2822e-05
-0.000211749
9.21141e-06
0.000161677
9.07817e-05
0.000568814
0.000192343
0.00100549
0.000314094
0.00146795
0.00045601
0.00195264
0.000617861
0.00245613
0.000799235
0.00297506
0.000999547
0.00350603
0.00121805
0.00404565
0.00145382
0.00459052
0.00170581
0.00513722
0.00197278
0.00568235
0.00225338
0.00622254
0.0025461
0.00675441
0.00284928
0.00727465
0.00316109
0.00777995
0.00347948
0.00826698
0.00380206
0.00873245
0.00412581
0.00917451
0.00959244
0.00444662
-1.20444e-05
-0.000405468
-4.04912e-05
-0.000914127
-7.79735e-05
-0.00119467
-0.000117983
-0.00131349
-0.000155036
-0.00131324
-0.000184638
-0.00122131
-0.00020319
-0.00105657
-0.000207858
-0.000832275
-0.000196452
-0.000558013
-0.000167311
-0.000240889
-0.000119223
0.000113588
-5.13414e-05
0.000500933
3.687e-05
0.000917283
0.000145687
0.00135913
0.000275156
0.00182317
0.000425119
0.00230617
0.000595238
0.00280494
0.000785003
0.00331626
0.000993741
0.00383691
0.00122062
0.00436364
0.00146465
0.00489318
0.0017247
0.0054223
0.00199947
0.00594776
0.00228751
0.00646637
0.00258719
0.00697497
0.00289666
0.00747048
0.0032138
0.00794984
0.00353608
0.00841017
0.00386028
0.00885032
0.00927068
0.00418204
-1.53477e-05
-0.00039012
-5.1114e-05
-0.000878361
-9.84974e-05
-0.00114729
-0.000150052
-0.00126194
-0.000199694
-0.0012636
-0.000242533
-0.00117847
-0.000274695
-0.0010244
-0.000293148
-0.000813821
-0.00029555
-0.000555611
-0.000280121
-0.000256319
-0.000245542
7.90094e-05
-0.000190878
0.000446268
-0.000115507
0.000841912
-1.90738e-05
0.0012627
9.85417e-05
0.00170555
0.000237256
0.00216746
0.000396807
0.00264539
0.000576761
0.00313631
0.000776524
0.00363715
0.000995343
0.00414482
0.00123231
0.00465621
0.00148638
0.00516824
0.00175632
0.00567783
0.00204072
0.00618196
0.002338
0.0066777
0.00264628
0.00716219
0.00296337
0.00763276
0.00328658
0.00808695
0.0036125
0.0085244
0.00894665
0.00393654
-1.86849e-05
-0.000371435
-6.17496e-05
-0.000835296
-0.000118921
-0.00109012
-0.000181813
-0.00119905
-0.000243753
-0.00120166
-0.000299468
-0.00112276
-0.000344827
-0.000979044
-0.000376611
-0.000782037
-0.000392334
-0.000539888
-0.000390099
-0.000258554
-0.000368486
5.73963e-05
-0.000326468
0.00040425
-0.000263336
0.00077878
-0.000178658
0.00117802
-7.22333e-05
0.00159913
5.59292e-05
0.00203929
0.000205644
0.00249568
0.000376555
0.0029654
0.000568148
0.00344556
0.000779752
0.00393321
0.00101055
0.00442542
0.00125955
0.00491923
0.00152563
0.00541175
0.00180743
0.00590016
0.00210339
0.00638174
0.00241162
0.00685396
0.00272988
0.00731451
0.00305533
0.00776149
0.00338436
0.00819537
0.00861887
0.00371214
-2.20107e-05
-0.000349425
-7.22583e-05
-0.000785048
-0.000138982
-0.00102339
-0.000212866
-0.00112516
-0.000286668
-0.00112785
-0.000354756
-0.00105467
-0.000412753
-0.000921046
-0.000457272
-0.000737518
-0.00048569
-0.000511469
-0.000496001
-0.000248244
-0.000486687
4.80824e-05
-0.000456629
0.000374191
-0.000405034
0.000727185
-0.000331385
0.00110437
-0.000235408
0.00150315
-0.000117032
0.00192092
2.36356e-05
0.00235501
0.000186315
0.00280272
0.000370568
0.0032613
0.000575808
0.00372797
0.000801298
0.00419993
0.00104615
0.00467438
0.00130929
0.00514861
0.00158945
0.00562
0.00188511
0.00608608
0.00219441
0.00654466
0.00251502
0.00699389
0.00284403
0.00743248
0.00317762
0.00786178
0.00828574
0.00351075
-2.52763e-05
-0.000324148
-8.24918e-05
-0.000727833
-0.000158403
-0.000947483
-0.000242791
-0.00104077
-0.000327869
-0.00104278
-0.000407667
-0.000974873
-0.000477591
-0.000851122
-0.000534093
-0.000681016
-0.000574432
-0.000471131
-0.000596496
-0.000226179
-0.000598677
5.02624e-05
-0.000579763
0.000355278
-0.000538878
0.0006863
-0.000475425
0.00104092
-0.000389052
0.00141678
-0.000279608
0.00181147
-0.000147129
0.00222253
8.18156e-06
0.00264741
0.00018596
0.00308352
0.0003857
0.00352823
0.000606748
0.00397888
0.000848296
0.00443283
0.00110937
0.00488754
0.00138877
0.00534059
0.00168506
0.00578979
0.00199641
0.00623331
0.0023205
0.0066698
0.00265433
0.00709864
0.00299394
0.00752217
0.0079456
0.00333408
-2.84306e-05
-0.000295718
-9.22955e-05
-0.000663968
-0.000176898
-0.00086288
-0.000271152
-0.000946519
-0.000366761
-0.000947168
-0.000457446
-0.000884187
-0.000538417
-0.000770151
-0.000605988
-0.000613445
-0.000657307
-0.000419812
-0.000690172
-0.000193315
-0.000702884
6.29745e-05
-0.000694149
0.000346543
-0.000663008
0.000655158
-0.000608785
0.000986698
-0.000531051
0.00133904
-0.00042958
0.00171
-0.000304336
0.00209729
-0.000155457
0.00249853
1.67669e-05
0.0029113
0.000211899
0.0033331
0.000429362
0.00376142
0.000668431
0.00419376
0.000928218
0.00462775
0.00120763
0.00506117
0.00150533
0.0054921
0.00181956
0.00591908
0.00214807
0.00634129
0.00248787
0.00675885
0.00283489
0.00717515
0.00759677
0.00318372
-3.14211e-05
-0.000264297
-0.000101511
-0.000593878
-0.000194174
-0.000770218
-0.000297505
-0.000843188
-0.000402736
-0.000841936
-0.000503317
-0.000783606
-0.000594282
-0.000679185
-0.000671827
-0.0005359
-0.000733008
-0.000358631
-0.00077554
-0.000150783
-0.000797646
8.508e-05
-0.000797952
0.000346848
-0.000775421
0.000632627
-0.000729304
0.000940581
-0.000659096
0.00126884
-0.000564501
0.00161541
-0.000445419
0.0019782
-0.000301927
0.00235504
-0.000134256
0.00274363
5.72155e-05
0.00314163
0.000271973
0.00354666
0.000509362
0.00395638
0.00076858
0.00436854
0.00104864
0.00478111
0.00134833
0.00519242
0.00166604
0.00560136
0.00199967
0.00600766
0.00234634
0.00641219
0.002702
0.0068195
0.00723765
0.00306112
-3.41947e-05
-0.000230102
-0.00010998
-0.000518092
-0.000209937
-0.000670262
-0.000321402
-0.000731723
-0.000435184
-0.000728154
-0.000544493
-0.000674297
-0.000644215
-0.000579462
-0.000730451
-0.000449665
-0.00080018
-0.000288901
-0.000851049
-9.99151e-05
-0.000881209
0.00011524
-0.000889217
0.000354857
-0.000873968
0.000617378
-0.000834642
0.000901255
-0.000770663
0.00120486
-0.000681674
0.00152642
-0.000567518
0.00186405
-0.000428222
0.00221574
-0.000263974
0.00257938
-7.51111e-05
0.00295277
0.000137888
0.00333366
0.000374416
0.00371985
0.000633735
0.00410922
0.000914957
0.00449989
0.001217
0.00489037
0.00153849
0.00527987
0.00187758
0.00566858
0.00223164
0.00605812
0.00259686
0.00645428
0.00686684
0.00296768
-3.66992e-05
-0.000193403
-0.000117548
-0.000437244
-0.000223898
-0.000563911
-0.000342404
-0.000613217
-0.000463499
-0.000607058
-0.000580188
-0.000557608
-0.000687242
-0.000472408
-0.000780683
-0.000356224
-0.000857435
-0.00021215
-0.000915088
-4.22622e-05
-0.000951738
0.00015189
-0.000965882
0.000369001
-0.000956356
0.000607851
-0.000922274
0.000867174
-0.000863002
0.00114558
-0.000778127
0.00144154
-0.000667448
0.00175337
-0.000530951
0.00207925
-0.000368802
0.00241723
-0.000181323
0.00276529
3.10104e-05
0.00312133
0.000267598
0.00348326
0.000527718
0.0038491
0.000810542
0.00421706
0.00111512
0.00458579
0.00144033
0.00495467
0.00178469
0.00532421
0.00214613
0.00569668
0.00252133
0.00607907
0.00648324
0.00290493
-3.88851e-05
-0.000154518
-0.000124064
-0.000352065
-0.000235782
-0.000452193
-0.000360086
-0.000488914
-0.000487091
-0.000480053
-0.000609635
-0.000435064
-0.000722397
-0.000359646
-0.000821347
-0.000257275
-0.000903368
-0.000130128
-0.000966014
2.03828e-05
-0.00100734
0.000193211
-0.00102579
0.000387453
-0.00102015
0.000602216
-0.000989497
0.000836518
-0.000933132
0.00108922
-0.000850602
0.00135901
-0.000741669
0.00164444
-0.000606297
0.00194387
-0.000444644
0.00225558
-0.000257049
0.00257769
-4.40191e-05
0.0029083
0.000193781
0.00324546
0.000455582
0.0035873
0.000740525
0.00393212
0.00104772
0.0042786
0.00137624
0.00462614
0.00172513
0.00497533
0.00209312
0.00532869
0.00247799
0.0056942
0.00608628
0.00287496
-4.07066e-05
-0.000113811
-0.000129391
-0.000263381
-0.000245329
-0.000336255
-0.000374048
-0.000360194
-0.000505402
-0.000348699
-0.000632095
-0.000308371
-0.000748744
-0.000242997
-0.000851285
-0.000154734
-0.000936584
-4.48295e-05
-0.00100217
8.59668e-05
-0.00104606
0.000237107
-0.0010667
0.000408085
-0.00106281
0.000598334
-0.00103344
0.000807145
-0.000977851
0.00103363
-0.000895554
0.00127671
-0.000786284
0.00153517
-0.000649995
0.00180759
-0.000486853
0.00209244
-0.000297238
0.00238808
-8.17337e-05
0.00269279
0.000158885
0.00300484
0.000423683
0.0033225
0.000711631
0.00364417
0.00102172
0.00396852
0.00135309
0.00429477
0.00170521
0.00462321
0.00207794
0.00495595
0.00247103
0.00530111
0.00567599
0.00288132
-4.21232e-05
-7.16882e-05
-0.000133404
-0.0001721
-0.000252305
-0.000217355
-0.000383927
-0.000228572
-0.000517915
-0.000214712
-0.000646876
-0.000179409
-0.000765392
-0.000124481
-0.000869386
-5.07401e-05
-0.000955718
4.15027e-05
-0.00102191
0.00015216
-0.00106598
0.000281179
-0.00108635
0.000428446
-0.00108172
0.000593713
-0.00105112
0.00077654
-0.00099378
0.000976289
-0.000909191
0.00119213
-0.000797069
0.00142304
-0.000657359
0.00166788
-0.000490243
0.00192532
-0.00029615
0.00219398
-7.57588e-05
0.0024724
0.000169988
0.00275909
0.000439908
0.00305258
0.000732631
0.00335145
0.00104675
0.0036544
0.00138108
0.00396043
0.00173515
0.00426914
0.00210981
0.00458129
0.00250782
0.0049031
0.0052527
0.00293111
-4.31006e-05
-2.85876e-05
-0.000135999
-7.92018e-05
-0.000256509
-9.68439e-05
-0.000389402
-9.56799e-05
-0.000524169
-7.99445e-05
-0.000653355
-5.02227e-05
-0.000771526
-6.30986e-06
-0.000874611
5.23446e-05
-0.00095948
0.000126372
-0.00102367
0.000216346
-0.0010652
0.000322709
-0.00108248
0.000445733
-0.00107425
0.00058548
-0.00103949
0.000741779
-0.000977435
0.000914234
-0.000887558
0.00110225
-0.00076956
0.00130505
-0.000623378
0.00152169
-0.000449198
0.00175114
-0.000247478
0.00199226
-1.89736e-05
0.0022439
0.000235227
0.00250489
0.000513677
0.00277413
0.000814577
0.00305055
0.00113586
0.00333312
0.0014755
0.00362079
0.00183215
0.00391249
0.00220628
0.00420716
0.00260296
0.00450643
0.00481405
0.00304161
-4.36117e-05
1.5024e-05
-0.000137089
1.42758e-05
-0.000257776
2.38424e-05
-0.000390205
3.67498e-05
-0.000523772
5.36224e-05
-0.000650987
7.69925e-05
-0.000766421
0.000109124
-0.000866023
0.000151947
-0.000946686
0.000207035
-0.00100597
0.000275627
-0.00104191
0.000358657
-0.00105296
0.00045678
-0.00103784
0.000570363
-0.00099556
0.000699494
-0.000925347
0.00084402
-0.000826669
0.00100357
-0.000699214
0.00117759
-0.000542901
0.00136538
-0.000357892
0.00156613
-0.000144623
0.00177899
9.61583e-05
0.00200312
0.000363348
0.0022377
0.00065542
0.00248206
0.000970377
0.00273559
0.00130575
0.00299774
0.0016588
0.00326775
0.00202716
0.00354413
0.00240934
0.00382498
0.00280875
0.00410702
0.00326148
0.00436131
0.0092783
0.0849044
-0.0850961
0.0089808
0.0865859
-0.0862884
0.00848097
0.0843892
-0.0838894
0.00793548
0.0807491
-0.0802036
0.00744521
0.0767951
-0.0763049
0.00703658
0.0730884
-0.0726798
0.00670129
0.0698011
-0.0694658
0.00641982
0.0669428
-0.0666613
0.00617244
0.0644829
-0.0642355
0.00594414
0.0623891
-0.0621608
0.0057239
0.0606494
-0.0604291
0.00550534
0.0592567
-0.0590382
0.00528462
0.0581985
-0.0579777
0.00505954
0.0574464
-0.0572214
0.00482848
0.0569568
-0.0567258
0.00459031
0.0566785
-0.0564404
0.0043444
0.0565612
-0.0563153
0.00409015
0.0565607
-0.0563065
0.0038275
0.0566433
-0.0563806
0.00355694
0.056779
-0.0565085
0.00327893
0.0569506
-0.0566726
0.00299419
0.0571399
-0.0568552
0.00270361
0.0573353
-0.0570447
0.00240759
0.0575279
-0.0572319
0.00210688
0.0577071
-0.0574064
0.0018013
0.0578696
-0.057564
0.00149101
0.0580115
-0.0577012
0.00117596
0.0581367
-0.0578216
0.000857191
0.0582462
-0.0579274
0.0583063
-0.0579875
0.00916088
0.0845689
0.0089658
0.086781
0.00853409
0.0848209
0.00802868
0.0812545
0.00756114
0.0772627
0.00716561
0.0734839
0.00683861
0.0701281
0.00656268
0.0672187
0.00631869
0.0647269
0.00609176
0.062616
0.00587128
0.0608699
0.00565102
0.059477
0.00542737
0.0584221
0.00519837
0.0576754
0.00496258
0.0571926
0.00471895
0.0569222
0.00446681
0.0568133
0.00420565
0.0568219
0.00393567
0.0569133
0.00365705
0.0570577
0.00337054
0.0572371
0.0030769
0.0574336
0.00277675
0.0576355
0.00247109
0.0578336
0.00216001
0.0580182
0.00184402
0.0581856
0.00152282
0.0583327
0.00119672
0.0584628
0.000866739
0.0585762
0.0586366
0.00902506
0.0840903
0.0089353
0.0868708
0.00857535
0.0851809
0.00811303
0.0817168
0.00767033
0.0777054
0.00728923
0.073865
0.00697143
0.0704459
0.00670178
0.0674883
0.00646197
0.0649667
0.00623719
0.0628408
0.00601718
0.0610899
0.00579582
0.0596984
0.00556974
0.0586482
0.00533717
0.057908
0.00509686
0.0574329
0.00484791
0.0571711
0.00458962
0.0570716
0.00432158
0.0570899
0.00404425
0.0571906
0.00375754
0.0573444
0.0034625
0.0575321
0.0031599
0.0577362
0.00285018
0.0579452
0.00253479
0.058149
0.00221333
0.0583396
0.00188689
0.058512
0.00155476
0.0586648
0.00121758
0.0587999
0.000876355
0.0589174
0.0589783
0.00887197
0.0834706
0.00888965
0.0868531
0.00860464
0.0854659
0.00818825
0.0821332
0.0077724
0.0781212
0.00740705
0.0742304
0.00709935
0.0707536
0.00683676
0.0677509
0.00660195
0.0652015
0.00638019
0.0630626
0.00616142
0.0613086
0.00593963
0.0599201
0.00571164
0.0588762
0.00547589
0.0581438
0.00523131
0.0576775
0.00497717
0.0574253
0.0047128
0.057336
0.00443797
0.0573647
0.00415317
0.0574754
0.0038584
0.0576392
0.00355481
0.0578357
0.00324312
0.0580479
0.00292395
0.0582643
0.00259861
0.0584743
0.00226692
0.0586713
0.00192984
0.0588491
0.00158683
0.0590078
0.00123853
0.0591482
0.00088602
0.0592699
0.0593316
0.00870293
0.0827132
0.00882942
0.0867266
0.00862204
0.0856733
0.00825418
0.082501
0.00786702
0.0785084
0.00751863
0.0745787
0.00722195
0.0710503
0.00696724
0.0680056
0.00673829
0.0654304
0.0065205
0.0632804
0.0063038
0.0615253
0.00608229
0.0601417
0.00585297
0.0591055
0.00561447
0.0583823
0.0053659
0.0579261
0.00510669
0.0576845
0.00483634
0.0576063
0.00455478
0.0576463
0.00426245
0.0577677
0.00395964
0.057942
0.00364744
0.0581479
0.0033266
0.0583687
0.00299798
0.058593
0.0026626
0.0588097
0.00232069
0.0590132
0.00197288
0.0591969
0.001619
0.0593617
0.00125956
0.0595077
0.000895723
0.0596338
0.0596966
0.00851943
0.0818221
0.0087554
0.0864906
0.00862769
0.085801
0.00831062
0.0828181
0.00795388
0.0788651
0.0076236
0.074909
0.00733879
0.0713351
0.00709284
0.0682516
0.00687068
0.0656526
0.00665781
0.0634932
0.00644411
0.061739
0.00622367
0.0603621
0.00599362
0.0593356
0.00575282
0.0586231
0.00550057
0.0581783
0.00523646
0.0579486
0.00496025
0.0578825
0.00467199
0.0579346
0.00437213
0.0580676
0.00406125
0.0582528
0.00374037
0.0584688
0.00341038
0.0586987
0.0030722
0.0589311
0.00272677
0.0591551
0.00237458
0.0593654
0.00201606
0.0595554
0.00165125
0.0597265
0.00128065
0.0598783
0.00090547
0.0600089
0.0600732
0.00832309
0.0808025
0.00866852
0.0861452
0.00862194
0.0858476
0.00835753
0.0830825
0.00803272
0.0791899
0.0077216
0.0752202
0.0074495
0.0716072
0.00721317
0.0684879
0.00699876
0.065867
0.00679186
0.0637001
0.00658212
0.0619488
0.00636359
0.0605807
0.00613347
0.0595657
0.00589085
0.0588657
0.00563525
0.0584339
0.00536647
0.0582174
0.00508449
0.0581645
0.00478957
0.0582295
0.00448221
0.0583749
0.00416322
0.0585718
0.00383363
0.0587984
0.00349442
0.0590379
0.00314663
0.0592789
0.00279113
0.0595106
0.00242859
0.059728
0.00205935
0.0599247
0.00168359
0.0601023
0.00130181
0.0602601
0.000915262
0.0603955
0.0604614
0.00811569
0.07966
0.00856987
0.085691
0.00860525
0.0858122
0.00839496
0.0832928
0.00810332
0.0794816
0.0078123
0.0755112
0.00755368
0.0718658
0.00732784
0.0687138
0.00712217
0.0660727
0.00692232
0.0639
0.00671759
0.0621535
0.00650186
0.0607964
0.0062724
0.0597951
0.00602847
0.0591096
0.00576987
0.0586925
0.00549667
0.0584906
0.00520905
0.0584521
0.00490752
0.058531
0.00459268
0.0586898
0.00426554
0.058899
0.0039272
0.0591368
0.00357874
0.0593864
0.00322127
0.0596364
0.00285566
0.0598762
0.00248271
0.0601009
0.00210273
0.0603047
0.00171601
0.060489
0.00132303
0.060653
0.000925093
0.0607934
0.0608615
0.00789914
0.0784012
0.00846072
0.0851294
0.00857822
0.0856947
0.00842311
0.0834479
0.00816559
0.0797391
0.00789542
0.0757814
0.00765099
0.0721103
0.00743647
0.0689283
0.00724057
0.0662686
0.00704888
0.0640917
0.00685026
0.0623521
0.00663829
0.0610084
0.00641024
0.0600232
0.00616555
0.0593543
0.00590436
0.0589537
0.00562699
0.0587679
0.00533389
0.0587452
0.00502581
0.0588391
0.00470354
0.059012
0.00436822
0.0592343
0.0040211
0.0594839
0.00366333
0.0597441
0.00329612
0.0600036
0.00292036
0.060252
0.00253695
0.0604843
0.0021462
0.0606954
0.00174849
0.0608867
0.0013443
0.0610572
0.000934963
0.0612028
0.0612733
0.00767548
0.0770331
0.00834249
0.0844624
0.00854163
0.0854956
0.00844226
0.0835473
0.0082195
0.0799618
0.00797075
0.0760301
0.00774109
0.0723399
0.0075387
0.0691307
0.0073536
0.0664537
0.00717124
0.064274
0.00697986
0.0625435
0.00677264
0.0612156
0.00654682
0.060249
0.00630198
0.0595992
0.00603861
0.0592171
0.00575736
0.0590492
0.00545897
0.0590436
0.00514443
0.0591536
0.00481476
0.0593417
0.00447126
0.0595778
0.00411532
0.0598398
0.00374819
0.0601113
0.00337119
0.0603806
0.00298523
0.0606379
0.00259131
0.0608782
0.00218977
0.0610969
0.00178105
0.0612954
0.00136563
0.0614727
0.000944872
0.0616235
0.0616969
0.00744683
0.075563
0.00821669
0.0836925
0.00849639
0.0852159
0.00845285
0.0835908
0.00826513
0.0801496
0.00803814
0.0762571
0.00782371
0.0725543
0.0076342
0.0693202
0.00746091
0.066627
0.00728906
0.0644459
0.00710611
0.0627265
0.0069047
0.061417
0.00668194
0.0604717
0.0064376
0.0598435
0.00617251
0.0594822
0.0058877
0.059334
0.00558422
0.0593471
0.00526333
0.0594745
0.00492632
0.0596787
0.00457465
0.0599295
0.00420986
0.0602046
0.00383333
0.0604878
0.00344648
0.0607675
0.00305028
0.0610342
0.00264579
0.0612827
0.00223343
0.0615093
0.00181369
0.0617151
0.00138703
0.0618993
0.000954832
0.0620557
0.0621323
0.00721539
0.0739986
0.008085
0.0828229
0.00844355
0.0848573
0.00845547
0.0835789
0.00830268
0.0803023
0.00809754
0.0764622
0.00789865
0.0727532
0.00772266
0.0694962
0.00756219
0.0667874
0.00740203
0.0646061
0.00722872
0.0628998
0.00703421
0.0616115
0.00681542
0.0606905
0.00657225
0.0600867
0.00630594
0.0597485
0.00601791
0.059622
0.00570957
0.0596554
0.00538247
0.0598016
0.00503819
0.060023
0.00467837
0.0602893
0.00430472
0.0605783
0.00391876
0.0608737
0.003522
0.0611642
0.0031155
0.0614406
0.0027004
0.0616978
0.00227719
0.0619325
0.00184639
0.0621459
0.0014085
0.0623372
0.000964853
0.0624994
0.0625796
0.00698343
0.0723479
0.00794915
0.0818572
0.00838433
0.0844221
0.00845081
0.0835124
0.00833249
0.0804207
0.00814902
0.0766457
0.00796577
0.0729365
0.00780386
0.0696581
0.00765713
0.0669342
0.00750984
0.0647534
0.00734741
0.0630622
0.00716092
0.061798
0.00694702
0.0609044
0.00670576
0.0603279
0.00643876
0.0600155
0.00614788
0.0599129
0.00583494
0.0599684
0.0055018
0.0601348
0.00515033
0.0603745
0.0047824
0.0606572
0.00439988