/*--------------------------------*- C++ -*----------------------------------*\
  =========                 |
  \\      /  F ield         | OpenFOAM: The Open Source CFD Toolbox
   \\    /   O peration     | Website:  https://openfoam.org
    \\  /    A nd           | Version:  7
     \\/     M anipulation  |
\*---------------------------------------------------------------------------*/
FoamFile
{
    version     2.0;
    format      ascii;
    class       surfaceScalarField;
    location    "2";
    object      phi;
}
// * * * * * * * * * * * * * * * * * * * * * * * * * * * * * * * * * * * * * //

dimensions      [0 3 -1 0 0 0 0];

internalField   nonuniform List<scalar> 
35640
(
-3.38465e-05
0.00232591
-0.00229207
-0.000113569
0.00542026
-0.00534054
-0.000225211
0.00744584
-0.0073342
-0.000349147
0.00857144
-0.0084475
-0.000464142
0.00900257
-0.00888758
-0.000550484
0.00892145
-0.00883511
-0.000591707
0.00847217
-0.00843094
-0.000575264
0.00776401
-0.00778045
-0.00049266
0.00688041
-0.00696302
-0.000339124
0.00588713
-0.00604067
-0.000113349
0.00483817
-0.00506394
0.000182849
0.00377886
-0.00407506
0.000545062
0.00274724
-0.00310945
0.000966801
0.00177433
-0.00219607
0.00144002
0.000884118
-0.00135734
0.00195574
9.34362e-05
-0.000609153
0.00250464
-0.000587635
3.87304e-05
0.00307759
-0.00115527
0.000582322
0.00366603
-0.0016109
0.00102245
0.00426235
-0.00196014
0.00136383
0.00486002
-0.00221164
0.00161396
0.00545371
-0.00237595
0.00178226
0.00603924
-0.0024646
0.00187906
0.00661354
-0.00248927
0.00191498
0.00717445
-0.00246122
0.0019003
0.00772068
-0.00239081
0.00184458
0.00825155
-0.00228724
0.00175636
0.00876688
-0.00215831
0.00164299
0.00926674
-0.00200796
0.0015081
-0.0018294
0.00975111
0.00134504
-2.14294e-05
0.00234734
-7.6581e-05
0.00547542
-0.000156999
0.00752626
-0.000246896
0.00866133
-0.000327335
0.00908301
-0.000379909
0.00897403
-0.000388833
0.00848109
-0.000341871
0.00771705
-0.000230665
0.00676921
-5.06188e-05
0.00570709
0.000199414
0.00458813
0.000517509
0.00346076
0.000899112
0.00236564
0.00133757
0.00133588
0.00182468
0.000397002
0.00235136
-0.000433246
0.00290826
-0.00114454
0.00348631
-0.00173332
0.00407712
-0.00220171
0.00467329
-0.00255632
0.00526859
-0.00280694
0.00585802
-0.00296538
0.00643778
-0.00304436
0.00700517
-0.00305666
0.00755841
-0.00301446
0.00809653
-0.00292893
0.00861916
-0.00280986
0.00912638
-0.00266552
0.00961864
-0.00250022
-0.00230711
0.0100963
-9.44109e-06
0.00235678
-3.96992e-05
0.00550567
-8.79371e-05
0.0075745
-0.000142343
0.00871574
-0.000186348
0.00912702
-0.000202951
0.00899063
-0.000177185
0.00845532
-9.73433e-05
0.00763721
4.46364e-05
0.00662723
0.000253144
0.00549858
0.00052914
0.00431214
0.000870481
0.00311942
0.00127239
0.00196373
0.001728
0.00088027
0.00222893
-0.000103938
0.00276605
-0.000970364
0.00333003
-0.00170852
0.00391192
-0.00231521
0.00450352
-0.00279332
0.00509776
-0.00315055
0.00568879
-0.00339797
0.00627206
-0.00354865
0.0068442
-0.0036165
0.00740291
-0.00361537
0.00794684
-0.00355838
0.00847534
-0.00345743
0.00898838
-0.0033229
0.00948633
-0.00316348
0.00996993
-0.00298382
-0.0027772
0.01044
2.26815e-06
0.00235452
-3.33586e-06
0.00551128
-1.91275e-05
0.00759029
-3.70073e-05
0.00873362
-4.29843e-05
0.009133
-2.17314e-05
0.00896938
4.07602e-05
0.00839283
0.000155577
0.00752239
0.000330365
0.00645244
0.000569196
0.00525975
0.000872725
0.00400861
0.00123852
0.00275363
0.0016615
0.00154074
0.00213456
0.000407213
0.00264918
-0.000618559
0.00319614
-0.00151733
0.00376618
-0.00227857
0.00435053
-0.00289955
0.00494132
-0.00338411
0.00553188
-0.00374111
0.00611683
-0.00398293
0.00669211
-0.00412393
0.00725485
-0.00417924
0.00780325
-0.00416377
0.00833635
-0.00409149
0.00885392
-0.00397499
0.00935623
-0.00382521
0.00984392
-0.00365117
0.010318
-0.00345789
-0.00323892
0.0107797
1.31675e-05
0.00234135
3.16834e-05
0.00549276
4.83321e-05
0.00757364
6.75399e-05
0.00871442
0.000100661
0.00909988
0.000161299
0.00890875
0.000262279
0.00829185
0.000413931
0.00737074
0.000623371
0.006243
0.000894218
0.0049889
0.0012267
0.00367613
0.00161801
0.00236232
0.00206274
0.00109601
0.00255347
-8.35153e-05
0.0030815
-0.00114659
0.00363761
-0.00207343
0.00421265
-0.0028536
0.00479809
-0.003485
0.00538648
-0.0039725
0.00597165
-0.00432627
0.00654877
-0.00456005
0.00711435
-0.00468952
0.00766609
-0.00473098
0.00820269
-0.00470037
0.00872367
-0.00461247
0.00922917
-0.0044805
0.00971978
-0.00431582
0.0101964
-0.0041278
0.0106603
-0.00392179
-0.00369174
0.0111131
2.33862e-05
0.00231796
6.50364e-05
0.00545111
0.000113527
0.00752515
0.000169875
0.00865807
0.000242761
0.00902699
0.000343874
0.00880763
0.000484763
0.00815097
0.000674854
0.00718065
0.000920538
0.00599732
0.00122485
0.00468459
0.00158754
0.00331345
0.00200528
0.00194457
0.00247225
0.000629046
0.0029807
-0.000591965
0.00352179
-0.00168768
0.00408628
-0.00263793
0.00466519
-0.00343251
0.00525035
-0.00407016
0.0058348
-0.00455695
0.00641296
-0.00490443
0.00698064
-0.00512773
0.00753498
-0.00524386
0.00807428
-0.00527029
0.00859782
-0.0052239
0.00910559
-0.00512023
0.00959811
-0.00497303
0.0100763
-0.004794
0.0105413
-0.00459279
0.0109945
-0.00437504
-0.00413522
0.011438
3.2669e-05
0.00228529
9.61914e-05
0.00538759
0.000175595
0.00744575
0.000268666
0.008565
0.000381493
0.00891417
0.0005238
0.00866533
0.000705652
0.00796912
0.000935409
0.00695089
0.00121864
0.00571409
0.00155767
0.00434556
0.00195156
0.00291955
0.00239645
0.00149969
0.00288599
0.000139506
0.0034121
-0.00111808
0.00396578
-0.00224136
0.00453781
-0.00320996
0.00511946
-0.00401416
0.005703
-0.00465371
0.00628205
-0.005136
0.0068517
-0.00547408
0.00740848
-0.00568451
0.00795023
-0.00578561
0.00847591
-0.00579597
0.00898536
-0.00573336
0.00947906
-0.00561394
0.00995793
-0.00545189
0.0104232
-0.00525923
0.0108761
-0.00504574
0.0113184
-0.00481735
-0.00456914
0.0117523
4.09182e-05
0.00224437
0.000124763
0.00530374
0.000233713
0.0073368
0.000362683
0.00843603
0.000515207
0.00876165
0.000698954
0.00848158
0.000922422
0.00774565
0.00119277
0.00668055
0.00151455
0.0053923
0.00188923
0.00397088
0.00231513
0.00249365
0.00278767
0.00102715
0.00329995
-0.000372773
0.00384352
-0.00166165
0.00440922
-0.00280706
0.0049879
-0.00378864
0.00557114
-0.00459741
0.00615176
-0.00523432
0.00672405
-0.00570829
0.00728383
-0.00603387
0.00782844
-0.00622912
0.00835647
-0.00631364
0.00886757
-0.00630707
0.00936215
-0.00622794
0.0098412
-0.00609298
0.010306
-0.00591668
0.010758
-0.00571123
0.0111987
-0.0054865
0.01163
-0.00524864
-0.00499344
0.0120543
4.80338e-05
0.00219634
0.000150428
0.00520135
0.000287237
0.00719999
0.000450855
0.00827241
0.000642385
0.00857011
0.000867421
0.00825655
0.00113278
0.00748029
0.00144427
0.00636906
0.0018053
0.00503127
0.00221634
0.00355984
0.00267479
0.0020352
0.00317528
0.000526661
0.00371029
-0.000907787
0.00427098
-0.00222234
0.004848
-0.00338409
0.00543236
-0.004373
0.00601605
-0.00518109
0.00659249
-0.00581076
0.00715673
-0.00627253
0.00770546
-0.0065826
0.00823683
-0.00676049
0.00875023
-0.00682705
0.00924603
-0.00680287
0.00972524
-0.00670715
0.0101893
-0.00655703
0.0106398
-0.00636722
0.0110786
-0.00614996
0.0115072
-0.00591515
0.0119276
-0.00566905
-0.00540827
0.0123425
5.39685e-05
0.00214237
0.000172967
0.00508235
0.000335661
0.00703729
0.000532319
0.00807575
0.000761778
0.00834066
0.00102756
0.00799076
0.00133473
0.00717312
0.00168758
0.00601621
0.00208826
0.0046306
0.00253606
0.00311204
0.00302737
0.0015439
0.00355589
-1.86326e-06
0.00411343
-0.00146532
0.00469069
-0.00279961
0.00527823
-0.00397163
0.00586724
-0.00496201
0.00645019
-0.00576405
0.00702123
-0.0063818
0.00757627
-0.00682756
0.00811288
-0.00711921
0.00863014
-0.00727775
0.00912826
-0.00732517
0.0096083
-0.00728292
0.0100719
-0.00717073
0.0105209
-0.00700602
0.0109572
-0.00680358
0.0113829
-0.00657564
0.0117997
-0.00633197
0.0122096
-0.00607891
-0.00581396
0.0126153
5.87165e-05
0.00208365
0.000192268
0.0049488
0.000378657
0.0068509
0.000606464
0.00784795
0.000872442
0.00807468
0.00117809
0.00768512
0.00152663
0.00682458
0.00192076
0.00562208
0.00236118
0.00419017
0.00284591
0.00262731
0.00337011
0.0010197
0.0039265
-0.000558255
0.00450612
-0.00204494
0.00509924
-0.00339273
0.00569631
-0.00456871
0.00628882
-0.00555452
0.00686983
-0.00634506
0.00743429
-0.00694626
0.00797904
-0.00737232
0.00850266
-0.00764283
0.00900514
-0.00778022
0.00948754
-0.00780758
0.00995164
-0.00774702
0.0103996
-0.00761869
0.0108337
-0.00744012
0.0112562
-0.0072261
0.0116692
-0.00698867
0.0120747
-0.00673743
0.0124745
-0.00647874
-0.00621099
0.0128716
6.23048e-05
0.00202135
0.000208328
0.00480278
0.000416101
0.00664313
0.000672953
0.0075911
0.00097378
0.00777385
0.00131812
0.00734078
0.00170732
0.00643538
0.00214236
0.00518704
0.00262236
0.00371016
0.00314388
0.0021058
0.00370074
0.000462843
0.00428456
-0.00114208
0.00488556
-0.00264594
0.00549357
-0.00400073
0.00609902
-0.00517416
0.00669376
-0.00614926
0.00727156
-0.00692286
0.00782828
-0.00750298
0.00836178
-0.00790582
0.00887167
-0.00815272
0.00935892
-0.00826747
0.00982541
-0.00827407
0.0102736
-0.00819521
0.0107062
-0.00805126
0.0111258
-0.00785976
0.011535
-0.0076353
0.011936
-0.00738967
0.0123308
-0.0071322
0.0127213
-0.00686921
-0.00660003
0.0131103
6.47966e-05
0.00195655
0.000221251
0.00464632
0.000448063
0.00641632
0.000731744
0.00730741
0.00106558
0.00744002
0.00144722
0.00695914
0.00187613
0.00600647
0.00235146
0.00471171
0.00287062
0.003191
0.00342852
0.0015479
0.00401752
-0.000126155
0.00462802
-0.00175257
0.00524938
-0.00326731
0.00587104
-0.00462239
0.00648349
-0.00578661
0.00707906
-0.00674484
0.00765234
-0.00749614
0.00820019
-0.00805083
0.00872158
-0.0084272
0.00921718
-0.00864833
0.00968893
-0.00873922
0.0101395
-0.00872468
0.0105721
-0.00862777
0.0109898
-0.00846893
0.0113955
-0.00826555
0.0117922
-0.0080319
0.0121819
-0.00777943
0.0125668
-0.00751709
0.0129487
-0.00725113
-0.00698185
0.0133305
6.62876e-05
0.00189027
0.000231246
0.00448136
0.000474811
0.00617276
0.000783089
0.00699914
0.001148
0.00707511
0.00156543
0.00654171
0.00203293
0.00553897
0.00254773
0.0041969
0.00310537
0.00263337
0.00369894
0.000954327
0.00431922
-0.000746425
0.00495529
-0.00238865
0.00559567
-0.00390769
0.00622944
-0.00525617
0.00684727
-0.00640444
0.00744213
-0.00733969
0.0080095
-0.00806351
0.00854738
-0.00858871
0.00905589
-0.00893572
0.00953681
-0.00912924
0.009993
-0.00919541
0.010428
-0.00915963
0.0108454
-0.00904517
0.0112488
-0.00887237
0.0116415
-0.00865828
0.0120264
-0.00841679
0.0124058
-0.00815885
0.0127818
-0.00789303
0.013156
-0.00762541
-0.0073573
0.0135315
6.69036e-05
0.00182336
0.000238619
0.00430965
0.000496798
0.00591458
0.000827524
0.00666841
0.0012216
0.00668103
0.00167325
0.00609007
0.0021781
0.00503413
0.00273137
0.00364363
0.00332655
0.00203819
0.00395478
0.000326094
0.00460509
-0.00139674
0.00526524
-0.00304879
0.00592291
-0.00456536
0.00656693
-0.00590019
0.0071883
-0.00702581
0.00778072
-0.00793211
0.00834077
-0.00862356
0.00886764
-0.00911557
0.00936263
-0.00943071
0.00982861
-0.00959522
0.0102694
-0.00963616
0.0106891
-0.00957936
0.011092
-0.00944809
0.011482
-0.00926241
0.0118627
-0.00903891
0.0122368
-0.00879096
0.0126069
-0.00852895
0.0129749
-0.008261
0.0133425
-0.007993
-0.00772728
0.0137125
6.67949e-05
0.00175657
0.000243757
0.00413269
0.000514643
0.00564369
0.000865841
0.00631721
0.00128727
0.00625959
0.00177159
0.00560575
0.00231248
0.00449324
0.00290305
0.00305306
0.00353458
0.00140666
0.0041961
-0.000335428
0.00487481
-0.00207545
0.00555711
-0.00373109
0.00622993
-0.00523818
0.00688201
-0.00655227
0.00750482
-0.00764862
0.008093
-0.00852029
0.00864429
-0.00917485
0.00915914
-0.00963043
0.0096401
-0.00991167
0.0100911
-0.0100462
0.0105167
-0.0100618
0.0109218
-0.00998447
0.0113111
-0.00983736
0.0116887
-0.00964002
0.0120582
-0.00940848
0.0124227
-0.00915547
0.0127846
-0.00889078
0.0131456
-0.00862201
0.0135075
-0.00835487
-0.0080927
0.0138729
6.61303e-05
0.00169044
0.000247113
0.0039517
0.000529098
0.00536171
0.000899045
0.00594726
0.00134619
0.00581245
0.00186169
0.00509026
0.00243728
0.00391765
0.00306382
0.00242652
0.00373023
0.00074025
0.0044233
-0.00102849
0.00512833
-0.00278048
0.00583041
-0.00443317
0.00651584
-0.00592361
0.00717347
-0.00720989
0.00779542
-0.00827058
0.00837743
-0.0091023
0.00891853
-0.00971595
0.00942048
-0.0101324
0.00988702
-0.0103782
0.0103231
-0.0104822
0.010734
-0.0104727
0.0111253
-0.0103757
0.0115018
-0.0102139
0.0118681
-0.0100063
0.0122277
-0.00976811
0.0125837
-0.00951143
0.0129383
-0.00924539
0.0132933
-0.00897706
0.0136504
-0.00871194
-0.00845439
0.0140121
6.50897e-05
0.00162535
0.000249186
0.00376761
0.000541009
0.00506989
0.000928292
0.00555998
0.00139973
0.00534101
0.00194506
0.00454493
0.002554
0.00330871
0.00321502
0.0017655
0.00391452
4.07418e-05
0.00463697
-0.00175094
0.00536577
-0.00350928
0.00608479
-0.0051522
0.00677993
-0.00661875
0.0074403
-0.00787027
0.00805895
-0.00888923
0.00863283
-0.00967617
0.00916236
-0.0102455
0.00965062
-0.0106207
0.0101025
-0.0108301
0.0105239
-0.0109036
0.0109208
-0.0108696
0.0112991
-0.010754
0.011664
-0.0105789
0.0120201
-0.0103623
0.0123709
-0.0101189
0.0127194
-0.00985995
0.0130678
-0.00959381
0.0134178
-0.00932708
0.0137709
-0.00906503
-0.0088131
0.0141296
6.38575e-05
0.00156149
0.000250495
0.00358097
0.000551276
0.00476911
0.000954833
0.00515642
0.00144942
0.00484642
0.00202335
0.003971
0.00266424
0.00266781
0.00335804
0.0010717
0.00408853
-0.000689745
0.00483775
-0.00250016
0.0055873
-0.00425883
0.00632
-0.0058849
0.00702157
-0.00732031
0.00768169
-0.00853039
0.00829448
-0.00950202
0.0088583
-0.01024
0.00937497
-0.0107622
0.00984893
-0.0110946
0.0102861
-0.0112673
0.0106932
-0.0113107
0.0110769
-0.0112533
0.0114432
-0.0111204
0.0117976
-0.0109333
0.0121446
-0.0107093
0.0124878
-0.0104621
0.0128299
-0.0102021
0.0131731
-0.00993699
0.0135189
-0.00967287
0.0138687
-0.00941485
-0.00916941
0.0142251
6.26158e-05
0.00149888
0.000251558
0.00339203
0.000560809
0.00445985
0.000979938
0.00473729
0.00149679
0.00432957
0.00209821
0.00336959
0.00276961
0.00199641
0.00349428
0.000347038
0.00425325
-0.00144872
0.00502619
-0.0032731
0.00579301
-0.00502564
0.00653575
-0.00662764
0.00724021
-0.00802478
0.00789693
-0.0091871
0.00850131
-0.0101064
0.0090532
-0.0107919
0.00955591
-0.0112649
0.0100151
-0.0115538
0.0104377
-0.0116899
0.0108311
-0.0117041
0.0112024
-0.0116246
0.0115579
-0.0114759
0.011903
-0.0112784
0.0122421
-0.0110485
0.0125788
-0.0107988
0.0129155
-0.0105388
0.0132543
-0.0102758
0.0135966
-0.0100151
0.0139436
-0.00976193
-0.00952375
0.014298
6.15365e-05
0.00143734
0.00025287
0.0032007
0.000570479
0.00414225
0.00100483
0.00430295
0.0015433
0.0037911
0.00217119
0.00274169
0.00287157
0.00129603
0.00362491
-0.000406302
0.00440948
-0.00223329
0.00520264
-0.00406627
0.00598285
-0.00580585
0.00673166
-0.00737645
0.00743531
-0.00872843
0.00808543
-0.00983722
0.00867892
-0.0106999
0.00921719
-0.0113301
0.00970498
-0.0117526
0.0101491
-0.011998
0.0105575
-0.0120983
0.010938
-0.0120845
0.0112978
-0.0119844
0.0116436
-0.0118216
0.0119806
-0.0116154
0.0123131
-0.0113809
0.0126442
-0.0111299
0.0129765
-0.0108711
0.0133116
-0.0106109
0.0136509
-0.0103544
0.0139956
-0.0101066
-0.00987631
0.0143482
6.07745e-05
0.00137657
0.000254882
0.00300659
0.00058108
0.00381605
0.0010306
0.00385343
0.00159025
0.00323145
0.00224363
0.00208831
0.0029713
0.000568365
0.00375082
-0.00118582
0.0045577
-0.00304016
0.00536718
-0.00487575
0.00615656
-0.00659522
0.00690727
-0.00812717
0.00760633
-0.00942749
0.00824673
-0.0104776
0.008827
-0.0112802
0.00935016
-0.0118533
0.00982232
-0.0122248
0.0102514
-0.0124271
0.010646
-0.0124928
0.0110143
-0.0124529
0.0113639
-0.012334
0.0117012
-0.0121589
0.0120312
-0.0119455
0.0123582
-0.0117079
0.0126849
-0.0114567
0.0130136
-0.0111998
0.0133457
-0.010943
0.0136824
-0.0106911
0.0140248
-0.0104491
-0.0102271
0.0143756
6.04611e-05
0.00131611
0.000257979
0.00280907
0.00059329
0.00348074
0.00105818
0.00338854
0.0016387
0.00265093
0.00231657
0.00141044
0.00306964
-0.000184712
0.00387253
-0.00198871
0.00469805
-0.00386569
0.0055196
-0.0056973
0.00631368
-0.00738931
0.00706203
-0.00887552
0.00775277
-0.0101182
0.00838048
-0.0111053
0.00894543
-0.0118451
0.00945223
-0.0123601
0.00990831
-0.0126809
0.0103225
-0.0128412
0.0107039
-0.0128742
0.011061
-0.01281
0.0114015
-0.0126745
0.0117315
-0.0124889
0.0120559
-0.0122699
0.0123784
-0.0120304
0.0127017
-0.01178
0.0130276
-0.0115257
0.0133572
-0.0112727
0.0136916
-0.0110255
0.0140317
-0.0107893
-0.0105758
0.0143805
6.07012e-05
0.0012554
0.000262471
0.0026073
0.000607645
0.00313556
0.00108828
0.0029079
0.00168942
0.00204979
0.00239066
0.000709196
0.00316702
-0.000961073
0.00399011
-0.00281179
0.00483026
-0.00470584
0.00565937
-0.0065264
0.00645357
-0.00818351
0.00719531
-0.00961726
0.00787415
-0.0107971
0.00848645
-0.0117176
0.00903428
-0.012393
0.00952379
-0.0128496
0.00996355
-0.0131206
0.0103632
-0.0132409
0.0107322
-0.0132432
0.0110792
-0.0131571
0.0114116
-0.013007
0.0117355
-0.0128128
0.0120555
-0.0125898
0.0123748
-0.0123497
0.0126956
-0.0121008
0.0130195
-0.0118495
0.0133472
-0.0116004
0.0136795
-0.0113577
0.0140172
-0.011127
-0.010922
0.0143634
6.15712e-05
0.00119383
0.000268583
0.00240029
0.00062452
0.00277962
0.00112137
0.00241106
0.00174285
0.00142832
0.00246619
-1.4151e-05
0.00326343
-0.00175831
0.00410324
-0.00365161
0.00495375
-0.00555635
0.00578573
-0.00735838
0.00657546
-0.00897324
0.00730649
-0.0103483
0.00797011
-0.0114607
0.00856462
-0.0123121
0.00909385
-0.0129222
0.0095654
-0.0133211
0.00998886
-0.0135441
0.0103744
-0.0136264
0.0107319
-0.0136007
0.0110698
-0.013495
0.0113955
-0.0133326
0.0117145
-0.0131318
0.0120312
-0.0129065
0.0123484
-0.0126668
0.0126679
-0.0124204
0.0129907
-0.0121724
0.0133172
-0.0119269
0.0136475
-0.011688
0.0139824
-0.0114619
-0.0112649
0.0143253
6.31188e-05
0.00113071
0.000276448
0.00218696
0.000644129
0.00241194
0.00115766
0.00189752
0.0017991
0.000786873
0.00254306
-0.000758106
0.00335847
-0.00257373
0.00421124
-0.00450437
0.0050676
-0.00641271
0.00589774
-0.00818851
0.00667851
-0.00975402
0.007395
-0.0110648
0.00804043
-0.0121061
0.00861512
-0.0128868
0.00912463
-0.0134317
0.00957785
-0.0137744
0.00998523
-0.0139515
0.0103574
-0.0139986
0.0107042
-0.0139474
0.0110341
-0.0138249
0.0113541
-0.0136526
0.0116695
-0.0134472
0.0119841
-0.0132211
0.0123004
-0.0129832
0.0126198
-0.0127398
0.0129427
-0.0124953
0.0132689
-0.0122531
0.0135978
-0.0120169
0.0139296
-0.0117937
-0.0116029
0.0142677
6.53636e-05
0.00106535
0.000286119
0.0019662
0.000666524
0.00203154
0.00119715
0.0013669
0.001858
0.000126023
0.0026208
-0.00152091
0.00345139
-0.00340432
0.0043131
-0.00536608
0.00517074
-0.00727035
0.00599436
-0.00901214
0.00676193
-0.0105216
0.00746036
-0.0117632
0.00808504
-0.0127308
0.00863828
-0.0134401
0.00912728
-0.0139207
0.00956207
-0.0142091
0.00995375
-0.0143432
0.0103132
-0.014358
0.0106502
-0.0142845
0.0109731
-0.0141478
0.0112885
-0.013968
0.0116014
-0.0137601
0.0119151
-0.0135348
0.0122319
-0.0132999
0.0125526
-0.0130605
0.0128772
-0.0128198
0.0132046
-0.0125805
0.0135332
-0.0123455
0.013862
-0.0121225
-0.0119339
0.014193
6.82981e-05
0.000997052
0.000297564
0.00173693
0.000691609
0.00163749
0.00123958
0.000818934
0.00191905
-0.000553449
0.00269865
-0.00230051
0.00354116
-0.00424683
0.00440763
-0.00623256
0.00526193
-0.00812464
0.00607454
-0.00982475
0.00682497
-0.011272
0.00750226
-0.0124405
0.00810405
-0.0133326
0.00863462
-0.0139706
0.00910265
-0.0143887
0.00951913
-0.0146256
0.00989562
-0.0147197
0.0102431
-0.0147055
0.0105712
-0.0146126
0.010888
-0.0144646
0.0111997
-0.0142797
0.0115109
-0.0140713
0.011825
-0.0138489
0.0121436
-0.0136186
0.0124676
-0.0133844
0.0127961
-0.0131483
0.0131272
-0.0129115
0.0134577
-0.0126761
0.0137847
-0.0124494
-0.0122546
0.0141053
7.18951e-05
0.000925156
0.000310689
0.00149814
0.000719162
0.00122902
0.00128453
0.000253563
0.00198156
-0.00125048
0.00277562
-0.00309456
0.00362654
-0.00509775
0.0044935
-0.00709953
0.00533994
-0.00897109
0.00613732
-0.0106221
0.00686706
-0.0120018
0.00752058
-0.013094
0.0080978
-0.0139098
0.00860485
-0.0144777
0.00905175
-0.0148356
0.00945021
-0.0150241
0.00981208
-0.0150815
0.0101483
-0.0150417
0.0104682
-0.0149325
0.0107795
-0.0147759
0.0110881
-0.0145884
0.0113985
-0.0143817
0.0117137
-0.0141641
0.0120357
-0.0139406
0.0123652
-0.0137139
0.0127014
-0.0134846
0.0130414
-0.0132516
0.0133784
-0.0130131
0.0136985
-0.0127696
-0.0125626
0.0140065
7.61124e-05
0.000849044
0.000325348
0.0012489
0.000748861
0.000805507
0.00133144
-0.000329012
0.00204466
-0.00196371
0.00285055
-0.00390045
0.0037062
-0.0059534
0.00456937
-0.00796269
0.00540361
-0.00980533
0.00618184
-0.0114004
0.0068878
-0.0127077
0.0075154
-0.0137216
0.00806679
-0.0144612
0.00854986
-0.0149608
0.0089757
-0.0152615
0.00935657
-0.015405
0.0097044
-0.0154294
0.0100299
-0.0153672
0.0103422
-0.0152447
0.0106484
-0.0150821
0.0109543
-0.0148942
0.011264
-0.0146915
0.0115808
-0.0144808
0.0119068
-0.0142666
0.0122437
-0.0140508
0.0125926
-0.0138334
0.0129535
-0.0136125
0.0133236
-0.0133832
0.0136903
-0.0131362
0.0139719
-0.0128442
0.0107022
-0.00454949
0.00359842
0.0112684
0.00038228
-0.000948539
0.011564
0.00533042
-0.00562593
0.0116914
0.00924987
-0.00937731
0.0117074
0.0121928
-0.0122088
0.0116461
0.0144424
-0.0143811
0.0115278
0.0163837
-0.0162655
0.011366
0.0182376
-0.0180758
0.0111688
0.0200663
-0.019869
0.0109426
0.0218579
-0.0216318
0.0106919
0.0235862
-0.0233355
0.0104199
0.0252328
-0.0249608
0.0101295
0.0267906
-0.0265002
0.00982279
0.0282561
-0.0279494
0.00950158
0.0296286
-0.0293074
0.0091675
0.0309074
-0.0305733
0.00882212
0.0320916
-0.0317462
0.00846634
0.0331825
-0.0328267
0.00810203
0.0341732
-0.0338089
0.00772921
0.0350713
-0.0346985
0.00734976
0.035861
-0.0354815
0.00696305
0.0365635
-0.0361768
0.00656982
0.0371424
-0.0367491
0.00617081
0.0376439
-0.0372449
0.00576092
0.0380296
-0.0376197
0.00534613
0.0382899
-0.0378751
0.00491256
0.0385945
-0.0381609
0.00447116
0.0384885
-0.0380471
0.00400748
0.0387709
-0.0383072
0.0388467
-0.0383659
0.0109576
-0.00541069
0.011474
-0.000134098
0.0117427
0.00506168
0.0118561
0.00913647
0.0118654
0.0121835
0.0118009
0.0145068
0.0116811
0.0165036
0.011518
0.0184007
0.0113196
0.0202647
0.0110919
0.0220856
0.0108392
0.0238389
0.0105645
0.0255075
0.0102706
0.0270845
0.00995994
0.0285668
0.0096339
0.0299546
0.00929424
0.031247
0.00894254
0.0324433
0.00857976
0.0335452
0.00820768
0.0345452
0.00782648
0.0354525
0.00743831
0.0362492
0.00704233
0.0369595
0.00663923
0.0375455
0.00622999
0.0380531
0.00580969
0.0384499
0.00538443
0.0387152
0.0049403
0.0390387
0.00448893
0.0389398
0.00401476
0.039245
0.0393372
0.0112077
-0.00617833
0.0116735
-0.000599983
0.0119159
0.00481927
0.0120157
0.00903676
0.0120186
0.0121806
0.0119514
0.014574
0.0118305
0.0166245
0.0116666
0.0185647
0.0114675
0.0204638
0.0112387
0.0223144
0.0109843
0.0240933
0.0107072
0.0257846
0.0104102
0.0273815
0.0100957
0.0288812
0.00976515
0.0302852
0.00942014
0.031592
0.00906236
0.0328011
0.00869281
0.0339147
0.00831313
0.0349249
0.00792372
0.0358419
0.00752688
0.0366461
0.00712171
0.0373647
0.0067089
0.0379583
0.00628956
0.0384725
0.00585903
0.0388804
0.00542343
0.0391508
0.00496884
0.0394933
0.00450764
0.039401
0.00402312
0.0397295
0.0398374
0.0114513
-0.0068499
0.0118665
-0.0010152
0.0120828
0.00460298
0.0121695
0.00895004
0.0121667
0.0121834
0.0120975
0.0146433
0.0119759
0.016746
0.0118117
0.0187289
0.0116122
0.0206633
0.0113827
0.022544
0.011127
0.024349
0.0108479
0.0260637
0.0105481
0.0276813
0.0102301
0.0291992
0.00989528
0.03062
0.00954515
0.0319422
0.00918152
0.0331647
0.00880536
0.0342909
0.00841832
0.035312
0.0080209
0.0362393
0.00761543
0.0370515
0.00720117
0.0377789
0.00677881
0.0383806
0.00634952
0.0389018
0.00590891
0.039321
0.00546311
0.0395966
0.00499825
0.0399581
0.00452716
0.0398721
0.00403265
0.0402241
0.0403476
0.0116872
-0.00742393
0.0120518
-0.00137979
0.012243
0.00441179
0.0123175
0.00887554
0.0123096
0.0121913
0.0122387
0.0147141
0.0121171
0.0168676
0.0119531
0.0188928
0.0117537
0.0208627
0.0115237
0.022774
0.011267
0.0246057
0.0109864
0.0263443
0.0106843
0.0279834
0.0103629
0.0295206
0.0100241
0.0309588
0.00966915
0.0322972
0.0092999
0.033534
0.00891734
0.0346734
0.0085232
0.0357061
0.00811799
0.0366445
0.00770395
0.0374656
0.00728067
0.0382022
0.0068489
0.0388124
0.00640982
0.0393408
0.00595929
0.0397716
0.00550346
0.0400524
0.00502846
0.0404331
0.00454753
0.040353
0.00404322
0.0407284
0.0408678
0.0119143
-0.00790025
0.0122289
-0.00169434
0.012396
0.00424469
0.0124592
0.00881234
0.012447
0.0122035
0.0123751
0.014786
0.0122538
0.0169889
0.0120905
0.0190561
0.0118917
0.0210615
0.0116617
0.023004
0.0114044
0.024863
0.0111225
0.0266261
0.0108184
0.0282875
0.0104941
0.0298449
0.0101516
0.0313013
0.0097921
0.0326567
0.00941745
0.0339086
0.00902872
0.0350622
0.00862766
0.0361072
0.00821481
0.0370574
0.00779239
0.037888
0.00736027
0.0386343
0.00691921
0.0392535
0.00647044
0.0397896
0.00601011
0.0402319
0.00554442
0.0405181
0.00505943
0.0409181
0.00456879
0.0408437
0.0040547
0.0412425
0.0413982
0.0121319
-0.00827987
0.0123974
-0.00195975
0.0125415
0.00410049
0.0125946
0.00875933
0.0125788
0.0122193
0.0125065
0.0148583
0.012386
0.0171093
0.0122238
0.0192183
0.0120259
0.0212595
0.0117964
0.0232335
0.0115389
0.0251205
0.0112562
0.0269088
0.0109504
0.0285933
0.0106235
0.0301718
0.0102777
0.0316471
0.00991389
0.0330205
0.0095341
0.0342884
0.00913941
0.0354569
0.00873165
0.0365149
0.00831135
0.0374777
0.00788073
0.0383186
0.00743989
0.0390752
0.00698969
0.0397037
0.00653137
0.0402479
0.00606136
0.0407019
0.00558597
0.0409935
0.00509116
0.0414129
0.0045909
0.0413439
0.00406709
0.0417663
0.0419386
0.0123393
-0.00856485
0.0125568
-0.00217728
0.0126795
0.0039778
0.0127236
0.00871532
0.012705
0.0122378
0.0126328
0.0149306
0.0125136
0.0172286
0.0123529
0.0193789
0.0121563
0.021456
0.0119277
0.0234621
0.0116704
0.0253778
0.0113872
0.027192
0.0110802
0.0289003
0.0107511
0.0305009
0.0104021
0.0319961
0.0100344
0.0333882
0.00964977
0.0346731
0.00924936
0.0358573
0.00883511
0.0369292
0.00840753
0.0379053
0.00796892
0.0387572
0.00751948
0.0395246
0.0070603
0.0401628
0.00659257
0.0407157
0.006113
0.0411815
0.00562805
0.0414784
0.0051236
0.0419174
0.00461385
0.0418537
0.00408035
0.0422998
0.042489
0.0125359
-0.00875829
0.0127072
-0.00234854
0.01281
0.00387496
0.0128463
0.00867905
0.0128257
0.0122583
0.012754
0.0150023
0.0126364
0.0173462
0.0124776
0.0195377
0.0122827
0.021651
0.0120553
0.0236895
0.0117987
0.0256344
0.0115154
0.0274753
0.0112075
0.0292082
0.0108766
0.0308318
0.0105248
0.0323478
0.0101535
0.0337595
0.00976437
0.0350622
0.00935849
0.0362632
0.00893796
0.0373497
0.00850331
0.0383399
0.0080569
0.0392036
0.007599
0.0399825
0.007131
0.0406308
0.00665402
0.0411926
0.00616504
0.0416705
0.00567061
0.0419728
0.00515671
0.0424313
0.00463764
0.0423728
0.00409447
0.042843
0.0430495
0.0127213
-0.00886432
0.0128483
-0.00247549
0.0129331
0.00379006
0.012963
0.00864924
0.0129411
0.0122801
0.0128703
0.0150731
0.0127545
0.017462
0.0125979
0.0196943
0.012405
0.0218439
0.0121793
0.0239152
0.0119237
0.02589
0.0116407
0.0277583
0.0113322
0.0295167
0.0109999
0.0311641
0.0106457
0.032702
0.0102712
0.034134
0.00987777
0.0354556
0.00946671
0.0366742
0.00904014
0.0377763
0.0085986
0.0387814
0.00814463
0.0396576
0.00767842
0.0404487
0.00720175
0.0411075
0.00671565
0.0416787
0.00621742
0.0421687
0.0057136
0.0424767
0.00519044
0.0429544
0.00466224
0.042901
0.00410946
0.0433958
0.04362
0.0128953
-0.00888803
0.0129803
-0.00256047
0.0130492
0.00372112
0.0130739
0.0086245
0.0130514
0.0123026
0.0129818
0.0151428
0.0128679
0.0175759
0.0127137
0.0198485
0.0125231
0.0220345
0.0122994
0.0241389
0.0120452
0.0261442
0.0117629
0.0280407
0.0114543
0.0298253
0.0111209
0.0314975
0.0107647
0.0330581
0.0103872
0.0345115
0.00998989
0.0358529
0.00957394
0.0370902
0.00914158
0.0382086
0.00869334
0.0392297
0.00823203
0.0401189
0.0077577
0.0409231
0.0072725
0.0415927
0.00677739
0.0421738
0.00627009
0.042676
0.005757
0.0429897
0.00522474
0.0434867
0.00468759
0.0434381
0.00412529
0.0439581
0.0442004
0.0130577
-0.0088354
0.0131036
-0.00260637
0.0131583
0.00366637
0.0131796
0.00860323
0.013157
0.0123252
0.0130887
0.0152111
0.0129768
0.0176878
0.0128251
0.0200002
0.0126369
0.0222226
0.0124156
0.0243602
0.0121632
0.0263965
0.0118819
0.028322
0.0115735
0.0301337
0.0112395
0.0318315
0.0108816
0.033416
0.0105015
0.0348916
0.0101006
0.0362538
0.00968005
0.0375107
0.0092422
0.0386465
0.00878748
0.0396844
0.00831904
0.0405873
0.00783676
0.0414054
0.0073432
0.0420862
0.00683919
0.0426779
0.00632298
0.0431922
0.00580076
0.043512
0.00525955
0.0440279
0.00471364
0.043984
0.00414196
0.0445297
0.0447908
0.0132084
-0.00871327
0.0132182
-0.00261612
0.0132612
0.0036233
0.0132802
0.00858421
0.0132581
0.0123474
0.0131911
0.0152781
0.0130811
0.0177978
0.012932
0.0201494
0.0127466
0.022408
0.0125278
0.024579
0.0122775
0.0266468
0.0119976
0.0286019
0.0116898
0.0304414
0.0113555
0.0321659
0.0109963
0.0337751
0.010614
0.035274
0.0102099
0.0366579
0.00978497
0.0379356
0.00934191
0.0390895
0.00888095
0.0401454
0.0084056
0.0410627
0.00791555
0.0418954
0.0074138
0.042588
0.00690102
0.0431906
0.00637603
0.0437172
0.0058448
0.0440432
0.00529483
0.0445779
0.00474034
0.0445385
0.00415945
0.0451106
0.045391
0.0133474
-0.00852919
0.0133244
-0.00259306
0.0133581
0.00358951
0.0133761
0.00856621
0.0133548
0.0123687
0.0132892
0.0153438
0.0131811
0.0179058
0.0130346
0.020296
0.012852
0.0225906
0.012636
0.0247951
0.0123881
0.0268946
0.0121099
0.0288801
0.0118031
0.0307482
0.0114689
0.0325001
0.0111088
0.0341352
0.0107245
0.0356583
0.0103175
0.0370649
0.00988858
0.0383646
0.00944062
0.0395375
0.00897368
0.0406123
0.00849163
0.0415447
0.00799399
0.0423931
0.00748421
0.0430978
0.0069628
0.043712
0.00642915
0.0442508
0.00588905
0.0445833
0.0053305
0.0451364
0.0047676
0.0451014
0.00417773
0.0457005
0.046001
0.0134746
-0.00829135
0.0134224
-0.00254083
0.0134491
0.00356285
0.0134672
0.00854806
0.0134472
0.0123887
0.0133829
0.0154081
0.0132767
0.018012
0.0131327
0.0204399
0.0129532
0.0227702
0.0127401
0.0250081
0.012495
0.0271397
0.0122189