/*--------------------------------*- C++ -*----------------------------------*\
  =========                 |
  \\      /  F ield         | OpenFOAM: The Open Source CFD Toolbox
   \\    /   O peration     | Website:  https://openfoam.org
    \\  /    A nd           | Version:  7
     \\/     M anipulation  |
\*---------------------------------------------------------------------------*/
FoamFile
{
    version     2.0;
    format      ascii;
    class       volVectorField;
    location    "2";
    object      U;
}
// * * * * * * * * * * * * * * * * * * * * * * * * * * * * * * * * * * * * * //

dimensions      [0 1 -1 0 0 0 0];

internalField   nonuniform List<vector> 
18000
(
(-0.00184693 0.0693012 2.48548e-20)
(-0.0067845 0.161467 0)
(-0.0141184 0.22172 0)
(-0.0216027 0.25523 0)
(-0.0281732 0.268214 -8.21244e-21)
(-0.0327897 0.266137 4.15081e-20)
(-0.0347821 0.25329 -8.40738e-21)
(-0.0337989 0.232901 8.46516e-21)
(-0.0297379 0.207415 0)
(-0.0226906 0.178749 -2.55803e-20)
(-0.0128954 0.148467 -8.57293e-21)
(-0.000695579 0.117879 0)
(0.013496 0.0880823 1.70836e-20)
(0.0292278 0.0599693 1.71641e-20)
(0.0460414 0.0342304 -3.42324e-20)
(0.0634978 0.011352 -3.41526e-20)
(0.0811924 -0.00837354 0)
(0.098769 -0.0248329 -5.09406e-20)
(0.115931 -0.0380643 1.68996e-20)
(0.132444 -0.0482246 -5.04356e-20)
(0.148132 -0.0555579 1.67124e-20)
(0.16288 -0.060365 0)
(0.176623 -0.062975 -1.63993e-20)
(0.189332 -0.0637226 -1.63659e-20)
(0.201016 -0.0629311 0)
(0.211705 -0.060899 0)
(0.221444 -0.0578926 -3.18709e-20)
(0.230299 -0.0541369 -3.15855e-20)
(0.238381 -0.0497444 -3.14109e-20)
(0.24559 -0.0445156 3.32315e-20)
(-0.00336452 0.0701136 3.52401e-20)
(-0.00950527 0.163388 6.14607e-20)
(-0.0165742 0.22434 -6.29309e-20)
(-0.0230717 0.258027 -6.41883e-20)
(-0.0282053 0.270616 -1.63513e-20)
(-0.0311625 0.267627 4.94546e-20)
(-0.0314104 0.253453 -6.67666e-20)
(-0.0286792 0.231436 -6.72873e-20)
(-0.0229144 0.204145 6.76744e-20)
(-0.0142455 0.173606 6.80013e-20)
(-0.00294711 0.141482 -3.40056e-20)
(0.0106138 0.109165 -6.82168e-20)
(0.0260048 0.0778194 -3.42986e-20)
(0.0427541 0.0483894 6.8192e-20)
(0.0603919 0.0215999 -6.80441e-20)
(0.0784732 -0.00204689 6.81559e-20)
(0.0965919 -0.0222597 -1.35711e-19)
(0.114399 -0.0389413 1.01444e-19)
(0.131614 -0.0521555 -6.71352e-20)
(0.148021 -0.0620937 3.35754e-20)
(0.163467 -0.0690379 -6.63842e-20)
(0.17786 -0.0733276 0)
(0.191158 -0.0753287 3.31862e-20)
(0.203359 -0.0754082 -6.51e-20)
(0.214489 -0.0739173 6.44752e-20)
(0.2246 -0.071178 0)
(0.233754 -0.067472 -3.15109e-20)
(0.242024 -0.0630392 3.13469e-20)
(0.249532 -0.0579989 1.24585e-19)
(0.256193 -0.0521472 6.58214e-20)
(-0.00491709 0.070459 -5.65581e-20)
(-0.0123056 0.164407 -6.14591e-20)
(-0.0190927 0.225941 9.43412e-20)
(-0.0245395 0.259823 1.60003e-19)
(-0.0281266 0.272111 0)
(-0.029277 0.268338 -6.60881e-20)
(-0.0276065 0.252973 6.67635e-20)
(-0.0229409 0.229474 2.01239e-19)
(-0.0152913 0.200523 -6.76709e-20)
(-0.00483393 0.168251 -6.7944e-20)
(0.00812317 0.134418 2.03674e-19)
(0.0231785 0.100504 6.8213e-20)
(0.0398716 0.0677367 0)
(0.0577124 0.0371123 -1.36284e-19)
(0.0762154 0.00938935 2.03316e-19)
(0.0949301 -0.0149157 -6.74564e-20)
(0.113454 -0.035515 6.77076e-20)
(0.13145 -0.0523292 6.73533e-20)
(0.148656 -0.0654499 2.84853e-22)
(0.164879 -0.0751042 0)
(0.179996 -0.0816134 1.98943e-19)
(0.193942 -0.085356 -1.31358e-19)
(0.206705 -0.0867329 6.54842e-20)
(0.218307 -0.0861428 0)
(0.228801 -0.0839635 -6.44727e-20)
(0.238257 -0.0805375 2.54769e-19)
(0.246752 -0.0761633 -1.88923e-19)
(0.254375 -0.071091 -6.2809e-20)
(0.261252 -0.0654463 6.15061e-20)
(0.267312 -0.0590297 6.54121e-20)
(-0.006468 0.0704484 0)
(-0.0151374 0.16474 3.0542e-20)
(-0.0216669 0.226664 2.83777e-23)
(-0.0260183 0.260692 -1.59694e-19)
(-0.0279604 0.272721 0)
(-0.0271715 0.26826 -1.31028e-19)
(-0.0234278 0.251837 0)
(-0.0166613 0.227002 -2.00797e-19)
(-0.00695774 0.196536 6.71606e-20)
(0.00545127 0.162684 -1.34555e-19)
(0.0202119 0.127296 -1.35546e-19)
(0.0368839 0.09193 -6.77496e-20)
(0.0549736 0.0578847 6.76158e-20)
(0.0739679 0.026205 6.7176e-20)
(0.0933689 -0.00231937 -6.79828e-20)
(0.11272 -0.0271594 -1.34155e-19)
(0.131623 -0.0480351 1.34084e-19)
(0.149758 -0.0648864 0)
(0.166887 -0.0778349 0)
(0.182848 -0.0871445 0)
(0.197549 -0.0931766 0)
(0.21096 -0.0963471 0)
(0.223099 -0.0970919 0)
(0.234021 -0.0958398 -1.28499e-19)
(0.2438 -0.0929923 -1.2797e-19)
(0.25253 -0.0889102 -4.96269e-22)
(0.260305 -0.0839068 -1.25523e-19)
(0.267228 -0.0782392 -4.44505e-22)
(0.273425 -0.0720425 -1.24149e-19)
(0.278841 -0.0651227 2.59752e-19)
(-0.00801034 0.0700518 0)
(-0.0179841 0.164236 2.73035e-19)
(-0.0242654 0.226374 2.94194e-23)
(-0.0274985 0.260517 -9.52595e-20)
(-0.0277328 0.272349 3.22083e-19)
(-0.0248954 0.267319 1.96409e-19)
(-0.0189398 0.249982 1.97492e-19)
(-0.0099211 0.223968 0)
(0.00199276 0.192159 0)
(0.016504 0.156894 2.01698e-19)
(0.0332022 0.120115 9.53198e-23)
(0.0516015 0.0834618 -4.7064e-19)
(0.0711723 0.0482985 4.03083e-19)
(0.0913757 0.0157191 -1.34889e-19)
(0.111697 -0.0134594 1.33364e-19)
(0.131676 -0.0387012 1.33952e-19)
(0.150924 -0.0597348 -1.32958e-19)
(0.169144 -0.0765217 1.33179e-19)
(0.186127 -0.0892165 2.64357e-19)
(0.201746 -0.0981217 -1.31479e-19)
(0.215946 -0.103638 -2.61005e-19)
(0.228737 -0.106218 2.59293e-19)
(0.240171 -0.10633 -2.57451e-19)
(0.250335 -0.104431 1.28494e-19)
(0.259332 -0.100944 0)
(0.267275 -0.0962454 0)
(0.274279 -0.0906591 9.67614e-22)
(0.280456 -0.0844499 -4.94166e-19)
(0.285939 -0.0777594 2.44511e-19)
(0.290678 -0.0704037 -2.58119e-19)
(-0.00951392 0.0693047 0)
(-0.0207994 0.163006 -2.42622e-19)
(-0.0268697 0.225153 2.47377e-19)
(-0.0289816 0.259334 0)
(-0.0274553 0.270999 -5.14028e-19)
(-0.0224833 0.265493 -6.50967e-20)
(-0.0142003 0.247376 -1.32036e-19)
(-0.00279092 0.220344 -6.61902e-20)
(0.0114745 0.187361 0)
(0.0282211 0.150858 -1.33626e-19)
(0.0469769 0.112868 1.33753e-19)
(0.0672029 0.0751078 2.68578e-19)
(0.0883262 0.0390039 -2.68557e-19)
(0.109779 0.00569477 0)
(0.131031 -0.023979 -2.67822e-19)
(0.15162 -0.0494779 2.65654e-19)
(0.171173 -0.0705424 2.66271e-19)
(0.189418 -0.0871592 3.9612e-19)
(0.206183 -0.0995182 -3.9539e-19)
(0.22138 -0.107961 5.23205e-19)
(0.234999 -0.112927 2.60587e-19)
(0.24709 -0.114904 -2.59283e-19)
(0.257746 -0.114391 5.13379e-19)
(0.267086 -0.111869 0)
(0.275241 -0.107779 2.5193e-19)
(0.282348 -0.10251 5.00566e-19)
(0.288539 -0.0963941 -2.46609e-19)
(0.293938 -0.0897018 2.46814e-19)
(0.29868 -0.0825802 -5.56982e-22)
(0.302721 -0.0748601 -2.56683e-19)
(-0.0109656 0.0682343 -2.77037e-20)
(-0.0235576 0.161051 0)
(-0.029448 0.222982 -3.09113e-19)
(-0.030449 0.25712 6.29144e-20)
(-0.0271374 0.26863 1.92456e-19)
(-0.0199624 0.262735 6.47747e-20)
(-0.00925258 0.243975 2.61143e-19)
(0.00466115 0.216084 0)
(0.0213993 0.182104 1.32504e-19)
(0.0405004 0.144551 1.32299e-19)
(0.0614184 0.105543 -1.33232e-19)
(0.0835529 0.0668692 3.98947e-19)
(0.106285 0.0300151 0)
(0.129015 -0.00384004 0)
(0.151195 -0.0338383 3.97841e-19)
(0.172367 -0.0594404 -6.62076e-19)
(0.192176 -0.0804028 2.63269e-19)
(0.210383 -0.0967414 -2.63692e-19)
(0.226856 -0.108683 -2.60948e-19)
(0.241554 -0.116609 -7.81205e-19)
(0.254515 -0.120996 -1.09415e-21)
(0.265834 -0.122363 2.5626e-19)
(0.275647 -0.121239 -5.10349e-19)
(0.284108 -0.118124 2.52468e-19)
(0.291375 -0.113474 -1.50667e-21)
(0.297609 -0.107688 -2.49785e-19)
(0.302957 -0.101102 2.47577e-19)
(0.307556 -0.0939898 0)
(0.311543 -0.086503 2.41495e-19)
(0.314875 -0.0784902 3.67451e-22)
(-0.0123484 0.0668686 -5.51558e-20)
(-0.0262269 0.158418 6.00206e-20)
(-0.0319753 0.219899 -3.68109e-19)
(-0.0318864 0.25388 -1.87527e-19)
(-0.0267766 0.265233 2.54246e-19)
(-0.0173518 0.259022 -3.86542e-19)
(-0.00413963 0.239741 -1.30877e-19)
(0.0123747 0.211149 -2.61814e-19)
(0.0316898 0.176353 2.63077e-19)
(0.053245 0.137945 -5.29023e-19)
(0.0764112 0.0981206 -2.64301e-19)
(0.100521 0.0587374 -1.35754e-21)
(0.124902 0.0213366 1.32622e-19)
(0.14892 -0.01287 -3.96148e-19)
(0.172014 -0.0430125 -5.28267e-19)
(0.19373 -0.0685565 3.82884e-22)
(0.213739 -0.0892791 -1.09585e-21)
(0.23184 -0.10523 2.60697e-19)
(0.247946 -0.116674 2.60936e-19)
(0.26207 -0.124032 4.18764e-22)
(0.274303 -0.127814 -6.45757e-22)
(0.284788 -0.128573 2.53678e-19)
(0.293704 -0.126858 2.54412e-19)
(0.30124 -0.123187 -5.03416e-22)
(0.307585 -0.118028 -7.49694e-19)
(0.312921 -0.111783 4.94042e-19)
(0.31741 -0.104791 4.91011e-19)
(0.3212 -0.0973236 -4.8569e-19)
(0.324426 -0.0895391 -2.41489e-19)
(0.327049 -0.0813057 -2.51441e-19)
(-0.0136509 0.0652465 -4.93183e-19)
(-0.0287803 0.155157 -5.97592e-20)
(-0.0344213 0.215939 3.06364e-19)
(-0.0332707 0.249635 2.50163e-19)
(-0.0263654 0.260806 -2.54239e-19)
(-0.014661 0.254333 2.57487e-19)
(0.00111135 0.234642 -1.29711e-19)
(0.0203031 0.205503 3.92405e-19)
(0.0422795 0.170071 -2.63066e-19)
(0.0663699 0.131007 2.63864e-19)
(0.0918524 0.0905748 1.32406e-19)
(0.117984 0.050698 -1.32607e-19)
(0.144037 0.0129633 -7.89649e-19)
(0.169339 -0.0213915 5.26924e-19)
(0.193317 -0.0514897 2.63398e-19)
(0.215527 -0.0768081 0)
(0.235671 -0.0971509 0)
(0.253591 -0.112604 -2.55181e-21)
(0.269255 -0.123474 -2.57561e-19)
(0.282735 -0.130216 0)
(0.294175 -0.133376 0)
(0.303772 -0.133532 -2.54736e-19)
(0.311748 -0.131253 0)
(0.318329 -0.127071 -4.98863e-19)
(0.323731 -0.121456 0)
(0.328158 -0.114814 -2.46751e-19)
(0.331784 -0.107481 4.87945e-19)
(0.334766 -0.0997272 -4.82658e-19)
(0.33724 -0.0917124 0)
(0.339164 -0.0833292 0)
(-0.0148634 0.0634044 4.38272e-19)
(-0.0311925 0.151325 0)
(-0.0367544 0.211153 -6.09451e-20)
(-0.034573 0.244417 6.21024e-20)
(-0.0258845 0.255357 -3.77812e-19)
(-0.0118851 0.248657 4.81896e-23)
(0.00648837 0.228657 -1.29123e-19)
(0.0284162 0.199115 0)
(0.0531199 0.163224 0)
(0.0798072 0.123704 -1.31018e-19)
(0.107655 0.0828801 1.31141e-19)
(0.135837 0.0427313 -2.62566e-19)
(0.163563 0.00488289 2.64743e-19)
(0.190125 -0.0294088 0)
(0.21494 -0.0592679 0)
(0.237581 -0.0841902 0)
(0.257785 -0.104013 2.578e-19)
(0.275447 -0.118863 -1.46669e-21)
(0.290594 -0.129083 2.59015e-19)
(0.303361 -0.135169 -5.10073e-19)
(0.313953 -0.137694 2.54488e-19)
(0.322618 -0.13726 -1.26113e-18)
(0.329623 -0.13445 9.55179e-22)
(0.335229 -0.129803 4.98848e-19)
(0.339682 -0.123791 -1.9404e-21)
(0.3432 -0.116816 4.88512e-19)
(0.345972 -0.10921 -4.82987e-19)
(0.348159 -0.101237 -4.80302e-19)
(0.349899 -0.0930584 1.20523e-21)
(0.351145 -0.0845934 -4.94325e-19)
(-0.0159791 0.0613808 -5.44191e-20)
(-0.0334396 0.146986 0)
(-0.038941 0.205601 1.2137e-19)
(-0.0357574 0.238267 -1.23674e-19)
(-0.0253028 0.248908 1.13196e-18)
(-0.00900325 0.241998 4.31014e-23)
(0.0119984 0.221772 -1.28567e-19)
(0.0367046 0.191963 1.29437e-19)
(0.0641836 0.155786 -6.48988e-19)
(0.0935109 0.116009 0)
(0.123751 0.0750111 0)
(0.153989 0.0348167 -2.59656e-19)
(0.183369 -0.00291927 2.62355e-19)
(0.211146 -0.0369311 -2.60706e-19)
(0.236734 -0.0663535 2.59591e-19)
(0.259727 -0.0907094 0)
(0.279907 -0.109875 -1.03253e-18)
(0.297227 -0.124017 5.1259e-19)
(0.311782 -0.13352 2.56045e-19)
(0.323772 -0.138914 7.63198e-19)
(0.333467 -0.140799 0)
(0.341167 -0.139794 5.03441e-19)
(0.347183 -0.136491 4.97761e-19)
(0.35181 -0.13143 4.93824e-19)
(0.355318 -0.125081 -3.02849e-21)
(0.357942 -0.117839 -4.84365e-19)
(0.359879 -0.110027 4.82977e-19)
(0.361297 -0.101902 0)
(0.36233 -0.093623 1.2468e-21)
(0.362929 -0.0851402 9.85533e-19)
(-0.0169939 0.0592147 -4.32495e-19)
(-0.0355005 0.142206 0)
(-0.0409452 0.199349 -4.82092e-19)
(-0.0367799 0.231239 -6.15154e-19)
(-0.0245762 0.241495 -3.76829e-19)
(-0.0059772 0.234371 1.26832e-19)
(0.0176693 0.213986 -4.85068e-24)
(0.0451827 0.184033 -1.2889e-19)
(0.0754681 0.147737 2.31529e-21)
(0.107458 0.107901 2.59551e-19)
(0.140097 0.0669477 2.58605e-19)
(0.172373 0.0269374 -2.57388e-19)
(0.203361 -0.0104566 2.59411e-19)
(0.232287 -0.0439703 -7.76205e-19)
(0.258562 -0.0727585 7.73815e-19)
(0.281812 -0.0963801 5.13968e-19)
(0.301872 -0.114754 1.28385e-18)
(0.318762 -0.128092 -2.58104e-19)
(0.33265 -0.136819 -5.07112e-19)
(0.343806 -0.141494 -2.91276e-21)
(0.352563 -0.14274 -5.02977e-19)
(0.359276 -0.141189 1.49536e-18)
(0.364296 -0.137435 -9.93411e-19)
(0.367952 -0.132014 9.80605e-19)
(0.370534 -0.125389 -4.88655e-19)
(0.37229 -0.117945 9.65673e-19)
(0.373424 -0.109993 1.83931e-21)
(0.374108 -0.101778 -9.4764e-19)
(0.374471 -0.0934602 9.36554e-19)
(0.37446 -0.085019 4.86717e-19)
(-0.0179065 0.0569434 4.32494e-19)
(-0.0373559 0.137052 0)
(-0.0427289 0.192471 1.08248e-18)
(-0.0375892 0.223396 3.69238e-19)
(-0.0236472 0.233163 0)
(-0.00275019 0.225806 0)
(0.0235515 0.205314 0)
(0.0538892 0.175328 0)
(0.0869961 0.139071 2.58912e-19)
(0.121652 0.0993701 2.58377e-19)
(0.156671 0.05868 -5.18379e-19)
(0.190939 0.0190838 5.1831e-19)
(0.223465 -0.0177387 7.73628e-19)
(0.253445 -0.050537 2.5926e-19)
(0.2803 -0.0784974 2.54697e-19)
(0.303697 -0.101223 -7.69974e-19)
(0.323531 -0.11868 -1.02122e-18)
(0.3399 -0.131127 -5.09707e-19)
(0.353047 -0.139025 5.07096e-19)
(0.363316 -0.142963 -1.00745e-18)
(0.371104 -0.14358 4.98942e-19)
(0.376818 -0.141511 -9.9393e-19)
(0.38085 -0.137352 4.90707e-19)
(0.383554 -0.131627 -2.16888e-21)
(0.38524 -0.124788 -4.83716e-19)
(0.386165 -0.117205 -9.61422e-19)
(0.386538 -0.109176 9.51869e-19)
(0.38653 -0.100932 0)
(0.386268 -0.092631 -1.29259e-21)
(0.385693 -0.0842859 -9.70633e-19)
(-0.0187174 0.0546015 5.37103e-20)
(-0.0389887 0.131593 0)
(-0.0442519 0.185043 -4.80048e-19)
(-0.0381266 0.214813 1.22251e-19)
(-0.0224454 0.223975 -1.24128e-19)
(0.000752337 0.216347 0)
(0.029717 0.195785 -1.26913e-19)
(0.062887 0.165867 1.27781e-19)
(0.0988148 0.1298 2.56526e-19)
(0.136117 0.0904226 -7.70365e-19)
(0.173471 0.0502108 -2.57397e-19)
(0.209658 0.0112568 -1.33181e-22)
(0.243621 -0.0247674 -1.21275e-21)
(0.274535 -0.056638 -5.12958e-19)
(0.30184 -0.0835844 -2.5731e-19)
(0.325255 -0.105261 0)
(0.344749 -0.121687 8.17384e-22)
(0.3605 -0.133166 5.06862e-19)
(0.372835 -0.140197 -5.02247e-19)
(0.382173 -0.143389 0)
(0.388971 -0.143392 0)
(0.393687 -0.140843 0)
(0.396747 -0.136326 0)
(0.398531 -0.130354 -2.98651e-21)
(0.399361 -0.123361 0)
(0.399502 -0.1157 0)
(0.399164 -0.107652 4.7076e-19)
(0.398516 -0.0994351 4.6617e-19)
(0.397679 -0.0912016 4.63251e-19)
(0.39659 -0.0830012 -1.38104e-21)
(-0.0194287 0.0522204 5.34791e-20)
(-0.040383 0.125892 -1.16483e-19)
(-0.0454719 0.177145 7.1451e-19)
(-0.0383266 0.205568 -1.21597e-19)
(-0.0208888 0.214 1.23697e-19)
(0.00462154 0.206053 2.65295e-23)
(0.0362578 0.185448 3.78106e-19)
(0.0722606 0.155686 -5.07727e-19)
(0.110993 0.119951 7.65132e-19)
(0.150901 0.0810812 1.12754e-21)
(0.190516 0.0415589 -2.54942e-19)
(0.228515 0.00347066 5.10872e-19)
(0.263781 -0.0315346 -5.10157e-19)
(0.29548 -0.0622741 5.09061e-19)
(0.323083 -0.0880314 0)
(0.346373 -0.10852 5.05848e-19)
(0.365404 -0.123815 0)
(0.380442 -0.134265 2.75521e-21)
(0.391898 -0.1404 -4.98589e-19)
(0.400267 -0.142847 -4.95553e-19)
(0.406065 -0.142262 4.92233e-19)
(0.409794 -0.139272 -4.8865e-19)
(0.411912 -0.134448 -4.84828e-19)
(0.412818 -0.128285 -9.64567e-19)
(0.412843 -0.121196 -4.76583e-19)
(0.412255 -0.113514 4.73998e-19)
(0.411261 -0.105501 -9.39715e-19)
(0.410029 -0.097361 -4.66165e-19)
(0.408673 -0.0892413 0)
(0.407124 -0.0812284 -4.79071e-19)
(-0.0200433 0.0498274 0)
(-0.0415235 0.12001 4.62662e-19)
(-0.0463449 0.168857 -3.57174e-19)
(-0.0381182 0.195746 -6.04745e-19)
(-0.018885 0.203322 0)
(0.00896245 0.195 0)
(0.0432821 0.174366 -7.56146e-19)
(0.0821115 0.144841 1.01339e-18)
(0.123616 0.109572 -7.62845e-19)
(0.166061 0.0713888 0)
(0.207833 0.0327612 2.56147e-19)
(0.247503 -0.00424515 -2.56041e-19)
(0.283907 -0.0380209 2.46773e-21)
(0.316213 -0.0674388 -2.56585e-19)
(0.343941 -0.0918477 -2.52053e-19)
(0.366951 -0.111027 -2.62651e-21)
(0.38539 -0.125107 5.01055e-19)
(0.399619 -0.134482 5.01313e-19)
(0.410137 -0.139708 9.13058e-22)
(0.417508 -0.141424 9.8919e-19)
(0.422306 -0.14028 -9.83437e-19)
(0.425071 -0.136894 9.75407e-19)
(0.426287 -0.131815 4.84821e-19)
(0.426366 -0.125515 4.8079e-19)
(0.425644 -0.118384 2.98707e-21)
(0.424387 -0.110733 0)
(0.4228 -0.102804 4.66421e-19)
(0.421044 -0.0947857 -1.38494e-18)
(0.419226 -0.0868203 4.54632e-19)
(0.417274 -0.079032 4.7522e-19)
(-0.0205646 0.0474454 -3.17223e-19)
(-0.0423955 0.114004 -1.03886e-18)
(-0.0468253 0.160255 -1.6506e-22)
(-0.0374257 0.185438 1.89645e-21)
(-0.0163344 0.192032 -3.66918e-19)
(0.0138902 0.183275 0)
(0.0509095 0.16262 -2.49622e-19)
(0.0925523 0.133406 -1.51322e-18)
(0.136777 0.098734 7.60764e-19)
(0.181665 0.0614084 -5.06188e-19)
(0.225453 0.0238731 7.60171e-19)
(0.266618 -0.0118459 -2.5362e-19)
(0.303961 -0.0441956 5.07661e-19)
(0.33667 -0.0721188 -1.26332e-18)
(0.364331 -0.0950396 7.5673e-19)
(0.386896 -0.112807 -8.71556e-22)
(0.404614 -0.12561 -1.49871e-18)
(0.417944 -0.133882 4.97675e-19)
(0.427471 -0.1382 -4.93949e-19)
(0.433827 -0.139207 0)
(0.437636 -0.137544 4.8651e-19)
(0.439471 -0.133808 0)
(0.439835 -0.128525 -4.80741e-19)
(0.439145 -0.12214 4.76024e-19)
(0.43774 -0.115017 4.73587e-19)
(0.435881 -0.107444 4.66206e-19)
(0.433764 -0.0996422 0)
(0.431545 -0.0917842 0)
(0.429324 -0.0840075 -9.11051e-19)
(0.427025 -0.0764753 1.41311e-18)
(-0.0209953 0.0450919 3.17584e-19)
(-0.0429835 0.10792 5.75519e-19)
(-0.0468663 0.151414 -4.69984e-19)
(-0.0361712 0.174731 9.61199e-19)
(-0.0131329 0.180225 1.24219e-19)
(0.019525 0.170976 1.23648e-19)
(0.0592648 0.150308 2.0686e-21)
(0.103699 0.121475 -4.99964e-19)
(0.150572 0.0875252 -2.50811e-19)
(0.197776 0.0512224 2.30449e-21)
(0.243404 0.014967 -2.34694e-21)
(0.285852 -0.0192727 -7.56081e-19)
(0.323904 -0.0500179 -2.5082e-19)
(0.356789 -0.0762951 2.47911e-21)
(0.384178 -0.0976118 4.99931e-19)
(0.406127 -0.11389 4.98e-19)
(0.422996 -0.125375 2.63691e-21)
(0.435344 -0.132533 -4.93169e-19)
(0.443839 -0.135959 4.92068e-19)
(0.449175 -0.136289 -4.88096e-19)
(0.452018 -0.13415 -9.70178e-19)
(0.452967 -0.130114 -4.81733e-19)
(0.452535 -0.124678 9.5323e-19)
(0.451143 -0.118256 0)
(0.449123 -0.111187 -4.67648e-19)
(0.446728 -0.103731 -9.29427e-19)
(0.444148 -0.0960933 -9.20697e-19)
(0.441527 -0.0884281 4.5669e-19)
(0.438961 -0.0808691 -1.35425e-18)
(0.436369 -0.0736193 4.68623e-19)
(-0.0213371 0.0427791 -5.24868e-19)
(-0.0432713 0.101801 1.14329e-19)
(-0.0464202 0.142401 4.69988e-19)
(-0.0342758 0.163715 -3.59884e-19)
(-0.0091761 0.168004 1.2265e-19)
(0.0259869 0.158211 -1.76564e-23)
(0.0684702 0.137541 1.24234e-18)
(0.115661 0.109159 5.01089e-19)
(0.165086 0.0760526 5.0296e-19)
(0.214446 0.0409302 7.55144e-19)
(0.261702 0.00613014 -7.55536e-19)
(0.305185 -0.0264563 5.0362e-19)
(0.343687 -0.055441 1.00448e-18)
(0.376504 -0.0799463 5.00456e-19)
(0.403406 -0.0995691 -9.37276e-22)
(0.424571 -0.114306 -9.94373e-19)
(0.440471 -0.124454 9.90545e-19)
(0.451766 -0.130508 1.72855e-21)
(0.459199 -0.13307 -4.89296e-19)
(0.463522 -0.132766 4.85347e-19)
(0.465434 -0.130199 4.8367e-19)
(0.465549 -0.125912 -4.77112e-19)
(0.464386 -0.12037 -9.50911e-19)
(0.46236 -0.113956 -4.95747e-22)
(0.459796 -0.106978 4.68884e-19)
(0.456935 -0.0996756 4.63222e-19)
(0.453955 -0.0922306 9.14679e-19)
(0.450992 -0.0847844 -9.0179e-19)
(0.448136 -0.0774661 0)
(0.445303 -0.0705204 4.65711e-19)
(-0.0215904 0.0405145 1.82726e-21)
(-0.0432417 0.0956794 0)
(-0.0454399 0.133278 -3.49126e-19)
(-0.0316624 0.152475 -1.19039e-19)
(-0.00436297 0.155472 -4.83203e-19)
(0.0333898 0.145096 0)
(0.0786383 0.12444 -7.43103e-19)
(0.128537 0.0965822 2.48961e-19)
(0.180387 0.0644371 0)
(0.231708 0.0306439 -4.99225e-19)
(0.280342 -0.0025403 0)
(0.324582 -0.0333203 -7.48884e-19)
(0.363254 -0.0604143 7.47455e-19)
(0.395745 -0.0830499 -4.99044e-19)
(0.421947 -0.100918 -4.94894e-19)
(0.442164 -0.114088 0)
(0.456986 -0.122903 0)
(0.467169 -0.127881 4.89504e-19)
(0.473528 -0.12962 6.95829e-22)
(0.476858 -0.128731 4.82234e-19)
(0.477883 -0.125787 -4.79121e-19)
(0.477225 -0.121299 9.53057e-19)
(0.4754 -0.115694 -4.71446e-19)
(0.472814 -0.109326 0)
(0.469777 -0.102473 1.39152e-18)
(0.466516 -0.0953502 -2.29238e-18)
(0.463199 -0.0881211 4.55379e-19)
(0.45995 -0.0809134 4.51053e-19)
(0.456854 -0.0738534 4.43358e-19)
(0.453828 -0.0672291 9.22446e-19)
(-0.0217536 0.0383009 -4.14139e-19)
(-0.0428758 0.0895808 9.05577e-19)
(-0.0438791 0.124101 4.65956e-19)
(-0.0282581 0.141093 1.06541e-18)
(0.00139976 0.142734 1.32487e-18)
(0.0418354 0.13175 2.44026e-19)
(0.0898649 0.111135 -1.22907e-18)
(0.1424 0.0838773 0)
(0.19652 0.0528094 -9.92152e-19)
(0.249569 0.0204844 -4.94541e-19)
(0.299297 -0.010941 0)
(0.343989 -0.0397857 -4.94065e-19)
(0.382537 -0.0648873 -1.09025e-21)
(0.414441 -0.0855866 -1.48348e-18)
(0.439733 -0.101669 4.9489e-19)
(0.458851 -0.113272 4.91877e-19)
(0.472502 -0.120781 -9.75169e-19)
(0.481533 -0.124726 -9.72977e-19)
(0.486818 -0.125695 -6.2388e-22)
(0.489189 -0.124275 -1.68757e-21)
(0.489381 -0.121008 0)
(0.488019 -0.116364 -4.73069e-19)
(0.485606 -0.110738 -4.66186e-19)
(0.482533 -0.104448 0)
(0.479093 -0.0977454 0)
(0.475497 -0.0908222 1.36927e-18)
(0.471899 -0.0838242 -1.34914e-18)
(0.468415 -0.0768679 0)
(0.465125 -0.0700782 1.3214e-18)
(0.461949 -0.0637881 -9.1594e-19)
(-0.0218229 0.0361373 3.80975e-21)
(-0.0421537 0.0835244 -9.05402e-19)
(-0.0416934 0.114917 -1.15639e-19)
(-0.0239961 0.129646 -1.18304e-18)
(0.00819379 0.129889 -7.22257e-19)
(0.0514083 0.118293 2.4292e-19)
(0.102222 0.0977592 4.92568e-19)
(0.157298 0.0711828 1.23073e-18)
(0.213496 0.0413051 9.92147e-19)
(0.268007 0.0105754 9.93755e-19)
(0.318516 -0.0189687 0)
(0.363336 -0.045776 4.79201e-21)
(0.401457 -0.0688146 0)
(0.432518 -0.0875423 9.88239e-19)
(0.456702 -0.101838 0)
(0.474588 -0.111902 -4.89292e-19)
(0.486995 -0.118151 4.9153e-19)
(0.494851 -0.121119 0)
(0.49908 -0.12138 0)
(0.500536 -0.119488 -1.42979e-18)
(0.49996 -0.115949 4.73582e-19)
(0.497966 -0.111195 0)
(0.49504 -0.105582 9.31558e-19)
(0.491554 -0.0993963 9.26342e-19)
(0.48778 -0.092862 -1.82953e-18)
(0.483911 -0.08615 1.81163e-18)
(0.480085 -0.0793908 3.16849e-21)
(0.47641 -0.0726916 8.84473e-19)
(0.472964 -0.0661782 -8.80846e-19)
(0.469674 -0.0602312 0)
(-0.0217927 0.0340191 1.03497e-18)
(-0.0410538 0.0775226 -1.12336e-19)
(-0.0388413 0.105767 -9.19562e-19)
(-0.0188179 0.118205 0)
(0.0160859 0.117036 -9.53446e-19)
(0.0621706 0.104846 0)
(0.115754 0.0844455 -1.21754e-18)
(0.173245 0.0586378 -7.38495e-19)
(0.231295 0.0300591 -9.82748e-19)
(0.286968 0.00103802 0)
(0.337922 -0.0265247 2.46634e-19)
(0.382535 -0.0512217 2.5117e-19)
(0.419927 -0.0721586 -4.91861e-19)
(0.449901 -0.0889113 -9.78394e-19)
(0.472801 -0.101447 -4.8593e-19)
(0.489342 -0.110022 -1.9434e-18)
(0.500454 -0.115076 9.70107e-19)
(0.507131 -0.117137 -4.88957e-22)
(0.510337 -0.116756 -4.79715e-22)
(0.510936 -0.114454 1.42656e-18)
(0.509663 -0.110695 0)
(0.507113 -0.10587 0)
(0.503752 -0.100299 -2.55924e-21)
(0.499926 -0.0942367 3.20065e-21)
(0.495882 -0.0878811 -9.0608e-19)
(0.491796 -0.081384 -9.00231e-19)
(0.487791 -0.0748627 2.68853e-21)
(0.483963 -0.0684182 -8.8448e-19)
(0.48039 -0.0621807 -8.72261e-19)
(0.477016 -0.0565813 2.84757e-21)
(-0.0216547 0.0319394 0)
(-0.0395538 0.0715823 8.93412e-19)
(-0.0352846 0.0966855 8.04815e-19)
(-0.0126751 0.106833 1.16937e-19)
(0.0251253 0.104268 1.90246e-18)
(0.0741596 0.0915223 -2.40662e-19)
(0.130473 0.0713242 1.94285e-18)
(0.19022 0.0463778 9.74894e-19)
(0.249862 0.0192015 1.47294e-18)
(0.306369 -0.0080141 7.33871e-19)
(0.357416 -0.0335204 2.45431e-19)
(0.401485 -0.0560642 1.22842e-18)
(0.437859 -0.0748926 2.9353e-23)
(0.466521 -0.089697 4.90488e-19)
(0.487982 -0.100527 9.74766e-19)
(0.503095 -0.107684 9.70415e-19)
(0.512882 -0.111621 0)
(0.518397 -0.112853 0)
(0.520626 -0.111902 0)
(0.520435 -0.109251 0)
(0.518541 -0.10532 9.33669e-19)
(0.515516 -0.100461 0)
(0.511797 -0.0949556 -3.13278e-21)
(0.507701 -0.0890285 1.82075e-18)
(0.503451 -0.0828539 9.02977e-19)
(0.499201 -0.0765662 8.94014e-19)
(0.495057 -0.0702726 1.77019e-18)
(0.491106 -0.0640707 0)
(0.487427 -0.0581006 -1.73015e-18)
(0.483994 -0.0528474 1.80185e-18)
(-0.0213991 0.0298892 8.16892e-19)
(-0.0376305 0.0657066 -8.93431e-19)
(-0.03099 0.0877018 0)
(-0.00553066 0.095591 -9.29581e-19)
(0.0353417 0.0916723 -2.41219e-19)
(0.0873855 0.0784323 -7.16402e-19)
(0.146359 0.0585195 -2.17483e-18)
(0.208168 0.0345306 -4.52846e-21)
(0.269109 0.00885205 -7.29108e-19)
(0.326102 -0.0164794 -1.70996e-18)
(0.376882 -0.0398802 -2.44388e-19)
(0.420078 -0.060258 -9.73591e-19)
(0.455163 -0.0770017 -9.71491e-19)
(0.482315 -0.0899127 0)
(0.502213 -0.0991134 -9.64733e-19)
(0.515838 -0.104941 -1.44174e-18)
(0.524295 -0.10785 4.78625e-19)
(0.528682 -0.108338 -9.49078e-19)
(0.529996 -0.106891 -9.42596e-19)
(0.529088 -0.103951 0)
(0.526655 -0.0998947 -1.86175e-18)
(0.523236 -0.0950323 0)
(0.519235 -0.0896107 -1.83254e-18)
(0.514939 -0.0838243 -9.0638e-19)
(0.510544 -0.0778253 -1.79478e-18)
(0.50618 -0.0717328 8.88596e-19)
(0.501934 -0.0656456 -2.63779e-18)
(0.497883 -0.0596618 8.67227e-19)
(0.494108 -0.0539399 5.65138e-21)
(0.49063 -0.0490233 -8.94817e-19)
(-0.021014 0.0278589 -8.16909e-19)
(-0.0352608 0.0598962 1.10978e-19)
(-0.0259288 0.0788407 7.93243e-19)
(0.00264017 0.0845312 9.29597e-19)
(0.046745 0.0793285 -9.44514e-19)
(0.101831 0.0656784 4.70074e-21)
(0.16336 0.0461464 9.64287e-19)
(0.227003 0.0232128 -1.93485e-18)
(0.288923 -0.000882783 -2.37675e-19)
(0.346038 -0.0242715 2.18761e-18)
(0.396193 -0.0455443 -1.45584e-18)
(0.438202 -0.0637729 2.42802e-18)
(0.471754 -0.0784843 2.42263e-18)
(0.497229 -0.0895815 -4.83001e-19)
(0.51547 -0.0972489 9.64746e-19)
(0.527576 -0.101848 1.43917e-18)
(0.534722 -0.103828 4.737e-19)
(0.538031 -0.10366 5.33012e-21)
(0.5385 -0.101791 4.72536e-19)
(0.536958 -0.0986207 4.66284e-19)
(0.534068 -0.0944817 -4.57111e-19)
(0.530336 -0.0896436 4.5855e-19)
(0.526129 -0.0843184 -9.0609e-19)
(0.521703 -0.0786724 9.03291e-19)
(0.517223 -0.0728365 5.84747e-21)
(0.512795 -0.0669152 8.79684e-19)
(0.508484 -0.0610005 5.81981e-21)
(0.504351 -0.0551955 -8.64206e-19)
(0.500478 -0.0496874 2.96455e-21)
(0.496959 -0.0450837 0)
(-0.0204864 0.0258392 0)
(-0.0324217 0.0541507 0)
(-0.0200784 0.0701242 -1.01995e-18)
(0.0118496 0.0737028 1.15291e-19)
(0.0593252 0.0673113 0)
(0.117455 0.0533545 9.51294e-19)
(0.181397 0.0343092 2.39146e-19)
(0.246609 0.0125273 7.24236e-19)
(0.309166 -0.00991256 9.68286e-19)
(0.366035 -0.0313213 -9.6978e-19)
(0.415218 -0.0504702 9.69842e-19)
(0.455751 -0.0665942 -9.68724e-19)
(0.487557 -0.0793511 -9.66598e-19)
(0.511221 -0.0887351 0)
(0.527745 -0.0949804 0)
(0.538329 -0.098462 0)
(0.544201 -0.0996156 -9.49774e-19)
(0.546497 -0.0988806 1.41444e-18)
(0.546199 -0.096664 -4.67139e-19)
(0.544106 -0.0933193 0)
(0.540845 -0.0891373 1.38237e-18)
(0.53688 -0.0843477 -4.55735e-19)
(0.532544 -0.0791289 9.06108e-19)
(0.528056 -0.0736195 -1.7863e-18)
(0.523554 -0.067928 1.77429e-18)
(0.519114 -0.0621439 -2.80554e-21)
(0.514777 -0.0563515 3.05337e-21)
(0.510578 -0.0506624 8.5838e-19)
(0.506595 -0.0453082 -4.1072e-22)
(0.503014 -0.0409568 8.844e-19)
(-0.0198023 0.0238214 1.00989e-19)
(-0.0290917 0.0484702 -1.0972e-19)
(-0.0134222 0.0615733 2.25192e-19)
(0.0220972 0.0631512 -1.37521e-18)
(0.0730529 0.0556892 2.33178e-19)
(0.134189 0.041546 0)
(0.200365 0.0231005 9.49765e-19)
(0.266852 0.00256238 -9.55181e-19)
(0.329688 -0.018164 0)
(0.385943 -0.0375777 1.20046e-18)
(0.433826 -0.0546326 -2.40728e-19)
(0.472626 -0.0687218 0)
(0.502509 -0.0796242 -4.796e-19)
(0.524265 -0.0874124 9.56167e-19)
(0.539041 -0.0923579 -4.76059e-19)
(0.548125 -0.0948393 4.7378e-19)
(0.552778 -0.0952714 -9.41953e-19)
(0.554137 -0.0940581 -1.30161e-22)
(0.553156 -0.0915641 -1.18234e-22)
(0.550598 -0.0880991 -4.58176e-19)
(0.547048 -0.0839117 -9.14102e-19)
(0.54293 -0.0791938 -1.0847e-22)
(0.538539 -0.0740915 2.87569e-21)
(0.534065 -0.0687147 8.91646e-19)
(0.529611 -0.0631471 -8.79887e-19)
(0.525224 -0.0574578 8.73899e-19)
(0.520909 -0.0517148 -1.72359e-18)
(0.516655 -0.0460419 -3.09432e-21)
(0.512536 -0.0407148 -1.68492e-18)
(0.508835 -0.0364862 8.79453e-19)
(-0.018946 0.0217976 0)
(-0.0252493 0.0428556 -8.72156e-19)
(-0.00594899 0.0532073 0)
(0.0333709 0.0529182 4.62067e-21)
(0.0878815 0.0445246 2.32045e-19)
(0.151947 0.030329 -1.13178e-22)
(0.220138 0.0125996 -1.89484e-18)
(0.28758 -0.00661027 7.16884e-19)
(0.350329 -0.025582 0)
(0.405614 -0.043008 -1.19925e-18)
(0.451895 -0.058023 2.39499e-19)
(0.488737 -0.0701699 0)
(0.51656 -0.0793356 -4.77125e-19)
(0.536347 -0.0856578 4.75608e-19)
(0.549376 -0.089433 4.71026e-19)
(0.557002 -0.0910338 9.42328e-19)
(0.560507 -0.0908483 -4.6834e-19)
(0.56101 -0.0892427 0)
(0.559433 -0.0865393 0)
(0.556494 -0.083005 9.19039e-19)
(0.552734 -0.0788486 -9.08403e-19)
(0.548538 -0.0742276 9.00182e-19)
(0.544169 -0.0692566 8.94521e-19)
(0.539785 -0.0640162 8.82766e-19)
(0.535469 -0.0585617 -8.73831e-19)
(0.531235 -0.0529286 8.67785e-19)
(0.527039 -0.0471492 8.55762e-19)
(0.522765 -0.0413259 -8.46495e-19)
(0.518333 -0.0356886 2.50552e-21)
(0.513949 -0.0311335 1.75007e-18)
(-0.0179058 0.0197661 1.0001e-19)
(-0.020878 0.0373132 7.63753e-19)
(0.00234465 0.0450491 0)
(0.0456465 0.0430454 9.11702e-19)
(0.103749 0.0338754 0)
(0.170625 0.0197709 0)
(0.240577 0.00287359 7.09506e-19)
(0.308633 -0.0149339 2.64066e-22)
(0.370926 -0.0321277 2.37926e-19)
(0.424904 -0.0475954 2.38081e-19)
(0.469313 -0.0606467 -7.1457e-19)
(0.504013 -0.0709626 4.75977e-19)
(0.529675 -0.0785237 0)
(0.547466 -0.0835181 0)
(0.558775 -0.0862556 -9.44728e-19)
(0.565006 -0.0870948 0)
(0.567443 -0.0863929 -4.658e-19)
(0.567179 -0.0844774 4.62625e-19)
(0.56509 -0.0816287 4.59123e-19)
(0.561849 -0.0780733 -5.4452e-23)
(0.557951 -0.0739847 -4.51448e-19)
(0.553746 -0.069489 0)
(0.549465 -0.0646729 -8.85659e-19)
(0.545249 -0.0595911 8.76965e-19)
(0.541173 -0.0542687 0)
(0.537252 -0.0486965 0)
(0.533439 -0.0428394 0)
(0.529589 -0.0366629 0)
(0.525277 -0.0303042 -8.31514e-19)
(0.521137 -0.023444 1.73844e-18)
(0.265292 -0.0225103 -0.0255771)
(0.280864 0.00340119 -0.0263794)
(0.292168 0.0296839 -0.0265809)
(0.296645 0.0506192 -0.0267417)
(0.298355 0.06638 -0.0268306)
(0.297693 0.0784491 -0.0268777)
(0.295392 0.0888884 -0.026885)
(0.291837 0.0988844 -0.0268606)
(0.287259 0.108763 -0.0268151)
(0.281851 0.118461 -0.0267604)
(0.275742 0.127825 -0.0267018)
(0.269026 0.136752 -0.026643)
(0.261769 0.145199 -0.0265894)