/*--------------------------------*- C++ -*----------------------------------*\
  =========                 |
  \\      /  F ield         | OpenFOAM: The Open Source CFD Toolbox
   \\    /   O peration     | Website:  https://openfoam.org
    \\  /    A nd           | Version:  7
     \\/     M anipulation  |
\*---------------------------------------------------------------------------*/
FoamFile
{
    version     2.0;
    format      ascii;
    class       volScalarField;
    location    "4.9";
    object      p;
}
// * * * * * * * * * * * * * * * * * * * * * * * * * * * * * * * * * * * * * //

dimensions      [0 2 -2 0 0 0 0];

internalField   nonuniform List<scalar> 
2000
(
0.32295
0.324508
0.327914
0.332871
0.338568
0.344261
0.34944
0.353858
0.357488
0.360454
0.323346
0.324663
0.327924
0.332609
0.337947
0.343245
0.348029
0.352064
0.355313
0.357881
0.323589
0.324749
0.327908
0.332342
0.33732
0.342218
0.346605
0.350268
0.353156
0.355333
0.323624
0.324724
0.327794
0.331979
0.336567
0.341031
0.344999
0.348293
0.350858
0.352689
0.323381
0.324522
0.327513
0.331419
0.335556
0.339518
0.343015
0.345919
0.348199
0.349791
0.322799
0.324094
0.327005
0.330564
0.33417
0.337535
0.340477
0.342945
0.344957
0.34647
0.321839
0.323405
0.32623
0.329361
0.33235
0.335014
0.337307
0.339277
0.340992
0.342592
0.320482
0.322451
0.325165
0.327829
0.330115
0.331991
0.333563
0.334988
0.336311
0.33813
0.318726
0.32125
0.323838
0.326009
0.327543
0.328578
0.329376
0.330252
0.331461
0.33325
0.316622
0.319802
0.322286
0.323954
0.324722
0.324889
0.324811
0.324821
0.325183
0.326781
0.365675
0.371545
0.37523
0.379651
0.381427
0.385289
0.385814
0.388538
0.388445
0.389672
0.362562
0.3685
0.372037
0.376459
0.378267
0.382186
0.382829
0.385582
0.385615
0.386871
0.359393
0.365513
0.368859
0.373252
0.375058
0.37905
0.379785
0.382587
0.382733
0.384017
0.356089
0.362553
0.365692
0.370018
0.371814
0.375884
0.376689
0.379553
0.379795
0.381107
0.352538
0.359581
0.362521
0.366746
0.368553
0.372684
0.373548
0.376479
0.376799
0.378135
0.348613
0.356538
0.359328
0.363431
0.365283
0.369442
0.370373
0.373358
0.373745
0.375103
0.344217
0.353342
0.356088
0.360075
0.362012
0.36615
0.367179
0.370186
0.370632
0.371989
0.339358
0.349892
0.352764
0.356663
0.358726
0.36279
0.36397
0.366948
0.367467
0.36884
0.334269
0.346107
0.349362
0.35323
0.355469
0.35939
0.360777
0.363645
0.364237
0.365491
0.329611
0.341841
0.345749
0.349661
0.352146
0.355891
0.357561
0.360244
0.360984
0.362346
0.321404
0.333775
0.338366
0.341865
0.34474
0.347641
0.349942
0.351899
0.35265
0.351916
0.297366
0.310533
0.316945
0.322777
0.327526
0.331314
0.334051
0.336237
0.338942
0.341534
0.270464
0.285305
0.293505
0.301187
0.308045
0.313679
0.318055
0.320344
0.319456
0.317939
0.24138
0.257849
0.267026
0.275696
0.283081
0.289415
0.293866
0.296578
0.301633
0.307174
0.210292
0.227517
0.237928
0.248087
0.257698
0.266256
0.272031
0.274194
0.270332
0.273449
0.175964
0.194733
0.205857
0.215674
0.224786
0.232498
0.239079
0.243293
0.24794
0.257371
0.139187
0.156941
0.168605
0.180536
0.191307
0.198701
0.202217
0.203804
0.209904
0.21725
0.0997012
0.117598
0.128298
0.138028
0.1472
0.154741
0.160639
0.164991
0.167589
0.170264
0.0552962
0.0714566
0.0832716
0.0920811
0.0976726
0.101873
0.106665
0.110968
0.113192
0.115749
0.010582
0.0221758
0.0297161
0.0351548
0.0381816
0.0409041
0.042407
0.0440279
0.045439
0.0474869
0.305823
0.281001
0.25305
0.223138
0.192077
0.156875
0.122358
0.0827313
0.0435305
0.00161422
0.299293
0.273228
0.244962
0.215026
0.184091
0.148904
0.115106
0.0753904
0.0385534
-0.00202512
0.292
0.266125
0.237672
0.207712
0.176865
0.141798
0.108438
0.0688796
0.0341865
-0.00534012
0.284759
0.259305
0.230644
0.200582
0.169804
0.134993
0.101858
0.0627123
0.0300121
-0.00875878
0.277744
0.252797
0.224085
0.193798
0.163023
0.128526
0.0954264
0.057044
0.0260468
-0.0126797
0.271384
0.246589
0.217937
0.187321
0.156462
0.122306
0.0891778
0.0518726
0.0223251
-0.0166189
0.265928
0.240787
0.212286
0.181305
0.150232
0.116393
0.0832421
0.0472563
0.019118
-0.0180229
0.261594
0.235617
0.207208
0.175873
0.144432
0.110823
0.0777057
0.0431402
0.0166529
-0.0167557
0.258494
0.231374
0.202846
0.17117
0.13921
0.10569
0.0726451
0.0394882
0.0149255
-0.0145367
0.256606
0.228223
0.199257
0.167204
0.134628
0.101038
0.0680811
0.0362118
0.0133607
-0.011531
0.255777
0.226064
0.19637
0.163864
0.130651
0.0968511
0.0639901
0.0332408
0.0118265
-0.00843123
0.255935
0.224836
0.194193
0.161127
0.127261
0.09312
0.0603442
0.0305609
0.0104136
-0.00560088
0.257198
0.224642
0.192883
0.159067
0.124453
0.0898347
0.0571267
0.0282363
0.00924772
-0.00314253
0.259787
0.225506
0.192414
0.157531
0.122025
0.0868503
0.0542783
0.0262617
0.00841164
-0.00108832
0.263688
0.227108
0.192284
0.156035
0.119608
0.0839586
0.0517289
0.0246226
0.00788991
0.000567063
0.268313
0.228889
0.19199
0.154425
0.117258
0.0812937
0.0495429
0.0233211
0.00762421
0.00185231
0.273008
0.231591
0.19285
0.15428
0.116366
0.0798499
0.0481195
0.0224512
0.00755771
0.00282087
0.27955
0.238671
0.198687
0.158826
0.119293
0.0810416
0.0481684
0.0221576
0.00764919
0.00348262
0.290055
0.251929
0.210171
0.167905
0.125668
0.0846324
0.0495547
0.0224453
0.00785958
0.00389286
0.296501
0.258393
0.21395
0.169482
0.12592
0.0842731
0.0493079
0.0227897
0.00831152
0.00408343
0.29408
0.248898
0.200411
0.153544
0.110219
0.071622
0.0425358
0.0235594
0.0117421
0.00398876
0.286872
0.235067
0.182085
0.134196
0.092718
0.0585376
0.033079
0.0188782
0.0122443
0.00361584
0.277896
0.223237
0.166117
0.119327
0.0827101
0.0570126
0.0412151
0.0284557
0.0181363
0.00499588
0.269602
0.210993
0.154041
0.110751
0.0788568
0.0561354
0.0408324
0.0314555
0.0190773
0.00639971
0.26588
0.203437
0.149525
0.111689
0.0846915
0.0654988
0.0506115
0.0366407
0.0215142
0.00740157
0.264929
0.201619
0.153177
0.120342
0.0946821
0.0740948
0.0566848
0.0401087
0.023101
0.00725977
0.271935
0.211906
0.167549
0.134574
0.105579
0.0813245
0.0614553
0.0430441
0.0244252
0.00679481
0.290912
0.232448
0.185484
0.146518
0.11314
0.0878564
0.0666633
0.0465347
0.0260216
0.00747688
0.314841
0.252247
0.199895
0.155637
0.120829
0.094428
0.0707283
0.0491938
0.0280407
0.00869297
0.330518
0.267343
0.211549
0.161533
0.125195
0.100082
0.0745648
0.0505327
0.028907
0.0090511
0.323783
0.321976
0.313852
0.310008
0.309624
0.314131
0.321486
0.338123
0.36528
0.38283
0.33571
0.334629
0.327443
0.326744
0.327905
0.33452
0.3434
0.361227
0.391317
0.407649
0.347189
0.346574
0.34093
0.342472
0.345427
0.353729
0.365039
0.385373
0.418835
0.432785
0.358884
0.358588
0.354887
0.35787
0.362274
0.37194
0.385014
0.40677
0.441545
0.4548
0.370682
0.370648
0.368758
0.373
0.378682
0.389666
0.403866
0.426038
0.460521
0.474616
0.381929
0.382379
0.38208
0.387632
0.394576
0.406886
0.421996
0.444159
0.478202
0.494433
0.392584
0.393519
0.39462
0.401461
0.409659
0.42327
0.439321
0.461264
0.495358
0.514807
0.402495
0.403883
0.406261
0.414249
0.423622
0.438437
0.455533
0.477102
0.511636
0.534513
0.411496
0.413373
0.416909
0.425877
0.436273
0.452101
0.47028
0.491393
0.526596
0.55202
0.419533
0.421958
0.426515
0.436306
0.447545
0.464118
0.483291
0.503867
0.539686
0.56618
0.426594
0.429643
0.435069
0.445544
0.45745
0.474472
0.494441
0.514322
0.550164
0.576197
0.432694
0.436412
0.442583
0.453595
0.466029
0.483203
0.503724
0.522723
0.557561
0.581871
0.437873
0.442253
0.449086
0.460465
0.473334
0.490413
0.511238
0.529221
0.562064
0.583819
0.442169
0.447196
0.454625
0.466229
0.479455
0.496254
0.517153
0.53407
0.564316
0.583146
0.445633
0.451299
0.45926
0.470989
0.4845
0.500905
0.521677
0.537553
0.565027
0.580931
0.448327
0.454624
0.463056
0.474847
0.488577
0.504538
0.525022
0.539935
0.564752
0.577963
0.45032
0.457246
0.466089
0.47791
0.491789
0.507315
0.527389
0.54145
0.563859
0.574737
0.451683
0.459242
0.468439
0.480278
0.494234
0.509367
0.528939
0.542284
0.562569
0.571524
0.452457
0.46067
0.470182
0.482065
0.496041
0.510859
0.52985
0.542603
0.561014
0.568462
0.452574
0.461543
0.471321
0.483232
0.497161
0.511719
0.5301
0.542439
0.559221
0.565563
0.454785
0.464844
0.475221
0.48743
0.500526
0.514417
0.530637
0.541775
0.55475
0.559515
0.463316
0.472697
0.48233
0.493594
0.505232
0.516764
0.530458
0.53843
0.548537
0.551326
0.470059
0.479045
0.488075
0.498191
0.508399
0.517513
0.529102
0.534362
0.542626
0.544174
0.474453
0.482906
0.491442
0.500658
0.509901
0.517276
0.527161
0.530659
0.537267
0.538124
0.477955
0.485588
0.493385
0.501647
0.51001
0.516075
0.52469
0.527165
0.532421
0.532866
0.48023
0.487351
0.494537
0.501973
0.509579
0.514604
0.522124
0.523908
0.528043
0.528078
0.481515
0.488196
0.494927
0.501773
0.508832
0.513142
0.519772
0.521121
0.524274
0.524192
0.481965
0.488378
0.494749
0.501189
0.507868
0.511756
0.517724
0.518896
0.521527
0.519284
0.48158
0.487971
0.494016
0.50023
0.506578
0.509556
0.515448
0.515882
0.515466
0.518131
0.482404
0.488349
0.494459
0.500755
0.506336
0.51125
0.516203
0.517965
0.521743
0.502756
0.448676
0.457405
0.46438
0.469235
0.473489
0.475992
0.477686
0.478421
0.47857
0.478905
0.447388
0.456233
0.462895
0.467719
0.472002
0.474448
0.476206
0.476964
0.477383
0.477402
0.446913
0.456004
0.462152
0.466771
0.470822
0.473094
0.474814
0.475504
0.476127
0.475796
0.445824
0.455146
0.461075
0.465649
0.46955
0.47172
0.473421
0.474045
0.474799
0.474179
0.44445
0.453824
0.459716
0.464344
0.468185
0.470318
0.472023
0.472603
0.473445
0.47263
0.443054
0.452373
0.458319
0.463003
0.466807
0.468928
0.47064
0.471182
0.472086
0.47116
0.441614
0.45084
0.45694
0.461669
0.465447
0.467567
0.46928
0.469789
0.470724
0.469755
0.440102
0.449216
0.455563
0.460337
0.464106
0.466241
0.467946
0.468443
0.469344
0.468402
0.438544
0.447547
0.454183
0.459007
0.462787
0.464954
0.466644
0.467139
0.467962
0.46707
0.43698
0.445892
0.452814
0.457693
0.461499
0.46371
0.465374
0.465889
0.466597
0.46574
0.435421
0.444274
0.451469
0.456403
0.460254
0.462518
0.464162
0.464682
0.465254
0.464425
0.433838
0.442672
0.450138
0.455144
0.459054
0.461383
0.463011
0.463522
0.463935
0.463144
0.432089
0.44109
0.448798
0.453919
0.457896
0.460307
0.461925
0.462423
0.462648
0.461914
0.43017
0.439478
0.447416
0.452728
0.456775
0.459293
0.460905
0.461393
0.461401
0.460749
0.428052
0.437801
0.446007
0.451559
0.455698
0.458342
0.459956
0.460438
0.460202
0.459673
0.425717
0.436055
0.444563
0.450404
0.454663
0.457452
0.459083
0.459565
0.459056
0.458704
0.423177
0.434252
0.44307
0.449257
0.453665
0.45662
0.458289
0.45878
0.457972
0.457869
0.420396
0.432366
0.441514
0.448103
0.452698
0.455841
0.457575
0.458089
0.456956
0.457177
0.417529
0.430451
0.439921
0.446938
0.451757
0.455107
0.456938
0.457492
0.456017
0.456675
0.414003
0.428207
0.438155
0.445696
0.450816
0.454404
0.456377
0.456994
0.455162
0.456317
0.407624
0.423668
0.434608
0.442945
0.448827
0.452904
0.455286
0.456222
0.454579
0.45605
0.411333
0.423683
0.433775
0.441959
0.447803
0.452181
0.454791
0.455983
0.455516
0.456216
0.413596
0.423896
0.433832
0.441704
0.447479
0.452153
0.454989
0.4565
0.456871
0.456746
0.416162
0.425102
0.434763
0.442516
0.448392
0.453414
0.456482
0.458083
0.458424
0.458227
0.41663
0.425325
0.434836
0.442558
0.448607
0.453995
0.457498
0.459568
0.460266
0.459973
0.41974
0.42791
0.437008
0.444865
0.451303
0.457214
0.461121
0.462962
0.462926
0.46315
0.419495
0.42791
0.436869
0.444835
0.451498
0.457834
0.462627
0.465008
0.465146
0.469176
0.422022
0.430368
0.439236
0.447609
0.455257
0.462446
0.468111
0.47184
0.472589
0.485117
0.421846
0.430331
0.43891
0.447307
0.454939
0.46322
0.470373
0.475149
0.477119
0.516115
0.422973
0.431511
0.440271
0.449247
0.458376
0.468678
0.479809
0.491196
0.511561
0.582712
0.397149
0.402231
0.404065
0.408448
0.408514
0.41313
0.412266
0.415751
0.41512
0.416529
0.393519
0.398769
0.400746
0.405428
0.405499
0.410368
0.409395
0.41307
0.412289
0.413733
0.390887
0.396161
0.398584
0.403075
0.403324
0.407901
0.406984
0.410511
0.409665
0.411036
0.387938
0.393407
0.396292
0.400685
0.401157
0.405454
0.404689
0.407979
0.407154
0.408421
0.384758
0.39041
0.393627
0.398014
0.398712
0.402849
0.402273
0.405379
0.404616
0.405808
0.381552
0.387327
0.390766
0.395143
0.396067
0.400093
0.399714
0.402693
0.40201
0.403163
0.378345
0.384201
0.387801
0.392163
0.393313
0.397246
0.397065
0.399945
0.399356
0.400499
0.375134
0.381031
0.384746
0.389106
0.390474
0.394338
0.394354
0.397156
0.396674
0.397826
0.371941
0.377839
0.381613
0.385987
0.387544
0.391374
0.391579
0.394327
0.393968
0.395139
0.368788
0.374665
0.37843
0.382829
0.384524
0.388355
0.388732
0.391455
0.391228
0.392425
0.314178
0.318109
0.320507
0.321682
0.321707
0.321026
0.320039
0.318954
0.317571
0.314753
0.311365
0.316147
0.318458
0.319157
0.318494
0.317042
0.315207
0.313188
0.310691
0.307669
0.308187
0.31386
0.316059
0.316311
0.315061
0.312965
0.310438
0.30772
0.304522
0.301316
0.304635
0.31119
0.31324
0.313106
0.311411
0.308837
0.305788
0.302525
0.298784
0.295249
0.300723
0.308109
0.309992
0.309582
0.307623
0.304747
0.301336
0.297642
0.293469
0.289528
0.296529
0.304647
0.306399
0.30588
0.303854
0.300844
0.297209
0.293184
0.288671
0.284271
0.292204
0.300906
0.302653
0.302232
0.300323
0.297321
0.293573
0.289306
0.284526
0.279675
0.287978
0.297066
0.299029
0.298921
0.297272
0.294382
0.2906
0.286166
0.281177
0.275937
0.28412
0.293385
0.295846
0.296233
0.294934
0.292211
0.288439
0.283893
0.278739
0.273207
0.280873
0.290169
0.29341
0.294419
0.2935
0.290955
0.287209
0.282578
0.27729
0.271553
0.2784
0.28773
0.291989
0.293683
0.293125
0.290733
0.287
0.282291
0.276881
0.270984
0.277148
0.286533
0.291868
0.294196
0.293926
0.29163
0.287882
0.283086
0.277559
0.271509
0.277312
0.286835
0.293191
0.296044
0.295965
0.293696
0.289894
0.285001
0.279364
0.273164
0.279113
0.288854
0.296075
0.299288
0.299279
0.296955
0.293048
0.288037
0.282301
0.27601
0.282761
0.292722
0.300569
0.303942
0.303882
0.301388
0.297333
0.292167
0.28633
0.280069
0.288404
0.298475
0.306667
0.309977
0.309775
0.306924
0.302712
0.297379
0.291414
0.284977
0.296094
0.306049
0.314342
0.317303
0.316717
0.313692
0.309179
0.303614
0.297377
0.290513
0.305774
0.31531
0.323503
0.325845
0.324794
0.321468
0.316655
0.310733
0.303953
0.296554
0.317323
0.326375
0.333649
0.335405
0.33387
0.330231
0.325144
0.31876
0.311236
0.303614
0.330584
0.338554
0.344795
0.345793
0.343766
0.339882
0.334664
0.32803
0.320179
0.312643
0.345122
0.351585
0.356636
0.356763
0.35423
0.350147
0.344947
0.338446
0.331013
0.325805
0.36057
0.365181
0.36886
0.368047
0.364994
0.360683
0.355431
0.349103
0.342474
0.338559
0.376358
0.37894
0.381131
0.379364
0.375817
0.371326
0.366123
0.360127
0.354174
0.3507
0.391948
0.392451
0.393118
0.390423
0.386415
0.381784
0.376704
0.371129
0.365795
0.362615
0.406834
0.405311
0.404507
0.400955
0.396551
0.391838
0.386941
0.381817
0.37707
0.374213
0.420552
0.417159
0.415016
0.410722
0.406009
0.401285
0.396627
0.391978
0.387811
0.385274
0.432708
0.427691
0.424406
0.41952
0.414604
0.409949
0.405586
0.401436
0.397809
0.395562
0.442993
0.436674
0.432492
0.427192
0.422196
0.417692
0.413677
0.410052
0.406981
0.405032
0.451192
0.443947
0.43915
0.433631
0.428685
0.424418
0.420799
0.417725
0.415236
0.413616
0.457187
0.449419
0.44431
0.438778
0.434015
0.430069
0.426891
0.424381
0.422484
0.421222
0.460955
0.453077
0.447962
0.442623
0.438175
0.43463
0.431932
0.429989
0.428677
0.427799
0.462616
0.454973
0.450142
0.445194
0.441187
0.438121
0.435935
0.434553
0.433812
0.433345
0.462286
0.455208
0.450933
0.446563
0.443114
0.440594
0.438947
0.438113
0.437917
0.437883
0.460136
0.453917
0.450447
0.446824
0.444038
0.442123
0.441037
0.440735
0.441053
0.441459
0.456377
0.451261
0.448814
0.44609
0.444059
0.442799
0.442289
0.442504
0.443298
0.444139
0.451245
0.447419
0.446177
0.444482
0.443283
0.442718
0.442797
0.443512
0.444745
0.446003
0.444983
0.442577
0.442681
0.442121
0.441819
0.441979
0.442653
0.443854
0.445487
0.447136
0.437836
0.436918
0.438471
0.439127
0.43977
0.440676
0.441948
0.44362
0.445615
0.447618
0.430035
0.430621
0.433682
0.43561
0.437233
0.438895
0.44076
0.442893
0.445215
0.447525
0.4218
0.423854
0.428441
0.431673
0.434295
0.436717
0.439165
0.441757
0.444399
0.446856
0.413316
0.416765
0.422862
0.427403
0.431033
0.434211
0.437213
0.440243
0.443258
0.445587
0.404701
0.409485
0.417048
0.422879
0.427512
0.431442
0.434989
0.438416
0.4418
0.444457
0.396168
0.402159
0.411096
0.418171
0.423789
0.428464
0.43256
0.436376
0.440073
0.443098
0.387872
0.3949
0.405092
0.413338
0.419912
0.425318
0.429958
0.434165
0.438142
0.441431
0.379943
0.387791
0.399108
0.408434
0.415922
0.422033
0.427202
0.431791
0.436038
0.439567
0.372492
0.380909
0.393195
0.403502
0.411857
0.418638
0.424312
0.429265
0.433771
0.437546
0.365549
0.374451
0.387344
0.398589
0.407754
0.415162
0.421311
0.426609
0.431352
0.435369
0.359151
0.368369
0.381691
0.393753
0.403647
0.411638
0.418235
0.423857
0.428818
0.43306
0.353328
0.362669
0.376305
0.38902
0.399568
0.408103
0.415122
0.421058
0.426228
0.43068
0.348122
0.357396
0.37118
0.384413
0.395536
0.404583
0.412009
0.418258
0.423636
0.428289
0.34363
0.352623
0.366349
0.379952
0.391569
0.401084
0.408909
0.415468
0.421065
0.425914
0.33957
0.348266
0.361812
0.375654
0.387683
0.397621
0.405818
0.412677
0.41849
0.423503
0.335977
0.344338
0.357582
0.371528
0.383873
0.394178
0.402712
0.409849
0.415856
0.421017
0.332863
0.340841
0.353661
0.367565
0.38012
0.390723
0.39955
0.406935
0.41311
0.418385
0.3302
0.337759
0.350046
0.363769
0.376416
0.387234
0.396299
0.403891
0.410211
0.415579
0.327948
0.33507
0.346737
0.360145
0.372763
0.383704
0.392939
0.400693
0.407131
0.412578
0.326071
0.332752
0.343733
0.356706
0.369173
0.380134
0.389462
0.397324
0.403852
0.409369
0.324535
0.33078
0.341031
0.353465
0.365662
0.376539
0.385874
0.393781
0.400353
0.405915
0.323306
0.329127
0.338626
0.350434
0.362255
0.372939
0.382183
0.390059
0.39661
0.402155
0.322355
0.327767
0.336508
0.347631
0.358982
0.369372
0.378426
0.386189
0.392661
0.397917
0.321651
0.32667
0.334667
0.345067
0.355877
0.365887
0.374633
0.382105
0.388371
0.392987
0.321133
0.325792
0.333086
0.342755
0.352981
0.362556
0.370945
0.378059
0.384027
0.388678
0.320813
0.325123
0.331755
0.340707
0.350335
0.359462
0.367516
0.374364
0.380151
0.384907
0.320678
0.324641
0.33066
0.338926
0.347967
0.356652
0.364395
0.371026
0.376665
0.381387
0.320707
0.324319
0.329783
0.337408
0.345881
0.354128
0.361555
0.367959
0.37342
0.378027
0.320876
0.324133
0.329103
0.33614
0.34407
0.35188
0.358974
0.365122
0.370372
0.374821
0.321162
0.324061
0.328599
0.335106
0.342522
0.349895
0.356636
0.362497
0.3675
0.371747
0.321538
0.324082
0.32825
0.334287
0.341222
0.348161
0.35453
0.36007
0.364782
0.368775
0.321974
0.324173
0.328034
0.33366
0.340151
0.346663
0.352642
0.357827
0.362205
0.365895
0.322447
0.324317
0.327926
0.333197
0.339278
0.345376
0.350955
0.355761
0.359774
0.363118
)
;

boundaryField
{
    inlet
    {
        type            zeroGradient;
    }
    outlet
    {
        type            fixedValue;
        value           uniform 0;
    }
    cylinder
    {
        type            zeroGradient;
    }
    top
    {
        type            symmetryPlane;
    }
    bottom
    {
        type            symmetryPlane;
    }
    defaultFaces
    {
        type            empty;
    }
}


// ************************************************************************* //
