/*--------------------------------*- C++ -*----------------------------------*\
  =========                 |
  \\      /  F ield         | OpenFOAM: The Open Source CFD Toolbox
   \\    /   O peration     | Website:  https://openfoam.org
    \\  /    A nd           | Version:  7
     \\/     M anipulation  |
\*---------------------------------------------------------------------------*/
FoamFile
{
    version     2.0;
    format      ascii;
    class       volScalarField;
    location    "0.0625";
    object      p;
}
// * * * * * * * * * * * * * * * * * * * * * * * * * * * * * * * * * * * * * //

dimensions      [0 2 -2 0 0 0 0];

internalField   nonuniform List<scalar> 
400
(
6.51295e-07
-0.00552612
-0.0121317
-0.0170597
-0.0187079
-0.0163465
-0.00993048
0.000108187
0.0130116
0.0277953
0.0433212
0.0583656
0.0716976
0.0821792
0.0888942
0.0913103
0.0894778
0.0842454
0.0773941
0.0718626
0.00544129
-0.000245604
-0.00535655
-0.00868437
-0.0094395
-0.00711131
-0.00164091
0.00666353
0.0172302
0.0292935
0.041952
0.0542307
0.0651518
0.0738229
0.0795413
0.0819144
0.0810018
0.077409
0.0720946
0.0664206
0.0124492
0.00454224
-0.00100032
-0.00406905
-0.0046507
-0.00246772
0.00246799
0.00986163
0.0192182
0.0298853
0.0410922
0.0519969
0.0617467
0.069553
0.0747762
0.0770228
0.0762706
0.0728902
0.0670861
0.0591583
0.0187249
0.00779937
0.000894834
-0.00263033
-0.00340927
-0.00137293
0.00336258
0.0104569
0.0194251
0.0296588
0.0404444
0.0509943
0.0604938
0.0681629
0.0733281
0.0755094
0.0745549
0.0706296
0.0633324
0.0522853
0.0227359
0.00859598
5.16966e-05
-0.0041372
-0.00516382
-0.00314152
0.00170376
0.00896383
0.0181329
0.0286114
0.0397038
0.0506334
0.0605743
0.068701
0.0742501
0.0766045
0.0754543
0.0707743
0.0616442
0.0471749
0.0233146
0.00586952
-0.00440225
-0.00926223
-0.0104197
-0.00815638
-0.00281159
0.00512472
0.0151063
0.0265189
0.0386587
0.050729
0.0618566
0.0711271
0.0776385
0.0805877
0.0794705
0.0740625
0.0629519
0.0448195
0.0194293
-0.00143741
-0.013429
-0.0188198
-0.0198455
-0.016963
-0.0106355
-0.00144673
0.0100047
0.0230781
0.0370482
0.0510817
0.064234
0.0754682
0.0836968
0.0878746
0.0872455
0.0813411
0.0682101
0.0460982
0.0099784
-0.0144779
-0.0280967
-0.0337256
-0.0341979
-0.0301808
-0.0222831
-0.0111946
0.00243017
0.017926
0.03455
0.0514334
0.0675536
0.0817298
0.0926458
0.0989462
0.0995381
0.0936136
0.0785408
0.0520348
-0.00636419
-0.0346299
-0.0496761
-0.0550608
-0.0543601
-0.0485214
-0.0383358
-0.0246121
-0.00805548
0.0106626
0.0308057
0.0514942
0.0716435
0.0899255
0.104761
0.114407
0.117314
0.112174
0.0954178
0.0640218
-0.0312876
-0.0636188
-0.0797112
-0.0840846
-0.0813071
-0.0727229
-0.0593586
-0.0421549
-0.0218486
0.000920599
0.0254733
0.0509729
0.076321
0.10007
0.120365
0.134994
0.1418
0.138731
0.12086
0.0840525
-0.0670297
-0.103681
-0.120097
-0.122221
-0.116024
-0.103426
-0.0857557
-0.0640914
-0.0391625
-0.0115103
0.0183256
0.0496444
0.0814269
0.112183
0.139809
0.161573
0.174531
0.17555
0.157688
0.115035
-0.116713
-0.157819
-0.173178
-0.171008
-0.15936
-0.140974
-0.117552
-0.0902863
-0.0598237
-0.0265028
0.00940094
0.0474621
0.0868927
0.126308
0.163467
0.195126
0.2174
0.225638
0.209891
0.161304
-0.185029
-0.230236
-0.241853
-0.231974
-0.211777
-0.185117
-0.15409
-0.119915
-0.0830169
-0.0433704
-0.000813554
0.0446967
0.0928241
0.142535
0.191691
0.236692
0.272659
0.292947
0.28319
0.229544
-0.279734
-0.327042
-0.329616
-0.306322
-0.272906
-0.234555
-0.19363
-0.151138
-0.107025
-0.0606654
-0.0112302
0.0420354
0.0995356
0.160948
0.224667
0.287156
0.342765
0.382514
0.385877
0.330634
-0.414859
-0.457357
-0.440264
-0.394156
-0.340736
-0.28628
-0.232878
-0.180795
-0.129065
-0.0761114
-0.0201653
0.0405135
0.107402
0.181361
0.261978
0.346631
0.429725
0.500239
0.530013
0.483297
-0.616548
-0.634638
-0.577039
-0.493205
-0.410525
-0.334854
-0.266642
-0.20436
-0.145429
-0.0868632
-0.0256634
0.0411489
0.116439
0.202783
0.301869
0.413457
0.533936
0.652043
0.732522
0.719806
-0.933549
-0.87696
-0.741133
-0.597966
-0.474483
-0.372587
-0.288406
-0.216747
-0.152353
-0.0903658
-0.0262992
0.0442218
0.125674
0.222828
0.340606
0.483397
0.653003
0.842015
1.01483
1.09534
-1.47955
-1.20159
-0.921277
-0.693289
-0.518586
-0.388437
-0.290471
-0.213069
-0.147129
-0.085576
-0.0224619
0.0478334
0.131344
0.235296
0.368963
0.544255
0.773309
1.06057
1.39804
1.73323
-2.57142
-1.6023
-1.04449
-0.716361
-0.499525
-0.354936
-0.256576
-0.184609
-0.126112
-0.0725296
-0.0173315
0.0453444
0.122186
0.221967
0.358002
0.551363
0.830846
1.23563
1.88121
2.95881
-4.44542
-2.01812
-0.971451
-0.5667
-0.359749
-0.241622
-0.171398
-0.124472
-0.0873196
-0.0524468
-0.0148194
0.0300778
0.0872729
0.164263
0.274452
0.443807
0.720665
1.22272
2.38462
4.92947
)
;

boundaryField
{
    movingWall
    {
        type            zeroGradient;
    }
    fixedWalls
    {
        type            zeroGradient;
    }
    frontAndBack
    {
        type            empty;
    }
}


// ************************************************************************* //
