/*--------------------------------*- C++ -*----------------------------------*\
  =========                 |
  \\      /  F ield         | OpenFOAM: The Open Source CFD Toolbox
   \\    /   O peration     | Website:  https://openfoam.org
    \\  /    A nd           | Version:  7
     \\/     M anipulation  |
\*---------------------------------------------------------------------------*/
FoamFile
{
    version     2.0;
    format      ascii;
    class       surfaceScalarField;
    location    "0.0625";
    object      phi;
}
// * * * * * * * * * * * * * * * * * * * * * * * * * * * * * * * * * * * * * //

dimensions      [0 3 -1 0 0 0 0];

internalField   nonuniform List<scalar> 
760
(
1.29095e-08
-1.29131e-08
-2.20663e-08
3.49767e-08
-1.08702e-07
8.66351e-08
-2.3172e-07
1.23019e-07
-3.72582e-07
1.40862e-07
-5.13819e-07
1.41237e-07
-6.4049e-07
1.26671e-07
-7.40687e-07
1.00197e-07
-8.05612e-07
6.49249e-08
-8.29584e-07
2.39718e-08
-8.10141e-07
-1.94423e-08
-7.48266e-07
-6.18748e-08
-6.48678e-07
-9.95884e-08
-5.2009e-07
-1.28588e-07
-3.75278e-07
-1.44812e-07
-2.30719e-07
-1.44559e-07
-1.05481e-07
-1.25239e-07
-1.89488e-08
-8.65318e-08
1.42915e-08
-3.32401e-08
1.42914e-08
-3.26924e-08
1.97789e-08
-1.7022e-07
1.72504e-07
-4.08069e-07
3.24484e-07
-7.17085e-07
4.32035e-07
-1.06034e-06
4.8412e-07
-1.40057e-06
4.81462e-07
-1.70426e-06
4.30361e-07
-1.9438e-06
3.39738e-07
-2.09844e-06
2.19571e-07
-2.15483e-06
8.03604e-08
-2.10742e-06
-6.68549e-08
-1.95896e-06
-2.10335e-07
-1.72097e-06
-3.37573e-07
-1.41399e-06
-4.35574e-07
-1.06714e-06
-4.91654e-07
-7.16738e-07
-4.94965e-07
-4.02995e-07
-4.38982e-07
-1.64566e-07
-3.2496e-07
-2.9964e-08
-1.67842e-07
-1.56727e-08
-8.65234e-08
1.06303e-07
-3.35075e-07
4.21056e-07
-7.17038e-07
7.06448e-07
-1.18855e-06
9.03545e-07
-1.6989e-06
9.94474e-07
-2.19764e-06
9.80195e-07
-2.63922e-06
8.71948e-07
-2.98588e-06
6.86392e-07
-3.20907e-06
4.42763e-07
-3.2904e-06
1.61695e-07
-3.22228e-06
-1.3498e-07
-3.00853e-06
-4.24087e-07
-2.66497e-06
-6.81127e-07
-2.21964e-06
-8.80909e-07
-1.71212e-06
-9.99173e-07
-1.19153e-06
-1.01555e-06
-7.12427e-07
-9.18086e-07
-3.28296e-07
-7.09091e-07
-8.27449e-08
-4.13392e-07
-9.84176e-08
-1.36222e-07
2.42524e-07
-4.93571e-07
7.78406e-07
-1.01606e-06
1.22894e-06
-1.64102e-06
1.52851e-06
-2.30372e-06
1.65717e-06
-2.94264e-06
1.61911e-06
-3.50345e-06
1.43276e-06
-3.94151e-06
1.12446e-06
-4.22326e-06
7.24507e-07
-4.32698e-06
2.65416e-07
-4.24351e-06
-2.18454e-07
-3.97692e-06
-6.90677e-07
-3.54527e-06
-1.11278e-06
-2.98104e-06
-1.44513e-06
-2.3308e-06
-1.64941e-06
-1.65335e-06
-1.693e-06
-1.01581e-06
-1.55562e-06
-4.87445e-07
-1.23746e-06
-1.31811e-07
-7.69027e-07
-2.30228e-07
-1.82392e-07
4.24917e-07
-6.46352e-07
1.24237e-06
-1.30797e-06
1.89055e-06
-2.08338e-06
2.30391e-06
-2.89264e-06
2.46643e-06
-3.66367e-06
2.39014e-06
-4.33497e-06
2.10407e-06
-4.85711e-06
1.6466e-06
-5.19332e-06
1.06071e-06
-5.31972e-06
3.91822e-07
-5.22577e-06
-3.12401e-07
-4.91492e-06
-1.00153e-06
-4.40568e-06
-1.62202e-06
-3.73266e-06
-2.11815e-06
-2.94712e-06
-2.43495e-06
-2.11611e-06
-2.52401e-06
-1.31951e-06
-2.35222e-06
-6.44536e-07
-1.91243e-06
-1.78257e-07
-1.23531e-06
-4.08485e-07
-2.27724e-07
6.52641e-07
-7.9887e-07
1.81351e-06
-1.60094e-06
2.69262e-06
-2.52699e-06
3.22997e-06
-3.48079e-06
3.42023e-06
-4.37986e-06
3.28921e-06
-5.15675e-06
2.88096e-06
-5.75892e-06
2.24877e-06
-6.14797e-06
1.44976e-06
-6.29888e-06
5.42728e-07
-6.19977e-06
-4.11509e-07
-5.85256e-06
-1.34874e-06
-5.27441e-06
-2.20017e-06
-4.49983e-06
-2.89273e-06
-3.58267e-06
-3.35212e-06
-2.59707e-06
-3.50961e-06
-1.63619e-06
-3.31311e-06
-8.07656e-07
-2.74096e-06
-2.25649e-07
-1.81731e-06
-6.34134e-07
-2.74851e-07
9.27492e-07
-9.57051e-07
2.49571e-06
-1.90311e-06
3.63868e-06
-2.98088e-06
4.30774e-06
-4.07696e-06
4.51631e-06
-5.09908e-06
4.31133e-06
-5.97549e-06
3.75737e-06
-6.65265e-06
2.92593e-06
-7.09244e-06
1.88955e-06
-7.26988e-06
7.20168e-07
-7.17199e-06
-5.09401e-07
-6.79816e-06
-1.72257e-06
-6.16218e-06
-2.83615e-06
-5.29566e-06
-3.75924e-06
-4.25225e-06
-4.39553e-06
-3.11123e-06
-4.65063e-06
-1.97896e-06
-4.44538e-06
-9.85847e-07
-3.73407e-06
-2.77725e-07
-2.52543e-06
-9.1186e-07
-3.26072e-07
1.25356e-06
-1.12604e-06
3.29568e-06
-2.22049e-06
4.73313e-06
-3.44912e-06
5.53637e-06
-4.6809e-06
5.74809e-06
-5.81537e-06
5.4458e-06
-6.77927e-06
4.72127e-06
-7.52119e-06
3.66786e-06
-8.00607e-06
2.37443e-06
-8.21081e-06
9.24904e-07
-8.12185e-06
-5.98366e-07
-7.7351e-06
-2.10932e-06
-7.0585e-06
-3.51275e-06
-6.11708e-06
-4.70067e-06
-4.95994e-06
-5.55267e-06
-3.66785e-06
-5.94272e-06
-2.35868e-06
-5.75455e-06
-1.18759e-06
-4.90516e-06
-3.38053e-07
-3.37497e-06
-1.24991e-06
-3.83524e-07
1.63709e-06
-1.31012e-06
4.22227e-06
-2.55622e-06
5.97923e-06
-3.92935e-06
6.90951e-06
-5.28114e-06
7.09987e-06
-6.50617e-06
6.67083e-06
-7.53435e-06
5.74945e-06
-8.32116e-06
4.45468e-06
-8.83862e-06
2.89189e-06
-9.06828e-06
1.15456e-06
-8.99711e-06
-6.69532e-07
-8.61677e-06
-2.48966e-06
-7.92645e-06
-4.20307e-06
-6.93967e-06
-5.68745e-06
-5.69466e-06
-6.79767e-06
-4.26716e-06
-7.37023e-06
-2.78225e-06
-7.23945e-06
-1.42036e-06
-6.26705e-06
-4.10152e-07
-4.38518e-06
-1.66006e-06
-4.49796e-07
2.08688e-06
-1.51353e-06
5.28601e-06
-2.91069e-06
7.37639e-06
-4.4116e-06
8.41041e-06
-5.85245e-06
8.54073e-06
-7.12881e-06
7.94719e-06
-8.18097e-06
6.8016e-06
-8.97818e-06
5.25189e-06
-9.50511e-06
3.41882e-06
-9.75182e-06
1.40126e-06
-9.70772e-06
-7.1363e-07
-9.35983e-06
-2.83755e-06
-8.69556e-06
-4.86733e-06
-7.71092e-06
-6.67209e-06
-6.4245e-06
-8.08409e-06
-4.8967e-06
-8.89803e-06
-3.25106e-06
-8.88509e-06
-1.69073e-06
-7.82739e-06
-4.98e-07
-5.57791e-06
-2.15806e-06
-5.29039e-07
2.61592e-06
-1.74196e-06
6.49893e-06
-3.28183e-06
8.91625e-06
-4.87651e-06
1.00051e-05
-6.35214e-06
1.00164e-05
-7.61536e-06
9.2104e-06
-8.62753e-06
7.81378e-06
-9.3809e-06
6.00525e-06
-9.87977e-06
3.91769e-06
-1.01275e-05
1.64901e-06
-1.01187e-05
-7.22426e-07
-9.83616e-06
-3.12011e-06
-9.25296e-06
-5.45054e-06
-8.34117e-06
-7.58388e-06
-7.08869e-06
-9.33657e-06
-5.52567e-06
-1.04611e-05
-3.75867e-06
-1.06521e-05
-2.0047e-06
-9.58136e-06
-6.06938e-07
-6.97567e-06
-2.765e-06
-6.2887e-07
3.24479e-06
-2.00439e-06
7.87444e-06
-3.66429e-06
1.05762e-05
-5.29111e-06
1.16319e-05
-6.71311e-06
1.14384e-05
-7.86453e-06
1.03618e-05
-8.74266e-06
8.69191e-06
-9.37383e-06
6.63642e-06
-9.78962e-06
4.33349e-06
-1.00118e-05
1.87119e-06
-1.00434e-05
-6.90825e-07
-9.86457e-06
-3.29895e-06
-9.43311e-06
-5.88199e-06
-8.69179e-06
-8.3252e-06
-7.5859e-06
-1.04425e-05
-6.09573e-06
-1.19512e-05
-4.28617e-06
-1.24617e-05
-2.36764e-06
-1.14999e-05
-7.45208e-07
-8.5981e-06
-3.51021e-06
-7.63514e-07
4.00831e-06
-2.31455e-06
9.42548e-06
-4.04501e-06
1.23066e-05
-5.5984e-06
1.31853e-05
-6.83035e-06
1.26703e-05
-7.72816e-06
1.12596e-05
-8.34375e-06
9.3075e-06
-8.74892e-06
7.04159e-06
-9.0088e-06
4.59337e-06
-9.16724e-06
2.02963e-06
-9.23876e-06
-6.19301e-07
-9.20388e-06
-3.33383e-06
-9.00719e-06
-6.07869e-06
-8.56054e-06
-8.77184e-06
-7.75709e-06
-1.12459e-05
-6.50514e-06
-1.32032e-05
-4.7922e-06
-1.41746e-05
-2.78247e-06
-1.35096e-05
-9.26425e-07
-1.04542e-05
-4.43663e-06
-9.58566e-07
4.96687e-06
-2.68879e-06
1.11557e-05
-4.38834e-06
1.40062e-05
-5.69353e-06
1.44905e-05
-6.53481e-06
1.35116e-05
-6.98843e-06
1.17132e-05
-7.18065e-06
9.49972e-06
-7.23627e-06
7.0972e-06
-7.25506e-06
4.61216e-06
-7.30256e-06
2.07713e-06
-7.40601e-06
-5.15851e-07
-7.55055e-06
-3.18928e-06
-7.67434e-06
-5.95491e-06
-7.66446e-06
-8.78172e-06
-7.36073e-06
-1.15496e-05
-6.58121e-06
-1.39827e-05
-5.19171e-06
-1.55641e-05
-3.24228e-06
-1.54591e-05
-1.17284e-06
-1.25236e-05
-5.60947e-06
-1.25526e-06
6.22214e-06
-3.12983e-06
1.30303e-05
-4.59553e-06
1.54719e-05
-5.37233e-06
1.52673e-05
-5.54537e-06
1.36847e-05
-5.32172e-06
1.14896e-05
-4.91402e-06
9.09202e-06
-4.49574e-06
6.67893e-06
-4.19172e-06
4.30813e-06
-4.081e-06
1.96641e-06
-4.20079e-06
-3.96056e-07
-4.54554e-06
-2.84453e-06
-5.05943e-06
-5.44101e-06
-5.62283e-06
-8.21831e-06
-6.03847e-06
-1.1134e-05
-6.03317e-06
-1.3988e-05
-5.31005e-06
-1.62872e-05
-3.7052e-06
-1.70639e-05
-1.51551e-06
-1.47133e-05
-7.12498e-06
-1.70012e-06
7.92226e-06
-3.56364e-06
1.48938e-05
-4.40387e-06
1.63121e-05
-4.22883e-06
1.50922e-05
-3.38849e-06
1.28443e-05
-2.24803e-06
1.03491e-05
-1.09219e-06
7.93618e-06
-1.15405e-07
5.70215e-06
5.59128e-07
3.6336e-06
8.57434e-07
1.66811e-06
7.40917e-07
-2.79539e-07
2.02563e-07
-2.30618e-06
-7.2488e-07
-4.51357e-06
-1.9471e-06
-6.99609e-06
-3.27266e-06
-9.80846e-06
-4.3747e-06
-1.28859e-05
-4.78716e-06
-1.58747e-05
-4.01959e-06
-1.78315e-05
-1.97321e-06
-1.67597e-05
-9.09819e-06
-2.28128e-06
1.02035e-05
-3.64498e-06
1.62575e-05
-3.15753e-06
1.58247e-05
-1.47032e-06
1.3405e-05
7.176e-07
1.06564e-05
2.92288e-06
8.14384e-06
4.8584e-06
6.00066e-06
6.37074e-06
4.18981e-06
7.38243e-06
2.6219e-06
7.85274e-06
1.19779e-06
7.75543e-06
-1.82232e-07
7.07127e-06
-1.62202e-06
5.79317e-06
-3.23547e-06
3.95e-06
-5.15292e-06
1.65593e-06
-7.51438e-06
-8.07218e-07
-1.04228e-05
-2.88989e-06
-1.37921e-05
-3.7319e-06
-1.69895e-05
-2.47239e-06
-1.80192e-05
-1.15706e-05
-2.70223e-06
1.29058e-05
-2.23028e-06
1.57855e-05
6.61352e-07
1.2933e-05
4.37185e-06
9.69452e-06
7.98908e-06
7.03918e-06
1.11109e-05
5.022e-06
1.35961e-05
3.51549e-06
1.54208e-05
2.36509e-06
1.66013e-05
1.44138e-06
1.71547e-05
6.4441e-07
1.70802e-05
-1.07745e-07
1.63516e-05
-8.93401e-07
1.4917e-05
-1.80083e-06
1.27108e-05
-2.94676e-06
9.69222e-06
-4.49578e-06
5.93752e-06
-6.6681e-06
1.82886e-06
-9.68341e-06
-1.63055e-06
-1.353e-05
-2.60424e-06
-1.70455e-05
-1.41748e-05
-5.79167e-07
1.34849e-05
4.11198e-06
1.10944e-05
1.02734e-05
6.77159e-06
1.57348e-05
4.23309e-06
2.0064e-05
2.71007e-06
2.33292e-05
1.75671e-06
2.57008e-05
1.14393e-06
2.73365e-05
7.29351e-07
2.83524e-05
4.25491e-07
2.88178e-05
1.79024e-07
2.87571e-05
-4.70006e-08
2.81461e-05
-2.82428e-07
2.69096e-05
-5.64344e-07
2.49094e-05
-9.46594e-07
2.19374e-05
-1.52378e-06
1.77359e-05
-2.46656e-06
1.21299e-05
-4.07746e-06
5.50034e-06
-6.90045e-06
9.04414e-08
-1.16356e-05
-1.40844e-05
1.34849e-05
2.45793e-05
3.13509e-05
3.5584e-05
3.82941e-05
4.00508e-05
4.11947e-05
4.19241e-05
4.23496e-05
4.25286e-05
4.24816e-05
4.21992e-05
4.16348e-05
4.06882e-05
3.91644e-05
3.66979e-05
3.26204e-05
2.572e-05
1.40844e-05
)
;

boundaryField
{
    movingWall
    {
        type            calculated;
        value           uniform 0;
    }
    fixedWalls
    {
        type            calculated;
        value           uniform 0;
    }
    frontAndBack
    {
        type            empty;
        value           nonuniform 0();
    }
}


// ************************************************************************* //
