/*--------------------------------*- C++ -*----------------------------------*\
  =========                 |
  \\      /  F ield         | OpenFOAM: The Open Source CFD Toolbox
   \\    /   O peration     | Website:  https://openfoam.org
    \\  /    A nd           | Version:  7
     \\/     M anipulation  |
\*---------------------------------------------------------------------------*/
FoamFile
{
    version     2.0;
    format      ascii;
    class       volVectorField;
    location    "0.0625";
    object      U;
}
// * * * * * * * * * * * * * * * * * * * * * * * * * * * * * * * * * * * * * //

dimensions      [0 1 -1 0 0 0 0];

internalField   nonuniform List<vector> 
400
(
(0.000238979 -0.000233636 0)
(0.000123726 0.000105114 0)
(-0.00113017 0.000522936 0)
(-0.00329673 0.00081723 0)
(-0.00600833 0.000963268 0)
(-0.00889718 0.000975857 0)
(-0.011634 0.000878846 0)
(-0.0139478 0.000697076 0)
(-0.0156306 0.000453676 0)
(-0.0165371 0.000170407 0)
(-0.0165852 -0.000130848 0)
(-0.0157591 -0.000426553 0)
(-0.0141148 -0.000690462 0)
(-0.0117866 -0.000893411 0)
(-0.00899044 -0.00100423 0)
(-0.00602316 -0.000992424 0)
(-0.00324779 -0.00083367 0)
(-0.00105888 -0.000519799 0)
(0.000171709 -8.89546e-05 0)
(0.000252139 0.000244795 0)
(-6.8399e-05 -0.000148522 0)
(-0.00151895 0.00155666 0)
(-0.00536434 0.00338999 0)
(-0.0110075 0.00470114 0)
(-0.0177077 0.00535005 0)
(-0.0247096 0.00535658 0)
(-0.0312938 0.00480383 0)
(-0.0368408 0.00380031 0)
(-0.0408633 0.00246192 0)
(-0.0430182 0.000907553 0)
(-0.0431143 -0.000739092 0)
(-0.0411215 -0.00234606 0)
(-0.0371812 -0.00377134 0)
(-0.0316139 -0.00486504 0)
(-0.024921 -0.00547763 0)
(-0.0177684 -0.00547706 0)
(-0.0109388 -0.0047781 0)
(-0.00524056 -0.00338672 0)
(-0.00142597 -0.00149356 0)
(-3.9247e-05 0.000199698 0)
(-0.00048229 0.0010436 0)
(-0.0034714 0.00540764 0)
(-0.00993843 0.00959199 0)
(-0.0187439 0.0125439 0)
(-0.0288153 0.0139568 0)
(-0.03914 0.0138371 0)
(-0.048747 0.0123506 0)
(-0.056791 0.00974235 0)
(-0.0626033 0.00629296 0)
(-0.0657113 0.00230138 0)
(-0.0658523 -0.00191672 0)
(-0.0629857 -0.00602582 0)
(-0.0573062 -0.00967025 0)
(-0.0492528 -0.0124831 0)
(-0.0395081 -0.0141096 0)
(-0.0289751 -0.0142516 0)
(-0.0187092 -0.0127358 0)
(-0.0098006 -0.00960798 0)
(-0.00334991 -0.00527968 0)
(-0.000440021 -0.000924715 0)
(-0.000849752 0.0032839 0)
(-0.00532478 0.0114924 0)
(-0.0143782 0.0186832 0)
(-0.0262247 0.0235835 0)
(-0.0394204 0.0257879 0)
(-0.0527211 0.025328 0)
(-0.0649631 0.0224862 0)
(-0.0751446 0.0176813 0)
(-0.082478 0.0114 0)
(-0.0864078 0.00416656 0)
(-0.0866223 -0.00346354 0)
(-0.0830671 -0.010901 0)
(-0.0759608 -0.0175239 0)
(-0.0658078 -0.0226941 0)
(-0.0534039 -0.0257984 0)
(-0.0398187 -0.0263225 0)
(-0.0263255 -0.0239627 0)
(-0.0142819 -0.0187649 0)
(-0.00519234 -0.0113064 0)
(-0.000795772 -0.0030796 0)
(-0.00117622 0.00647506 0)
(-0.0070805 0.01971 0)
(-0.0186965 0.0305286 0)
(-0.033548 0.0375987 0)
(-0.04978 0.0405306 0)
(-0.0659113 0.0394604 0)
(-0.0806098 0.0348431 0)
(-0.0927575 0.0273131 0)
(-0.10149 0.017595 0)
(-0.1062 0.00646404 0)
(-0.106541 -0.00526142 0)
(-0.102439 -0.0167146 0)
(-0.0941069 -0.026979 0)
(-0.0820726 -0.0351087 0)
(-0.0671954 -0.0401842 0)
(-0.0506703 -0.0414151 0)
(-0.0339727 -0.0382935 0)
(-0.0187504 -0.0307795 0)
(-0.00697571 -0.0195126 0)
(-0.0011153 -0.00617885 0)
(-0.00148953 0.010573 0)
(-0.00881946 0.0300505 0)
(-0.0230259 0.0451535 0)
(-0.0409052 0.0546086 0)
(-0.0601569 0.0581685 0)
(-0.0790534 0.0561794 0)
(-0.0961103 0.0493477 0)
(-0.110126 0.0385751 0)
(-0.120193 0.0248546 0)
(-0.125682 0.00922774 0)
(-0.126223 -0.00721838 0)
(-0.121713 -0.023334 0)
(-0.112332 -0.0378952 0)
(-0.0985877 -0.049619 0)
(-0.0813554 -0.0572266 0)
(-0.0619197 -0.0595714 0)
(-0.0419489 -0.0558356 0)
(-0.0234105 -0.0457707 0)
(-0.00881365 -0.0299591 0)
(-0.00143333 -0.0102044 0)
(-0.00181605 0.0155876 0)
(-0.010629 0.0425619 0)
(-0.0275117 0.062618 0)
(-0.0484734 0.0746472 0)
(-0.0707333 0.078688 0)
(-0.092316 0.0754278 0)
(-0.111611 0.0659228 0)
(-0.127372 0.0514037 0)
(-0.138694 0.0331607 0)
(-0.144958 0.012504 0)
(-0.145785 -0.00922186 0)
(-0.141035 -0.0305994 0)
(-0.130826 -0.050102 0)
(-0.115593 -0.0660906 0)
(-0.0961685 -0.0768719 0)
(-0.0738742 -0.0808432 0)
(-0.0505459 -0.0767361 0)
(-0.0284907 -0.0639305 0)
(-0.010834 -0.0428034 0)
(-0.00178545 -0.0152121 0)
(-0.00217883 0.0215783 0)
(-0.0125878 0.0573526 0)
(-0.0322766 0.0830085 0)
(-0.0563663 0.0977299 0)
(-0.0815569 0.102019 0)
(-0.105641 0.09707 0)
(-0.12693 0.0844085 0)
(-0.144199 0.0656646 0)
(-0.156607 0.0424488 0)
(-0.16359 0.0163277 0)
(-0.164788 -0.0111318 0)
(-0.160021 -0.0382852 0)
(-0.149309 -0.0633332 0)
(-0.132949 -0.08428 0)
(-0.111649 -0.0989667 0)
(-0.0866802 -0.10522 0)
(-0.0599832 -0.10114 0)
(-0.0342001 -0.0855133 0)
(-0.0131614 -0.0583059 0)
(-0.00220607 -0.0213318 0)
(-0.00260072 0.0286486 0)
(-0.0147695 0.0745823 0)
(-0.0374139 0.106413 0)
(-0.0646119 0.123804 0)
(-0.0925029 0.127965 0)
(-0.118693 0.120808 0)
(-0.141503 0.104478 0)
(-0.159827 0.0810784 0)
(-0.172978 0.0525533 0)
(-0.180521 0.0206915 0)
(-0.182155 -0.0127814 0)
(-0.177662 -0.0460692 0)
(-0.166926 -0.0771652 0)
(-0.150033 -0.103748 0)
(-0.127445 -0.12316 0)
(-0.100245 -0.132535 0)
(-0.0703594 -0.129119 0)
(-0.0407082 -0.1108 0)
(-0.015918 -0.0768191 0)
(-0.00273168 -0.0287642 0)
(-0.00311219 0.0369468 0)
(-0.0172604 0.0944483 0)
(-0.0429999 0.132875 0)
(-0.073143 0.152666 0)
(-0.103237 0.156092 0)
(-0.130797 0.146065 0)
(-0.154297 0.125525 0)
(-0.172896 0.0971255 0)
(-0.186191 0.0631358 0)
(-0.193971 0.0255041 0)
(-0.19605 -0.0139856 0)
(-0.192191 -0.0535029 0)
(-0.182112 -0.0909474 0)
(-0.165594 -0.123752 0)
(-0.142705 -0.148769 0)
(-0.114141 -0.162328 0)
(-0.0815991 -0.160555 0)
(-0.0481363 -0.140024 0)
(-0.0192355 -0.0987642 0)
(-0.00340877 -0.0377836 0)
(-0.00376585 0.0466847 0)
(-0.0201922 0.11718 0)
(-0.049117 0.162327 0)
(-0.0817838 0.183847 0)
(-0.113157 0.185591 0)
(-0.140846 0.171844 0)
(-0.163701 0.14654 0)
(-0.181354 0.112942 0)
(-0.193848 0.0736065 0)
(-0.201309 0.0305386 0)
(-0.203747 -0.0145619 0)
(-0.200938 -0.0599962 0)
(-0.192416 -0.103742 0)
(-0.177571 -0.143135 0)
(-0.155905 -0.174618 0)
(-0.127459 -0.193655 0)
(-0.093372 -0.194966 0)
(-0.0565424 -0.173259 0)
(-0.0232782 -0.124601 0)
(-0.00430814 -0.0487553 0)
(-0.00466282 0.0581867 0)
(-0.023793 0.14304 0)
(-0.055872 0.194504 0)
(-0.0901981 0.216452 0)
(-0.121275 0.215093 0)
(-0.147143 0.196556 0)
(-0.167364 0.16597 0)
(-0.182302 0.127217 0)
(-0.19263 0.0830505 0)
(-0.198938 0.0353789 0)
(-0.201507 -0.0143655 0)
(-0.200179 -0.064825 0)
(-0.194317 -0.114286 0)
(-0.182868 -0.160226 0)
(-0.164601 -0.198867 0)
(-0.138592 -0.224852 0)
(-0.104947 -0.231258 0)
(-0.0658801 -0.210242 0)
(-0.0282751 -0.154783 0)
(-0.00555061 -0.0621783 0)
(-0.00600103 0.0719922 0)
(-0.0284588 0.17232 0)
(-0.0633731 0.228761 0)
(-0.0977315 0.248899 0)
(-0.125964 0.242419 0)
(-0.147119 0.217835 0)
(-0.161931 0.181598 0)
(-0.171792 0.138125 0)
(-0.178166 0.090182 0)
(-0.182196 0.0393783 0)
(-0.184496 -0.0133353 0)
(-0.185033 -0.0671757 0)
(-0.183057 -0.121013 0)
(-0.177096 -0.172787 0)
(-0.165101 -0.218843 0)
(-0.144878 -0.253252 0)
(-0.114912 -0.267362 0)
(-0.0758821 -0.250068 0)
(-0.0345582 -0.189659 0)
(-0.00735271 -0.0787726 0)
(-0.00815624 0.0890395 0)
(-0.0348245 0.205269 0)
(-0.0715605 0.263741 0)
(-0.102994 0.278519 0)
(-0.124423 0.264268 0)
(-0.136822 0.232362 0)
(-0.142652 0.190496 0)
(-0.144577 0.143341 0)
(-0.144913 0.0933789 0)
(-0.145341 0.0416648 0)
(-0.146808 -0.0115415 0)
(-0.149457 -0.066242 0)
(-0.152545 -0.122158 0)
(-0.154328 -0.178075 0)
(-0.152029 -0.230967 0)
(-0.142047 -0.274882 0)
(-0.120641 -0.299747 0)
(-0.0857518 -0.290685 0)
(-0.042565 -0.229259 0)
(-0.010097 -0.099625 0)
(-0.0117765 0.110936 0)
(-0.0437057 0.241799 0)
(-0.0796047 0.296708 0)
(-0.10287 0.300958 0)
(-0.111632 0.2759 0)
(-0.110053 0.235828 0)
(-0.102799 0.189169 0)
(-0.0938217 0.140264 0)
(-0.0861061 0.0908759 0)
(-0.081673 0.0412429 0)
(-0.0816756 -0.00921409 0)
(-0.0864484 -0.0613928 0)
(-0.0954269 -0.116039 0)
(-0.106925 -0.173132 0)
(-0.117825 -0.230909 0)
(-0.123364 -0.284321 0)
(-0.117276 -0.322841 0)
(-0.0933804 -0.328047 0)
(-0.0526258 -0.27274 0)
(-0.0143814 -0.126359 0)
(-0.0177062 0.140368 0)
(-0.0553925 0.28054 0)
(-0.0841263 0.322241 0)
(-0.090333 0.309389 0)
(-0.0784552 0.271 0)
(-0.0570561 0.223275 0)
(-0.0329603 0.174105 0)
(-0.0108877 0.126576 0)
(0.00609117 0.0812142 0)
(0.0160883 0.0372541 0)
(0.018024 -0.00671689 0)
(0.0114347 -0.0524063 0)
(-0.00348996 -0.101541 0)
(-0.0256104 -0.155451 0)
(-0.052259 -0.214218 0)
(-0.078422 -0.274933 0)
(-0.0958647 -0.328498 0)
(-0.0934425 -0.354765 0)
(-0.0639397 -0.317127 0)
(-0.0207956 -0.161379 0)
(-0.0260679 0.182127 0)
(-0.0668703 0.316289 0)
(-0.0745657 0.329539 0)
(-0.0500686 0.293355 0)
(-0.0086256 0.241898 0)
(0.0370898 0.190001 0)
(0.0795017 0.142861 0)
(0.114507 0.101205 0)
(0.14002 0.0639605 0)
(0.154997 0.0294048 0)
(0.158839 -0.0044406 0)
(0.151099 -0.0397227 0)
(0.131454 -0.0787672 0)
(0.0999654 -0.124006 0)
(0.0577606 -0.177544 0)
(0.00836396 -0.239743 0)
(-0.040196 -0.305642 0)
(-0.0732152 -0.357896 0)
(-0.0714468 -0.354577 0)
(-0.0286645 -0.208634 0)
(-0.0317635 0.241394 0)
(-0.0632515 0.33362 0)
(-0.0226637 0.298918 0)
(0.0491772 0.238949 0)
(0.125153 0.181668 0)
(0.193639 0.134045 0)
(0.250073 0.0961534 0)
(0.293203 0.0658441 0)
(0.323188 0.0406883 0)
(0.340494 0.0185091 0)
(0.345344 -0.0026553 0)
(0.337489 -0.0247459 0)
(0.316125 -0.049952 0)
(0.279975 -0.0809792 0)
(0.227714 -0.121233 0)
(0.159217 -0.174396 0)
(0.0780057 -0.242069 0)
(-0.00435359 -0.317206 0)
(-0.057738 -0.366131 0)
(-0.030977 -0.270023 0)
(0.0023291 0.28644 0)
(0.0142775 0.294014 0)
(0.13954 0.209836 0)
(0.264125 0.14265 0)
(0.362837 0.096347 0)
(0.438098 0.0649495 0)
(0.493834 0.0435152 0)
(0.533391 0.0283307 0)
(0.559536 0.0168435 0)
(0.574153 0.00734333 0)
(0.578193 -0.00142262 0)
(0.571672 -0.0105777 0)
(0.553624 -0.0214048 0)
(0.521929 -0.0357416 0)
(0.473133 -0.056542 0)
(0.402568 -0.0885741 0)
(0.304427 -0.138816 0)
(0.173656 -0.215113 0)
(0.0349932 -0.310743 0)
(0.0120588 -0.304752 0)
(0.293184 0.148929 0)
(0.389717 0.127942 0)
(0.557569 0.0757732 0)
(0.674567 0.0433132 0)
(0.743361 0.0251443 0)
(0.786359 0.0148499 0)
(0.814443 0.00889447 0)
(0.83267 0.00527916 0)
(0.843919 0.00288391 0)
(0.849812 0.00108894 0)
(0.851105 -0.000479737 0)
(0.847907 -0.00212268 0)
(0.839685 -0.00417259 0)
(0.825038 -0.00718043 0)
(0.801193 -0.0122094 0)
(0.76297 -0.0213801 0)
(0.699079 -0.038847 0)
(0.584287 -0.0722917 0)
(0.409321 -0.128321 0)
(0.302191 -0.152219 0)
)
;

boundaryField
{
    movingWall
    {
        type            fixedValue;
        value           uniform (1 0 0);
    }
    fixedWalls
    {
        type            noSlip;
    }
    frontAndBack
    {
        type            empty;
    }
}


// ************************************************************************* //
