/*--------------------------------*- C++ -*----------------------------------*\
  =========                 |
  \\      /  F ield         | OpenFOAM: The Open Source CFD Toolbox
   \\    /   O peration     | Website:  https://openfoam.org
    \\  /    A nd           | Version:  7
     \\/     M anipulation  |
\*---------------------------------------------------------------------------*/
FoamFile
{
    version     2.0;
    format      ascii;
    class       volScalarField;
    location    "99";
    object      p;
}
// * * * * * * * * * * * * * * * * * * * * * * * * * * * * * * * * * * * * * //

dimensions      [0 2 -2 0 0 0 0];

internalField   nonuniform List<scalar> 
2000
(
0.00640507
0.00647567
0.00660645
0.00676988
0.00694432
0.00711599
0.00727541
0.00741778
0.00754235
0.00763505
0.00643226
0.00654033
0.0066849
0.0068617
0.00704894
0.00723273
0.00740299
0.00755443
0.00768647
0.00777816
0.00644113
0.00659356
0.00675231
0.00694123
0.00713882
0.0073315
0.00750922
0.00766664
0.00780403
0.0078932
0.00643556
0.00663766
0.00681049
0.0070095
0.00721398
0.00741118
0.00759158
0.00775025
0.00788906
0.00797313
0.00642159
0.00667656
0.00686221
0.00706829
0.00727522
0.00747147
0.00764854
0.00780233
0.00793665
0.00801102
0.00640667
0.00671463
0.00691078
0.00712
0.00732415
0.00751321
0.00768016
0.00782201
0.00794461
0.00800353
0.00639914
0.00675669
0.00695996
0.00716764
0.00736329
0.00753861
0.0076884
0.00781104
0.00791418
0.00795101
0.0064079
0.00680793
0.00701392
0.00721482
0.00739611
0.00755141
0.00767752
0.00777448
0.00785153
0.0078603
0.006442
0.00687369
0.00707713
0.0072657
0.00742703
0.00755687
0.00765442
0.00772197
0.00777115
0.00774917
0.00651008
0.00695926
0.00715433
0.00732488
0.00746106
0.00756105
0.00762707
0.00766514
0.00769243
0.00765429
0.00773104
0.00834897
0.00896087
0.0100643
0.0112541
0.012735
0.0136682
0.0152345
0.0149773
0.0162135
0.00781395
0.00838675
0.00883452
0.00977467
0.0108271
0.0121897
0.013049
0.0144794
0.0143661
0.015406
0.00785638
0.0084084
0.0087115
0.00949483
0.0104168
0.011669
0.0124571
0.0137971
0.0137522
0.0146614
0.00785345
0.00840285
0.00858836
0.00922483
0.0100234
0.0111726
0.0118971
0.0131646
0.0131446
0.0139889
0.00780384
0.00835955
0.00845968
0.00896387
0.00964758
0.0107006
0.0113682
0.0125709
0.0125697
0.013389
0.00771062
0.00827139
0.00831848
0.00870993
0.00928909
0.010252
0.0108661
0.0120056
0.0120246
0.0128433
0.007582
0.00813644
0.00815788
0.00846007
0.00894761
0.00982772
0.010395
0.0114799
0.0115311
0.0123579
0.00742436
0.00794765
0.00796707
0.00821004
0.00862156
0.00942084
0.00993963
0.0109606
0.0110449
0.0119081
0.00722608
0.00769291
0.00772543
0.00794515
0.00831767
0.00905641
0.00954382
0.0105135
0.0106398
0.0115233
0.00707728
0.00749678
0.00752586
0.00768831
0.00799502
0.00865212
0.00909265
0.00997841
0.0101748
0.0111417
0.00764126
0.00804359
0.00827194
0.00839519
0.00847261
0.00876105
0.00903243
0.00964601
0.00979988
0.0104527
0.00607595
0.00645728
0.00679895
0.00710275
0.00737917
0.00774402
0.00806326
0.00856633
0.00868605
0.00906994
0.00494883
0.00529807
0.0056154
0.00588448
0.00613389
0.00648121
0.00680609
0.00726653
0.00737651
0.00765734
0.00377359
0.00412194
0.00448781
0.00479362
0.00504239
0.00534387
0.00562344
0.00601665
0.00610702
0.00633536
0.00266441
0.00297863
0.00337299
0.00373726
0.00403679
0.00433198
0.00457664
0.00489983
0.00496737
0.00515461
0.00169358
0.00196354
0.0023489
0.0027411
0.00308611
0.00340263
0.00364642
0.00392474
0.00397491
0.00411492
0.000899736
0.00112412
0.00147866
0.00186004
0.00220778
0.00252331
0.00276264
0.00301193
0.00305818
0.00316855
0.000303902
0.000481877
0.000787922
0.00113223
0.00145004
0.00173566
0.001951
0.00216588
0.00219784
0.00227186
-9.36665e-06
7.34911e-05
0.000304968
0.000569827
0.000804414
0.00100967
0.00115803
0.00131885
0.00133237
0.00138227
-0.000531115
-0.000263996
-3.80144e-05
0.000144477
0.000276476
0.00038008
0.000437365
0.000512787
0.000485046
0.000480402
0.0071613
0.0058835
0.00479995
0.00366238
0.00259994
0.00166388
0.000899824
0.000305032
1.80658e-05
-0.000497659
0.00690947
0.00569136
0.00461681
0.00350956
0.00248988
0.00159397
0.000866697
0.000298952
3.04606e-05
-0.000420572
0.0066645
0.00551582
0.00445027
0.00337507
0.00239353
0.00153678
0.000843396
0.000305599
4.83048e-05
-0.000330719
0.00647542
0.00539596
0.00433731
0.00329164
0.00234229
0.00151525
0.000847398
0.000331872
7.62819e-05
-0.000249053
0.00634346
0.00531739
0.00426514
0.00324518
0.0023226
0.00152037
0.000872502
0.000373311
0.000112828
-0.000176079
0.00627185
0.00527622
0.00422976
0.00323004
0.00232938
0.00154718
0.000914271
0.00042618
0.000155677
-0.00011092
0.00626661
0.00527062
0.00422959
0.00324423
0.0023605
0.00159322
0.000970183
0.000487875
0.000202943
-5.35935e-05
0.00631533
0.00529795
0.00426157
0.00328461
0.00241295
0.00165568
0.00103766
0.000556033
0.000253008
-3.82312e-06
0.00641
0.005355
0.00432176
0.00334765
0.0024834
0.00173158
0.00111406
0.000628507
0.000304513
3.91383e-05
0.00654114
0.00543778
0.00440569
0.00342969
0.00256849
0.00181804
0.00119697
0.000703496
0.000356388
7.62281e-05
0.00669733
0.00554039
0.00450778
0.00352653
0.00266462
0.0019122
0.00128412
0.000779503
0.000407817
0.000108326
0.00687014
0.00565824
0.0046238
0.00363524
0.00276917
0.002012
0.00137393
0.000855544
0.00045832
0.000136228
0.00705423
0.0057894
0.0047512
0.00375432
0.00288061
0.00211626
0.00146549
0.000931134
0.000507732
0.00016072
0.00724446
0.00593216
0.00488737
0.00388233
0.00299759
0.00222397
0.00155812
0.00100601
0.000556036
0.000182447
0.00743642
0.00608566
0.00503014
0.00401806
0.00311911
0.0023344
0.00165142
0.00108009
0.000603314
0.000201925
0.00762594
0.00624952
0.00517762
0.00416033
0.00324438
0.00244693
0.00174515
0.00115337
0.0006497
0.000219569
0.00780687
0.00642202
0.00532752
0.00430743
0.00337254
0.00256092
0.00183909
0.00122589
0.00069536
0.000235738
0.0079754
0.00660625
0.00548217
0.00446086
0.00350506
0.00267739
0.00193404
0.00129827
0.000740721
0.000250806
0.00814539
0.00682607
0.00565748
0.00463108
0.00364963
0.00280131
0.00203317
0.00137235
0.000786657
0.000264862
0.00825094
0.00703758
0.00582791
0.00479516
0.00379227
0.00292183
0.00212988
0.00144397
0.000831128
0.000276705
0.00780931
0.00706206
0.00599034
0.00500469
0.00402257
0.0031323
0.00231414
0.00158552
0.000923516
0.000306457
0.00777804
0.00701889
0.00597564
0.00505076
0.00410097
0.00323795
0.00242346
0.00168466
0.00099337
0.000333931
0.00795781
0.00717269
0.00611842
0.00520795
0.00425382
0.0033867
0.0025527
0.00179036
0.00106595
0.00036567
0.00835202
0.00744836
0.00634262
0.0054085
0.00442921
0.00354378
0.00268228
0.00189487
0.00114046
0.000402834
0.00894729
0.00785989
0.00666722
0.00566896
0.00464281
0.00372013
0.00282174
0.00200524
0.00122159
0.000446391
0.00968662
0.00838887
0.00708656
0.0059888
0.00489724
0.00391857
0.00297532
0.00212343
0.00130803
0.000491368
0.01048
0.00897701
0.00755796
0.00634274
0.00517685
0.00413084
0.00313912
0.00224422
0.00138903
0.000524571
0.0112197
0.00953805
0.00800991
0.00668166
0.00544536
0.00433398
0.00329648
0.00235327
0.00144979
0.000535758
0.0117958
0.00997752
0.00836361
0.00694807
0.00565781
0.00449599
0.00342226
0.00243495
0.001485
0.000529362
0.0121125
0.0102173
0.00855619
0.00709364
0.00577505
0.00458653
0.0034932
0.00247865
0.00149868
0.000519165
0.00861534
0.00857859
0.00881656
0.00928201
0.00994283
0.0107452
0.0116142
0.0124442
0.0131094
0.0134835
0.00871835
0.00880305
0.0091249
0.00966829
0.0103957
0.0112517
0.0121628
0.0130234
0.013709
0.0140959
0.00870118
0.00892522
0.00936133
0.0100131
0.0108388
0.0117812
0.0127595
0.013661
0.0143628
0.0147552
0.00872712
0.00906098
0.00959137
0.0103377
0.0112528
0.012282
0.0133383
0.0142994
0.0150375
0.0154494
0.00879048
0.00923941
0.00985918
0.0106913
0.0116857
0.0127921
0.013922
0.0149465
0.0157308
0.0161709
0.00886387
0.00943906
0.0101604
0.0110841
0.0121602
0.0133423
0.014541
0.0156244
0.0164528
0.01692
0.00894606
0.00964919
0.0104838
0.011507
0.0126728
0.0139358
0.015204
0.0163433
0.017211
0.0177004
0.00904378
0.00987215
0.0108271
0.0119539
0.0132154
0.0145651
0.0159069
0.0171027
0.0180075
0.018515
0.00916058
0.0101104
0.0111917
0.0124234
0.0137847
0.0152249
0.0166443
0.0178989
0.0188415
0.019365
0.00929779
0.0103628
0.0115772
0.0129143
0.0143789
0.0159128
0.0174134
0.0187296
0.0197124
0.020251
0.00945665
0.0106258
0.0119812
0.0134234
0.014996
0.0166269
0.0182131
0.019594
0.02062
0.0211733
0.00963563
0.0108954
0.0123993
0.0139456
0.0156317
0.0173638
0.0190413
0.0204911
0.0215644
0.0221327
0.00982778
0.0111686
0.0128243
0.014476
0.0162813
0.0181205
0.0198957
0.0214211
0.0225461
0.0231308
0.010019
0.0114462
0.0132448
0.0150094
0.0169376
0.018892
0.0207713
0.0223878
0.0235666
0.0241712
0.0101783
0.0117342
0.0136531
0.0155428
0.0175974
0.0196759
0.0216684
0.0233804
0.0246216
0.0252512
0.010317
0.0120085
0.0140417
0.0160636
0.0182513
0.0204639
0.0225808
0.024395
0.025709
0.02637
0.0104196
0.0122611
0.0144032
0.0165631
0.0188918
0.0212506
0.0235047
0.0254323
0.0268291
0.0275288
0.0104638
0.0124889
0.0147295
0.0170325
0.0195088
0.0220249
0.0244298
0.0264861
0.0279783
0.0287271
0.0104265
0.0126834
0.0150168
0.0174735
0.0201103
0.0227983
0.0253672
0.0275636
0.0291606
0.0299688
0.0102625
0.0128028
0.0152217
0.017821
0.0206154
0.023487
0.0262466
0.0286191
0.0303535
0.0312447
0.0108106
0.0140338
0.0167536
0.0196509
0.0227115
0.0258435
0.0288563
0.0314714
0.0334101
0.0344421
0.0138104
0.0169609
0.0198877
0.0232495
0.0267993
0.0304245
0.0338792
0.0368454
0.0390202
0.0401609
0.017186
0.0204903
0.0237409
0.0276054
0.0316534
0.0357827
0.0396556
0.0429236
0.0452849
0.0465254
0.0208024
0.0244553
0.0282155
0.032653
0.0372307
0.0418708
0.0461209
0.0496239
0.0520858
0.0533212
0.0246619
0.0287653
0.0331192
0.038165
0.0432954
0.0484398
0.05302
0.0566945
0.0591935
0.0604607
0.0288555
0.0334124
0.0384084
0.0440826
0.0497871
0.0554385
0.0603222
0.0640999
0.0664557
0.0673736
0.0329293
0.0380485
0.0436502
0.0498915
0.0561413
0.0622526
0.0674063
0.0712407
0.0733385
0.0741857
0.0371135
0.0425493
0.048738
0.0555758
0.0624184
0.0690436
0.0746086
0.078672
0.080309
0.0790669
0.0391694
0.0453903
0.0521484
0.0594862
0.0667765
0.0737558
0.0794907
0.0835299
0.0839827
0.085504
0.042512
0.0487939
0.0559624
0.0637536
0.0717247
0.0794322
0.0864635
0.0923986
0.0940214
0.0770363
0.0098388
0.0127715
0.0158212
0.0191757
0.0225946
0.0266354
0.0300491
0.0343931
0.035806
0.0390778
0.00947586
0.0125601
0.0155474
0.0188573
0.022139
0.0260556
0.0292145
0.0334651
0.0346249
0.0378409
0.00929507
0.0125334
0.0155003
0.0187612
0.0219824
0.0257315
0.0287102
0.0326888
0.0337631
0.0367326
0.00909618
0.0123878
0.0153228
0.0185182
0.0216857
0.0252836
0.0281574
0.0318479
0.0330001
0.0355964
0.00888697
0.0121634
0.0150559
0.0181811
0.0212752
0.0247119
0.0275522
0.0309436
0.032248
0.0344617
0.00868237
0.0119149
0.0147729
0.0178357
0.0208556
0.0241469
0.0269329
0.0300805
0.0314911
0.0333926
0.0084807
0.0116527
0.0144887
0.0175017
0.0204606
0.0236337
0.026345
0.0293048
0.0307624
0.0324239
0.00828234
0.0113796
0.0142023
0.0171766
0.0200873
0.0231679
0.0258071
0.0286166
0.0300933
0.0315663
0.00809165
0.0111026
0.0139183
0.0168635
0.0197358
0.0227447
0.0253234
0.0280074
0.0294909
0.0308297
0.00791311
0.0108297
0.0136445
0.0165707
0.0194135
0.0223678
0.0248979
0.0274753
0.0289601
0.0302082
0.00775009
0.0105677
0.013388
0.0163056
0.0191292
0.0220436
0.0245366
0.0270238
0.0285072
0.029692
0.00759945
0.0103182
0.0131521
0.0160712
0.0188878
0.0217764
0.0242448
0.0266567
0.0281368
0.0292743
0.00745313
0.0100809
0.0129365
0.0158679
0.0186915
0.021569
0.0240262
0.0263765
0.0278517
0.0289544
0.00730334
0.00985847
0.0127414
0.0156968
0.0185416
0.0214231
0.0238827
0.0261843
0.0276506
0.0287329
0.0071407
0.00965255
0.0125654
0.0155578
0.0184381
0.0213396
0.0238155
0.0260809
0.0275324
0.0286162
0.00695356
0.00946153
0.0124049
0.015449
0.0183796
0.0213176
0.0238239
0.0260659
0.027488
0.028608
0.00673055
0.00928017
0.0122543
0.0153661
0.018363
0.0213551
0.0239084
0.026142
0.0275193
0.0287245
0.0064596
0.00909981
0.0121073
0.0153028
0.0183819
0.0214447
0.0240621
0.026302
0.0275951
0.0289703
0.00609504
0.00888828
0.0119516
0.0152544
0.0184392
0.0215952
0.0242992
0.0265673
0.0277593
0.0293747
0.00568302
0.00862875
0.0117545
0.0151713
0.018473
0.0217357
0.0245501
0.0268729
0.027889
0.0299148
0.0065745
0.0096613
0.0126836
0.0161383
0.019602
0.0229904
0.0259311
0.0283582
0.0292019
0.0316128
0.0082671
0.0116319
0.0149391
0.0187505
0.0225802
0.0263252
0.0296065
0.0323534
0.0334916
0.035591
0.0108283
0.0144861
0.0181624
0.022444
0.0267441
0.0309954
0.0347549
0.0378681
0.039549
0.0413835
0.0140253
0.0180408
0.0221641
0.027026
0.031964
0.0369446
0.0414365
0.0452383
0.0479201
0.0501271
0.0174164
0.0218543
0.0265359
0.0321123
0.0378787
0.0438551
0.0494668
0.0545635
0.0589296
0.0628824
0.0209767
0.0258008
0.0311531
0.0375625
0.0443585
0.05165
0.0589483
0.0665017
0.0745138
0.0830787
0.0236833
0.0290724
0.0351643
0.0424679
0.0505149
0.0595717
0.0693769
0.081059
0.0959125
0.114986
0.0269039
0.0327882
0.0396711
0.0479527
0.0574283
0.0687185
0.0821752
0.1009
0.129346
0.170338
0.0274738
0.0334057
0.0405304
0.0493561
0.0603078
0.0746592
0.0944567
0.125148
0.176707
0.257896
0.0299288
0.0370595
0.0457429
0.056843
0.0715525
0.091856
0.121573
0.169583
0.254602
0.387808
0.00667582
0.00827154
0.0103711
0.0130183
0.0156744
0.0188702
0.0209459
0.0240088
0.0244458
0.0263686
0.0065857
0.00820798
0.010233
0.0127577
0.0152166
0.0182336
0.0200748
0.0230335
0.0233492
0.0253159
0.00661501
0.00819716
0.0101505
0.0125806
0.0149259
0.0177526
0.0194365
0.0222118
0.0223542
0.0245151
0.0067146
0.00818929
0.010012
0.0123055
0.0145191
0.0171665
0.0187279
0.0213317
0.0213064
0.0234894
0.00684565
0.00818533
0.00984823
0.0119835
0.0140364
0.0165011
0.0179323
0.0203953
0.0202165
0.0222612
0.00699572
0.00818983
0.00968353
0.0116582
0.0135507
0.0158313
0.017122
0.0194658
0.0191482
0.0210075
0.00715658
0.00820432
0.00952653
0.0113237
0.0130852
0.015183
0.0163427
0.0185794
0.0181443
0.0198541
0.00731933
0.00822913
0.00937599
0.0109929
0.0126209
0.01455
0.0156104
0.0177346
0.0172178
0.018831
0.00747508
0.00826359
0.00923123
0.0106729
0.0121553
0.0139157
0.0149364
0.0169047
0.0163717
0.0179102
0.00761515
0.00830517
0.00909268
0.0103635
0.0116974
0.0133084
0.0143
0.0160637
0.0156191
0.0170481
0.00662112
0.00707035
0.00725076
0.00739754
0.00750357
0.00756946
0.00760048
0.00760577
0.00760812
0.00758073
0.00678814
0.00721437
0.00737215
0.00748903
0.00756008
0.00758771
0.00757888
0.00754321
0.00750148
0.0074287
0.00701367
0.0073941
0.00752236
0.00760414
0.00763651
0.00762322
0.00757236
0.00749408
0.00740874
0.00729291
0.0073003
0.00761259
0.00770507
0.00774732
0.00773824
0.00768265
0.00758947
0.00746933
0.00734216
0.00718727
0.00764901
0.00787181
0.00792281
0.00792174
0.00786919
0.00777084
0.0076361
0.00747549
0.00730768
0.00711928
0.00805752
0.00817161
0.00817614
0.00812861
0.00803125
0.00789032
0.00771522
0.00751554
0.00730701
0.00710033
0.0085202
0.00850916
0.00846319
0.00836678
0.0082239
0.00804101
0.0078271
0.00759265
0.00735292
0.0070955
0.00902837
0.0088786
0.0087795
0.00863253
0.00844398
0.00822031
0.00796984
0.00770293
0.00743191
0.00714154
0.00956726
0.00927303
0.00911786
0.00891949
0.00868578
0.00842303
0.00813864
0.00784202
0.00754237
0.0072279
0.0101171
0.0096784
0.00946756
0.00921848
0.00894116
0.00864166
0.00832631
0.00800315
0.00767865
0.0073457
0.0106483
0.0100764
0.00981471
0.00951811
0.00920023
0.00886721
0.00852434
0.00817814
0.00783304
0.00748682
0.0111687
0.0104633
0.0101509
0.0098086
0.00945303
0.00909
0.0087234
0.00835805
0.00799697
0.0076428
0.0116523
0.0108205
0.010461
0.0100774
0.00968869
0.00930031
0.00891453
0.00853439
0.00816214
0.00780552
0.0120762
0.011131
0.010731
0.0103124
0.00989671
0.00948873
0.00908908
0.00869899
0.00832064
0.00796729
0.0124217
0.0113801
0.0109479
0.0105025
0.0100675
0.00964672
0.00923927
0.00884453
0.00846524
0.00812112
0.0126726
0.0115545
0.0111004
0.0106382
0.0101928
0.00976709
0.0093586
0.00896486
0.00858967
0.00826068
0.0128155
0.0116432
0.0111791
0.0107119
0.0102663
0.00984447
0.00944239
0.00905562
0.00868904
0.00837993
0.0128405
0.0116378
0.0111774
0.0107182
0.0102839
0.00987562
0.00948818
0.00911472
0.00875916
0.00847042
0.0127418
0.0115337
0.0110912
0.0106543
0.0102438
0.0098595
0.00949513
0.00913974
0.0087908
0.00851416
0.0125178
0.0113294
0.0109197
0.01052
0.010147
0.00979873
0.00946732
0.00913599
0.00879171
0.00851747
0.01217
0.0110264
0.0106639
0.0103165
0.00999588
0.00969975
0.00942305
0.00915859
0.00891642
0.00877751
0.0116975
0.0106271
0.0103265
0.0100453
0.0097891
0.00955465
0.00933835
0.00913874
0.00897045
0.00887904
0.011114
0.0101413
0.00991414
0.00971017
0.00952728
0.00936036
0.00920623
0.00906615
0.00895216
0.0088815
0.0104351
0.00958098
0.00943581
0.00931751
0.00921518
0.00912142
0.00903368
0.00895517
0.00889559
0.00885848
0.00967848
0.00896005
0.00890266
0.00887621
0.0088603
0.00884503
0.00882852
0.0088154
0.00881363
0.00882155
0.00886413
0.00829445
0.0083278
0.00839696
0.00847173
0.00853928
0.0085982
0.00865408
0.00871369
0.00877365
0.00801373
0.00760139
0.00772556
0.00789156
0.00805941
0.00821286
0.00835057
0.00847867
0.00860343
0.0087216
0.00714904
0.00689805
0.00711059
0.00737216
0.00763348
0.00787447
0.0080933
0.00829622
0.0084895
0.00867155
0.00629167
0.00620062
0.00649694
0.00685046
0.00720364
0.00753219
0.00783324
0.00811269
0.00837692
0.00862739
0.00547071
0.00552803
0.00589945
0.00633817
0.00677908
0.00719329
0.00757621
0.00793276
0.00826923
0.0085913
0.00472804
0.00490871
0.00533752
0.00584944
0.00637014
0.00686534
0.00732774
0.00776039
0.00816882
0.00856396
0.00402143
0.00432638
0.00480742
0.00538608
0.00597994
0.00655123
0.00708992
0.00759678
0.00807551
0.00854302
0.00337391
0.0037954
0.00432174
0.00495574
0.00561408
0.00625478
0.0068649
0.00744261
0.00798833
0.00852343
0.00280142
0.00332654
0.00388746
0.00456503
0.00527709
0.00597863
0.00665366
0.00729732
0.00790558
0.00849937
0.00230979
0.00292399
0.00350859
0.00421751
0.00497168
0.00572438
0.00645661
0.0071597
0.00782414
0.00847674
0.00190112
0.00258906
0.00318723
0.00391528
0.00469952
0.00549291
0.00627377
0.00702927
0.0077424
0.0084415
0.00157528
0.00232136
0.00292383
0.00365928
0.00446144
0.00528462
0.00610509
0.0069058
0.00765971
0.0083915
0.00132993
0.00211878
0.00271731
0.00344921
0.00425742
0.00509948
0.00595067
0.00679052
0.00757946
0.00832862
0.00116089
0.00197788
0.00256535
0.00328377
0.00408668
0.00493687
0.0058103
0.00668559
0.00751134
0.00826581
0.00106289
0.00189433
0.00246464
0.00316075
0.0039476
0.00479526
0.00568174
0.00658833
0.00746628
0.00824249
0.00102848
0.00186227
0.00241036
0.00307644
0.0038372
0.00467244
0.00556624
0.00651556
0.00754757
0.00860531
0.0010424
0.00187225
0.00239635
0.00302698
0.00375151
0.00455855
0.00543498
0.00637282
0.00739811
0.00843697
0.00110484
0.00192239
0.00241994
0.00301019
0.00368901
0.00445232
0.00528926
0.00618635
0.00715803
0.00813598
0.00121068
0.00200787
0.00247715
0.00302402
0.00365112
0.00436118
0.00514787
0.00599879
0.00692278
0.00785131
0.00135257
0.00212298
0.00256356
0.00306632
0.00363909
0.00429109
0.00502164
0.00582184
0.00669765
0.00758188
0.00152361
0.00226242
0.00267487
0.0031345
0.00365276
0.00424459
0.00491498
0.00565903
0.00648112
0.00732093
0.00171754
0.00242134
0.00280686
0.00322552
0.00369089
0.0042225
0.00483071
0.00551474
0.00627839
0.00707158
0.00192865
0.00259518
0.00295534
0.00333601
0.00375144
0.00422451
0.00477038
0.00539236
0.00609419
0.00683794
0.00215196
0.00277976
0.00311623
0.00346226
0.00383156
0.00424911
0.00473399
0.00529335
0.00593116
0.00662289
0.00238445
0.00297294
0.00328705
0.00360158
0.00392872
0.00429437
0.00472058
0.0052179
0.00579054
0.00642809
0.00262495
0.00317523
0.00346836
0.00375415
0.00404283
0.00436017
0.00473032
0.00516667
0.00567346
0.0062544
0.00286271
0.00337591
0.00364979
0.00391025
0.0041651
0.00443904
0.00475729
0.00513546
0.00557721
0.00609906
0.00309823
0.00357574
0.00383152
0.00406927
0.00429417
0.0045291
0.00479945
0.00512234
0.00550015
0.0059598
0.00333132
0.00377423
0.00401265
0.00422965
0.00442787
0.00462779
0.00485412
0.00512474
0.00544001
0.0058341
0.00356148
0.00397037
0.00419181
0.00438957
0.00456387
0.00473244
0.00491854
0.00514002
0.00539431
0.00571913
0.00378875
0.00416367
0.00436823
0.00454785
0.00470053
0.00484105
0.00499058
0.00516613
0.00536109
0.00561212
0.0040136
0.00435408
0.00454178
0.00470414
0.00483716
0.00495266
0.0050693
0.00520257
0.00534043
0.00551194
0.00423671
0.0045419
0.00471286
0.00485891
0.00497424
0.0050677
0.00515519
0.00525048
0.00533443
0.00541816
0.0044585
0.00472749
0.00488229
0.00501361
0.00511399
0.00518941
0.00525248
0.00531425
0.00534592
0.0053232
0.00467885
0.00491104
0.00505096
0.00517025
0.00526051
0.00532616
0.00537775
0.00542509
0.00543763
0.00533429
0.00489732
0.0050925
0.00521932
0.0053299
0.00541612
0.00548389
0.00554845
0.00563952
0.00581696
0.00612637
0.00511452
0.00527175
0.00538696
0.0054917
0.00557733
0.00564932
0.00572207
0.00582241
0.00600291
0.00627388
0.00532606
0.00544711
0.00555274
0.00565428
0.00574169
0.00581822
0.00589505
0.00599234
0.00614486
0.00634783
0.00552808
0.00561675
0.0057152
0.00581623
0.00590799
0.00599103
0.00607319
0.00616967
0.00630372
0.00646578
0.00571855
0.00577732
0.00587254
0.00597578
0.00607441
0.00616612
0.00625527
0.00635248
0.00647306
0.00660826
0.00589177
0.00592867
0.00602252
0.00613082
0.0062386
0.00634088
0.00643861
0.00653825
0.00664951
0.00676647
0.00604473
0.00606803
0.0061635
0.00627917
0.00639812
0.00651266
0.00662071
0.00672523
0.006832
0.00693736
0.00617482
0.0061936
0.00629363
0.00641883
0.00655053
0.00667875
0.00679874
0.00691065
0.00701745
0.00711603
0.00628003
0.00630429
0.00641154
0.00654799
0.00669358
0.00683633
0.00696939
0.00709071
0.00720128
0.00729634
0.00635796
0.00639892
0.00651615
0.00666523
0.0068254
0.00698277
0.00712928
0.00726115
0.00737811
0.00747165
)
;

boundaryField
{
    inlet
    {
        type            zeroGradient;
    }
    outlet
    {
        type            fixedValue;
        value           uniform 0;
    }
    cylinder
    {
        type            zeroGradient;
    }
    top
    {
        type            symmetryPlane;
    }
    bottom
    {
        type            symmetryPlane;
    }
    defaultFaces
    {
        type            empty;
    }
}


// ************************************************************************* //
