/*--------------------------------*- C++ -*----------------------------------*\
  =========                 |
  \\      /  F ield         | OpenFOAM: The Open Source CFD Toolbox
   \\    /   O peration     | Website:  https://openfoam.org
    \\  /    A nd           | Version:  7
     \\/     M anipulation  |
\*---------------------------------------------------------------------------*/
FoamFile
{
    version     2.0;
    format      ascii;
    class       volScalarField;
    location    "32";
    object      p;
}
// * * * * * * * * * * * * * * * * * * * * * * * * * * * * * * * * * * * * * //

dimensions      [0 2 -2 0 0 0 0];

internalField   nonuniform List<scalar> 
2000
(
-0.0138245
-0.0133941
-0.0132383
-0.0132072
-0.0132085
-0.0131363
-0.0129137
-0.0124998
-0.011891
-0.0110699
-0.0123702
-0.0118979
-0.0116171
-0.0114332
-0.0112841
-0.0110828
-0.0107629
-0.0102878
-0.00965556
-0.00886267
-0.0109208
-0.0104121
-0.01001
-0.00967473
-0.00937548
-0.00904555
-0.00862992
-0.00809635
-0.00744245
-0.00668277
-0.0094966
-0.00895534
-0.00843841
-0.00795742
-0.00751358
-0.00706071
-0.00655559
-0.00597057
-0.00530157
-0.00458048
-0.00811656
-0.0075445
-0.0069217
-0.0063042
-0.00572546
-0.00515961
-0.00457508
-0.00394919
-0.00327698
-0.00260563
-0.00679881
-0.00619545
-0.00547622
-0.00473357
-0.00403252
-0.00336692
-0.00271625
-0.00206275
-0.00140378
-0.000803944
-0.00555444
-0.00492735
-0.0041158
-0.00326005
-0.00245128
-0.0017014
-0.00099993
-0.000332945
0.000294831
0.000787408
-0.00440951
-0.00374408
-0.00285098
-0.00189581
-0.00099529
-0.000178248
0.000557778
0.00122526
0.00180793
0.00214531
-0.00337787
-0.00265168
-0.00168971
-0.00065107
0.000322977
0.00118938
0.00194383
0.0026009
0.00313153
0.00326933
-0.00246478
-0.00165117
-0.000635719
0.000466442
0.00149303
0.00239096
0.00315365
0.00380396
0.0043222
0.00432401
-0.00845106
-0.0024236
0.00359441
0.0106424
0.0164334
0.0218831
0.0253023
0.02957
0.030257
0.0334302
-0.00644406
-0.00123372
0.00424308
0.0106343
0.0159081
0.0209464
0.0241154
0.0279165
0.0287593
0.0314727
-0.00452645
-9.66857e-05
0.00484447
0.0106036
0.0154274
0.0200544
0.0230263
0.0264094
0.0273707
0.0296748
-0.00272872
0.000959356
0.00536734
0.0105632
0.0149726
0.0192328
0.021998
0.0250794
0.0260249
0.0280618
-0.00107718
0.00192423
0.00582814
0.0105214
0.0145419
0.0184817
0.0210396
0.0239073
0.0247661
0.0266533
0.000403253
0.00278083
0.00622857
0.0104632
0.0141255
0.017783
0.0201453
0.0228319
0.0235874
0.0254087
0.00169285
0.00354673
0.0066086
0.0104119
0.013741
0.017142
0.0193295
0.021865
0.0225449
0.0243298
0.00275675
0.00415811
0.00689239
0.0103076
0.0133525
0.0165253
0.0185435
0.0209204
0.0215502
0.0233521
0.00361987
0.00477031
0.00722441
0.0102486
0.0130211
0.0159768
0.017853
0.0201033
0.0207141
0.022508
0.0039946
0.00492874
0.00718969
0.00996043
0.0125702
0.0153549
0.0170908
0.0191692
0.0198358
0.0216957
0.00943955
0.00835995
0.00906849
0.0104372
0.0122487
0.0144669
0.0161624
0.0179559
0.0187906
0.0201338
0.00800222
0.00868887
0.00992156
0.010708
0.011882
0.0134837
0.0149127
0.0163967
0.0171382
0.0179445
0.00564825
0.00736926
0.00928115
0.00998576
0.0110879
0.012383
0.0134955
0.0146476
0.0152535
0.0159903
0.00333709
0.00561031
0.00777636
0.00917059
0.00987438
0.0111339
0.0121156
0.0129792
0.0132184
0.0136904
0.00140746
0.00382677
0.00607354
0.00759609
0.00868223
0.00979041
0.0107031
0.0116032
0.0118287
0.0120682
0.000151205
0.00238818
0.00443646
0.00594694
0.00710862
0.00816446
0.00893875
0.00967904
0.00995539
0.0103455
-0.000758221
0.00102206
0.0028208
0.00428014
0.00545473
0.00650694
0.00724621
0.00801501
0.0081313
0.00826806
-0.00123687
-4.87469e-05
0.00133393
0.00265163
0.00373479
0.00466076
0.00530859
0.00607107
0.00625412
0.00633724
-0.00141123
-0.000726338
0.000232762
0.00128322
0.00210804
0.00278162
0.00324443
0.00372235
0.00382078
0.00393907
-0.000989886
-0.000803507
-0.000310172
0.00029057
0.000696097
0.00101451
0.00123278
0.00148521
0.00140252
0.00133161
0.00755455
0.00632023
0.00401373
0.00166397
-9.88477e-05
-0.00115563
-0.00163449
-0.00168362
-0.00154518
-0.000890165
0.0071693
0.00552891
0.00300941
0.000625886
-0.00099369
-0.00185439
-0.00208646
-0.00192716
-0.00161674
-0.000877336
0.0066705
0.00453042
0.00187681
-0.000468652
-0.00191183
-0.002553
-0.00253705
-0.00217264
-0.00168285
-0.00087516
0.00591095
0.00341865
0.000738062
-0.00151888
-0.00276707
-0.00319059
-0.00294112
-0.00238656
-0.00173272
-0.000872005
0.00492479
0.00225436
-0.000379645
-0.00251738
-0.00355778
-0.00376717
-0.00329839
-0.00257063
-0.00176955
-0.000868606
0.00382742
0.00111883
-0.00141595
-0.00342214
-0.00425914
-0.00427115
-0.00360668
-0.00272674
-0.00179676
-0.000866444
0.00278806
0.000107213
-0.00230102
-0.00418219
-0.00483845
-0.00468439
-0.00385862
-0.00285304
-0.00181606
-0.000867424
0.00197283
-0.000694099
-0.00297725
-0.00475756
-0.00527044
-0.00499306
-0.00404785
-0.00294786
-0.00182786
-0.00087559
0.00148764
-0.00122653
-0.00340891
-0.00512631
-0.0055412
-0.00519007
-0.0041711
-0.00301062
-0.00183095
-0.000862555
0.00135958
-0.00147065
-0.00359012
-0.00528371
-0.00565022
-0.00527396
-0.00422959
-0.00304123
-0.00183443
-0.000812308
0.00156323
-0.00144746
-0.00354142
-0.00524318
-0.00561023
-0.00525145
-0.00422578
-0.00304031
-0.00182836
-0.000754179
0.00202621
-0.00119676
-0.00329299
-0.00503336
-0.005441
-0.00513562
-0.00416518
-0.00300975
-0.00181239
-0.000694813
0.00268981
-0.000764096
-0.00288431
-0.00468587
-0.00516835
-0.00494323
-0.00405749
-0.00295339
-0.00178682
-0.000640777
0.00349551
-0.000194981
-0.00235807
-0.00423352
-0.00481927
-0.00469196
-0.0039123
-0.00287446
-0.00175086
-0.000591852
0.00439374
0.000473727
-0.00175323
-0.00370649
-0.004418
-0.00439816
-0.00373821
-0.00277611
-0.00170422
-0.000547361
0.0053423
0.00121273
-0.00110324
-0.0031307
-0.00398379
-0.0040754
-0.00354223
-0.00266132
-0.00164714
-0.000506742
0.00629919
0.00199704
-0.000433995
-0.00252623
-0.00353031
-0.00373443
-0.00332992
-0.00253274
-0.00158002
-0.000469273
0.00725769
0.00283571
0.000254691
-0.0018991
-0.00306402
-0.00338344
-0.00310729
-0.0023941
-0.00150408
-0.000434036
0.00827976
0.00380305
0.000996822
-0.0012368
-0.00258077
-0.00302364
-0.00287696
-0.002249
-0.00142062
-0.000399382
0.00904934
0.00475523
0.0017115
-0.000580456
-0.0020791
-0.00264142
-0.00261555
-0.00208265
-0.00132022
-0.000362665
0.00889767
0.00604481
0.00301554
0.000809478
-0.000822909
-0.00163299
-0.00186904
-0.00157883
-0.00101328
-0.000282033
0.00969495
0.00700256
0.00422573
0.00220391
0.000588731
-0.00033407
-0.000794691
-0.000766946
-0.00046721
-3.99068e-05
0.0115263
0.0086983
0.0058404
0.00375772
0.00200626
0.000908753
0.000224075
3.72156e-05
0.00011839
0.000254602
0.0137423
0.0106402
0.00761723
0.00536525
0.00340692
0.00209331
0.00118624
0.000833334
0.000754769
0.000618238
0.0162866
0.0127875
0.00949737
0.00698239
0.00476347
0.00320922
0.00209473
0.00162784
0.00144862
0.0010531
0.0190926
0.0151092
0.0114449
0.00857702
0.00606775
0.00426093
0.00297069
0.00243559
0.00219632
0.00154256
0.022061
0.0174807
0.0133644
0.0101136
0.00733069
0.00528065
0.00385445
0.00325185
0.00294073
0.0020065
0.0247473
0.0194268
0.0151388
0.0116005
0.008571
0.00629701
0.00475757
0.0040141
0.0034701
0.00216012
0.0274203
0.0223578
0.0173084
0.0130493
0.00965382
0.00719596
0.00553167
0.00449664
0.00351533
0.00186657
0.0298466
0.0226768
0.0174001
0.0133094
0.0101115
0.00773134
0.00601333
0.00471256
0.00336261
0.00151905
0.0110073
0.0119616
0.0138023
0.0160836
0.0188718
0.0219556
0.0252054
0.0291101
0.0303003
0.0355944
0.0116638
0.0129969
0.0150324
0.0174831
0.020471
0.0237346
0.0271976
0.031074
0.0325604
0.03699
0.0120852
0.0138969
0.0163134
0.0191497
0.0224937
0.0260692
0.0298366
0.0335578
0.0356858
0.0379178
0.0125392
0.0146785
0.0174083
0.020625
0.0243197
0.028215
0.0322692
0.03607
0.0386565
0.0396656
0.0130808
0.0155315
0.0185124
0.0220318
0.0260013
0.0301521
0.0344316
0.0384392
0.0413486
0.0422491
0.0136529
0.0164871
0.0197566
0.0235563
0.0277564
0.0321131
0.0365673
0.0407755
0.0439545
0.0452619
0.0142362
0.0175044
0.02113
0.0252393
0.0296807
0.0342455
0.0388696
0.0432455
0.0466565
0.048398
0.0148494
0.0185687
0.0225935
0.0270419
0.0317565
0.0365625
0.0413882
0.0459315
0.0495394
0.0515624
0.0155115
0.0196881
0.0241344
0.0289316
0.0339434
0.0390229
0.0440907
0.0488287
0.0526153
0.0547868
0.0162328
0.0208663
0.0257541
0.0308972
0.0362206
0.0415927
0.0469333
0.0518965
0.0558664
0.0581278
0.017021
0.022094
0.0274499
0.0329318
0.0385815
0.0442574
0.0498941
0.055105
0.0592767
0.0616207
0.0178743
0.0233432
0.0292059
0.0350172
0.0410162
0.0470076
0.0529621
0.0584394
0.062837
0.0652731
0.0187643
0.0245777
0.0309908
0.0371266
0.0435086
0.0498403
0.0561427
0.0619144
0.0665506
0.0690867
0.0196424
0.0257732
0.0327611
0.0392362
0.0460374
0.0527462
0.0594188
0.0655511
0.0704184
0.0730627
0.0204484
0.0269176
0.0344721
0.0413331
0.0485975
0.0557479
0.0628119
0.0693163
0.0744389
0.0772034
0.02111
0.0280045
0.0360561
0.0434607
0.0511582
0.0587671
0.0662648
0.0731667
0.0785923
0.0815
0.0215612
0.029007
0.0376168
0.0455207
0.0536813
0.0617885
0.06978
0.0771237
0.082893
0.0859696
0.0216774
0.0299777
0.0389791
0.047396
0.0560618
0.0647084
0.073253
0.0811132
0.0873003
0.0905971
0.0215399
0.0308843
0.0401909
0.0491731
0.058383
0.0676135
0.07676
0.0851896
0.0918438
0.0954204
0.0207544
0.0311893
0.0408333
0.050384
0.0601461
0.0700046
0.07986
0.0890447
0.0963789
0.100393
0.0214285
0.0341491
0.0445486
0.0552086
0.0661196
0.0772989
0.0886181
0.0993407
0.108054
0.113043
0.0324216
0.0444836
0.0552478
0.0674519
0.0801435
0.0935207
0.10727
0.120405
0.131142
0.137168
0.0444437
0.0568313
0.068675
0.0826683
0.0973091
0.113271
0.129734
0.145469
0.158288
0.165532
0.0563542
0.0697056
0.0834971
0.0996872
0.11685
0.136029
0.155592
0.174224
0.18924
0.197566
0.0682963
0.083102
0.0992857
0.117975
0.138308
0.161278
0.184312
0.206143
0.223384
0.233071
0.0807142
0.0973013
0.116046
0.137559
0.161691
0.188863
0.21565
0.24087
0.260158
0.270524
0.0932375
0.111838
0.133166
0.157978
0.186328
0.217629
0.248282
0.276864
0.297624
0.309364
0.105786
0.126307
0.15045
0.178912
0.211375
0.246367
0.281131
0.313003
0.334499
0.34466
0.115665
0.138004
0.164693
0.196017
0.231482
0.269457
0.308037
0.342611
0.365343
0.376474
0.122892
0.146437
0.174905
0.207977
0.245381
0.285795
0.327629
0.366178
0.393328
0.389081
0.016008
0.0260134
0.0369086
0.0484085
0.0595991
0.0715016
0.0827345
0.0946855
0.103873
0.111004
0.014546
0.0249268
0.0355832
0.0468591
0.0577264
0.0693478
0.0800626
0.0916742
0.100374
0.107268
0.0138173
0.0249594
0.035693
0.0468743
0.0575402
0.0688851
0.0792366
0.0903434
0.0983205
0.104734
0.0126262
0.0242047
0.0350117
0.0461979
0.0567592
0.0679141
0.0780231
0.0886962
0.0960917
0.102041
0.0111922
0.0228892
0.0337519
0.044872
0.055305
0.0662508
0.0761158
0.0864086
0.0933885
0.0989717
0.00967445
0.021401
0.0324659
0.0434538
0.0537377
0.0644288
0.0740102
0.0839172
0.0905556
0.095849
0.00806408
0.0199118
0.0311789
0.0421551
0.0523492
0.0628075
0.0721212
0.0816678
0.0879878
0.0930388
0.00636241
0.0184041
0.029856
0.0409375
0.0511519
0.0614481
0.0705739
0.0798439
0.0858871
0.0907275
0.0046039
0.0168662
0.0285527
0.0397562
0.0500868
0.0602977
0.0693506
0.0784128
0.0842863
0.0889264
0.00282893
0.0153314
0.0273115
0.0386716
0.0491286
0.0593262
0.068423
0.0772705
0.0831488
0.0875642
0.00107397
0.013837
0.0261583
0.0377255
0.048312
0.0585606
0.0677265
0.0764469
0.08239
0.0865935
-0.000656211
0.012365
0.025085
0.0369136
0.047662
0.0580139
0.0672623
0.0759531
0.0819587
0.086015
-0.00238139
0.0108778
0.0240644
0.0362115
0.0471799
0.0576893
0.0670546
0.0757911
0.08186
0.085833
-0.00410085
0.00937534
0.0230886
0.0356052
0.0468558
0.0575805
0.067106
0.0759487
0.0821009
0.0860436
-0.0058125
0.00788274
0.0221684
0.0350965
0.0466895
0.0576886
0.0674234
0.0764332
0.0826953
0.0866381
-0.00753773
0.00640817
0.0212833
0.0346577
0.0466582
0.0579817
0.0679755
0.0772139
0.0836209
0.0876042
-0.00930959
0.00499422
0.0204471
0.0342982
0.046775
0.0584721
0.0687892
0.0783101
0.0848894
0.0889343
-0.0112243
0.0035582
0.0195153
0.0339055
0.0469352
0.0590532
0.0697652
0.0796318
0.0864464
0.0906205
-0.0131948
0.00233028
0.0186575
0.0336104
0.0472246
0.0598074
0.0709848
0.0812343
0.0883277
0.0926624
-0.0158336
0.000436632
0.0170894
0.0327873
0.0470885
0.060224
0.0719996
0.082799
0.090378
0.0950543
-0.0169106
0.000316329
0.0164618
0.0330282
0.0486431
0.0630395
0.0761803
0.0880211
0.0966584
0.101835
-0.00712835
0.00854444
0.0239075
0.0417465
0.0586576
0.0747248
0.0899268
0.103685
0.113924
0.119679
0.0049826
0.0201576
0.0359699
0.0552155
0.0734566
0.0918777
0.109611
0.125859
0.138083
0.144604
0.0174772
0.0327416
0.0499503
0.0706861
0.0913546
0.113373
0.134616
0.154465
0.169544
0.177362
0.0298585
0.0458459
0.0648858
0.087654
0.112028
0.13862
0.164688
0.189723
0.208886
0.218725
0.0419038
0.0592418
0.0805196
0.106251
0.135308
0.167365
0.199896
0.232018
0.257266
0.270926
0.0522891
0.0717542
0.0956929
0.124993
0.159204
0.197698
0.238258
0.279279
0.313824
0.335492
0.0622446
0.0836023
0.110204
0.143116
0.182506
0.228088
0.277816
0.329543
0.377751
0.416407
0.0681398
0.0914426
0.120626
0.156868
0.200966
0.253026
0.311988
0.376415
0.444624
0.513687
0.0741625
0.10007
0.131271
0.170086
0.217826
0.27496
0.342282
0.421853
0.517773
0.630903
-0.0194171
-0.0111484
-0.00126399
0.0101733
0.0217071
0.033251
0.0423495
0.0516606
0.0567129
0.0603322
-0.0202653
-0.0112616
-0.00171627
0.00936545
0.0204132
0.0314099
0.0397468
0.048519
0.0532052
0.0570109
-0.0202341
-0.0102331
-0.000428111
0.0106468
0.0212294
0.0313724
0.0387895
0.0466382
0.050891
0.0558279
-0.019755
-0.00955732
0.000219711
0.0111987
0.0213858
0.0308329
0.0375389
0.0445783
0.0483401
0.0538915
-0.0188883
-0.00894737
0.000370751
0.0109525
0.0206237
0.0294696
0.0356565
0.0420878
0.045295
0.0507365
-0.0176482
-0.00811995
0.000615906
0.0105999
0.0196028
0.0278078
0.0335294
0.0394611
0.042084
0.0470065
-0.0161257
-0.00710864
0.00109243
0.0104651
0.0187508
0.0262806
0.0315175
0.0370049
0.0390661
0.0434195
-0.0143827
-0.00600077
0.00169165
0.0104947
0.0181003
0.0249937
0.0297291
0.0348415
0.036398
0.0403254
-0.0124905
-0.00483556
0.00232214
0.0105649
0.0175375
0.0238776
0.0281239
0.0329426
0.0340728
0.0377339
-0.0104983
-0.00363199
0.00295587
0.0106172
0.0169846
0.0228538
0.0266501
0.0312161
0.0320307
0.035488
-0.00164956
-0.000746917
0.000312389
0.00145233
0.00250383
0.00341162
0.00417599
0.00484301
0.00551315
0.00617714
-0.000915266
8.52105e-05
0.0011642
0.00230767
0.00334609
0.00422433
0.0049446
0.00554557
0.00609207
0.00652873
-0.000237528
0.000863743
0.00193501
0.00304164
0.00402027
0.00481976
0.00544412
0.00592084
0.00627969
0.00646331
0.000424636
0.00161381
0.00264735
0.00367358
0.00454257
0.00521286
0.0056956
0.00601746
0.0062053
0.00621917
0.00111946
0.00236486
0.0033291
0.00423227
0.0049448
0.00544054
0.00574271
0.00588478
0.00590635
0.0057891
0.00189578
0.0031474
0.0040116
0.00475486
0.00527396
0.00556236
0.00565806
0.00560476
0.00545799
0.00521283
0.00279844
0.00399136
0.00472826
0.00528487
0.00558863
0.00565486
0.00553626
0.00528651
0.00497216
0.00458648
0.0038649
0.0049249
0.00551257
0.00586783
0.00595089
0.0057986
0.00547573
0.00504305
0.00456932
0.00403665
0.00511955
0.00597125
0.00639377
0.00654416
0.00641492
0.00606169
0.00555724
0.00496519
0.00434847
0.00368216
0.00655772
0.00713938
0.00738965
0.00734081
0.00701608
0.00648632
0.00582791
0.00510294
0.00436458
0.00360114
0.00813654
0.00841805
0.00850176
0.00826588
0.00776544
0.00708399
0.00629776
0.00546423
0.00462268
0.00375433
0.00990131
0.0098222
0.00972994
0.00931116
0.00865054
0.00783766
0.00694562
0.00602452
0.00510258
0.00417268
0.0117947
0.0113172
0.0110421
0.0104463
0.00963824
0.00871057
0.00773045
0.00673966
0.00575973
0.00479719
0.0137481
0.0128558
0.0123946
0.0116265
0.0106816
0.00965296
0.00859976
0.00755541
0.00653867
0.00556543
0.0156878
0.0143807
0.0137328
0.0127978
0.0117268
0.0106104
0.00949835
0.00841602
0.00738239
0.00641819
0.0175316
0.0158254
0.0149953
0.013903
0.0127192
0.0115298
0.0103741
0.00926951
0.00823759
0.00730157
0.0191928
0.0171193
0.0161203
0.0148872
0.0136087
0.0123644
0.0111824
0.0100716
0.00905733
0.0081662
0.0205872
0.0181934
0.01705
0.015702
0.0143533
0.0130765
0.0118888
0.0107885
0.00979925
0.00896124
0.0216379
0.0189854
0.0177349
0.0163087
0.0149218
0.0136392
0.0124671
0.0113865
0.0104122
0.00963009
0.0222797
0.019443
0.0181361
0.0166802
0.0152968
0.014042
0.0129077
0.0118497
0.0108709
0.010147
0.0224624
0.0195266
0.0182245
0.0167987
0.0154744
0.0143046
0.0132824
0.0123733
0.0116106
0.0112194
0.022146
0.0192061
0.0179782
0.0166457
0.0154331
0.0143889
0.0135047
0.0127504
0.0121504
0.0118556
0.0213149
0.0184703
0.0173875
0.0162105
0.0151575
0.0142727
0.0135462
0.0129498
0.0124882
0.0122453
0.0199767
0.0173246
0.0164558
0.0154943
0.0146479
0.0139589
0.0134187
0.0130031
0.0127035
0.0125608
0.0181606
0.0157907
0.0152
0.0145108
0.0139168
0.0134608
0.0131382
0.0129295
0.0128192
0.012825
0.0159151
0.0139051
0.013649
0.0132844
0.012986
0.0127987
0.0127237
0.0127465
0.0128486
0.0130346
0.0133048
0.011717
0.0118418
0.0118472
0.011883
0.0119971
0.0121972
0.0124749
0.0128118
0.0132033
0.0104049
0.00928349
0.00982344
0.0102357
0.0106387
0.0110824
0.0115819
0.0121356
0.0127285
0.0133504
0.00729729
0.00666579
0.00764199
0.00848779
0.00928373
0.0100799
0.0108989
0.0117467
0.0126141
0.0134901
0.00408334
0.00393108
0.0053469
0.00664079
0.00784692
0.00901211
0.0101659
0.0113221
0.0124792
0.0136301
0.00089804
0.00116404
0.00299493
0.00473437
0.00635691
0.00789977
0.00939778
0.0108719
0.0123293
0.0137725
-0.00231805
-0.00162638
0.000612087
0.00279188
0.00483121
0.00675469
0.00860129
0.0103985
0.0121611
0.0139091
-0.00547816
-0.00438396
-0.00176258
0.00083902
0.00328623
0.00558582
0.00777904
0.00989821
0.0119635
0.0140196
-0.00851037
-0.00706071
-0.00409335
-0.0011032
0.00173322
0.00439655
0.0069276
0.00936145
0.0117184
0.0140732
-0.0113778
-0.0096178
-0.00635342
-0.00301862
0.000179238
0.003186
0.0060393
0.00877492
0.0114046
0.0140324
-0.0140399
-0.0119953
-0.00855461
-0.00489562
-0.0013716
0.00195042
0.00510351
0.00812361
0.0110036
0.0138538
-0.0164784
-0.0142131
-0.010632
-0.00672473
-0.0029177
0.000685155
0.00410884
0.00739269
0.0105105
0.0135016
-0.0186797
-0.0162533
-0.0125835
-0.00849291
-0.00445743
-0.000614685
0.00304445
0.00656161
0.00992258
0.0129712
-0.0206369
-0.018101
-0.0144046
-0.0101967
-0.00598981
-0.00195296
0.00190755
0.00563349
0.00917958
0.012405
-0.022349
-0.0197505
-0.0160879
-0.0118309
-0.00751381
-0.0033347
0.000682095
0.00458288
0.00833031
0.0117423
-0.023825
-0.0212043
-0.0176295
-0.0133908
-0.00902725
-0.00476139
-0.000639523
0.00339089
0.00742545
0.0112674
-0.0251031
-0.0224771
-0.01903
-0.0148709
-0.0105265
-0.00623835
-0.0020808
0.00196055
0.00598142
0.00983557
-0.0261689
-0.0235648
-0.020284
-0.016262
-0.0120001
-0.00775185
-0.00361443
0.000394912
0.00435178
0.00817075
-0.0270287
-0.0244736
-0.0213902
-0.0175543
-0.0134297
-0.00927245
-0.00519225
-0.00122044
0.00270331
0.00649375
-0.0277001
-0.0252156
-0.0223505
-0.0187392
-0.0147982
-0.0107754
-0.00678735
-0.00287441
0.00100977
0.00477152
-0.0282027
-0.0258046
-0.0231696
-0.0198117
-0.0160927
-0.0122443
-0.00838465
-0.0045631
-0.000746371
0.00297839
-0.0285562
-0.0262558
-0.0238551
-0.0207702
-0.0173044
-0.0136655
-0.00996847
-0.00626951
-0.00254841
0.00112236
-0.0287813
-0.0265856
-0.0244174
-0.0216168
-0.0184275
-0.0150274
-0.0115231
-0.00797437
-0.00437399
-0.000776784
-0.028898
-0.0268116
-0.0248695
-0.0223571
-0.0194599
-0.0163216
-0.0130354
-0.00966163
-0.00620443
-0.00269855
-0.0289157
-0.0269452
-0.0252232
-0.0229989
-0.0204032
-0.017544
-0.0144971
-0.0113194
-0.00802518
-0.00462578
-0.0288263
-0.0269829
-0.0254785
-0.0235419
-0.0212546
-0.0186879
-0.0158981
-0.0129354
-0.00982254
-0.006545
-0.0287057
-0.026976
-0.0256732
-0.024013
-0.0220304
-0.019761
-0.0172391
-0.0145053
-0.0115901
-0.00845468
-0.028548
-0.0269245
-0.0258133
-0.0244196
-0.0227363
-0.0207652
-0.0185181
-0.0160241
-0.0133211
-0.0103523
-0.0283504
-0.0268301
-0.025904
-0.0247677
-0.0233768
-0.0217014
-0.0197321
-0.0174851
-0.0150066
-0.0122293
-0.0281131
-0.0266958
-0.0259488
-0.0250607
-0.0239524
-0.0225663
-0.020873
-0.0188762
-0.0166324
-0.0140721
-0.0278333
-0.02652
-0.0259467
-0.0252959
-0.0244579
-0.0233504
-0.0219262
-0.020178
-0.018177
-0.0158641
-0.0275036
-0.0262967
-0.0258905
-0.0254647
-0.0248817
-0.0240376
-0.02287
-0.0213628
-0.0196082
-0.0175778
-0.027114
-0.0260162
-0.0257687
-0.025553
-0.0252064
-0.0246064
-0.0236775
-0.0223947
-0.0208785
-0.0191679
-0.026653
-0.025666
-0.025566
-0.0255424
-0.0254107
-0.0250319
-0.0243186
-0.0232323
-0.0219126
-0.0205228
-0.0261088
-0.0252325
-0.025265
-0.0254122
-0.0254712
-0.0252889
-0.0247703
-0.0238608
-0.0226578
-0.0214573
-0.0254704
-0.024702
-0.0248484
-0.0251416
-0.0253636
-0.0253469
-0.0249857
-0.0241879
-0.0228032
-0.0209465
-0.0247283
-0.0240637
-0.0243012
-0.0247109
-0.0250665
-0.0251929
-0.0249839
-0.0243719
-0.0232094
-0.021518
-0.0238767
-0.0233066
-0.0236089
-0.0241027
-0.0245602
-0.0248054
-0.0247352
-0.0243051
-0.023409
-0.0219938
-0.0229144
-0.0224254
-0.0227632
-0.0233053
-0.0238274
-0.0241547
-0.0241829
-0.0238684
-0.0231346
-0.0219079
-0.0218447
-0.02142
-0.0217625
-0.0223151
-0.0228611
-0.0232283
-0.0233097
-0.023053
-0.0224002
-0.0212919
-0.0206754
-0.0202957
-0.0206123
-0.0211379
-0.0216673
-0.0220334
-0.0221296
-0.0218991
-0.0212994
-0.0202955
-0.0194176
-0.0190632
-0.0193251
-0.0197886
-0.0202643
-0.0205921
-0.0206682
-0.020437
-0.019866
-0.0189228
-0.0180849
-0.0177373
-0.0179198
-0.0182907
-0.0186802
-0.0189383
-0.0189653
-0.0187086
-0.0181494
-0.0172579
-0.0166933
-0.0163371
-0.0164209
-0.0166741
-0.0169509
-0.0171143
-0.0170703
-0.0167696
-0.0162024
-0.015344
-0.0152635
-0.0148824
-0.0148532
-0.0149706
-0.0151157
-0.0151664
-0.0150368
-0.0146817
-0.0140949
-0.013254
)
;

boundaryField
{
    inlet
    {
        type            zeroGradient;
    }
    outlet
    {
        type            fixedValue;
        value           uniform 0;
    }
    cylinder
    {
        type            zeroGradient;
    }
    top
    {
        type            symmetryPlane;
    }
    bottom
    {
        type            symmetryPlane;
    }
    defaultFaces
    {
        type            empty;
    }
}


// ************************************************************************* //
