/*--------------------------------*- C++ -*----------------------------------*\
  =========                 |
  \\      /  F ield         | OpenFOAM: The Open Source CFD Toolbox
   \\    /   O peration     | Website:  https://openfoam.org
    \\  /    A nd           | Version:  7
     \\/     M anipulation  |
\*---------------------------------------------------------------------------*/
FoamFile
{
    version     2.0;
    format      ascii;
    class       volVectorField;
    location    "32";
    object      U;
}
// * * * * * * * * * * * * * * * * * * * * * * * * * * * * * * * * * * * * * //

dimensions      [0 1 -1 0 0 0 0];

internalField   nonuniform List<vector> 
2000
(
(0.00140172 -0.0201196 3.35645e-22)
(0.00392802 -0.0238731 0)
(0.00723498 -0.00828847 0)
(0.010295 0.0180012 1.41457e-21)
(0.0126849 0.0497102 -4.75909e-22)
(0.0140943 0.0835904 9.82011e-24)
(0.014495 0.11775 8.13239e-22)
(0.0140605 0.151026 0)
(0.0129417 0.182461 0)
(0.0112849 0.211056 0)
(0.00283413 -0.0206528 0)
(0.00563074 -0.0254753 1.08492e-21)
(0.00815199 -0.0107754 -1.00049e-21)
(0.0101632 0.0150005 -1.9323e-21)
(0.0115399 0.0466621 0)
(0.0120565 0.0808668 -1.46671e-21)
(0.0116708 0.115543 1.36394e-21)
(0.0105246 0.149383 0)
(0.0087596 0.181379 -2.02182e-21)
(0.00646389 0.210575 3.67631e-21)
(0.00432445 -0.0209552 0)
(0.0075808 -0.02695 -7.14611e-21)
(0.00951273 -0.013529 0)
(0.0106626 0.0112199 -5.53053e-21)
(0.0112163 0.0423303 0)
(0.0110472 0.0764536 4.32418e-21)
(0.0100972 0.111372 0)
(0.00846358 0.145629 -3.62259e-21)
(0.00627849 0.178151 3.39278e-21)
(0.00355319 0.207983 2.3496e-21)
(0.00582645 -0.0210073 1.79299e-21)
(0.00972992 -0.0282461 3.83692e-21)
(0.0112858 -0.0164707 1.48061e-21)
(0.0117652 0.00672915 3.1028e-21)
(0.0116706 0.0367334 2.24235e-21)
(0.0109976 0.0703 -2.49517e-21)
(0.00968617 0.10513 -1.70059e-21)
(0.00778075 0.139627 3.17084e-22)
(0.00539337 0.172631 -2.46152e-21)
(0.00245465 0.203135 -2.34541e-21)
(0.00729941 -0.0208013 1.57608e-21)
(0.0120427 -0.0292967 2.67151e-21)
(0.0134608 -0.0194668 4.00704e-21)
(0.0134684 0.00169045 -2.07616e-21)
(0.0128817 0.0299972 0)
(0.0118475 0.0624417 0)
(0.0103363 0.0967464 2.13014e-21)
(0.00834974 0.131221 1.72373e-21)
(0.00596325 0.164609 -1.02131e-21)
(0.00301408 0.195803 -2.58645e-21)
(0.00871547 -0.0203355 -1.26328e-21)
(0.0145063 -0.0300183 -9.56248e-22)
(0.0160593 -0.0223289 4.29763e-21)
(0.0158125 -0.00362655 -6.39126e-21)
(0.0148774 0.0223975 1.27175e-21)
(0.0135804 0.0530679 0)
(0.0119702 0.0862611 0)
(0.0100437 0.120287 -4.13601e-21)
(0.00783546 0.153834 3.50415e-21)
(0.00504075 0.185643 -6.40811e-22)
(0.0100612 -0.019608 -7.73969e-21)
(0.0171478 -0.0303373 0)
(0.0191459 -0.024826 -6.52775e-21)
(0.0188933 -0.00883852 5.01466e-21)
(0.0177566 0.0144014 0)
(0.0162601 0.0426131 -7.28071e-22)
(0.0145827 0.0739511 8.97784e-22)
(0.0127843 0.106867 1.13779e-21)
(0.0108898 0.140102 -2.01511e-23)
(0.00833879 0.172243 -6.86256e-24)
(0.0113411 -0.0186418 1.37895e-20)
(0.020028 -0.030189 1.22077e-21)
(0.0228356 -0.0266948 1.15353e-21)
(0.0228621 -0.0134633 2.34549e-21)
(0.0216923 0.00667867 3.43991e-22)
(0.0200497 0.0318288 -8.61662e-22)
(0.018284 0.0604863 -1.46984e-21)
(0.0166029 0.091381 0)
(0.0151125 0.123478 0)
(0.012841 0.155245 3.43686e-22)
(0.0126078 -0.0174934 -6.04982e-21)
(0.0232445 -0.0295141 3.17587e-21)
(0.027273 -0.0276751 -2.68857e-21)
(0.027902 -0.016974 -2.07716e-21)
(0.0269033 4.80023e-05 1.00321e-22)
(0.0251867 0.0217751 -5.4148e-22)
(0.0232916 0.0470197 4.69746e-22)
(0.0216573 0.0748338 0)
(0.0206521 0.104519 0)
(0.0188385 0.13452 5.38206e-22)
(0.0139602 -0.0162318 4.78802e-22)
(0.0269251 -0.0282787 -3.60294e-21)
(0.0326057 -0.0275564 3.93328e-22)
(0.0341832 -0.0188924 0)
(0.0335909 -0.00465837 0)
(0.0318978 0.0136852 1.92285e-21)
(0.0298111 0.0351342 0)
(0.027994 0.0589455 -3.78417e-21)
(0.0273542 0.0845565 -2.29885e-22)
(0.0270193 0.110191 3.58813e-21)
(0.00879931 0.266665 -8.33748e-23)
(-0.00999923 0.345017 8.43299e-23)
(-0.0166299 0.40454 -6.13799e-23)
(-0.0233486 0.445967 -1.68077e-22)
(-0.0233616 0.476561 -3.05462e-22)
(-0.0170189 0.507759 -3.62084e-23)
(-0.0153881 0.557995 1.78332e-22)
(-0.001434 0.647664 6.95417e-22)
(-0.0120985 0.799033 0)
(0.0067631 0.966741 -5.419e-22)
(0.00210659 0.267765 -5.12868e-22)
(-0.0155039 0.34662 -9.39867e-23)
(-0.0213055 0.405168 2.98993e-22)
(-0.026685 0.445435 1.68383e-22)
(-0.0257674 0.474859 5.00051e-22)
(-0.0189976 0.505334 1.0043e-21)
(-0.0169469 0.555113 -4.00915e-22)
(-0.00291989 0.645751 -4.70305e-22)
(-0.0126219 0.797335 9.26184e-22)
(0.00595206 0.965165 5.40607e-22)
(-0.00260942 0.267035 0)
(-0.0194243 0.346721 -2.72608e-23)
(-0.0247793 0.404758 -1.43362e-22)
(-0.0291336 0.444247 0)
(-0.0276423 0.472692 -1.63607e-21)
(-0.0206661 0.502487 4.82733e-22)
(-0.0183098 0.551636 6.58448e-22)
(-0.00431219 0.64304 2.48917e-21)
(-0.0130872 0.795272 -9.23191e-22)
(0.00524349 0.963588 1.91478e-21)
(-0.00540428 0.264426 0)
(-0.0218613 0.345356 2.74975e-23)
(-0.0271587 0.403355 0)
(-0.0307995 0.442397 1.63034e-21)
(-0.0290386 0.470119 -1.63851e-21)
(-0.0220342 0.499203 -1.32932e-21)
(-0.0194954 0.547555 -1.2275e-22)
(-0.00558674 0.639211 -2.44009e-21)
(-0.0134902 0.792128 -3.93836e-22)
(0.00455318 0.961098 -2.34713e-21)
(-0.00639041 0.259876 6.80746e-22)
(-0.0229399 0.342734 2.36481e-22)
(-0.0285686 0.40127 5.5102e-22)
(-0.0317937 0.440197 -1.05059e-21)
(-0.0300169 0.467385 0)
(-0.023137 0.495683 -1.27583e-21)
(-0.0205524 0.543106 -1.75593e-22)
(-0.00678433 0.634896 3.04778e-21)
(-0.0138428 0.7891 4.18173e-22)
(0.00395545 0.958954 -4.1965e-22)
(-0.00570952 0.253235 -2.75532e-22)
(-0.022749 0.338539 5.66041e-22)
(-0.0290782 0.398022 1.082e-21)
(-0.0321643 0.43731 -1.08113e-21)
(-0.030593 0.464292 -9.01597e-22)
(-0.0239616 0.491812 0)
(-0.0214545 0.537989 -2.66411e-21)
(-0.00786379 0.629246 1.33224e-21)
(-0.0141793 0.784315 1.49829e-21)
(0.00329046 0.955467 1.60609e-21)
(-0.00359866 0.244432 -1.47406e-22)
(-0.0214863 0.333537 0)
(-0.028849 0.394709 0)
(-0.0320365 0.434645 0)
(-0.0308336 0.461451 -1.10335e-21)
(-0.0245665 0.488101 2.00097e-21)
(-0.0222575 0.532981 2.60179e-21)
(-0.00889799 0.623994 -4.13258e-21)
(-0.0144669 0.780663 7.49592e-22)
(0.00276814 0.953033 -2.33287e-21)
(-0.000187057 0.232787 9.87988e-22)
(-0.0190956 0.325728 1.49004e-21)
(-0.0277764 0.389083 -1.47595e-21)
(-0.0313309 0.430563 3.13068e-21)
(-0.0307026 0.457842 -3.96561e-21)
(-0.0248846 0.483802 0)
(-0.0228896 0.526844 -1.17149e-21)
(-0.0098247 0.616345 5.62306e-23)
(-0.0148327 0.773771 -1.33778e-21)
(0.0020636 0.948471 -1.44105e-21)
(0.00403567 0.219857 -1.15912e-21)
(-0.016212 0.319763 0)
(-0.0263595 0.385975 -2.624e-21)
(-0.0303772 0.428468 5.46351e-21)
(-0.0303206 0.45563 -2.20333e-21)
(-0.0250253 0.480675 -5.10136e-22)
(-0.0234043 0.522314 1.16902e-21)
(-0.0107021 0.611501 6.49329e-24)
(-0.0150544 0.770515 1.92348e-21)
(0.00164488 0.946208 2.08639e-21)
(0.0105538 0.197083 -1.27301e-21)
(-0.0114999 0.303383 1.23359e-21)
(-0.0235788 0.375244 2.41601e-22)
(-0.0286269 0.421774 0)
(-0.0295826 0.450769 0)
(-0.0248772 0.47547 4.898e-22)
(-0.0238086 0.514308 2.21725e-21)
(-0.0115567 0.60051 -2.15647e-21)
(-0.0155806 0.760413 -5.95792e-22)
(0.000832276 0.940326 5.74875e-22)
(0.013711 0.196646 0)
(-0.00369078 0.310178 0)
(-0.0189684 0.381196 0)
(-0.0248614 0.42488 0)
(-0.0269184 0.450981 0)
(-0.0238905 0.473395 0)
(-0.0237874 0.510404 0)
(-0.0130336 0.597366 0)
(-0.0156885 0.757999 0)
(0.000274167 0.936764 0)
(0.0178135 0.218425 0)
(0.00953075 0.324578 0)
(-0.00577911 0.390306 0)
(-0.0141512 0.429474 0)
(-0.0193655 0.453259 0)
(-0.0195898 0.473658 0)
(-0.021862 0.507916 0)
(-0.0148686 0.591885 0)
(-0.0176002 0.749655 0)
(-0.00130973 0.925582 0)
(0.021192 0.236272 0)
(0.0171289 0.339878 0)
(0.00388845 0.4034 0)
(-0.00506494 0.437145 0)
(-0.0123737 0.456444 0)
(-0.0150527 0.473823 0)
(-0.0188293 0.506225 0)
(-0.0140487 0.58888 0)
(-0.0155664 0.744239 0)
(-0.00158759 0.915813 0)
(0.0228659 0.244778 0)
(0.0246994 0.347156 0)
(0.0136982 0.412675 0)
(0.00390029 0.446168 0)
(-0.0056027 0.463816 0)
(-0.0112187 0.479384 0)
(-0.0172817 0.509465 0)
(-0.0159361 0.589228 0)
(-0.0179349 0.741459 0)
(-0.00270322 0.908001 0)
(0.0220975 0.250805 0)
(0.0262813 0.352092 0)
(0.0197467 0.421549 0)
(0.0114121 0.455317 0)
(0.00207309 0.471014 0)
(-0.00405612 0.483941 0)
(-0.0107912 0.510745 0)
(-0.0105975 0.586157 0)
(-0.0142498 0.733172 0)
(-0.00256144 0.896707 0)
(0.0232079 0.251096 0)
(0.028163 0.352394 0)
(0.0237406 0.427823 0)
(0.0149094 0.464051 0)
(0.00450466 0.479683 0)
(-0.0031024 0.491804 0)
(-0.0111663 0.517633 0)
(-0.0127692 0.591204 0)
(-0.0147455 0.733143 0)
(-0.0031429 0.888303 0)
(0.0210753 0.247572 0)
(0.0279296 0.350544 0)
(0.0275803 0.432958 0)
(0.0212237 0.47393 0)
(0.0116317 0.489845 0)
(0.00412233 0.499596 0)
(-0.00407898 0.521545 0)
(-0.00745011 0.589952 0)
(-0.0127795 0.727379 0)
(-0.00316105 0.880221 0)
(0.0207839 0.245975 0)
(0.024374 0.348947 0)
(0.0240385 0.435344 0)
(0.0190715 0.479809 0)
(0.0110691 0.497236 0)
(0.00420893 0.507055 0)
(-0.00341871 0.52904 0)
(-0.00596742 0.596374 0)
(-0.00993337 0.727509 0)
(-0.00271134 0.87147 0)
(0.0180397 0.239159 0)
(0.0233662 0.345858 0)
(0.0254279 0.438578 0)
(0.0214344 0.486867 0)
(0.0141819 0.505466 0)
(0.00758594 0.514233 0)
(-0.000297433 0.533515 0)
(-0.00445265 0.597271 0)
(-0.00930679 0.725576 0)
(-0.00312196 0.867064 0)
(0.00870744 0.236971 0)
(0.0110268 0.341577 0)
(0.0145005 0.436435 0)
(0.0142198 0.489596 0)
(0.01133 0.5111 0)
(0.00839327 0.521198 0)
(0.00370923 0.541599 0)
(0.000240217 0.604877 0)
(-0.00524331 0.727283 0)
(-0.00214402 0.859412 0)
(0.0306735 0.121228 2.03592e-21)
(0.0347059 0.155617 -2.00314e-21)
(0.0362136 0.18227 1.24376e-22)
(0.0335094 0.198483 0)
(0.0285508 0.208999 0)
(0.0247171 0.210556 -4.9994e-23)
(0.0203567 0.207162 2.1694e-22)
(0.0184548 0.202676 -2.1304e-22)
(0.0149191 0.194252 -3.84522e-23)
(0.0082412 0.191186 3.74985e-23)
(0.042319 0.101419 -2.34464e-21)
(0.0428772 0.136815 0)
(0.0411705 0.164397 3.74776e-22)
(0.0358247 0.181307 -4.38315e-22)
(0.0290441 0.191817 -1.43378e-22)
(0.0236901 0.192961 4.88027e-23)
(0.0188146 0.189428 -1.48202e-22)
(0.0165241 0.183833 -2.42043e-22)
(0.0132431 0.175284 -3.13679e-23)
(0.00778625 0.171675 -1.54847e-23)
(0.0535773 0.09247 2.65347e-21)
(0.0506812 0.125929 -8.62615e-22)
(0.045964 0.15093 8.54343e-22)
(0.0381115 0.165813 3.1398e-22)
(0.0294406 0.174442 -2.16471e-22)
(0.0225581 0.174279 0)
(0.0170872 0.170323 1.48545e-22)
(0.0144309 0.163731 -1.46567e-23)
(0.0115501 0.155582 1.04411e-22)
(0.00729842 0.151388 5.47024e-23)
(0.0638322 0.0884292 -4.14718e-22)
(0.0575021 0.117552 0)
(0.0500495 0.137819 0)
(0.0399254 0.149323 0)
(0.0295641 0.155265 -5.92364e-22)
(0.0213506 0.153608 3.85438e-22)
(0.0153496 0.149245 -2.93118e-23)
(0.0124137 0.141984 1.34381e-22)
(0.00995828 0.134612 4.16533e-23)
(0.00680914 0.129796 1.38869e-23)
(0.0725743 0.0841849 -5.15599e-22)
(0.0627496 0.107124 -8.20148e-22)
(0.0528975 0.121774 1.87463e-22)
(0.0408665 0.129693 -1.87325e-22)
(0.0291655 0.133003 2.04126e-22)
(0.0199553 0.130221 0)
(0.0135834 0.125722 2.01365e-22)
(0.0105018 0.118281 -3.00045e-22)
(0.00847342 0.111907 1.40062e-22)
(0.00627066 0.106513 -5.59744e-23)
(0.0791416 0.0760203 -1.86752e-21)
(0.0661977 0.0920036 5.42314e-22)
(0.0545162 0.101148 2.90601e-22)
(0.0410521 0.106005 -3.10487e-22)
(0.0283959 0.107209 0)
(0.0185019 0.103913 0)
(0.0118862 0.0996412 0)
(0.00876022 0.0925429 -1.8094e-22)
(0.00710469 0.0872482 0)
(0.00565742 0.0814487 0)
(0.0832379 0.0621585 0)
(0.0679504 0.0715959 -1.56999e-22)
(0.0551227 0.0759404 1.39348e-22)
(0.0407178 0.0785477 5.75264e-22)
(0.0274786 0.0782702 -5.7821e-22)
(0.0171593 0.0750437 -2.7517e-22)
(0.0103805 0.0713129 3.15333e-22)
(0.00725477 0.0650005 6.64961e-22)
(0.0058675 0.0607855 -5.44475e-23)
(0.00497389 0.0548773 3.52874e-23)
(0.0849857 0.0427554 0)
(0.068303 0.046881 1.81907e-23)
(0.0549842 0.0473007 1.00615e-22)
(0.0400765 0.0484228 0)
(0.0265783 0.0471597 -1.55258e-22)
(0.0160376 0.0444103 4.94231e-22)
(0.0091431 0.0414234 -3.69675e-22)
(0.00602066 0.0362122 -7.5224e-23)
(0.00477853 0.0330561 6.01733e-23)
(0.00426774 0.0274051 -5.7845e-23)
(0.0847302 0.0192883 1.9684e-22)
(0.0675871 0.019654 -1.44408e-22)
(0.0543194 0.0168907 -9.50871e-24)
(0.0392862 0.017079 -8.23467e-23)
(0.0257825 0.0151307 -1.72458e-22)
(0.015188 0.0130699 -2.47957e-22)
(0.00820485 0.0109237 6.81357e-23)
(0.00507347 0.0069999 4.95027e-23)
(0.00384996 0.00487773 -6.03701e-23)
(0.00356873 -0.000149403 -1.39215e-23)
(0.0828869 -0.00628265 8.88832e-25)
(0.0660921 -0.00817962 -8.9841e-25)
(0.053278 -0.0136292 5.4793e-23)
(0.0384383 -0.0140418 8.22211e-23)
(0.0251171 -0.0165202 -8.70501e-23)
(0.0146179 -0.0178319 1.71973e-22)
(0.00757529 -0.0191151 -9.76496e-23)
(0.00441922 -0.0216843 -1.97943e-23)
(0.00311117 -0.0228355 0)
(0.0027697 -0.0269324 1.3945e-23)
(0.0799032 -0.0321624 8.5138e-25)
(0.0640746 -0.0350435 -8.59629e-25)
(0.0519893 -0.0428838 5.35003e-23)
(0.0375659 -0.0437001 8.11634e-23)
(0.0245851 -0.0466239 8.65504e-23)
(0.014311 -0.0472233 -3.81219e-24)
(0.0072508 -0.0476757 -3.86125e-23)
(0.00404943 -0.0489485 -7.92761e-23)
(0.00258927 -0.0492348 0)
(0.0021871 -0.0522612 1.20579e-23)
(0.0762135 -0.0569479 0)
(0.0617588 -0.0598715 1.39839e-22)
(0.0505365 -0.0698678 -2.91492e-22)
(0.0366996 -0.070971 -8.12819e-23)
(0.0241836 -0.0742632 -1.69221e-22)
(0.0142442 -0.0742577 -2.45651e-22)
(0.00720222 -0.0739644 6.8055e-23)
(0.00393122 -0.0741256 4.9487e-23)
(0.00224862 -0.0737044 -5.93857e-23)
(0.00170032 -0.0757314 -1.20244e-23)
(0.0721822 -0.0797819 0)
(0.0593139 -0.0821069 2.98836e-23)
(0.0489563 -0.0939614 9.73e-23)
(0.0358906 -0.0953169 0)
(0.0238964 -0.0988574 4.92649e-22)
(0.0143864 -0.0984353 -1.63249e-22)
(0.00737816 -0.0975326 -1.44738e-22)
(0.004012 -0.0968835 -3.04727e-22)
(0.00205119 -0.0959619 5.91917e-23)
(0.00130507 -0.0971901 -4.07136e-23)
(0.0680796 -0.10027 0)
(0.0568615 -0.101646 -3.01302e-23)
(0.0472864 -0.114918 0)
(0.0351723 -0.116595 -5.77176e-22)
(0.0237038 -0.120212 5.80183e-22)
(0.0146903 -0.119649 2.77122e-22)
(0.00771446 -0.118308 -2.05293e-23)
(0.00422555 -0.117222 2.98404e-22)
(0.00195506 -0.116017 5.65183e-23)
(0.000996633 -0.116683 5.96223e-23)
(0.0641077 -0.118384 2.1412e-21)
(0.0545081 -0.118748 -7.56672e-22)
(0.0455785 -0.132808 -2.67407e-22)
(0.0345561 -0.135012 3.50268e-22)
(0.0235854 -0.138489 0)
(0.015091 -0.138131 2.62342e-22)
(0.00813864 -0.136521 -5.24551e-23)
(0.00449952 -0.13538 -3.9446e-22)
(0.00191828 -0.134069 -1.8302e-23)
(0.000756122 -0.134388 1.82862e-23)
(0.0603966 -0.134319 9.27818e-22)
(0.05236 -0.133923 9.03247e-22)
(0.0439007 -0.147936 -2.7383e-22)
(0.0340372 -0.15102 2.73675e-22)
(0.0235224 -0.154106 2.42597e-22)
(0.0155165 -0.154325 0)
(0.00858372 -0.152584 4.22044e-22)
(0.00477205 -0.151713 -2.28779e-22)
(0.00191073 -0.150407 -1.39037e-22)
(0.000565772 -0.150548 -3.13688e-23)
(0.0570425 -0.148331 -4.50548e-22)
(0.0505501 -0.147828 0)
(0.0423483 -0.160745 0)
(0.0336056 -0.165174 0)
(0.0235058 -0.167606 2.27996e-22)
(0.0159064 -0.168742 -4.69965e-22)
(0.00900282 -0.166953 -4.10253e-22)
(0.0050031 -0.166595 5.12953e-22)
(0.00191806 -0.165333 -3.2776e-23)
(0.000413981 -0.165425 6.34855e-23)
(0.0539686 -0.160571 -1.33697e-21)
(0.0490975 -0.161133 4.15964e-22)
(0.0409652 -0.171725 -4.12075e-22)
(0.0332123 -0.178004 -6.54713e-22)
(0.0235317 -0.179538 8.3329e-22)
(0.0162303 -0.181853 0)
(0.00938725 -0.180051 1.92331e-22)
(0.00518445 -0.18035 -9.05133e-24)
(0.00194232 -0.17913 9.25531e-23)
(0.000294613 -0.179268 2.60605e-23)
(0.0504954 -0.170888 -5.46154e-22)
(0.0475074 -0.174425 0)
(0.0395701 -0.181393 -1.43576e-23)
(0.0326811 -0.189953 -5.41306e-22)
(0.023557 -0.190405 3.16938e-22)
(0.0164697 -0.19404 9.19982e-23)
(0.00976115 -0.19222 -1.91893e-22)
(0.00534515 -0.193237 -3.07527e-23)
(0.00200194 -0.192036 -1.77847e-22)
(0.000203449 -0.192306 -5.36798e-23)
(0.0471653 -0.178605 -2.07268e-21)
(0.0457118 -0.188131 2.02014e-21)
(0.0383094 -0.190339 4.86359e-23)
(0.0319648 -0.20139 0)
(0.0234881 -0.20065 0)
(0.0165185 -0.205601 -9.48325e-23)
(0.0100212 -0.203727 -3.08694e-22)
(0.00544871 -0.205454 3.02848e-22)
(0.0020736 -0.204246 2.66641e-23)
(0.000131736 -0.204742 -2.6063e-23)
(0.0506839 -0.188205 0)
(0.0470512 -0.220205 0)
(0.03908 -0.210661 0)
(0.0315835 -0.227663 0)
(0.0232903 -0.224387 0)
(0.0158764 -0.232467 0)
(0.00972672 -0.230487 0)
(0.00502444 -0.2338 0)
(0.00194829 -0.23232 0)
(4.51455e-05 -0.233311 0)
(0.0429138 -0.237982 0)
(0.0354853 -0.270053 0)
(0.0312964 -0.257523 0)
(0.0243238 -0.274836 0)
(0.0189605 -0.269709 0)
(0.0128352 -0.278892 0)
(0.00835716 -0.275869 0)
(0.00443688 -0.279924 0)
(0.00199908 -0.277541 0)
(0.0001112 -0.279026 0)
(0.0398873 -0.288912 0)
(0.0311374 -0.320966 0)
(0.0269983 -0.306317 0)
(0.0200511 -0.324697 0)
(0.0157785 -0.317458 0)
(0.0105504 -0.327616 0)
(0.00729886 -0.322947 0)
(0.00402199 -0.327747 0)
(0.00202374 -0.324114 0)
(0.000158098 -0.3263 0)
(0.0352281 -0.343976 0)
(0.0265359 -0.3761 0)
(0.0230206 -0.359339 0)
(0.0165235 -0.378851 0)
(0.0133622 -0.369285 0)
(0.00885116 -0.380673 0)
(0.00654803 -0.374211 0)
(0.00373416 -0.379984 0)
(0.00208073 -0.37487 0)
(0.000193586 -0.37812 0)
(0.0304284 -0.407159 0)
(0.0225367 -0.439687 0)
(0.0193673 -0.420959 0)
(0.0136982 -0.441775 0)
(0.0113379 -0.430063 0)
(0.00750026 -0.442984 0)
(0.00592313 -0.434717 0)
(0.00343599 -0.441723 0)
(0.00207785 -0.435059 0)
(0.000184597 -0.439656 0)
(0.0257024 -0.484134 0)
(0.0186825 -0.516578 0)
(0.0160483 -0.496947 0)
(0.0112263 -0.518865 0)
(0.00953276 -0.50569 0)
(0.00625823 -0.520103 0)
(0.00521722 -0.510363 0)
(0.00292307 -0.518743 0)
(0.00189613 -0.510806 0)
(9.90302e-05 -0.516978 0)
(0.0201189 -0.578631 0)
(0.0148641 -0.608484 0)
(0.0127123 -0.591097 0)
(0.00885903 -0.612254 0)
(0.00752664 -0.599636 0)
(0.00480862 -0.614308 0)
(0.00400941 -0.60439 0)
(0.00193407 -0.613534 0)
(0.00126568 -0.605274 0)
(-0.000117135 -0.612632 0)
(0.0162104 -0.684203 0)
(0.0114067 -0.70698 0)
(0.00936193 -0.695779 0)
(0.00604556 -0.712354 0)
(0.00507192 -0.703493 0)
(0.00283265 -0.715538 0)
(0.0022049 -0.707752 0)
(0.000471738 -0.715591 0)
(0.000274384 -0.708804 0)
(-0.000359825 -0.715754 0)
(0.00900979 -0.775241 0)
(0.00586566 -0.786911 0)
(0.00479782 -0.78464 0)
(0.0030723 -0.794379 0)
(0.00254574 -0.791392 0)
(0.00114987 -0.798028 0)
(0.000631358 -0.793973 0)
(-0.000461556 -0.798081 0)
(-0.000381707 -0.794088 0)
(-0.000368426 -0.798235 0)
(0.00152129 -0.823185 0)
(0.00105465 -0.832274 0)
(0.000987485 -0.834291 0)
(0.000860729 -0.839397 0)
(0.000669158 -0.839097 0)
(0.000301 -0.841913 0)
(1.99083e-05 -0.840047 0)
(-0.000295623 -0.841378 0)
(-0.000270164 -0.839275 0)
(-0.000136205 -0.841033 0)
(0.0491378 -0.208248 3.53597e-21)
(0.0444795 -0.25787 -3.47085e-21)
(0.0422815 -0.308502 5.36641e-22)
(0.0376261 -0.363702 0)
(0.0330067 -0.427048 0)
(0.0281149 -0.503522 8.2229e-22)
(0.0227151 -0.595089 -3.88375e-21)
(0.0175976 -0.692591 3.86557e-21)
(0.0110101 -0.777959 1.16206e-21)
(0.00329909 -0.819268 -1.14945e-21)
(0.0489803 -0.216046 -4.14101e-21)
(0.0455043 -0.264773 0)
(0.0434115 -0.314606 3.91231e-21)
(0.0387474 -0.369509 -9.39617e-21)
(0.0341864 -0.432769 6.40128e-21)
(0.0292278 -0.509017 -7.40608e-22)
(0.0238574 -0.599454 1.82557e-21)
(0.0182266 -0.695108 4.05687e-21)
(0.0119038 -0.777517 1.23162e-21)
(0.00409986 -0.818811 1.24299e-21)
(0.0494352 -0.223796 4.96435e-21)
(0.0471049 -0.271707 -4.05282e-21)
(0.0449292 -0.320337 4.01439e-21)
(0.0402067 -0.374529 -5.48297e-21)
(0.0356306 -0.437428 4.03353e-21)
(0.0305498 -0.513242 0)
(0.0250408 -0.602508 -1.83014e-21)
(0.0189667 -0.696573 1.59195e-22)
(0.0125019 -0.776034 -2.15902e-21)
(0.00449815 -0.818617 -2.35686e-21)
(0.0504561 -0.230721 -8.15874e-22)
(0.0491661 -0.278222 0)
(0.0468418 -0.325893 0)
(0.042046 -0.379441 0)
(0.037381 -0.441957 5.03794e-21)
(0.0321105 -0.517255 -3.39298e-21)
(0.0263467 -0.605359 -5.29605e-23)
(0.019839 -0.697606 -2.4301e-21)
(0.0128988 -0.774606 -1.25195e-21)
(0.00459458 -0.817319 -1.36469e-21)
(0.0520946 -0.23677 3.69118e-22)
(0.0516045 -0.28371 -2.66404e-21)
(0.0490834 -0.330623 -2.61836e-21)
(0.0442134 -0.383758 2.61677e-21)
(0.0394017 -0.446035 -1.62266e-21)
(0.0338873 -0.520897 0)
(0.0278167 -0.607958 -2.15036e-21)
(0.0208559 -0.69838 4.97585e-21)
(0.0133052 -0.773299 -2.57437e-21)
(0.00461501 -0.814996 2.6478e-21)
(0.0544277 -0.242059 -7.20432e-21)
(0.0544508 -0.288071 5.12094e-22)
(0.0516524 -0.334187 -4.51727e-22)
(0.0466735 -0.387007 2.77497e-21)
(0.0416529 -0.44915 0)
(0.0358483 -0.523683 0)
(0.0294442 -0.609868 0)
(0.0220204 -0.698694 2.7229e-21)
(0.0138587 -0.771843 0)
(0.00470468 -0.812142 0)
(0.0574929 -0.246507 0)
(0.0577598 -0.291346 3.5731e-21)
(0.0546005 -0.336581 -2.44846e-21)
(0.0494417 -0.389064 -3.49839e-21)
(0.0441357 -0.451079 3.51664e-21)
(0.0379893 -0.525334 2.35327e-21)
(0.0312177 -0.61079 -2.30565e-21)
(0.0233218 -0.698324 -9.77073e-21)
(0.0145828 -0.770024 6.93483e-22)
(0.00489586 -0.809108 -2.51147e-21)
(0.0613074 -0.249936 0)
(0.0615606 -0.29349 -1.12793e-21)
(0.0579744 -0.337834 -7.3567e-22)
(0.0525512 -0.389956 0)
(0.0468794 -0.451812 1.13311e-21)
(0.0403353 -0.525793 -3.41342e-21)
(0.0331506 -0.610627 4.01504e-21)
(0.0247628 -0.697137 1.48556e-21)
(0.0154564 -0.767727 -1.67989e-21)
(0.00517323 -0.805976 3.3167e-21)
(0.0658901 -0.252192 8.61543e-22)
(0.0658652 -0.294417 1.36367e-21)
(0.0617978 -0.337907 -2.50861e-22)
(0.0560244 -0.389688 4.73022e-22)
(0.0499141 -0.451376 1.0475e-21)
(0.0429174 -0.525111 1.86339e-21)
(0.0352636 -0.60944 -7.38022e-22)
(0.0263422 -0.695175 -8.23728e-22)
(0.0164387 -0.764967 1.68544e-21)
(0.00550231 -0.802714 9.40794e-22)
(0.0712635 -0.253155 -2.85723e-22)
(0.0706833 -0.294071 2.87924e-22)
(0.0660832 -0.336737 -3.90485e-22)
(0.0598712 -0.388223 -4.72451e-22)
(0.0532591 -0.449755 6.20078e-22)
(0.0457604 -0.523288 -1.27378e-21)
(0.0375881 -0.607234 1.13939e-21)
(0.0280874 -0.692431 4.20054e-22)
(0.0175339 -0.761722 0)
(0.00588168 -0.799222 -9.4286e-22)
(0.0774494 -0.252735 3.01192e-22)
(0.0760208 -0.292454 -3.03658e-22)
(0.0708394 -0.334298 -4.43637e-22)
(0.0640969 -0.385539 -5.36784e-22)
(0.0569281 -0.446936 -6.60303e-22)
(0.0488769 -0.520361 -6.77066e-23)
(0.0401279 -0.604106 4.08604e-22)
(0.0299884 -0.689031 1.35971e-21)
(0.0187204 -0.758077 0)
(0.00629181 -0.795502 -1.05948e-21)
(0.0844619 -0.250907 0)
(0.0818737 -0.289629 -1.63663e-21)
(0.0760764 -0.330597 3.03978e-21)
(0.0687055 -0.381649 5.37735e-22)
(0.0609297 -0.442901 1.34897e-21)
(0.0522815 -0.516265 2.29282e-21)
(0.0429178 -0.599928 -8.34499e-22)
(0.0320952 -0.68484 -9.28954e-22)
(0.0200467 -0.753931 2.13499e-21)
(0.00676488 -0.791479 1.05697e-21)
(0.0922969 -0.247753 0)
(0.0882338 -0.285685 -1.57722e-21)
(0.0817985 -0.325737 -9.49321e-22)
(0.0736994 -0.376607 0)
(0.0652816 -0.437712 -4.33733e-21)
(0.0559756 -0.511126 1.44705e-21)
(0.045926 -0.594927 1.83372e-21)
(0.034354 -0.680071 6.09187e-21)
(0.0214585 -0.749445 -2.12809e-21)
(0.00725775 -0.787245 4.71427e-21)
(0.100937 -0.243409 0)
(0.0950886 -0.280683 1.59079e-21)
(0.0880114 -0.319774 0)
(0.0790888 -0.370477 5.4427e-21)
(0.0699874 -0.431374 -5.47059e-21)
(0.0599866 -0.504773 -3.6163e-21)
(0.0492363 -0.588777 -1.10081e-22)
(0.0368708 -0.674334 -6.33029e-21)
(0.0230493 -0.744361 -1.05137e-21)
(0.0078407 -0.782647 -5.86384e-21)
(0.110354 -0.238079 9.97819e-21)
(0.102438 -0.274652 -3.88635e-21)
(0.0946792 -0.313024 9.23527e-22)
(0.0848704 -0.363294 -4.86922e-21)
(0.0750817 -0.423999 0)
(0.0642983 -0.497483 -3.82735e-21)
(0.0527561 -0.581967 -4.39123e-22)
(0.0395007 -0.668249 8.6636e-21)
(0.0246688 -0.739068 1.23322e-21)
(0.00840342 -0.777904 -1.23769e-21)
(0.120517 -0.231905 -2.3394e-21)
(0.110244 -0.267683 8.15019e-21)
(0.101832 -0.305247 5.15198e-21)
(0.0911383 -0.354792 -5.14845e-21)
(0.080578 -0.415327 -3.39255e-21)
(0.0689969 -0.488811 0)
(0.0566477 -0.573723 -8.90249e-21)
(0.0424842 -0.660948 4.45598e-21)
(0.0265631 -0.732985 4.89831e-21)
(0.00911643 -0.772681 5.40792e-21)
(0.131338 -0.225365 -1.43114e-21)
(0.118572 -0.259799 0)
(0.109439 -0.296697 0)
(0.0977712 -0.34579 0)
(0.0863578 -0.406283 -4.10242e-21)
(0.0739 -0.480019 7.48158e-21)
(0.0606212 -0.565641 9.12753e-21)
(0.0454295 -0.653948 -1.46286e-20)
(0.0283562 -0.727044 2.70035e-21)
(0.00970813 -0.767473 -8.03132e-21)
(0.142799 -0.218076 -1.15865e-21)
(0.127564 -0.25027 9.29372e-21)
(0.117481 -0.286965 -9.20487e-21)
(0.104926 -0.335305 1.36825e-20)
(0.0926861 -0.395344 -1.73089e-20)
(0.0794035 -0.46893 0)
(0.0652372 -0.55506 -4.83018e-21)
(0.0490149 -0.644802 -2.57525e-22)
(0.03066 -0.719803 -5.67053e-21)
(0.0106028 -0.761502 -5.84554e-21)
(0.154333 -0.211887 -1.5126e-21)
(0.13679 -0.241754 0)
(0.125435 -0.278699 -1.35347e-20)
(0.112043 -0.326492 2.6391e-20)
(0.0988848 -0.386471 -1.04263e-20)
(0.0846626 -0.460333 -2.24139e-21)
(0.0694671 -0.547123 4.81999e-21)
(0.0521142 -0.637759 -3.3923e-22)
(0.0325155 -0.71359 8.21501e-21)
(0.0111275 -0.755927 8.64852e-21)
(0.167435 -0.201165 -7.41669e-21)
(0.148071 -0.228613 7.25683e-21)
(0.134959 -0.265508 1.38031e-21)
(0.120747 -0.312317 0)
(0.106631 -0.371664 0)
(0.0914921 -0.445357 2.16059e-21)
(0.0752708 -0.533074 1.03009e-20)
(0.0566778 -0.626088 -1.00116e-20)
(0.0354919 -0.704884 -2.84227e-21)
(0.0123547 -0.748947 2.78654e-21)
(0.179651 -0.205915 0)
(0.171655 -0.224938 0)
(0.152498 -0.262595 0)
(0.136335 -0.307689 0)
(0.12025 -0.365464 0)
(0.103084 -0.437404 0)
(0.08462 -0.522965 0)
(0.063502 -0.613667 0)
(0.0394909 -0.690908 0)
(0.0129362 -0.735068 0)
(0.20665 -0.184572 0)
(0.212229 -0.20866 0)
(0.182068 -0.25043 0)
(0.166883 -0.29444 0)
(0.147471 -0.352439 0)
(0.127229 -0.423176 0)
(0.105091 -0.505969 0)
(0.0794398 -0.592096 0)
(0.0500561 -0.663828 0)
(0.0181477 -0.70274 0)
(0.242327 -0.160995 0)
(0.25209 -0.184207 0)
(0.212217 -0.226416 0)
(0.201633 -0.269397 0)
(0.177431 -0.327699 0)
(0.154058 -0.396272 0)
(0.127244 -0.475955 0)
(0.0958788 -0.558436 0)
(0.0596643 -0.627768 0)
(0.0192195 -0.667928 0)
(0.285774 -0.142139 0)
(0.296764 -0.164327 0)
(0.251915 -0.208744 0)
(0.246529 -0.251036 0)
(0.21518 -0.308699 0)
(0.18936 -0.373971 0)
(0.156955 -0.449525 0)
(0.118865 -0.525315 0)
(0.0748479 -0.586862 0)
(0.0273212 -0.619001 0)
(0.339094 -0.119888 0)
(0.34966 -0.142633 0)
(0.301017 -0.184838 0)
(0.297275 -0.221987 0)
(0.256393 -0.27584 0)
(0.228044 -0.335792 0)
(0.18726 -0.405594 0)
(0.140913 -0.475219 0)
(0.087259 -0.533548 0)
(0.0272216 -0.568484 0)
(0.406693 -0.106812 0)
(0.41448 -0.128916 0)
(0.363874 -0.16691 0)
(0.360561 -0.200525 0)
(0.309923 -0.252102 0)
(0.279829 -0.306123 0)
(0.228628 -0.368892 0)
(0.17268 -0.42852 0)
(0.108094 -0.475859 0)
(0.0405765 -0.497695 0)
(0.485224 -0.0822438 0)
(0.487623 -0.101593 0)
(0.437127 -0.133381 0)
(0.428183 -0.162296 0)
(0.366153 -0.206961 0)
(0.332947 -0.250582 0)
(0.263786 -0.302293 0)
(0.196652 -0.351369 0)
(0.118832 -0.396444 0)
(0.0336684 -0.427156 0)
(0.584637 -0.0720942 0)
(0.578647 -0.0879484 0)
(0.529686 -0.1136 0)
(0.508533 -0.137215 0)
(0.44134 -0.172989 0)
(0.400087 -0.205418 0)
(0.313215 -0.246641 0)
(0.23947 -0.285642 0)
(0.14825 -0.321149 0)
(0.062647 -0.329206 0)
(0.672101 -0.0379765 0)
(0.6542 -0.0460411 0)
(0.599879 -0.0620537 0)
(0.564139 -0.0756743 0)
(0.490261 -0.0969605 0)
(0.432529 -0.114333 0)
(0.32908 -0.140591 0)
(0.243463 -0.163652 0)
(0.124979 -0.193797 0)
(0.00874252 -0.237957 0)
(0.854658 -0.0191499 0)
(0.830162 -0.0231301 0)
(0.784653 -0.0297546 0)
(0.741912 -0.036138 0)
(0.675471 -0.0451473 0)
(0.607188 -0.0541448 0)
(0.508423 -0.0678139 0)
(0.405364 -0.0833242 0)
(0.267596 -0.111346 0)
(0.172831 -0.164356 0)
(0.215944 -0.183533 6.4154e-21)
(0.247883 -0.160639 -6.3231e-21)
(0.284289 -0.137307 1.34322e-21)
(0.325216 -0.119551 0)
(0.376437 -0.099787 0)
(0.440922 -0.0884383 2.50853e-21)
(0.517475 -0.06708 -1.25236e-20)
(0.611245 -0.0591567 1.24469e-20)
(0.698896 -0.0297497 3.74296e-21)
(0.873889 -0.0160211 -3.75484e-21)
(0.226473 -0.174389 -4.05014e-21)
(0.257875 -0.150985 0)
(0.29414 -0.127959 9.92903e-21)
(0.334837 -0.11066 -2.4942e-20)
(0.385972 -0.0918684 1.75428e-20)
(0.450201 -0.0812333 -2.28492e-21)
(0.526645 -0.0610837 5.10157e-21)
(0.619145 -0.0539239 1.18332e-20)
(0.70751 -0.0263958 3.45514e-21)
(0.88015 -0.0146998 3.33742e-21)
(0.235639 -0.163998 4.42692e-21)
(0.265492 -0.140905 -8.13636e-21)
(0.300848 -0.118586 8.05983e-21)
(0.341127 -0.101861 -1.37503e-20)
(0.392137 -0.0840847 9.86728e-21)
(0.456379 -0.0742193 0)
(0.532772 -0.0553162 -5.11419e-21)
(0.624644 -0.0489678 -9.48707e-23)
(0.714206 -0.023293 -6.28626e-21)
(0.885098 -0.0134454 -6.64386e-21)
(0.245481 -0.152892 -8.71261e-22)
(0.274898 -0.130525 0)
(0.309218 -0.109118 0)
(0.348738 -0.0930562 0)
(0.399263 -0.076359 1.1721e-20)
(0.463233 -0.0673232 -8.05345e-21)
(0.539298 -0.0497271 -4.04315e-22)
(0.630438 -0.044263 -6.01089e-21)
(0.720939 -0.0204335 -3.16707e-21)
(0.890095 -0.0122637 -3.24059e-21)
(0.254728 -0.14146 2.78092e-21)
(0.284736 -0.12008 -2.9736e-21)
(0.317922 -0.0996232 -5.07806e-21)
(0.356921 -0.0842936 5.07519e-21)
(0.406973 -0.0687142 -3.61565e-21)
(0.47068 -0.0605534 0)
(0.5464 -0.0442978 -4.9709e-21)
(0.636775 -0.0397585 1.14465e-20)
(0.727948 -0.0177644 -5.80126e-21)
(0.895276 -0.0111436 6.47011e-21)
(0.262885 -0.12977 -5.07793e-21)
(0.293693 -0.109608 -8.83611e-22)
(0.325683 -0.0901435 -1.40923e-21)
(0.364276 -0.0756917 4.86469e-21)
(0.413965 -0.0612251 0)
(0.47758 -0.0539773 0)
(0.55313 -0.0390688 0)
(0.642903 -0.0354546 5.36688e-21)
(0.734696 -0.0152567 0)
(0.900246 -0.0100787 0)
(0.26991 -0.11774 0)
(0.301382 -0.0990516 4.43029e-21)
(0.33255 -0.080651 -3.23846e-21)
(0.370436 -0.0672151 -6.02052e-21)
(0.41969 -0.0539017 6.05202e-21)
(0.483285 -0.0476211 4.34319e-21)
(0.558809 -0.0340625 -4.00758e-21)
(0.648187 -0.0313659 -1.84101e-20)
(0.740679 -0.0129068 1.2952e-21)
(0.904619 -0.00907029 -4.54531e-21)
(0.275667 -0.105301 0)
(0.307878 -0.0883709 -1.19866e-21)
(0.338506 -0.0711155 -9.19807e-22)
(0.375558 -0.0587683 0)
(0.424172 -0.0466894 1.98005e-21)
(0.487719 -0.0414502 -5.58095e-21)
(0.563262 -0.029251 7.06115e-21)
(0.652351 -0.0274797 2.81707e-21)
(0.745618 -0.0107018 -2.79846e-21)
(0.908215 -0.00811262 6.07033e-21)
(0.279947 -0.0924083 -6.66591e-23)