/*--------------------------------*- C++ -*----------------------------------*\
  =========                 |
  \\      /  F ield         | OpenFOAM: The Open Source CFD Toolbox
   \\    /   O peration     | Website:  https://openfoam.org
    \\  /    A nd           | Version:  7
     \\/     M anipulation  |
\*---------------------------------------------------------------------------*/
FoamFile
{
    version     2.0;
    format      ascii;
    class       volScalarField;
    location    "0.225";
    object      p;
}
// * * * * * * * * * * * * * * * * * * * * * * * * * * * * * * * * * * * * * //

dimensions      [0 2 -2 0 0 0 0];

internalField   nonuniform List<scalar> 
400
(
6.55784e-06
-0.00589562
-0.0130451
-0.0184895
-0.0205115
-0.0183192
-0.011849
-0.00154741
0.0117894
0.0271197
0.0432346
0.0588323
0.0726044
0.0833464
0.090097
0.0923104
0.0900665
0.0842945
0.0769027
0.0710303
0.005832
-0.000239016
-0.00577246
-0.00948484
-0.0105326
-0.0083655
-0.00290999
0.00551896
0.0163265
0.0287102
0.0417216
0.054332
0.06551
0.0743171
0.0800191
0.0822153
0.0809866
0.076992
0.0712619
0.0652463
0.0133987
0.00496673
-0.00100631
-0.00442253
-0.00527505
-0.00326685
0.00159831
0.00902104
0.0184919
0.0293348
0.0407463
0.0518459
0.0617408
0.0696057
0.0747749
0.0768453
0.0758069
0.0720635
0.0658382
0.0574416
0.0202089
0.00859715
0.00120682
-0.00267433
-0.00373338
-0.00189779
0.00271857
0.0097711
0.0187658
0.0290791
0.0399745
0.0506348
0.060212
0.0678937
0.0729805
0.0749777
0.0737371
0.0694416
0.0616688
0.050004
0.0245951
0.00964981
0.000574176
-0.00398421
-0.00530617
-0.00351278
0.00116852
0.00832639
0.0174512
0.0279352
0.0390676
0.0500488
0.0600241
0.0681373
0.0735972
0.0757668
0.0743317
0.0692724
0.0596192
0.0444157
0.0253002
0.00700204
-0.00381503
-0.00904762
-0.0105112
-0.00850103
-0.00335897
0.00442473
0.0143053
0.0256671
0.0377976
0.0498825
0.0610225
0.0702733
0.0767023
0.0794814
0.0780943
0.0723139
0.0606626
0.0417384
0.0212486
-0.000434543
-0.0129433
-0.0186914
-0.020023
-0.01741
-0.0113159
-0.00232031
0.00898588
0.0219672
0.0358957
0.0499249
0.0630867
0.0743142
0.0824866
0.0865289
0.085667
0.0794232
0.0657753
0.042884
0.0113366
-0.0138136
-0.0278762
-0.0338246
-0.0345882
-0.0308464
-0.0232039
-0.0123401
0.00110529
0.0164791
0.0330418
0.0499162
0.0660584
0.0802573
0.0911616
0.0973822
0.0978035
0.0916037
0.0760843
0.0488829
-0.00572513
-0.0344843
-0.0498591
-0.0555033
-0.0550636
-0.0494943
-0.0395765
-0.0261011
-0.00975033
0.00882375
0.0288949
0.0495794
0.069774
0.0881208
0.103004
0.112644
0.115466
0.110145
0.0930568
0.0611161
-0.0315518
-0.0641153
-0.080388
-0.0849414
-0.0823797
-0.0740473
-0.0609548
-0.0440164
-0.0239374
-0.00132934
0.0231456
0.0486519
0.0740752
0.0979385
0.118348
0.133057
0.13988
0.136749
0.118697
0.0815518
-0.0682749
-0.104862
-0.12129
-0.123498
-0.117459
-0.105084
-0.0876827
-0.0662971
-0.0416152
-0.0141404
0.0156132
0.0469512
0.0788408
0.109762
0.137573
0.159505
0.172588
0.173674
0.155807
0.113063
-0.118886
-0.159629
-0.174824
-0.172635
-0.161075
-0.142875
-0.119715
-0.0927415
-0.0625486
-0.0294247
0.00638953
0.0444807
0.0840489
0.123678
0.161087
0.192995
0.215493
0.223925
0.208355
0.159942
-0.187938
-0.232515
-0.243802
-0.233794
-0.213608
-0.187094
-0.156324
-0.122461
-0.0858641
-0.0464424
-0.00398893
0.0415574
0.0898486
0.139816
0.189277
0.234593
0.270865
0.29145
0.282035
0.228822
-0.283056
-0.329534
-0.331635
-0.308104
-0.27462
-0.236381
-0.195719
-0.153572
-0.109805
-0.063711
-0.0144038
0.0388954
0.096579
0.158285
0.222353
0.285205
0.341169
0.381284
0.385115
0.330529
-0.418179
-0.45974
-0.442066
-0.395621
-0.342066
-0.287703
-0.234587
-0.182904
-0.131581
-0.0789507
-0.0231726
0.0375234
0.104604
0.178882
0.259885
0.344936
0.42841
0.499313
0.529623
0.48372
-0.619418
-0.636574
-0.578326
-0.494076
-0.411221
-0.335649
-0.267771
-0.205963
-0.147517
-0.08935
-0.0283794
0.0384105
0.113882
0.200555
0.300054
0.412066
0.532939
0.651428
0.732447
0.720599
-0.935592
-0.878173
-0.741676
-0.59805
-0.474384
-0.37262
-0.288838
-0.217733
-0.153919
-0.0924221
-0.0286697
0.0417585
0.123341
0.220807
0.339007
0.482248
0.65227
0.841654
1.01496
1.09628
-1.48059
-1.20195
-0.920994
-0.692541
-0.517671
-0.387696
-0.290188
-0.213419
-0.148155
-0.0872028
-0.0245212
0.0455657
0.129108
0.233304
0.367367
0.543127
0.772635
1.06029
1.39819
1.73407
-2.57157
-1.60192
-1.04346
-0.714823
-0.497793
-0.353381
-0.255523
-0.184277
-0.126589
-0.0737772
-0.019203
0.0430716
0.119769
0.219658
0.35601
0.549827
0.829818
1.23508
1.88111
2.95926
-4.4451
-2.01726
-0.969791
-0.564334
-0.35704
-0.239029
-0.169351
-0.123291
-0.0871785
-0.0533629
-0.0166706
0.0275206
0.0843054
0.1612
0.271584
0.441368
0.71881
1.22151
2.38403
4.9294
)
;

boundaryField
{
    movingWall
    {
        type            zeroGradient;
    }
    fixedWalls
    {
        type            zeroGradient;
    }
    frontAndBack
    {
        type            empty;
    }
}


// ************************************************************************* //
