/*--------------------------------*- C++ -*----------------------------------*\
  =========                 |
  \\      /  F ield         | OpenFOAM: The Open Source CFD Toolbox
   \\    /   O peration     | Website:  https://openfoam.org
    \\  /    A nd           | Version:  7
     \\/     M anipulation  |
\*---------------------------------------------------------------------------*/
FoamFile
{
    version     2.0;
    format      ascii;
    class       volVectorField;
    location    "0.225";
    object      U;
}
// * * * * * * * * * * * * * * * * * * * * * * * * * * * * * * * * * * * * * //

dimensions      [0 1 -1 0 0 0 0];

internalField   nonuniform List<vector> 
400
(
(0.000259557 -0.00025455 0)
(0.000149124 0.000104027 0)
(-0.00117536 0.000550965 0)
(-0.00348056 0.000867949 0)
(-0.00637558 0.00102695 0)
(-0.00946679 0.00104286 0)
(-0.0123998 0.000940653 0)
(-0.0148814 0.000746616 0)
(-0.0166857 0.000485517 0)
(-0.0176543 0.000180986 0)
(-0.0176981 -0.000142937 0)
(-0.0168011 -0.000460324 0)
(-0.0150264 -0.000742407 0)
(-0.0125217 -0.000957583 0)
(-0.00952352 -0.00107258 0)
(-0.00635303 -0.00105539 0)
(-0.00340006 -0.000881226 0)
(-0.00108406 -0.000543139 0)
(0.000204128 -8.43032e-05 0)
(0.000273114 0.000265697 0)
(-6.731e-05 -0.000174948 0)
(-0.00160167 0.00163813 0)
(-0.00569444 0.00360218 0)
(-0.011719 0.00501534 0)
(-0.0188878 0.00572194 0)
(-0.0263917 0.00573892 0)
(-0.0334558 0.00515234 0)
(-0.0394098 0.00407698 0)
(-0.0437242 0.00263735 0)
(-0.0460257 0.000962832 0)
(-0.0461078 -0.000810716 0)
(-0.0439407 -0.00253814 0)
(-0.039683 -0.00406407 0)
(-0.0336881 -0.00522628 0)
(-0.0265033 -0.0058654 0)
(-0.0188495 -0.00584347 0)
(-0.0115667 -0.00507517 0)
(-0.00551476 -0.0035746 0)
(-0.00148429 -0.00155399 0)
(-3.35542e-05 0.000232508 0)
(-0.000511953 0.00108953 0)
(-0.00369344 0.00573881 0)
(-0.010587 0.010222 0)
(-0.0199875 0.0134024 0)
(-0.0307554 0.0149403 0)
(-0.0418081 0.014833 0)
(-0.0521013 0.0132504 0)
(-0.0607217 0.0104519 0)
(-0.066944 0.00673903 0)
(-0.0702555 0.00243746 0)
(-0.070373 -0.00210624 0)
(-0.0672576 -0.00652337 0)
(-0.061128 -0.0104254 0)
(-0.0524678 -0.0134157 0)
(-0.0420211 -0.0151171 0)
(-0.0307631 -0.0152189 0)
(-0.0198241 -0.0135499 0)
(-0.0103613 -0.010176 0)
(-0.00353107 -0.00555388 0)
(-0.000460753 -0.000946499 0)
(-0.000905817 0.00347737 0)
(-0.00566704 0.0122228 0)
(-0.0152978 0.0199173 0)
(-0.0279092 0.0251889 0)
(-0.0419714 0.0275864 0)
(-0.0561601 0.0271268 0)
(-0.0692286 0.0240992 0)
(-0.0800982 0.018946 0)
(-0.0879176 0.01219 0)
(-0.0920862 0.00440242 0)
(-0.0922701 -0.00380748 0)
(-0.0884176 -0.0117928 0)
(-0.0807745 -0.0188752 0)
(-0.0698961 -0.0243665 0)
(-0.0566471 -0.027616 0)
(-0.0421783 -0.0280896 0)
(-0.0278473 -0.0254871 0)
(-0.0150888 -0.0198864 0)
(-0.0054806 -0.0119299 0)
(-0.000839431 -0.00322241 0)
(-0.00125025 0.00687303 0)
(-0.00750499 0.0209525 0)
(-0.0197997 0.0325012 0)
(-0.0355245 0.040088 0)
(-0.0527252 0.0432728 0)
(-0.0698347 0.0421754 0)
(-0.0854345 0.0372618 0)
(-0.0983273 0.0292002 0)
(-0.107583 0.0187682 0)
(-0.112549 0.00680928 0)
(-0.112857 -0.0057798 0)
(-0.108435 -0.0180489 0)
(-0.0995246 -0.0290004 0)
(-0.0867052 -0.0376172 0)
(-0.0709067 -0.0429262 0)
(-0.0534077 -0.0441089 0)
(-0.0357713 -0.0406608 0)
(-0.0197284 -0.0325815 0)
(-0.00733869 -0.0205892 0)
(-0.00117464 -0.00649311 0)
(-0.00157187 0.0112087 0)
(-0.00927948 0.0318694 0)
(-0.0242027 0.047937 0)
(-0.0429893 0.0580502 0)
(-0.0632341 0.061913 0)
(-0.0831235 0.0598575 0)
(-0.101089 0.0526071 0)
(-0.115853 0.0411085 0)
(-0.126445 0.0264248 0)
(-0.132191 0.00968653 0)
(-0.132702 -0.00791616 0)
(-0.127875 -0.025125 0)
(-0.11792 -0.0406109 0)
(-0.103391 -0.0529988 0)
(-0.0852316 -0.0609407 0)
(-0.0648056 -0.0632521 0)
(-0.0438671 -0.0591157 0)
(-0.0244683 -0.0483261 0)
(-0.0092133 -0.0315513 0)
(-0.00150062 -0.0107206 0)
(-0.00189676 0.0164675 0)
(-0.0110742 0.0449639 0)
(-0.0286417 0.0662113 0)
(-0.0504628 0.0790297 0)
(-0.0736566 0.0834145 0)
(-0.0961683 0.0800436 0)
(-0.11631 0.0699973 0)
(-0.132768 0.0545628 0)
(-0.144581 0.0351159 0)
(-0.151088 0.013076 0)
(-0.151894 -0.0100873 0)
(-0.14686 -0.0328248 0)
(-0.136126 -0.0534829 0)
(-0.120171 -0.0703114 0)
(-0.0998857 -0.0815326 0)
(-0.0766626 -0.0854956 0)
(-0.0524154 -0.0809271 0)
(-0.0295316 -0.0672492 0)
(-0.0112315 -0.0449267 0)
(-0.00185344 -0.0159399 0)
(-0.00224821 0.0226818 0)
(-0.0129683 0.060284 0)
(-0.0332394 0.0873328 0)
(-0.0580583 0.102957 0)
(-0.0840403 0.107625 0)
(-0.108912 0.102524 0)
(-0.13092 0.0892111 0)
(-0.148783 0.0693841 0)
(-0.161611 0.0447521 0)
(-0.168809 0.0170085 0)
(-0.170002 -0.0121359 0)
(-0.165008 -0.0408856 0)
(-0.153867 -0.0672958 0)
(-0.136908 -0.0892435 0)
(-0.114885 -0.104472 0)
(-0.0891267 -0.110749 0)
(-0.0616378 -0.106163 0)
(-0.0351296 -0.0895394 0)
(-0.01352 -0.0609278 0)
(-0.00226827 -0.0222606 0)
(-0.00264989 0.0299289 0)
(-0.0150397 0.0779315 0)
(-0.0380996 0.111315 0)
(-0.0658218 0.1297 0)
(-0.0942863 0.134268 0)
(-0.121052 0.126929 0)
(-0.144392 0.109864 0)
(-0.163158 0.0852507 0)
(-0.176629 0.0551441 0)
(-0.184345 0.0214725 0)
(-0.185993 -0.0138795 0)
(-0.181354 -0.0489504 0)
(-0.170325 -0.0815747 0)
(-0.153011 -0.109291 0)
(-0.129903 -0.129335 0)
(-0.102125 -0.13877 0)
(-0.0716465 -0.134824 0)
(-0.0414408 -0.115414 0)
(-0.0162048 -0.0798615 0)
(-0.00278249 -0.0298648 0)
(-0.00313392 0.0383346 0)
(-0.0173836 0.0980541 0)
(-0.0433211 0.138136 0)
(-0.073724 0.158985 0)
(-0.104113 0.162844 0)
(-0.13198 0.152623 0)
(-0.155772 0.131299 0)
(-0.174623 0.101606 0)
(-0.188111 0.0659318 0)
(-0.196008 0.0263721 0)
(-0.198123 -0.0151208 0)
(-0.194216 -0.0565424 0)
(-0.18401 -0.0956255 0)
(-0.167291 -0.129656 0)
(-0.144139 -0.155373 0)
(-0.115266 -0.16903 0)
(-0.0823912 -0.166724 0)
(-0.0486004 -0.14505 0)
(-0.0194232 -0.10211 0)
(-0.00344361 -0.0390113 0)
(-0.00375551 0.0480942 0)
(-0.0201459 0.120845 0)
(-0.0490204 0.167685 0)
(-0.0816469 0.190296 0)
(-0.113001 0.192494 0)
(-0.140692 0.178562 0)
(-0.163569 0.152469 0)
(-0.181257 0.117558 0)
(-0.193795 0.0765078 0)
(-0.201308 0.0314742 0)
(-0.203801 -0.0156711 0)
(-0.201048 -0.0630528 0)
(-0.19258 -0.10848 0)
(-0.177781 -0.149142 0)
(-0.156141 -0.181365 0)
(-0.127696 -0.200533 0)
(-0.0935773 -0.201331 0)
(-0.0566857 -0.178478 0)
(-0.0233465 -0.128101 0)
(-0.00432354 -0.0500529 0)
(-0.00461949 0.0595243 0)
(-0.0235736 0.146552 0)
(-0.0553497 0.199674 0)
(-0.0893297 0.222712 0)
(-0.120065 0.221827 0)
(-0.145622 0.203137 0)
(-0.165582 0.1718 0)
(-0.180328 0.131778 0)
(-0.190542 0.0859435 0)
(-0.196824 0.0363546 0)
(-0.19946 -0.0153875 0)
(-0.198288 -0.0677526 0)
(-0.19266 -0.118865 0)
(-0.181505 -0.166059 0)
(-0.163563 -0.205444 0)
(-0.137877 -0.231587 0)
(-0.104519 -0.23752 0)
(-0.0656747 -0.215405 0)
(-0.0282126 -0.158266 0)
(-0.00554433 -0.0634801 0)
(-0.00592837 0.0731679 0)
(-0.0280851 0.175475 0)
(-0.06247 0.233471 0)
(-0.0962048 0.254663 0)
(-0.123798 0.24867 0)
(-0.144349 0.223982 0)
(-0.158633 0.187075 0)
(-0.168079 0.142436 0)
(-0.17418 0.0929458 0)
(-0.1781 0.0403569 0)
(-0.180465 -0.0142198 0)
(-0.181239 -0.0698393 0)
(-0.179658 -0.125221 0)
(-0.174218 -0.178175 0)
(-0.162825 -0.224942 0)
(-0.143231 -0.259521 0)
(-0.113858 -0.273218 0)
(-0.0753287 -0.254921 0)
(-0.0343635 -0.19295 0)
(-0.00732393 -0.0800093 0)
(-0.008063 0.0899797 0)
(-0.0343392 0.207899 0)
(-0.0703762 0.267762 0)
(-0.100971 0.283522 0)
(-0.121522 0.26976 0)
(-0.133073 0.23781 0)
(-0.138144 0.195384 0)
(-0.139456 0.147217 0)
(-0.13937 0.0958922 0)
(-0.139603 0.042599 0)
(-0.141118 -0.0122574 0)
(-0.144059 -0.0685336 0)
(-0.147663 -0.125818 0)
(-0.150149 -0.182782 0)
(-0.148679 -0.236313 0)
(-0.13958 -0.280396 0)
(-0.119029 -0.304918 0)
(-0.0848843 -0.294987 0)
(-0.0422486 -0.232189 0)
(-0.0100466 -0.100729 0)
(-0.0116763 0.111597 0)
(-0.0431733 0.243798 0)
(-0.0782869 0.299887 0)
(-0.100589 0.305013 0)
(-0.10832 0.280425 0)
(-0.105722 0.240369 0)
(-0.0975389 0.193276 0)
(-0.0877941 0.143544 0)
(-0.0795343 0.0930264 0)
(-0.0748252 0.0420779 0)
(-0.0748456 -0.00975413 0)
(-0.079932 -0.0632434 0)
(-0.0894981 -0.119025 0)
(-0.101813 -0.176986 0)
(-0.113693 -0.235294 0)
(-0.12029 -0.288852 0)
(-0.115243 -0.3271 0)
(-0.0922702 -0.331602 0)
(-0.052212 -0.275166 0)
(-0.0143124 -0.12727 0)
(-0.0176161 0.140746 0)
(-0.0548918 0.281884 0)
(-0.0828526 0.324523 0)
(-0.0880801 0.312408 0)
(-0.0751211 0.274442 0)
(-0.052625 0.226775 0)
(-0.0275069 0.177299 0)
(-0.00457361 0.129142 0)
(0.0130312 0.0829115 0)
(0.0233656 0.0379349 0)
(0.0253195 -0.00709679 0)
(0.0184256 -0.0537923 0)
(0.00289783 -0.103792 0)
(-0.0200763 -0.158359 0)
(-0.0477604 -0.217524 0)
(-0.075052 -0.278348 0)
(-0.0936163 -0.331709 0)
(-0.0922018 -0.357445 0)
(-0.0634697 -0.318952 0)
(-0.0207144 -0.162055 0)
(-0.0260056 0.182265 0)
(-0.0664804 0.317044 0)
(-0.0735121 0.330975 0)
(-0.0481272 0.295356 0)
(-0.00566032 0.244243 0)
(0.0411266 0.19242 0)
(0.0845595 0.145085 0)
(0.120439 0.102999 0)
(0.1466 0.0651507 0)
(0.161941 0.0298885 0)
(0.16583 -0.00469056 0)
(0.157817 -0.0406624 0)
(0.137606 -0.0802925 0)
(0.105307 -0.125968 0)
(0.0621143 -0.179765 0)
(0.0116373 -0.242025 0)
(-0.0380013 -0.307778 0)
(-0.071997 -0.359669 0)
(-0.0709818 -0.355768 0)
(-0.0285828 -0.209057 0)
(-0.0317428 0.241377 0)
(-0.0630317 0.333928 0)
(-0.0219628 0.299651 0)
(0.0505838 0.24005 0)
(0.127424 0.183001 0)
(0.196848 0.135439 0)
(0.254193 0.0974409 0)
(0.298113 0.0668814 0)
(0.328689 0.0413716 0)
(0.346331 0.0187807 0)
(0.351236 -0.00280685 0)
(0.343153 -0.0252896 0)
(0.321306 -0.0508219 0)
(0.284465 -0.0820851 0)
(0.231366 -0.12247 0)
(0.161957 -0.175653 0)
(0.0798387 -0.243232 0)
(-0.00334061 -0.318156 0)
(-0.0573588 -0.366745 0)
(-0.0309145 -0.270214 0)
(0.00230795 0.286369 0)
(0.0143153 0.294061 0)
(0.139843 0.210078 0)
(0.264889 0.143066 0)
(0.364214 0.096872 0)
(0.440162 0.0655059 0)
(0.496575 0.0440278 0)
(0.536721 0.0287381 0)
(0.563303 0.0171038 0)
(0.578165 0.0074355 0)
(0.582238 -0.0014996 0)
(0.575545 -0.0108073 0)
(0.557142 -0.021757 0)
(0.52495 -0.0361776 0)
(0.475562 -0.0570188 0)
(0.404364 -0.0890483 0)
(0.305605 -0.139244 0)
(0.174284 -0.21545 0)
(0.0352058 -0.310938 0)
(0.0120834 -0.304779 0)
(0.293148 0.148893 0)
(0.389648 0.127925 0)
(0.557568 0.0758012 0)
(0.674741 0.0433821 0)
(0.743792 0.0252388 0)
(0.787088 0.0149517 0)
(0.815465 0.008987 0)
(0.83394 0.00534993 0)
(0.845367 0.00292525 0)
(0.851351 0.00109787 0)
(0.852643 -0.000502016 0)
(0.849357 -0.00217155 0)
(0.840976 -0.00424129 0)
(0.826116 -0.00726104 0)
(0.802029 -0.0122938 0)
(0.763557 -0.021461 0)
(0.699431 -0.0389173 0)
(0.58444 -0.0723433 0)
(0.409338 -0.128341 0)
(0.302176 -0.152205 0)
)
;

boundaryField
{
    movingWall
    {
        type            fixedValue;
        value           uniform (1 0 0);
    }
    fixedWalls
    {
        type            noSlip;
    }
    frontAndBack
    {
        type            empty;
    }
}


// ************************************************************************* //
