# Probe 0 (3 0 0)
#       Probe             0
#        Time
         0.05       49.0539
          0.1      -4.22388
         0.15       2.42797
          0.2      0.762067
         0.25      0.929859
          0.3      0.853266
         0.35      0.783252
          0.4       0.85915
         0.45      0.690364
          0.5      0.849107
         0.55      0.724987
          0.6      0.772663
         0.65      0.708721
          0.7      0.745291
         0.75      0.705922
          0.8      0.705611
         0.85      0.689669
          0.9      0.684993
         0.95       0.67386
            1      0.669373
         1.05      0.657795
          1.1      0.655362
         1.15      0.645239
          1.2      0.638443
         1.25      0.631733
          1.3      0.625128
         1.35      0.618992
          1.4      0.612527
         1.45      0.606905
          1.5      0.600972
         1.55      0.595367
          1.6      0.589915
         1.65      0.584428
          1.7      0.579041
         1.75      0.573808
          1.8      0.568559
         1.85      0.563657
          1.9      0.558513
         1.95      0.553932
            2      0.548805
         2.05      0.544588
          2.1      0.539361
         2.15      0.535635
          2.2      0.530171
         2.25      0.527031
          2.3      0.521237
         2.35      0.518708
          2.4      0.513946
         2.45      0.509239
          2.5      0.505563
         2.55      0.501033
          2.6      0.497532
         2.65      0.493023
          2.7      0.489676
         2.75      0.485255
          2.8      0.482132
         2.85       0.47762
          2.9      0.474683
         2.95      0.470218
            3      0.467411
         3.05      0.463585
          3.1      0.459704
         3.15      0.456337
          3.2      0.452677
         3.25      0.449359
          3.3      0.445806
         3.35       0.44254
          3.4      0.439038
         3.45       0.43587
          3.5      0.432396
         3.55      0.429396
          3.6      0.425923
         3.65      0.422972
          3.7      0.419523
         3.75      0.416684
          3.8      0.413262
         3.85      0.410501
          3.9      0.407102
         3.95      0.404432
            4      0.401027
         4.05      0.398409
          4.1      0.395061
         4.15      0.392552
          4.2      0.389165
         4.25      0.386756
          4.3      0.383425
         4.35      0.381152
          4.4      0.377779
         4.45      0.375595
          4.5      0.372223
         4.55      0.370085
          4.6      0.366731
         4.65      0.364692
          4.7      0.361373
         4.75      0.359378
          4.8      0.356559
         4.85      0.353751
          4.9      0.351245
         4.95      0.348595
            5      0.346125
         5.05      0.343522
          5.1      0.341109
         5.15      0.338526
          5.2      0.336175
         5.25      0.333611
          5.3      0.331333
         5.35      0.328798
          5.4      0.326561
         5.45      0.324048
          5.5      0.321879
         5.55       0.31939
          5.6      0.317259
         5.65      0.314804
          5.7      0.312723
         5.75      0.310577
          5.8      0.308425
         5.85       0.30624
          5.9      0.304067
         5.95      0.301919
            6      0.299766
         6.05      0.297641
          6.1      0.295526
         6.15      0.293428
          6.2      0.291351
         6.25      0.289279
          6.3      0.287238
         6.35      0.285188
          6.4      0.283167
         6.45      0.281164
          6.5      0.279169
         6.55      0.277192
          6.6      0.275228
         6.65      0.273281
          6.7      0.271339
         6.75      0.269408
          6.8      0.267574
         6.85      0.265641
          6.9      0.263726
         6.95      0.261858
            7      0.260056
         7.05      0.258226
          7.1      0.256399
         7.15       0.25459
          7.2      0.252726
         7.25      0.250928
          7.3       0.24922
         7.35      0.247471
          7.4      0.245743
         7.45      0.244019
          7.5      0.242255
         7.55      0.240544
          7.6      0.238932
         7.65      0.237243
          7.7      0.235571
         7.75      0.233872
          7.8      0.232248
         7.85      0.230651
          7.9      0.228958
         7.95      0.227352
            8       0.22574
         8.05      0.224166
          8.1      0.222591
         8.15      0.221035
          8.2      0.219466
         8.25      0.217936
          8.3      0.216386
         8.35       0.21487
          8.4      0.213345
         8.45      0.211882
          8.5      0.210359
         8.55      0.208885
          8.6      0.207409
         8.65      0.205941
          8.7       0.20448
         8.75      0.203028
          8.8      0.201579
         8.85      0.200141
          8.9      0.198726
         8.95      0.197285
            9      0.195869
         9.05      0.194477
          9.1      0.193087
         9.15      0.191721
          9.2      0.190335
         9.25      0.188982
          9.3      0.187622
         9.35      0.186262
          9.4      0.184896
         9.45      0.183544
          9.5        0.1822
         9.55       0.18086
          9.6      0.179536
         9.65      0.178206
          9.7      0.176873
         9.75      0.175553
          9.8      0.174246
         9.85      0.172945
          9.9      0.171646
         9.95      0.170353
           10      0.169065
