# Probe 0 (3 0 0)
#       Probe             0
#        Time
         0.05       43.0257
          0.1       3.64923
         0.15       1.26344
          0.2      0.901101
         0.25       0.86421
          0.3      0.837682
         0.35       0.81714
          0.4      0.799758
         0.45      0.784499
          0.5      0.770184
         0.55      0.757941
          0.6      0.746362
         0.65      0.735507
          0.7      0.725523
         0.75      0.716197
          0.8      0.707639
         0.85      0.699618
          0.9      0.691835
         0.95      0.684504
            1      0.677544
         1.05      0.670974
          1.1      0.664396
         1.15      0.658274
          1.2      0.652465
         1.25      0.646651
          1.3      0.640933
         1.35      0.635448
          1.4      0.630197
         1.45       0.62497
          1.5      0.619904
         1.55      0.614771
          1.6      0.609818
         1.65      0.604984
          1.7      0.600199
         1.75      0.595484
          1.8      0.590755
         1.85      0.586193
          1.9      0.581703
         1.95      0.577288
            2      0.572981
         2.05      0.568683
          2.1      0.564356
         2.15      0.560054
          2.2      0.555963
         2.25      0.551807
          2.3      0.547775
         2.35      0.543719
          2.4      0.539706
         2.45       0.53573
          2.5      0.531865
         2.55      0.528049
          2.6      0.524204
         2.65       0.52043
          2.7      0.516957
         2.75      0.512899
          2.8      0.508987
         2.85      0.505754
          2.9      0.502127
         2.95       0.49868
            3      0.494705
         3.05      0.491264
          3.1       0.48819
         3.15      0.484548
          3.2      0.481137
         3.25      0.477739
          3.3      0.474453
         3.35      0.471297
          3.4      0.468009
         3.45      0.464758
          3.5      0.461588
         3.55      0.458429
          3.6      0.455252
         3.65      0.452222
          3.7      0.449238
         3.75      0.446077
          3.8      0.443116
         3.85      0.440242
          3.9      0.437098
         3.95      0.433996
            4      0.430992
         4.05      0.428083
          4.1       0.42554
         4.15      0.422715
          4.2      0.419852
         4.25      0.417004
          4.3      0.414172
         4.35      0.411398
          4.4       0.40867
         4.45      0.405956
          4.5      0.403001
         4.55      0.400196
          4.6      0.397518
         4.65      0.394801
          4.7      0.392081
         4.75      0.389346
          4.8      0.386673
         4.85       0.38404
          4.9      0.381427
         4.95      0.378757
            5      0.376086
         5.05      0.373428
          5.1      0.370776
         5.15      0.368292
          5.2      0.365946
         5.25      0.363144
          5.3      0.360522
         5.35      0.358113
          5.4      0.355552
         5.45      0.353069
          5.5      0.350647
         5.55      0.348163
          5.6      0.345684
         5.65      0.343294
          5.7      0.340888
         5.75      0.338502
          5.8       0.33617
         5.85      0.333852
          5.9      0.331525
         5.95      0.329194
            6      0.326855
         6.05      0.324524
          6.1      0.322248
         6.15      0.320019
          6.2      0.317766
         6.25      0.315562
          6.3      0.313392
         6.35      0.311262
          6.4      0.309049
         6.45      0.306871
          6.5      0.304759
         6.55      0.302615
          6.6       0.30059
         6.65      0.298484
          6.7      0.296422
         6.75      0.294354
          6.8      0.292374
         6.85      0.290308
          6.9      0.288409
         6.95      0.286395
            7       0.28414
         7.05      0.282145
          7.1      0.280141
         7.15      0.278183
          7.2      0.276237
         7.25      0.274321
          7.3      0.272433
         7.35      0.270466
          7.4      0.268599
         7.45       0.26676
          7.5      0.264895
         7.55      0.263075
          7.6      0.261249
         7.65      0.259416
          7.7      0.257635
         7.75      0.255851
          7.8      0.254131
         7.85      0.252366
          7.9      0.250623
         7.95      0.248893
            8      0.247186
         8.05      0.245461
          8.1      0.243704
         8.15      0.242007
          8.2      0.240633
         8.25      0.239009
          8.3      0.237406
         8.35      0.235809
          8.4      0.234182
         8.45       0.23263
          8.5      0.231117
         8.55      0.229545
          8.6      0.227969
         8.65      0.226561
          8.7       0.22511
         8.75      0.223622
          8.8      0.222198
         8.85      0.220787
          8.9      0.219274
         8.95      0.217961
            9      0.216634
         9.05      0.215188
          9.1      0.213841
         9.15      0.212222
          9.2      0.210756
         9.25       0.20936
          9.3      0.207999
         9.35      0.206639
          9.4      0.205274
         9.45      0.203936
          9.5      0.202549
         9.55      0.201413
          9.6      0.200342
         9.65      0.199114
          9.7      0.197899
         9.75      0.196642
          9.8        0.1954
         9.85      0.194134
          9.9      0.192929
         9.95      0.191722
           10      0.190608
        10.05      0.189338
         10.1       0.18798
        10.15      0.186721
         10.2      0.185591
        10.25      0.184486
         10.3      0.183354
        10.35      0.182335
         10.4      0.181016
        10.45      0.179863
         10.5      0.178756
        10.55      0.177652
         10.6      0.176596
        10.65      0.175489
         10.7      0.174424
        10.75      0.173393
         10.8       0.17235
        10.85      0.171319
         10.9      0.170263
        10.95      0.169282
           11      0.168349
        11.05      0.167355
         11.1        0.1663
        11.15      0.165308
         11.2       0.16432
        11.25      0.163334
         11.3      0.162363
        11.35      0.161394
         11.4      0.160493
        11.45      0.159597
         11.5      0.158665
        11.55      0.157652
         11.6      0.156747
        11.65      0.155819
         11.7      0.154901
        11.75      0.154118
         11.8      0.153409
        11.85      0.152491
         11.9      0.151584
        11.95       0.15062
           12       0.14986
        12.05      0.149157
         12.1      0.148414
        12.15      0.147524
         12.2      0.146691
        12.25      0.145859
         12.3      0.145044
        12.35      0.144219
         12.4      0.143495
        12.45      0.142731
         12.5      0.141881
        12.55      0.141096
         12.6      0.140336
        12.65      0.139601
         12.7       0.13887
        12.75       0.13811
         12.8      0.137232
        12.85      0.136392
         12.9      0.135682
        12.95      0.134928
           13      0.134215
        13.05      0.133494
         13.1      0.132772
        13.15       0.13211
         13.2      0.131476
        13.25      0.130883
         13.3      0.130215
        13.35      0.129516
         13.4      0.128759
        13.45       0.12799
         13.5      0.127323
        13.55      0.126664
         13.6      0.126019
        13.65       0.12534
         13.7      0.124694
        13.75      0.124129
         13.8      0.123513
        13.85      0.122886
         13.9      0.122223
        13.95      0.121577
           14       0.12095
        14.05      0.120323
         14.1      0.119695
        14.15      0.119168
         14.2      0.118623
        14.25      0.118071
         14.3      0.117468
        14.35      0.116846
         14.4      0.116266
        14.45      0.115697
         14.5      0.115107
        14.55      0.114545
         14.6      0.114034
        14.65      0.113473
         14.7      0.112926
        14.75      0.112393
         14.8       0.11187
        14.85      0.111285
         14.9      0.110657
        14.95      0.110172
           15      0.109676
        15.05      0.109176
         15.1      0.108667
        15.15      0.108101
         15.2      0.107576
        15.25      0.107101
         15.3        0.1066
        15.35      0.106054
         15.4       0.10553
        15.45       0.10502
         15.5      0.104519
        15.55      0.104066
         15.6      0.103572
        15.65      0.103104
         15.7      0.102599
        15.75      0.102113
         15.8      0.101579
        15.85      0.101048
         15.9      0.100588
        15.95      0.100106
           16     0.0996217
        16.05     0.0991729
         16.1     0.0987881
        16.15     0.0982805
         16.2     0.0977383
        16.25     0.0971505
         16.3     0.0967174
        16.35     0.0962275
         16.4     0.0958036
        16.45     0.0953146
         16.5     0.0948286
        16.55     0.0943301
         16.6     0.0938375
        16.65     0.0933464
         16.7     0.0928581
        16.75     0.0923766
         16.8     0.0918826
        16.85     0.0914852
         16.9     0.0909991
        16.95     0.0904915
           17     0.0900027
        17.05     0.0895001
         17.1       0.08905
        17.15     0.0886006
         17.2     0.0881334
        17.25     0.0877228
         17.3     0.0872037
        17.35     0.0867175
         17.4     0.0862938
        17.45     0.0858314
         17.5     0.0853772
        17.55     0.0848835
         17.6     0.0844079
        17.65     0.0839448
         17.7     0.0834768
        17.75     0.0830135
         17.8     0.0825629
        17.85     0.0821004
         17.9     0.0816332
        17.95     0.0811949
           18     0.0807655
        18.05      0.080328
         18.1     0.0798841
        18.15     0.0794531
         18.2     0.0790517
        18.25     0.0786197
         18.3     0.0781831
        18.35     0.0777856
         18.4     0.0773727
        18.45     0.0769421
         18.5     0.0764854
        18.55      0.076111
         18.6     0.0756626
        18.65     0.0752697
         18.7     0.0748737
        18.75     0.0744758
         18.8     0.0740932
        18.85     0.0737054
         18.9      0.073324
        18.95     0.0729387
           19     0.0725515
        19.05      0.072188
         19.1     0.0717965
        19.15     0.0714522
         19.2     0.0710605
        19.25     0.0706903
         19.3     0.0703465
        19.35     0.0699796
         19.4     0.0696279
        19.45     0.0693077
         19.5     0.0689726
        19.55     0.0686185
         19.6      0.068282
        19.65     0.0679594
         19.7      0.067614
        19.75       0.06728
         19.8     0.0669549
        19.85     0.0666544
         19.9     0.0663326
        19.95      0.066018
           20      0.065729
        20.05     0.0654751
         20.1     0.0651961
        20.15     0.0648782
         20.2     0.0645964
        20.25     0.0643238
         20.3     0.0640442
        20.35     0.0637569
         20.4      0.063475
        20.45     0.0632308
         20.5     0.0629734
        20.55     0.0627273
         20.6     0.0624933
        20.65     0.0622266
         20.7     0.0619794
        20.75     0.0617396
         20.8     0.0614977
        20.85     0.0612599
         20.9     0.0610223
        20.95     0.0608079
           21     0.0606025
        21.05     0.0603879
         21.1     0.0601618
        21.15      0.059929
         21.2     0.0597408
        21.25     0.0595646
         21.3     0.0593495
        21.35      0.059167
         21.4     0.0589382
        21.45     0.0587424
         21.5     0.0585525
        21.55     0.0583667
         21.6     0.0581572
        21.65     0.0579805
         21.7     0.0578081
        21.75     0.0576399
         21.8     0.0574658
        21.85     0.0572948
         21.9     0.0571274
        21.95     0.0569621
           22     0.0567957
        22.05      0.056627
         22.1     0.0565053
        22.15      0.056362
         22.2     0.0561961
        22.25     0.0560291
         22.3     0.0559185
        22.35       0.05578
         22.4     0.0555984
        22.45     0.0555168
         22.5     0.0553857
        22.55     0.0552415
         22.6     0.0550953
        22.65     0.0549618
         22.7     0.0548271
        22.75     0.0546948
         22.8     0.0545504
        22.85     0.0544169
         22.9     0.0542936
        22.95     0.0541835
           23     0.0540586
        23.05     0.0539311
         23.1      0.053791
        23.15     0.0537163
         23.2     0.0536182
        23.25      0.053499
         23.3     0.0533844
        23.35     0.0532588
         23.4     0.0531849
        23.45     0.0530888
         23.5     0.0529415
        23.55      0.052882
         23.6     0.0527747
        23.65     0.0526414
         23.7     0.0525912
        23.75     0.0524988
         23.8     0.0524107
        23.85      0.052317
         23.9     0.0522149
        23.95     0.0521242
           24      0.052029
        24.05     0.0519465
         24.1     0.0518692
        24.15     0.0517674
         24.2     0.0516711
        24.25     0.0515791
         24.3     0.0514917
        24.35      0.051413
         24.4     0.0513035
        24.45     0.0512726
         24.5     0.0512011
        24.55     0.0511199
         24.6     0.0510225
        24.65     0.0509589
         24.7     0.0509109
        24.75     0.0508415
         24.8     0.0508197
        24.85     0.0507053
         24.9     0.0506289
        24.95     0.0505512
           25     0.0504802
        25.05     0.0504127
         25.1     0.0503299
        25.15       0.05026
         25.2     0.0501903
        25.25     0.0501138
         25.3     0.0500457
        25.35     0.0499803
         25.4     0.0499093
        25.45      0.049791
         25.5     0.0497204
        25.55     0.0496417
         25.6     0.0495637
        25.65     0.0494513
         25.7     0.0494032
        25.75     0.0493468
         25.8     0.0492559
        25.85     0.0491616
         25.9     0.0490717
        25.95     0.0489965
           26     0.0489386
        26.05     0.0488452
         26.1     0.0487548
        26.15      0.048642
         26.2     0.0485209
        26.25     0.0483945
         26.3     0.0482906
        26.35     0.0481753
         26.4     0.0480533
        26.45     0.0479427
         26.5     0.0478233
        26.55     0.0476995
         26.6      0.047572
        26.65     0.0474444
         26.7     0.0473154
        26.75     0.0471623
         26.8     0.0470083
        26.85     0.0468553
         26.9     0.0466985
        26.95     0.0465296
           27     0.0463478
        27.05     0.0462662
         27.1     0.0461049
        27.15     0.0459392
         27.2     0.0457567
        27.25     0.0455706
         27.3     0.0453825
        27.35     0.0452322
         27.4     0.0450442
        27.45     0.0448546
         27.5     0.0446613
        27.55     0.0444566
         27.6      0.044269
        27.65     0.0440519
         27.7     0.0437677
        27.75     0.0435545
         27.8     0.0433397
        27.85     0.0431189
         27.9     0.0428924
        27.95      0.042662
           28     0.0424281
        28.05     0.0421886
         28.1     0.0419462
        28.15     0.0416806
         28.2     0.0413981
        28.25     0.0412092
         28.3     0.0409511
        28.35     0.0406848
         28.4     0.0404221
        28.45      0.040104
         28.5     0.0399168
        28.55     0.0396617
         28.6     0.0393896
        28.65       0.03913
         28.7     0.0388266
        28.75     0.0385205
         28.8      0.038217
        28.85     0.0379775
         28.9     0.0376896
        28.95     0.0373983
           29     0.0371017
        29.05     0.0368105
         29.1      0.036519
        29.15      0.036212
         29.2     0.0359097
        29.25     0.0356055
         29.3     0.0353076
        29.35     0.0350026
         29.4     0.0346966
        29.45     0.0343822
         29.5     0.0340509
        29.55     0.0337315
         29.6     0.0334146
        29.65     0.0330973
         29.7     0.0327772
        29.75      0.032454
         29.8     0.0321293
        29.85     0.0318086
         29.9     0.0314656
        29.95     0.0311116
           30      0.030781
        30.05     0.0304303
         30.1     0.0300885
        30.15     0.0297071
         30.2     0.0294475
        30.25     0.0290894
         30.3     0.0287871
        30.35     0.0284743
         30.4       0.02814
        30.45     0.0278226
         30.5     0.0274491
        30.55      0.027104
         30.6     0.0267042
        30.65     0.0263747
         30.7     0.0260394
        30.75     0.0256871
         30.8     0.0253396
        30.85     0.0249803
         30.9     0.0246168
        30.95     0.0242625
           31     0.0239051
        31.05     0.0235587
         31.1     0.0231956
        31.15     0.0228061
         31.2     0.0224616
        31.25     0.0220983
         31.3     0.0217277
        31.35     0.0213512
         31.4     0.0209826
        31.45     0.0206105
         31.5     0.0202363
        31.55     0.0198525
         31.6      0.019492
        31.65     0.0191307
         31.7      0.018746
        31.75     0.0183652
         31.8     0.0179834
        31.85     0.0175997
         31.9     0.0172113
        31.95     0.0168418
           32     0.0164334
        32.05     0.0160675
         32.1     0.0156851
        32.15     0.0152994
         32.2     0.0149193
        32.25     0.0145034
         32.3     0.0141074
        32.35     0.0137029
         32.4     0.0133233
        32.45     0.0129789
         32.5     0.0125825
        32.55     0.0121727
         32.6      0.011772
        32.65     0.0113663
         32.7     0.0109504
        32.75     0.0105529
         32.8     0.0101797
        32.85    0.00978616
         32.9    0.00940706
        32.95    0.00898455
           33     0.0085687
        33.05    0.00817495
         33.1    0.00778996
        33.15    0.00737661
         33.2    0.00697321
        33.25    0.00660309
         33.3    0.00623718
        33.35    0.00581592
         33.4    0.00540609
        33.45    0.00492115
         33.5    0.00452246
        33.55    0.00407335
         33.6    0.00370637
        33.65    0.00332521
         33.7    0.00292684
        33.75    0.00253534
         33.8    0.00214714
        33.85    0.00174679
         33.9     0.0013515
        33.95   0.000955368
           34   0.000573839
        34.05   0.000197129
         34.1  -0.000187684
        34.15  -0.000515351
         34.2  -0.000832971
        34.25   -0.00129186
         34.3   -0.00173484
        34.35   -0.00174808
         34.4   -0.00205424
        34.45   -0.00241165
         34.5   -0.00274933
        34.55   -0.00309294
         34.6   -0.00343632
        34.65   -0.00378013
         34.7   -0.00417303
        34.75    -0.0043726
         34.8   -0.00466537
        34.85   -0.00496855
         34.9   -0.00527189
        34.95   -0.00560929
           35   -0.00592853
        35.05   -0.00611599
         35.1   -0.00629509
        35.15   -0.00649072
         35.2   -0.00664482
        35.25   -0.00690049
         35.3   -0.00711881
        35.35   -0.00729966
         35.4   -0.00741129
        35.45   -0.00760963
         35.5    -0.0077657
        35.55   -0.00793815
         35.6   -0.00801715
        35.65   -0.00812842
         35.7   -0.00824195
        35.75   -0.00836037
         35.8   -0.00851428
        35.85   -0.00858397
         35.9   -0.00866959
        35.95   -0.00868861
           36   -0.00871328
        36.05   -0.00870606
         36.1   -0.00873661
        36.15   -0.00876429
         36.2   -0.00877001
        36.25   -0.00878872
         36.3   -0.00875629
        36.35   -0.00869221
         36.4   -0.00863467
        36.45   -0.00858495
         36.5   -0.00850615
        36.55   -0.00840799
         36.6   -0.00826474
        36.65   -0.00814911
         36.7   -0.00803509
        36.75   -0.00789777
         36.8   -0.00772478
        36.85   -0.00755877
         36.9   -0.00737617
        36.95   -0.00717816
           37   -0.00696244
        37.05   -0.00673364
         37.1   -0.00649344
        37.15   -0.00624375
         37.2   -0.00599035
        37.25   -0.00577037
         37.3   -0.00542025
        37.35   -0.00513202
         37.4   -0.00484159
        37.45   -0.00450557
         37.5   -0.00417345
        37.55   -0.00383308
         37.6   -0.00348258
        37.65    -0.0030991
         37.7   -0.00272807
        37.75   -0.00234703
         37.8   -0.00195556
        37.85   -0.00155592
         37.9   -0.00114828
        37.95  -0.000732457
           38  -0.000307481
        38.05   0.000176785
         38.1   0.000551669
        38.15   0.000984407
         38.2    0.00144181
        38.25    0.00191109
         38.3    0.00237024
        38.35     0.0028381
         38.4    0.00334451
        38.45    0.00382859
         38.5    0.00431974
        38.55    0.00482103
         38.6    0.00529952
        38.65    0.00580125
         38.7    0.00630718
        38.75    0.00681725
         38.8    0.00733085
        38.85    0.00784816
         38.9    0.00836955
        38.95    0.00888782
           39    0.00941274
        39.05    0.00993353
         39.1     0.0104606
        39.15     0.0110046
         39.2     0.0115417
        39.25     0.0120764
         39.3     0.0126123
        39.35     0.0131412
         39.4     0.0136515
        39.45     0.0142286
         39.5     0.0147688
        39.55     0.0153086
         39.6     0.0158479
        39.65     0.0163871
         39.7     0.0169259
        39.75     0.0174642
         39.8     0.0180013
        39.85     0.0185385
         39.9     0.0190811
        39.95     0.0196187
           40     0.0201542
        40.05     0.0206883
         40.1     0.0212213
        40.15     0.0217549
         40.2     0.0222622
        40.25     0.0228156
         40.3     0.0233483
        40.35     0.0238565
         40.4     0.0243742
        40.45     0.0249082
         40.5     0.0254222
        40.55     0.0259294
         40.6     0.0264359
        40.65     0.0269725
         40.7      0.027483
        40.75     0.0280028
         40.8     0.0285131
        40.85      0.029019
         40.9     0.0295151
        40.95     0.0300114
           41      0.030503
        41.05     0.0310024
         41.1     0.0314964
        41.15     0.0319805
         41.2     0.0324748
        41.25     0.0329518
         41.3     0.0334403
        41.35     0.0339148
         41.4     0.0343857
        41.45     0.0348724
         41.5     0.0353429
        41.55     0.0358106
         41.6     0.0362762
        41.65     0.0367403
         41.7     0.0371939
        41.75     0.0376464
         41.8     0.0381046
        41.85     0.0385642
         41.9       0.03901
        41.95     0.0394545
           42     0.0398971
        42.05     0.0403369
         42.1     0.0407781
        42.15     0.0412023
         42.2     0.0416422
        42.25      0.042065
         42.3     0.0424926
        42.35     0.0429014
         42.4       0.04332
        42.45     0.0437343
         42.5     0.0441387
        42.55     0.0445526
         42.6     0.0449581
        42.65     0.0453576
         42.7      0.045755
        42.75     0.0461473
         42.8     0.0465373
        42.85     0.0469233
         42.9     0.0473063
        42.95     0.0476854
           43     0.0480535
        43.05     0.0484392
         43.1     0.0488133
        43.15     0.0491854
         43.2     0.0495399
        43.25     0.0498947
         43.3     0.0502477
        43.35     0.0506232
         43.4     0.0509685
        43.45      0.051302
         43.5     0.0516547
        43.55     0.0519931
         43.6      0.052326
        43.65     0.0526543
         43.7     0.0529785
        43.75     0.0532979
         43.8     0.0536118
        43.85     0.0539221
         43.9     0.0542422
        43.95     0.0545465
           44      0.054857
        44.05     0.0551569
         44.1     0.0554514
        44.15     0.0557388
         44.2     0.0560161
        44.25     0.0563225
         44.3     0.0565949
        44.35     0.0568687
         44.4     0.0571387
        44.45     0.0573996
         44.5     0.0576567
        44.55     0.0579055
         44.6     0.0581721
        44.65     0.0584225
         44.7     0.0586662
        44.75     0.0589017
         44.8     0.0591497
        44.85     0.0593809
         44.9     0.0596059
        44.95     0.0598396
           45      0.060057
        45.05      0.060267
         45.1     0.0604754
        45.15     0.0606829
         45.2     0.0608863
        45.25     0.0610853
         45.3     0.0612771
        45.35     0.0614657
         45.4     0.0616498
        45.45     0.0618308
         45.5     0.0620071
        45.55     0.0621794
         45.6     0.0623471
        45.65     0.0625107
         45.7     0.0626693
        45.75     0.0628231
         45.8     0.0629774
        45.85     0.0631294
         45.9     0.0632709
        45.95     0.0634105
           46     0.0635458
        46.05     0.0636815
         46.1      0.063812
        46.15     0.0639339
         46.2     0.0640531
        46.25     0.0641701
         46.3     0.0642823
        46.35       0.06439
         46.4     0.0644933
        46.45     0.0645931
         46.5     0.0646852
        46.55     0.0647834
         46.6     0.0648673
        46.65       0.06496
         46.7     0.0650376
        46.75      0.065129
         46.8     0.0651989
        46.85     0.0652689
         46.9     0.0653427
        46.95     0.0654074
           47     0.0654683
        47.05     0.0655326
         47.1     0.0655832
        47.15     0.0656334
         47.2     0.0656792
        47.25     0.0657224
         47.3     0.0657608
        47.35     0.0657995
         47.4      0.065833
        47.45     0.0658649
         47.5     0.0658924
        47.55     0.0659179
         47.6     0.0659426
        47.65     0.0659674
         47.7     0.0659812
        47.75     0.0659946
         47.8     0.0660037
        47.85     0.0660084
         47.9     0.0660141
        47.95     0.0660151
           48     0.0660123
        48.05      0.066001
         48.1      0.065997
        48.15     0.0659912
         48.2     0.0659798
        48.25     0.0659637
         48.3     0.0659449
        48.35     0.0659342
         48.4     0.0659068
        48.45     0.0658869
         48.5     0.0658581
        48.55     0.0658297
         48.6     0.0657977
        48.65     0.0657633
         48.7     0.0657283
        48.75     0.0656892
         48.8     0.0656467
        48.85      0.065604
         48.9     0.0655591
        48.95     0.0655116
           49     0.0654619
        49.05     0.0654095
         49.1     0.0653562
        49.15     0.0652984
         49.2       0.06524
        49.25     0.0651796
         49.3     0.0651166
        49.35     0.0650518
         49.4      0.064985
        49.45     0.0649159
         49.5      0.064842
        49.55     0.0647751
         49.6     0.0646996
        49.65     0.0646225
         49.7     0.0645425
        49.75     0.0644628
         49.8     0.0643811
        49.85     0.0642966
         49.9     0.0642107
        49.95     0.0641231
           50     0.0640336
        50.05     0.0639424
         50.1     0.0638492
        50.15     0.0637529
         50.2     0.0636583
        50.25     0.0635631
         50.3     0.0634654
        50.35     0.0633643
         50.4     0.0632616
        50.45     0.0631573
         50.5     0.0630514
        50.55     0.0629441
         50.6     0.0628352
        50.65     0.0627248
         50.7      0.062613
        50.75     0.0624997
         50.8      0.062385
        50.85     0.0622689
         50.9     0.0621513
        50.95     0.0620323
           51     0.0619117
        51.05     0.0617898
         51.1     0.0616662
        51.15     0.0615461
         51.2     0.0614211
        51.25     0.0612945
         51.3     0.0611666
        51.35     0.0610375
         51.4     0.0609071
        51.45     0.0607756
         51.5     0.0606435
        51.55     0.0605122
         51.6     0.0603742
        51.65     0.0602407
         51.7     0.0601014
        51.75     0.0599645
         51.8     0.0598245
        51.85     0.0596846
         51.9     0.0595432
        51.95     0.0594012
           52      0.059258
        52.05     0.0591139
         52.1     0.0589689
        52.15      0.058823
         52.2     0.0586762
        52.25      0.058529
         52.3     0.0583806
        52.35     0.0582312
         52.4     0.0580811
        52.45     0.0579303
         52.5     0.0577786
        52.55     0.0576262
         52.6      0.057473
        52.65     0.0573189
         52.7     0.0571649
        52.75     0.0570099
         52.8     0.0568543
        52.85     0.0566976
         52.9     0.0565407
        52.95      0.056383
           53      0.056225
        53.05     0.0560659
         53.1     0.0559067
        53.15     0.0557475
         53.2     0.0555883
        53.25     0.0554279
         53.3     0.0552666
        53.35     0.0551056
         53.4     0.0549439
        53.45     0.0547821