# Probe 0 (3 0 0)
#       Probe             0
#        Time
         0.05             (0.13727 0.194757 -7.35511e-19)
          0.1             (0.202294 0.203195 -5.42824e-20)
         0.15             (0.177507 0.204604 -2.13329e-20)
          0.2             (0.172365 0.204284 -1.46641e-20)
         0.25             (0.168648 0.20408 -1.39885e-20)
          0.3             (0.165729 0.20413 -1.35203e-20)
         0.35             (0.163262 0.204396 -1.31681e-20)
          0.4             (0.161102 0.204841 -1.28759e-20)
         0.45             (0.159157 0.205424 -1.26231e-20)
          0.5             (0.157354 0.20603 -1.23905e-20)
         0.55             (0.155644 0.206639 -1.21936e-20)
          0.6             (0.153995 0.207217 -1.20093e-20)
         0.65             (0.152388 0.207756 -1.18374e-20)
          0.7             (0.150819 0.208254 -1.16798e-20)
         0.75             (0.149284 0.208713 -1.15324e-20)
          0.8             (0.147784 0.209139 -1.13968e-20)
         0.85             (0.146321 0.209538 -1.12693e-20)
          0.9             (0.144897 0.209916 -1.11452e-20)
         0.95             (0.143515 0.210278 -1.10278e-20)
            1             (0.142177 0.21063 -1.09158e-20)
         1.05             (0.140884 0.210976 -1.08097e-20)
          1.1             (0.139638 0.211317 -1.07032e-20)
         1.15             (0.138437 0.211659 -1.06036e-20)
          1.2             (0.137284 0.212002 -1.05089e-20)
         1.25             (0.136176 0.212349 -1.0414e-20)
          1.3             (0.135113 0.2127 -1.03205e-20)
         1.35             (0.134094 0.213056 -1.02306e-20)
          1.4             (0.133117 0.213418 -1.01444e-20)
         1.45             (0.132181 0.213787 -1.00586e-20)
          1.5             (0.131284 0.214164 -9.97535e-21)
         1.55             (0.130425 0.214547 -9.89108e-21)
          1.6             (0.129602 0.214937 -9.80971e-21)
         1.65             (0.128813 0.215335 -9.73029e-21)
          1.7             (0.128056 0.215741 -9.6517e-21)
         1.75             (0.12733 0.216155 -9.57433e-21)
          1.8             (0.126634 0.216575 -9.49674e-21)
         1.85             (0.125964 0.217003 -9.42193e-21)
          1.9             (0.12532 0.217438 -9.34831e-21)
         1.95             (0.124701 0.21788 -9.27596e-21)
            2             (0.124105 0.21833 -9.20533e-21)
         2.05             (0.12353 0.218788 -9.13499e-21)
          2.1             (0.122975 0.219252 -9.06428e-21)
         2.15             (0.122439 0.219722 -8.994e-21)
          2.2             (0.121921 0.2202 -8.92714e-21)
         2.25             (0.121419 0.220684 -8.85931e-21)
          2.3             (0.120933 0.221175 -8.7935e-21)
         2.35             (0.120461 0.221672 -8.7274e-21)
          2.4             (0.120002 0.222175 -8.66203e-21)
         2.45             (0.119556 0.222685 -8.59731e-21)
          2.5             (0.119121 0.2232 -8.53439e-21)
         2.55             (0.118696 0.223721 -8.47231e-21)
          2.6             (0.118282 0.224248 -8.40982e-21)
         2.65             (0.117876 0.22478 -8.34852e-21)
          2.7             (0.11748 0.225319 -8.292e-21)
         2.75             (0.117089 0.225861 -8.22632e-21)
          2.8             (0.116704 0.226408 -8.16299e-21)
         2.85             (0.116327 0.226962 -8.11043e-21)
          2.9             (0.115955 0.227521 -8.05168e-21)
         2.95             (0.115588 0.228086 -7.99585e-21)
            3             (0.115222 0.228651 -7.93172e-21)
         3.05             (0.114861 0.229222 -7.87606e-21)
          3.1             (0.114504 0.2298 -7.82619e-21)
         3.15             (0.114149 0.230381 -7.7674e-21)
          3.2             (0.113795 0.230967 -7.71233e-21)
         3.25             (0.113443 0.231557 -7.65748e-21)
          3.3             (0.113093 0.232152 -7.60443e-21)
         3.35             (0.112743 0.232752 -7.55348e-21)
          3.4             (0.112394 0.233356 -7.50046e-21)
         3.45             (0.112045 0.233964 -7.44807e-21)
          3.5             (0.111695 0.234576 -7.397e-21)
         3.55             (0.111344 0.235193 -7.3461e-21)
          3.6             (0.110993 0.235813 -7.29497e-21)
         3.65             (0.11064 0.236439 -7.24616e-21)
          3.7             (0.110287 0.23707 -7.1981e-21)
         3.75             (0.109931 0.237704 -7.14729e-21)
          3.8             (0.109573 0.238342 -7.0997e-21)
         3.85             (0.109213 0.238985 -7.05347e-21)
          3.9             (0.108851 0.23963 -7.00297e-21)
         3.95             (0.108486 0.240278 -6.95317e-21)
            4             (0.108118 0.240928 -6.90494e-21)
         4.05             (0.107748 0.241582 -6.85823e-21)
          4.1             (0.107376 0.242243 -6.81729e-21)
         4.15             (0.107002 0.242907 -6.77195e-21)
          4.2             (0.106625 0.243574 -6.72601e-21)
         4.25             (0.106245 0.244244 -6.68034e-21)
          4.3             (0.105861 0.244917 -6.63495e-21)
         4.35             (0.105475 0.245592 -6.5905e-21)
          4.4             (0.105086 0.24627 -6.54676e-21)
         4.45             (0.104694 0.246952 -6.50327e-21)
          4.5             (0.104299 0.247634 -6.45598e-21)
         4.55             (0.103901 0.248317 -6.41107e-21)
          4.6             (0.103501 0.249003 -6.36816e-21)
         4.65             (0.103099 0.249689 -6.32466e-21)
          4.7             (0.102695 0.250377 -6.28109e-21)
         4.75             (0.102288 0.251065 -6.23733e-21)
          4.8             (0.10188 0.251755 -6.19458e-21)
         4.85             (0.10147 0.252446 -6.15245e-21)
          4.9             (0.101058 0.253138 -6.11065e-21)
         4.95             (0.100645 0.25383 -6.06796e-21)
            5             (0.10023 0.254522 -6.02526e-21)
         5.05             (0.0998144 0.255213 -5.98277e-21)
          5.1             (0.0993978 0.255904 -5.94039e-21)
         5.15             (0.0989813 0.256595 -5.90067e-21)
          5.2             (0.098565 0.257287 -5.86313e-21)
         5.25             (0.0981477 0.257978 -5.81842e-21)
          5.3             (0.0977305 0.258666 -5.77654e-21)
         5.35             (0.0973141 0.259354 -5.73804e-21)
          5.4             (0.0968982 0.260041 -5.69715e-21)
         5.45             (0.0964834 0.260726 -5.65748e-21)
          5.5             (0.09607 0.26141 -5.61879e-21)
         5.55             (0.0956578 0.262093 -5.57912e-21)
          5.6             (0.0952479 0.262773 -5.53949e-21)
         5.65             (0.0948405 0.263452 -5.50133e-21)
          5.7             (0.0944351 0.264128 -5.46292e-21)
         5.75             (0.0940317 0.264804 -5.42484e-21)
          5.8             (0.0936311 0.265477 -5.3876e-21)
         5.85             (0.0932335 0.266149 -5.35057e-21)
          5.9             (0.0928392 0.266818 -5.31342e-21)
         5.95             (0.0924485 0.267485 -5.27618e-21)
            6             (0.0920618 0.26815 -5.23883e-21)
         6.05             (0.0916775 0.268813 -5.20168e-21)
          6.1             (0.0912968 0.269474 -5.16535e-21)
         6.15             (0.0909203 0.270132 -5.12977e-21)
          6.2             (0.0905479 0.270789 -5.0938e-21)
         6.25             (0.0901792 0.271445 -5.05863e-21)
          6.3             (0.0898151 0.272099 -5.02399e-21)
         6.35             (0.0894555 0.272752 -4.98998e-21)
          6.4             (0.0891002 0.273402 -4.95468e-21)
         6.45             (0.0887494 0.274051 -4.91992e-21)
          6.5             (0.0884032 0.274699 -4.8862e-21)
         6.55             (0.0880624 0.275344 -4.85196e-21)
          6.6             (0.0877235 0.275992 -4.81973e-21)
         6.65             (0.0873891 0.276638 -4.78613e-21)
          6.7             (0.0870588 0.277285 -4.75322e-21)
         6.75             (0.0867311 0.277933 -4.72028e-21)
          6.8             (0.0864091 0.278579 -4.68865e-21)
         6.85             (0.0860907 0.279225 -4.6557e-21)
          6.9             (0.0857776 0.279873 -4.62534e-21)
         6.95             (0.0854684 0.28052 -4.59322e-21)
            7             (0.0851619 0.281166 -4.55731e-21)
         7.05             (0.0848588 0.281814 -4.52553e-21)
          7.1             (0.0845589 0.282461 -4.4936e-21)
         7.15             (0.0842632 0.28311 -4.46234e-21)
          7.2             (0.0839706 0.283759 -4.43133e-21)
         7.25             (0.0836819 0.284411 -4.40075e-21)
          7.3             (0.0833975 0.285065 -4.37057e-21)
         7.35             (0.0831171 0.285721 -4.33918e-21)
          7.4             (0.0828382 0.286381 -4.30947e-21)
         7.45             (0.0825619 0.287046 -4.28014e-21)
          7.5             (0.0822881 0.287715 -4.2504e-21)
         7.55             (0.0820146 0.288388 -4.2215e-21)
          7.6             (0.0817442 0.289066 -4.19235e-21)
         7.65             (0.0814763 0.289748 -4.16312e-21)
          7.7             (0.0812115 0.290435 -4.13467e-21)
         7.75             (0.0809485 0.291128 -4.10627e-21)
          7.8             (0.0806867 0.291825 -4.07892e-21)
         7.85             (0.0804271 0.292527 -4.05079e-21)
          7.9             (0.0801702 0.293236 -4.02296e-21)
         7.95             (0.0799155 0.293951 -3.99538e-21)
            8             (0.0796628 0.294672 -3.96816e-21)
         8.05             (0.0794121 0.295401 -3.94066e-21)
          8.1             (0.0791638 0.296135 -3.91263e-21)
         8.15             (0.0789172 0.296877 -3.88559e-21)
          8.2             (0.0786738 0.297629 -3.86364e-21)
         8.25             (0.0784325 0.298388 -3.83773e-21)
          8.3             (0.0781936 0.299156 -3.81216e-21)
         8.35             (0.0779567 0.299932 -3.78672e-21)
          8.4             (0.0777216 0.300715 -3.76081e-21)
         8.45             (0.0774884 0.301507 -3.7361e-21)
          8.5             (0.077257 0.302305 -3.71205e-21)
         8.55             (0.0770263 0.303112 -3.68705e-21)
          8.6             (0.076798 0.303928 -3.66191e-21)
         8.65             (0.0765733 0.304754 -3.63937e-21)
          8.7             (0.0763488 0.30559 -3.61636e-21)
         8.75             (0.0761253 0.306433 -3.59274e-21)
          8.8             (0.0759042 0.307287 -3.57004e-21)
         8.85             (0.0756858 0.308149 -3.54754e-21)
          8.9             (0.07547 0.309019 -3.52343e-21)
         8.95             (0.0752572 0.309899 -3.50248e-21)
            9             (0.0750473 0.310789 -3.48131e-21)
         9.05             (0.07484 0.311686 -3.45828e-21)
          9.1             (0.0746354 0.312592 -3.43682e-21)
         9.15             (0.0744339 0.313503 -3.41101e-21)
          9.2             (0.0742354 0.314421 -3.38764e-21)
         9.25             (0.0740403 0.315347 -3.36538e-21)
          9.3             (0.0738485 0.316279 -3.34368e-21)
         9.35             (0.0736599 0.317218 -3.32202e-21)
          9.4             (0.0734741 0.318164 -3.30031e-21)
         9.45             (0.0732914 0.319116 -3.27903e-21)
          9.5             (0.0731125 0.320077 -3.25692e-21)
         9.55             (0.0729372 0.321041 -3.23878e-21)
          9.6             (0.0727655 0.322002 -3.22165e-21)
         9.65             (0.0725982 0.322968 -3.20201e-21)
          9.7             (0.0724348 0.32394 -3.18264e-21)
         9.75             (0.0722753 0.324918 -3.16259e-21)
          9.8             (0.0721205 0.3259 -3.14272e-21)
         9.85             (0.0719682 0.326885 -3.12267e-21)
          9.9             (0.0718188 0.327873 -3.10354e-21)
         9.95             (0.0716736 0.328863 -3.08428e-21)
           10             (0.0715328 0.329856 -3.06649e-21)
        10.05             (0.0713951 0.330852 -3.04628e-21)
         10.1             (0.0712601 0.331851 -3.02471e-21)
        10.15             (0.0711279 0.332854 -3.00469e-21)
         10.2             (0.0709989 0.333857 -2.98671e-21)
        10.25             (0.0708734 0.33486 -2.9691e-21)
         10.3             (0.0707509 0.335863 -2.9511e-21)
        10.35             (0.0706326 0.336867 -2.93483e-21)
         10.4             (0.0705166 0.337867 -2.91389e-21)
        10.45             (0.0704034 0.338863 -2.89558e-21)
         10.5             (0.070294 0.339857 -2.87793e-21)
        10.55             (0.070187 0.340849 -2.86037e-21)
         10.6             (0.0700827 0.341839 -2.84356e-21)
        10.65             (0.0699811 0.342826 -2.82593e-21)
         10.7             (0.0698819 0.343809 -2.809e-21)
        10.75             (0.069786 0.34479 -2.79252e-21)
         10.8             (0.0696929 0.345767 -2.77591e-21)
        10.85             (0.0696021 0.34674 -2.75949e-21)
         10.9             (0.0695133 0.347708 -2.74268e-21)
        10.95             (0.0694265 0.348671 -2.72706e-21)
           11             (0.0693434 0.349627 -2.71214e-21)
        11.05             (0.0692616 0.350578 -2.69632e-21)
         11.1             (0.0691826 0.351522 -2.6795e-21)
        11.15             (0.0691052 0.352461 -2.66368e-21)
         11.2             (0.0690299 0.353393 -2.64794e-21)
        11.25             (0.0689552 0.354316 -2.6323e-21)
         11.3             (0.0688804 0.355231 -2.61698e-21)
        11.35             (0.0688052 0.356136 -2.60171e-21)
         11.4             (0.0687305 0.357035 -2.5874e-21)
        11.45             (0.0686565 0.357926 -2.57314e-21)
         11.5             (0.0685829 0.358807 -2.55842e-21)
        11.55             (0.0685094 0.359675 -2.54238e-21)
         11.6             (0.0684377 0.360536 -2.52791e-21)
        11.65             (0.068367 0.361389 -2.51314e-21)
         11.7             (0.0682969 0.362233 -2.49855e-21)
        11.75             (0.0682261 0.363062 -2.48613e-21)
         11.8             (0.0681544 0.363879 -2.47491e-21)
        11.85             (0.068084 0.364685 -2.46026e-21)
         11.9             (0.0680137 0.36548 -2.44584e-21)
        11.95             (0.0679429 0.366264 -2.43055e-21)
           12             (0.0678724 0.367038 -2.41846e-21)
        12.05             (0.0678024 0.367801 -2.40725e-21)
         12.1             (0.0677327 0.368555 -2.39541e-21)
        12.15             (0.067663 0.369297 -2.38126e-21)
         12.2             (0.0675925 0.370027 -2.36803e-21)
        12.25             (0.0675212 0.370746 -2.35483e-21)
         12.3             (0.067449 0.371452 -2.34191e-21)
        12.35             (0.0673756 0.372146 -2.32883e-21)
         12.4             (0.0673011 0.372829 -2.31733e-21)
        12.45             (0.0672256 0.3735 -2.30522e-21)
         12.5             (0.0671484 0.374158 -2.29174e-21)
        12.55             (0.0670696 0.374804 -2.27929e-21)
         12.6             (0.0669891 0.375438 -2.26724e-21)
        12.65             (0.0669069 0.37606 -2.25559e-21)
         12.7             (0.0668228 0.376668 -2.24405e-21)
        12.75             (0.0667381 0.377261 -2.23194e-21)
         12.8             (0.066652 0.377841 -2.21796e-21)
        12.85             (0.0665642 0.378406 -2.20461e-21)
         12.9             (0.0664746 0.378959 -2.19333e-21)
        12.95             (0.0663837 0.3795 -2.18132e-21)
           13             (0.0662915 0.38003 -2.16992e-21)
        13.05             (0.0661949 0.380545 -2.15869e-21)
         13.1             (0.066095 0.381046 -2.14735e-21)
        13.15             (0.0659905 0.381534 -2.13702e-21)
         13.2             (0.0658838 0.382007 -2.12697e-21)
        13.25             (0.0657736 0.382467 -2.11763e-21)
         13.3             (0.0656615 0.382914 -2.10697e-21)
        13.35             (0.0655464 0.383348 -2.09592e-21)
         13.4             (0.06543 0.383769 -2.08385e-21)
        13.45             (0.0653107 0.384175 -2.07167e-21)
         13.5             (0.0651889 0.384569 -2.06107e-21)
        13.55             (0.065064 0.38495 -2.05065e-21)
         13.6             (0.0649354 0.385319 -2.04048e-21)
        13.65             (0.0648049 0.385674 -2.02964e-21)
         13.7             (0.0646711 0.386018 -2.01942e-21)
        13.75             (0.0645332 0.386348 -2.01054e-21)
         13.8             (0.064391 0.386663 -2.00083e-21)
        13.85             (0.0642451 0.386967 -1.99091e-21)
         13.9             (0.0640961 0.387256 -1.98041e-21)
        13.95             (0.0639447 0.38753 -1.97016e-21)
           14             (0.0637902 0.387792 -1.96021e-21)
        14.05             (0.0636324 0.388041 -1.95028e-21)
         14.1             (0.0634712 0.388277 -1.94034e-21)
        14.15             (0.0633059 0.388502 -1.93205e-21)
         14.2             (0.0631379 0.388716 -1.92336e-21)
        14.25             (0.0629668 0.388918 -1.91462e-21)
         14.3             (0.0627925 0.389107 -1.90506e-21)
        14.35             (0.0626151 0.389282 -1.8952e-21)
         14.4             (0.0624346 0.389446 -1.88601e-21)
        14.45             (0.0622496 0.389596 -1.87708e-21)
         14.5             (0.0620623 0.389735 -1.86769e-21)
        14.55             (0.0618719 0.389861 -1.85879e-21)
         14.6             (0.061678 0.389976 -1.85069e-21)
        14.65             (0.0614808 0.390079 -1.84182e-21)
         14.7             (0.0612806 0.390171 -1.83315e-21)
        14.75             (0.0610777 0.39025 -1.8247e-21)
         14.8             (0.0608717 0.390319 -1.81641e-21)
        14.85             (0.0606627 0.390375 -1.80713e-21)
         14.9             (0.0604518 0.390419 -1.79713e-21)
        14.95             (0.0602403 0.390452 -1.78926e-21)
           15             (0.0600266 0.390473 -1.78141e-21)
        15.05             (0.0598087 0.39048 -1.77364e-21)
         15.1             (0.0595858 0.390473 -1.76583e-21)
        15.15             (0.0593644 0.390452 -1.75661e-21)
         15.2             (0.0591421 0.390419 -1.74823e-21)
        15.25             (0.0589192 0.390375 -1.74062e-21)
         15.3             (0.0586963 0.390321 -1.73257e-21)
        15.35             (0.0584709 0.390254 -1.72401e-21)
         15.4             (0.0582455 0.390176 -1.71563e-21)
        15.45             (0.0580203 0.390087 -1.70747e-21)
         15.5             (0.0577956 0.389987 -1.69943e-21)
        15.55             (0.0575711 0.389876 -1.69218e-21)
         15.6             (0.0573466 0.389753 -1.68433e-21)
        15.65             (0.0571229 0.389619 -1.67683e-21)
         15.7             (0.0569001 0.389473 -1.66877e-21)
        15.75             (0.056679 0.389318 -1.66095e-21)
         15.8             (0.0564601 0.389152 -1.65236e-21)
        15.85             (0.0562435 0.388975 -1.64382e-21)
         15.9             (0.0560295 0.388788 -1.63639e-21)
        15.95             (0.055818 0.388591 -1.62866e-21)
           16             (0.055609 0.388384 -1.62088e-21)
        16.05             (0.055407 0.388171 -1.61337e-21)
         16.1             (0.0552093 0.38795 -1.60708e-21)
        16.15             (0.0550167 0.38772 -1.59881e-21)
         16.2             (0.0548289 0.38748 -1.59001e-21)
        16.25             (0.0546438 0.387228 -1.58068e-21)
         16.3             (0.054463 0.386968 -1.57367e-21)
        16.35             (0.0542877 0.386699 -1.5657e-21)
         16.4             (0.0541189 0.386423 -1.55874e-21)
        16.45             (0.0539564 0.38614 -1.55076e-21)
         16.5             (0.0538002 0.385851 -1.54284e-21)
        16.55             (0.0536509 0.385555 -1.53469e-21)
         16.6             (0.0535093 0.385251 -1.5266e-21)
        16.65             (0.0533748 0.384943 -1.51858e-21)
         16.7             (0.0532482 0.384629 -1.51057e-21)
        16.75             (0.0531302 0.38431 -1.50263e-21)
         16.8             (0.0530207 0.383985 -1.4945e-21)
        16.85             (0.0529197 0.383657 -1.48792e-21)
         16.9             (0.0528277 0.383325 -1.4799e-21)
        16.95             (0.0527447 0.38299 -1.47156e-21)
           17             (0.0526711 0.382652 -1.46349e-21)
        17.05             (0.0526067 0.382311 -1.4552e-21)
         17.1             (0.0525519 0.381968 -1.44772e-21)
        17.15             (0.0525068 0.381623 -1.44029e-21)
         17.2             (0.0524707 0.381275 -1.43261e-21)
        17.25             (0.0524446 0.380928 -1.42577e-21)
         17.3             (0.0524284 0.380581 -1.41719e-21)
        17.35             (0.0524232 0.380233 -1.40907e-21)
         17.4             (0.0524289 0.379887 -1.40197e-21)
        17.45             (0.0524452 0.379542 -1.39427e-21)
         17.5             (0.052472 0.379199 -1.38671e-21)
        17.55             (0.05251 0.378858 -1.37846e-21)
         17.6             (0.0525573 0.378518 -1.3707e-21)
        17.65             (0.0526138 0.378179 -1.36314e-21)
         17.7             (0.0526797 0.377843 -1.35545e-21)
        17.75             (0.0527554 0.377508 -1.34781e-21)
         17.8             (0.0528412 0.377179 -1.34032e-21)
        17.85             (0.0529372 0.376853 -1.33265e-21)
         17.9             (0.0530432 0.376533 -1.3249e-21)
        17.95             (0.0531592 0.376219 -1.31761e-21)
           18             (0.0532843 0.37591 -1.3105e-21)
        18.05             (0.0534189 0.375608 -1.30326e-21)
         18.1             (0.0535626 0.375312 -1.29591e-21)
        18.15             (0.0537152 0.375024 -1.28877e-21)
         18.2             (0.0538768 0.374745 -1.2821e-21)
        18.25             (0.0540475 0.374475 -1.27491e-21)
         18.3             (0.054226 0.374213 -1.26774e-21)
        18.35             (0.0544124 0.37396 -1.26116e-21)
         18.4             (0.0546059 0.373718 -1.25438e-21)
        18.45             (0.0548079 0.373484 -1.24722e-21)
         18.5             (0.0550196 0.373258 -1.23953e-21)
        18.55             (0.055236 0.373041 -1.23355e-21)
         18.6             (0.0554599 0.372835 -1.22615e-21)
        18.65             (0.0556905 0.372639 -1.21965e-21)
         18.7             (0.0559254 0.372453 -1.21332e-21)
        18.75             (0.0561659 0.372278 -1.20683e-21)
         18.8             (0.0564105 0.372113 -1.2007e-21)
        18.85             (0.0566592 0.37196 -1.19444e-21)
         18.9             (0.056912 0.371818 -1.18825e-21)
        18.95             (0.0571689 0.371689 -1.18199e-21)
           19             (0.0574304 0.371572 -1.17565e-21)
        19.05             (0.0576936 0.371467 -1.16991e-21)
         19.1             (0.0579603 0.371371 -1.16358e-21)
        19.15             (0.0582293 0.371287 -1.15804e-21)
         19.2             (0.0585011 0.371215 -1.15172e-21)
        19.25             (0.0587755 0.371155 -1.1457e-21)
         19.3             (0.0590526 0.371109 -1.14011e-21)
        19.35             (0.0593302 0.371075 -1.13426e-21)
         19.4             (0.0596095 0.371054 -1.12857e-21)
        19.45             (0.0598872 0.371046 -1.1236e-21)
         19.5             (0.0601651 0.371051 -1.11826e-21)
        19.55             (0.0604437 0.371068 -1.11254e-21)
         19.6             (0.0607214 0.371098 -1.10721e-21)
        19.65             (0.0609971 0.371142 -1.10217e-21)
         19.7             (0.0612705 0.371196 -1.0968e-21)
        19.75             (0.061542 0.371262 -1.09155e-21)
         19.8             (0.061811 0.37134 -1.08647e-21)
        19.85             (0.0620785 0.371431 -1.08167e-21)
         19.9             (0.062344 0.371534 -1.07658e-21)
        19.95             (0.0626062 0.37165 -1.07166e-21)
           20             (0.0628649 0.371778 -1.06716e-21)
        20.05             (0.0631197 0.371918 -1.06323e-21)
         20.1             (0.0633699 0.37207 -1.05894e-21)
        20.15             (0.063616 0.372234 -1.05399e-21)
         20.2             (0.0638575 0.372408 -1.04962e-21)
        20.25             (0.0640938 0.372594 -1.04545e-21)
         20.3             (0.0643244 0.372791 -1.04118e-21)
        20.35             (0.0645498 0.372999 -1.03673e-21)
         20.4             (0.0647693 0.373217 -1.03242e-21)
        20.45             (0.0649826 0.373445 -1.02872e-21)
         20.5             (0.0651892 0.373685 -1.02479e-21)
        20.55             (0.0653893 0.373935 -1.02107e-21)
         20.6             (0.0655819 0.374196 -1.01756e-21)
        20.65             (0.0657682 0.374465 -1.01351e-21)
         20.7             (0.0659472 0.374745 -1.00979e-21)
        20.75             (0.0661189 0.375033 -1.0062e-21)
         20.8             (0.066283 0.37533 -1.00257e-21)
        20.85             (0.0664393 0.375635 -9.99016e-22)
         20.9             (0.0665876 0.375949 -9.95482e-22)
        20.95             (0.0667278 0.376271 -9.92311e-22)
           21             (0.0668598 0.376602 -9.89276e-22)
        21.05             (0.0669834 0.376941 -9.86106e-22)
         21.1             (0.0670986 0.377287 -9.82762e-22)
        21.15             (0.067205 0.37764 -9.79316e-22)
         21.2             (0.0673032 0.378 -9.76551e-22)
        21.25             (0.067393 0.378369 -9.73972e-22)
         21.3             (0.0674741 0.378744 -9.70798e-22)
        21.35             (0.0675465 0.379124 -9.6813e-22)
         21.4             (0.0676099 0.379511 -9.64743e-22)
        21.45             (0.0676642 0.379903 -9.61879e-22)
         21.5             (0.0677097 0.3803 -9.59094e-22)
        21.55             (0.0677467 0.380702 -9.56352e-22)
         21.6             (0.0677737 0.38111 -9.53375e-22)
        21.65             (0.0677905 0.381524 -9.50856e-22)
         21.7             (0.0677966 0.381944 -9.48395e-22)
        21.75             (0.067792 0.38237 -9.45993e-22)
         21.8             (0.0677779 0.3828 -9.43451e-22)
        21.85             (0.0677543 0.383235 -9.40957e-22)
         21.9             (0.0677212 0.383673 -9.38522e-22)
        21.95             (0.0676791 0.384116 -9.36086e-22)
           22             (0.0676271 0.384562 -9.33694e-22)
        22.05             (0.0675645 0.385012 -9.31318e-22)
         22.1             (0.0674914 0.385468 -9.2961e-22)
        22.15             (0.0674083 0.385928 -9.27558e-22)
         22.2             (0.0673162 0.38639 -9.2514e-22)
        22.25             (0.0672146 0.386853 -9.22711e-22)
         22.3             (0.0671039 0.387321 -9.21152e-22)
        22.35             (0.0669837 0.387793 -9.19188e-22)
         22.4             (0.0668539 0.388266 -9.16541e-22)
        22.45             (0.0667155 0.388742 -9.1542e-22)
         22.5             (0.0665681 0.389221 -9.13538e-22)
        22.55             (0.0664116 0.389701 -9.11449e-22)
         22.6             (0.0662467 0.390183 -9.09281e-22)
        22.65             (0.0660721 0.390666 -9.0739e-22)
         22.7             (0.0658891 0.39115 -9.05386e-22)
        22.75             (0.0656974 0.391637 -9.03447e-22)
         22.8             (0.0654947 0.392122 -9.01539e-22)
        22.85             (0.0652804 0.392606 -8.99853e-22)
         22.9             (0.0650578 0.39309 -8.98041e-22)
        22.95             (0.0648267 0.393575 -8.96478e-22)
           23             (0.064587 0.394059 -8.94685e-22)
        23.05             (0.0643393 0.394543 -8.92846e-22)
         23.1             (0.0640848 0.395024 -8.90786e-22)
        23.15             (0.0638174 0.395508 -8.89886e-22)
         23.2             (0.0635388 0.395995 -8.88519e-22)
        23.25             (0.0632526 0.396481 -8.86732e-22)
         23.3             (0.0629585 0.396966 -8.85023e-22)
        23.35             (0.0626548 0.397451 -8.83253e-22)
         23.4             (0.0623419 0.397938 -8.82218e-22)
        23.45             (0.0620201 0.398424 -8.80864e-22)
         23.5             (0.0616902 0.398907 -8.78702e-22)
        23.55             (0.0613535 0.399392 -8.77829e-22)
         23.6             (0.0610094 0.399875 -8.76231e-22)
        23.65             (0.0606573 0.400356 -8.74247e-22)
         23.7             (0.0602994 0.400838 -8.73479e-22)
        23.75             (0.0599336 0.401318 -8.72158e-22)
         23.8             (0.0595598 0.401797 -8.70906e-22)
        23.85             (0.0591788 0.402275 -8.69525e-22)
         23.9             (0.0587908 0.402752 -8.68001e-22)
        23.95             (0.0583957 0.403227 -8.66661e-22)
           24             (0.0579932 0.403701 -8.65256e-22)
        24.05             (0.0575838 0.404174 -8.64029e-22)
         24.1             (0.0571695 0.404649 -8.62695e-22)
        24.15             (0.0567449 0.405117 -8.61545e-22)
         24.2             (0.0563118 0.40558 -8.60309e-22)
        24.25             (0.0558729 0.406042 -8.58906e-22)
         24.3             (0.0554277 0.406501 -8.57622e-22)
        24.35             (0.0549762 0.406957 -8.56515e-22)
         24.4             (0.0545212 0.407407 -8.54848e-22)
        24.45             (0.0540532 0.407863 -8.54487e-22)
         24.5             (0.0535775 0.408319 -8.53458e-22)
        24.55             (0.0530957 0.408772 -8.52228e-22)
         24.6             (0.0526075 0.409222 -8.5076e-22)
        24.65             (0.0521129 0.409671 -8.49803e-22)
         24.7             (0.0516129 0.41012 -8.49032e-22)
        24.75             (0.0511069 0.410569 -8.48014e-22)
         24.8             (0.0505956 0.411016 -8.47724e-22)
        24.85             (0.0500806 0.411458 -8.45911e-22)
         24.9             (0.0495602 0.411898 -8.44752e-22)
        24.95             (0.049035 0.412335 -8.43542e-22)
           25             (0.0485048 0.412771 -8.42458e-22)
        25.05             (0.0479701 0.413204 -8.41403e-22)
         25.1             (0.0474302 0.413636 -8.4015e-22)
        25.15             (0.0468861 0.414065 -8.39047e-22)