# Probe 0 (3 0 0)
#       Probe             0
#        Time
         0.05             (0.370234 0.224231 0)
          0.1             (0.135935 0.202124 0)
         0.15             (0.158407 0.206866 0)
          0.2             (0.152415 0.20708 0)
         0.25             (0.152343 0.207353 0)
          0.3             (0.150772 0.208491 0)
         0.35             (0.150488 0.209101 0)
          0.4             (0.149449 0.210282 0)
         0.45             (0.148893 0.210874 0)
          0.5             (0.147977 0.211887 0)
         0.55             (0.147143 0.212383 0)
          0.6             (0.146235 0.213158 0)
         0.65             (0.145286 0.213767 0)
          0.7             (0.144309 0.214524 0)
         0.75             (0.143323 0.215083 0)
          0.8             (0.142338 0.215729 0)
         0.85             (0.141364 0.216355 0)
          0.9             (0.14038 0.21698 0)
         0.95             (0.139416 0.217591 0)
            1             (0.138448 0.21821 0)
         1.05             (0.137499 0.218809 0)
          1.1             (0.136551 0.219426 0)
         1.15             (0.13562 0.22002 0)
          1.2             (0.134696 0.220627 0)
         1.25             (0.133781 0.221232 0)
          1.3             (0.132876 0.221839 0)
         1.35             (0.131979 0.222447 0)
          1.4             (0.13109 0.223056 0)
         1.45             (0.13021 0.223669 0)
          1.5             (0.129338 0.224285 0)
         1.55             (0.128474 0.224904 0)
          1.6             (0.127619 0.225526 0)
         1.65             (0.126771 0.22615 0)
          1.7             (0.125929 0.226776 0)
         1.75             (0.125092 0.227406 0)
          1.8             (0.124262 0.228038 0)
         1.85             (0.123437 0.228673 0)
          1.9             (0.122618 0.229311 0)
         1.95             (0.121802 0.229953 0)
            2             (0.120992 0.230597 0)
         2.05             (0.120185 0.231247 0)
          2.1             (0.119382 0.231898 0)
         2.15             (0.118582 0.232556 0)
          2.2             (0.117786 0.233214 0)
         2.25             (0.116993 0.23388 0)
          2.3             (0.116203 0.234546 0)
         2.35             (0.115415 0.235222 0)
          2.4             (0.114629 0.235896 0)
         2.45             (0.113845 0.236579 0)
          2.5             (0.113063 0.237266 0)
         2.55             (0.112283 0.237955 0)
          2.6             (0.111504 0.238651 0)
         2.65             (0.110726 0.239349 0)
          2.7             (0.109949 0.240054 0)
         2.75             (0.109173 0.240761 0)
          2.8             (0.108398 0.241476 0)
         2.85             (0.107624 0.242192 0)
          2.9             (0.10685 0.242916 0)
         2.95             (0.106076 0.243642 0)
            3             (0.105303 0.244376 0)
         3.05             (0.10453 0.245112 0)
          3.1             (0.103757 0.245854 0)
         3.15             (0.102983 0.246601 0)
          3.2             (0.10221 0.247352 0)
         3.25             (0.101437 0.248109 0)
          3.3             (0.100663 0.248869 0)
         3.35             (0.0998898 0.249635 0)
          3.4             (0.0991161 0.250405 0)
         3.45             (0.0983421 0.25118 0)
          3.5             (0.097568 0.25196 0)
         3.55             (0.0967934 0.252745 0)
          3.6             (0.0960188 0.253535 0)
         3.65             (0.095244 0.25433 0)
          3.7             (0.094469 0.255128 0)
         3.75             (0.0936939 0.255932 0)
          3.8             (0.0929185 0.256739 0)
         3.85             (0.0921432 0.257553 0)
          3.9             (0.0913675 0.258369 0)
         3.95             (0.0905921 0.259191 0)
            4             (0.0898165 0.260017 0)
         4.05             (0.0890412 0.260847 0)
          4.1             (0.0882659 0.26168 0)
         4.15             (0.0874906 0.262519 0)
          4.2             (0.0867154 0.26336 0)
         4.25             (0.0859405 0.264207 0)
          4.3             (0.0851661 0.265056 0)
         4.35             (0.0843919 0.26591 0)
          4.4             (0.0836183 0.266767 0)
         4.45             (0.0828452 0.267629 0)
          4.5             (0.0820723 0.268492 0)
         4.55             (0.0813001 0.26936 0)
          4.6             (0.0805285 0.27023 0)
         4.65             (0.0797573 0.271105 0)
          4.7             (0.0789874 0.27198 0)
         4.75             (0.0782177 0.27286 0)
          4.8             (0.0774494 0.273741 0)
         4.85             (0.0766815 0.274625 0)
          4.9             (0.0759144 0.275512 0)
         4.95             (0.0751482 0.276401 0)
            5             (0.074383 0.277291 0)
         5.05             (0.0736188 0.278184 0)
          5.1             (0.0728558 0.279079 0)
         5.15             (0.0720937 0.279974 0)
          5.2             (0.0713326 0.280871 0)
         5.25             (0.0705728 0.28177 0)
          5.3             (0.0698138 0.28267 0)
         5.35             (0.0690558 0.283571 0)
          5.4             (0.0682988 0.284473 0)
         5.45             (0.0675431 0.285375 0)
          5.5             (0.0667884 0.286279 0)
         5.55             (0.0660346 0.287182 0)
          5.6             (0.0652818 0.288086 0)
         5.65             (0.0645302 0.288989 0)
          5.7             (0.0637798 0.289893 0)
         5.75             (0.0630302 0.290796 0)
          5.8             (0.0622815 0.291699 0)
         5.85             (0.0615337 0.292601 0)
          5.9             (0.0607868 0.293502 0)
         5.95             (0.0600405 0.294403 0)
            6             (0.059295 0.295302 0)
         6.05             (0.0585501 0.2962 0)
          6.1             (0.057806 0.297096 0)
         6.15             (0.0570628 0.29799 0)
          6.2             (0.0563196 0.298882 0)
         6.25             (0.055577 0.299773 0)
          6.3             (0.0548349 0.300661 0)
         6.35             (0.0540933 0.301547 0)
          6.4             (0.0533518 0.30243 0)
         6.45             (0.0526102 0.30331 0)
          6.5             (0.051869 0.304188 0)
         6.55             (0.0511277 0.305062 0)
          6.6             (0.0503868 0.305933 0)
         6.65             (0.049645 0.3068 0)
          6.7             (0.0489033 0.307664 0)
         6.75             (0.0481611 0.308524 0)
          6.8             (0.0474194 0.309383 0)
         6.85             (0.0466769 0.310236 0)
          6.9             (0.0459339 0.311085 0)
         6.95             (0.0451901 0.31193 0)
            7             (0.0444457 0.312769 0)
         7.05             (0.0437004 0.313603 0)
          7.1             (0.0429545 0.314431 0)
         7.15             (0.0422067 0.315254 0)
          7.2             (0.0414576 0.316071 0)
         7.25             (0.0407072 0.316883 0)
          7.3             (0.0399558 0.317689 0)
         7.35             (0.0392021 0.318488 0)
          7.4             (0.0384466 0.31928 0)
         7.45             (0.0376893 0.320066 0)
          7.5             (0.0369301 0.320845 0)
         7.55             (0.0361689 0.321617 0)
          7.6             (0.0354062 0.322381 0)
         7.65             (0.0346402 0.323138 0)
          7.7             (0.0338719 0.323887 0)
         7.75             (0.0331011 0.324629 0)
          7.8             (0.0323276 0.325362 0)
         7.85             (0.0315514 0.326086 0)
          7.9             (0.0307722 0.326802 0)
         7.95             (0.0299899 0.327509 0)
            8             (0.0292044 0.328207 0)
         8.05             (0.0284161 0.328895 0)
          8.1             (0.0276245 0.329574 0)
         8.15             (0.0268295 0.330244 0)
          8.2             (0.026031 0.330903 0)
         8.25             (0.0252293 0.331553 0)
          8.3             (0.0244237 0.332192 0)
         8.35             (0.0236146 0.33282 0)
          8.4             (0.0228016 0.333438 0)
         8.45             (0.0219852 0.334045 0)
          8.5             (0.0211648 0.33464 0)
         8.55             (0.0203406 0.335224 0)
          8.6             (0.0195126 0.335796 0)
         8.65             (0.0186808 0.336356 0)
          8.7             (0.0178449 0.336904 0)
         8.75             (0.0170052 0.33744 0)
          8.8             (0.0161614 0.337964 0)
         8.85             (0.0153138 0.338474 0)
          8.9             (0.0144623 0.338972 0)
         8.95             (0.0136068 0.339457 0)
            9             (0.0127476 0.339928 0)
         9.05             (0.0118848 0.340386 0)
          9.1             (0.0110184 0.34083 0)
         9.15             (0.0101485 0.341261 0)
          9.2             (0.00927504 0.341677 0)
         9.25             (0.00839849 0.34208 0)
          9.3             (0.00751837 0.342468 0)
         9.35             (0.00663511 0.342842 0)
          9.4             (0.00574885 0.343201 0)
         9.45             (0.00485971 0.343545 0)
          9.5             (0.00396787 0.343874 0)
         9.55             (0.00307365 0.344188 0)
          9.6             (0.00217712 0.344487 0)
         9.65             (0.00127845 0.34477 0)
          9.7             (0.000377747 0.345037 0)
         9.75             (-0.000524391 0.345289 0)
          9.8             (-0.0014278 0.345525 0)
         9.85             (-0.00233233 0.345745 0)
          9.9             (-0.0032378 0.345949 0)
         9.95             (-0.00414369 0.346137 0)
           10             (-0.00504973 0.346309 0)
