/*--------------------------------*- C++ -*----------------------------------*\
  =========                 |
  \\      /  F ield         | OpenFOAM: The Open Source CFD Toolbox
   \\    /   O peration     | Website:  https://openfoam.org
    \\  /    A nd           | Version:  7
     \\/     M anipulation  |
\*---------------------------------------------------------------------------*/
FoamFile
{
    version     2.0;
    format      ascii;
    class       volScalarField;
    location    "0.45";
    object      p;
}
// * * * * * * * * * * * * * * * * * * * * * * * * * * * * * * * * * * * * * //

dimensions      [0 2 -2 0 0 0 0];

internalField   nonuniform List<scalar> 
400
(
2.94528e-06
-0.00590131
-0.0130516
-0.0184965
-0.0205188
-0.0183266
-0.0118564
-0.00155447
0.0117828
0.0271137
0.0432292
0.0588273
0.0725999
0.0833422
0.0900929
0.0923062
0.0900619
0.0842893
0.076897
0.0710244
0.00582709
-0.000244582
-0.00577852
-0.00949129
-0.0105393
-0.00837228
-0.00291674
0.00551237
0.0163202
0.0287043
0.041716
0.0543267
0.0655051
0.0743122
0.0800143
0.0822105
0.0809815
0.0769865
0.071256
0.06524
0.013394
0.00496152
-0.00101198
-0.00442856
-0.00528132
-0.00327323
0.00159193
0.00901473
0.0184858
0.0293289
0.0407406
0.0518405
0.0617355
0.0696004
0.0747697
0.0768399
0.0758013
0.0720576
0.065832
0.0574349
0.0202046
0.00859223
0.00120144
-0.00268006
-0.00373939
-0.00190395
0.00271238
0.00976493
0.0187597
0.0290731
0.0399686
0.0506291
0.0602064
0.0678882
0.0729749
0.074972
0.0737312
0.0694354
0.0616622
0.0499969
0.024591
0.00964503
0.000568959
-0.00398976
-0.005312
-0.00351881
0.00116238
0.00832024
0.017445
0.0279291
0.0390616
0.0500429
0.0600183
0.0681315
0.0735914
0.0757608
0.0743255
0.0692659
0.0596123
0.0444082
0.0252961
0.00699722
-0.00382027
-0.00905314
-0.0105169
-0.00850704
-0.00336514
0.00441848
0.0142991
0.0256609
0.0377914
0.0498763
0.0610164
0.0702673
0.0766962
0.0794752
0.0780879
0.0723071
0.0606555
0.0417307
0.0212442
-0.000439568
-0.0129487
-0.0186971
-0.0200289
-0.017416
-0.0113222
-0.00232674
0.0089794
0.0219607
0.0358892
0.0499184
0.0630803
0.0743078
0.0824803
0.0865225
0.0856604
0.0794163
0.065768
0.0428762
0.0113318
-0.013819
-0.0278819
-0.0338306
-0.0345943
-0.0308526
-0.0232104
-0.0123467
0.00109853
0.0164723
0.033035
0.0499094
0.0660517
0.0802506
0.091155
0.0973756
0.0977968
0.0915968
0.0760771
0.0488752
-0.00573065
-0.0344901
-0.0498652
-0.0555096
-0.0550701
-0.0495009
-0.0395833
-0.026108
-0.00975739
0.00881662
0.0288878
0.0495723
0.069767
0.0881139
0.102997
0.112637
0.115459
0.110138
0.0930496
0.0611086
-0.0315582
-0.0641218
-0.0803945
-0.084948
-0.0823865
-0.0740541
-0.0609618
-0.0440236
-0.0239448
-0.00133678
0.0231382
0.0486445
0.0740679
0.0979314
0.118341
0.133051
0.139873
0.136742
0.118691
0.0815447
-0.0682821
-0.104869
-0.121297
-0.123505
-0.117466
-0.105091
-0.08769
-0.0663045
-0.0416228
-0.0141481
0.0156055
0.0469435
0.0788333
0.109755
0.137566
0.159498
0.172581
0.173667
0.155801
0.113057
-0.118894
-0.159637
-0.174832
-0.172642
-0.161082
-0.142883
-0.119723
-0.0927491
-0.0625564
-0.0294326
0.0063816
0.0444729
0.0840412
0.12367
0.161079
0.192987
0.215486
0.223918
0.208348
0.159936
-0.187946
-0.232523
-0.24381
-0.233802
-0.213615
-0.187101
-0.156331
-0.122469
-0.0858719
-0.0464503
-0.00399691
0.0415494
0.0898408
0.139809
0.18927
0.234586
0.270858
0.291444
0.282028
0.228816
-0.283065
-0.329542
-0.331643
-0.308112
-0.274628
-0.236389
-0.195726
-0.15358
-0.109813
-0.0637189
-0.0144117
0.0388876
0.0965712
0.158277
0.222346
0.285199
0.341163
0.381277
0.385109
0.330524
-0.418188
-0.459748
-0.442073
-0.395628
-0.342073
-0.28771
-0.234594
-0.182911
-0.131589
-0.0789584
-0.0231803
0.0375157
0.104596
0.178875
0.259878
0.344929
0.428404
0.499307
0.529617
0.483715
-0.619426
-0.636582
-0.578333
-0.494083
-0.411227
-0.335655
-0.267778
-0.205969
-0.147524
-0.0893576
-0.028387
0.038403
0.113875
0.200548
0.300047
0.41206
0.532933
0.651422
0.732442
0.720594
-0.935599
-0.87818
-0.741682
-0.598056
-0.47439
-0.372626
-0.288844
-0.217739
-0.153926
-0.0924293
-0.0286771
0.0417511
0.123334
0.2208
0.339
0.482242
0.652264
0.841648
1.01495
1.09628
-1.48059
-1.20196
-0.921
-0.692546
-0.517676
-0.387701
-0.290194
-0.213425
-0.148162
-0.0872097
-0.0245284
0.0455585
0.129101
0.233297
0.367361
0.543121
0.772629
1.06029
1.39818
1.73407
-2.57157
-1.60192
-1.04347
-0.714828
-0.497798
-0.353386
-0.255529
-0.184283
-0.126595
-0.0737838
-0.01921
0.0430643
0.119762
0.219651
0.356003
0.549821
0.829811
1.23507
1.8811
2.95926
-4.44511
-2.01727
-0.969796
-0.564338
-0.357044
-0.239033
-0.169355
-0.123296
-0.0871842
-0.0533693
-0.0166775
0.0275132
0.0842977
0.161193
0.271577
0.441361
0.718803
1.2215
2.38402
4.92939
)
;

boundaryField
{
    movingWall
    {
        type            zeroGradient;
    }
    fixedWalls
    {
        type            zeroGradient;
    }
    frontAndBack
    {
        type            empty;
    }
}


// ************************************************************************* //
