/*--------------------------------*- C++ -*----------------------------------*\
  =========                 |
  \\      /  F ield         | OpenFOAM: The Open Source CFD Toolbox
   \\    /   O peration     | Website:  https://openfoam.org
    \\  /    A nd           | Version:  7
     \\/     M anipulation  |
\*---------------------------------------------------------------------------*/
FoamFile
{
    version     2.0;
    format      ascii;
    class       volScalarField;
    location    "9.2";
    object      p;
}
// * * * * * * * * * * * * * * * * * * * * * * * * * * * * * * * * * * * * * //

dimensions      [0 2 -2 0 0 0 0];

internalField   nonuniform List<scalar> 
32000
(
0.206164
0.206853
0.20727
0.2077
0.208106
0.208489
0.208841
0.209162
0.209469
0.209779
0.210107
0.210466
0.210866
0.211318
0.211836
0.212434
0.213128
0.213933
0.214867
0.215945
0.217177
0.218571
0.220131
0.221858
0.223753
0.225814
0.228035
0.230409
0.232927
0.235578
0.238352
0.24124
0.244226
0.247296
0.250435
0.253629
0.256864
0.26013
0.263402
0.266611
0.206413
0.207081
0.207475
0.207874
0.208249
0.208602
0.208924
0.209214
0.209491
0.20977
0.210064
0.210387
0.210749
0.211162
0.211639
0.212192
0.212835
0.213584
0.214457
0.21547
0.216631
0.217949
0.219426
0.221065
0.222866
0.22483
0.226951
0.229224
0.23164
0.23419
0.236865
0.239653
0.242543
0.24552
0.248571
0.251681
0.254836
0.258027
0.261221
0.264365
0.206665
0.20731
0.20768
0.208049
0.208392
0.208713
0.209004
0.209265
0.209513
0.209764
0.210027
0.210315
0.210642
0.211018
0.211456
0.211967
0.212564
0.213264
0.214082
0.215035
0.216132
0.217379
0.21878
0.220336
0.222049
0.223919
0.225945
0.22812
0.230438
0.23289
0.235467
0.238159
0.240953
0.243837
0.246798
0.249821
0.252895
0.256008
0.259122
0.262196
0.206911
0.207527
0.207876
0.208219
0.208531
0.20882
0.209082
0.209317
0.209539
0.209763
0.209997
0.210254
0.210548
0.21089
0.211291
0.211764
0.212321
0.212976
0.213746
0.214645
0.215683
0.216865
0.218194
0.219672
0.221301
0.223083
0.225018
0.2271
0.229323
0.23168
0.234162
0.236758
0.239458
0.242249
0.245119
0.248055
0.251045
0.254077
0.257109
0.26011
0.207162
0.207749
0.208076
0.208392
0.208674
0.208932
0.209165
0.209375
0.209574
0.209771
0.209978
0.210206
0.210469
0.21078
0.211148
0.211586
0.212106
0.212722
0.213448
0.214299
0.215283
0.216404
0.217666
0.219071
0.220622
0.222322
0.22417
0.226164
0.228297
0.230561
0.23295
0.235452
0.238059
0.240757
0.243537
0.246384
0.24929
0.252241
0.255187
0.258113
0.207416
0.207968
0.208273
0.208564
0.208817
0.209046
0.209252
0.209438
0.209613
0.209788
0.209969
0.210171
0.210406
0.210688
0.211027
0.211434
0.211922
0.212503
0.213191
0.213998
0.214933
0.215999
0.217198
0.218535
0.220013
0.221636
0.223403
0.225312
0.227358
0.229534
0.231832
0.234243
0.236758
0.239366
0.242055
0.244814
0.247633
0.250501
0.253359
0.256207
0.207675
0.208191
0.208474
0.208738
0.208964
0.209166
0.209346
0.209508
0.209662
0.209814
0.209973
0.210151
0.210361
0.210617
0.21093
0.21131
0.21177
0.212321
0.212975
0.213744
0.214634
0.215648
0.21679
0.218064
0.219475
0.221026
0.222717
0.224547
0.22651
0.2286
0.23081
0.233133
0.235558
0.238076
0.240676
0.243346
0.246079
0.248862
0.251631
0.254399
0.20794
0.208417
0.208677
0.208916
0.209116
0.209291
0.209446
0.209587
0.20972
0.209852
0.20999
0.210147
0.210336
0.21057
0.210859
0.211216
0.211652
0.212177
0.212802
0.213537
0.214386
0.215354
0.216443
0.21766
0.219009
0.220494
0.222114
0.223869
0.225753
0.227761
0.229887
0.232123
0.234462
0.236891
0.239402
0.241984
0.24463
0.247327
0.250005
0.252692
0.20821
0.208645
0.208882
0.209097
0.209272
0.209423
0.209555
0.209674
0.209788
0.209901
0.210022
0.210161
0.210331
0.210545
0.210815
0.211153
0.211569
0.212073
0.212673
0.213378
0.214191
0.215116
0.216159
0.217324
0.218616
0.220039
0.221594
0.223278
0.225087
0.227017
0.229062
0.231216
0.233469
0.235812
0.238236
0.24073
0.24329
0.2459
0.248486
0.25109
0.208484
0.208876
0.20909
0.209281
0.209433
0.209561
0.209671
0.20977
0.209866
0.209963
0.210068
0.210192
0.210347
0.210545
0.210799
0.211122
0.211522
0.212009
0.212589
0.213267
0.214048
0.214936
0.215937
0.217055
0.218297
0.219664
0.221157
0.222775
0.224514
0.22637
0.228338
0.230412
0.232583
0.234841
0.237179
0.239587
0.242059
0.244583
0.247077
0.249596
0.208763
0.209109
0.209301
0.209468
0.209599
0.209705
0.209795
0.209876
0.209955
0.210037
0.21013
0.210243
0.210385
0.210571
0.210813
0.211124
0.211513
0.211986
0.212549
0.213205
0.213959
0.214815
0.215779
0.216856
0.218051
0.219367
0.220804
0.22236
0.224033
0.22582
0.227715
0.229712
0.231803
0.233979
0.236233
0.238555
0.240941
0.243378
0.24578
0.248215
0.209048
0.209346
0.209513
0.209658
0.209769
0.209856
0.209927
0.20999
0.210055
0.210126
0.210208
0.210311
0.210445
0.210622
0.210856
0.21116
0.211541
0.212005
0.212554
0.213192
0.213923
0.214752
0.215684
0.216725
0.217879
0.21915
0.220535
0.222035
0.223646
0.225367
0.227192
0.229116
0.231131
0.233227
0.235399
0.237637
0.239938
0.242289
0.244598
0.246947
0.209338
0.209585
0.209729
0.209852
0.209942
0.210011
0.210066
0.210115
0.210167
0.210228
0.210303
0.210399
0.210527
0.2107
0.210931
0.211231
0.211608
0.212064
0.212603
0.213227
0.21394
0.214747
0.215652
0.216663
0.217782
0.219011
0.22035
0.221797
0.223351
0.225011
0.226771
0.228626
0.230567
0.232587
0.234678
0.236833
0.23905
0.241316
0.243534
0.245797
0.209634
0.209827
0.209947
0.210048
0.21012
0.210172
0.210212
0.210248
0.21029
0.210343
0.210413
0.210506
0.210632
0.210804
0.211036
0.211336
0.211712
0.212165
0.212697
0.213311
0.21401
0.2148
0.215684
0.21667
0.217758
0.218951
0.220248
0.221647
0.223149
0.224752
0.226452
0.22824
0.230111
0.232057
0.23407
0.236145
0.23828
0.240461
0.242589
0.244766
0.209936
0.210072
0.210167
0.210246
0.210301
0.210338
0.210365
0.210391
0.210424
0.210472
0.210538
0.210631
0.210759
0.210935
0.211171
0.211476
0.211853
0.212305
0.212833
0.213442
0.214132
0.21491
0.215779
0.216744
0.217807
0.218969
0.220228
0.221585
0.223039
0.224591
0.226233
0.22796
0.229764
0.231638
0.233576
0.235573
0.237627
0.239726
0.241765
0.243857
0.210244
0.21032
0.21039
0.210446
0.210484
0.210508
0.210524
0.210542
0.210569
0.210613
0.210679
0.210775
0.210909
0.211093
0.211337
0.211648
0.21203
0.212484
0.213013
0.21362
0.214307
0.215077
0.215936
0.216886
0.217928
0.219063
0.220289
0.221609
0.223021
0.224525
0.226115
0.227783
0.229524
0.23133
0.233196
0.235117
0.237093
0.239112
0.241064
0.24307
0.210557
0.210571
0.210615
0.210648
0.21067
0.210682
0.21069
0.210701
0.210724
0.210767
0.210836
0.210937
0.211081
0.211276
0.211532
0.211853
0.212242
0.212702
0.213235
0.213845
0.214532
0.215301
0.216154
0.217093
0.218119
0.219232
0.220431
0.221718
0.223093
0.224554
0.226095
0.22771
0.229391
0.231133
0.23293
0.234778
0.236679
0.238619
0.240487
0.242408
0.210875
0.210824
0.210841
0.210851
0.210857
0.210859
0.21086
0.210867
0.210889
0.210934
0.211007
0.211118
0.211274
0.211484
0.211754
0.212088
0.212488
0.212957
0.213499
0.214116
0.214809
0.21558
0.216432
0.217365
0.21838
0.219475
0.220652
0.221912
0.223254
0.224676
0.226173
0.227737
0.229363
0.231044
0.232776
0.234555
0.236383
0.238248
0.240034
0.24187
0.211196
0.211079
0.211067
0.211053
0.211044
0.211037
0.211034
0.21104
0.211064
0.211112
0.211194
0.211317
0.211489
0.211716
0.212003
0.212353
0.212768
0.21325
0.213805
0.214433
0.215135
0.215913
0.216768
0.2177
0.218707
0.219791
0.22095
0.222187
0.223501
0.224889
0.226346
0.227864
0.229438
0.231063
0.232734
0.234447
0.236206
0.237998
0.239705
0.241457
0.211519
0.211333
0.211293
0.211255
0.211231
0.211217
0.211212
0.211219
0.211247
0.211302
0.211395
0.211533
0.211724
0.211971
0.212278
0.212647
0.213079
0.213579
0.21415
0.214793
0.215509
0.216298
0.21716
0.218094
0.2191
0.220176
0.221323
0.222543
0.223833
0.225191
0.226612
0.228089
0.229616
0.231189
0.232802
0.234453
0.236146
0.237869
0.239499
0.241169
0.211842
0.211586
0.211516
0.211454
0.211417
0.211397
0.211391
0.211402
0.211436
0.211502
0.211608
0.211764
0.211976
0.212246
0.212576
0.212967
0.213421
0.213942
0.214533
0.215196
0.215929
0.216732
0.217606
0.218547
0.219555
0.220628
0.221768
0.222975
0.224246
0.225579
0.226969
0.228409
0.229894
0.231419
0.232979
0.234572
0.236203
0.237859
0.239416
0.241006
0.212162
0.211834
0.211734
0.211649
0.211599
0.211575
0.211571
0.211588
0.211631
0.211709
0.211833
0.21201
0.212245
0.21254
0.212895
0.213311
0.213791
0.214337
0.214952
0.215637
0.216391
0.217213
0.218101
0.219054
0.220069
0.221144
0.222281
0.223479
0.224737
0.22605
0.227414
0.228822
0.230269
0.231751
0.233263
0.234802
0.236374
0.237966
0.239455
0.240965
0.212476
0.212075
0.211946
0.211837
0.211776
0.21175
0.21175
0.211775
0.21183
0.211923
0.212066
0.212266
0.212527
0.21285
0.213233
0.213677
0.214185
0.21476
0.215403
0.216114
0.216893
0.217737
0.218644
0.219612
0.220638
0.22172
0.222859
0.224053
0.225301
0.2266
0.227942
0.229324
0.230738
0.232181
0.233649
0.235139
0.236656
0.23819
0.239614
0.241047
0.212781
0.212306
0.212149
0.212018
0.211947
0.211919
0.211925
0.211961
0.21203
0.212141
0.212306
0.212532
0.212821
0.213173
0.213586
0.214062
0.214602
0.215208
0.215882
0.216623
0.21743
0.2183
0.21923
0.220217
0.221258
0.222351
0.223496
0.224692
0.225936
0.227224
0.22855
0.22991
0.231297
0.232706
0.234135
0.235581
0.237047
0.238526
0.23989
0.241248
0.213073
0.212525
0.21234
0.212189
0.212109
0.212082
0.212095
0.212143
0.212229
0.212361
0.21255
0.212803
0.213123
0.213506
0.213953
0.214463
0.215037
0.215678
0.216386
0.21716
0.217998
0.218898
0.219855
0.220865
0.221925
0.223033
0.224188
0.22539
0.226634
0.227917
0.229233
0.230575
0.231939
0.233321
0.234716
0.236122
0.237543
0.238971
0.240281
0.241566
0.213348
0.212729
0.212518
0.212347
0.21226
0.212235
0.212257
0.21232
0.212425
0.212579
0.212795
0.213078
0.21343
0.213847
0.21433
0.214876
0.215488
0.216166
0.216911
0.217721
0.218594
0.219526
0.220513
0.221549
0.222632
0.223759
0.22493
0.226142
0.227391
0.228673
0.229983
0.231313
0.232659
0.234018
0.235385
0.236757
0.238138
0.239521
0.240781
0.241997
0.213605
0.212916
0.21268
0.212491
0.212399
0.212377
0.212409
0.212488
0.212614
0.212795
0.213039
0.213354
0.21374
0.214193
0.214712
0.215298
0.215949
0.216667
0.217452
0.218301
0.219212
0.22018
0.221199
0.222265
0.223375
0.224525
0.225714
0.226941
0.2282
0.229486
0.230793
0.232117
0.233451
0.234792
0.236137
0.237481
0.238827
0.240171
0.241388
0.242537
0.21384
0.213082
0.212823
0.212619
0.212522
0.212505
0.212549
0.212646
0.212795
0.213003
0.213279
0.213627
0.214048
0.214539
0.215098
0.215724
0.216418
0.217178
0.218005
0.218895
0.219846
0.220852
0.221908
0.223007
0.224146
0.225323
0.226535
0.22778
0.229052
0.230347
0.231658
0.232979
0.234306
0.235636
0.236964
0.238286
0.239604
0.240914
0.242094
0.243182
0.214048
0.213226
0.212945
0.212727
0.212628
0.212617
0.212674
0.21279
0.212964
0.213202
0.213511
0.213895
0.214353
0.214882
0.215482
0.216151
0.216888
0.217693
0.218564
0.219497
0.220491
0.221538
0.222632
0.223767
0.224939
0.226146
0.227385
0.228652
0.229942
0.231249
0.232567
0.233891
0.235217
0.236542
0.237859
0.239164
0.24046
0.241745
0.242896
0.243926
0.214228
0.213343
0.213044
0.212815
0.212715
0.21271
0.212781
0.212918
0.213118
0.213388
0.213732
0.214152
0.214648
0.215218
0.21586
0.216573
0.217356
0.218207
0.219123
0.220102
0.22114
0.222229
0.223364
0.224537
0.225746
0.226986
0.228255
0.229547
0.230858
0.232182
0.233512
0.234845
0.236175
0.237499
0.238812
0.240108
0.241389
0.242654
0.243784
0.244763
0.214375
0.213432
0.213116
0.212878
0.212779
0.212783
0.212868
0.213026
0.213255
0.213557
0.213937
0.214395
0.214931
0.215542
0.216227
0.216986
0.217816
0.218714
0.219678
0.220704
0.221787
0.222921
0.224098
0.225312
0.226559
0.227835
0.229136
0.230458
0.231793
0.233137
0.234484
0.235829
0.237168
0.238499
0.239814
0.241108
0.242381
0.243635
0.244752
0.245685
0.214486
0.213489
0.21316
0.212915
0.212819
0.212832
0.212933
0.213113
0.21337
0.213706
0.214122
0.21462
0.215196
0.215849
0.216579
0.217385
0.218263
0.21921
0.220222
0.221295
0.222426
0.223605
0.224826
0.226083
0.22737
0.228684
0.230021
0.231373
0.232736
0.234104
0.235471
0.236833
0.238187
0.239528
0.240852
0.242151
0.243425
0.244676
0.245791
0.246685
0.214558
0.213511
0.213172
0.212923
0.212831
0.212854
0.212972
0.213175
0.213461
0.213831
0.214285
0.214822
0.215439
0.216135
0.216911
0.217764
0.218691
0.219687
0.220748
0.221871
0.223049
0.224275
0.225541
0.226841
0.22817
0.229524
0.230897
0.232283
0.233676
0.23507
0.236461
0.237845
0.239217
0.240576
0.241915
0.243226
0.244509
0.245767
0.246891
0.247754
0.214587
0.213497
0.213149
0.212898
0.212812
0.212847
0.212983
0.21321
0.213525
0.213929
0.214421
0.214997
0.215655
0.216396
0.217218
0.218119
0.219096
0.220141
0.221252
0.222423
0.223649
0.224922
0.226235
0.227579
0.228952
0.230346
0.231757
0.233177
0.234602
0.236025
0.237442
0.23885
0.240246
0.241627
0.242986
0.244317
0.245619
0.246895
0.248041
0.248884
0.214571
0.213442
0.213089
0.212839
0.21276
0.212809
0.212963
0.213215
0.21356
0.213998
0.214526
0.215142
0.215842
0.216627
0.217495
0.218445
0.219471
0.220566
0.221726
0.222947
0.224221
0.225541
0.226899
0.228289
0.229704
0.23114
0.232588
0.234044
0.235501
0.236955
0.238401
0.239836
0.241258
0.242664
0.24405
0.245408
0.246737
0.248045
0.249229
0.250065
0.214506
0.213346
0.21299
0.212742
0.212673
0.212736
0.21291
0.213187
0.213562
0.214034
0.214599
0.215254
0.215995
0.216824
0.217739
0.218737
0.219811
0.220956
0.222165
0.223434
0.224756
0.226123
0.227527
0.228961
0.230419
0.231895
0.233381
0.234872
0.236362
0.237847
0.239323
0.240787
0.242237
0.243671
0.245087
0.246479
0.247846
0.249199
0.250441
0.25129
0.214391
0.213205
0.212848
0.212607
0.212548
0.212628
0.212822
0.213124
0.213529
0.214034
0.214636
0.215329
0.216111
0.216983
0.217944
0.218989
0.220112
0.221305
0.222563
0.22388
0.225248
0.226661
0.22811
0.229587
0.231087
0.232602
0.234125
0.235651
0.237173
0.238688
0.240193
0.241686
0.243164
0.244627
0.246076
0.247507
0.24892
0.250333
0.25166
0.252552
0.214224
0.213018
0.212664
0.21243
0.212384
0.212481
0.212697
0.213024
0.213458
0.213996
0.214633
0.215364
0.216187
0.217102
0.218107
0.219198
0.220368
0.221608
0.222912
0.224276
0.22569
0.227147
0.228639
0.230159
0.231699
0.233251
0.234809
0.236367
0.23792
0.239465
0.240997
0.242516
0.24402
0.245511
0.246992
0.248462
0.249927
0.251416
0.252867
0.253863
0.214001
0.212784
0.212434
0.212209
0.212179
0.212293
0.212531
0.212884
0.213347
0.213918
0.21459
0.215357
0.216219
0.217175
0.218224
0.219359
0.220574
0.221859
0.223209
0.224616
0.226074
0.227574
0.229108
0.230667
0.232244
0.233832
0.235423
0.237012
0.238593
0.240163
0.241719
0.24326
0.244785
0.246297
0.247804
0.24931
0.250829
0.252417
0.254083
0.255349
0.213724
0.212501
0.212158
0.211945
0.21193
0.212063
0.212323
0.212702
0.213195
0.213797
0.214502
0.215305
0.216204
0.2172
0.21829
0.219468
0.220725
0.222054
0.223446
0.224896
0.226394
0.227934
0.229507
0.231103
0.232716
0.234336
0.235957
0.237572
0.239177
0.240769
0.242343
0.243899
0.245436
0.246958
0.248474
0.249993
0.251546
0.253228
0.255144
0.256867
0.277642
0.293778
0.308128
0.320053
0.329737
0.337598
0.343909
0.349042
0.353256
0.35679
0.35978
0.362333
0.364549
0.366515
0.368255
0.369809
0.371205
0.372468
0.373597
0.374606
0.375507
0.376311
0.377013
0.377618
0.378125
0.378529
0.378843
0.379065
0.379189
0.379219
0.379148
0.378989
0.378732
0.378376
0.377922
0.377369
0.376738
0.375991
0.375329
0.374294
0.275505
0.291493
0.306028
0.318051
0.327864
0.335805
0.342184
0.347379
0.351642
0.355207
0.358224
0.360816
0.363066
0.365053
0.366821
0.368412
0.369839
0.371123
0.372277
0.373316
0.374245
0.375072
0.375798
0.376421
0.376945
0.377373
0.377706
0.377941
0.378081
0.378123
0.37807
0.37792
0.377677
0.377335
0.376893
0.37635
0.375728
0.374992
0.374337
0.373309
0.273438
0.289238
0.30395
0.316056
0.325995
0.334012
0.34046
0.345715
0.350027
0.353622
0.356667
0.359298
0.361582
0.363591
0.365387
0.367014
0.36847
0.369778
0.370957
0.372024
0.372983
0.373831
0.374581
0.375222
0.375765
0.376216
0.376568
0.376817
0.376974
0.377029
0.376996
0.376856
0.376626
0.376298
0.375868
0.375336
0.374724
0.374
0.373353
0.372333
0.271438
0.287015
0.301899
0.314073
0.324128
0.332221
0.338739
0.344048
0.348405
0.352037
0.355115
0.357776
0.360093
0.362131
0.363956
0.365611
0.367097
0.368433
0.369639
0.370733
0.371718
0.372589
0.373361
0.374025
0.374588
0.375058
0.375428
0.375695
0.375868
0.375941
0.375922
0.375799
0.375582
0.375266
0.374847
0.374328
0.373727
0.373014
0.372378
0.371367
0.269513
0.284831
0.299874
0.312101
0.322263
0.330433
0.337019
0.342379
0.346779
0.350452
0.353563
0.356253
0.3586
0.360671
0.362527
0.364207
0.365722
0.367088
0.368324
0.369443
0.370451
0.371347
0.372141
0.372829
0.373412
0.373901
0.374288
0.374574
0.374765
0.374856
0.374852
0.374746
0.374543
0.374238
0.373832
0.373325
0.372737
0.372035
0.37141
0.37041
0.267667
0.282689
0.297876
0.31014
0.320404
0.328646
0.3353
0.34071
0.345154
0.348865
0.352011
0.354729
0.357108
0.359211
0.361097
0.362804
0.364348
0.365744
0.367009
0.368153
0.369187
0.370106
0.370923
0.371634
0.372238
0.372746
0.373152
0.373457
0.373665
0.373774
0.373786
0.373697
0.373509
0.373216
0.372823
0.372329
0.371754
0.371064
0.370449
0.369459
0.265903
0.280594
0.295908
0.308192
0.318552
0.32686
0.33358
0.339041
0.343528
0.347277
0.350457
0.353206
0.355615
0.35775
0.359666
0.361401
0.362975
0.3644
0.365695
0.366865
0.367923
0.368868
0.369706
0.370441
0.371066
0.371593
0.372018
0.372342
0.372568
0.372696
0.372725
0.372652
0.372479
0.3722
0.371821
0.371339
0.370778
0.3701
0.369495
0.368515
0.264224
0.27855
0.293971
0.306257
0.316706
0.325077
0.331861
0.337372
0.341902
0.345689
0.348903
0.351682
0.354122
0.356289
0.358236
0.36
0.361604
0.363058
0.364382
0.365578
0.366661
0.367631
0.368491
0.369249
0.369896
0.370443
0.370888
0.371231
0.371476
0.371622
0.371668
0.371612
0.371455
0.37119
0.370825
0.370357
0.36981
0.369144
0.368549
0.367579
0.262632
0.276561
0.292069
0.304339
0.314869
0.323297
0.330143
0.335703
0.340276
0.3441
0.347348
0.350159
0.352629
0.354828
0.356807
0.3586
0.360233
0.361717
0.363069
0.364292
0.3654
0.366396
0.367279
0.36806
0.368729
0.369296
0.369761
0.370124
0.370387
0.370551
0.370615
0.370576
0.370435
0.370185
0.369835
0.369381
0.368848
0.368194
0.367611
0.366649
0.261129
0.274632
0.290204
0.30244
0.31304
0.321519
0.328426
0.334034
0.33865
0.342512
0.345793
0.348636
0.351137
0.353368
0.355378
0.357201
0.358865
0.360377
0.361758
0.363008
0.364141
0.365163
0.366069
0.366873
0.367564
0.368152
0.368637
0.36902
0.369302
0.369485
0.369566
0.369544
0.36942
0.369187
0.368852
0.368413
0.367894
0.367253
0.36668
0.365726
0.259718
0.272768
0.288378
0.30056
0.311222
0.319744
0.32671
0.332366
0.337025
0.340924
0.344239
0.347114
0.349647
0.351909
0.353951
0.355804
0.357498
0.359039
0.360448
0.361726
0.362884
0.363932
0.364861
0.365688
0.366403
0.36701
0.367517
0.367919
0.368221
0.368423
0.368522
0.368517
0.368409
0.368193
0.367874
0.367451
0.366946
0.366318
0.365757
0.364809
0.258399
0.270972
0.286595
0.298702
0.309414
0.317974
0.324995
0.330698
0.3354
0.339337
0.342686
0.345594
0.348158
0.350452
0.352526
0.354409
0.356133
0.357703
0.35914
0.360446
0.36163
0.362703
0.363656
0.364506
0.365244
0.365872
0.366399
0.366822
0.367143
0.367364
0.367481
0.367494
0.367403
0.367205
0.366903
0.366495
0.366006
0.365391
0.36484
0.3639
0.257176
0.269249
0.284855
0.296868
0.307617
0.316208
0.323281
0.32903
0.333775
0.33775
0.341135
0.344074
0.346671
0.348997
0.351103
0.353017
0.354771
0.35637
0.357835
0.359169
0.360378
0.361477
0.362454
0.363327
0.364088
0.364737
0.365285
0.365728
0.366069
0.366308
0.366444
0.366476
0.366402
0.366223
0.365938
0.365547
0.365072
0.36447
0.36393
0.362998
0.256049
0.267604
0.283163
0.295061
0.305834
0.314446
0.321569
0.327362
0.332151
0.336164
0.339584
0.342557
0.345187
0.347545
0.349682
0.351627
0.353411
0.35504
0.356533
0.357894
0.359129
0.360253
0.361255
0.36215
0.362934
0.363604
0.364174
0.364638
0.364997
0.365256
0.365411
0.365462
0.365406
0.365245
0.364979
0.364605
0.364146
0.363556
0.363028
0.362103
0.25502
0.266041
0.28152
0.293283
0.304063
0.312691
0.319858
0.325695
0.330528
0.334579
0.338035
0.341042
0.343705
0.346095
0.348264
0.35024
0.352055
0.353713
0.355234
0.356623
0.357883
0.359033
0.360059
0.360976
0.361784
0.362476
0.363065
0.36355
0.36393
0.364207
0.364381
0.364453
0.364414
0.364273
0.364025
0.363669
0.363226
0.362649
0.362132
0.361215
0.25409
0.264564
0.279928
0.291536
0.302307
0.310941
0.318148
0.324029
0.328905
0.332995
0.336488
0.33953
0.342225
0.344648
0.346849
0.348856
0.350701
0.35239
0.353939
0.355355
0.356641
0.357815
0.358866
0.359805
0.360636
0.36135
0.36196
0.362466
0.362865
0.363161
0.363355
0.363447
0.363428
0.363306
0.363078
0.362739
0.362312
0.361749
0.361244
0.360334
0.25326
0.263178
0.278391
0.289822
0.300566
0.309198
0.316441
0.322362
0.327282
0.331412
0.334943
0.33802
0.340749
0.343204
0.345437
0.347476
0.349351
0.35107
0.352648
0.354092
0.355403
0.356601
0.357677
0.358637
0.359491
0.360228
0.360858
0.361384
0.361805
0.36212
0.362332
0.362446
0.362446
0.362345
0.362136
0.361816
0.361405
0.360856
0.360362
0.35946
0.252531
0.261887
0.276911
0.288145
0.298843
0.307463
0.314735
0.320695
0.32566
0.32983
0.3334
0.336513
0.339275
0.341763
0.344028
0.346099
0.348006
0.349754
0.351361
0.352832
0.35417
0.355391
0.356493
0.357475
0.35835
0.35911
0.35976
0.360306
0.360747
0.361082
0.361314
0.361448
0.361469
0.361388
0.361199
0.360898
0.360504
0.35997
0.359487
0.358593
0.251902
0.260695
0.27549
0.286506
0.297138
0.305735
0.313033
0.319029
0.324038
0.328249
0.331858
0.335008
0.337804
0.340326
0.342624
0.344727
0.346665
0.348444
0.350079
0.351577
0.352942
0.354186
0.355312
0.356317
0.357213
0.357995
0.358666
0.359231
0.359693
0.360048
0.3603
0.360455
0.360496
0.360436
0.360268
0.359986
0.35961
0.359091
0.358619
0.357734
0.251376
0.259605
0.274131
0.284908
0.295453
0.304017
0.311333
0.317362
0.322417
0.326669
0.330319
0.333506
0.336337
0.338892
0.341223
0.343359
0.345328
0.347138
0.348801
0.350327
0.351719
0.352986
0.354137
0.355164
0.356081
0.356884
0.357575
0.35816
0.358642
0.359017
0.359289
0.359465
0.359528
0.359489
0.359342
0.35908
0.358722
0.358219
0.357757
0.356881
0.25095
0.25862
0.272836
0.283354
0.293791
0.30231
0.309636
0.315696
0.320796
0.32509
0.328781
0.332006
0.334873
0.337463
0.339828
0.341996
0.343997
0.345838
0.34753
0.349082
0.350501
0.351791
0.352966
0.354016
0.354952
0.355778
0.356489
0.357093
0.357595
0.35799
0.358282
0.35848
0.358564
0.358547
0.358421
0.35818
0.35784
0.357353
0.356903
0.356037
0.250626
0.257744
0.271609
0.281847
0.292152
0.300614
0.307943
0.314031
0.319175
0.323512
0.327245
0.330509
0.333413
0.336038
0.338437
0.340639
0.342672
0.344543
0.346264
0.347843
0.349288
0.350602
0.351799
0.352873
0.353829
0.354675
0.355406
0.35603
0.356552
0.356967
0.35728
0.357498
0.357605
0.357609
0.357505
0.357285
0.356965
0.356495
0.356057
0.3552
0.250402
0.25698
0.270452
0.28039
0.290539
0.298931
0.306255
0.312365
0.317555
0.321933
0.325711
0.329015
0.331956
0.334618
0.337052
0.339288
0.341352
0.343254
0.345003
0.346609
0.348081
0.349418
0.350637
0.351734
0.35271
0.353577
0.354328
0.35497
0.355512
0.355947
0.35628
0.35652
0.356649
0.356675
0.356594
0.356397
0.356096
0.355644
0.35522
0.354372
0.250277
0.256328
0.269367
0.278987
0.288955
0.297264
0.304572
0.310701
0.315934
0.320356
0.324178
0.327524
0.330504
0.333204
0.335673
0.337942
0.340038
0.341972
0.343749
0.345381
0.346878
0.348239
0.34948
0.3506
0.351595
0.352482
0.353253
0.353913
0.354475
0.354931
0.355285
0.355545
0.355697
0.355745
0.355687
0.355513
0.355232
0.354801
0.35439
0.353552
0.25025
0.255792
0.268357
0.277639
0.287401
0.295614
0.302896
0.309039
0.314314
0.318778
0.322646
0.326036
0.329056
0.331794
0.334299
0.336603
0.33873
0.340695
0.3425
0.344159
0.345681
0.347066
0.348329
0.34947
0.350485
0.351392
0.352181
0.35286
0.353442
0.353917
0.354292
0.354573
0.354748
0.354819
0.354784
0.354634
0.354375
0.353964
0.35357
0.352742
0.25032
0.255371
0.267423
0.27635
0.285881
0.293983
0.301228
0.307378
0.312694
0.3172
0.321116
0.32455
0.327613
0.330391
0.332932
0.33527
0.33743
0.339425
0.341258
0.342942
0.344489
0.345898
0.347182
0.348345
0.349379
0.350304
0.351114
0.35181
0.352411
0.352907
0.353302
0.353604
0.353802
0.353895
0.353885
0.353759
0.353524
0.353135
0.352759
0.351942
0.250483
0.255067
0.266569
0.275122
0.284398
0.292372
0.29957
0.305719
0.311075
0.315622
0.319587
0.323068
0.326174
0.328993
0.331571
0.333945
0.336136
0.338161
0.340021
0.341732
0.343303
0.344735
0.34604
0.347225
0.348277
0.349221
0.35005
0.350764
0.351384
0.351899
0.352315
0.352637
0.352858
0.352975
0.352989
0.352889
0.352679
0.352313
0.351957
0.351153
0.250738
0.254877
0.265794
0.273958
0.282954
0.290786
0.297923
0.304063
0.309455
0.314044
0.318058
0.321587
0.324739
0.3276
0.330216
0.332626
0.334849
0.336904
0.338792
0.340528
0.342122
0.343578
0.344903
0.346108
0.34718
0.34814
0.348989
0.349721
0.350359
0.350894
0.35133
0.351671
0.351915
0.352056
0.352095
0.352022
0.35184
0.3515
0.351166
0.350375
0.251081
0.254799
0.265101
0.27286
0.281554
0.289227
0.296289
0.302411
0.307836
0.312465
0.31653
0.320109
0.323309
0.326214
0.328869
0.331315
0.33357
0.335654
0.337569
0.33933
0.340948
0.342426
0.343771
0.344996
0.346087
0.347064
0.347931
0.348681
0.349336
0.34989
0.350346
0.350708
0.350975
0.35114
0.351204
0.351159
0.351006
0.350694
0.350385
0.349611
0.251508
0.25483
0.26449
0.271832
0.280199
0.287698
0.294671
0.300764
0.306218
0.310886
0.315002
0.318634
0.321882
0.324833
0.327529
0.330011
0.332298
0.334411
0.336353
0.338139
0.33978
0.341279
0.342645
0.343888
0.344999
0.345991
0.346876
0.347644
0.348316
0.348889
0.349364
0.349746
0.350035
0.350224
0.350315
0.350298
0.350177
0.349897
0.349615
0.348861
0.252016
0.254965
0.263961
0.270877
0.278896
0.286202
0.293071
0.299125
0.304602
0.309307
0.313475
0.317161
0.32046
0.323458
0.326196
0.328715
0.331034
0.333176
0.335144
0.336954
0.338618
0.340139
0.341524
0.342784
0.343914
0.344923
0.345825
0.34661
0.347298
0.347889
0.348384
0.348786
0.349097
0.34931
0.349428
0.349441
0.349353
0.349108
0.348857
0.348127
0.2526
0.2552
0.263515
0.269996
0.277647
0.284742
0.291494
0.297495
0.30299
0.307729
0.311949
0.31569
0.319043
0.32209
0.32487
0.327426
0.329778
0.331949
0.333943
0.335777
0.337463
0.339004
0.340409
0.341686
0.342834
0.343858
0.344776
0.345579
0.346283
0.346892
0.347405
0.347826
0.348159
0.348397
0.348541
0.348585
0.348532
0.348326
0.348112
0.347409
0.253256
0.255525
0.26315
0.269193
0.276458
0.283323
0.289941
0.295876
0.301381
0.306152
0.310423
0.314221
0.31763
0.320727
0.323552
0.326145
0.328531
0.330729
0.332749
0.334607
0.336314
0.337876
0.339299
0.340592
0.341757
0.342797
0.34373
0.344551
0.34527
0.345896
0.346427
0.346868
0.347221
0.347483
0.347654
0.34773
0.347715
0.347552
0.34738
0.346712
0.253976
0.255933
0.262867
0.26847
0.275332
0.281948
0.288418
0.294272
0.299776
0.304575
0.308897
0.312754
0.31622
0.31937
0.32224
0.324872
0.327291
0.329517
0.331563
0.333445
0.335172
0.336754
0.338195
0.339504
0.340685
0.341741
0.342688
0.343525
0.34426
0.344903
0.345451
0.34591
0.346284
0.346569
0.346768
0.346875
0.346899
0.346785
0.346661
0.346037
0.254756
0.256413
0.262665
0.26783
0.274274
0.280623
0.286927
0.292685
0.298178
0.303001
0.307372
0.311289
0.314815
0.318019
0.320936
0.323606
0.32606
0.328314
0.330385
0.33229
0.334038
0.335638
0.337097
0.338421
0.339618
0.340689
0.34165
0.342503
0.343252
0.343911
0.344477
0.344953
0.345346
0.345654
0.34588
0.34602
0.346085
0.346022
0.345956
0.345387
0.255593
0.256957
0.262544
0.267277
0.273289
0.279353
0.285474
0.291119
0.296587
0.301429
0.305848
0.309826
0.313414
0.316674
0.319639
0.322349
0.324837
0.327119
0.329215
0.331143
0.33291
0.334529
0.336005
0.337344
0.338556
0.339642
0.340616
0.341485
0.342248
0.342922
0.343503
0.343996
0.344408
0.344738
0.34499
0.345164
0.345271
0.345264
0.345265
0.344768
0.256481
0.257557
0.262507
0.266817
0.272385
0.278142
0.284063
0.289579
0.295008
0.299862
0.304328
0.308367
0.312018
0.315336
0.318351
0.321102
0.323623
0.325934
0.328055
0.330004
0.331791
0.333427
0.334919
0.336273
0.337499
0.338599
0.339587
0.34047
0.341247
0.341934
0.34253
0.34304
0.34347
0.343821
0.344098
0.344305
0.344455
0.344509
0.344586
0.344186
0.257362
0.258171
0.262533
0.266441
0.271559
0.276993
0.282698
0.288068
0.293443
0.298304
0.302812
0.306911
0.310626
0.314
0.317066
0.319858
0.322412
0.324751
0.326896
0.328867
0.330673
0.332326
0.333833
0.335202
0.336441
0.337556
0.338557
0.339453
0.340245
0.340944
0.341555
0.342079
0.342527
0.342898
0.343201
0.34344
0.343635
0.343753
0.343918
0.343647
0.258187
0.258729
0.262543
0.266079
0.270754
0.275857
0.281337
0.286553
0.291858
0.29672
0.301263
0.30542
0.309198
0.312632
0.315749
0.318584
0.321175
0.323545
0.325717
0.327711
0.329538
0.33121
0.332734
0.334118
0.335372
0.336503
0.337517
0.338427
0.339233
0.339946
0.340571
0.341111
0.341575
0.341966
0.342295
0.342566
0.342805
0.34299
0.343255
0.34316
0.259718
0.259701
0.262841
0.265908
0.27006
0.274767
0.279973
0.284989
0.290183
0.295024
0.299599
0.303822
0.307683
0.311199
0.31439
0.31729
0.319932
0.322344
0.324551
0.326573
0.328423
0.330114
0.331655
0.333054
0.334321
0.335465
0.336492
0.337413
0.338231
0.338955
0.339592
0.340145
0.340623
0.341033
0.341384
0.341685
0.341964
0.342215
0.342584
0.342728
0.268922
0.266794
0.267735
0.268742
0.270517
0.273158
0.276837
0.280636
0.285124
0.28976
0.294451
0.298991
0.303252
0.30716
0.310686
0.313844
0.316667
0.3192
0.321486
0.323558
0.325441
0.327155
0.328715
0.330129
0.331409
0.332565
0.333605
0.334538
0.335371
0.33611
0.336765
0.337342
0.337849
0.338296
0.338696
0.339063
0.339432
0.339839
0.340481
0.341431
0.269503
0.266796
0.26752
0.267468
0.267689
0.268732
0.271361
0.273743
0.277799
0.28226
0.287066
0.291897
0.296514
0.300763
0.304575
0.307951
0.310933
0.313576
0.315936
0.318061
0.319982
0.321725
0.323307
0.324742
0.326042
0.327216
0.328274
0.329224
0.330075
0.330833
0.331505
0.332101
0.332628
0.333097
0.333522
0.333925
0.334343
0.334846
0.335667
0.336991
0.265578
0.264438
0.264732
0.264205
0.263504
0.263417
0.264614
0.266824
0.270325
0.274695
0.27967
0.284831
0.289832
0.294445
0.298558
0.30216
0.305298
0.308043