/*--------------------------------*- C++ -*----------------------------------*\
  =========                 |
  \\      /  F ield         | OpenFOAM: The Open Source CFD Toolbox
   \\    /   O peration     | Website:  https://openfoam.org
    \\  /    A nd           | Version:  7
     \\/     M anipulation  |
\*---------------------------------------------------------------------------*/
FoamFile
{
    version     2.0;
    format      ascii;
    class       volScalarField;
    location    "4.3";
    object      p;
}
// * * * * * * * * * * * * * * * * * * * * * * * * * * * * * * * * * * * * * //

dimensions      [0 2 -2 0 0 0 0];

internalField   nonuniform List<scalar> 
18000
(
1.02388
1.02283
1.02276
1.02291
1.02338
1.02417
1.02527
1.02667
1.02838
1.03036
1.0326
1.0351
1.03783
1.04079
1.04394
1.04724
1.05065
1.05415
1.05769
1.06127
1.06484
1.0684
1.0719
1.07533
1.07867
1.08192
1.08505
1.0881
1.09104
1.09373
1.02168
1.02067
1.02064
1.02081
1.0213
1.02208
1.02316
1.02452
1.02615
1.02802
1.03013
1.03245
1.03498
1.0377
1.04059
1.04362
1.04676
1.04996
1.05321
1.0565
1.05979
1.06307
1.06632
1.06951
1.07262
1.07565
1.0786
1.08147
1.08424
1.08681
1.01935
1.01841
1.01841
1.01862
1.01914
1.01992
1.02097
1.0223
1.02385
1.02561
1.02757
1.02971
1.03203
1.03451
1.03714
1.03989
1.04273
1.04563
1.04857
1.05155
1.05455
1.05754
1.06052
1.06345
1.06633
1.06916
1.07191
1.07461
1.07722
1.07966
1.0169
1.01603
1.01607
1.01633
1.01689
1.01768
1.01873
1.02
1.02148
1.02313
1.02493
1.02689
1.02899
1.03122
1.03358
1.03603
1.03856
1.04115
1.04377
1.04644
1.04912
1.05182
1.05451
1.05718
1.05983
1.06243
1.06499
1.06752
1.06999
1.0723
1.01436
1.01357
1.01366
1.01398
1.01457
1.01539
1.01641
1.01764
1.01904
1.02057
1.02222
1.02399
1.02586
1.02784
1.02991
1.03206
1.03427
1.03653
1.03883
1.04116
1.04352
1.0459
1.0483
1.05071
1.05311
1.05549
1.05786
1.06022
1.06254
1.06474
1.01172
1.01102
1.01117
1.01154
1.01217
1.01301
1.01403
1.01521
1.01652
1.01794
1.01944
1.02101
1.02266
1.02437
1.02615
1.02799
1.02987
1.0318
1.03375
1.03573
1.03776
1.03982
1.04193
1.04405
1.0462
1.04837
1.05055
1.05274
1.05492
1.057
1.00899
1.00841
1.00862
1.00905
1.00972
1.01058
1.01158
1.01272
1.01395
1.01525
1.0166
1.01797
1.01938
1.02083
1.02231
1.02383
1.02538
1.02696
1.02856
1.03019
1.03187
1.03361
1.0354
1.03725
1.03914
1.04109
1.04307
1.0451
1.04716
1.04912
1.00619
1.00573
1.006
1.0065
1.00721
1.00808
1.00908
1.01017
1.01132
1.01251
1.0137
1.01487
1.01605
1.01722
1.01841
1.01961
1.02082
1.02204
1.02328
1.02456
1.02589
1.02729
1.02877
1.03033
1.03197
1.03369
1.03548
1.03735
1.03928
1.04115
1.00332
1.003
1.00334
1.00389
1.00465
1.00553
1.00652
1.00757
1.00864
1.00971
1.01074
1.01173
1.01267
1.01358
1.01447
1.01535
1.01621
1.01708
1.01796
1.01887
1.01985
1.02092
1.02208
1.02335
1.02473
1.02622
1.02782
1.02953
1.03135
1.03313
1.0004
1.00023
1.00062
1.00123
1.00203
1.00294
1.00391
1.00492
1.00592
1.00688
1.00775
1.00854
1.00925
1.0099
1.0105
1.01106
1.01159
1.0121
1.01261
1.01317
1.01381
1.01454
1.01539
1.01637
1.01748
1.01874
1.02015
1.02171
1.02343
1.02511
0.997426
0.997407
0.997858
0.998531
0.999365
1.00029
1.00126
1.00224
1.00317
1.00401
1.00474
1.00533
1.00582
1.00621
1.00653
1.00678
1.00697
1.00713
1.00729
1.0075
1.00779
1.0082
1.00874
1.00943
1.01028
1.01132
1.01253
1.01394
1.01556
1.01717
0.994422
0.994554
0.995061
0.995789
0.996663
0.997611
0.998582
0.999526
1.00039
1.00113
1.0017
1.00212
1.00239
1.00254
1.00258
1.00252
1.00239
1.00222
1.00204
1.00191
1.00187
1.00195
1.00219
1.0026
1.0032
1.00401
1.00504
1.0063
1.00781
1.00935
0.991394
0.991674
0.992234
0.993014
0.993928
0.994901
0.995875
0.996792
0.997592
0.998226
0.998666
0.998911
0.998979
0.998892
0.998667
0.998323
0.997884
0.997388
0.996885
0.996428
0.996069
0.995847
0.995794
0.995934
0.996292
0.996887
0.99773
0.998836
1.00024
1.00171
0.988353
0.988773
0.989383
0.990213
0.991167
0.992168
0.993149
0.994043
0.994786
0.995327
0.99564
0.995725
0.995601
0.995292
0.994819
0.994203
0.993475
0.992678
0.991866
0.991102
0.990442
0.989929
0.9896
0.989483
0.989606
0.989993
0.990654
0.991606
0.992901
0.994291
0.985304
0.985855
0.986513
0.987391
0.988386
0.989417
0.99041
0.991287
0.99198
0.992437
0.992633
0.992571
0.992269
0.991755
0.991051
0.990183
0.989186
0.988108
0.987009
0.985959
0.985017
0.984233
0.983645
0.983286
0.983186
0.983372
0.983855
0.984652
0.985829
0.987144
0.982254
0.982923
0.983625
0.98455
0.985588
0.986654
0.987663
0.988528
0.989179
0.989562
0.989654
0.989457
0.988994
0.988292
0.987376
0.986277
0.985032
0.983694
0.982332
0.981018
0.979817
0.978782
0.977953
0.977368
0.977059
0.977053
0.977364
0.978005
0.979055
0.980291
0.979206
0.979978
0.980722
0.981694
0.982776
0.983881
0.98491
0.98577
0.986386
0.986705
0.986705
0.986389
0.985781
0.984908
0.9838
0.98249
0.981019
0.979445
0.977842
0.976289
0.974852
0.973585
0.972534
0.971739
0.971234
0.971047
0.971192
0.97168
0.972596
0.973747
0.976164
0.977021
0.977804
0.978822
0.979952
0.981097
0.982151
0.983013
0.983602
0.983867
0.983787
0.983367
0.98263
0.981606
0.980324
0.978822
0.977145
0.975358
0.973539
0.971769
0.970116
0.968638
0.967384
0.966395
0.965708
0.96535
0.965337
0.965676
0.966452
0.967512
0.973128
0.974054
0.974873
0.975937
0.977114
0.978303
0.979386
0.980253
0.980823
0.981044
0.980896
0.980387
0.979537
0.978377
0.976939
0.975264
0.973401
0.971422
0.969408
0.967442
0.965594
0.963923
0.962482
0.961315
0.96046
0.959944
0.959782
0.959977
0.96061
0.961575
0.970098
0.971076
0.971928
0.973038
0.974264
0.975497
0.976611
0.977488
0.978044
0.978229
0.978026
0.977438
0.976489
0.975208
0.973631
0.971798
0.969768
0.967615
0.965425
0.963281
0.961255
0.959408
0.957797
0.956468
0.955459
0.954797
0.954497
0.954555
0.955047
0.955915
0.967072
0.968084
0.968968
0.970123
0.971398
0.972675
0.97382
0.974709
0.975257
0.975414
0.975163
0.974509
0.973471
0.972081
0.970376
0.9684
0.966217
0.963907
0.961557
0.959251
0.957062
0.955055
0.953289
0.951812
0.950663
0.949869
0.949441
0.949373
0.949729
0.950501
0.964045
0.965076
0.96599
0.96719
0.968513
0.969833
0.971007
0.97191
0.972453
0.972587
0.972294
0.971579
0.97046
0.96897
0.967147
0.965039
0.962715
0.960261
0.957764
0.95531
0.952971
0.950818
0.94891
0.947299
0.946024
0.945111
0.94457
0.944389
0.944619
0.945302
0.961011
0.962047
0.96299
0.964234
0.965605
0.966965
0.968168
0.969083
0.969621
0.969733
0.969401
0.968626
0.967431
0.965846
0.963911
0.961679
0.959225
0.956636
0.954004
0.951411
0.948936
0.946648
0.944612
0.94288
0.941492
0.940474
0.939834
0.939555
0.939675
0.94028
0.957963
0.958992
0.959965
0.961252
0.962668
0.964065
0.965292
0.966216
0.966749
0.966837
0.966462
0.965628
0.964357
0.962679
0.960636
0.958286
0.955707
0.952992
0.950232
0.947511
0.944909
0.942498
0.940346
0.938505
0.937016
0.935905
0.93518
0.934821
0.93485
0.935398
0.95489
0.955907
0.956909
0.958237
0.959694
0.961124
0.96237
0.963299
0.96382
0.96388
0.963458
0.96256
0.96121
0.959439
0.957288
0.954822
0.952125
0.94929
0.94641
0.943569
0.940849
0.938326
0.936067
0.934126
0.932545
0.93135
0.930552
0.930129
0.930092
0.930609
0.951785
0.952784
0.953814
0.955181
0.956675
0.958131
0.95939
0.960318
0.960821
0.960844
0.960367
0.9594
0.957965
0.956096
0.953837
0.951258
0.948446
0.945497
0.942502
0.939549
0.936721
0.934094
0.931735
0.929699
0.928029
0.926755
0.925888
0.925413
0.925332
0.925854
0.948634
0.949616
0.950673
0.952076
0.953601
0.955077
0.956341
0.957259
0.957736
0.957712
0.957171
0.956124
0.954597
0.952625
0.950256
0.947565
0.944643
0.941585
0.938484
0.935427
0.932498
0.929773
0.927316
0.925184
0.923421
0.922059
0.921119
0.920594
0.920489
0.921056
0.945425
0.946392
0.947478
0.948913
0.950464
0.951951
0.953211
0.954109
0.954548
0.954467
0.953851
0.952715
0.951088
0.949007
0.946527
0.943727
0.940699
0.937539
0.93434
0.931186
0.928162
0.925341
0.922786
0.920548
0.918674
0.9172
0.91616
0.91557
0.915459
0.916115
0.942144
0.943102
0.944219
0.945685
0.947255
0.948742
0.949987
0.950855
0.951243
0.951093
0.950391
0.949156
0.947421
0.945227
0.942636
0.93973
0.936603
0.93335
0.930061
0.92682
0.923707
0.920791
0.918129
0.915769
0.913751
0.912113
0.910898
0.910171
0.910064
0.910934
0.938783
0.939743
0.940891
0.942387
0.943967
0.945445
0.946662
0.947486
0.947811
0.947579
0.94678
0.945438
0.943589
0.94128
0.93858
0.935573
0.932356
0.929021
0.925653
0.922334
0.919137
0.916127
0.913352
0.91085
0.908648
0.906765
0.905224
0.904075
0.903509
0.904354
1.10206
1.11546
1.12344
1.13064
1.13506
1.13819
1.13991
1.14066
1.14056
1.13976
1.13835
1.13644
1.13409
1.13135
1.12827
1.12493
1.12133
1.11755
1.11359
1.10948
1.1052
1.10079
1.09627
1.09172
1.08714
1.08268
1.0783
1.07438
1.07096
1.06894
1.09497
1.10907
1.11758
1.12521
1.12988
1.1332
1.13506
1.13591
1.13588
1.13515
1.13384
1.13199
1.1297
1.12702
1.12402
1.12073
1.11719
1.11347
1.10956
1.1055
1.10127
1.09691
1.09244
1.08795
1.08342
1.07901
1.07467
1.07077
1.06736
1.06534
1.08762
1.10254
1.11162
1.11971
1.12467
1.12818
1.13018
1.13114
1.13119
1.13054
1.12933
1.12754
1.12531
1.1227
1.11977
1.11653
1.11306
1.10939
1.10554
1.10153
1.09735
1.09306
1.08865
1.08421
1.07974
1.07538
1.07108
1.06721
1.06381
1.06179
1.08002
1.09586
1.10556
1.11416
1.11944
1.12314
1.12529
1.12636
1.1265
1.12593
1.12479
1.12308
1.12092
1.11838
1.11552
1.11234
1.10894
1.10532
1.10153
1.09758
1.09345
1.08923
1.08488
1.08051
1.0761
1.07179
1.06754
1.0637
1.06031
1.05829
1.07218
1.08906
1.0994
1.10855
1.11417
1.11809
1.12038
1.12156
1.1218
1.12132
1.12025
1.11862
1.11653
1.11406
1.11126
1.10815
1.10481
1.10126
1.09753
1.09364
1.08958
1.08542
1.08115
1.07685
1.0725
1.06825
1.06405
1.06024
1.05686
1.05484
1.06411
1.08213
1.09317
1.1029
1.10888
1.11301
1.11547
1.11676
1.1171
1.11671
1.11571
1.11416
1.11214
1.10975
1.10701
1.10397
1.1007
1.0972
1.09354
1.08971
1.08573
1.08164
1.07744
1.07322
1.06894
1.06476
1.06061
1.05683
1.05346
1.05144
1.05584
1.07509
1.08686
1.0972
1.10356
1.10792
1.11054
1.11195
1.1124
1.1121
1.11116
1.10969
1.10775
1.10543
1.10276
1.09979
1.09659
1.09316
1.08956
1.08581
1.0819
1.07788
1.07377
1.06962
1.06542
1.0613
1.05721
1.05347
1.05011
1.04809
1.04739
1.06795
1.08049
1.09146
1.09822
1.10282
1.10561
1.10714
1.10769
1.10748
1.10663
1.10523
1.10337
1.10112
1.09852
1.09562
1.09249
1.08913
1.0856
1.08192
1.07808
1.07415
1.07012
1.06606
1.06194
1.05789
1.05386
1.05016
1.04681
1.04479
1.03882
1.06073
1.07406
1.08568
1.09285
1.09771
1.10068
1.10234
1.10299
1.10287
1.10209
1.10078
1.09898
1.09681
1.09429
1.09146
1.0884
1.08512
1.08166
1.07805
1.0743
1.07044
1.0665
1.06253
1.05849
1.05452
1.05055
1.04689
1.04356
1.04154
1.03018
1.05345
1.0676
1.07987
1.08747
1.09259
1.09574
1.09753
1.0983
1.09827
1.09757
1.09633
1.09461
1.09251
1.09006
1.0873
1.08432
1.08111
1.07772
1.0742
1.07053
1.06676
1.06291
1.05903
1.05508
1.05119
1.04729
1.04368
1.04036
1.03834
1.02151
1.04612
1.0611
1.07404
1.08208
1.08747
1.09081
1.09274
1.09361
1.09367
1.09305
1.09189
1.09024
1.08822
1.08585
1.08316
1.08025
1.07712
1.07381
1.07037
1.06678
1.06311
1.05935
1.05556
1.05171
1.0479
1.04407
1.04052
1.03723
1.0352
1.01288
1.03879
1.0546
1.0682
1.07668
1.08234
1.08588
1.08795
1.08893
1.08908
1.08855
1.08747
1.08589
1.08395
1.08164
1.07904
1.0762
1.07315
1.06991
1.06655
1.06305
1.05947
1.05581
1.05212
1.04837
1.04465
1.0409
1.03741
1.03414
1.03211
1.00436
1.03146
1.04811
1.06234
1.07128
1.07722
1.08096
1.08317
1.08426
1.08451
1.08406
1.08306
1.08156
1.07969
1.07746
1.07492
1.07216
1.06919
1.06603
1.06275
1.05934
1.05586
1.0523
1.04871
1.04506
1.04144
1.03777
1.03434
1.03111
1.02907
0.996013
1.02418
1.04163
1.05648
1.06587
1.0721
1.07604
1.0784
1.0796
1.07995
1.07958
1.07866
1.07724
1.07544
1.07328
1.07082
1.06813
1.06525
1.06216
1.05897
1.05565
1.05227
1.04881
1.04533
1.04178
1.03827
1.03469
1.03134
1.02814
1.0261
0.987887
1.01697
1.03519
1.05063
1.06047
1.06699
1.07114
1.07365
1.07497
1.07541
1.07513
1.07429
1.07294
1.07121
1.06913
1.06674
1.06412
1.06132
1.05831
1.05521
1.05198
1.0487
1.04534
1.04198
1.03854
1.03513
1.03166
1.02838
1.02524
1.02319
0.980038
1.00985
1.02881
1.04479
1.05507
1.0619
1.06626
1.06892
1.07035
1.07089
1.07069
1.06993
1.06866
1.067
1.06498
1.06268
1.06013
1.0574
1.05448
1.05146
1.04833
1.04515
1.0419
1.03864
1.03533
1.03203
1.02867
1.02549
1.02239
1.02035
0.972507
1.00286
1.0225
1.03897
1.04969
1.05681
1.06139
1.06421
1.06576
1.0664
1.06628
1.0656
1.0644
1.0628
1.06086
1.05863
1.05615
1.0535
1.05066
1.04773
1.0447
1.04162
1.03848
1.03534
1.03214
1.02897
1.02573
1.02265
1.01961
1.01758
0.965324
0.996013
1.01627
1.03319
1.04432
1.05175
1.05655
1.05953
1.0612
1.06194
1.0619
1.06129
1.06016
1.05863
1.05676
1.0546
1.0522
1.04962
1.04686
1.04401
1.04108
1.0381
1.03507
1.03205
1.02898
1.02595
1.02283
1.01987
1.0169
1.01488
0.958505
0.989342
1.01014
1.02744
1.03897
1.04671
1.05174
1.05488
1.05667
1.0575
1.05755
1.05701
1.05595
1.05449
1.05268
1.05059
1.04826
1.04575
1.04307
1.04031
1.03747
1.0346
1.03169
1.02878
1.02585
1.02296
1.01998
1.01714
1.01427
1.01226
0.95206
0.982863
1.00412
1.02174
1.03365
1.0417
1.04695
1.05027
1.05218
1.0531
1.05323
1.05276
1.05176
1.05036
1.04862
1.0466
1.04433
1.0419
1.0393
1.03662
1.03388
1.03111
1.02831
1.02553
1.02274
1.01999
1.01717
1.01447
1.01171
1.00972
0.945989
0.976597
0.998209
1.0161
1.02837
1.03673
1.0422
1.04569
1.04772
1.04874
1.04894
1.04853
1.0476
1.04627
1.04459
1.04263
1.04043
1.03806
1.03554
1.03295
1.0303
1.02764
1.02495
1.0223
1.01965
1.01706
1.0144
1.01186
1.00923
1.00728
0.940285
0.970557
0.992432
1.01053
1.02313
1.03179
1.0375
1.04115
1.04331
1.04442
1.04469
1.04434
1.04347
1.0422
1.04057
1.03868
1.03654
1.03423
1.0318
1.02929
1.02673
1.02417
1.0216
1.01908
1.01657
1.01414
1.01166
1.00931
1.00683
1.00494
0.934945
0.964759
0.986794
1.00503
1.01794
1.0269
1.03284
1.03667
1.03895
1.04013
1.04048
1.04019
1.03937
1.03815
1.03658
1.03474
1.03266
1.03042
1.02806
1.02563
1.02317
1.02071
1.01826
1.01586
1.0135
1.01125
1.00896
1.00682
1.00453
1.00271
0.929965
0.95921
0.981304
0.999627
1.01282
1.02206
1.02824
1.03223
1.03463
1.0359
1.03631
1.03607
1.0353
1.03413
1.03261
1.03082
1.0288
1.02662
1.02434
1.02199
1.01961
1.01725
1.01491
1.01265
1.01044
1.00836
1.00628
1.00438
1.00231
1.00061
0.925347
0.95392
0.975967
0.99432
1.00777
1.01729
1.02369
1.02785
1.03037
1.03171
1.03218
1.03198
1.03127
1.03014
1.02866
1.02692
1.02496
1.02284
1.02062
1.01835
1.01606
1.0138
1.01157
1.00943
1.00737
1.00549
1.00363
1.00198
1.0002
0.99865
0.921101
0.948895
0.970795
0.989137
1.00281
1.01259
1.01922
1.02354
1.02617
1.02758
1.0281
1.02795
1.02727
1.02618
1.02474
1.02305
1.02113
1.01907
1.01692
1.01472
1.01251
1.01035
1.00823
1.00622
1.00431
1.00261
1.00099
0.999638
0.99818
0.996863
0.917242
0.944139
0.9658
0.984093
0.997966
1.00799
1.01483
1.01929
1.02203
1.02351
1.02408
1.02395
1.02331
1.02225
1.02084
1.01919
1.01732
1.01531
1.01322
1.0111
1.00897
1.0069
1.00488
1.003
1.00124
0.999729
0.99836
0.99733
0.996263
0.995273
0.913797
0.939583
0.960898
0.979109
0.993155
1.00341
1.01046
1.01508
1.01792
1.01947
1.02007
1.01998
1.01936
1.01833
1.01695
1.01533
1.01351
1.01155
1.00952
1.00747
1.00542
1.00343
1.00152
0.99976
0.99815
0.996832
0.995722
0.995045
0.99444
0.993919
0.910656
0.935022
0.955883
0.97399
0.988211
0.998713
1.00599
1.01078
1.01375
1.01537
1.01602
1.01597
1.01537
1.01437
1.01303
1.01144
1.00966
1.00776
1.00579
1.00381
1.00183
0.999937
0.998127
0.996488
0.995028
0.9939
0.993055
0.992757
0.992696
0.99285
0.907765
0.93072
0.951209
0.969188
0.98349
0.994146
1.0016
1.00652
1.00958
1.01127
1.01197
1.01195
1.01139
1.01041
1.0091
1.00755
1.00581
1.00396
1.00205
1.00013
0.998232
0.996418
0.994704
0.993179
0.99186
0.990914
0.990328
0.99042
0.990974
0.992083
0.897446
0.919432
0.939878
0.957863
0.972178
0.982905
0.990461
0.995444
0.998491
1.00015
1.00082
1.00077
1.0002
0.99922
0.997928
0.996408
0.994728
0.992964
0.991157
0.989372
0.987634
0.986011
0.984531
0.983289
0.982326
0.98184
0.981933
0.983092
0.985496
0.990127
0.875019
0.896598
0.9162
0.932914
0.946344
0.956785
0.964474
0.969822
0.973337
0.97548
0.97661
0.976994
0.976822
0.976227
0.975316
0.974178
0.972882
0.971502
0.970084
0.968691
0.967356
0.966147
0.965101
0.964324
0.963881
0.964002
0.964858
0.967037
0.970862
0.977245
0.851412
0.872414
0.890944
0.90664
0.91951
0.929826
0.937689
0.943394
0.947365
0.949993
0.951602
0.952446
0.952717
0.952558
0.952075
0.951364
0.950492
0.949533
0.948532
0.947554
0.946632
0.945839
0.945213
0.944864
0.944862
0.945441
0.946771
0.949445
0.953846
0.960949
0.82658
0.846864
0.864489
0.879532
0.892085
0.902357
0.91039
0.916416
0.920797
0.923876
0.925945
0.927248
0.927971
0.928259
0.928221
0.927952
0.927518
0.926994
0.926424
0.925871
0.925367
0.924985
0.92476
0.924798
0.925165
0.926083
0.927701
0.930599
0.935168
0.942542
0.800832
0.820426
0.837339
0.851887
0.864185
0.874408
0.882584
0.888903
0.893674
0.897193
0.899724
0.901495
0.902684
0.903435
0.903853
0.904035
0.904047
0.903963
0.903825
0.903694
0.903599
0.903609
0.903755
0.904138
0.90481
0.905981
0.907771
0.91074
0.915247
0.922595
0.774209
0.793216
0.809544
0.823676
0.835749
0.845926
0.854231
0.86082
0.865956
0.869902
0.872891
0.875133
0.876795
0.878017
0.878899
0.879538
0.879998
0.880352
0.880638
0.880915
0.881211
0.881588
0.882072
0.882756
0.883682
0.885044
0.886935
0.889893
0.894233
0.901414
0.746728
0.765235
0.781075
0.794864
0.806755
0.816908
0.82534
0.832184
0.837668
0.842023
0.845459
0.848166
0.850299
0.851989
0.853336
0.854431
0.855335
0.856118
0.856815
0.857485
0.858148
0.858865
0.859654
0.860603
0.861743
0.863255
0.865207
0.868119
0.872257
0.879207
0.718398
0.736482
0.751918
0.765432
0.777194
0.787348
0.795914
0.803004
0.808822
0.813573
0.817441
0.820599
0.823193
0.825345
0.827149
0.828692
0.830031
0.831231
0.832325
0.833368
0.834377
0.835409
0.836478
0.837664
0.83899
0.840627
0.842623
0.845477
0.849408
0.856097
0.689236
0.706962
0.72207
0.735373
0.747049
0.75723
0.765936
0.773267
0.779406
0.784536
0.788821
0.792418
0.795461
0.798065
0.800316
0.802296
0.804057
0.805661
0.807136
0.808535
0.809872
0.811198
0.812526
0.813928
0.815424
0.817171
0.819203
0.821995
0.825722
0.832129
0.659265
0.676685
0.691527
0.704672
0.716297
0.726526
0.735379
0.742947
0.749396
0.754891
0.759577
0.763598
0.767076
0.77012
0.772806
0.775212
0.777383
0.779376
0.78122
0.78296
0.784608
0.786214
0.787785
0.78939
0.791042
0.792889
0.794952
0.797683
0.801209
0.80732
0.628506
0.645661
0.660287
0.673312
0.684916
0.69521
0.704218
0.71202
0.718769
0.724614
0.729687
0.734116
0.738015
0.741483
0.744591
0.747409
0.749977
0.752348
0.754546
0.756613
0.75856
0.760432
0.762235
0.76403
0.765827
0.767765
0.769852
0.772519
0.775848
0.781645
0.596981
0.613899
0.628343
0.64128
0.652886
0.663263
0.672431
0.680465
0.687504
0.693687
0.699131
0.703952
0.708254
0.71213
0.715643
0.718857
0.721808
0.724543
0.727082
0.729465
0.731699
0.733827
0.735852
0.737831
0.739769
0.741795
0.743907
0.74651
0.749643
0.755119
0.5647
0.581403
0.595694
0.608567
0.620194
0.630666
0.64
0.648262
0.655581
0.662088
0.667886
0.673082
0.677771
0.682035
0.685935
0.689528
0.692845
0.695929
0.698795
0.70148
0.70399
0.706363
0.708598
0.710748
0.712814
0.714916
0.717045
0.719584
0.722533
0.727657
0.531686
0.548183
0.562339
0.575164
0.586828
0.597404
0.606905
0.61539
0.62298
0.629796
0.635933
0.641485
0.646538
0.65117
0.655437
0.659389
0.663054
0.666469
0.669647
0.672622
0.675397
0.678007
0.680447
0.682768
0.684967
0.68715
0.689299
0.691768
0.694527
0.699326
0.497945
0.514241
0.528275
0.541066
0.552776
0.563461
0.573129
0.581832
0.589682
0.596793
0.603249
0.609136
0.614531
0.619508
0.624119
0.628408
0.632399
0.636126
0.639599
0.642847
0.645871
0.648699
0.651325
0.653794
0.6561
0.658347
0.660513
0.662928
0.66552
0.669912
0.463496
0.479584
0.493503
0.506268
0.51803
0.528824
0.538657
0.547571
0.555668
0.563056
0.569813
0.576011
0.581723
0.58702
0.591947
0.596547
0.60084
0.604858
0.608607
0.612112
0.615374
0.618416
0.621231
0.623856
0.626277
0.628582
0.630743
0.633074
0.635507
0.639621
0.428349
0.444215
0.458024
0.470767
0.482582
0.493483
0.503475
0.512591
0.520921
0.528567
0.5356
0.542085
0.548087
0.553673
0.558886
0.563767
0.568334
0.572615
0.576613
0.580347
0.583813
0.587033
0.589998
0.592745
0.595264
0.597642
0.59984
0.602124
0.604363
0.60798
0.392516
0.408136
0.421839
0.434563
0.446428
0.45743
0.467571
0.476876
0.485422
0.493305
0.500589
0.507332
0.513591
0.519433
0.524896
0.530023
0.534831
0.539346
0.543569
0.547519
0.551188
0.554593
0.557713
0.56057
0.56314
0.565502
0.567639
0.569844
0.572038
0.575461
0.356006
0.371347
0.384952
0.397661
0.409568
0.420658
0.430934
0.440414
0.449158
0.457253
0.464759
0.471726
0.478208
0.484265
0.489938
0.49527
0.500275
0.504978
0.509376
0.513485
0.517296
0.520828
0.524072
0.527056
0.529759
0.532229
0.5344
0.536476
0.538327
0.541156
0.318847
0.333863
0.347381
0.360073
0.372006
0.383164
0.393556
0.403194
0.412115
0.420396
0.428092
0.435246
0.441906
0.448131
0.453966
0.459454
0.464614
0.469472
0.474029
0.478295
0.482248
0.485886
0.489182
0.492152
0.494792
0.497184
0.499313
0.501408
0.503374
0.506031
0.281114
0.295735
0.309167
0.321828
0.333751
0.344944
0.355432
0.365211
0.37429
0.382727
0.390575
0.397875
0.404664
0.411003
0.41694
0.422517
0.427756
0.432685
0.437307
0.44164
0.445679
0.449435
0.452882
0.456006
0.458741
0.461097
0.463027
0.464771
0.466324
0.468457
0.242992
0.2571
0.270406
0.282978
0.294826
0.306008
0.316566
0.326469
0.33568
0.344237
0.352194
0.359585
0.366444
0.372833
0.378805
0.384414
0.389692
0.394667
0.399335
0.403689
0.407702
0.411375
0.414705
0.417734
0.420465
0.422931
0.425038
0.426883
0.42837
0.430045
0.204913
0.218283
0.231295
0.243632
0.255285
0.266381
0.276972
0.286974
0.29629
0.304931
0.31295
0.32038
0.327244
0.3336
0.339507
0.345027
0.350206
0.355097
0.359724
0.364104
0.368211
0.371999
0.375378
0.378305
0.380758
0.382826
0.384526
0.386032
0.387314
0.388526
0.167664
0.179901
0.192229
0.204012
0.215254
0.226143
0.236703
0.246757
0.256127
0.264795
0.272813
0.280207
0.286998
0.293247
0.299022
0.304399
0.309422
0.31413
0.318534
0.322655
0.326507
0.330113
0.33346
0.336518
0.339195
0.341427
0.343095
0.34429
0.345061
0.345629
0.132357
0.142906
0.153896
0.164573
0.175024
0.185477
0.195872
0.205893
0.21526
0.223908
0.231867
0.239145
0.245747
0.251735
0.257202
0.262262
0.267015
0.271539
0.275849
0.279903
0.283605
0.286893
0.289761
0.292296
0.294562
0.296591
0.298221
0.299328
0.29976
0.299436
0.100174
0.108441
0.117297
0.126149
0.135255
0.144855
0.154756
0.164496
0.173689
0.182196
0.189996
0.197068
0.203402
0.209051
0.214104
0.21867
0.222862
0.226804
0.230599
0.234302
0.237886
0.241248
0.244228
0.246726
0.248721
0.250317
0.251519
0.252222
0.252175
0.251136
0.0719641
0.0775678
0.0836555
0.089994
0.0971385
0.105302
0.114145
0.12315
0.13188
0.140061
0.147532
0.154193
0.160033
0.165145
0.169673
0.173759
0.17749
0.180919
0.184077
0.187015
0.189793
0.192453
0.19496
0.197222
0.199123
0.20063
0.201669
0.202006
0.201155
0.19885
0.047802
0.0507897
0.05402
0.0574927
0.0621818
0.0681319
0.0749464
0.082309
0.0898851
0.097292
0.104167
0.110237
0.115378
0.11965
0.123233
0.126363
0.129257
0.132073
0.134871
0.137591
0.140086
0.14224
0.144034
0.145557
0.146886
0.148071
0.149041
0.149411
0.148222
0.145026
0.0269241
0.0277282
0.0284913
0.0294509
0.0320836
0.0356003
0.0397081
0.0445081
0.049882
0.0554902
0.0609478
0.0659238
0.0701728
0.0735683
0.0761153
0.0779767
0.0794438
0.0808634
0.0824903
0.0843646
0.0863048
0.0880421
0.0893918
0.0903583
0.0910511
0.0915902
0.0920464
0.0922685
0.0910837
0.0873343
0.00826817
0.00724216
0.00313657
0.00218594
0.00459359
0.00633947
0.00777807
0.00962411
0.0119839
0.0146897
0.0175248
0.0202823
0.0227721
0.0248504
0.0264341
0.0275371
0.0282689
0.0288119
0.0293421
0.0299748
0.0307159
0.0314767
0.0321384
0.0326428
0.0329826
0.0331636
0.0331999
0.0332365
0.0327791
0.029876
0.880401
0.858215
0.834486
0.809524
0.78385
0.757312
0.729918
0.701698
0.672674
0.642857
0.612264
0.58094
0.54888
0.516103
0.482641
0.448511
0.413745
0.378372
0.342443
0.306032
0.269296
0.232481
0.196023
0.160647
0.127241
0.0967643
0.0699227
0.0468413
0.0267605
0.00865425
0.87526
0.85243
0.828606
0.803657
0.778082
0.751653
0.724362
0.696239
0.667318
0.637606
0.607118
0.575902
0.543953
0.511288
0.477947
0.443943
0.409314
0.374091
0.338332
0.30211
0.265596
0.229052
0.192932
0.157984
0.125089
0.0951785
0.0689088
0.0463386
0.0266181
0.00872401
0.86988
0.846768
0.822882
0.797956
0.772461
0.746133
0.718946
0.69092
0.662096
0.63249
0.602112
0.571001
0.539164
0.506613
0.473394
0.439518
0.405028
0.369956
0.334368
0.298338
0.262046
0.225771
0.189976
0.155421
0.122973
0.0935496
0.0677986
0.0457386
0.0264121
0.00874838
0.864337
0.84116
0.817245
0.792354
0.766937
0.740703
0.713613
0.68568
0.656952
0.627444
0.59717
0.56616
0.534431
0.50199
0.468892
0.435141
0.400786
0.365864
0.330443
0.294602
0.258528
0.222522
0.187057
0.152907
0.120929
0.0920152
0.0667818
0.0451954
0.0262235
0.00875394
0.858726
0.83563
0.811729
0.786879
0.761533
0.735385
0.708382
0.680535
0.6519
0.622484
0.592305
0.56139
0.529765
0.497431
0.464449
0.43082
0.396598
0.361821
0.326563
0.29091
0.255054
0.219318
0.184189
0.150453
0.118956
0.090564
0.0658514
0.0447152
0.0260619
0.00874756
0.853091
0.830166
0.80633
0.781533
0.756243
0.730173
0.703254
0.675488
0.646936
0.617606
0.587516
0.556692
0.525167
0.492937
0.460065
0.426556
0.392464
0.357828
0.32273
0.287263
0.251624
0.21616
0.181372
0.148057
0.117051
0.0891887
0.0649935
0.0442867
0.025924
0.00873159
0.847471
0.824768
0.801037
0.776309
0.751071
0.725069
0.698229
0.670539
0.642062
0.61281
0.582805
0.552068
0.520638
0.488509
0.455743
0.422353
0.388386
0.353888
0.318944
0.283662
0.248242
0.21305
0.178609
0.145722
0.115215
0.0878884
0.0642036
0.0439057
0.0258063
0.00870954
0.841896
0.819445
0.795846
0.771203
0.746017
0.720075
0.693307
0.665687
0.637279
0.608101
0.578174
0.547519
0.516177
0.484147
0.451486
0.41821
0.384364
0.350001
0.315209
0.280112
0.244911
0.209995
0.175907
0.143454
0.113454
0.0866639
0.0634798
0.0435699
0.0257072
0.00868296
0.836384
0.814202
0.790755
0.76621
0.741081
0.715193
0.688488
0.660935
0.632589
0.603479
0.573626
0.543047
0.511789
0.479855
0.447293
0.414128
0.380399
0.34617
0.311528
0.276613
0.241633
0.206997
0.173271
0.141259
0.111771
0.0855146
0.0628209
0.0432765
0.0256248
0.00865057
0.830956
0.809047
0.785768
0.76133
0.736262
0.710425
0.683774
0.656282
0.627996
0.598949
0.569161
0.538656
0.507476
0.475634
0.443168
0.410108
0.376493
0.342394
0.307902
0.273167
0.238409
0.204061
0.170705
0.13914
0.110166
0.0844403
0.0622231
0.0430216
0.0255568
0.00861554
0.825627
0.803988
0.780887
0.756564
0.731556
0.705768
0.679167
0.651731
0.623499
0.59451
0.564784
0.534346
0.503242
0.471487
0.43911
0.406151
0.372647
0.338675
0.30433
0.269773
0.235241
0.201185
0.168207
0.137096
0.108639
0.0834376
0.061682
0.0428003
0.0255002
0.00857919
0.82041
0.799034
0.776113
0.75191
0.726965
0.701223
0.674668
0.647283
0.619101
0.590164
0.560495
0.530123
0.49909
0.467415
0.435123
0.40226
0.368864
0.335015
0.300814
0.266432
0.232127
0.198367
0.165774
0.135124
0.107185
0.0825023
0.0611928
0.0426084
0.0254525
0.00854266
0.815317
0.794194
0.771449
0.747368
0.722488
0.696789
0.670277
0.642937
0.6148
0.585911
0.556296
0.525987
0.495021
0.463419
0.431208
0.398437
0.365146
0.331415
0.297353
0.263145
0.229069
0.19561
0.163407
0.133224
0.105803
0.0816307
0.0607514
0.0424424
0.0254121
0.00850721
0.810357
0.789473
0.766898
0.742939
0.718126
0.692468
0.665994
0.638694
0.610598
0.581752
0.55219
0.52194
0.491035
0.459503
0.427368
0.394684
0.361493
0.327877
0.293952
0.259917
0.22607
0.192916
0.161107
0.131395
0.104491
0.0808212
0.0603543
0.0422995
0.0253821
0.00847395
0.805539
0.784878
0.762466
0.738625
0.71388
0.68826
0.661819
0.634552
0.606496
0.577689
0.548178
0.517981
0.487134
0.455667
0.423606
0.391004
0.35791
0.324404
0.290614
0.256751
0.223137
0.190289
0.158878
0.12964
0.103252
0.080072
0.0599992
0.0421773
0.0253549
0.00844345
0.800874
0.780418
0.75816
0.73443
0.709751
0.684165
0.657755
0.630516
0.602495
0.573725
0.544259
0.514113
0.48332
0.451914
0.419924
0.387399
0.354396
0.320999
0.287342
0.253653
0.220272
0.187735
0.156724
0.127961
0.102084
0.0793818
0.0596834
0.0420737
0.0253277
0.00841612
0.796371
0.776099
0.753985
0.730358
0.705742
0.680188
0.653804
0.626588
0.5986
0.569862
0.540436
0.510336
0.479595
0.448246
0.416323
0.38387
0.350953
0.317662
0.284137
0.250623
0.217478
0.185254
0.154647
0.12636
0.100987
0.0787484
0.059404
0.0419861
0.0253027
0.0083923
0.792037
0.771929
0.749946
0.726412
0.701856
0.676329
0.649969
0.622773
0.594812
0.566102
0.536711
0.506653
0.475959
0.444663
0.412802
0.380417
0.34758
0.314394
0.281
0.24766
0.214753
0.182845
0.152646
0.124833
0.0999577
0.0781689
0.0591578
0.0419122
0.0252792
0.00837226
0.787878
0.767913
0.746048
0.722597
0.698096
0.672593
0.646253
0.619072
0.591133
0.562448
0.533086
0.503065
0.472414
0.441166
0.409361
0.377038
0.344279
0.311193
0.277929
0.244762
0.212096
0.180509
0.15072
0.123381
0.0989934
0.07764
0.0589417
0.0418501
0.0252572
0.00835617
0.783901
0.764056
0.742295
0.718915
0.694465
0.668982
0.642659
0.615489
0.587567
0.558902
0.529564
0.499575
0.468961
0.437755
0.405999
0.373736
0.34105
0.30806
0.274923
0.24193
0.209507
0.178243
0.148867
0.121999
0.0980915
0.0771592
0.0587535
0.0417969
0.0252366
0.00834416
0.780113
0.760363
0.738693
0.715372
0.690967
0.665499
0.639189
0.612025
0.584116
0.555466
0.526148
0.496184
0.465601
0.43443
0.402719
0.370512
0.337894
0.304997
0.271984
0.239164
0.206986
0.176049
0.147086
0.120689
0.0972507
0.0767245
0.0585916
0.0417517
0.0252179
0.00833626
0.776519
0.756842
0.735248
0.711971
0.687604
0.662146
0.635843
0.608684
0.580781
0.552144
0.522839
0.492895
0.462336
0.431196
0.399524
0.367369
0.334816
0.302006
0.269116
0.236468
0.204538
0.17393
0.145381
0.119449
0.0964709
0.0763349
0.0584552
0.0417444
0.0252018
0.00833217
0.773126
0.753496
0.731964
0.708719
0.68438
0.658926
0.632626
0.605466
0.577565
0.548937
0.519639
0.489709
0.459169
0.428054
0.396417
0.36431
0.331819
0.299092
0.266324
0.233849
0.202167
0.171889
0.143752
0.118283
0.0957522
0.0759893
0.0583421
0.0417156
0.0251868
0.00833139
0.769939
0.750333
0.728847
0.705618
0.681298
0.655841
0.629539
0.602374
0.574471
0.545845
0.51655
0.486628
0.456101