/*--------------------------------*- C++ -*----------------------------------*\
  =========                 |
  \\      /  F ield         | OpenFOAM: The Open Source CFD Toolbox
   \\    /   O peration     | Website:  https://openfoam.org
    \\  /    A nd           | Version:  7
     \\/     M anipulation  |
\*---------------------------------------------------------------------------*/
FoamFile
{
    version     2.0;
    format      ascii;
    class       surfaceScalarField;
    location    "4.3";
    object      phi;
}
// * * * * * * * * * * * * * * * * * * * * * * * * * * * * * * * * * * * * * //

dimensions      [0 3 -1 0 0 0 0];

internalField   nonuniform List<scalar> 
35640
(
-3.52952e-05
0.000477417
-0.000442122
-0.000115866
0.00143535
-0.00135478
-0.0002281
0.00240716
-0.00229492
-0.000360759
0.00332837
-0.00319571
-0.000504749
0.0041777
-0.0040337
-0.000652516
0.00495301
-0.00480524
-0.000797824
0.00565841
-0.0055131
-0.000935614
0.00629885
-0.00616106
-0.00106174
0.00687768
-0.00675155
-0.00117291
0.00739645
-0.00728529
-0.00126652
0.00785505
-0.00776144
-0.00134049
0.00825248
-0.00817851
-0.00139319
0.0085876
-0.00853491
-0.00142332
0.00885967
-0.00882954
-0.00142986
0.00906866
-0.00906212
-0.00141201
0.00921554
-0.0092334
-0.00136908
0.00930218
-0.00934511
-0.00130052
0.00933134
-0.0093999
-0.00120585
0.00930661
-0.00940128
-0.00108469
0.0092322
-0.00935336
-0.00093671
0.00911279
-0.00926078
-0.000761714
0.00895346
-0.00912846
-0.000559708
0.00875951
-0.00896151
-0.000330979
0.00853642
-0.00876515
-7.62263e-05
0.00828976
-0.00854452
0.000203272
0.00802518
-0.00830468
0.000505461
0.00774834
-0.00805053
0.000827322
0.00746466
-0.00778652
0.0011647
0.00718239
-0.00751977
0.00691134
0.00151208
-0.00725873
-3.46787e-05
0.000512093
-0.000113529
0.0015142
-0.000223453
0.00251708
-0.000353675
0.00345859
-0.000495461
0.00431948
-0.000641512
0.00509906
-0.000785655
0.00580256
-0.000922795
0.00643599
-0.00104881
0.0070037
-0.0011604
0.00750804
-0.00125491
0.00794956
-0.00133024
0.0083278
-0.00138469
0.00864206
-0.00141691
0.00889189
-0.0014258
0.00907755
-0.0014104
0.00920014
-0.0013699
0.00926168
-0.00130357
0.00926501
-0.00121072
0.00921376
-0.0010907
0.00911218
-0.000942955
0.00896505
-0.000767075
0.00877758
-0.000562829
0.00855526
-0.000330291
0.00830388
-6.99943e-05
0.00802947
0.000216882
0.00773831
0.000528326
0.0074369
0.000861222
0.00713176
0.0012111
0.00683251
0.0065506
0.00157184
-3.34531e-05
0.000545546
-0.000109295
0.00159004
-0.00021521
0.002623
-0.000341007
0.00358439
-0.000478413
0.00445689
-0.00062038
0.00524103
-0.000760893
0.00594307
-0.00089491
0.00657001
-0.00101833
0.00712711
-0.00112778
0.00761749
-0.0012206
0.00804238
-0.00129465
0.00840186
-0.00134821
0.00869561
-0.00137985
0.00892354
-0.00138839
0.00908609
-0.00137277
0.00918452
-0.00133203
0.00922094
-0.00126527
0.00919824
-0.00117161
0.0091201
-0.00105023
0.0089908
-0.000900381
0.0088152
-0.000721421
0.00859862
-0.000512918
0.00834676
-0.00027476
0.00806572
-7.30303e-06
0.00776201
0.000288439
0.00744256
0.000610537
0.0071148
0.000955856
0.00678644
0.00131974
0.00646863
0.00617483
0.0016955
-3.16571e-05
0.000577202
-0.000103405
0.00166179
-0.000203678
0.00272327
-0.000323084
0.00370379
-0.000453861
0.00458767
-0.000589324
0.00537649
-0.00072367
0.00607742
-0.000851897
0.00669824
-0.000969929
0.00724515
-0.00107443
0.00772199
-0.00116268
0.00813063
-0.00123251
0.00847169
-0.00128216
0.00874526
-0.00131016
0.00895154
-0.00131524
0.00909117
-0.00129626
0.00916554
-0.00125213
0.00917681
-0.00118182
0.00912794
-0.00108433
0.0090226
-0.00095866
0.00886513
-0.000803907
0.00866045
-0.00061928
0.00841399
-0.000404189
0.00813167
-0.000158358
0.00781989
0.000118037
0.00748561
0.000424162
0.00713644
0.000758258
0.0067807
0.0011173
0.0064274
0.00149657
0.00608937
0.00578253
0.00188888
-2.93351e-05
0.000606538
-9.58311e-05
0.00172829
-0.000188841
0.00281628
-0.000299869
0.00381482
-0.000421784
0.00470958
-0.00054828
0.00550299
-0.000673786
0.00620292
-0.000793456
0.00681791
-0.000903236
0.00735493
-0.00099977
0.00781852
-0.00108034
0.0082112
-0.00114274
0.00853409
-0.00118519
0.00878771
-0.00120615
0.0089725
-0.00120431
0.00908933
-0.00117844
0.00913967
-0.00112738
0.00912575
-0.00105
0.00905056
-0.000945177
0.00891778
-0.000811846
0.0087318
-0.000648999
0.0084976
-0.000455748
0.00822074
-0.000231406
0.00790732
2.44233e-05
0.00756406
0.000311719
0.00719832
0.000629847
0.00681831
0.00097729
0.00643326
0.00135124
0.00605345
0.00174706
0.00569354
0.00537236
0.00215723
-2.65184e-05
0.000633056
-8.66739e-05
0.00178844
-0.000170908
0.00290051
-0.000271677
0.00391559
-0.000382518
0.00482042
-0.00049758
0.00561805
-0.000611587
0.00631693
-0.000719845
0.00692617
-0.000818344
0.00745342
-0.000903748
0.00790393
-0.000973329
0.00828078
-0.00102486
0.00858563
-0.00105652
0.00881936
-0.00106675
0.00898273
-0.00105418
0.00907675
-0.00101754
0.00910303
-0.000955606
0.00906382
-0.000867204
0.00896215
-0.00075118
0.00880175
-0.000606422
0.00858704
-0.000431896
0.00832308
-0.000226692
0.00801554
9.9068e-06
0.00767072
0.000278355
0.00729561
0.000578742
0.00689793
0.000910624
0.00648643
0.00127276
0.00607112
0.00166268
0.00566353
0.00207602
0.00528021
0.00494331
0.00250507
-2.32777e-05
0.000656334
-7.61111e-05
0.00184128
-0.000150145
0.00297455
-0.000238824
0.00400427
-0.000336441
0.00491804
-0.000437642
0.00571925
-0.000537453
0.00641674
-0.000631384
0.0070201
-0.000715506
0.00753755
-0.0007865
0.00797492
-0.000841632
0.00833591
-0.000878667
0.00862266
-0.000895753
0.00883645
-0.000891308
0.00897829
-0.000863938
0.00904938
-0.000812352
0.00905144
-0.000735321
0.00898679
-0.000631659
0.00885849
-0.000500229
0.00867032
-0.000339951
0.00842676
-0.000149834
0.00813296
7.0974e-05
0.00779473
0.000323144
0.00741855
0.000607114
0.00701164
0.000923019
0.00658202
0.00127056
0.00613888
0.00164879
0.00569289
0.00205564
0.00525668
0.0024872
0.00484865
0.00449465
0.00293587
-1.96939e-05
0.000676028
-6.4333e-05
0.00188592
-0.000126867
0.00303708
-0.000201777
0.00407918
-0.000284115
0.00500038
-0.000369072
0.00580421
-0.000452036
0.00649971
-0.000528732
0.00709679
-0.000595332
0.00760415
-0.000648561
0.00802815
-0.000685697
0.00837305
-0.000704491
0.00864146
-0.000703074
0.00883503
-0.000679859
0.00895507
-0.000633447
0.00900297
-0.000562559
0.00898055
-0.000465994
0.00889023
-0.000342618
0.00873512
-0.000191366
0.00851907
-1.12493e-05
0.00824664
0.000198603
0.00792311
0.000438912
0.00755442
0.000710221
0.00714724
0.00101287
0.00670899
0.00134694
0.00624795
0.00171223
0.00577359
0.00210802
0.00529709
0.00253271
0.004832
0.00298298
0.00439838
0.00402601
0.00345161
-1.5835e-05
0.000691863
-5.15714e-05
0.00192165
-0.000101487
0.003087
-0.000161106
0.0041388
-0.000226261
0.00506553
-0.00029272
0.00587067
-0.000356264
0.00656325
-0.000412862
0.00715339
-0.000458821
0.00765011
-0.000490933
0.00806026
-0.000506497
0.00838861
-0.000503263
0.00863822
-0.000479363
0.00881113
-0.000433216
0.00890893
-0.000363447
0.0089332
-0.000268822
0.00888593
-0.000148214
0.00876962
-5.89066e-07
0.00858749
0.000174994
0.00834349
0.000379363
0.00804228
0.000613204
0.00768926
0.000877036
0.00729059
0.00117119
0.00685308
0.00149583
0.00638436
0.0018509
0.00589288
0.00223616
0.00538833
0.00265109
0.00488217
0.00309448
0.0043886
0.00356376
0.0039291
0.0035374
0.00405237
-1.17915e-05
0.000703655
-3.80861e-05
0.00194795
-7.44728e-05
0.00312339
-0.000117497
0.00418183
-0.000163767
0.0051118
-0.000209648
0.00591655
-0.000251342
0.00660495
-0.000285096
0.00718715
-0.000307388
0.0076724
-0.000315102
0.00806797
-0.000305574
0.00837908
-0.000276575
0.00860922
-0.000226255
0.00876081
-0.000153062
0.00883573
-5.56737e-05
0.00883582
6.7067e-05
0.00876319
0.000216168
0.00862052
0.000392514
0.00841115
0.000596868
0.00813913
0.000829838
0.0078093
0.00109187
0.00742724
0.0013832
0.00699925
0.00170391
0.00653237
0.00205388
0.0060344
0.00243282
0.00551394
0.00284038
0.00498077
0.00327608
0.00444647
0.00373907
0.00392561
0.00422751
0.00344067
0.00302913
0.00473578
-7.65392e-06
0.000711309
-2.41605e-05
0.00196446
-4.6351e-05
0.00314558
-7.17345e-05
0.00420721
-9.76686e-05
0.00513774
-0.000121123
0.00594001
-0.000138749
0.00662257
-0.000147102
0.0071955
-0.000142871
0.00766817
-0.000123058
0.00804816
-8.50686e-05
0.00834109
-2.67188e-05
0.00855087
5.38021e-05
0.00868029
0.00015799
0.00873155
0.000287084
0.00870672
0.000442114
0.00860815
0.000623938
0.00843869
0.000833248
0.00820184
0.00107057
0.00790181
0.00133625
0.00754363
0.00163042
0.00713306
0.00195302
0.00667664
0.00230379
0.00618161
0.00268226
0.00565592
0.00308787
0.00510833
0.00352001
0.00454863
0.00397813
0.00398835
0.0044616
0.00344214
0.00496925
0.00293302
0.00250175
0.00549663
-3.52116e-06
0.00071483
-1.00997e-05
0.00197103
-1.76922e-05
0.00315317
-2.46816e-05
0.0042142
-2.91303e-05
0.00514219
-2.86046e-05
0.00593948
-2.02204e-05
0.00661419
-8.83745e-07
0.00717616
3.24752e-05
0.00763481
8.26939e-05
0.00799794
0.000152265
0.00827152
0.000243297
0.00845984
0.000357528
0.00856606
0.000496362
0.00859271
0.00066092
0.00854216
0.000852074
0.008417
0.00107048
0.00822029
0.0013166
0.00795572
0.00159066
0.00762774
0.00189272
0.00724158
0.00222255
0.00680322
0.00257976
0.00631943
0.00296369
0.00579768
0.00337352
0.00524609
0.0038083
0.00467355
0.00426711
0.00408981
0.0047492
0.00350626
0.00525399
0.00293734
0.00578087
0.00240614
0.00195602
0.0063266
5.17531e-07
0.000714313
3.78354e-06
0.00196777
1.0905e-05
0.00314605
2.2737e-05
0.00420237
4.05758e-05
0.00512435
6.62847e-05
0.00591377
0.000102269
0.0065782
0.000151248
0.00712719
0.000216001
0.00757006
0.000299164
0.00791478
0.000403089
0.00816759
0.000529767
0.00833316
0.000680823
0.008415
0.000857534
0.008416
0.00106086
0.00833884
0.00129147
0.00818639
0.0015498
0.00796197
0.001836
0.00766952
0.00215
0.00731373
0.0024915
0.00690008
0.00285992
0.0064348
0.00325447
0.00592489
0.00367409
0.00537805
0.00411757
0.00480261
0.00458357
0.00420755
0.00507079
0.0036026
0.00557815
0.00299889
0.00610501
0.00241049
0.00665108
0.00186007
0.00139279
0.00721431
4.35008e-06
0.000709964
1.71737e-05
0.00195495
3.88316e-05
0.00312439
6.95651e-05
0.00417164
0.000110113
0.0050838
0.000161807
0.00586208
0.000226573
0.00651344
0.000306722
0.00704704
0.00040471
0.00747207
0.000522925
0.00779656
0.000663524
0.00802699
0.000828336
0.00816835
0.00101883
0.00822451
0.0012361
0.00819873
0.00148092
0.00809402
0.00175371
0.0079136
0.00205461
0.00766106
0.00238349
0.00734064
0.0027399
0.00695731
0.00312318
0.00651681
0.00353235
0.00602562
0.00396623
0.00549102
0.00442337
0.00492091
0.00490214
0.00432384
0.0054008
0.00370888
0.00591765
0.00308575
0.00645125
0.00246529
0.0070007
0.00186104
0.00756587
0.0012949
0.000812967
0.0081457
7.88868e-06
0.000702076
2.97665e-05
0.00193307
6.54883e-05
0.00308867
0.000114844
0.00412228
0.000178114
0.00502053
0.000256153
0.00578404
0.000350414
0.00641918
0.000462778
0.00693468
0.000595342
0.00733951
0.000750194
0.00764171
0.000929245
0.00784794
0.00113411
0.00796349
0.00136604
0.00799258
0.00162591
0.00793885
0.00191425
0.00780568
0.00223121
0.00759664
0.00257661
0.00731566
0.00294995
0.0069673
0.00335044
0.00655682
0.003777
0.00609025
0.00422828
0.00557434
0.00470268
0.00501661
0.00519837
0.00442522
0.00571333
0.00380888
0.00624543
0.00317678
0.00679256
0.00253862
0.00735289
0.00190496
0.00792517
0.00128875
0.00850922
0.000710852
0.000217486
0.0091047
1.10456e-05
0.00069103
4.12798e-05
0.00190283
9.03088e-05
0.00303964
0.00015765
0.00405494
0.000243239
0.00493494
0.000347514
0.00567977
0.000471475
0.00629522
0.000616562
0.00678959
0.000784476
0.00717159
0.00097696
0.00744923
0.00119562
0.00762928
0.00144179
0.00771731
0.00171648
0.0077179
0.00202028
0.00763504
0.00235342
0.00747254
0.00271574
0.00723432
0.00310672
0.00692469
0.00352549
0.00654853
0.00397088
0.00611144
0.0044414
0.00561972
0.00493532
0.00508042
0.00545064
0.00450129
0.00598516
0.0038907
0.00653649
0.00325756
0.00710212
0.00261115
0.00767958
0.00196116
0.00826661
0.00131793
0.00886159
0.000693774
0.00946409
0.000108352
-0.000392642
0.0100742
1.37453e-05
0.000677285
5.14653e-05
0.00186511
0.000112785
0.00297832
0.000197136
0.00397059
0.00030423
0.00482785
0.000434158
0.00554984
0.000587496
0.00614188
0.000765242
0.00661184
0.000968674
0.00696816
0.00119914
0.00721876
0.00145789
0.00737053
0.00174594
0.00742926
0.00206397
0.00739988
0.00241225
0.00728676
0.00279068
0.00709411
0.00319877
0.00682624
0.00363561
0.00648784
0.00409997
0.00608417
0.00459027
0.00562114
0.00510466
0.00510533
0.005641
0.00454408
0.00619694
0.00394535
0.00676989
0.00331775
0.00735713
0.00267032
0.0079558
0.00201247
0.00856306
0.0013539
0.00917626
0.000704724
0.00979337
7.66685e-05
0.0104136
-0.000511877
-0.00101626
0.0110372
1.59277e-05
0.000661358
6.01214e-05
0.00182092
0.000132493
0.00290595
0.000232575
0.00387051
0.000359974
0.00470045
0.000514515
0.0053953
0.000696387
0.00596001
0.000906154
0.00640208
0.00114465
0.00672967
0.00141279
0.00695061
0.00171143
0.00707189
0.0020412
0.00709949
0.00240241
0.00703867
0.00279499
0.00689418
0.00321846
0.00667064
0.00367195
0.00637275
0.00415419
0.0060056
0.00466357
0.0055748
0.00519813
0.00508658
0.00575563
0.00454783
0.00633359
0.00396612
0.00692927
0.00334968
0.00753974
0.00270728
0.00816193
0.00204813
0.00879264
0.00138176
0.00942869
0.000717856
0.010067
6.63823e-05
0.0107052
-0.000561511
0.011342
-0.00114871
-0.00165193
0.0119777
1.75513e-05
0.000643806
6.71036e-05
0.00177137
0.000149114
0.00282394
0.000263396
0.00375622
0.00040957
0.00455427
0.00058727
0.0052176
0.000796348
0.00575094
0.00103695
0.00616147
0.00130946
0.00645716
0.00161434
0.00664573
0.00195201
0.00673422
0.00232267
0.00672883
0.00272623
0.00663511
0.00316222
0.00645819
0.0036298
0.00620307
0.00412769
0.00587485
0.00465427
0.00547902
0.00520754
0.00502153
0.00578519
0.00450893
0.00638461
0.0039484
0.00700295
0.00334778
0.00763711
0.00271551
0.00828382
0.00206057
0.00893963
0.00139232
0.009601
0.000720381
0.0102644
5.44853e-05
0.0109263
-0.000595577
0.011584
-0.00121919
0.0122358
-0.00180049
-0.00229781
0.0128817
1.85957e-05
0.000625211
7.23349e-05
0.00171763
0.00016246
0.00273381
0.00028923
0.00362945
0.000452386
0.00439112
0.000651454
0.00501853
0.000885999
0.00551639
0.00115578
0.00589169
0.00146073
0.00615221
0.00180086
0.00630561
0.00217611
0.00635897
0.00258624
0.00631869
0.00303074
0.00619061
0.00350873
0.0059802
0.00401896
0.00569284
0.0045598
0.00533402
0.00512924
0.00490958
0.00572492
0.00442585
0.00634417
0.00388967
0.00698404
0.00330853
0.0076413
0.00269053
0.00831247
0.00204434
0.00899389
0.00137915
0.00968172
0.000704488
0.010372
3.00815e-05
0.0110608
-0.000634328
0.0117444
-0.00127911
0.0124194
-0.00189418
0.0130838
-0.00246494
-0.00295149
0.0137375
1.90648e-05
0.000606146
7.58133e-05
0.00166088
0.00017249
0.00263714
0.000309938
0.00349201
0.00048812
0.00421294
0.000706526
0.00480013
0.000964497
0.00525842
0.00126144
0.00559475
0.00159686
0.00581679
0.0019703
0.00593217
0.00238124
0.00594802
0.00282901
0.00587093
0.00331263
0.00570699
0.00383083
0.00546201
0.00438196
0.00514171
0.00496402
0.00475196
0.00557463
0.00429896
0.0062111
0.00378938
0.00687039
0.00323038
0.00754917
0.00262976
0.0082438
0.0019959
0.00895038
0.00133775
0.0096648
0.000664728
0.0103828
-1.34764e-05
0.0110999
-0.000687029
0.0118118
-0.00134621
0.0125142
-0.00198158
0.0132037
-0.00258362
0.0138777
-0.00313902
-0.00360984
0.0145361
1.89876e-05
0.000587159
7.76175e-05
0.00160225
0.00017932
0.00253543
0.000325637
0.00334569
0.000516838
0.00402173
0.000752445
0.00456452
0.00103163
0.00497923
0.00135351
0.00527288
0.00171717
0.00545313
0.00212174
0.00552759
0.00256625
0.0055035
0.00304957
0.00538761
0.00357031
0.00518625
0.00412678
0.00490553
0.00471698
0.00455151
0.00533851
0.00413042
0.00598866
0.00364881
0.00666434
0.00311369
0.00736215
0.00253258
0.0080783
0.0019136
0.00880871
0.00126549
0.00954898
0.000597488
0.0102944
-8.07437e-05
0.0110403
-0.000759316
0.0117816
-0.00142833
0.0125135
-0.00207814
0.0132315
-0.0026996
0.0139317
-0.00328383
0.0146116
-0.00381888
-0.00426897
0.0152707
1.84186e-05
0.00056874
7.7908e-05
0.00154276
0.00018323
0.00243011
0.000336712
0.0031922
0.000538999
0.00381945
0.000789709
0.00431381
0.00108791
0.00468103
0.00143245
0.00492833
0.0018221
0.00506348
0.00225558
0.00509412
0.0027315
0.00502759
0.0032483
0.00487081
0.0038042
0.00463035
0.00439712
0.00431261
0.00502468
0.00392396
0.00568412
0.00347099
0.00637232
0.00296061
0.00708581
0.0024002
0.0078207
0.00179769
0.00857271
0.00116159
0.0093372
0.000501004
0.0101091
-0.000174464
0.0108833
-0.000854885
0.0116542
-0.00153021
0.0124164
-0.00219051
0.0131646
-0.00282634
0.0138939
-0.00342896
0.0146004
-0.00399027
0.0152813
-0.00449981
-0.00492424
0.0159366
1.74372e-05
0.000551303
7.69244e-05
0.00148327
0.000184659
0.00232238
0.000343814
0.00303305
0.000555459
0.0036078
0.000819365
0.00404991
0.00113455
0.00436584
0.00149968
0.0045632
0.00191324
0.00464992
0.00237358
0.00463377
0.00287895
0.00452221
0.00342742
0.00432234
0.0040168
0.00404097
0.00464465
0.00368476
0.00530818
0.00326043
0.00600423
0.00277493
0.00672926
0.00223559
0.00747927
0.0016502
0.00824982
0.00102714
0.00903602
0.000375387
0.00983253
-0.000295509
0.0106337
-0.000975585
0.0114334
-0.00165465
0.0122257
-0.00232253
0.0130046
-0.0029694
0.0137644
-0.00358613
0.0145
-0.00416458
0.0152074
-0.00469761
0.015884
-0.00517643
-0.00557041
0.0165302
1.61451e-05
0.000535158
7.49777e-05
0.00142444
0.000184191
0.00221316
0.000347835
0.00286941
0.000567444
0.00338819
0.000842985
0.00377436
0.00117349
0.00403533
0.0015575
0.0041792
0.00199325
0.00421417
0.00247883
0.00414819
0.00301214
0.0039889
0.00359089
0.00374359
0.00421253
0.00341933
0.0048742
0.00302309
0.00557269
0.00256194
0.00630436
0.00204326
0.00706511
0.00147483
0.00785034
0.000864968
0.00865491
0.000222564
0.00947317
-0.000442879
0.010299
-0.00112136
0.011126
-0.00180255
0.0119474
-0.00247604
0.0127565
-0.00313168
0.013547
-0.00375987
0.0143129
-0.00435199
0.015049
-0.00490068
0.0157513
-0.00539995
0.0164177
-0.00584285
-0.00620189
0.0170492
1.46629e-05
0.000520495
7.24379e-05
0.00136667
0.000182531
0.00210307
0.000349876
0.00270206
0.000576497
0.00316157
0.000862594
0.00348827
0.00120727
0.00369066
0.00160897
0.0037775
0.00206579
0.00375735
0.00257556
0.00363842
0.00313587
0.00342858
0.00374409
0.00313537
0.00439727
0.00276616
0.0050921
0.00232826
0.00582484
0.0018292
0.00659125
0.00127685
0.00738656
0.000679531
0.00820537
4.61515e-05
0.00904174
-0.000613802
0.00988915
-0.00129029
0.0107407
-0.00197287
0.011589
-0.00265092
0.012427
-0.00331398
0.0132473
-0.00395204
0.0140434
-0.00455594
0.0148092
-0.00511775
0.0155396
-0.00563109
0.0162308
-0.00609122
0.0168812
-0.00649319
-0.0068129
0.0174922
1.31253e-05
0.000507369
6.97172e-05
0.00131007
0.000180471
0.00199232
0.000351191
0.00253134
0.000584399
0.00292837
0.000880555
0.00319211
0.00123886
0.00333236
0.00165775
0.00335861
0.00213518
0.00327992
0.00266876
0.00310484
0.00325579
0.00284155
0.00389324
0.00249792
0.00457771
0.00208169
0.00530533
0.00160064
0.00607171
0.00106283
0.00687184
0.000476715
0.00770009
-0.000148718
0.00855016
-0.000803921
0.00941515
-0.00147879
0.0102876
-0.00216279
0.0111599
-0.00284512
0.012024
-0.00351505
0.0128723
-0.00416225
0.0136974
-0.00477709
0.0144925
-0.00535106
0.0152518
-0.00587708
0.0159705
-0.00634983
0.0166452
-0.00676587
0.0172742
-0.00712216
-0.00739763
0.0178589
1.16742e-05
0.000495695
6.72501e-05
0.0012545
0.000178853
0.00188071
0.000353121
0.00235707
0.000593067
0.00268842
0.000899424
0.00288575
0.00127152
0.00296026
0.0017078
0.00292234
0.0022061
0.00278162
0.00276379
0.00254715
0.00337783
0.00222751
0.00404473
0.00183102
0.00476051
0.0013659
0.0055206
0.000840552
0.00631976
0.000263668
0.00715205
-0.000355576
0.00801082
-0.00100749
0.00888874
-0.00168184
0.00977792
-0.00236797
0.0106701
-0.00305495
0.0115568
-0.00373185
0.0124298
-0.00438808
0.0132813
-0.0050137
0.014104
-0.00559979
0.0148916
-0.00613865
0.0156387
-0.00662416
0.0163407
-0.0070519
0.0169943
-0.00741949
0.0175979
-0.0077257
-0.00795079
0.0181511
1.04522e-05
0.000485242
6.5471e-05
0.00119948
0.00017852
0.00176766
0.000357014
0.00217858
0.00060443
0.002441
0.000921773
0.00256841
0.0013085
0.00257353
0.00176305
0.00246779
0.0022831
0.00226157
0.00286575
0.0019645
0.00350751
0.00158575
0.00420431
0.00113422
0.0049514
0.000618816
0.0057433
4.86456e-05
0.00657377
-0.000566797
0.00743575
-0.00121756
0.00832146
-0.00189319
0.00922248
-0.00258287
0.01013
-0.00327549
0.011035
-0.00395998
0.0119288
-0.00462557
0.0128028
-0.00526215
0.0136497
-0.00586059
0.0144629
-0.00641297
0.015237
-0.00691274
0.0159675
-0.00735471
0.0166505
-0.0077349
0.0172815
-0.00805048
0.017855
-0.00829912
-0.00846844
0.0183726
9.59284e-06
0.000475649
6.47927e-05
0.00114428
0.000180274
0.00165218
0.000364147
0.00199471
0.00062031
0.00218484
0.00095001
0.00223871
0.0013528
0.00217073
0.00182707
0.00199353
0.00237026
0.00171838
0.00297906
0.0013557
0.00364939
0.00091541
0.0043764
0.000407209
0.0051544
-0.000159175
0.00597678
-0.000773742
0.00683611
-0.00142612
0.00772409
-0.00210554
0.00863179
-0.00280089
0.00954976
-0.00350084
0.0104684
-0.00419414
0.0113783
-0.00486988
0.0122706
-0.00551784
0.0131372
-0.00612881
0.0139715
-0.00669489
0.0147682
-0.00720962
0.0155235
-0.00766802
0.0162352
-0.00806644
0.0169023
-0.00840201
0.0175232
-0.00867138
0.0180892
-0.00886517
0.0185569
-0.00893607
0.00317414
0.033389
-0.0350511
0.00484471
0.0275275
-0.0291981
0.00617074
0.0251943
-0.0265203
0.00715008
0.0252005
-0.0261799
0.00780314
0.0265819
-0.027235
0.00818532
0.0285279
-0.0289101
0.00835606
0.0304892
-0.0306599
0.0083716
0.0322442
-0.0322597
0.00827885
0.0337786
-0.0336859
0.00811206
0.0351795
-0.0350127
0.00789397
0.0365166
-0.0362985
0.00763823
0.0378239
-0.0375681
0.00735409
0.0390993
-0.0388152
0.00704627
0.0403337
-0.0400259
0.00671942
0.0415071
-0.0411802
0.00637742
0.04261
-0.042268
0.0060222
0.0436419
-0.0432867
0.00565719
0.044595
-0.04423
0.00528415
0.0454705
-0.0450975
0.00490446
0.0462719
-0.0458922
0.00452031
0.0469892
-0.046605
0.00413195
0.0476363
-0.0472479
0.00374102
0.0481975
-0.0478066
0.0033475
0.0486879
-0.0482944
0.00295203
0.0490908
-0.0486953
0.00255429
0.0494222
-0.0490244
0.00215365
0.0496657
-0.0492651
0.00175153
0.0498532
-0.049451
0.00134878
0.0499915
-0.0495887
0.0501182
-0.049723
0.00328705
0.0316738
0.00499942
0.0258152
0.00635371
0.02384
0.00734866
0.0242056
0.00800903
0.0259215
0.00839351
0.0281435
0.00856339
0.0303193
0.00857613
0.0322314
0.00847901
0.0338758
0.00830684
0.0353517
0.00808336
0.0367401
0.00782151
0.0380857
0.0075308
0.03939
0.00721618
0.0406484
0.00688224
0.041841
0.00653202
0.0429602
0.00616867
0.0440053
0.00579457
0.0449691
0.00541194
0.0458532
0.00502242
0.0466614
0.00462747
0.0473841
0.00422836
0.0480354
0.00382587
0.0486
0.00342079
0.049093
0.00301324
0.0494984
0.00260342
0.049832
0.0021906
0.0500785
0.00177618
0.0502676
0.00136113
0.0504065
0.0505265
0.00344618
0.0299231
0.00518196
0.0240794
0.00655297
0.022469
0.00755599
0.0232026
0.00821934
0.0252582
0.00860369
0.0277591
0.00877144
0.0301515
0.00878077
0.0322221
0.00867915
0.0339774
0.00850161
0.0355292
0.00827267
0.036969
0.00800488
0.0383535
0.00770773
0.0396872
0.00738638
0.0409697
0.00704541
0.042182
0.00668713
0.0433185
0.00631574
0.0443767
0.00593264
0.0453522
0.00554049
0.0462453
0.00514117
0.0470607
0.00473545
0.0477898
0.00432562
0.0484453
0.0039116
0.049014
0.00349498
0.0495097
0.00307537
0.049918
0.00265342
0.0502539
0.00222839
0.0505036
0.00180148
0.0506945
0.00137395
0.0508341
0.0509482
0.00365504
0.0281569
0.00539406
0.0223404
0.00676919
0.0210939
0.00777221
0.0221995
0.00843392
0.0245965
0.00881557
0.0273775
0.00897998
0.0299871
0.00898529
0.0322168
0.00887896
0.0340837
0.00869619
0.035712
0.0084617
0.0372035
0.00818813
0.0386271
0.00788468
0.0399906
0.00755677
0.0412976
0.00720873
0.04253
0.00684277
0.0436845
0.00646323
0.0447562
0.00607127
0.0457442
0.00566975
0.0466468
0.00526051
0.04747
0.00484431
0.048206
0.0044236
0.048866
0.00399823
0.0494394
0.00356993
0.0499379
0.00313834
0.0503496
0.0027042
0.0506881
0.00226686
0.0509409
0.00182744
0.0511339
0.00138715
0.0512744
0.0513833
0.00391676
0.0263974
0.00563738
0.0206197
0.00700291
0.0197283
0.00799725
0.0212052
0.00865246
0.0239413
0.00902889
0.027001
0.00918871
0.0298273
0.00918934
0.0322162
0.00907817
0.0341949
0.00889036
0.0358998
0.00865024
0.0374436
0.008371
0.0389063
0.00806153
0.0403001
0.00772719
0.0416319
0.00737207
0.0428851
0.00699875
0.0440578
0.00661102
0.0451439
0.00621035
0.0461449
0.00579959
0.0470576
0.00538038
0.0478892
0.00495389
0.0486325
0.0045222
0.0492977
0.00408561
0.049876
0.00364557
0.050378
0.00320205
0.0507931
0.00275569
0.0511344
0.00230596
0.0513907
0.00185396
0.0515859
0.0014007
0.0517276
0.0518321
0.00423386
0.0246686
0.0059134
0.0189402
0.00725463
0.0183871
0.0082312
0.0202286
0.00887478
0.0232977
0.00924331
0.0266325
0.00939727
0.0296734
0.00939272
0.0322207
0.00927657
0.0343111
0.00908375
0.0360926
0.00883814
0.0376893
0.00855337
0.0391911
0.00823803
0.0406154
0.00789741
0.0419726
0.00753541
0.0432471
0.0071548
0.0444384
0.00675906
0.0455397
0.00634978
0.0465541
0.00592984
0.0474775
0.00550077
0.0483182
0.00506402
0.0490693
0.00462141
0.0497403
0.00417362
0.0503238
0.00372188
0.0508297
0.00326641
0.0512486
0.00280783
0.051593
0.00234566
0.0518528
0.00188099
0.0520506
0.00141461
0.052194
0.0522948
0.00460823
0.0229963
0.00622345
0.017325
0.00752479
0.0170858
0.00847406
0.0192794
0.00910065
0.0226711
0.00945853
0.0262746
0.00960534
0.0295266
0.00959517
0.0322309
0.00947389
0.0344323
0.0092761
0.0362904
0.00902519
0.0379402
0.00873506
0.0394812
0.008414
0.0409365
0.00806727
0.0423193
0.00769861
0.0436158
0.0073108
0.0448262
0.00690721
0.0459433
0.00648946
0.0469719
0.0060604
0.0479066
0.0056216
0.0487571
0.00517462
0.0495163
0.00472116
0.0501937
0.00426217
0.0507828
0.00379879
0.0512931
0.00333136
0.051716
0.00286055
0.0520638
0.00238591
0.0523275
0.00190849
0.052528
0.00142885
0.0526736
0.0527714
0.00504084
0.021407
0.00656851
0.0157973
0.00781378
0.0158405
0.00872583
0.0183673
0.00932986
0.0220671
0.00967424
0.0259302
0.00981263
0.0293882
0.00979637
0.0322471
0.00966988
0.0345588
0.00946717
0.0364931
0.00921115
0.0381962
0.00891585
0.0397765
0.00858925
0.0412631
0.00823661
0.0426719
0.00786148
0.0439909
0.00746663
0.045221
0.00705535
0.0463546
0.00662927
0.047398
0.00619119
0.0483447
0.00574276
0.0492055
0.00528561
0.0499734
0.00482137
0.050658
0.0043512
0.0512529
0.00387622
0.0517681
0.00339684
0.0521954
0.0029138
0.0525469
0.00242664
0.0528146
0.00193641
0.0530183
0.0014434
0.0531666
0.0532621
0.00553155
0.0199278
0.00694903
0.0143798
0.00812179
0.0146678
0.00898648
0.0175026
0.00956218
0.0214914
0.00989016
0.0256022
0.0100188
0.0292595
0.00999603
0.0322699
0.00986427
0.0346906
0.00965673
0.0367007
0.0093958
0.0384571
0.00909552
0.0400768
0.00876361
0.041595
0.00840524
0.0430303
0.00802387
0.0443723
0.00762215
0.0456228
0.00720333
0.0467734
0.00676909
0.0478322
0.0063221
0.0487917
0.00586415
0.0496634
0.0053969
0.0504407
0.00492197
0.0511329
0.00444064
0.0517343
0.00395409
0.0522546
0.00346279
0.0526867
0.00296752
0.0530421
0.00246782
0.0533143
0.00196473
0.0535214
0.00145828
0.0536731
0.0537672
0.00607884
0.0185848
0.00736478
0.0130939
0.00844875
0.0135838
0.00925589
0.0166955
0.0097974
0.0209499
0.010106
0.0252936
0.0102237
0.0291418
0.0101939
0.0322997
0.0100568
0.0348277
0.00984453
0.0369129
0.00957892
0.0387227
0.00927387
0.0403819
0.00893687
0.041932
0.00857301
0.0433942
0.00818561
0.0447597
0.00777723
0.0460311
0.00735102
0.0471996
0.0069088
0.0482744
0.00645303
0.0492475
0.00598568
0.0501308
0.00550842
0.0509179
0.00502288
0.0516184
0.00453042
0.0522267
0.00403235
0.0527527
0.00352915
0.0531899
0.00302166
0.0535496
0.0025094
0.0538266
0.0019934
0.0540374
0.00147348
0.054193
0.0542867
0.00667953
0.0174019
0.00781459
0.0119588
0.00879422
0.0126042
0.00953383
0.0159559
0.0100353
0.0204484
0.0103215
0.0250074
0.0104269
0.0290364
0.0103897
0.032337
0.0102472
0.0349701
0.0100304
0.0371298
0.00976028
0.0389928
0.00945068
0.0406914
0.00910886
0.0422738
0.00873974
0.0437633
0.00834653
0.0451529
0.00793172
0.0464459
0.00749831
0.047633
0.00704827
0.0487245
0.00658389
0.0497118
0.00610726
0.0506074
0.00562007
0.0514051
0.00512403
0.0521145
0.0046205
0.0527303
0.00411093
0.0532623
0.00359585
0.0537049
0.00307617
0.0540693
0.00255137
0.0543514
0.00202242
0.0545663
0.00148899
0.0547264
0.0548208
0.00732874
0.0163998
0.00829626
0.0109913
0.00915725
0.0117432
0.00981987
0.0152932
0.0102756
0.0199927
0.0105365
0.0247465
0.0106283
0.0289447
0.0105832
0.0323821
0.0104353
0.0351179
0.010214
0.0373512
0.00993965
0.0392671
0.00962576
0.0410053
0.00927936
0.0426202
0.00890524
0.0441374
0.00850646
0.0455517
0.00808547
0.0468669
0.00764505
0.0480734
0.00718739
0.0491821
0.00671456
0.0501847
0.00622881
0.0510931
0.00573178
0.0519022
0.00522533
0.0526209
0.00471079
0.0532448
0.00418979
0.0537833
0.00366284
0.0542319
0.00313098
0.0546012
0.00259367
0.0548887
0.00205176
0.0551082
0.00150479
0.0552734
0.0553695
0.00801983
0.0155942
0.00880649
0.0102046
0.00953637
0.0110133
0.0101134
0.0147162
0.0105179
0.0195882
0.0107506
0.0245137
0.0108275
0.0288678
0.0107741
0.0324355
0.0106209
0.0352711
0.0103952
0.0375769
0.0101168
0.0395455
0.00979889
0.0413233
0.00944818
0.0429709
0.00906933
0.0445163
0.00866523
0.0459558
0.00823831
0.0472939
0.00779112
0.0485206
0.00732604
0.0496472
0.00684492
0.0506658
0.00635022
0.0515878
0.00584347
0.0524089
0.00532671
0.0531377
0.00480123
0.0537703
0.00426885
0.0543157
0.00373007
0.0547707
0.00318606
0.0551452
0.00263628
0.0554385
0.00208142
0.0556631
0.00152089
0.0558339
0.055933
0.00874453
0.0149954
0.00934087
0.00960831
0.00992952
0.0104246
0.0104134
0.0142324
0.0107618
0.0192398
0.0109637
0.0243118
0.0110244
0.0288071
0.0109623
0.0324975
0.0108037
0.0354298
0.0105738
0.0378068
0.0102916
0.0398277
0.00996987
0.041645
0.00961511
0.0433257
0.00923182
0.0448995
0.00882267
0.0463649
0.00839008
0.0477265
0.00793637
0.0489743
0.00746409
0.0501195
0.00697488
0.051155
0.00647138