/*--------------------------------*- C++ -*----------------------------------*\
  =========                 |
  \\      /  F ield         | OpenFOAM: The Open Source CFD Toolbox
   \\    /   O peration     | Website:  https://openfoam.org
    \\  /    A nd           | Version:  7
     \\/     M anipulation  |
\*---------------------------------------------------------------------------*/
FoamFile
{
    version     2.0;
    format      ascii;
    class       volVectorField;
    location    "36";
    object      U;
}
// * * * * * * * * * * * * * * * * * * * * * * * * * * * * * * * * * * * * * //

dimensions      [0 1 -1 0 0 0 0];

internalField   nonuniform List<vector> 
2000
(
(0.00251297 -0.019859 5.34618e-22)
(0.00893142 -0.0392119 0)
(0.0172115 -0.0436832 0)
(0.0250224 -0.0365842 2.40874e-21)
(0.032205 -0.0207852 -8.00181e-22)
(0.0385316 0.00122389 -4.85576e-23)
(0.0438361 0.0273053 1.39223e-21)
(0.0480712 0.0556642 0)
(0.0512479 0.0848192 0)
(0.0534868 0.113446 0)
(0.00403279 -0.0214545 0)
(0.0116161 -0.0425308 1.90011e-21)
(0.0196657 -0.0480357 -1.7522e-21)
(0.026506 -0.0416809 -3.23463e-21)
(0.0323079 -0.0263694 0)
(0.037067 -0.00456266 -2.89898e-21)
(0.0407453 0.021601 2.69581e-21)
(0.0433616 0.0502639 0)
(0.0449517 0.0798341 -5.21563e-21)
(0.0456011 0.108899 1.00629e-20)
(0.00575451 -0.0226913 0)
(0.0147756 -0.0452187 -1.48181e-20)
(0.0228135 -0.0517444 0)
(0.028872 -0.0463092 -1.21781e-20)
(0.0334646 -0.0317991 0)
(0.0368224 -0.0105805 1.06885e-20)
(0.0390457 0.0152805 0)
(0.0402188 0.0439238 -1.03411e-20)
(0.0404112 0.073683 9.68503e-21)
(0.0396542 0.103055 9.45469e-21)
(0.00764057 -0.0235484 3.9288e-21)
(0.0183826 -0.0472287 7.46983e-21)
(0.0266748 -0.0547204 3.33406e-21)
(0.0321841 -0.0503378 6.19205e-21)
(0.0357708 -0.0369202 5.52925e-21)
(0.0379127 -0.0166855 -5.40167e-21)
(0.0388636 0.00845069 -4.91613e-21)
(0.0387819 0.0367081 4.71382e-22)
(0.0377807 0.0664103 -9.16769e-21)
(0.035821 0.0959731 -9.45291e-21)
(0.00966648 -0.0240343 3.89903e-21)
(0.0224335 -0.0485406 7.02002e-21)
(0.0312934 -0.0568754 1.23538e-20)
(0.0365262 -0.0535989 -5.81193e-21)
(0.0393376 -0.0415022 0)
(0.0404611 -0.0226271 0)
(0.0403244 0.00133002 9.51365e-21)
(0.0391787 0.0287677 9.1298e-21)
(0.0371928 0.0581026 -8.41025e-21)
(0.034245 0.0877136 -2.58628e-20)
(0.0118277 -0.0241812 -3.71908e-21)
(0.0269504 -0.0491558 -3.2617e-21)
(0.0367291 -0.0581237 1.78681e-20)
(0.0419874 -0.0558972 -2.69136e-20)
(0.044274 -0.0452434 5.03613e-21)
(0.0445855 -0.0280389 0)
(0.0435448 -0.00572136 0)
(0.0415246 0.0203833 -4.17748e-20)
(0.0387675 0.0489282 4.0818e-20)
(0.0350508 0.0783609 -8.37115e-21)
(0.014144 -0.0240381 -2.90732e-20)
(0.0319774 -0.0490935 0)
(0.043042 -0.0583913 -2.41257e-20)
(0.0486361 -0.0570304 2.14624e-20)
(0.0506539 -0.0477986 0)
(0.0503626 -0.0324558 -8.67645e-21)
(0.0485997 -0.0121914 2.36322e-20)
(0.0458961 0.0120109 3.17284e-20)
(0.0425983 0.0391965 -1.46544e-20)
(0.038352 0.0680697 -1.53827e-20)
(0.0166595 -0.0236622 5.7276e-20)
(0.0375702 -0.0483855 6.30783e-21)
(0.0502696 -0.057628 1.07987e-20)
(0.056485 -0.0568265 2.44179e-20)
(0.0584695 -0.0488366 8.75766e-21)
(0.0577711 -0.0353782 7.36101e-21)
(0.0554605 -0.0174632 -1.2407e-21)
(0.0522655 0.00425974 0)
(0.0486861 0.0293557 0)
(0.0442154 0.0570659 1.03558e-21)
(0.019438 -0.0231071 -2.82033e-20)
(0.0437797 -0.0470693 2.434e-20)
(0.0584008 -0.0558211 -1.68946e-20)
(0.0654553 -0.0551869 -3.33346e-20)
(0.06758 -0.0481179 8.47183e-21)
(0.0666144 -0.0363747 -8.5833e-21)
(0.0638765 -0.0209164 -7.43593e-21)
(0.0603401 -0.00218153 0)
(0.0567543 0.0198905 0)
(0.0525152 0.045326 -9.17342e-25)
(0.0225543 -0.0224121 3.3542e-21)
(0.050633 -0.0451803 -3.01099e-20)
(0.0673537 -0.0530066 5.31683e-21)
(0.0753545 -0.0521262 0)
(0.0776889 -0.0455737 0)
(0.076481 -0.0351914 -1.43036e-20)
(0.073262 -0.0220101 0)
(0.0692332 -0.00649496 1.18059e-20)
(0.0655156 0.0114755 3.93347e-22)
(0.0619745 0.0321879 -1.09259e-20)
(0.0591108 0.173453 -3.80113e-22)
(0.0588038 0.264689 3.85044e-22)
(0.054485 0.344242 3.28104e-22)
(0.0450451 0.418004 2.46207e-22)
(0.0332312 0.490539 8.40542e-23)
(0.0266566 0.566609 -3.8073e-23)
(0.0160477 0.651696 -1.27138e-23)
(0.0202777 0.7514 2.18797e-22)
(0.00269036 0.879711 0)
(0.0109162 1.01725 -2.92248e-22)
(0.047953 0.17009 -1.50234e-21)
(0.0461823 0.26356 1.42914e-21)
(0.041463 0.344669 -2.45106e-21)
(0.0326284 0.419316 -2.46649e-22)
(0.0224845 0.491857 -3.58546e-22)
(0.0179696 0.567267 -2.03005e-22)
(0.00980361 0.651654 -4.88425e-23)
(0.0160289 0.751547 -1.56536e-22)
(0.000638238 0.880638 3.53247e-22)
(0.00988199 1.0184 2.91548e-22)
(0.0383629 0.165451 0)
(0.0347537 0.261128 1.52905e-21)
(0.0293028 0.343715 6.8434e-22)
(0.0209289 0.419206 0)
(0.0122921 0.491696 9.24995e-22)
(0.00972542 0.56647 -4.13331e-22)
(0.00388102 0.650272 -1.63693e-22)
(0.0119995 0.750616 3.99286e-22)
(-0.00127445 0.880904 -3.52107e-22)
(0.00892853 1.01915 7.89329e-22)
(0.0306046 0.1596 0)
(0.0246958 0.257375 -1.54217e-21)
(0.0181702 0.341381 0)
(0.0100681 0.417633 -1.98919e-21)
(0.00272139 0.490006 1.99938e-21)
(0.00193961 0.564113 2.96992e-22)
(-0.00175981 0.647306 -2.24354e-22)
(0.00811905 0.748056 -3.14676e-22)
(-0.00313111 0.879763 -3.20158e-23)
(0.00798054 1.01901 -9.3101e-22)
(0.024911 0.152613 -4.88456e-22)
(0.0161499 0.252299 4.43277e-21)
(0.00819476 0.337792 3.35021e-22)
(0.000135455 0.414881 2.61944e-21)
(-0.00615034 0.487189 0)
(-0.00530741 0.560665 3.80993e-22)
(-0.0070126 0.64339 -3.33256e-22)
(0.00453987 0.744834 1.3414e-22)
(-0.00480561 0.878396 1.12202e-22)
(0.0071256 1.0187 -1.12593e-22)
(0.0214719 0.144572 1.07524e-20)
(0.00923161 0.245895 -7.22083e-21)
(-0.000481901 0.332802 -2.63831e-21)
(-0.00876757 0.410634 2.63677e-21)
(-0.0143075 0.482805 9.47721e-22)
(-0.012093 0.555574 0)
(-0.0120558 0.637684 4.63119e-22)
(0.00103286 0.739577 -2.72521e-22)
(-0.00648616 0.875107 1.30173e-22)
(0.006225 1.01725 3.87623e-22)
(0.0204378 0.13558 1.26247e-21)
(0.00399255 0.238284 0)
(-0.00783598 0.326996 0)
(-0.01663 0.405934 0)
(-0.021656 0.478133 6.5197e-22)
(-0.0182228 0.550276 -1.59807e-21)
(-0.016567 0.631983 -5.29809e-22)
(-0.00205214 0.734717 2.87141e-22)
(-0.00794151 0.872498 1.1883e-22)
(0.0054517 1.0161 -5.01137e-22)
(0.0219279 0.125891 -7.06644e-21)
(0.000539742 0.229248 -5.64959e-21)
(-0.0136799 0.319197 5.59812e-21)
(-0.023329 0.398892 -4.43137e-21)
(-0.0283086 0.471048 5.36928e-21)
(-0.0240385 0.542514 0)
(-0.0211178 0.623493 4.20709e-22)
(-0.005292 0.726574 5.59909e-23)
(-0.00950907 0.866846 -3.33905e-23)
(0.00456835 1.01337 -2.18971e-22)
(0.0259123 0.114866 5.60138e-21)
(-0.00131253 0.219992 0)
(-0.0183151 0.312879 5.87207e-21)
(-0.0290139 0.394143 -9.54742e-21)
(-0.0339406 0.466382 3.37456e-21)
(-0.0288456 0.53713 3.49455e-22)
(-0.0246921 0.617571 -4.19831e-22)
(-0.00779817 0.721374 -5.66819e-23)
(-0.0107515 0.863869 -8.98668e-23)
(0.00388623 1.01182 2.62451e-22)
(0.0310184 0.10072 5.18134e-21)
(-0.00100298 0.204814 -5.0145e-21)
(-0.0209741 0.29898 -6.71007e-22)
(-0.0333762 0.381886 0)
(-0.0392343 0.454981 0)
(-0.0339779 0.525567 -3.33208e-22)
(-0.0290872 0.605226 -6.41633e-22)
(-0.010973 0.709418 6.22866e-22)
(-0.0122589 0.855272 -1.83055e-23)
(0.0029913 1.0077 1.77261e-23)
(0.0270559 0.10448 0)
(-0.00643829 0.212222 0)
(-0.0307371 0.307332 0)
(-0.0443643 0.387619 0)
(-0.0488268 0.45601 0)
(-0.0417056 0.521908 0)
(-0.0344386 0.597764 0)
(-0.0152508 0.702066 0)
(-0.0148146 0.850347 0)
(0.00163235 1.00444 0)
(0.0184582 0.149584 0)
(-0.0127531 0.243003 0)
(-0.0369634 0.326567 0)
(-0.0508112 0.396473 0)
(-0.0547418 0.455182 0)
(-0.0474234 0.513858 0)
(-0.0387351 0.586343 0)
(-0.0196848 0.692442 0)
(-0.0169898 0.842311 0)
(0.000357091 0.994697 0)
(0.0122119 0.182156 0)
(-0.0148952 0.270991 0)
(-0.0364475 0.344971 0)
(-0.0481966 0.404259 0)
(-0.0515573 0.453102 0)
(-0.045566 0.503637 0)
(-0.0376752 0.571566 0)
(-0.020725 0.678988 0)
(-0.0181317 0.834015 0)
(-0.000815518 0.988155 0)
(0.00771865 0.206324 0)
(-0.0133346 0.293621 0)
(-0.0330943 0.36125 0)
(-0.0440788 0.411677 0)
(-0.047381 0.452492 0)
(-0.0426566 0.496729 0)
(-0.0357797 0.561313 0)
(-0.0201736 0.668348 0)
(-0.0166946 0.823051 0)
(-0.000848978 0.974978 0)
(0.0040905 0.223713 0)
(-0.0091941 0.31043 0)
(-0.024409 0.374835 0)
(-0.0343841 0.418998 0)
(-0.0392773 0.452956 0)
(-0.037425 0.490859 0)
(-0.0332581 0.551364 0)
(-0.0210544 0.658951 0)
(-0.0176751 0.816516 0)
(-0.0016713 0.968728 0)
(0.00240015 0.235338 0)
(-0.00603274 0.3233 0)
(-0.0184358 0.386865 0)
(-0.0271232 0.427201 0)
(-0.0321506 0.456538 0)
(-0.0316463 0.489588 0)
(-0.0288907 0.545729 0)
(-0.0187837 0.650565 0)
(-0.0158746 0.806456 0)
(-0.00190175 0.955257 0)
(0.00290835 0.239387 0)
(0.000836961 0.329863 0)
(-0.00756744 0.395671 0)
(-0.0165491 0.433409 0)
(-0.0241009 0.458406 0)
(-0.0269807 0.486982 0)
(-0.0273511 0.539681 0)
(-0.019844 0.643404 0)
(-0.0163444 0.800902 0)
(-0.00229324 0.950705 0)
(0.00405317 0.240914 0)
(0.00376353 0.333513 0)
(-0.00146094 0.403931 0)
(-0.00865454 0.443931 0)
(-0.0158552 0.468011 0)
(-0.0197828 0.493075 0)
(-0.0218495 0.540491 0)
(-0.0173515 0.63867 0)
(-0.0149703 0.790731 0)
(-0.00261055 0.935248 0)
(0.00970435 0.239844 0)
(0.0114921 0.335066 0)
(0.00721573 0.40873 0)
(-0.00121277 0.448079 0)
(-0.0106875 0.469506 0)
(-0.0171014 0.491877 0)
(-0.021167 0.537096 0)
(-0.0181732 0.633984 0)
(-0.0154196 0.787512 0)
(-0.00291583 0.93295 0)
(0.0114951 0.234209 0)
(0.0154338 0.332934 0)
(0.0147575 0.415747 0)
(0.00855017 0.462438 0)
(-0.000509276 0.485361 0)
(-0.00819023 0.504685 0)
(-0.014552 0.543618 0)
(-0.0150651 0.632097 0)
(-0.0140863 0.776554 0)
(-0.00325696 0.915682 0)
(0.0505445 0.0594909 -2.6939e-21)
(0.0394189 0.104476 2.65394e-21)
(0.0289737 0.136438 -3.16264e-22)
(0.0195335 0.160098 0)
(0.0116463 0.176999 0)
(0.00621386 0.18747 -2.10745e-22)
(0.0037298 0.191301 4.64645e-22)
(0.00362017 0.191712 -4.56162e-22)
(0.00751803 0.189868 -2.3704e-23)
(0.00896112 0.183032 2.31009e-23)
(0.0605085 0.0497528 3.28643e-21)
(0.0469953 0.0899534 0)
(0.0345896 0.11935 -2.1087e-21)
(0.0234535 0.141424 4.60178e-21)
(0.0142139 0.157234 -2.73068e-21)
(0.00755037 0.166802 2.05159e-22)
(0.00411915 0.170367 -3.17284e-22)
(0.00347875 0.170303 -3.26034e-22)
(0.00660446 0.168171 1.72291e-23)
(0.00797885 0.160927 -6.0858e-24)
(0.0685499 0.045989 -3.61682e-21)
(0.0530437 0.0795568 2.51677e-21)
(0.0393068 0.104536 -2.49246e-21)
(0.0269166 0.123602 2.32234e-21)
(0.016569 0.137245 -1.76815e-21)
(0.00881985 0.145296 0)
(0.00449786 0.148263 3.1802e-22)
(0.00330446 0.147673 -1.56424e-23)
(0.00567238 0.145388 8.74245e-23)
(0.00703514 0.138068 3.42864e-23)
(0.0753322 0.0430596 5.6787e-22)
(0.0580946 0.0697061 0)
(0.0434021 0.0896775 0)
(0.0299403 0.105213 0)
(0.0185984 0.116202 -1.6375e-21)
(0.0098845 0.122493 1.04656e-21)
(0.00477368 0.124717 -7.3443e-23)
(0.00307534 0.12366 1.53468e-22)
(0.00477129 0.121399 3.69127e-23)
(0.00613093 0.114293 8.10382e-24)
(0.08068 0.0377736 -2.1391e-22)
(0.0619767 0.0577576 1.77128e-21)
(0.0466539 0.0728394 1.31132e-21)
(0.0323351 0.0849659 -1.31034e-21)
(0.0201875 0.0933193 5.83193e-22)
(0.0107023 0.0979828 0)
(0.00495782 0.0995495 3.58391e-22)
(0.00283415 0.0982337 -4.01743e-22)
(0.00395754 0.0962083 1.74816e-22)
(0.00528637 0.0895486 -4.53823e-23)
(0.0845018 0.0285742 4.52302e-21)
(0.0646923 0.0424611 -4.8793e-22)
(0.0490512 0.0530764 2.74612e-23)
(0.0341091 0.0622472 -1.34169e-21)
(0.0213759 0.06828 0)
(0.0113251 0.0716876 0)
(0.00509965 0.0728375 0)
(0.00263208 0.0715582 -2.52813e-22)
(0.00326862 0.0699705 0)
(0.00451133 0.0639208 0)
(0.0868243 0.0152262 0)
(0.0663634 0.0238362 -1.94802e-21)
(0.0507082 0.0304799 1.31768e-21)
(0.0353702 0.0372376 1.30322e-21)
(0.0222668 0.041354 -1.3099e-21)
(0.0118397 0.0439429 -4.60155e-22)
(0.00526438 0.0449527 5.35582e-22)
(0.00251893 0.0440007 9.43571e-22)
(0.0027244 0.0429895 -7.4975e-23)
(0.0038208 0.0376523 3.39596e-23)
(0.0877162 -0.00159278 0)
(0.0671125 0.00274692 6.31585e-22)
(0.0517343 0.0058617 3.33575e-22)
(0.0362273 0.0107004 0)
(0.0229564 0.0132635 -2.65727e-22)
(0.0123278 0.0154105 8.5277e-22)
(0.00550577 0.0165015 -5.67438e-22)
(0.0025271 0.0160844 -9.53041e-23)
(0.0023185 0.0156911 7.29805e-23)
(0.0032237 0.0111361 -5.84528e-23)
(0.0872742 -0.020757 -4.34714e-22)
(0.0670499 -0.0195758 -6.31903e-22)
(0.0522159 -0.0196542 1.42892e-22)
(0.0367624 -0.0163321 -1.67586e-22)
(0.0235105 -0.0150455 -3.14513e-22)
(0.0128473 -0.0130839 -4.01333e-22)
(0.00585175 -0.01179 1.02272e-22)
(0.00266502 -0.0115869 6.91973e-23)
(0.00202887 -0.0114283 -7.32191e-23)
(0.0025573 -0.0151277 -1.5183e-23)
(0.085627 -0.0410474 1.29962e-22)
(0.0662955 -0.0419215 -1.31191e-22)
(0.0522314 -0.0449527 1.61672e-22)
(0.0370271 -0.0428205 1.67331e-22)
(0.0239684 -0.04262 -1.43254e-22)
(0.0134181 -0.0407144 2.7813e-22)
(0.0063094 -0.0391995 -1.45169e-22)
(0.00292138 -0.0384148 -2.6016e-23)
(0.00185495 -0.0378312 0)
(0.00207541 -0.0406332 1.52091e-23)
(0.0830131 -0.0613571 -1.17395e-22)
(0.0649874 -0.0633317 1.18401e-22)
(0.0518433 -0.0691039 1.45569e-22)
(0.037068 -0.0679001 1.55868e-22)
(0.0243486 -0.0686529 1.40012e-22)
(0.0140274 -0.0667877 -1.23517e-23)
(0.0068525 -0.0651157 -5.80273e-23)
(0.00326082 -0.0638834 -1.13006e-22)
(0.00177045 -0.0630018 0)
(0.00164981 -0.0649556 1.43365e-23)
(0.0797411 -0.0808896 0)
(0.0632662 -0.0831715 5.24136e-22)
(0.0511047 -0.0914491 -9.43476e-22)
(0.0369435 -0.0909819 -1.56096e-22)
(0.024647 -0.0925704 -2.82937e-22)
(0.0146438 -0.0908259 -3.78646e-22)
(0.00742231 -0.0891055 1.00723e-22)
(0.00363195 -0.0876185 6.9808e-23)
(0.00173361 -0.0865524 -8.00659e-23)
(0.00128915 -0.0877762 -1.42969e-23)
(0.0760847 -0.0991582 0)
(0.0612815 -0.101145 4.02771e-22)
(0.050073 -0.111614 2.70296e-22)
(0.036706 -0.11178 0)
(0.0248533 -0.11407 8.0338e-22)
(0.0152333 -0.1126 -2.73848e-22)
(0.00797008 -0.110947 -2.18123e-22)
(0.00399661 -0.10942 -4.38714e-22)
(0.00172216 -0.108261 7.98044e-23)
(0.000997424 -0.108907 -5.26075e-23)
(0.072274 -0.115955 0)
(0.0591686 -0.117258 -4.06094e-22)
(0.0488101 -0.129478 0)
(0.0363953 -0.130293 -1.05333e-21)
(0.0249624 -0.133109 1.05882e-21)
(0.0157683 -0.132119 4.22198e-22)
(0.0084671 -0.130617 -4.11942e-23)
(0.00433342 -0.129254 4.29724e-22)
(0.00172755 -0.128063 8.0842e-23)
(0.00076665 -0.128292 7.83945e-23)
(0.0684864 -0.131279 -6.72879e-22)
(0.0570497 -0.131761 3.30954e-22)
(0.0473818 -0.145122 -1.7784e-22)
(0.0360381 -0.146745 9.03286e-22)
(0.0249776 -0.149853 0)
(0.0162236 -0.149566 4.03709e-22)
(0.00889528 -0.148251 -9.36626e-23)
(0.00462742 -0.14722 -5.75987e-22)
(0.0017454 -0.146024 -2.53847e-23)
(0.000586296 -0.145988 2.53567e-23)
(0.0648437 -0.145231 9.45066e-22)
(0.0550495 -0.145072 -7.33893e-22)
(0.0458681 -0.158757 -8.02392e-22)
(0.0356531 -0.16149 8.01941e-22)
(0.0249137 -0.164599 4.38727e-22)
(0.0165801 -0.165227 0)
(0.00924889 -0.164078 6.3689e-22)
(0.00487165 -0.163502 -3.44126e-22)
(0.00177537 -0.1623 -2.0031e-22)
(0.000446682 -0.162132 -4.4569e-23)
(0.0614449 -0.157885 -1.57387e-22)
(0.0533153 -0.157705 0)
(0.0443778 -0.170656 0)
(0.0352569 -0.17492 0)
(0.0248031 -0.177696 3.77705e-22)
(0.0168312 -0.179415 -8.15443e-22)
(0.0095344 -0.178367 -6.22477e-22)
(0.00506627 -0.178326 7.62674e-22)
(0.00181975 -0.1771 -4.6847e-23)
(0.000339857 -0.176916 9.04663e-23)
(0.0582216 -0.169182 -8.32637e-22)
(0.0518807 -0.170176 -6.87108e-22)
(0.0429835 -0.181114 6.80691e-22)
(0.0348385 -0.187384 -1.48466e-21)
(0.0246975 -0.189497 1.84003e-21)
(0.017003 -0.192422 0)
(0.0097829 -0.191389 3.02114e-22)
(0.0052249 -0.191928 -1.06748e-23)
(0.00188577 -0.190656 1.34293e-22)
(0.000260343 -0.190553 3.88971e-23)
(0.0545042 -0.17877 -2.66715e-22)
(0.0502778 -0.182924 0)
(0.0415608 -0.190463 1.05561e-21)
(0.0342762 -0.19916 -2.28219e-21)
(0.0246136 -0.200337 9.26758e-22)
(0.0171406 -0.204501 1.62716e-22)
(0.010061 -0.203394 -3.01427e-22)
(0.00539273 -0.204525 -4.72361e-23)
(0.00199361 -0.203196 -2.62147e-22)
(0.000202536 -0.203264 -7.95208e-23)
(0.0507101 -0.185805 -1.02616e-21)
(0.0483011 -0.196263 9.9971e-22)
(0.0401455 -0.199148 -7.99324e-23)
(0.0334402 -0.210483 0)
(0.0243879 -0.210542 0)
(0.0170873 -0.215879 -1.67733e-22)
(0.0102728 -0.214605 -4.89711e-22)
(0.00553584 -0.216314 4.80437e-22)
(0.00211409 -0.214924 3.99392e-23)
(0.000152649 -0.215266 -3.90305e-23)
(0.0531115 -0.193661 0)
(0.0485425 -0.227729 0)
(0.0397589 -0.218846 0)
(0.0320672 -0.236459 0)
(0.0232751 -0.234013 0)
(0.0158053 -0.242111 0)
(0.00964053 -0.240366 0)
(0.00507219 -0.243344 0)
(0.00199253 -0.241611 0)
(9.33652e-05 -0.242606 0)
(0.0442516 -0.243241 0)
(0.0364821 -0.276329 0)
(0.0319256 -0.263738 0)
(0.0246204 -0.281769 0)
(0.0190185 -0.27658 0)
(0.0129643 -0.28565 0)
(0.00855391 -0.282499 0)
(0.00470126 -0.28636 0)
(0.00211365 -0.283755 0)
(0.000207045 -0.285396 0)
(0.0405564 -0.293154 0)
(0.0317179 -0.325255 0)
(0.0273513 -0.310442 0)
(0.0203829 -0.329044 0)
(0.0161006 -0.321415 0)
(0.010892 -0.331538 0)
(0.0076449 -0.32678 0)
(0.00429417 -0.331512 0)
(0.00213796 -0.327761 0)
(0.00021261 -0.330171 0)
(0.0358282 -0.346747 0)
(0.0272347 -0.378513 0)
(0.0234987 -0.361602 0)
(0.0170857 -0.381082 0)
(0.013819 -0.371258 0)
(0.009264 -0.382731 0)
(0.00691872 -0.376245 0)
(0.00392257 -0.382035 0)
(0.00216132 -0.376916 0)
(0.000205266 -0.38031 0)
(0.031186 -0.408705 0)
(0.0233445 -0.440794 0)
(0.0199895 -0.422089 0)
(0.0143479 -0.442804 0)
(0.0118079 -0.431039 0)
(0.00791852 -0.444081 0)
(0.00620687 -0.435854 0)
(0.00352545 -0.442921 0)
(0.00211853 -0.436344 0)
(0.000168916 -0.441016 0)
(0.0265911 -0.484651 0)
(0.0195126 -0.516336 0)
(0.0166764 -0.497224 0)
(0.0118334 -0.518816 0)
(0.00992681 -0.505998 0)
(0.00659712 -0.52037 0)
(0.00533887 -0.510865 0)
(0.00292047 -0.519258 0)
(0.00186061 -0.511539 0)
(5.3719e-05 -0.517681 0)
(0.0207774 -0.57625 0)
(0.0155424 -0.604765 0)
(0.0131791 -0.588645 0)
(0.00937003 -0.608991 0)
(0.00778053 -0.597283 0)
(0.00501792 -0.611424 0)
(0.00397273 -0.602139 0)
(0.00185228 -0.610974 0)
(0.00113683 -0.603206 0)
(-0.000168533 -0.610283 0)
(0.0168309 -0.674189 0)
(0.0119737 -0.695755 0)
(0.00980958 -0.686098 0)
(0.00641689 -0.701418 0)
(0.00526523 -0.693825 0)
(0.00293695 -0.704827 0)
(0.00215822 -0.698056 0)
(0.000402234 -0.705132 0)
(0.000177071 -0.69911 0)
(-0.000378864 -0.705366 0)
(0.00962349 -0.755028 0)
(0.00634431 -0.765604 0)
(0.00524334 -0.764622 0)
(0.00334559 -0.773316 0)
(0.00275689 -0.77147 0)
(0.00125577 -0.777182 0)
(0.000700922 -0.774069 0)
(-0.000415559 -0.777452 0)
(-0.000354142 -0.774166 0)
(-0.000348966 -0.777603 0)
(0.00171161 -0.795837 0)
(0.00124317 -0.804652 0)
(0.00116176 -0.807137 0)
(0.000995648 -0.812076 0)
(0.000767098 -0.812269 0)
(0.000377911 -0.81493 0)
(8.01377e-05 -0.813532 0)
(-0.000231837 -0.814706 0)
(-0.000227925 -0.81297 0)
(-0.000116201 -0.814445 0)
(0.0505959 -0.214195 3.05295e-21)
(0.0456896 -0.263313 -2.99587e-21)
(0.0429268 -0.312878 5.16652e-22)
(0.0383546 -0.366542 0)
(0.0338753 -0.428631 0)
(0.0290573 -0.503661 8.47112e-22)
(0.0236281 -0.591803 -4.04654e-21)
(0.0182712 -0.681126 4.02355e-21)
(0.0113854 -0.756918 1.19509e-21)
(0.00341555 -0.791732 -1.18095e-21)
(0.0501164 -0.221445 -3.51238e-21)
(0.0466798 -0.269767 0)
(0.0440509 -0.318661 3.87576e-21)
(0.0395322 -0.372119 -9.40239e-21)
(0.0351011 -0.434189 6.49542e-21)
(0.0301985 -0.508882 -7.62953e-22)
(0.0248744 -0.595719 1.89312e-21)
(0.0189333 -0.683356 4.23291e-21)
(0.012176 -0.756061 1.2709e-21)
(0.00417126 -0.790974 1.28407e-21)
(0.0504138 -0.228634 4.38764e-21)
(0.0482558 -0.276159 -3.95717e-21)
(0.0455584 -0.323928 3.91969e-21)
(0.0410371 -0.376789 -5.60608e-21)
(0.0365822 -0.438582 4.1213e-21)
(0.0315473 -0.512757 0)
(0.0260973 -0.598257 -1.89786e-21)
(0.0197065 -0.684626 1.5711e-22)
(0.0127543 -0.754186 -2.24824e-21)
(0.00455077 -0.790328 -2.4368e-21)
(0.0513939 -0.235286 -7.46816e-22)
(0.0503192 -0.28239 0)
(0.0474772 -0.329191 0)
(0.04292 -0.381474 0)
(0.0383653 -0.442917 5.22361e-21)
(0.033136 -0.516486 -3.51926e-21)
(0.0273999 -0.600644 -5.02482e-23)
(0.0206056 -0.685344 -2.52294e-21)
(0.0131968 -0.752439 -1.30479e-21)
(0.00465882 -0.788693 -1.4264e-21)
(0.0530539 -0.241136 5.05916e-22)
(0.0527753 -0.287731 -2.57485e-21)
(0.049747 -0.333767 -2.68544e-21)
(0.0451351 -0.385682 2.68383e-21)
(0.0404188 -0.446885 -1.68126e-21)
(0.0349464 -0.519927 0)
(0.0288618 -0.60286 -2.23952e-21)
(0.0216444 -0.685712 5.16968e-21)
(0.0136684 -0.750868 -2.67608e-21)
(0.00470624 -0.786186 2.7637e-21)
(0.0554565 -0.24619 -7.04523e-21)
(0.055641 -0.29194 4.45612e-22)
(0.0523579 -0.337207 -4.9703e-22)
(0.0476433 -0.388866 2.86444e-21)
(0.0427028 -0.449927 0)
(0.0369462 -0.522557 0)
(0.0304966 -0.604455 0)
(0.0228299 -0.685622 2.83399e-21)
(0.0142764 -0.749174 0)
(0.00482165 -0.783233 0)
(0.0586405 -0.250378 0)
(0.0589712 -0.295041 3.67633e-21)
(0.0553557 -0.339471 -2.51969e-21)
(0.0504552 -0.390864 -3.64562e-21)
(0.0452171 -0.45179 3.66465e-21)
(0.0391284 -0.524067 2.45621e-21)
(0.0322929 -0.605111 -2.40998e-21)
(0.0241555 -0.684905 -1.01752e-20)
(0.0150386 -0.747134 7.22e-22)
(0.00503097 -0.780115 -2.60985e-21)
(0.0626199 -0.253535 0)
(0.0627999 -0.297014 -1.16004e-21)
(0.0587869 -0.340597 -7.68243e-22)
(0.0536028 -0.391704 0)
(0.0479912 -0.452463 1.18285e-21)
(0.0415156 -0.524404 -3.56628e-21)
(0.0342571 -0.604727 4.18904e-21)
(0.025624 -0.683443 1.54551e-21)
(0.0159387 -0.744638 -1.74573e-21)
(0.00531837 -0.776882 3.44722e-21)
(0.0674067 -0.255493 8.83507e-22)
(0.0671414 -0.297788 1.42572e-21)
(0.0626761 -0.340558 -2.6157e-22)
(0.0571095 -0.391404 4.96063e-22)
(0.0510567 -0.451984 1.09524e-21)
(0.0441383 -0.523627 1.94737e-21)
(0.036405 -0.603363 -7.70251e-22)
(0.027234 -0.681264 -8.57768e-22)
(0.0169443 -0.741703 1.7515e-21)
(0.00565501 -0.773502 9.75793e-22)
(0.0730164 -0.256108 -3.00533e-22)
(0.0720043 -0.297307 3.02819e-22)
(0.0670355 -0.339288 -4.09855e-22)
(0.0609855 -0.389935 -4.95465e-22)
(0.0544337 -0.450343 6.48857e-22)
(0.0470214 -0.521752 -1.3322e-21)
(0.0387663 -0.601035 1.1886e-21)
(0.0290103 -0.678358 4.37014e-22)
(0.0180604 -0.73832 0)
(0.00603956 -0.769892 -9.77939e-22)
(0.0794657 -0.255269 3.19887e-22)
(0.0773923 -0.295579 -3.22475e-22)
(0.0718742 -0.336743 -4.69332e-22)
(0.0652345 -0.387276 -5.64588e-22)
(0.0581361 -0.447525 -6.91217e-22)
(0.0501771 -0.518817 -6.98201e-23)
(0.0413466 -0.597836 4.26626e-22)
(0.030944 -0.674839 1.4153e-21)
(0.0192686 -0.734561 0)
(0.00645777 -0.766054 -1.0969e-21)
(0.0867629 -0.252951 0)
(0.0832995 -0.292667 -1.73652e-21)
(0.077204 -0.332923 3.22415e-21)
(0.0698591 -0.383443 5.65589e-22)
(0.0621729 -0.443516 1.41533e-21)
(0.0536179 -0.514766 2.39638e-21)
(0.0441799 -0.593656 -8.70364e-22)
(0.0330813 -0.670589 -9.66501e-22)
(0.0206122 -0.730346 2.21191e-21)
(0.00693579 -0.761929 1.09431e-21)
(0.0949 -0.249248 0)
(0.0897172 -0.28864 -1.68535e-21)
(0.0830309 -0.32793 -1.00749e-21)
(0.074859 -0.378482 0)
(0.0665621 -0.438367 -4.5441e-21)
(0.0573449 -0.509706 1.51802e-21)
(0.0472388 -0.588689 1.91247e-21)
(0.0353724 -0.665809 6.33193e-21)
(0.0220415 -0.725801 -2.20476e-21)
(0.00743963 -0.757589 4.87053e-21)
(0.103859 -0.244308 0)
(0.0966332 -0.283526 1.69986e-21)
(0.0893606 -0.321834 0)
(0.0802477 -0.372431 5.72171e-21)
(0.0713071 -0.432118 -5.751e-21)
(0.0613831 -0.503474 -3.77142e-21)
(0.0505942 -0.582646 -1.10709e-22)
(0.0379159 -0.660167 -6.5764e-21)
(0.0236458 -0.720703 -1.09284e-21)
(0.00802454 -0.752902 -6.05872e-21)
(0.113616 -0.238333 1.11086e-20)
(0.104045 -0.277331 -4.30446e-21)
(0.0961568 -0.314957 9.38427e-22)
(0.0860141 -0.365328 -5.16131e-21)
(0.0764402 -0.424879 0)
(0.0657238 -0.496329 -3.98933e-21)
(0.0541537 -0.575982 -4.42899e-22)
(0.0405788 -0.654169 8.99496e-21)
(0.0252922 -0.715388 1.27325e-21)
(0.00860041 -0.748059 -1.27789e-21)
(0.124137 -0.231487 -2.30522e-21)
(0.111912 -0.270079 8.91842e-21)
(0.103446 -0.307086 5.46573e-21)
(0.0922612 -0.356887 -5.46198e-21)
(0.0819772 -0.416339 -3.55808e-21)
(0.0704519 -0.487851 0)
(0.0580809 -0.567977 -9.24708e-21)
(0.0435853 -0.647062 4.63186e-21)
(0.0271963 -0.709368 5.06589e-21)
(0.00930771 -0.742767 5.56791e-21)
(0.135343 -0.224186 -1.64121e-21)
(0.120289 -0.261854 0)
(0.111179 -0.298467 0)
(0.0988807 -0.347924 0)
(0.0877854 -0.407446 -4.27853e-21)
(0.075377 -0.479284 7.82262e-21)
(0.0620903 -0.560123 9.47603e-21)
(0.0465659 -0.640196 -1.51503e-20)
(0.029019 -0.703441 2.78154e-21)
(0.00991832 -0.737466 -8.27031e-21)
(0.147176 -0.216219 -1.60072e-21)
(0.129303 -0.25185 1.00185e-20)
(0.119358 -0.288578 -9.92274e-21)
(0.106039 -0.337432 1.43867e-20)
(0.0941386 -0.396657 -1.81874e-20)
(0.0809028 -0.468475 0)
(0.0667369 -0.549927 -5.01249e-21)
(0.0501654 -0.631405 -2.6067e-22)
(0.031321 -0.69636 -5.8371e-21)
(0.0107948 -0.73145 -6.00325e-21)
(0.159251 -0.209343 -1.75437e-21)
(0.138571 -0.242648 0)
(0.127403 -0.280166 -1.44064e-20)
(0.113142 -0.328635 2.78929e-20)
(0.10034 -0.387963 -1.09764e-20)
(0.086173 -0.460116 -2.33444e-21)
(0.0709966 -0.542223 5.00192e-21)
(0.0532995 -0.624497 -3.35418e-22)
(0.0332095 -0.690167 8.46947e-21)
(0.0113514 -0.725785 8.88347e-21)
(0.172701 -0.19827 -8.41733e-21)
(0.149959 -0.228755 8.23013e-21)
(0.13703 -0.266741 1.48176e-21)
(0.121882 -0.314405 0)
(0.108096 -0.373354 0)
(0.0930184 -0.445553 2.25019e-21)
(0.0768224 -0.528798 1.06594e-20)
(0.0578685 -0.613419 -1.0371e-20)
(0.0361754 -0.681739 -2.92514e-21)
(0.0125396 -0.718785 2.87001e-21)
(0.184069 -0.201819 0)
(0.172979 -0.223699 0)
(0.154371 -0.26361 0)
(0.13731 -0.309741 0)
(0.121702 -0.367437 0)
(0.104636 -0.437814 0)
(0.0862121 -0.518786 0)
(0.0647479 -0.600983 0)
(0.040236 -0.667725 0)
(0.0132469 -0.704739 0)
(0.207738 -0.178967 0)
(0.211638 -0.206434 0)
(0.183287 -0.251131 0)
(0.167475 -0.296398 0)
(0.148931 -0.35459 0)
(0.128796 -0.423661 0)
(0.106647 -0.501475 0)
(0.0805379 -0.578716 0)
(0.0506284 -0.639932 0)
(0.0181587 -0.671984 0)
(0.241348 -0.155685 0)
(0.250862 -0.183152 0)
(0.213521 -0.228088 0)
(0.202039 -0.272086 0)
(0.178815 -0.330575 0)
(0.155348 -0.397046 0)
(0.128428 -0.471356 0)
(0.0966067 -0.544868 0)
(0.059995 -0.603951 0)
(0.0194562 -0.637258 0)
(0.284204 -0.138469 0)
(0.295701 -0.165198 0)
(0.252579 -0.210441 0)
(0.246185 -0.253482 0)
(0.215876 -0.311562 0)
(0.189838 -0.374045 0)
(0.157226 -0.444017 0)
(0.118671 -0.510872 0)
(0.0745035 -0.562544 0)
(0.0268858 -0.588384 0)
(0.336722 -0.118523 0)
(0.347348 -0.144288 0)
(0.300467 -0.186443 0)
(0.296473 -0.225736 0)
(0.25609 -0.27986 0)
(0.22729 -0.335873 0)
(0.185864 -0.400273 0)
(0.139208 -0.460867 0)
(0.0857782 -0.509747 0)
(0.0269339 -0.538648 0)
(0.403012 -0.106363 0)
(0.411397 -0.130871 0)
(0.362806 -0.169473 0)
(0.357734 -0.20495 0)
(0.306586 -0.254925 0)
(0.276285 -0.30437 0)
(0.223976 -0.362365 0)
(0.168543 -0.413032 0)
(0.105 -0.452361 0)
(0.0390415 -0.469209 0)
(0.480118 -0.0836075 0)
(0.482323 -0.104427 0)
(0.431713 -0.136271 0)
(0.419861 -0.166138 0)
(0.358346 -0.208506 0)
(0.324577 -0.248432 0)
(0.254531 -0.296245 0)
(0.189468 -0.337079 0)
(0.113147 -0.375456 0)
(0.0318829 -0.40174 0)
(0.57308 -0.0729801 0)
(0.565139 -0.0891141 0)
(0.515717 -0.115143 0)
(0.492946 -0.138824 0)
(0.426752 -0.172243 0)
(0.384098 -0.20226 0)
(0.298182 -0.239869 0)
(0.227411 -0.272107 0)
(0.139301 -0.303126 0)
(0.0596922 -0.307894 0)
(0.649944 -0.03833 0)
(0.630559 -0.047034 0)
(0.576319 -0.0633962 0)
(0.539704 -0.076242 0)
(0.465737 -0.0964562 0)
(0.40763 -0.112385 0)
(0.306848 -0.135464 0)
(0.224872 -0.153833 0)
(0.112781 -0.181921 0)
(0.00304286 -0.22621 0)
(0.833084 -0.0194006 0)
(0.807664 -0.0236706 0)
(0.761789 -0.0301094 0)
(0.718178 -0.0360573 0)
(0.651402 -0.0447691 0)
(0.58413 -0.0530655 0)
(0.488355 -0.0657065 0)
(0.389871 -0.0801603 0)
(0.258291 -0.108288 0)
(0.170037 -0.161939 0)
(0.220474 -0.177756 8.09379e-21)
(0.248194 -0.152357 -7.96862e-21)
(0.281988 -0.130558 1.58147e-21)
(0.322592 -0.114833 0)
(0.373289 -0.097513 0)
(0.436259 -0.087041 2.76143e-21)
(0.511101 -0.0676326 -1.35755e-20)
(0.598729 -0.0597166 1.34802e-20)
(0.676453 -0.029891 3.99603e-21)
(0.852864 -0.0162387 -4.00921e-21)
(0.230396 -0.167755 -5.91998e-21)
(0.257529 -0.141643 0)
(0.291088 -0.120646 1.15254e-20)
(0.331574 -0.105528 -2.85676e-20)
(0.382304 -0.0892197 1.98274e-20)
(0.445008 -0.0794443 -2.51708e-21)
(0.519693 -0.0612877 5.60389e-21)
(0.606208 -0.0543564 1.28511e-20)
(0.685001 -0.0264858 3.70785e-21)
(0.859347 -0.0149184 3.57829e-21)
(0.239066 -0.156342 6.76719e-21)
(0.264531 -0.130591 -1.00021e-20)
(0.297065 -0.110701 9.90818e-21)
(0.337184 -0.0962924 -1.56621e-20)
(0.387885 -0.0810446 1.12927e-20)
(0.450601 -0.0720431 0)
(0.525252 -0.0551725 -5.61774e-21)
(0.611335 -0.0492939 -7.89141e-23)
(0.691638 -0.0233567 -6.79867e-21)
(0.86444 -0.0136659 -7.13481e-21)
(0.248806 -0.144199 -1.2856e-21)
(0.273191 -0.119323 0)
(0.304691 -0.100644 0)
(0.344116 -0.0870316 0)
(0.39445 -0.0729144 1.32582e-20)
(0.456877 -0.0647698 -9.07075e-21)
(0.531225 -0.049242 -4.0099e-22)
(0.616778 -0.0444889 -6.56219e-21)
(0.69827 -0.0204751 -3.43394e-21)
(0.869503 -0.0124797 -3.51056e-21)
(0.25819 -0.131795 3.00952e-21)
(0.281938 -0.108069 -4.38185e-21)
(0.312653 -0.090612 -6.097e-21)
(0.351591 -0.0778176 6.09353e-21)
(0.401608 -0.0648612 -4.12871e-21)
(0.463755 -0.0576329 0)
(0.537757 -0.0434728 -5.51443e-21)
(0.622749 -0.0398762 1.25674e-20)
(0.705145 -0.0177784 -6.36626e-21)
(0.874718 -0.0113477 7.01211e-21)
(0.266566 -0.1192 -8.93135e-21)
(0.289898 -0.0968951 -4.0977e-22)
(0.319551 -0.0806628 -1.40423e-21)
(0.358208 -0.0687497 5.93195e-21)
(0.408036 -0.0569716 0)
(0.470076 -0.0506987 0)
(0.543898 -0.0379011 0)
(0.628485 -0.0354527 5.96715e-21)
(0.711748 -0.0152398 0)
(0.879724 -0.0102666 0)
(0.273962 -0.106456 0)
(0.2969 -0.0857518 6.14066e-21)
(0.325268 -0.0707475 -4.36907e-21)
(0.363568 -0.0598581 -7.15717e-21)
(0.413189 -0.0492647 7.19459e-21)
(0.475197 -0.0439992 4.93498e-21)
(0.548966 -0.0325459 -4.60839e-21)
(0.633349 -0.0312299 -2.05531e-20)
(0.717581 -0.0128641 1.45075e-21)
(0.884141 -0.00924127 -5.01128e-21)
(0.280339 -0.0935649 0)
(0.302794 -0.0746064 -1.77953e-21)
(0.330099 -0.060827 -1.22592e-21)
(0.367839 -0.0510811 0)
(0.417096 -0.0417 2.2775e-21)
(0.479033 -0.0374994 -6.50488e-21)
(0.552803 -0.0273837 7.98689e-21)
(0.6371 -0.0271988 3.12773e-21)
(0.722378 -0.0106413 -3.12463e-21)
(0.887781 -0.00826857 6.69375e-21)