/*--------------------------------*- C++ -*----------------------------------*\
  =========                 |
  \\      /  F ield         | OpenFOAM: The Open Source CFD Toolbox
   \\    /   O peration     | Website:  https://openfoam.org
    \\  /    A nd           | Version:  7
     \\/     M anipulation  |
\*---------------------------------------------------------------------------*/
FoamFile
{
    version     2.0;
    format      ascii;
    class       volVectorField;
    location    "5.8";
    object      U;
}
// * * * * * * * * * * * * * * * * * * * * * * * * * * * * * * * * * * * * * //

dimensions      [0 1 -1 0 0 0 0];

internalField   nonuniform List<vector> 
32000
(
(-3.8573e-05 -4.07003e-05 -4.17296e-22)
(-0.000365998 0.00423969 0)
(-0.000979964 0.0120598 -3.72334e-21)
(-0.00170981 0.0222262 0)
(-0.0024746 0.0339839 3.87508e-21)
(-0.00319065 0.0468318 0)
(-0.00379492 0.0604112 4.00208e-21)
(-0.00423872 0.0744608 -3.04252e-21)
(-0.00448509 0.0887876 7.96058e-25)
(-0.00450796 0.103249 1.05374e-24)
(-0.00429213 0.117731 -1.04786e-21)
(-0.00383328 0.132142 4.2309e-21)
(-0.00313362 0.146403 0)
(-0.0021984 0.160441 -1.07545e-21)
(-0.00103589 0.17419 1.07992e-21)
(0.000342738 0.187587 0)
(0.00192451 0.200571 5.46684e-21)
(0.00369469 0.213084 -1.09665e-21)
(0.00563735 0.225074 0)
(0.00773691 0.236489 2.21884e-21)
(0.00997805 0.247287 2.22445e-21)
(0.0123456 0.257427 0)
(0.0148254 0.266879 0)
(0.0174037 0.275615 0)
(0.0200672 0.283616 0)
(0.0228032 0.290868 0)
(0.0255994 0.297366 0)
(0.0284447 0.303108 0)
(0.0313294 0.308099 -4.50507e-21)
(0.0342442 0.312348 0)
(0.0371804 0.315868 4.50613e-21)
(0.0401304 0.318677 0)
(0.0430872 0.320794 0)
(0.046044 0.322239 0)
(0.0489939 0.323035 -4.49079e-21)
(0.0519303 0.323202 -2.25033e-21)
(0.0548458 0.322761 6.72864e-21)
(0.0577421 0.321729 8.7475e-25)
(0.0606065 0.320168 4.4705e-21)
(0.0632975 0.318162 -9.53931e-25)
(-6.15557e-05 5.86641e-05 0)
(-0.00057062 0.00447125 7.27078e-21)
(-0.00149743 0.0123683 1.8613e-21)
(-0.00261086 0.0225719 1.96798e-25)
(-0.00380958 0.0343265 -1.93712e-21)
(-0.00499135 0.0471334 0)
(-0.00607934 0.0606384 4.0002e-21)
(-0.00701685 0.0745865 -4.05533e-21)
(-0.00776125 0.0887875 0)
(-0.00828171 0.103105 -8.30193e-21)
(-0.00855972 0.117429 0)
(-0.00858751 0.131671 -1.26891e-20)
(-0.00836459 0.145754 0)
(-0.00789382 0.159612 0)
(-0.00718153 0.173179 4.32832e-21)
(-0.00623761 0.186395 -4.3423e-21)
(-0.00507338 0.1992 -4.37147e-21)
(-0.00370176 0.211539 0)
(-0.0021371 0.223359 1.32318e-20)
(-0.000393938 0.234611 -4.41732e-21)
(0.00151324 0.245253 6.87218e-24)
(0.0035703 0.255245 -1.33451e-20)
(0.00576373 0.264556 -8.92318e-21)
(0.00808011 0.27316 -4.48367e-21)
(0.0105063 0.281037 1.34294e-20)
(0.01303 0.288175 -1.3469e-20)
(0.0156395 0.294566 1.34922e-20)
(0.0183232 0.300209 -1.79609e-20)
(0.0210704 0.30511 -4.4855e-21)
(0.0238712 0.309277 3.13742e-23)
(0.0267167 0.312723 -1.34538e-20)
(0.0295984 0.315465 -8.9759e-21)
(0.0325075 0.317522 1.7986e-20)
(0.0354358 0.318916 -1.79256e-20)
(0.0383752 0.319667 -4.46155e-21)
(0.041317 0.319799 -1.79058e-20)
(0.0442517 0.319334 -2.04695e-24)
(0.0471786 0.318291 4.465e-21)
(0.0500741 0.316735 -1.77443e-20)
(0.0528022 0.314756 -2.56655e-20)
(-8.60943e-05 0.000153917 -1.66869e-21)
(-0.000774326 0.0046918 -3.63519e-21)
(-0.00200902 0.0126831 -1.67482e-20)
(-0.00349836 0.022935 0)
(-0.00511754 0.0346931 1.9368e-21)
(-0.00674728 0.0474641 -1.96975e-21)
(-0.00830021 0.0608981 -2.40019e-20)
(-0.0097127 0.0747447 8.11167e-21)
(-0.0109346 0.08882 -4.10717e-21)
(-0.0119301 0.102991 2.4899e-20)
(-0.0126797 0.117152 8.38381e-21)
(-0.0131721 0.131219 4.2328e-21)
(-0.0134042 0.145121 -1.70501e-20)
(-0.0133769 0.158791 0)
(-0.013095 0.172168 0)
(-0.0125662 0.185194 8.70434e-21)
(-0.0118 0.197811 2.49971e-23)
(-0.0108083 0.209966 -8.76356e-21)
(-0.00960457 0.221606 -8.81501e-21)
(-0.00820195 0.232685 -1.76823e-20)
(-0.00661363 0.243159 2.66269e-20)
(-0.00485321 0.252991 2.15781e-23)
(-0.00293379 0.262151 -1.35893e-23)
(-0.00086796 0.270611 8.91758e-21)
(0.00133158 0.278353 -1.79281e-20)
(0.00365247 0.285364 3.58253e-20)
(0.00608288 0.291637 0)
(0.00861122 0.297171 8.98656e-21)
(0.0112265 0.301971 8.99044e-21)
(0.0139185 0.306045 1.79923e-20)
(0.0166774 0.309407 3.13609e-23)
(0.0194934 0.312074 0)
(0.0223567 0.314065 8.98851e-21)
(0.025258 0.3154 -8.9002e-21)
(0.0281872 0.316103 -8.89354e-21)
(0.0311335 0.316198 2.6812e-20)
(0.0340855 0.315707 -2.66189e-20)
(0.0370403 0.314654 1.77899e-20)
(0.0399627 0.313108 -2.64762e-20)
(0.0427223 0.311161 1.01716e-20)
(-0.000113518 0.000291048 1.33523e-20)
(-0.000984225 0.00500035 -1.45404e-20)
(-0.00252595 0.0130969 2.97726e-20)
(-0.00438229 0.0234004 0)
(-0.00640936 0.0351611 1.16173e-20)
(-0.00847212 0.0478915 1.96948e-20)
(-0.0104715 0.0612472 4.00271e-21)
(-0.0123362 0.0749841 2.28255e-24)
(-0.0140124 0.0889259 1.23151e-20)
(-0.0154605 0.102941 -4.1542e-21)
(-0.0166573 0.11693 2.09516e-20)
(-0.0175895 0.130814 -2.53755e-20)
(-0.0182522 0.144522 2.55667e-20)
(-0.0186445 0.157994 -8.5949e-21)
(-0.0187687 0.171171 8.63073e-21)
(-0.0186316 0.183996 -1.73767e-20)
(-0.0182417 0.196415 -2.621e-20)
(-0.0176094 0.208374 8.75977e-21)
(-0.0167464 0.219823 -8.82213e-21)
(-0.0156653 0.230717 2.65055e-20)
(-0.0143784 0.241013 -1.77375e-20)
(-0.0128983 0.250675 -1.77698e-20)
(-0.0112375 0.259672 0)
(-0.00940839 0.267978 0)
(-0.0074234 0.275575 -1.78655e-20)
(-0.00529432 0.282449 -1.79119e-20)
(-0.00303283 0.288594 -1.7897e-20)
(-0.000650701 0.294009 0)
(0.00184068 0.298698 0)
(0.00443064 0.302671 -3.58578e-20)
(0.00710864 0.305941 -7.58257e-23)
(0.00986401 0.308525 1.79194e-20)
(0.0126859 0.310441 -1.78381e-20)
(0.0155635 0.311713 -1.78836e-20)
(0.0184851 0.312364 1.78404e-20)
(0.0214376 0.312418 0)
(0.024408 0.311903 1.77691e-20)
(0.02739 0.310843 -3.53734e-20)
(0.0303383 0.309311 3.52779e-20)
(0.0331269 0.307402 -4.07816e-20)
(-0.000146571 0.000436502 -6.67661e-21)
(-0.00120141 0.00532839 1.09043e-20)
(-0.00304452 0.0135419 -1.48855e-20)
(-0.00525916 0.0239029 0)
(-0.00767986 0.0356676 -1.93627e-20)
(-0.0101571 0.048357 -1.18172e-20)
(-0.0125826 0.061634 1.59983e-20)
(-0.0148777 0.0752597 0)
(-0.0169841 0.0890638 -2.46308e-20)
(-0.0188595 0.10292 -8.30342e-21)
(-0.0204784 0.116733 -8.376e-21)
(-0.0218254 0.130427 1.69248e-20)
(-0.0228933 0.143938 -1.70467e-20)
(-0.0236796 0.157206 8.57531e-21)
(-0.0241856 0.170175 0)
(-0.0244167 0.182793 2.6075e-20)
(-0.0243798 0.195005 8.74486e-21)
(-0.0240842 0.20676 -1.75644e-20)
(-0.023541 0.218011 3.5213e-20)
(-0.0227612 0.228712 -3.53323e-20)
(-0.0217564 0.238822 3.53982e-20)
(-0.0205386 0.248305 1.77697e-20)
(-0.01912 0.25713 0)
(-0.0175123 0.265273 1.78649e-20)
(-0.0157273 0.272715 4.72116e-23)
(-0.0137766 0.279443 0)
(-0.011672 0.285451 1.7897e-20)
(-0.00942524 0.290739 -1.79234e-20)
(-0.00704781 0.295309 1.78489e-20)
(-0.00455078 0.299173 3.58146e-20)
(-0.00194543 0.302343 -3.57315e-20)
(0.000756734 0.304836 3.56833e-20)
(0.00354402 0.306672 0)
(0.00640412 0.307876 0)
(0.00932352 0.30847 3.5514e-20)
(0.012287 0.308484 0)
(0.0152794 0.307944 0)
(0.0182916 0.306879 -3.52258e-20)
(0.0212683 0.305366 3.50695e-20)
(0.0240872 0.303503 2.03627e-20)
(-0.000185579 0.000603681 3.33812e-21)
(-0.00142861 0.00570452 0)
(-0.0035692 0.0140449 2.97653e-20)
(-0.00613154 0.0244671 3.79933e-21)
(-0.0089313 0.0362361 3.87209e-21)
(-0.0118051 0.0488822 2.36279e-20)
(-0.0146353 0.0620768 3.19895e-20)
(-0.017337 0.0755874 0)
(-0.019849 0.089249 8.21149e-21)
(-0.0221262 0.102941 2.48977e-20)
(-0.0241405 0.116572 3.352e-20)
(-0.0258752 0.130072 -8.4615e-21)
(-0.0273214 0.143377 -2.5571e-20)
(-0.0284752 0.156434 0)
(-0.0293365 0.16919 3.45437e-20)
(-0.0299097 0.181592 0)
(-0.0302008 0.19359 5.23858e-20)
(-0.030218 0.205134 -1.75068e-20)
(-0.0299709 0.216178 0)
(-0.02947 0.226678 -1.76846e-20)
(-0.0287262 0.236594 -3.56108e-23)
(-0.0277508 0.24589 -1.77018e-20)
(-0.0265554 0.254536 -1.77501e-20)
(-0.0251512 0.262508 1.78431e-20)
(-0.0235496 0.269787 -1.77965e-20)
(-0.0217619 0.276362 0)
(-0.0197997 0.282226 -1.78864e-20)
(-0.0176748 0.287377 1.78182e-20)
(-0.0153988 0.291822 0)
(-0.0129832 0.295568 0)
(-0.0104397 0.298631 0)
(-0.00778043 0.301027 -3.56637e-20)
(-0.00501804 0.302779 3.54753e-20)
(-0.00216635 0.303909 0)
(0.000759246 0.304445 -1.77273e-20)
(0.00374163 0.304415 0)
(0.00676338 0.303852 3.52625e-20)
(0.00981224 0.302786 -1.74576e-20)
(0.0128239 0.301296 -3.50292e-20)
(0.0156777 0.299488 4.04271e-20)
(-0.000232237 0.000785377 2.33657e-20)
(-0.00166776 0.00611266 -3.27073e-20)
(-0.00410017 0.0145888 -5.58058e-20)
(-0.00699953 0.0250747 -3.03906e-20)
(-0.0101624 0.0368473 -7.74315e-21)
(-0.0134125 0.0494482 -1.57518e-20)
(-0.0166249 0.062558 -7.19708e-20)
(-0.019709 0.0759501 -2.43181e-20)
(-0.0226002 0.0894657 -4.10332e-20)
(-0.0252517 0.102989 -4.14946e-20)
(-0.0276336 0.116435 -5.86632e-20)
(-0.0297277 0.129735 -3.38152e-20)
(-0.0315237 0.142832 2.23189e-24)
(-0.0330166 0.155673 -3.43239e-20)
(-0.0342054 0.168209 -3.45435e-20)
(-0.0350934 0.18039 -5.21175e-20)
(-0.0356858 0.192169 3.48949e-20)
(-0.0359895 0.203496 -1.75015e-20)
(-0.0360135 0.214328 0)
(-0.0357674 0.224621 3.52837e-20)
(-0.0352616 0.234336 0)
(-0.0345067 0.243438 7.09352e-20)
(-0.0335135 0.251899 0)
(-0.032293 0.259694 -1.7822e-20)
(-0.030856 0.266804 1.78622e-20)
(-0.0292135 0.273219 -3.5571e-20)
(-0.027377 0.278932 0)
(-0.0253583 0.283942 -3.57056e-20)
(-0.0231689 0.288253 3.55573e-20)
(-0.0208205 0.291877 0)
(-0.0183254 0.294826 0)
(-0.015696 0.29712 0)
(-0.0129461 0.298781 -3.53843e-20)
(-0.0100907 0.299834 0)
(-0.00714704 0.300309 -3.53309e-20)
(-0.0041344 0.300235 7.03539e-20)
(-0.0010724 0.299649 -7.01407e-20)
(0.00202338 0.298585 3.47825e-20)
(0.00508016 0.297125 6.96564e-20)
(0.00797765 0.295379 -4.02712e-20)
(-0.000287171 0.000980047 -3.00414e-20)
(-0.0019205 0.00655046 3.33658e-24)
(-0.00463891 0.0151686 2.97614e-20)
(-0.00786305 0.0257198 6.07766e-20)
(-0.011372 0.0374957 -7.74219e-21)
(-0.0149776 0.0500494 -3.14983e-20)
(-0.0185482 0.0630711 3.19823e-20)
(-0.0219886 0.0763418 4.86419e-20)
(-0.0252315 0.0897087 1.64139e-20)
(-0.0282285 0.103061 4.14833e-20)
(-0.0309486 0.116318 3.35182e-20)
(-0.0333721 0.129415 5.07084e-20)
(-0.035488 0.142299 1.02249e-19)
(-0.0372901 0.154921 5.15e-20)
(-0.0387769 0.167233 0)
(-0.0399506 0.179189 1.7345e-20)
(-0.0408156 0.190743 1.74185e-20)
(-0.0413781 0.20185 1.74912e-20)
(-0.0416462 0.212464 3.51679e-20)
(-0.041629 0.222545 -1.76276e-20)
(-0.0413361 0.232055 0)
(-0.0407776 0.24096 -2.53816e-23)
(-0.0399636 0.24923 -3.54844e-20)
(-0.0389047 0.256843 3.55242e-20)
(-0.0376112 0.26378 7.11418e-20)
(-0.0360939 0.27003 7.12068e-20)
(-0.0343641 0.275586 3.35847e-23)
(-0.0324335 0.280449 3.55423e-20)
(-0.0303133 0.284623 3.55142e-20)
(-0.0280153 0.288118 -3.54736e-20)
(-0.0255521 0.290949 3.54208e-20)
(-0.0229368 0.293136 3.53559e-20)
(-0.0201837 0.294702 7.06638e-20)
(-0.0173094 0.295674 -1.10331e-22)
(-0.0143325 0.296084 1.054e-19)
(-0.0112745 0.295967 -1.271e-23)
(-0.00815759 0.295359 -3.48666e-20)
(-0.00500057 0.2943 -3.48836e-20)
(-0.00188391 0.292876 3.4602e-20)
(0.00107028 0.291201 4.00637e-20)
(-0.000350919 0.00118602 2.6699e-20)
(-0.00218757 0.00701222 3.63353e-20)
(-0.00518587 0.0157777 2.23131e-20)
(-0.00872195 0.026395 -2.27904e-20)
(-0.0125589 0.0381725 -3.87013e-20)
(-0.016498 0.0506766 3.1496e-20)
(-0.0204018 0.0636079 0)
(-0.0241712 0.0767547 3.24232e-20)
(-0.0277367 0.0899701 0)
(-0.0310493 0.103149 -6.63779e-20)
(-0.0340765 0.116214 1.677e-20)
(-0.0367981 0.129106 -8.45233e-20)
(-0.0392023 0.141775 -3.40815e-20)
(-0.0412822 0.154174 1.71764e-20)
(-0.0430356 0.16626 3.66009e-23)
(-0.0444641 0.177989 -1.73418e-20)
(-0.0455714 0.189316 -3.48904e-20)
(-0.046363 0.200198 -7.00622e-20)
(-0.0468463 0.210592 0)
(-0.04703 0.220458 4.4509e-23)
(-0.0469229 0.22976 -3.52941e-20)
(-0.0465345 0.238463 -3.54286e-20)
(-0.0458745 0.24654 3.54842e-20)
(-0.0449527 0.253967 -3.55989e-20)
(-0.0437793 0.260728 3.55063e-20)
(-0.0423648 0.266809 -7.10369e-20)
(-0.0407202 0.272206 2.97382e-23)
(-0.0388567 0.276918 -7.09938e-20)
(-0.0367855 0.280949 -3.55141e-20)
(-0.0345184 0.284311 -1.58918e-23)
(-0.032068 0.28702 -1.00278e-22)
(-0.0294477 0.289096 -3.53559e-20)
(-0.0266728 0.290563 -3.52795e-20)
(-0.0237607 0.291452 -1.12985e-22)
(-0.0207319 0.291795 -3.50936e-20)
(-0.0176099 0.291631 -1.29384e-22)
(-0.0144194 0.291003 -3.48163e-20)
(-0.0111827 0.289952 1.03841e-19)
(-0.00798695 0.288571 -3.46019e-20)
(-0.00495863 0.286977 -4.00715e-20)
(-0.000423816 0.00140094 -2.66963e-20)
(-0.00246945 0.00749282 7.26839e-21)
(-0.00574104 0.0164088 -2.23162e-20)
(-0.00957569 0.0270916 -7.59595e-21)
(-0.0137219 0.0388686 3.09601e-20)
(-0.0179714 0.0513208 -7.87415e-21)
(-0.0221821 0.064159 7.99289e-21)
(-0.0262521 0.0771796 -4.86399e-20)
(-0.0301103 0.0902417 1.6406e-20)
(-0.0337068 0.103245 3.31884e-20)
(-0.0370088 0.116118 0)
(-0.0399956 0.128804 6.76281e-20)
(-0.042655 0.141256 0)
(-0.0449796 0.153432 -6.86395e-20)
(-0.0469667 0.16529 -3.45309e-20)
(-0.0486174 0.176789 0)
(-0.0499348 0.187888 0)
(-0.0509238 0.198543 7.00462e-20)
(-0.0515914 0.208716 3.5192e-20)
(-0.0519459 0.218366 -7.0492e-20)
(-0.0519954 0.227457 3.52776e-20)
(-0.0517485 0.235958 0)
(-0.0512146 0.243839 -3.54927e-20)
(-0.0504032 0.25108 7.09057e-20)
(-0.0493241 0.257662 -3.54313e-20)
(-0.0479874 0.263573 -3.55406e-20)
(-0.0464036 0.268808 3.54182e-20)
(-0.0445836 0.273366 0)
(-0.0425385 0.277253 7.08303e-20)
(-0.0402796 0.280479 -3.53007e-20)
(-0.0378197 0.283062 -3.53387e-20)
(-0.0351726 0.285023 -9.89636e-23)
(-0.0323539 0.286388 1.40482e-19)
(-0.0293821 0.28719 -1.0503e-19)
(-0.026279 0.287464 0)
(-0.0230703 0.287253 -3.48555e-20)
(-0.0197837 0.286604 -6.9398e-20)
(-0.0164447 0.285565 3.43699e-20)
(-0.0131461 0.284232 3.42943e-20)
(-0.0100218 0.28273 0)
(-0.000505817 0.00162267 -5.33817e-20)
(-0.00276602 0.00798699 -7.26701e-21)
(-0.00630431 0.0170543 5.94825e-20)
(-0.0104235 0.0278011 -6.07416e-20)
(-0.0148591 0.039575 0)
(-0.0193953 0.0519725 0)
(-0.0238861 0.064715 -1.59921e-20)
(-0.0282272 0.0776074 -1.11602e-23)
(-0.0323466 0.0905149 1.64049e-20)
(-0.0361943 0.103343 0)
(-0.0397375 0.116022 0)
(-0.0429553 0.128502 -1.68934e-20)
(-0.0458352 0.140737 2.88501e-23)
(-0.0483697 0.152689 1.71751e-20)
(-0.0505559 0.16432 3.45307e-20)
(-0.0523943 0.17559 0)
(-0.0538876 0.186459 3.49188e-20)
(-0.0550406 0.196889 -3.49323e-20)
(-0.0558598 0.20684 -7.02696e-20)
(-0.0563527 0.216274 7.04649e-20)
(-0.056527 0.225155 9.7009e-23)
(-0.0563908 0.233452 -3.53204e-20)
(-0.055953 0.241139 3.54611e-20)
(-0.0552227 0.248193 -7.0838e-20)
(-0.0542093 0.254596 0)
(-0.0529225 0.260336 3.54889e-20)
(-0.0513724 0.265408 -7.08347e-20)
(-0.0495695 0.269812 3.53328e-20)
(-0.0475243 0.273553 -3.53709e-20)
(-0.0452482 0.276642 -3.53217e-20)
(-0.0427536 0.279097 -3.53396e-20)
(-0.0400544 0.280941 1.40457e-19)
(-0.0371666 0.282201 -1.05017e-19)
(-0.0341097 0.282912 -6.98991e-20)
(-0.0309066 0.283115 6.94991e-20)
(-0.027585 0.282855 0)
(-0.0241757 0.282185 6.91117e-20)
(-0.0207077 0.28116 -6.86791e-20)
(-0.0172782 0.279881 -3.42941e-20)
(-0.0140318 0.278482 0)
(-0.000596999 0.00184907 1.13414e-19)
(-0.0030772 0.00848918 5.08258e-20)
(-0.00687501 0.017707 -5.9482e-20)
(-0.0112643 0.0285148 5.31494e-20)
(-0.0159692 0.0402822 -7.73859e-21)
(-0.0207677 0.0526215 1.5739e-20)
(-0.0255105 0.0652658 0)
(-0.0300923 0.0780284 -1.62148e-20)
(-0.0344406 0.0907806 1.64038e-20)
(-0.0385058 0.103432 1.66033e-20)
(-0.0422552 0.115919 -1.67486e-20)
(-0.0456684 0.128193 -1.69211e-20)
(-0.0487328 0.140213 1.70273e-20)
(-0.051441 0.151943 0)
(-0.0537898 0.163347 0)
(-0.0557798 0.174389 -3.47515e-20)
(-0.0574131 0.185032 3.48338e-20)
(-0.0586944 0.195237 -3.50528e-20)
(-0.0596301 0.204968 3.50816e-20)
(-0.0602271 0.214186 3.5265e-20)
(-0.0604923 0.222859 -7.05868e-20)
(-0.0604335 0.230956 7.06952e-20)
(-0.0600591 0.238449 9.41022e-23)
(-0.0593779 0.245318 -3.53545e-20)
(-0.058399 0.251543 0)
(-0.0571314 0.257114 3.5438e-20)
(-0.055585 0.262025 9.35326e-23)
(-0.0537696 0.266275 -3.52745e-20)
(-0.0516955 0.26987 0)
(-0.0493734 0.272822 7.04768e-20)
(-0.0468155 0.275148 -7.01412e-20)
(-0.0440359 0.276872 0)
(-0.0410507 0.278026 6.99018e-20)
(-0.0378799 0.278644 -6.95166e-20)
(-0.0345476 0.278773 0)
(-0.0310834 0.278462 0)
(-0.0275214 0.277771 0)
(-0.0238941 0.27676 -6.85074e-20)
(-0.0203018 0.275542 6.80682e-20)
(-0.0169034 0.274257 7.88542e-20)
(-0.000697086 0.00207769 -5.33654e-20)
(-0.00340235 0.00899408 -5.80908e-20)
(-0.00745241 0.0183595 -7.43162e-21)
(-0.012097 0.029224 2.27713e-20)
(-0.0170504 0.0409804 -3.09436e-20)
(-0.0220861 0.0532579 3.14783e-20)
(-0.0270526 0.0658013 -3.19681e-20)
(-0.0318439 0.0784326 -4.8622e-20)
(-0.0363879 0.0910289 0)
(-0.0406357 0.103505 -1.66031e-20)
(-0.0445554 0.115801 1.67485e-20)
(-0.0481271 0.127871 0)
(-0.0513385 0.139678 3.41128e-20)
(-0.0541826 0.151188 -3.42897e-20)
(-0.0566563 0.162368 -1.03621e-19)
(-0.0587598 0.173185 -7.32186e-23)
(-0.0604954 0.183604 6.97402e-20)
(-0.0618677 0.193588 -3.49637e-20)
(-0.0628828 0.203101 0)
(-0.063547 0.212108 0)
(-0.0638668 0.220576 7.05383e-20)
(-0.0638496 0.228475 3.53701e-20)
(-0.0635034 0.235779 -3.53122e-20)
(-0.0628368 0.242465 -3.54129e-20)
(-0.0618582 0.248517 7.07289e-20)
(-0.0605763 0.253922 -3.53007e-20)
(-0.0590005 0.258674 7.07033e-20)
(-0.0571402 0.262773 -1.41035e-19)
(-0.0550049 0.266225 1.40778e-19)
(-0.052605 0.26904 -1.40466e-19)
(-0.0499524 0.271238 1.40103e-19)
(-0.0470609 0.272843 -1.39691e-19)
(-0.0439468 0.273888 6.95479e-20)
(-0.0406303 0.274412 6.94285e-20)
(-0.0371365 0.274464 1.19941e-22)
(-0.0334969 0.2741 1.11399e-22)
(-0.0297489 0.273384 -6.84337e-20)
(-0.0259287 0.27239 1.92264e-22)
(-0.0221384 0.271236 -6.77661e-20)
(-0.0185545 0.270075 0)
(-0.000805859 0.00230645 6.66757e-21)
(-0.00374083 0.00949644 -7.25709e-21)
(-0.00803539 0.0190044 2.229e-20)
(-0.0129201 0.02992 -3.03542e-20)
(-0.0181011 0.04166 1.5467e-20)
(-0.0233485 0.0538715 0)
(-0.0285096 0.0663111 0)
(-0.0334788 0.0788096 6.4823e-20)
(-0.0381845 0.09125 8.20468e-20)
(-0.0425793 0.103552 -1.65835e-20)
(-0.0466324 0.115658 8.3806e-20)
(-0.0503247 0.127527 -1.68961e-20)
(-0.0536445 0.139124 0)
(-0.0565854 0.150418 0)
(-0.0591443 0.161379 6.90571e-20)
(-0.0613218 0.171975 0)
(-0.0631202 0.182174 3.48247e-20)
(-0.0645442 0.191941 -3.50336e-20)
(-0.0655995 0.201242 0)
(-0.066292 0.210042 -7.03808e-20)
(-0.0666278 0.21831 -3.52355e-20)
(-0.0666139 0.226017 -1.05855e-19)
(-0.0662582 0.233136 -3.53712e-20)
(-0.0655688 0.239646 3.52954e-20)
(-0.0645536 0.245529 7.0614e-20)
(-0.0632211 0.250773 0)
(-0.0615798 0.255372 7.04599e-20)
(-0.0596389 0.259324 1.40806e-19)
(-0.0574073 0.262635 1.44843e-22)
(-0.0548948 0.265317 -7.0008e-20)
(-0.0521129 0.267389 -6.99446e-20)
(-0.0490751 0.268876 6.95926e-20)
(-0.0457976 0.269813 6.94673e-20)
(-0.042301 0.270242 -1.38278e-19)
(-0.0386107 0.270214 1.37697e-19)
(-0.0347602 0.269794 -6.86647e-20)
(-0.0307903 0.269052 6.81657e-20)
(-0.0267411 0.268072 1.35728e-19)
(-0.0227146 0.266986 6.73463e-20)
(-0.0189095 0.26596 7.76979e-20)
(-0.000922883 0.00253312 -5.33055e-20)
(-0.00409173 0.00999122 5.07779e-20)
(-0.00862283 0.0196348 -4.45525e-20)
(-0.0137324 0.0305943 4.5504e-20)
(-0.0191197 0.0423117 7.7308e-20)
(-0.0245531 0.0544522 -6.2921e-20)
(-0.0298796 0.0667848 7.98906e-20)
(-0.0349943 0.0791488 4.86089e-20)
(-0.0398274 0.0914331 -1.14837e-19)
(-0.0443329 0.103562 3.31796e-20)
(-0.0484816 0.115481 1.67467e-20)
(-0.0522555 0.127152 3.38445e-20)
(-0.055644 0.138544 3.41129e-20)
(-0.0586411 0.149627 -6.86427e-20)
(-0.0612445 0.160374 6.90566e-20)
(-0.063455 0.170755 1.04161e-19)
(-0.0652751 0.18074 -1.04556e-19)
(-0.0667095 0.190296 1.39976e-19)
(-0.0677638 0.19939 7.01946e-20)
(-0.0684435 0.20799 1.05604e-19)
(-0.0687545 0.216065 3.52699e-20)
(-0.0687035 0.223586 7.05903e-20)
(-0.068298 0.230528 -7.05837e-20)
(-0.0675457 0.236868 0)
(-0.0664544 0.242589 -2.11801e-19)
(-0.0650318 0.247679 1.41013e-19)
(-0.0632863 0.252131 -7.03197e-20)
(-0.0612262 0.255943 -7.02017e-20)
(-0.0588601 0.259121 -2.50483e-24)
(-0.0561973 0.261675 0)
(-0.0532486 0.263625 0)
(-0.0500274 0.264997 6.93745e-20)
(-0.0465497 0.265827 -6.92515e-20)
(-0.0428357 0.26616 6.88698e-20)
(-0.0389118 0.266052 -6.86482e-20)
(-0.0348127 0.265572 -6.83207e-20)
(-0.030583 0.264801 0)
(-0.0262669 0.263833 -6.75442e-20)
(-0.0219645 0.262817 -6.72967e-20)
(-0.0179004 0.261934 -2.32447e-19)
(-0.00104766 0.00275567 5.33106e-20)
(-0.00445396 0.0104736 -5.07737e-20)
(-0.00921339 0.0202438 5.94089e-20)
(-0.0145323 0.0312386 -1.06163e-19)
(-0.0201047 0.042926 -7.7303e-20)
(-0.0256982 0.0549899 6.29208e-20)
(-0.0311605 0.0672117 -1.27799e-19)
(-0.0363884 0.0794392 -6.48053e-20)
(-0.0413139 0.0915674 8.20371e-20)
(-0.0458934 0.103524 -1.49304e-19)
(-0.0500994 0.11526 -1.00575e-19)
(-0.0539152 0.126738 -3.38421e-20)
(-0.0573316 0.137928 -1.02284e-19)
(-0.0603436 0.148806 1.02934e-19)
(-0.0629495 0.159346 -6.90563e-20)
(-0.0651504 0.169519 -6.94157e-20)
(-0.0669495 0.179297 0)
(-0.0683516 0.18865 -6.99831e-20)
(-0.0693618 0.197545 -1.05325e-19)
(-0.0699858 0.205953 3.51356e-20)
(-0.0702291 0.213843 -7.04756e-20)
(-0.0700981 0.221186 0)
(-0.0696001 0.227959 7.05832e-20)
(-0.0687426 0.234138 7.06159e-20)
(-0.0675329 0.239707 -7.03572e-20)
(-0.0659783 0.244652 0)
(-0.0640869 0.248965 0)
(-0.0618664 0.252646 0)
(-0.0593248 0.255698 -1.35297e-22)
(-0.0564712 0.258132 0)
(-0.0533159 0.259967 -1.39039e-19)
(-0.0498717 0.261229 -1.39758e-22)
(-0.0461545 0.261956 -1.37935e-19)
(-0.0421843 0.262194 1.37386e-19)
(-0.0379877 0.262005 -6.83355e-20)
(-0.0336009 0.261463 6.8152e-20)
(-0.0290725 0.260659 0)
(-0.0244504 0.259699 1.34722e-19)
(-0.0198317 0.258754 -6.68662e-20)
(-0.0154701 0.25802 0)
(-0.00117963 0.00297222 6.65871e-21)
(-0.00482634 0.0109389 0)
(-0.00980568 0.020825 -7.42e-20)
(-0.0153184 0.0318451 9.09778e-20)
(-0.0210546 0.043494 4.63527e-20)
(-0.0267823 0.0554747 -6.28861e-20)
(-0.032351 0.0675811 6.38925e-20)
(-0.0376596 0.0796699 -6.4781e-20)
(-0.0426427 0.0916417 0)
(-0.0472591 0.103429 6.63588e-20)
(-0.0514834 0.114983 -6.70267e-20)
(-0.055301 0.126272 2.10004e-24)
(-0.0587038 0.137269 0)
(-0.0616883 0.147948 6.86423e-20)
(-0.0642536 0.158287 -3.44939e-20)
(-0.0664015 0.16826 6.94786e-20)
(-0.0681356 0.17784 3.48899e-20)
(-0.0694609 0.186998 -6.99633e-20)
(-0.0703825 0.195704 0)
(-0.070906 0.203928 1.0551e-19)
(-0.0710367 0.211643 3.52349e-20)
(-0.070781 0.218819 0)
(-0.0701458 0.225432 0)
(-0.0691384 0.231461 0)
(-0.0677657 0.236888 7.04628e-20)
(-0.0660349 0.241699 0)
(-0.0639534 0.245885 -7.02516e-20)
(-0.0615287 0.249445 1.40068e-19)
(-0.0587685 0.252382 -1.39703e-19)
(-0.0556813 0.254705 0)
(-0.0522773 0.256434 6.94535e-20)
(-0.0485686 0.257594 -6.90031e-20)
(-0.0445709 0.258223 6.88971e-20)
(-0.040304 0.258371 0)
(-0.0357947 0.258102 0)
(-0.0310806 0.257497 6.77851e-20)
(-0.0262139 0.256655 -6.73718e-20)
(-0.0212469 0.255699 1.34002e-19)
(-0.0162718 0.254822 -1.33143e-19)
(-0.0115744 0.254244 0)
(-0.00131814 0.00318107 4.65737e-20)
(-0.00520754 0.0113832 1.44949e-20)
(-0.0103983 0.0213723 5.93573e-20)
(-0.0160892 0.0324062 6.06035e-20)
(-0.0219681 0.0440069 -6.18051e-20)
(-0.0278045 0.0558968 6.2886e-20)
(-0.0334501 0.0678827 6.38583e-20)
(-0.038807 0.0798298 6.47809e-20)
(-0.0438127 0.0916446 0)
(-0.0484288 0.103263 6.63427e-20)
(-0.0526326 0.11464 6.70265e-20)
(-0.0564112 0.125745 6.76314e-20)
(-0.0597587 0.136553 0)
(-0.0626727 0.147041 -1.66279e-24)
(-0.0651536 0.157188 6.90544e-20)
(-0.067204 0.16697 -3.46719e-20)
(-0.0688281 0.176361 -3.48268e-20)
(-0.070031 0.185334 1.04976e-19)
(-0.0708181 0.193861 6.91381e-23)
(-0.0711948 0.201913 -3.51391e-20)
(-0.0711666 0.209463 -7.04139e-20)
(-0.0707397 0.216483 0)
(-0.0699209 0.222949 0)
(-0.068717 0.22884 0)
(-0.067135 0.234136 0)
(-0.0651816 0.238825 0)
(-0.0628641 0.242898 0)
(-0.0601895 0.24635 6.99587e-20)
(-0.0571654 0.249184 -6.96679e-20)
(-0.0538002 0.251409 0)
(-0.0501035 0.253043 0)
(-0.0460874 0.254111 6.90023e-20)
(-0.0417671 0.254652 0)
(-0.0371624 0.254716 6.82722e-20)
(-0.0323 0.25437 -6.78814e-20)
(-0.0272188 0.253702 0)
(-0.0219748 0.252819 1.34247e-19)
(-0.0166249 0.251861 -1.33407e-19)
(-0.0112547 0.251049 0)
(-0.00618476 0.250629 0)
(-0.00146252 0.00338074 -5.3224e-20)
(-0.00559621 0.0118025 -1.44811e-20)
(-0.0109897 0.0218804 1.48281e-20)
(-0.0168435 0.032915 -6.06036e-20)
(-0.0228442 0.0444567 0)
(-0.0287637 0.0562471 0)
(-0.0344573 0.0681062 -4.78888e-20)
(-0.0398304 0.0799081 -1.61818e-20)
(-0.044824 0.0915645 -3.28141e-20)
(-0.0494029 0.103015 -3.31956e-20)
(-0.053547 0.114218 -3.35349e-20)
(-0.0572461 0.125145 3.37853e-20)
(-0.060496 0.13577 3.40498e-20)
(-0.0632963 0.146075 -3.4351e-20)
(-0.0656485 0.156039 0)
(-0.0675563 0.165638 0)
(-0.0690245 0.174851 -6.97056e-20)
(-0.0700587 0.18365 0)
(-0.0706644 0.192009 0)
(-0.0708471 0.199901 7.03157e-20)
(-0.0706125 0.207298 1.22667e-22)
(-0.0699667 0.214175 4.01396e-23)
(-0.0689164 0.220507 -7.04609e-20)
(-0.0674683 0.226273 7.03098e-20)
(-0.0656291 0.231453 7.02422e-20)
(-0.0634054 0.236035 -7.01124e-20)
(-0.0608044 0.240007 0)
(-0.057833 0.243366 6.98342e-20)
(-0.0544986 0.246113 6.03252e-23)
(-0.0508097 0.248255 -6.92929e-20)
(-0.0467756 0.249808 0)
(-0.0424084 0.250798 0)
(-0.037723 0.251262 6.84079e-20)
(-0.0327391 0.251251 -6.80307e-20)
(-0.0274838 0.250835 -6.7668e-20)
(-0.0219966 0.250105 6.72675e-20)
(-0.0163378 0.24918 0)
(-0.0105689 0.248215 0)
(-0.00476768 0.247462 0)
(0.000709391 0.247201 -7.52071e-20)
(-0.00161211 0.00357004 6.64423e-20)
(-0.00599097 0.0121938 -2.89494e-20)
(-0.0115785 0.0223443 1.48193e-20)
(-0.01758 0.0333653 0)
(-0.0236818 0.0448357 7.71651e-20)
(-0.0296596 0.0565169 1.08669e-23)
(-0.0353726 0.068242 6.38285e-20)
(-0.0407302 0.0798938 -4.8565e-20)
(-0.0456774 0.0913899 6.55729e-20)
(-0.0501823 0.102673 -3.314e-20)
(-0.0542281 0.113705 0)
(-0.0578071 0.124457 3.38377e-20)
(-0.0609175 0.134908 -1.02212e-19)
(-0.0635607 0.145037 0)
(-0.0657399 0.154826 1.03599e-19)
(-0.0674598 0.164254 -6.93305e-20)
(-0.0687261 0.173299 -6.96934e-20)
(-0.0695446 0.181936 3.49338e-20)
(-0.0699214 0.190139 0)
(-0.0698624 0.197883 -7.02645e-20)
(-0.0693731 0.205141 -7.03905e-20)
(-0.0684601 0.211889 -7.58439e-23)
(-0.0671298 0.2181 7.03329e-20)
(-0.0653889 0.223755 7.03456e-20)
(-0.0632439 0.228835 -1.40403e-19)
(-0.0607015 0.233325 7.01117e-20)
(-0.0577689 0.237214 0)
(-0.0544531 0.240496 -6.96305e-20)
(-0.0507617 0.243172 6.93821e-20)
(-0.0467029 0.245247 6.91034e-20)
(-0.0422867 0.246737 -6.87966e-20)
(-0.0375247 0.247665 6.84637e-20)
(-0.0324322 0.248067 0)
(-0.0270289 0.247994 6.78284e-20)
(-0.0213419 0.247517 1.34751e-19)
(-0.0154119 0.246732 -1.34066e-19)
(-0.00930281 0.245765 1.3317e-19)
(-0.00308178 0.244788 -5.19792e-23)
(0.00318282 0.244089 -6.58695e-20)
(0.00909823 0.243985 1.49693e-19)
(-0.00176624 0.00374802 -3.9874e-20)
(-0.00639046 0.0125543 -8.67597e-20)
(-0.0121634 0.0227598 5.92192e-20)
(-0.0182975 0.0337515 -4.53766e-20)
(-0.0244802 0.0451372 -1.54649e-20)
(-0.0304917 0.056698 1.56951e-20)
(-0.036196 0.0682806 -3.18969e-20)
(-0.0415071 0.0797767 -3.2342e-20)
(-0.0463741 0.0911094 3.27991e-20)
(-0.0507691 0.102225 -6.63127e-20)
(-0.0546784 0.113088 -5.40536e-23)
(-0.0580974 0.12367 3.37757e-20)
(-0.0610267 0.133951 0)
(-0.0634699 0.143913 -3.43455e-20)
(-0.0654318 0.153537 -3.45549e-20)
(-0.0669187 0.162804 6.93951e-20)
(-0.0679369 0.171692 0)
(-0.068493 0.180179 0)
(-0.0685936 0.18824 7.01581e-20)
(-0.0682448 0.195849 -7.01673e-20)
(-0.0674528 0.202982 0)
(-0.066224 0.209614 7.03754e-20)
(-0.0645651 0.215721 -7.02425e-20)
(-0.0624828 0.221281 -1.40477e-19)
(-0.0599835 0.226276 -6.96009e-23)
(-0.0570742 0.23069 7.002e-20)
(-0.0537622 0.234513 -1.39516e-19)
(-0.0500549 0.237737 6.96296e-20)
(-0.04596 0.24036 -6.93812e-20)
(-0.0414863 0.242388 -6.43061e-23)
(-0.0366438 0.243834 8.6461e-23)
(-0.0314448 0.244718 -6.84627e-20)
(-0.0259047 0.245076 -6.79173e-20)
(-0.0200434 0.244958 -6.75223e-20)
(-0.0138884 0.244434 -2.19065e-22)
(-0.00748125 0.243603 0)
(-0.000889806 0.242597 -6.62228e-20)
(0.00581286 0.241605 1.31737e-19)
(0.0125687 0.240955 -1.96457e-19)
(0.0189496 0.241003 -1.786e-22)
(-0.00192428 0.00391392 -1.32735e-20)
(-0.00679337 0.0128817 1.15617e-19)
(-0.0127431 0.0231235 -5.92216e-20)
(-0.0189949 0.0340689 4.53806e-20)
(-0.0252387 0.045355 -1.2336e-19)
(-0.03126 0.056783 1.5687e-20)
(-0.0369282 0.0682135 -6.37601e-20)
(-0.0421624 0.0795469 0)
(-0.0469163 0.0907121 0)
(-0.051166 0.101659 -6.62834e-20)
(-0.0549014 0.112354 3.35188e-20)
(-0.0581212 0.12277 -8.09427e-24)
(-0.0608286 0.132887 3.40405e-20)
(-0.0630296 0.142689 0)
(-0.0647308 0.152157 -1.03575e-19)
(-0.0659401 0.161273 3.46594e-20)
(-0.0666647 0.170017 -6.96651e-20)
(-0.0669123 0.178365 0)
(-0.0666897 0.186296 0)
(-0.0660039 0.193785 6.60441e-23)
(-0.0648614 0.200808 -7.02157e-20)
(-0.0632691 0.207339 7.02652e-20)
(-0.0612338 0.213356 -7.02936e-20)
(-0.0587622 0.218837 7.01428e-20)
(-0.0558611 0.223764 6.17414e-23)
(-0.0525378 0.228121 6.80679e-23)
(-0.0487998 0.231895 6.97464e-20)
(-0.0446552 0.23508 -6.94062e-20)
(-0.0401121 0.237671 0)
(-0.03518 0.239672 -6.88887e-20)
(-0.0298695 0.241094 6.85604e-20)
(-0.0241934 0.241957 0)
(-0.0181677 0.242292 6.79161e-20)
(-0.011813 0.242148 -6.72828e-20)
(-0.00515692 0.241594 6.69262e-20)
(0.00175784 0.24073 0)
(0.00885965 0.239693 1.98364e-19)
(0.0160689 0.238687 -1.31315e-19)
(0.0233385 0.238079 0)
(0.0302073 0.238276 7.39215e-20)
(-0.00208565 0.00406724 1.06056e-19)
(-0.00719846 0.0131746 -5.77871e-20)
(-0.0133162 0.0234325 -1.47923e-20)
(-0.0196713 0.0343134 1.51095e-20)
(-0.0259569 0.0454839 6.16579e-20)
(-0.0319645 0.0567655 0)
(-0.0375699 0.0680329 6.37603e-20)
(-0.0426976 0.0791953 9.69507e-20)
(-0.0473063 0.0901877 3.27325e-20)
(-0.0513764 0.100964 3.31195e-20)
(-0.0549016 0.11149 3.34541e-20)
(-0.057884 0.121742 -1.01411e-19)
(-0.0603299 0.131701 3.40339e-20)
(-0.0622475 0.14135 1.37205e-19)
(-0.0636456 0.150671 3.4485e-20)
(-0.0645338 0.159646 3.46539e-20)
(-0.0649206 0.168256 6.96648e-20)
(-0.0648144 0.176479 0)
(-0.0642231 0.184293 0)
(-0.0631542 0.191675 1.40404e-19)
(-0.061615 0.198601 -2.80889e-19)
(-0.0596127 0.205047 -6.52724e-23)