/*--------------------------------*- C++ -*----------------------------------*\
  =========                 |
  \\      /  F ield         | OpenFOAM: The Open Source CFD Toolbox
   \\    /   O peration     | Website:  https://openfoam.org
    \\  /    A nd           | Version:  7
     \\/     M anipulation  |
\*---------------------------------------------------------------------------*/
FoamFile
{
    version     2.0;
    format      ascii;
    class       surfaceScalarField;
    location    "8.7";
    object      phi;
}
// * * * * * * * * * * * * * * * * * * * * * * * * * * * * * * * * * * * * * //

dimensions      [0 3 -1 0 0 0 0];

internalField   nonuniform List<scalar> 
63520
(
6.76427e-06
-0.000126491
0.000119727
2.54776e-05
-0.000264936
0.000246223
5.53888e-05
-0.00030157
0.000271659
9.60892e-05
-0.000256613
0.000215913
0.000147394
-0.000144795
9.34899e-05
0.000209244
2.25991e-05
-8.44493e-05
0.000281656
0.000236438
-0.000308851
0.000364682
0.000489218
-0.000572243
0.000458379
0.000774814
-0.000868512
0.000562782
0.00108809
-0.00119249
0.000677892
0.00142474
-0.00153985
0.000803661
0.00178109
-0.00190686
0.000939972
0.00215389
-0.0022902
0.00108663
0.00254026
-0.00268691
0.00124335
0.00293751
-0.00309423
0.00140979
0.00334315
-0.00350958
0.00158545
0.00375481
-0.00393048
0.00176979
0.00417019
-0.00435453
0.00196215
0.00458705
-0.00477941
0.00216176
0.00500323
-0.00520284
0.00236781
0.00541658
-0.00562263
0.00257937
0.00582505
-0.00603662
0.00279548
0.00622664
-0.00644275
0.00301513
0.00661943
-0.00683908
0.00323725
0.00700163
-0.00722376
0.0034608
0.00737156
-0.00759511
0.00368471
0.00772771
-0.00795161
0.00390792
0.00806871
-0.00829192
0.00412944
0.00839337
-0.00861489
0.00434832
0.00870069
-0.00891957
0.00456365
0.00898987
-0.00920521
0.00477463
0.00926029
-0.00947127
0.00498054
0.00951152
-0.00971743
0.00518075
0.00974331
-0.00994352
0.00537475
0.00995553
-0.0101495
0.00556216
0.0101481
-0.0103355
0.00574274
0.010321
-0.0105016
0.00591639
0.0104738
-0.0106475
0.0060832
0.0106059
-0.0107727
0.0107152
0.00624341
-0.0108755
6.45496e-06
-0.000132947
2.43334e-05
-0.000282815
5.28222e-05
-0.00033006
9.14948e-05
-0.000295285
0.00014019
-0.00019349
0.00019888
-3.60916e-05
0.00026761
0.000167708
0.000346455
0.000410373
0.000435504
0.000685765
0.000534822
0.00098877
0.000644445
0.00131512
0.000764353
0.00166118
0.000894469
0.00202377
0.00103465
0.00240008
0.00118465
0.0027875
0.00134418
0.00318363
0.00151281
0.00358618
0.00169005
0.00399295
0.00187532
0.00440179
0.00206792
0.00481062
0.00226712
0.00521739
0.00247207
0.0056201
0.00268188
0.00601683
0.0028956
0.00640571
0.00311224
0.00678498
0.00333081
0.00715299
0.00355028
0.00750823
0.00376967
0.00784932
0.00398798
0.00817506
0.00420429
0.00848439
0.00441771
0.00877645
0.00462743
0.00905057
0.00483273
0.00930623
0.00503295
0.00954309
0.00522757
0.00976091
0.00541616
0.00995954
0.00559845
0.0101387
0.0057743
0.010298
0.0059437
0.0104364
0.0105521
0.0061068
6.14308e-06
-0.00013909
2.31433e-05
-0.000299815
5.01448e-05
-0.000357061
8.67289e-05
-0.00033187
0.000132759
-0.00023952
0.000188236
-9.15693e-05
0.000253246
0.000102698
0.000327892
0.000335728
0.000412296
0.00060136
0.000506552
0.000894515
0.000610722
0.00121095
0.000724822
0.00154708
0.000848808
0.00189979
0.000982572
0.00226632
0.00112593
0.00264414
0.00127861
0.00303095
0.00144027
0.00342452
0.00161046
0.00382276
0.00178865
0.00422359
0.00197425
0.00462503
0.00216655
0.00502509
0.00236479
0.00542186
0.00256817
0.00581346
0.00277578
0.00619809
0.00298672
0.00657404
0.00320003
0.00693968
0.00341476
0.00729351
0.00362994
0.00763414
0.00384463
0.00796036
0.00405793
0.00827109
0.00426897
0.00856541
0.00447693
0.0088426
0.00468109
0.00910207
0.0048808
0.00934338
0.00507549
0.00956622
0.00526474
0.0097703
0.00544821
0.00995526
0.00562572
0.0101205
0.00579721
0.010265
0.0103867
0.00596268
5.83695e-06
-0.000144927
2.18914e-05
-0.000315869
4.73232e-05
-0.000382493
8.17336e-05
-0.00036628
0.00012502
-0.000282806
0.000177223
-0.000143773
0.000238462
4.14585e-05
0.000308875
0.000265316
0.000388616
0.000521618
0.000477813
0.000805318
0.000576554
0.00111221
0.000684887
0.00143875
0.000802801
0.00178187
0.000930225
0.00213889
0.00106701
0.00250736
0.00121293
0.00288502
0.00136769
0.00326977
0.00153088
0.00365956
0.00170206
0.00405242
0.00188065
0.00444643
0.00206605
0.00483969
0.00225756
0.00523035
0.00245441
0.0056166
0.0026558
0.00599671
0.00286086
0.00636898
0.00306871
0.00673184
0.00327842
0.00708379
0.0034891
0.00742347
0.00369983
0.00774963
0.00390973
0.00806119
0.00411796
0.00835719
0.00432371
0.00863684
0.00452627
0.00889951
0.00472497
0.00914468
0.00491925
0.00937194
0.00510863
0.00958091
0.00529277
0.00977112
0.00547144
0.00994179
0.0056445
0.0100919
0.0102193
0.00581185
5.50786e-06
-0.000150435
2.05592e-05
-0.000330921
4.43399e-05
-0.000406274
7.64943e-05
-0.000398435
0.000116957
-0.000323269
0.000165811
-0.000192627
0.000223217
-1.5947e-05
0.000289355
0.000199177
0.00036441
0.000446564
0.00044854
0.000721188
0.000541868
0.00101888
0.000644468
0.00133615
0.000756361
0.00166998
0.000877505
0.00201775
0.00100779
0.00237707
0.00114702
0.00274579
0.00129495
0.00312184
0.00145123
0.00350329
0.00161543
0.00388822
0.00178708
0.00427478
0.00196559
0.00466117
0.00215035
0.00504559
0.00234064
0.00542631
0.00253572
0.00580163
0.00273478
0.00616992
0.00293699
0.00652963
0.00314148
0.00687929
0.0033474
0.00721755
0.00355387
0.00754316
0.00376005
0.00785501
0.00396511
0.00815213
0.00416826
0.00843369
0.00436879
0.00869898
0.00456605
0.00894743
0.00475944
0.00917855
0.00494849
0.00939186
0.00513283
0.00958678
0.00531217
0.00976244
0.00548632
0.00991776
0.0100506
0.00565507
5.16043e-06
-0.000155595
1.91427e-05
-0.000344903
4.11865e-05
-0.000428318
7.09889e-05
-0.000428237
0.000108536
-0.000360817
0.00015396
-0.00023805
0.000207462
-6.94497e-05
0.00026927
0.000137369
0.000339601
0.000376233
0.00041865
0.000642139
0.000506568
0.000930963
0.000603456
0.00123926
0.000709367
0.00156407
0.000824287
0.00190283
0.000948135
0.00225323
0.00108076
0.00261317
0.00122193
0.00298067
0.00137136
0.00335386
0.00152867
0.00373091
0.00169342
0.00411004
0.00186509
0.0044895
0.00204311
0.00486758
0.00222683
0.00524259
0.00241555
0.00561291
0.00260853
0.00597694
0.00280499
0.00633317
0.00300411
0.00668017
0.00320508
0.00701659
0.00340706
0.00734118
0.00360924
0.00765283
0.00381081
0.00795055
0.00401103
0.00823347
0.00420917
0.00850084
0.00440458
0.00875202
0.00459669
0.00898644
0.00478499
0.00920356
0.00496908
0.00940269
0.00514865
0.00958287
0.00532344
0.00974297
0.00988088
0.00549313
4.78537e-06
-0.000160381
1.76304e-05
-0.000357748
3.78471e-05
-0.000448535
6.52011e-05
-0.000455591
9.97368e-05
-0.000395353
0.000141639
-0.000279953
0.000191163
-0.000118974
0.000248581
7.99516e-05
0.000314148
0.000310666
0.000388091
0.000568195
0.000470595
0.00084846
0.000561789
0.00114806
0.000661753
0.00146411
0.000770498
0.00179408
0.000887974
0.00213575
0.00101406
0.00248708
0.00114856
0.00284616
0.00129123
0.00321119
0.00144172
0.00358042
0.00159964
0.00395212
0.00176453
0.00432461
0.00193585
0.00469626
0.00211301
0.00506543
0.00229537
0.00543055
0.00248223
0.00579008
0.00267287
0.00614254
0.00286651
0.00648653
0.00306238
0.00682072
0.00325968
0.00714387
0.00345765
0.00745487
0.0036555
0.0077527
0.00385249
0.00803648
0.00404793
0.0083054
0.00424117
0.00855878
0.00443163
0.00879599
0.0046188
0.00901639
0.00480226
0.00921923
0.00498165
0.00940348
0.00515665
0.00956797
0.00971066
0.00532686
4.37683e-06
-0.000164758
1.60141e-05
-0.000369385
3.43123e-05
-0.000466833
5.91161e-05
-0.000480395
9.05393e-05
-0.000426776
0.000128831
-0.000318244
0.000174297
-0.000164441
0.00022726
2.6989e-05
0.000288016
0.000249909
0.000356828
0.000499382
0.00043391
0.000771378
0.000519422
0.00106255
0.000613467
0.00137006
0.000716086
0.00169146
0.000827251
0.00202459
0.000946871
0.00236746
0.00107479
0.00271825
0.00121077
0.00307521
0.00135453
0.00343665
0.00150571
0.00380094
0.00166389
0.00416644
0.00182858
0.00453157
0.00199923
0.00489477
0.00217525
0.00525453
0.00235599
0.00560934
0.00254077
0.00595776
0.00272886
0.00629843
0.00291954
0.00663004
0.00311205
0.00695136
0.00330564
0.00726128
0.00349957
0.00755878
0.00369312
0.00784292
0.00388561
0.00811291
0.0040764
0.00836799
0.00426491
0.00860748
0.00445062
0.00883067
0.0046331
0.00903676
0.00481195
0.00922462
0.00498679
0.00939313
0.00954032
0.00515714
3.93193e-06
-0.000168689
1.4288e-05
-0.000379741
3.0573e-05
-0.000483118
5.27239e-05
-0.000502546
8.09328e-05
-0.000454985
0.000115519
-0.00035283
0.000156848
-0.00020577
0.000205291
-2.14539e-05
0.000261189
0.000194012
0.00032484
0.000435731
0.00039649
0.000699728
0.000476329
0.000982712
0.000564484
0.00128191
0.00066102
0.00159493
0.000765934
0.00191967
0.000879162
0.00225423
0.00100057
0.00259684
0.00112997
0.00294581
0.0012671
0.00329953
0.00141164
0.0036564
0.00156319
0.00401488
0.00172133
0.00437343
0.00188554
0.00473056
0.00205527
0.00508479
0.00222992
0.00543468
0.00240885
0.00577883
0.00259139
0.0061159
0.00277683
0.0064446
0.00296447
0.00676373
0.00315358
0.00707217
0.00334345
0.0073689
0.00353339
0.00765298
0.00372273
0.00792356
0.00391085
0.00817987
0.00409717
0.00842116
0.00428116
0.00864668
0.00446237
0.00885555
0.00464037
0.00904662
0.00481472
0.00921878
0.00937018
0.00498485
3.44938e-06
-0.000172139
1.24486e-05
-0.000388741
2.66242e-05
-0.000497294
4.60184e-05
-0.00052194
7.09121e-05
-0.000479879
0.0001017
-0.000383619
0.000138811
-0.000242881
0.00018267
-6.53127e-05
0.000233662
0.000143019
0.000292123
0.00037727
0.000358332
0.00063352
0.000432506
0.000908538
0.000514798
0.00119961
0.000605295
0.00150443
0.000704019
0.00182095
0.00081093
0.00214732
0.000925923
0.00248184
0.00104883
0.0028229
0.00117943
0.00316893
0.00131743
0.0035184
0.00146247
0.00386983
0.00161415
0.00422175
0.00177202
0.0045727
0.00193554
0.00492127
0.00210416
0.00526606
0.00227729
0.00560571
0.00245429
0.0059389
0.00263449
0.00626439
0.00281722
0.00658099
0.0030018
0.00688759
0.00318754
0.00718316
0.00337376
0.00746676
0.00355983
0.0077375
0.00374512
0.00799458
0.00392905
0.00823723
0.00411111
0.00846462
0.00429082
0.00867585
0.00446771
0.00886973
0.00464129
0.0090452
0.00920056
0.00481092
2.92744e-06
-0.000175066
1.04935e-05
-0.000396307
2.24644e-05
-0.000509265
3.89998e-05
-0.000538476
6.04786e-05
-0.000501358
8.73783e-05
-0.000410519
0.000120195
-0.000275698
0.000159407
-0.000104525
0.000205448
9.69783e-05
0.000258692
0.000324026
0.000319451
0.00057276
0.000387971
0.000840018
0.000464428
0.00112316
0.000548932
0.00141993
0.000641528
0.00172835
0.000742198
0.00204665
0.000850864
0.00237318
0.000967385
0.00270638
0.00109156
0.00304475
0.00122313
0.00338683
0.00136178
0.00373119
0.00150713
0.0040764
0.00165875
0.00442108
0.00181617
0.00476385
0.00197886
0.00510337
0.00214626
0.0054383
0.00231778
0.00576739
0.00249279
0.00608939
0.00267064
0.00640314
0.00285068
0.00670755
0.00303225
0.00700159
0.00321471
0.0072843
0.00339742
0.00755479
0.00357978
0.00781223
0.00376121
0.00805579
0.00394119
0.00828464
0.00411921
0.00849782
0.0042948
0.00869415
0.00446739
0.00887261
0.00903168
0.00463626
2.36657e-06
-0.000177433
8.42381e-06
-0.000402364
1.80954e-05
-0.000518936
3.16725e-05
-0.000552053
4.96415e-05
-0.000519327
7.2567e-05
-0.000433444
0.000101016
-0.000304146
0.000135525
-0.000139035
0.000176576
5.59277e-05
0.000224581
0.00027602
0.000279886
0.000517455
0.000342765
0.000777139
0.000413417
0.0010525
0.000491976
0.00134137
0.000578509
0.00164182
0.000673019
0.00195214
0.000775453
0.00227075
0.000885693
0.00259614
0.00100356
0.00292688
0.00112883
0.00326156
0.00126121
0.00359881
0.00140036
0.00393726
0.00154587
0.00427557
0.00169731
0.00461241
0.00185418
0.00494649
0.00201597
0.00527652
0.0021821
0.00560125
0.00235199
0.0059195
0.00252502
0.00623011
0.00270057
0.006532
0.00287801
0.00682415
0.0030567
0.00710561
0.00323604
0.00737545
0.00341542
0.00763284
0.00359429
0.00787693
0.0037721
0.00810683
0.00394833
0.00832159
0.00412246
0.00852002
0.0042939
0.00870118
0.00886375
0.00446183
1.76718e-06
-0.0001792
6.24108e-06
-0.000406838
1.35226e-05
-0.000526218
2.40473e-05
-0.000562578
3.84166e-05
-0.000533696
5.72882e-05
-0.000452316
8.13042e-05
-0.000328163
0.000111061
-0.000168792
0.000147088
1.99011e-05
0.000189839
0.000233269
0.000239692
0.000467602
0.000296949
0.000719883
0.000361833
0.00098762
0.000434501
0.0012687
0.00051504
0.00156128
0.000603476
0.0018637
0.000699777
0.00217445
0.000803848
0.00249207
0.000915539
0.00281519
0.00103464
0.00314246
0.00116089
0.00347256
0.00129397
0.00380418
0.00143352
0.00413602
0.00157912
0.00446681
0.00173032
0.00479529
0.00188663
0.00512022
0.0020475
0.00544038
0.00221239
0.00575461
0.00238071
0.00606179
0.00255186
0.00636085
0.00272523
0.00665078
0.00290021
0.00693062
0.00307622
0.00719945
0.00325265
0.00745641
0.00342894
0.00770063
0.00360455
0.00793122
0.00377894
0.0081472
0.00395154
0.00834741
0.00412171
0.00853101
0.00869688
0.00428858
1.13062e-06
-0.000180331
3.94987e-06
-0.000409657
8.75512e-06
-0.000531023
1.61392e-05
-0.000569962
2.68269e-05
-0.000544384
4.15738e-05
-0.000467063
6.11006e-05
-0.000347689
8.60646e-05
-0.000193756
0.000117044
-1.10783e-05
0.000154534
0.000195779
0.000198946
0.00042319
0.000250608
0.000668221
0.000309768
0.00092846
0.000376604
0.00120186
0.000451226
0.00148666
0.000533681
0.00178125
0.000623955
0.00208417
0.000721978
0.00239405
0.000827618
0.00270955
0.000940692
0.00302939
0.00106096
0.00335229
0.00118814
0.003677
0.00132188
0.00400228
0.00146181
0.00432688
0.0016075
0.0046496
0.00175848
0.00496923
0.00191426
0.0052846
0.0020743
0.00559457
0.00223804
0.00589805
0.00240492
0.00619398
0.00257435
0.00648136
0.00274573
0.00675924
0.00291849
0.0070267
0.00309203
0.00728286
0.00326581
0.00752686
0.00343926
0.00775778
0.00361181
0.00797465
0.00378287
0.00817635
0.00395174
0.00836214
0.00853113
0.00411748
4.58798e-07
-0.00018079
1.556e-06
-0.000410755
3.80531e-06
-0.000533272
7.96852e-06
-0.000574125
1.4902e-05
-0.000551318
2.5464e-05
-0.000477625
4.04559e-05
-0.000362681
6.05976e-05
-0.000213898
8.65174e-05
-3.69982e-05
0.000118751
0.000163545
0.000157743
0.000384198
0.000203847
0.000622117
0.000257336
0.000874971
0.000318411
0.00114079
0.000387201
0.00141787
0.000463775
0.00170467
0.000548138
0.00199981
0.000640238
0.00230195
0.000739969
0.00260982
0.000847166
0.00292219
0.000961617
0.00323784
0.00108306
0.00355556
0.00121117
0.00387416
0.00134561
0.00419245
0.00148597
0.00450924
0.00163182
0.00482338
0.00178268
0.00513374
0.00193805
0.0054392
0.00209739
0.0057387
0.00226017
0.0060312
0.00242581
0.00631572
0.00259374
0.0065913
0.00276339
0.00685705
0.00293419
0.00711207
0.00310556
0.00735549
0.00327693
0.00758641
0.00344771
0.00780387
0.00361728
0.00800678
0.00378487
0.00819455
0.0083665
0.0039495
-2.46168e-07
-0.000180544
-9.32928e-07
-0.000410068
-1.3116e-06
-0.000532894
-4.39785e-07
-0.000574997
2.67809e-06
-0.000554436
9.00706e-06
-0.000483954
1.94316e-05
-0.000373106
3.47351e-05
-0.000229202
5.55966e-05
-5.78598e-05
8.25919e-05
0.00013655
0.000116196
0.000350593
0.000156792
0.000581522
0.000204676
0.000827086
0.00026007
0.0010854
0.000323125
0.00135481
0.000393927
0.00163387
0.000472503
0.00192123
0.000558819
0.00221563
0.000652789
0.00251585
0.000754271
0.00282071
0.000863075
0.00312903
0.000978959
0.00343968
0.00110164
0.00375148
0.00123078
0.0040633
0.00136601
0.00437401
0.00150693
0.00468247
0.00165308
0.00498759
0.00180398
0.00528829
0.00195914
0.00558354
0.00211802
0.00587232
0.00228008
0.00615366
0.00244475
0.00642663
0.00261149
0.00669032
0.0027797
0.00694385
0.00294883
0.00718636
0.00311828
0.00741696
0.00328743
0.00763471
0.00345561
0.0078386
0.00362202
0.00802815
0.00820292
0.0037856
-9.8086e-07
-0.000179563
-3.50768e-06
-0.000407541
-6.57746e-06
-0.000529824
-9.05644e-06
-0.000572518
-9.80259e-06
-0.00055369
-7.74046e-06
-0.000486016
-1.90124e-06
-0.000378945
8.56334e-06
-0.000239666
2.43827e-05
-7.36792e-05
4.61717e-05
0.000114761
7.44374e-05
0.000322328
0.000109589
0.00054637
0.000151946
0.000784729
0.000201753
0.00103559
0.000259181
0.00129738
0.000324335
0.00156872
0.000397259
0.00184831
0.00047794
0.00213495
0.00056631
0.00242748
0.00066225
0.00272477
0.00076559
0.00302569
0.000876112
0.00332915
0.000993553
0.00363404
0.00111761
0.00393925
0.00124794
0.00424368
0.00138414
0.00454626
0.00152581
0.00484592
0.00167249
0.00514162
0.00182369
0.00543234
0.00197891
0.0057171
0.00213762
0.00599495
0.00229928
0.00626497
0.00246332
0.00652627
0.00262919
0.00677799
0.00279628
0.00701926
0.00296401
0.00724923
0.00313172
0.007467
0.0032987
0.00767162
0.00346407
0.00786278
0.00804024
0.00362675
-1.7423e-06
-0.000177821
-6.15774e-06
-0.000403126
-1.19715e-05
-0.00052401
-1.78477e-05
-0.000566642
-2.24918e-05
-0.000549046
-2.47147e-05
-0.000483793
-2.34622e-05
-0.000380198
-1.78206e-05
-0.000245308
-7.01047e-06
-8.44894e-05
9.62115e-06
9.81288e-05
3.26127e-05
0.000299336
6.23994e-05
0.000516584
9.93259e-05
0.000747802
0.000143655
0.000991259
0.000195579
0.00124546
0.00025522
0.00150908
0.000322642
0.00178089
0.000397849
0.00205974
0.000480794
0.00234453
0.000571377
0.00263418
0.000669449
0.00292762
0.000774816
0.00322379
0.000887238
0.00352162
0.00100644
0.00382005
0.00113209
0.00411803
0.00126383
0.00441452
0.00140127
0.00470848
0.00154397
0.00499892
0.00169148
0.00528483
0.0018433
0.00556528
0.00199893
0.00583932
0.00215784
0.00610606
0.00231947
0.00636464
0.00248325
0.00661421
0.00264858
0.00685393
0.00281485
0.00708297
0.00298136
0.00730049
0.00314736
0.00750562
0.00331193
0.00769821
0.00787826
0.00347391
-2.52682e-06
-0.000175294
-8.87129e-06
-0.000396781
-1.74704e-05
-0.000515411
-2.6776e-05
-0.000557336
-3.53358e-05
-0.000540486
-4.18448e-05
-0.000477284
-4.51622e-05
-0.000376881
-4.43094e-05
-0.000246161
-3.84574e-05
-9.03414e-05
-2.69157e-05
8.6587e-05
-9.11532e-06
0.000281536
1.54049e-05
0.000492063
4.70122e-05
0.000716195
8.59901e-05
0.000952281
0.000132548
0.0011989
0.00018683
0.0014548
0.000248913
0.0017188
0.000318823
0.00198983
0.00039653
0.00226683
0.000481955
0.00254876
0.00057497
0.00283461
0.000675403
0.00312335
0.000783038
0.00341398
0.000897617
0.00370547
0.00101884
0.0039968
0.00114638
0.00428698
0.00127985
0.00457501
0.00141886
0.00485991
0.00156295
0.00514074
0.00171167
0.00541656
0.00186452
0.00568647
0.00202098
0.00594961
0.00218049
0.00620513
0.00234249
0.00645221
0.00250637
0.00669005
0.00267148
0.00691786
0.0028371
0.00713487
0.00300242
0.0073403
0.00316647
0.00753416
0.0077167
0.00332803
-3.3305e-06
-0.000171963
-1.16354e-05
-0.000388477
-2.30484e-05
-0.000503999
-3.57999e-05
-0.000544585
-4.82757e-05
-0.000528011
-5.90532e-05
-0.000466507
-6.69046e-05
-0.00036903
-7.07865e-05
-0.000242279
-6.98217e-05
-9.13063e-05
-6.32826e-05
8.00479e-05
-5.05706e-05
0.000268823
-3.11995e-05
0.000472692
-4.77977e-06
0.000689775
2.89915e-05
0.00091851
7.03422e-05
0.00115755
0.000119432
0.00140571
0.000176359
0.00166188
0.000241165
0.00192503
0.000313838
0.00219415
0.00039432
0.00246828
0.000482504
0.00274642
0.000578238
0.00302762
0.00068133
0.00331089
0.000791546
0.00359525
0.000908613
0.00387974
0.00103222
0.00416338
0.00116201
0.00444522
0.00129761
0.00472431
0.00143859
0.00499975
0.00158452
0.00527063
0.0017349
0.00553609
0.00188923
0.00579528
0.00204697
0.00604739
0.00220754
0.00629164
0.00237031
0.00652727
0.00253461
0.00675355
0.00269969
0.00696979
0.00286469
0.0071753
0.00302858
0.00737027
0.00755521
0.00319007
-4.14916e-06
-0.000167814
-1.44359e-05
-0.00037819
-2.86776e-05
-0.000489757
-4.48745e-05
-0.000528388
-6.12479e-05
-0.000511637
-7.62564e-05
-0.000451499
-8.8585e-05
-0.000356701
-9.71266e-05
-0.000233737
-0.000100957
-8.7476e-05
-9.93119e-05
7.84028e-05
-9.15643e-05
0.000261076
-7.72036e-05
0.000458331
-5.58194e-05
0.000668391
-2.70897e-05
0.00088978
9.23058e-06
0.00112123
5.33185e-05
0.00136162
0.000105289
0.00160991
0.000165201
0.00186511
0.000233063
0.00212629
0.000308834
0.00239251
0.000392428
0.00266283
0.000483715
0.00293633
0.000582526
0.00321208
0.000688649
0.00348913
0.000801834
0.00376655
0.000921794
0.00404342
0.0010482
0.00431881
0.0011807
0.00459182
0.00131889
0.00486156
0.00146235
0.00512717
0.00161061
0.00538783
0.00176317
0.00564272
0.00191949
0.00589107
0.002079
0.00613214
0.00224105
0.00636522
0.00240494
0.00658966
0.00256988
0.00680485
0.00273497
0.00701022
0.0028991
0.00720614
0.00739336
0.00306095
-4.97839e-06
-0.000162836
-1.72581e-05
-0.00036591
-3.43277e-05
-0.000472688
-5.39517e-05
-0.000508764
-7.41844e-05
-0.000491405
-9.33651e-05
-0.000432318
-0.000110093
-0.000339974
-0.000123196
-0.000220633
-0.000131707
-7.89654e-05
-0.000134825
8.1521e-05
-0.000131896
0.000258146
-0.000122385
0.00044882
-0.000105862
0.000651868
-8.19871e-05
0.000865905
-5.04984e-05
0.00108974
-1.12025e-05
0.00132232
3.60326e-05
0.00156267
9.12833e-05
0.00180986
0.000154575
0.002063
0.000225886
0.00232119
0.00030515
0.00258356
0.000392259
0.00284922
0.000487066
0.00311727
0.000589381
0.00338682
0.00069898
0.00365695
0.000815598
0.0039268
0.000938936
0.00419547
0.00106866
0.0044621
0.00120439
0.00472583
0.00134572
0.00498584
0.00149221
0.00524134
0.00164336
0.00549156
0.00179865
0.00573578
0.00195749
0.0059733
0.00211923
0.00620349
0.00228314
0.00642575
0.00244838
0.0066396
0.00261401
0.00684459
0.00277887
0.00704128
0.00723067
0.00294157
-5.81348e-06
-0.000157023
-2.00857e-05
-0.000351638
-3.99667e-05
-0.000452807
-6.29802e-05
-0.000485751
-8.70131e-05
-0.000467372
-0.000110285
-0.000409046
-0.00013131
-0.000318949
-0.000148856
-0.000203088
-0.000161909
-6.59125e-05
-0.000169636
8.92478e-05
-0.000171354
0.000259864
-0.000166508
0.000443974
-0.000154649
0.000640009
-0.00013542
0.000846675
-0.000108541
0.00106286
-7.38038e-05
0.00128759
-3.10608e-05
0.00151993
1.97814e-05
0.00175902
7.87655e-05
0.00200401
0.000145888
0.00225407
0.000221103
0.00250835
0.000304322
0.002766
0.000395419
0.00302618
0.00049423
0.003288
0.000600552
0.00355063
0.000714145
0.00381321
0.000834734
0.00407488
0.000962009
0.00433482
0.00109562
0.00459222
0.00123518
0.00484628
0.00138026
0.00509626
0.00153039
0.00534143
0.00168504
0.00558113
0.00184363
0.00581471
0.00200549
0.00604163
0.00216987
0.00626137
0.00233591
0.00647356
0.00250259
0.00667791
0.00266871
0.00687516
0.00706658
0.00283279
-6.64953e-06
-0.000150373
-2.29018e-05
-0.000335386
-4.55605e-05
-0.000430148
-7.19063e-05
-0.000459405
-9.96584e-05
-0.00043962
-0.000126918
-0.000381786
-0.000152115
-0.000293752
-0.000173958
-0.000181244
-0.000191391
-4.84798e-05
-0.000203547
0.000101404
-0.000209719
0.000266036
-0.000209329
0.000443585
-0.000201912
0.000632592
-0.000187093
0.000831856
-0.000164578
0.00104035
-0.000134143
0.00125715
-9.56244e-05
0.00148141
-4.89136e-05
0.00171231
6.04901e-06
0.00194905
6.92774e-05
0.00219084
0.000140744
0.00243688
0.000220381
0.00268637
0.000308084
0.00293847
0.000403711
0.00319238
0.000507081
0.00344726
0.000617981
0.00370231
0.00073616
0.0039567
0.000861332
0.00420965
0.000993173
0.00446037
0.00113132
0.00470813
0.00127537
0.00495221
0.00142486
0.00519195
0.00157927
0.00542671
0.00173803
0.00565596
0.00190047
0.00587919
0.0020658
0.00609603
0.00223314
0.00630622
0.00240143
0.00650962
0.00256938
0.00670721
0.00690049
0.00273547
-7.48138e-06
-0.000142892
-2.56884e-05
-0.000317179
-5.10737e-05
-0.000404763
-8.06742e-05
-0.000429805
-0.000112042
-0.000408252
-0.000143161
-0.000350667
-0.00017238
-0.000264533
-0.000198352
-0.000155273
-0.000219976
-2.68554e-05
-0.000236357
0.000117785
-0.000246762
0.000276441
-0.000250594
0.000447418
-0.000247371
0.000629369
-0.000236702
0.000821187
-0.000218278
0.00102193
-0.000191862
0.00123073
-0.000157275
0.00144682
-0.000114393
0.00166943
-6.31413e-05
0.0018978
-3.48829e-06
0.00213119
6.45557e-05
0.00236884
0.000140943
0.00260998
0.000225588
0.00285383
0.00031837
0.0030996
0.000419133
0.0033465
0.000527686
0.00359375
0.000643804
0.00384058
0.000767226
0.00408623
0.000897657
0.00432994
0.00103476
0.00457103
0.00117814
0.00480883
0.00132738
0.00504271
0.00148196
0.00527213
0.00164132
0.0054966
0.00180479
0.00571572
0.00197158
0.00592925
0.00214075
0.00613704
0.00231121
0.00633916
0.00248163
0.00653679
0.00673173
0.00265039
-8.30361e-06
-0.000134588
-2.84269e-05
-0.000297056
-5.64698e-05
-0.00037672
-8.9226e-05
-0.000397048
-0.000124082
-0.000373396
-0.000158908
-0.000315841
-0.000191976
-0.000231465
-0.00022188
-0.000125369
-0.000247482
-1.25334e-06
-0.000267856
0.000138159
-0.000282248
0.000290833
-0.000290041
0.000455211
-0.000290736
0.000630064
-0.000283929
0.00081438
-0.000269298
0.00100729
-0.000246591
0.00120803
-0.000215615
0.00141585
-0.000176232
0.00163005
-0.000128353
0.00184992
-7.193e-05
0.00207477
-6.95682e-06
0.00230387
6.65362e-05
0.00253649
0.000148484
0.00277188
0.000238784
0.0030093
0.000337304
0.00324798
0.000443874
0.00348718
0.000558295
0.00372616
0.000680333
0.00396419
0.000809716
0.00420056
0.000946135
0.00443461
0.00108923
0.00466573
0.0012386
0.00489335
0.00139375
0.00511697
0.00155414
0.00533621
0.00171909
0.00555077
0.00188782
0.00576052
0.00205937
0.00596549
0.00223261
0.00616593
0.00240614
0.00636326
0.00655958
0.00257828
-9.11048e-06
-0.000125478
-3.1098e-05
-0.000275068
-6.1711e-05
-0.000346107
-9.75025e-05
-0.000361257
-0.000135696
-0.000335202
-0.000174053
-0.000277485
-0.000210766
-0.000194752
-0.000244382
-9.17542e-05
-0.000273721
2.80857e-05
-0.00029783
0.000162269
-0.000315934
0.000308936
-0.000327399
0.000466675
-0.00033171
0.000634375
-0.00032845
0.00081112
-0.000317284
0.000996127
-0.000297946
0.00118869
-0.000270232
0.00138813
-0.00023399
0.0015938
-0.000189115
0.00180505
-0.000135548
0.0020212
-7.32658e-05
0.00224158
-2.28173e-06
0.0024655
7.73546e-05
0.00269224
0.000165561
0.00292109
0.000262224
0.00315132
0.000367196
0.00338221
0.000480301
0.00361306
0.000601331
0.00384316
0.00073004
0.00407185
0.00086615
0.00429851
0.00100933
0.00452255
0.0011592
0.00474347
0.00131532
0.00496086
0.00147713
0.00517439
0.00164401
0.00538389
0.00181516
0.00558936
0.00198963
0.00579102
0.00216624
0.00598932
0.00234356
0.00618594
0.00638331
0.00251983
-9.89594e-06
-0.000115582
-3.3682e-05
-0.000251282
-6.6759e-05
-0.00031303
-0.000105443
-0.000322573
-0.0001468
-0.000293846
-0.000188483
-0.000235802
-0.000228616
-0.000154618
-0.000265694
-5.4677e-05
-0.000298501
6.08934e-05
-0.00032606
0.000189827
-0.000347573
0.00033045
-0.000362393
0.000481495
-0.000369988
0.00064197
-0.00036993
0.000811062
-0.00036187
0.000988068
-0.000345533
0.00117235
-0.0003207
0.0013633
-0.000287208
0.00156031
-0.000244941
0.00176278
-0.000193824
0.00197008
-0.000133821
0.00218158
-6.49312e-05
0.00239661
1.28117e-05
0.0026145
9.93412e-05
0.00283456
0.00019456
0.0030561
0.000298343
0.00327843
0.000410533
0.00350087
0.000530946
0.00372274
0.000659366
0.00394343
0.000795539
0.00416233
0.000939169
0.00437892
0.00108991
0.00459273
0.00124735
0.00480342
0.00141098
0.00501076
0.0015802
0.00521468
0.00175423
0.00541533
0.00193213
0.00561312
0.0021127
0.00580874
0.00229448
0.00600417
0.00620216
0.00247563
-1.06538e-05
-0.000104928
-3.61589e-05
-0.000225777
-7.15748e-05
-0.000277614
-0.000112986
-0.000281161
-0.000157306
-0.000249525
-0.000202089
-0.00019102
-0.000245387
-0.00011132
-0.00028565
-1.44146e-05
-0.00032163
9.68731e-05
-0.000352322
0.00022052
-0.000376913
0.000355041
-0.000394739
0.00049932
-0.000405256
0.000652487
-0.000408024
0.000813829
-0.000402682
0.000982727
-0.000388944
0.00115861
-0.00036658
0.00134094
-0.000335416
0.00152915
-0.000295324
0.00172269
-0.000246217
0.00192098
-0.000188048
0.00212341
-0.000120803
0.00232937
-4.45034e-05
0.0025382
4.07979e-05
0.00274926
0.000135019
0.00296188
0.000238049
0.0031754
0.000349751
0.00338916
0.000469961
0.00360253
0.000598486
0.00381491
0.000735102
0.00402572
0.000879545
0.00423447
0.00103151
0.00444077
0.00119061
0.00464431
0.00135641
0.00484496
0.00152833
0.00504276
0.00170565
0.00523802
0.00188744
0.00543133
0.00207253
0.00562366
0.00225941
0.00581728
0.00601536
0.00244621
-1.13776e-05
-9.35506e-05
-3.85083e-05
-0.000198647
-7.61189e-05
-0.000240004
-0.00012007
-0.00023721
-0.00016713
-0.000202465
-0.000214757
-0.000143393
-0.00026094
-6.5137e-05
-0.000304083
2.8728e-05
-0.000342909
0.000135699
-0.00037639
0.000254002
-0.000403697
0.000382348
-0.00042415
0.000519774
-0.000437196
0.000665532
-0.00044238
0.000819013
-0.000439335
0.000979681
-0.000427761
0.00114704
-0.000407419
0.00132059
-0.000378125
0.00149985
-0.000339739
0.0016843
-0.000292167
0.0018734
-0.000235349
0.00206659
-0.000169262
0.00226328
-9.39174e-05
0.00246286
-9.3574e-06
0.0026647
8.43468e-05
0.00286817
0.000187097
0.00307265
0.00029877
0.00327749
0.000419216
0.00348209
0.000548265
0.00368586
0.000685714
0.00388827
0.000831333
0.00408886
0.000984851
0.00428725
0.00114594
0.00448322
0.00131421
0.00467669
0.00148915
0.00486783
0.00167009
0.00505707
0.00185617
0.00524525
0.00204625
0.00543358
0.00223883
0.0056247
0.00582222
0.00243198
-1.20612e-05
-8.14896e-05
-4.071e-05
-0.000169998
-8.03518e-05
-0.000200362
-0.000126634
-0.000190928
-0.000176186
-0.000152914
-0.000226376
-9.32027e-05
-0.000275134
-1.63789e-05
-0.000320824
7.44171e-05
-0.00036214
0.000177015
-0.000398036
0.000289897
-0.000427664
0.000411976
-0.000450334
0.000542444
-0.00046548
0.000680679
-0.000472639
0.000826172
-0.000471433
0.000978475
-0.000461552
0.00113716
-0.000442749
0.00130179
-0.000414829
0.00147193
-0.000377645
0.00164712
-0.000331091
0.00182685
-0.000275101
0.0020106
-0.000209643
0.00219782
-0.000134723
0.00238793
-5.03741e-05
0.00258035
4.33383e-05
0.00277446
0.000146323
0.00296966
0.000258465
0.00316535
0.000379625
0.00336093
0.000509644
0.00355584
0.000648339
0.00374957
0.000795505
0.00394169
0.000950907
0.00413185
0.00111427
0.00431986
0.00128526
0.0045057
0.00146345
0.00468964
0.00164826
0.00487226
0.00183892
0.00505459
0.00203437
0.00523813
0.00223314
0.00542593
0.00562208
0.00243328
-1.26982e-05
-6.87915e-05
-4.27438e-05
-0.000139952
-8.42343e-05
-0.000158872
-0.000132615
-0.000142547
-0.000184387
-0.000101142
-0.000236834
-4.07557e-05
-0.000287831
3.46178e-05
-0.000335704
0.00012229
-0.000379125
0.000220436