/*--------------------------------*- C++ -*----------------------------------*\
  =========                 |
  \\      /  F ield         | OpenFOAM: The Open Source CFD Toolbox
   \\    /   O peration     | Website:  https://openfoam.org
    \\  /    A nd           | Version:  7
     \\/     M anipulation  |
\*---------------------------------------------------------------------------*/
FoamFile
{
    version     2.0;
    format      ascii;
    class       volVectorField;
    location    "8.7";
    object      U;
}
// * * * * * * * * * * * * * * * * * * * * * * * * * * * * * * * * * * * * * //

dimensions      [0 1 -1 0 0 0 0];

internalField   nonuniform List<vector> 
32000
(
(0.000220877 -0.00492945 -2.08064e-22)
(0.00136987 -0.0102283 0)
(0.0035908 -0.0114528 -1.8657e-21)
(0.00648833 -0.00941498 0)
(0.0100099 -0.00469972 1.94782e-21)
(0.014067 0.00224333 0)
(0.0186008 0.0110497 2.01584e-21)
(0.0235658 0.0214196 -1.53336e-21)
(0.0289227 0.0331075 6.04187e-25)
(0.0346362 0.0459073 6.59094e-25)
(0.040673 0.0596458 -5.28503e-22)
(0.0470018 0.0741742 2.13389e-21)
(0.0535916 0.0893617 0)
(0.0604104 0.10509 -5.42298e-22)
(0.0674254 0.121252 5.44547e-22)
(0.0746023 0.137743 0)
(0.0819052 0.154468 2.75626e-21)
(0.0892971 0.171332 -5.53153e-22)
(0.09674 0.188243 0)
(0.104194 0.205112 1.12182e-21)
(0.111619 0.221852 1.12467e-21)
(0.118975 0.238379 0)
(0.126223 0.25461 0)
(0.133325 0.270468 0)
(0.140244 0.28588 0)
(0.146945 0.300779 0)
(0.153397 0.315103 0)
(0.159571 0.328797 0)
(0.165441 0.341815 -2.33494e-21)
(0.170986 0.354117 0)
(0.17619 0.365673 2.35943e-21)
(0.181039 0.376457 0)
(0.185523 0.386456 0)
(0.189638 0.395661 0)
(0.193384 0.404068 -2.40807e-21)
(0.196763 0.41168 -1.22028e-21)
(0.199784 0.418493 3.66483e-21)
(0.202469 0.424497 4.9016e-24)
(0.204827 0.429669 2.47281e-21)
(0.206748 0.433933 4.42556e-24)
(0.000317718 -0.00517993 0)
(0.0015355 -0.0109141 3.64029e-21)
(0.00369259 -0.0125356 9.31555e-22)
(0.00641968 -0.0108665 -1.35875e-24)
(0.0096798 -0.00650232 -9.74115e-22)
(0.013401 0.000100574 0)
(0.0175371 0.00857396 2.01626e-21)
(0.0220533 0.0186158 -2.04482e-21)
(0.0269193 0.0299802 0)
(0.0321068 0.0424609 -4.18712e-21)
(0.0375901 0.0558852 0)
(0.0433436 0.0701063 -6.39907e-21)
(0.0493412 0.0849953 0)
(0.0555563 0.100437 0)
(0.0619609 0.116325 2.18119e-21)
(0.0685249 0.13256 -2.18822e-21)
(0.0752172 0.149049 -2.20376e-21)
(0.0820058 0.1657 0)
(0.0888564 0.182424 6.67159e-21)
(0.0957339 0.199136 -2.2285e-21)
(0.102603 0.215751 3.79179e-24)
(0.109427 0.232186 -6.74874e-21)
(0.11617 0.248362 -4.52134e-21)
(0.122797 0.264202 -2.28208e-21)
(0.129276 0.279634 6.83792e-21)
(0.135574 0.294591 -6.88765e-21)
(0.141661 0.30901 6.93e-21)
(0.147508 0.322836 -9.24197e-21)
(0.153092 0.33602 -2.3142e-21)
(0.158392 0.348521 3.38456e-23)
(0.16339 0.360305 -7.00747e-21)
(0.168071 0.371345 -4.70661e-21)
(0.172427 0.381622 9.5209e-21)
(0.176449 0.391123 -9.51751e-21)
(0.180137 0.399842 -2.37899e-21)
(0.18349 0.407774 -9.65852e-21)
(0.186517 0.414912 -1.0361e-23)
(0.189237 0.42124 2.45052e-21)
(0.191647 0.426727 -9.73051e-21)
(0.193629 0.431291 -1.37651e-20)
(0.000424885 -0.00543234 -8.34601e-22)
(0.00172691 -0.0115967 -1.81992e-21)
(0.00382952 -0.0135908 -8.40404e-21)
(0.00639482 -0.0122686 0)
(0.00940304 -0.0082375 9.7488e-22)
(0.0127982 -0.00196035 -9.9146e-22)
(0.0165474 0.00619131 -1.20966e-20)
(0.0206273 0.0159139 4.08922e-21)
(0.0250166 0.0269602 -2.0714e-21)
(0.0296939 0.0391251 1.25582e-20)
(0.0346401 0.0522375 4.22806e-21)
(0.0398354 0.066151 2.13443e-21)
(0.0452589 0.0807391 -8.59295e-21)
(0.050888 0.0958889 0)
(0.0566993 0.111497 0)
(0.0626673 0.127467 4.38345e-21)
(0.0687648 0.143708 1.28145e-23)
(0.0749634 0.160133 -4.41342e-21)
(0.0812337 0.176655 -4.44336e-21)
(0.0875445 0.193191 -8.91111e-21)
(0.0938635 0.20966 1.34375e-20)
(0.100159 0.225981 1.69291e-23)
(0.106397 0.242076 -8.90203e-24)
(0.112548 0.257871 4.5205e-21)
(0.118581 0.273295 -9.13375e-21)
(0.124466 0.288279 1.82769e-20)
(0.130174 0.302763 0)
(0.13568 0.31669 4.62654e-21)
(0.14096 0.33001 4.6491e-21)
(0.145993 0.342679 9.35564e-21)
(0.150762 0.354661 3.38359e-23)
(0.155253 0.365927 0)
(0.159453 0.376454 4.76431e-21)
(0.163357 0.386227 -4.68895e-21)
(0.166959 0.395233 -4.73193e-21)
(0.170261 0.403464 1.44477e-20)
(0.173267 0.410908 -1.43503e-20)
(0.175997 0.417542 9.71947e-21)
(0.178433 0.423332 -1.44628e-20)
(0.180452 0.428187 5.38811e-21)
(0.000541588 -0.00565869 6.67736e-21)
(0.00193981 -0.012216 -7.29199e-21)
(0.0039941 -0.0145633 1.49473e-20)
(0.00640372 -0.0135727 0)
(0.00916628 -0.0098629 5.84944e-21)
(0.0122436 -0.00390258 9.9238e-21)
(0.015616 0.00393318 2.01542e-21)
(0.0192706 0.0133406 1.684e-24)
(0.0231954 0.0240708 6.21232e-21)
(0.0273767 0.0359199 -2.09471e-21)
(0.0318014 0.0487178 1.0566e-20)
(0.0364552 0.0623203 -1.27913e-20)
(0.0413217 0.0766027 1.28856e-20)
(0.046383 0.0914542 -4.32828e-21)
(0.0516192 0.106774 4.34628e-21)
(0.0570086 0.12247 -8.74425e-21)
(0.0625277 0.138452 -1.31883e-20)
(0.0681521 0.154637 4.40856e-21)
(0.0738556 0.170941 -4.4427e-21)
(0.0796108 0.187285 1.33543e-20)
(0.0853893 0.203588 -8.94779e-21)
(0.0911621 0.219773 -8.96759e-21)
(0.0969001 0.235765 0)
(0.102575 0.251489 0)
(0.108159 0.266877 -9.07279e-21)
(0.113625 0.281862 -9.13615e-21)
(0.118946 0.296381 -9.14665e-21)
(0.124098 0.310379 0)
(0.129059 0.323804 0)
(0.133809 0.336611 -1.85903e-20)
(0.138331 0.348763 -8.79016e-23)
(0.142609 0.360226 9.38933e-21)
(0.146633 0.370975 -9.36313e-21)
(0.150394 0.380992 -9.49879e-21)
(0.153888 0.390261 9.49648e-21)
(0.157112 0.398768 0)
(0.160073 0.406498 9.6008e-21)
(0.162787 0.413422 -1.9238e-20)
(0.165225 0.419499 1.92711e-20)
(0.167258 0.424636 -2.17455e-20)
(0.000666028 -0.00587497 -3.33512e-21)
(0.002171 -0.0128046 5.47032e-21)
(0.00418242 -0.0154829 -7.47617e-21)
(0.00644128 -0.0148052 0)
(0.008964 -0.0114012 -9.75112e-21)
(0.0117297 -0.00574591 -5.95555e-21)
(0.014733 0.00178275 8.06658e-21)
(0.0179722 0.0108803 0)
(0.0214441 0.0212979 -1.24244e-20)
(0.0251423 0.0328329 -4.18799e-21)
(0.02906 0.0453163 -4.22493e-21)
(0.0331881 0.0586061 8.52988e-21)
(0.0375146 0.0725796 -8.58822e-21)
(0.0420251 0.0871283 4.31911e-21)
(0.0467036 0.102154 0)
(0.0515318 0.117567 1.31199e-20)
(0.0564894 0.133281 4.40052e-21)
(0.0615551 0.149214 -8.83559e-21)
(0.0667064 0.165287 1.77168e-20)
(0.0719192 0.181422 -1.77864e-20)
(0.0771679 0.197542 1.78268e-20)
(0.0824266 0.213572 8.96759e-21)
(0.0876698 0.229437 0)
(0.0928719 0.245068 9.05595e-21)
(0.0980077 0.260396 4.05634e-23)
(0.103052 0.275354 0)
(0.107981 0.289881 9.14668e-21)
(0.112772 0.303922 -9.2076e-21)
(0.117403 0.317423 9.16929e-21)
(0.121856 0.330339 1.85522e-20)
(0.126114 0.34263 -1.85718e-20)
(0.130163 0.354262 1.86272e-20)
(0.13399 0.365207 0)
(0.137588 0.375441 0)
(0.140951 0.384948 1.88852e-20)
(0.144076 0.393708 0)
(0.146968 0.401701 0)
(0.149644 0.408896 -1.91411e-20)
(0.152061 0.415246 1.90742e-20)
(0.154085 0.420652 1.08503e-20)
(0.000797115 -0.00607306 1.6717e-21)
(0.00241674 -0.0133434 0)
(0.00438901 -0.0163295 1.49735e-20)
(0.0065001 -0.0159465 1.9139e-21)
(0.00878626 -0.0128352 1.9537e-21)
(0.0112455 -0.0074751 1.19212e-20)
(0.0138865 -0.000246594 1.61417e-20)
(0.0167186 0.00854525 0)
(0.0197477 0.0186524 4.14279e-21)
(0.022975 0.0298733 1.25606e-20)
(0.0263995 0.042041 1.69039e-20)
(0.0300168 0.0550152 -4.26355e-21)
(0.0338193 0.0686754 -1.28784e-20)
(0.0377959 0.0829154 0)
(0.041934 0.09764 1.73779e-20)
(0.0462183 0.112761 0)
(0.0506314 0.128197 2.63348e-20)
(0.055155 0.143868 -8.80151e-21)
(0.0597695 0.159697 0)
(0.0644537 0.175608 -8.90011e-21)
(0.0691848 0.191528 -2.45212e-23)
(0.0739401 0.207384 -8.91109e-21)
(0.0786967 0.223104 -8.95418e-21)
(0.0834317 0.23862 9.03668e-21)
(0.0881224 0.253863 -9.01303e-21)
(0.092746 0.26877 0)
(0.0972801 0.283279 -9.14162e-21)
(0.101704 0.297335 9.10672e-21)
(0.105998 0.310885 0)
(0.110144 0.323881 0)
(0.114127 0.336284 0)
(0.117931 0.348057 -1.86569e-20)
(0.121547 0.359169 1.85583e-20)
(0.124964 0.369595 0)
(0.128177 0.379313 -9.41823e-21)
(0.131183 0.388302 0)
(0.133987 0.396538 1.90207e-20)
(0.136603 0.403984 -9.37725e-21)
(0.138978 0.410589 -1.91441e-20)
(0.140973 0.416254 2.14234e-20)
(0.000933607 -0.00625485 1.17201e-20)
(0.00267376 -0.0138352 -1.64467e-20)
(0.00460867 -0.0171055 -2.80863e-20)
(0.00657351 -0.0169995 -1.53188e-20)
(0.00862561 -0.0141669 -3.90595e-21)
(0.010782 -0.00909204 -7.94437e-21)
(0.0130661 -0.00215723 -3.63232e-20)
(0.0154987 0.00633282 -1.22768e-20)
(0.0180946 0.0161314 -2.07101e-20)
(0.0208622 0.0270382 -2.09332e-20)
(0.0238064 0.0388884 -2.95834e-20)
(0.0269275 0.0515441 -1.70431e-20)
(0.0302215 0.0648869 2.57101e-24)
(0.0336808 0.078813 -1.7275e-20)
(0.0372955 0.0932299 -1.73778e-20)
(0.0410532 0.108052 -2.61997e-20)
(0.0449392 0.123201 1.75342e-20)
(0.0489376 0.138598 -8.79577e-21)
(0.0530314 0.154171 0)
(0.0572019 0.169845 1.77396e-20)
(0.0614291 0.18555 0)
(0.065693 0.201215 3.57388e-20)
(0.0699731 0.216771 0)
(0.074249 0.232151 -9.01991e-21)
(0.0785002 0.247288 9.06937e-21)
(0.082706 0.26212 -1.80487e-20)
(0.0868462 0.276587 0)
(0.0909015 0.290633 -1.83032e-20)
(0.0948537 0.304204 1.8227e-20)
(0.0986864 0.317255 0)
(0.102385 0.329742 0)
(0.105935 0.341628 0)
(0.109325 0.352881 -1.85321e-20)
(0.112547 0.363473 0)
(0.115594 0.373378 -1.87897e-20)
(0.118464 0.382572 3.75344e-20)
(0.121161 0.391028 -3.76609e-20)
(0.1237 0.398705 1.86651e-20)
(0.126013 0.40555 3.78916e-20)
(0.127959 0.41146 -2.13273e-20)
(0.00107403 -0.00641806 -1.50683e-20)
(0.00293819 -0.0142764 -1.22966e-23)
(0.00483601 -0.017807 1.49841e-20)
(0.00665464 -0.0179595 3.06473e-20)
(0.00847355 -0.0153924 -3.90781e-21)
(0.0103298 -0.0105938 -1.59075e-20)
(0.0122617 -0.00394646 1.61447e-20)
(0.0143016 0.00424527 2.45558e-20)
(0.016473 0.0137362 8.28376e-21)
(0.0187919 0.0243282 2.09351e-20)
(0.0212683 0.035859 1.6904e-20)
(0.0239072 0.0481929 2.55611e-20)
(0.026708 0.0612137 5.1497e-20)
(0.0296661 0.0748204 2.59159e-20)
(0.0327745 0.0889231 0)
(0.0360231 0.103439 8.72195e-21)
(0.0393993 0.118291 8.75134e-21)
(0.0428898 0.133406 8.78654e-21)
(0.0464796 0.148711 1.76729e-20)
(0.0501524 0.164136 -8.86303e-21)
(0.0538906 0.179611 0)
(0.0576764 0.19507 -1.70903e-23)
(0.0614919 0.210444 -1.78959e-20)
(0.0653187 0.225669 1.79494e-20)
(0.0691382 0.24068 3.60339e-20)
(0.0729319 0.255416 3.61893e-20)
(0.0766814 0.269817 4.33899e-23)
(0.0803691 0.283828 1.81694e-20)
(0.0839785 0.297397 1.82272e-20)
(0.0874942 0.310476 -1.82859e-20)
(0.0909022 0.323022 1.83454e-20)
(0.0941893 0.334995 1.84053e-20)
(0.0973448 0.346363 3.69975e-20)
(0.10036 0.357095 -1.18388e-22)
(0.103229 0.367162 5.58258e-20)
(0.105948 0.376538 4.5622e-23)
(0.108523 0.385192 -1.86966e-20)
(0.110967 0.393081 -1.88432e-20)
(0.113202 0.400148 1.87971e-20)
(0.115082 0.40629 2.12781e-20)
(0.00121706 -0.00656163 1.34209e-20)
(0.00320635 -0.0146645 1.82919e-20)
(0.00506552 -0.0184306 1.12579e-20)
(0.00673655 -0.0188236 -1.1494e-20)
(0.0083221 -0.0165092 -1.95478e-20)
(0.00987992 -0.0119778 1.59053e-20)
(0.0114636 -0.00561266 0)
(0.013117 0.00228329 1.63799e-20)
(0.0148725 0.0114672 0)
(0.016753 0.0217434 -3.3502e-20)
(0.018774 0.0329523 8.45596e-21)
(0.0209444 0.0449605 -4.26073e-20)
(0.0232669 0.0576546 -1.7165e-20)
(0.0257401 0.0709364 8.64149e-21)
(0.028359 0.0847184 1.30299e-23)
(0.0311159 0.0989206 -8.71881e-21)
(0.0340001 0.113468 -1.75314e-20)
(0.0370003 0.12829 -3.51991e-20)
(0.0401035 0.143317 0)
(0.0432952 0.15848 2.79163e-23)
(0.0465601 0.173713 -1.7747e-20)
(0.0498827 0.18895 -1.78418e-20)
(0.0532469 0.204127 1.78959e-20)
(0.0566362 0.219179 -1.8007e-20)
(0.0600338 0.234045 1.79819e-20)
(0.0634233 0.248664 -3.60465e-20)
(0.066788 0.262979 4.49471e-23)
(0.0701119 0.276933 -3.62581e-20)
(0.0733799 0.290475 -1.82273e-20)
(0.0765781 0.303558 -4.81427e-23)
(0.079693 0.316138 -9.87358e-23)
(0.0827126 0.328175 -1.84054e-20)
(0.0856265 0.339633 -1.84654e-20)
(0.0884268 0.350479 -6.53043e-23)
(0.0911073 0.360686 -1.85836e-20)
(0.0936643 0.37022 -7.59219e-23)
(0.0961035 0.379051 -1.87804e-20)
(0.0984396 0.387133 5.59065e-20)
(0.100581 0.394405 -1.87972e-20)
(0.102379 0.400765 -2.13069e-20)
(0.00136133 -0.00668407 -1.34232e-20)
(0.00347459 -0.0149967 3.65974e-21)
(0.00529167 -0.0189735 -1.12522e-20)
(0.00681234 -0.0195891 -3.83467e-21)
(0.00816345 -0.0175147 1.56399e-20)
(0.00942399 -0.0132425 -3.9799e-21)
(0.0106628 -0.00715479 4.03989e-21)
(0.0119356 0.00044756 -2.45727e-20)
(0.0132833 0.00932453 8.2883e-21)
(0.0147357 0.0192834 1.67527e-20)
(0.0163133 0.0301672 0)
(0.0180288 0.0418457 3.40931e-20)
(0.0198881 0.0542082 0)
(0.0218924 0.0671593 -3.45465e-20)
(0.0240388 0.080614 -1.7368e-20)
(0.0263214 0.094495 0)
(0.0287316 0.10873 0)
(0.0312594 0.12325 3.5193e-20)
(0.0338937 0.137988 1.76868e-20)
(0.0366217 0.152878 -3.54381e-20)
(0.0394302 0.167856 1.774e-20)
(0.0423054 0.182859 0)
(0.0452328 0.197823 -1.7917e-20)
(0.0481977 0.212687 3.58344e-20)
(0.0511853 0.22739 -1.79228e-20)
(0.0541804 0.241874 -1.8075e-20)
(0.0571684 0.256081 1.80127e-20)
(0.0601346 0.269957 0)
(0.0630655 0.283452 3.63902e-20)
(0.0659482 0.296516 -1.81543e-20)
(0.0687703 0.309106 -1.83451e-20)
(0.0715205 0.321182 -1.47014e-22)
(0.0741892 0.332706 7.3563e-20)
(0.076769 0.343645 -5.51642e-20)
(0.0792538 0.353967 0)
(0.0816401 0.363638 -1.85651e-20)
(0.0839339 0.372624 -3.73163e-20)
(0.0861497 0.38088 1.84187e-20)
(0.0881843 0.388341 1.86207e-20)
(0.0898862 0.394907 0)
(0.00150534 -0.0067839 -2.68967e-20)
(0.00373903 -0.0152707 -3.66326e-21)
(0.00550889 -0.0194331 3.00589e-20)
(0.00687537 -0.0202532 -3.07185e-20)
(0.00799007 -0.0184068 0)
(0.00895381 -0.0143863 0)
(0.00985104 -0.00857186 -8.086e-21)
(0.0107489 -0.00126152 -2.42067e-24)
(0.0116969 0.00730795 8.29138e-21)
(0.0127313 0.0169473 0)
(0.0138776 0.0275028 0)
(0.0151518 0.0388472 -8.51993e-21)
(0.0165629 0.050873 7.33528e-24)
(0.0181144 0.0634874 8.64055e-21)
(0.0198054 0.0766084 1.7368e-20)
(0.0216315 0.090161 0)
(0.0235856 0.104075 1.75481e-20)
(0.0256593 0.118284 -1.75515e-20)
(0.027843 0.132724 -3.53193e-20)
(0.0301255 0.147331 3.54334e-20)
(0.032495 0.162042 6.55372e-23)
(0.0349394 0.176797 -1.77828e-20)
(0.0374458 0.191535 1.7907e-20)
(0.040001 0.206195 -3.57851e-20)
(0.0425916 0.22072 0)
(0.0452043 0.23505 1.80553e-20)
(0.0478256 0.249132 -3.60975e-20)
(0.0504426 0.262911 1.80354e-20)
(0.053043 0.276336 -1.81545e-20)
(0.0556149 0.28936 -1.82534e-20)
(0.058147 0.301939 -1.84401e-20)
(0.0606289 0.314032 7.31279e-20)
(0.0630516 0.3256 -5.48645e-20)
(0.0654082 0.336609 -3.68996e-20)
(0.0676931 0.347024 3.66884e-20)
(0.0699026 0.356811 0)
(0.0720434 0.365933 3.71697e-20)
(0.0741295 0.374344 -3.6937e-20)
(0.0760471 0.381979 -1.86208e-20)
(0.0776408 0.388738 0)
(0.00164751 -0.00685986 5.71925e-20)
(0.00399582 -0.0154842 2.5696e-20)
(0.00571175 -0.0198067 -3.00587e-20)
(0.00691899 -0.0208138 2.68766e-20)
(0.0077947 -0.019184 -3.9175e-21)
(0.00846192 -0.0154081 7.96601e-21)
(0.0090205 -0.00986322 0)
(0.00954905 -0.00284398 -8.19933e-21)
(0.0101055 0.00541698 8.29486e-21)
(0.0107323 0.0147343 8.38473e-21)
(0.0114593 0.0249577 -8.45807e-21)
(0.0123061 0.0359634 -8.53083e-21)
(0.0132842 0.0476471 8.58436e-21)
(0.0143992 0.059919 0)
(0.0156519 0.0726996 0)
(0.0170393 0.0859165 -1.74735e-20)
(0.0185558 0.0995021 1.75147e-20)
(0.0201941 0.113392 -1.76226e-20)
(0.0219459 0.127524 1.7637e-20)
(0.0238014 0.141837 1.77466e-20)
(0.0257502 0.156271 -3.5539e-20)
(0.0277814 0.170766 3.56348e-20)
(0.0298836 0.185264 7.82785e-23)
(0.0320449 0.199707 -1.78634e-20)
(0.0342534 0.214038 0)
(0.036497 0.228199 1.80414e-20)
(0.0387636 0.242138 1.07724e-22)
(0.0410419 0.2558 -1.80179e-20)
(0.0433205 0.269138 0)
(0.0455888 0.282102 3.64462e-20)
(0.0478363 0.29465 -3.62725e-20)
(0.0500534 0.306738 0)
(0.052232 0.318329 3.67137e-20)
(0.0543657 0.329386 -3.65114e-20)
(0.056449 0.339874 0)
(0.0584785 0.349757 0)
(0.0604612 0.358996 0)
(0.0624106 0.367547 -3.7103e-20)
(0.0642028 0.37534 3.68651e-20)
(0.0656782 0.38228 4.23361e-20)
(0.00178623 -0.00691061 -2.69279e-20)
(0.00424097 -0.015635 -2.93626e-20)
(0.00589469 -0.0200922 -3.76244e-21)
(0.00693684 -0.021269 1.15317e-20)
(0.00757048 -0.0198446 -1.56732e-20)
(0.00794118 -0.0163069 1.59431e-20)
(0.0081642 -0.0110287 -1.61864e-20)
(0.00832933 -0.00430004 -2.4616e-20)
(0.00850261 0.00365099 0)
(0.00873234 0.0126433 -8.38825e-21)
(0.00905257 0.0225306 8.46163e-21)
(0.00948596 0.0331928 0)
(0.0100466 0.0445289 1.71898e-20)
(0.0107417 0.0564521 -1.72788e-20)
(0.0115735 0.0688858 -5.21636e-20)
(0.0125405 0.0817599 -3.03267e-23)
(0.0136379 0.0950092 3.50798e-20)
(0.0148599 0.108572 -1.75856e-20)
(0.016199 0.122387 0)
(0.0176466 0.136397 0)
(0.0191935 0.150542 3.55514e-20)
(0.0208299 0.164767 1.78545e-20)
(0.0225456 0.179013 -1.78252e-20)
(0.02433 0.193226 -1.79466e-20)
(0.0261723 0.207348 3.58901e-20)
(0.0280616 0.221325 -1.79356e-20)
(0.0299873 0.235104 3.61507e-20)
(0.0319391 0.248634 -7.22469e-20)
(0.033907 0.261866 7.24003e-20)
(0.0358809 0.274752 -7.25535e-20)
(0.0378515 0.287249 7.27061e-20)
(0.03981 0.299314 -7.28571e-20)
(0.0417489 0.310908 3.63672e-20)
(0.0436623 0.321994 3.67134e-20)
(0.0455451 0.332536 2.82251e-22)
(0.0473939 0.342495 2.86526e-22)
(0.0492158 0.351834 -3.66298e-20)
(0.0510239 0.360508 1.94733e-22)
(0.0526846 0.368445 -3.67369e-20)
(0.0540337 0.375556 0)
(0.00191979 -0.00693505 3.3716e-21)
(0.0044705 -0.0157212 -3.67591e-21)
(0.00605232 -0.0202876 1.12945e-20)
(0.00692267 -0.0216172 -1.53859e-20)
(0.00731089 -0.0203876 7.84106e-21)
(0.00738513 -0.0170822 0)
(0.00727586 -0.0120682 0)
(0.00708371 -0.00563024 3.28174e-20)
(0.00688259 0.00200897 4.15297e-20)
(0.00672626 0.010673 -8.38934e-21)
(0.0066526 0.0202201 4.2349e-20)
(0.00668716 0.0305337 -8.533e-21)
(0.00684609 0.0415167 0)
(0.00713824 0.0530853 0)
(0.00756709 0.0651655 3.47699e-20)
(0.00813209 0.0776897 0)
(0.00882966 0.0905951 1.75405e-20)
(0.00965468 0.103822 -1.76477e-20)
(0.0106007 0.117312 0)
(0.0116602 0.131009 -3.54726e-20)
(0.0128246 0.144857 -1.77396e-20)
(0.0140853 0.1588 -5.34532e-20)
(0.0154331 0.172784 -1.7906e-20)
(0.0168585 0.186753 1.78676e-20)
(0.0183518 0.200654 3.58964e-20)
(0.0199031 0.214432 0)
(0.021503 0.228038 3.60371e-20)
(0.0231424 0.241419 7.23207e-20)
(0.024812 0.254529 2.25849e-22)
(0.026503 0.26732 -3.61289e-20)
(0.0282065 0.279748 -3.64381e-20)
(0.0299147 0.291771 3.62547e-20)
(0.0316207 0.30335 3.65769e-20)
(0.0333191 0.314447 -7.30174e-20)
(0.0350049 0.325024 7.31361e-20)
(0.0366746 0.335043 -3.66615e-20)
(0.0383354 0.344466 3.65379e-20)
(0.0399999 0.353248 7.34577e-20)
(0.0415252 0.361318 3.67049e-20)
(0.0427419 0.368588 4.18222e-20)
(0.00204641 -0.00693209 -2.70195e-20)
(0.00468033 -0.0157412 2.57611e-20)
(0.00617926 -0.0203915 -2.26197e-20)
(0.00687052 -0.0218574 2.31067e-20)
(0.00700981 -0.0208126 3.92453e-20)
(0.00678781 -0.0177341 -3.19357e-20)
(0.00634989 -0.0129823 4.05227e-20)
(0.00580716 -0.00683543 2.46438e-20)
(0.00524094 0.000489804 -5.81586e-20)
(0.0047101 0.00882218 1.67999e-20)
(0.00425606 0.0180245 8.49006e-21)
(0.00390686 0.0279847 1.70867e-20)
(0.00368049 0.038609 1.72187e-20)
(0.00358713 0.0498169 -3.46261e-20)
(0.00363127 0.0615372 3.48156e-20)
(0.00381328 0.0737047 5.24867e-20)
(0.00413049 0.086259 -5.26518e-20)
(0.00457853 0.0991425 7.0514e-20)
(0.00515168 0.112299 3.53918e-20)
(0.00584308 0.125675 5.32441e-20)
(0.00664506 0.139216 1.78358e-20)
(0.00754979 0.152868 3.5661e-20)
(0.00854911 0.166577 -3.57681e-20)
(0.0096344 0.180292 0)
(0.0107968 0.193959 -1.07804e-19)
(0.0120275 0.207526 7.19506e-20)
(0.0133182 0.220944 -3.58407e-20)
(0.0146607 0.234162 -3.58969e-20)
(0.0160466 0.247134 1.08461e-22)
(0.0174677 0.259813 0)
(0.018916 0.272156 0)
(0.0203843 0.284121 3.63374e-20)
(0.0218665 0.295668 -3.653e-20)
(0.0233572 0.306758 3.63287e-20)
(0.0248517 0.317354 -3.66366e-20)
(0.0263464 0.327418 -3.66898e-20)
(0.0278482 0.336909 0)
(0.0293687 0.345787 -3.65106e-20)
(0.0307569 0.353978 -3.64462e-20)
(0.0318371 0.361399 -1.25595e-19)
(0.0021643 -0.00690089 2.70186e-20)
(0.00486639 -0.0156937 -2.57596e-20)
(0.00627025 -0.0204028 3.0154e-20)
(0.00677465 -0.0219888 -5.39295e-20)
(0.00666157 -0.0211193 -3.92507e-20)
(0.00614386 -0.0182629 3.19357e-20)
(0.00538147 -0.0137718 -6.48597e-20)
(0.00449549 -0.00791673 -3.28545e-20)
(0.00357417 -0.000907873 4.15582e-20)
(0.00268109 0.00708924 -7.56013e-20)
(0.00186082 0.0159425 -5.08587e-20)
(0.00114361 0.0255442 -1.71088e-20)
(0.000548933 0.0358045 -5.16341e-20)
(8.80833e-05 0.0466458 5.19367e-20)
(-0.000233612 0.0579998 -3.48158e-20)
(-0.000415057 0.069804 -3.49848e-20)
(-0.000458179 0.0820002 0)
(-0.000366709 0.0945331 -3.52711e-20)
(-0.000145811 0.107349 -5.31217e-20)
(0.000198208 0.120395 1.77319e-20)
(0.000658387 0.13362 -3.55983e-20)
(0.00122764 0.146971 0)
(0.0018986 0.160396 3.57683e-20)
(0.00266344 0.173846 3.59387e-20)
(0.00351411 0.187267 -3.58729e-20)
(0.0044428 0.200611 0)
(0.00544206 0.213828 0)
(0.0065045 0.22687 0)
(0.00762252 0.239689 9.14632e-24)
(0.00878854 0.252242 0)
(0.00999529 0.264485 -7.26732e-20)
(0.0112362 0.276376 -1.26498e-22)
(0.0125055 0.287874 -7.2865e-20)
(0.0137982 0.298943 7.28389e-20)
(0.0151093 0.309543 -3.63336e-20)
(0.016435 0.319636 3.65225e-20)
(0.0177819 0.329183 0)
(0.0191602 0.338145 7.32676e-20)
(0.0204117 0.346448 -3.64402e-20)
(0.0213532 0.354012 0)
(0.00227159 -0.00684077 3.38322e-21)
(0.0050246 -0.0155778 0)
(0.00632017 -0.0203209 -3.77507e-20)
(0.00662961 -0.0220113 4.62479e-20)
(0.00626089 -0.0213081 2.35838e-20)
(0.00544853 -0.0186694 -3.19771e-20)
(0.00436655 -0.0144378 3.244e-20)
(0.00314543 -0.00887553 -3.28958e-20)
(0.00187984 -0.00218561 0)
(0.000637591 0.00547268 3.36117e-20)
(-0.000533925 0.0139726 -3.39449e-20)
(-0.00160266 0.0232111 -2.5863e-23)
(-0.00254794 0.0331019 0)
(-0.0033576 0.0435709 3.46845e-20)
(-0.00402561 0.0545527 -1.74335e-20)
(-0.00455035 0.0659873 3.50841e-20)
(-0.00493318 0.0778188 1.76307e-20)
(-0.0051773 0.0899941 -3.53436e-20)
(-0.00528748 0.102462 0)
(-0.00526958 0.115171 5.33821e-20)
(-0.00512998 0.128071 1.78776e-20)
(-0.0048751 0.141112 0)
(-0.00451165 0.154244 0)
(-0.00404678 0.167418 0)
(-0.00348777 0.180584 3.59435e-20)
(-0.00284157 0.193692 0)
(-0.00211487 0.206696 -3.61759e-20)
(-0.00131438 0.219548 7.22729e-20)
(-0.000447021 0.232203 -7.22623e-20)
(0.000480217 0.244616 0)
(0.00146068 0.256744 3.62791e-20)
(0.00248832 0.268546 -3.6326e-20)
(0.00355765 0.279982 3.63681e-20)
(0.00466366 0.291015 0)
(0.00580134 0.301605 0)
(0.00696626 0.311714 3.6573e-20)
(0.00816422 0.321306 -3.63501e-20)
(0.00940421 0.330341 7.32113e-20)
(0.0105212 0.338748 -7.2742e-20)
(0.0113235 0.346448 0)
(0.00236642 -0.00675121 2.37275e-20)
(0.00515089 -0.015393 7.37857e-21)
(0.00632405 -0.0201456 3.02028e-20)
(0.00643028 -0.0219252 3.0873e-20)
(0.00580299 -0.0213799 -3.14413e-20)
(0.00469769 -0.0189548 3.19771e-20)
(0.00330182 -0.0149818 3.24821e-20)
(0.00175459 -0.00971351 3.28959e-20)
(0.000156491 -0.00334513 0)
(-0.0014209 0.00397083 3.36586e-20)
(-0.0029278 0.0121133 3.3945e-20)
(-0.00433074 0.0209838 3.42212e-20)
(-0.00560811 0.0305002 0)
(-0.00674711 0.0405916 3.42569e-23)
(-0.00774121 0.0511955 3.48789e-20)
(-0.0085884 0.0622546 -1.74985e-20)
(-0.00928966 0.0737153 -1.75527e-20)
(-0.0098478 0.0855267 5.30496e-20)
(-0.0102673 0.0976391 5.01209e-23)
(-0.0105537 0.110004 -1.77253e-20)
(-0.0107128 0.122571 -3.56748e-20)
(-0.0107505 0.135295 0)
(-0.0106731 0.148125 0)
(-0.0104869 0.161014 0)
(-0.0101987 0.173913 0)
(-0.00981455 0.186776 0)
(-0.00934054 0.199556 0)
(-0.00878279 0.212207 3.62651e-20)
(-0.00814765 0.224684 -3.61143e-20)
(-0.00744154 0.236943 0)
(-0.0066706 0.248943 0)
(-0.00584053 0.260644 3.63263e-20)
(-0.00495666 0.272004 0)
(-0.00402408 0.282987 3.65008e-20)
(-0.00304816 0.293555 -3.62919e-20)
(-0.00203405 0.303669 0)
(-0.000977066 0.313294 7.3103e-20)
(0.00013016 0.322395 -7.26454e-20)
(0.00111678 0.330899 0)
(0.00178148 0.33873 0)
(0.00244688 -0.00663192 -2.71134e-20)
(0.00524128 -0.0151392 -7.38336e-21)
(0.00627714 -0.0198772 7.5603e-21)
(0.00617191 -0.0217316 -3.0873e-20)
(0.00528362 -0.021336 0)
(0.0038879 -0.0191209 0)
(0.00218479 -0.0154057 -2.43585e-20)
(0.000321496 -0.0104327 -8.23175e-21)
(-0.0015963 -0.00438832 -1.66634e-20)
(-0.00349379 0.00258199 -1.68263e-20)
(-0.00531925 0.0103631 -1.69988e-20)
(-0.00703812 0.0188614 1.71257e-20)
(-0.00862819 0.0279987 1.72639e-20)
(-0.0100762 0.0377076 -1.73617e-20)
(-0.0113754 0.0479285 0)
(-0.0125235 0.0586067 0)
(-0.0135212 0.0696911 -3.52486e-20)
(-0.0143711 0.0811326 0)
(-0.0150775 0.0928835 0)
(-0.0156457 0.104897 3.57621e-20)
(-0.016081 0.117125 1.23495e-22)
(-0.016389 0.129523 9.46328e-23)
(-0.0165753 0.142042 -3.59935e-20)
(-0.016646 0.154638 3.59163e-20)
(-0.0166068 0.167262 3.60853e-20)
(-0.0164635 0.179869 -3.61419e-20)
(-0.0162214 0.192414 0)
(-0.0158862 0.204852 3.63064e-20)
(-0.0154638 0.21714 1.96474e-22)
(-0.0149599 0.229235 -3.61893e-20)
(-0.0143804 0.241095 0)
(-0.0137308 0.252681 0)
(-0.0130164 0.263953 3.64824e-20)
(-0.0122425 0.274875 -3.62813e-20)
(-0.0114149 0.285409 -3.65134e-20)
(-0.0105399 0.295517 3.62974e-20)
(-0.0096143 0.305167 0)
(-0.00863248 0.314325 0)
(-0.00777019 0.322921 0)
(-0.00723998 0.33088 -4.16339e-20)
(0.0025111 -0.00648286 3.39639e-20)
(0.00529189 -0.0148168 -1.47836e-20)
(0.00617494 -0.0195168 7.56673e-21)
(0.00585015 -0.0214317 0)
(0.00469908 -0.0211783 3.93782e-20)
(0.00301639 -0.0191698 1.76699e-25)
(0.00101377 -0.0157118 3.25265e-20)
(-0.00115441 -0.0110352 -2.47156e-20)
(-0.00337797 -0.00531726 3.33463e-20)
(-0.00557943 0.00130436 -1.68452e-20)
(-0.00770556 0.00872058 0)
(-0.00972111 0.0168428 1.71576e-20)
(-0.0116035 0.0255969 -5.17975e-20)
(-0.0133394 0.034919 0)
(-0.0149218 0.0447524 5.25073e-20)
(-0.0163484 0.055045 -3.51474e-20)
(-0.0176198 0.0657479 -3.53224e-20)
(-0.0187386 0.0768142 1.77096e-20)
(-0.0197089 0.088198 0)
(-0.0205357 0.0998538 -3.56782e-20)
(-0.0212241 0.111737 -3.58736e-20)
(-0.0217793 0.123802 -3.5313e-23)
(-0.0222065 0.136003 3.60146e-20)
(-0.0225113 0.148297 3.61312e-20)
(-0.0226989 0.160637 -7.21224e-20)
(-0.0227743 0.172979 3.61422e-20)
(-0.0227426 0.18528 0)
(-0.0226089 0.197495 -3.6296e-20)
(-0.0223786 0.209583 3.63322e-20)
(-0.0220571 0.221501 3.63627e-20)
(-0.0216499 0.23321 -3.63875e-20)
(-0.0211624 0.24467 3.6406e-20)
(-0.0206001 0.255843 0)
(-0.0199685 0.266692 3.65146e-20)
(-0.0192745 0.277182 7.31544e-20)
(-0.0185254 0.287275 -7.26046e-20)
(-0.0177198 0.296942 7.30168e-20)
(-0.0168543 0.306151 4.14798e-22)
(-0.0161086 0.314835 -3.61607e-20)
(-0.015708 0.322919 8.33209e-20)
(0.00255723 -0.00630421 -2.03828e-20)
(0.00529897 -0.0144266 -4.4398e-20)
(0.00601328 -0.0190658 3.03007e-20)
(0.00546115 -0.0210278 -2.32049e-20)
(0.00404628 -0.0209092 -7.85844e-21)
(0.00208112 -0.0191042 8.01278e-21)
(-0.000212108 -0.0159028 -1.6256e-20)
(-0.0026728 -0.0115237 -1.64862e-20)
(-0.00518697 -0.00613412 1.66892e-20)
(-0.00767508 0.000136171 -3.3727e-20)
(-0.0100829 0.0071845 -1.38849e-23)
(-0.0123748 0.0149273 1.71571e-20)
(-0.0145282 0.0232947 0)
(-0.0165299 0.0322264 -1.74242e-20)
(-0.0183728 0.0416684 -1.75048e-20)
(-0.0200546 0.0515713 3.5184e-20)
(-0.0215762 0.0618885 0)
(-0.0229403 0.0725751 0)
(-0.0241506 0.0835867 3.57077e-20)
(-0.0252122 0.09488 -3.57124e-20)
(-0.0261299 0.106411 0)
(-0.0269086 0.118137 3.60372e-20)
(-0.0275532 0.130015 -3.58692e-20)
(-0.0280687 0.141999 -7.22467e-20)
(-0.02846 0.154047 -1.6174e-22)
(-0.0287315 0.166116 3.62052e-20)
(-0.0288878 0.178163 -7.2526e-20)
(-0.0289338 0.190146 3.62964e-20)
(-0.0288742 0.202024 -3.63325e-20)
(-0.0287142 0.213755 1.2592e-22)
(-0.0284591 0.225301 7.26624e-23)
(-0.0281144 0.236625 -3.64064e-20)
(-0.0276856 0.247688 -3.6463e-20)
(-0.027179 0.258454 -3.64616e-20)
(-0.0266022 0.26889 2.94643e-23)
(-0.0259642 0.27896 0)
(-0.025266 0.288636 -3.64158e-20)
(-0.0245062 0.297892 7.29553e-20)
(-0.0238675 0.30666 -1.08834e-19)
(-0.0235898 0.314867 4.17291e-22)
(0.00258348 -0.0060964 -6.80584e-21)
(0.00525901 -0.01397 5.92264e-20)
(0.00578835 -0.0185264 -3.02985e-20)
(0.00500156 -0.0205225 2.32016e-20)
(0.0033228 -0.0205319 -6.30692e-20)
(0.00108079 -0.0189271 8.01789e-21)
(-0.00149289 -0.0159816 -3.25689e-20)
(-0.0042324 -0.0119007 0)
(-0.00702079 -0.00684117 0)
(-0.00977703 -0.000924329 -3.37682e-20)
(-0.0124464 0.00575368 1.70468e-20)
(-0.0149933 0.0131145 1.60854e-23)
(-0.0173954 0.0210924 1.73023e-20)
(-0.0196395 0.0296306 0)
(-0.0217192 0.0386783 -5.26532e-20)
(-0.0236323 0.0481883 1.76118e-20)
(-0.0253798 0.0581163 -3.54598e-20)
(-0.0269645 0.0684193 0)
(-0.0283904 0.0790549 0)
(-0.0296622 0.0899811 2.67072e-23)
(-0.0307847 0.101156 -3.58812e-20)
(-0.0317626 0.112538 3.6079e-20)
(-0.0326003 0.124085 -3.61996e-20)
(-0.0333027 0.135754 3.6122e-20)
(-0.0338739 0.147503 4.07735e-23)
(-0.0343182 0.159291 4.48042e-23)
(-0.0346396 0.171076 3.63254e-20)
(-0.0348426 0.182817 -3.64426e-20)
(-0.0349317 0.194475 0)
(-0.0349117 0.20601 -3.65538e-20)
(-0.0347877 0.217384 3.63796e-20)
(-0.0345654 0.22856 0)
(-0.0342506 0.239503 3.64633e-20)
(-0.0338503 0.250178 -3.67025e-20)
(-0.0333733 0.260551 3.62923e-20)
(-0.0328305 0.27059 0)
(-0.0322253 0.280269 1.09463e-19)
(-0.0315589 0.289566 -7.25896e-20)
(-0.0310161 0.298417 0)
(-0.0308531 0.306747 4.17026e-20)
(0.00258812 -0.00586007 5.45348e-20)
(0.0051687 -0.0134487 -2.96258e-20)
(0.00549675 -0.0179011 -7.58124e-21)
(0.00446858 -0.019919 7.74379e-21)
(0.00252686 -0.0200497 3.15449e-20)
(1.49093e-05 -0.0186421 0)
(-0.00282775 -0.0159515 3.25692e-20)
(-0.00583106 -0.0121692 4.95527e-20)
(-0.00887595 -0.00744077 1.67074e-20)
(-0.0118805 -0.00187887 1.68696e-20)
(-0.0147901 0.0044271 1.70468e-20)
(-0.0175695 0.011404 -5.15986e-20)
(-0.0201967 0.0189906 1.73219e-20)
(-0.0226593 0.0271333 6.98641e-20)
(-0.0249512 0.0357844 1.75168e-20)
(-0.0270705 0.0448992 1.76384e-20)
(-0.0290188 0.0544355 3.54601e-20)
(-0.0307989 0.0643522 0)
(-0.0324149 0.0746085 0)
(-0.0338717 0.0851643 7.18463e-20)
(-0.0351738 0.0959791 -1.44164e-19)
(-0.0363257 0.107012 -3.00928e-23)
(-0.0373318 0.118223 0)
(-0.0381964 0.129571 0)
(-0.0389233 0.141015 3.63039e-20)
(-0.0395164 0.152515 0)
(-0.0399794 0.164031 0)
(-0.0403163 0.175523 -3.66146e-20)
(-0.0405313 0.186952 -7.31148e-20)
(-0.040629 0.198281 0)