/*--------------------------------*- C++ -*----------------------------------*\
  =========                 |
  \\      /  F ield         | OpenFOAM: The Open Source CFD Toolbox
   \\    /   O peration     | Website:  https://openfoam.org
    \\  /    A nd           | Version:  7
     \\/     M anipulation  |
\*---------------------------------------------------------------------------*/
FoamFile
{
    version     2.0;
    format      ascii;
    class       surfaceScalarField;
    location    "0.1375";
    object      phi;
}
// * * * * * * * * * * * * * * * * * * * * * * * * * * * * * * * * * * * * * //

dimensions      [0 3 -1 0 0 0 0];

internalField   nonuniform List<scalar> 
760
(
1.42391e-08
-1.42542e-08
-2.23294e-08
3.65684e-08
-1.14102e-07
9.17724e-08
-2.45006e-07
1.30903e-07
-3.953e-07
1.50294e-07
-5.46271e-07
1.50971e-07
-6.81832e-07
1.3556e-07
-7.89097e-07
1.07265e-07
-8.58513e-07
6.94152e-08
-8.83909e-07
2.53963e-08
-8.62646e-07
-2.12633e-08
-7.95863e-07
-6.67825e-08
-6.88783e-07
-1.07079e-07
-5.50948e-07
-1.37835e-07
-3.9622e-07
-1.54727e-07
-2.42333e-07
-1.53887e-07
-1.09628e-07
-1.32704e-07
-1.85785e-08
-9.10493e-08
1.57366e-08
-3.4315e-08
1.57367e-08
-3.42929e-08
2.00388e-08
-1.80102e-07
1.82376e-07
-4.33253e-07
3.44925e-07
-7.62947e-07
4.60597e-07
-1.12984e-06
5.17188e-07
-1.49399e-06
5.15118e-07
-1.81929e-06
4.60865e-07
-2.07588e-06
3.63849e-07
-2.24123e-06
2.34771e-07
-2.30088e-06
8.50442e-08
-2.2489e-06
-7.3241e-08
-2.08848e-06
-2.27207e-07
-1.83235e-06
-3.63213e-07
-1.50295e-06
-4.67235e-07
-1.13189e-06
-5.25785e-07
-7.58208e-07
-5.27569e-07
-4.24805e-07
-4.66107e-07
-1.72502e-07
-3.43352e-07
-3.09649e-08
-1.75852e-07
-1.52281e-08
-9.18917e-08
1.11931e-07
-3.56218e-07
4.46701e-07
-7.62994e-07
7.51701e-07
-1.26586e-06
9.63466e-07
-1.81089e-06
1.06221e-06
-2.34405e-06
1.04829e-06
-2.8164e-06
9.33211e-07
-3.1871e-06
7.3455e-07
-3.42527e-06
4.7294e-07
-3.51103e-06
1.70801e-07
-3.43631e-06
-1.47961e-07
-3.20556e-06
-4.57956e-07
-2.83627e-06
-7.32499e-07
-2.35905e-06
-9.44454e-07
-1.81676e-06
-1.06808e-06
-1.26211e-06
-1.08222e-06
-7.53152e-07
-9.75062e-07
-3.46313e-07
-7.50191e-07
-8.70426e-08
-4.35122e-07
-1.02271e-07
-1.44821e-07
2.56752e-07
-5.24336e-07
8.26215e-07
-1.07943e-06
1.30679e-06
-1.74399e-06
1.62802e-06
-2.44939e-06
1.76761e-06
-3.13006e-06
1.72896e-06
-3.72778e-06
1.53093e-06
-4.19447e-06
1.20124e-06
-4.49392e-06
7.72384e-07
-4.60276e-06
2.79644e-07
-4.51134e-06
-2.39382e-07
-4.22446e-06
-7.44836e-07
-3.76208e-06
-1.19488e-06
-3.15959e-06
-1.54694e-06
-2.46722e-06
-1.76045e-06
-1.74782e-06
-1.80162e-06
-1.07253e-06
-1.65035e-06
-5.14151e-07
-1.30857e-06
-1.3897e-07
-8.10303e-07
-2.41241e-07
-1.93196e-07
4.49949e-07
-6.83676e-07
1.31669e-06
-1.38302e-06
2.00614e-06
-2.20315e-06
2.44815e-06
-3.05981e-06
2.62428e-06
-3.87664e-06
2.54578e-06
-4.58809e-06
2.24237e-06
-5.14119e-06
1.75434e-06
-5.49645e-06
1.12765e-06
-5.62834e-06
4.11537e-07
-5.52582e-06
-3.41901e-07
-5.1931e-06
-1.07755e-06
-4.65064e-06
-1.73734e-06
-3.93603e-06
-2.26155e-06
-3.10428e-06
-2.5922e-06
-2.22663e-06
-2.67927e-06
-1.38724e-06
-2.48975e-06
-6.77305e-07
-2.0185e-06
-1.87394e-07
-1.30021e-06
-4.28635e-07
-2.39504e-07
6.89453e-07
-8.38932e-07
1.91612e-06
-1.68052e-06
2.84773e-06
-2.65273e-06
3.42037e-06
-3.65493e-06
3.62647e-06
-4.60038e-06
3.49123e-06
-5.41769e-06
3.05968e-06
-6.05094e-06
2.38759e-06
-6.45913e-06
1.53583e-06
-6.61563e-06
5.68035e-07
-6.50811e-06
-4.49416e-07
-6.13921e-06
-1.44646e-06
-5.52793e-06
-2.34862e-06
-4.7116e-06
-3.07788e-06
-3.74764e-06
-3.55616e-06
-2.71425e-06
-3.71265e-06
-1.70887e-06
-3.49513e-06
-8.43325e-07
-2.88404e-06
-2.35763e-07
-1.90778e-06
-6.64399e-07
-2.86301e-07
9.75754e-07
-9.95674e-07
2.62549e-06
-1.97935e-06
3.8314e-06
-3.10072e-06
4.54174e-06
-4.24225e-06
4.76799e-06
-5.30774e-06
4.55673e-06
-6.22188e-06
3.97382e-06
-6.92805e-06
3.09377e-06
-7.3858e-06
1.99358e-06
-7.56872e-06
7.50959e-07
-7.46341e-06
-5.54728e-07
-7.06987e-06
-1.84e-06
-6.40348e-06
-3.01501e-06
-5.49832e-06
-3.98304e-06
-4.41117e-06
-4.64331e-06
-3.22501e-06
-4.89881e-06
-2.05014e-06
-4.67e-06
-1.0211e-06
-3.91308e-06
-2.87817e-07
-2.64106e-06
-9.52216e-07
-3.35894e-07
1.31165e-06
-1.15904e-06
3.44864e-06
-2.28549e-06
4.95785e-06
-3.55116e-06
5.80741e-06
-4.82151e-06
6.03834e-06
-5.99281e-06
5.72802e-06
-6.98881e-06
4.96983e-06
-7.75557e-06
3.86052e-06
-8.25604e-06
2.49406e-06
-8.46595e-06
9.60866e-07
-8.37135e-06
-6.49329e-07
-7.96861e-06
-2.24274e-06
-7.26689e-06
-3.71673e-06
-6.29314e-06
-4.95679e-06
-5.09899e-06
-5.83746e-06
-3.76819e-06
-6.22962e-06
-2.422e-06
-6.01619e-06
-1.21922e-06
-5.11586e-06
-3.47185e-07
-3.51309e-06
-1.2994e-06
-3.90531e-07
1.70218e-06
-1.33368e-06
4.39179e-06
-2.60277e-06
6.22693e-06
-4.0027e-06
7.20734e-06
-5.38262e-06
7.41826e-06
-6.63474e-06
6.98014e-06
-7.68675e-06
6.02184e-06
-8.49226e-06
4.66603e-06
-9.02184e-06
3.02364e-06
-9.25612e-06
1.19515e-06
-9.18178e-06
-7.23674e-07
-8.7907e-06
-2.63381e-06
-8.08287e-06
-4.42456e-06
-7.07302e-06
-5.96664e-06
-5.80108e-06
-7.1094e-06
-4.34483e-06
-7.68587e-06
-2.83186e-06
-7.52916e-06
-1.44544e-06
-6.50227e-06
-4.17492e-07
-4.54104e-06
-1.71689e-06
-4.53022e-07
2.1552e-06
-1.5246e-06
5.46337e-06
-2.93303e-06
7.63537e-06
-4.44758e-06
8.72189e-06
-5.90327e-06
8.87395e-06
-7.19437e-06
8.27124e-06
-8.25993e-06
7.08739e-06
-9.0681e-06
5.4742e-06
-9.60269e-06
3.55823e-06
-9.8532e-06
1.44566e-06
-9.80883e-06
-7.6805e-07
-9.4566e-06
-2.98604e-06
-8.78422e-06
-5.09695e-06
-7.78813e-06
-6.96272e-06
-6.4876e-06
-8.40994e-06
-4.94395e-06
-9.22952e-06
-3.28205e-06
-9.19106e-06
-1.70683e-06
-8.07749e-06
-5.02855e-07
-5.74502e-06
-2.21975e-06
-5.27877e-07
2.68308e-06
-1.73863e-06
6.67412e-06
-3.27643e-06
9.17317e-06
-4.86982e-06
1.03153e-05
-6.34519e-06
1.03493e-05
-7.60912e-06
9.53517e-06
-8.6228e-06
8.10108e-06
-9.37823e-06
6.22963e-06
-9.87952e-06
4.05952e-06
-1.01299e-05
1.69604e-06
-1.01238e-05
-7.74121e-07
-9.84392e-06
-3.26594e-06
-9.26303e-06
-5.67783e-06
-8.35287e-06
-7.87289e-06
-7.10089e-06
-9.66191e-06
-5.53692e-06
-1.07935e-05
-3.76748e-06
-1.09605e-05
-2.01003e-06
-9.83494e-06
-6.08795e-07
-7.14625e-06
-2.82854e-06
-6.232e-07
3.30628e-06
-1.98635e-06
8.03728e-06
-3.63059e-06
1.08174e-05
-5.24082e-06
1.19255e-05
-6.64702e-06
1.17555e-05
-7.78461e-06
1.06728e-05
-8.65179e-06
8.96826e-06
-9.27555e-06
6.85339e-06
-9.688e-06
4.47197e-06
-9.9112e-06
1.91924e-06
-9.94822e-06
-7.37105e-07
-9.77887e-06
-3.43529e-06
-9.36023e-06
-6.09647e-06
-8.63389e-06
-8.59922e-06
-7.54367e-06
-1.07521e-05
-6.06821e-06
-1.22689e-05
-4.27091e-06
-1.27578e-05
-2.3612e-06
-1.17447e-05
-7.43765e-07
-8.76369e-06
-3.57231e-06
-7.53808e-07
4.06008e-06
-2.28335e-06
9.56682e-06
-3.98585e-06
1.25199e-05
-5.50864e-06
1.34483e-05
-6.71034e-06
1.29572e-05
-7.58056e-06
1.1543e-05
-8.17319e-06
9.56088e-06
-8.56161e-06
7.24181e-06
-8.81218e-06
4.72254e-06
-8.96954e-06
2.0766e-06
-9.04845e-06
-6.58202e-07
-9.02897e-06
-3.45477e-06
-8.85457e-06
-6.27088e-06
-8.43525e-06
-9.01853e-06
-7.66172e-06
-1.15257e-05
-6.43943e-06
-1.34912e-05
-4.75304e-06
-1.44442e-05
-2.76423e-06
-1.37335e-05
-9.21627e-07
-1.06063e-05
-4.49394e-06
-9.45939e-07
5.00602e-06
-2.64793e-06
1.12688e-05
-4.31011e-06
1.41821e-05
-5.5736e-06
1.47118e-05
-6.37276e-06
1.37564e-05
-6.78713e-06
1.19574e-05
-6.94589e-06
9.71964e-06
-6.97627e-06
7.2722e-06
-6.98002e-06
4.72628e-06
-7.02392e-06
2.12051e-06
-7.13568e-06
-5.46447e-07
-7.29996e-06
-3.29049e-06
-7.45345e-06
-6.11738e-06
-7.4809e-06
-8.99109e-06
-7.2189e-06
-1.17877e-05
-6.48172e-06
-1.42284e-05
-5.13111e-06
-1.57948e-05
-3.21328e-06
-1.56513e-05
-1.16492e-06
-1.26546e-05
-5.65886e-06
-1.24143e-06
6.24745e-06
-3.08452e-06
1.31119e-05
-4.50769e-06
1.56053e-05
-5.23595e-06
1.54401e-05
-5.35889e-06
1.38793e-05
-5.08759e-06
1.16861e-05
-4.63841e-06
9.27046e-06
-4.1881e-06
6.82189e-06
-3.86406e-06
4.40224e-06
-3.74706e-06
2.00351e-06
-3.87496e-06
-4.18539e-07
-4.24174e-06
-2.92372e-06
-4.78992e-06
-5.5692e-06
-5.39717e-06
-8.38383e-06
-5.86253e-06
-1.13223e-05
-5.90841e-06
-1.41825e-05
-5.23307e-06
-1.64701e-05
-3.66778e-06
-1.72166e-05
-1.50505e-06
-1.48174e-05
-7.16391e-06
-1.68721e-06
7.93466e-06
-3.52021e-06
1.49449e-05
-4.31776e-06
1.64028e-05
-4.09245e-06
1.52148e-05
-3.19879e-06
1.29856e-05
-2.00646e-06
1.04937e-05
-8.04559e-07
8.06856e-06
2.08591e-07
5.80874e-06
9.0664e-07
3.70419e-06
1.21359e-06
1.69655e-06
1.09006e-06
-2.95004e-07
5.29518e-07
-2.36318e-06
-4.33578e-07
-4.6061e-06
-1.70197e-06
-7.11544e-06
-3.08037e-06
-9.94392e-06
-4.23731e-06
-1.30256e-05
-4.70159e-06
-1.60059e-05
-3.97749e-06
-1.79407e-05
-1.96123e-06
-1.68336e-05
-9.12514e-06
-2.27152e-06
1.02062e-05
-3.60974e-06
1.62831e-05
-3.08442e-06
1.58775e-05
-1.35046e-06
1.34808e-05
8.88828e-07
1.07464e-05
3.14536e-06
8.2372e-06
5.12727e-06
6.08665e-06
6.67685e-06
4.25916e-06
7.71326e-06
2.66778e-06
8.19356e-06
1.21625e-06
8.09071e-06
-1.9215e-07
7.386e-06
-1.65847e-06
6.0742e-06
-3.2943e-06
4.18704e-06
-5.22827e-06
1.84242e-06
-7.5993e-06
-6.73419e-07
-1.05098e-05
-2.80611e-06
-1.38732e-05
-3.69039e-06
-1.70564e-05
-2.46052e-06
-1.80635e-05
-1.15857e-05
-2.69706e-06
1.29032e-05
-2.20793e-06
1.5794e-05
7.12712e-07
1.29568e-05
4.46174e-06
9.73177e-06
8.1232e-06
7.0849e-06
1.12904e-05
5.07004e-06
1.38172e-05
3.55982e-06
1.56757e-05
2.40065e-06
1.68789e-05
1.46459e-06
1.74418e-05
6.5334e-07
1.7363e-05
-1.13393e-07
1.6617e-05
-9.12434e-07
1.51536e-05
-1.83088e-06
1.291e-05
-2.98465e-06
9.84854e-06
-4.53787e-06
6.04938e-06
-6.7106e-06
1.89869e-06
-9.72248e-06
-1.59607e-06
-1.35616e-05
-2.59428e-06
-1.70653e-05
-1.41799e-05
-5.79031e-07
1.34823e-05
4.12001e-06
1.1095e-05
1.02993e-05
6.77759e-06
1.57871e-05
4.24388e-06
2.01482e-05
2.72382e-06
2.3447e-05
1.77125e-06
2.58496e-05
1.15723e-06
2.75104e-05
7.3981e-07
2.8543e-05
4.32047e-07
2.90151e-05
1.81181e-07
2.89509e-05
-4.92064e-08
2.8327e-05
-2.88524e-07
2.70697e-05
-5.73497e-07
2.50428e-05
-9.5777e-07
2.20408e-05
-1.53585e-06
1.78086e-05
-2.47844e-06
1.21742e-05
-4.08806e-06
5.52114e-06
-6.9086e-06
9.58087e-08
-1.164e-05
-1.40841e-05
1.34823e-05
2.45772e-05
3.13548e-05
3.55987e-05
3.83225e-05
4.00938e-05
4.1251e-05
4.19908e-05
4.24229e-05
4.2604e-05
4.25548e-05
4.22663e-05
4.16928e-05
4.0735e-05
3.91992e-05
3.67208e-05
3.26327e-05
2.57241e-05
1.40841e-05
)
;

boundaryField
{
    movingWall
    {
        type            calculated;
        value           uniform 0;
    }
    fixedWalls
    {
        type            calculated;
        value           uniform 0;
    }
    frontAndBack
    {
        type            empty;
        value           nonuniform 0();
    }
}


// ************************************************************************* //
