/*--------------------------------*- C++ -*----------------------------------*\
  =========                 |
  \\      /  F ield         | OpenFOAM: The Open Source CFD Toolbox
   \\    /   O peration     | Website:  https://openfoam.org
    \\  /    A nd           | Version:  7
     \\/     M anipulation  |
\*---------------------------------------------------------------------------*/
FoamFile
{
    version     2.0;
    format      ascii;
    class       surfaceScalarField;
    location    "0.2";
    object      phi;
}
// * * * * * * * * * * * * * * * * * * * * * * * * * * * * * * * * * * * * * //

dimensions      [0 3 -1 0 0 0 0];

internalField   nonuniform List<scalar> 
63520
(
9.65031e-05
-0.000992691
0.00089619
0.000469836
-0.0191413
0.0187676
0.000954968
-0.0263009
0.025816
0.0014806
-0.0283976
0.0278721
0.00201129
-0.0283849
0.0278539
0.00252497
-0.02744
0.0269265
0.00302222
-0.0261463
0.0256486
0.0034995
-0.0248007
0.0243233
0.0039543
-0.023546
0.0230913
0.00439429
-0.022448
0.0220082
0.00481667
-0.0215203
0.021098
0.00522592
-0.0207531
0.0203441
0.00562422
-0.0201332
0.019735
0.00601266
-0.0196458
0.0192571
0.00639601
-0.0192675
0.0188843
0.00677537
-0.0189844
0.0186047
0.00715408
-0.0187808
0.0184025
0.00752645
-0.018642
0.0182696
0.00789586
-0.0185626
0.0181927
0.00826684
-0.0185349
0.0181638
0.00863906
-0.0185466
0.0181744
0.00900892
-0.0185873
0.0182173
0.00937755
-0.0186557
0.0182869
0.00974612
-0.0187509
0.018382
0.0101162
-0.0188661
0.0184957
0.010488
-0.0189958
0.0186238
0.0108629
-0.0191405
0.0187655
0.0112364
-0.0192949
0.0189214
0.0116076
-0.0194566
0.0190853
0.0119795
-0.0196233
0.0192515
0.0123514
-0.0197927
0.019421
0.0127214
-0.0199618
0.0195921
0.0130885
-0.0201356
0.0197685
0.0134543
-0.0203132
0.0199471
0.0138217
-0.0204852
0.0201179
0.0141803
-0.0206524
0.0202938
0.0145296
-0.0208245
0.0204749
0.0148778
-0.0209891
0.0206409
0.0152714
-0.021216
0.0208227
-0.0229597
0.0157161
0.0225151
9.2183e-05
-0.00108517
0.000465395
-0.0195149
0.000938314
-0.0267744
0.00145093
-0.0289105
0.00196751
-0.0289017
0.00246676
-0.0279398
0.00294505
-0.0266249
0.00340331
-0.0252588
0.0038454
-0.0239881
0.00427031
-0.0228726
0.00467524
-0.0219251
0.00506931
-0.0211472
0.00545315
-0.020517
0.00582676
-0.0200198
0.00619796
-0.0196387
0.00656407
-0.0193503
0.00692279
-0.01914
0.00727835
-0.0189978
0.00763514
-0.0189194
0.00799162
-0.0188915
0.00834612
-0.0189014
0.00870124
-0.0189428
0.00905849
-0.0190132
0.00941506
-0.0191078
0.00977115
-0.0192225
0.010128
-0.0193529
0.0104851
-0.0194978
0.0108415
-0.0196515
0.0111993
-0.0198142
0.0115591
-0.0199828
0.0119179
-0.0201512
0.0122764
-0.0203204
0.0126318
-0.020491
0.0129819
-0.020663
0.0133326
-0.0208358
0.0136809
-0.0210007
0.0140243
-0.0211679
0.0143634
-0.0213281
0.0147397
-0.0215925
-0.0233705
0.0151504
9.33482e-05
-0.00117857
0.000457583
-0.0198792
0.000920791
-0.0272378
0.00142335
-0.0294133
0.00192297
-0.0294016
0.00240654
-0.0284232
0.0028691
-0.0270872
0.00331266
-0.0257024
0.00373731
-0.0244127
0.0041419
-0.0232774
0.00453429
-0.0223172
0.00491318
-0.0215263
0.00528117
-0.0208849
0.00564195
-0.0203806
0.00599515
-0.0199919
0.00634269
-0.019698
0.00668708
-0.0194845
0.00703117
-0.0193421
0.00737355
-0.0192617
0.00771361
-0.0192317
0.00805276
-0.0192408
0.00839314
-0.0192831
0.00873445
-0.0193546
0.00907455
-0.0194482
0.00941473
-0.0195627
0.00975732
-0.0196958
0.010101
-0.0198418
0.0104452
-0.0199957
0.0107898
-0.0201587
0.0111345
-0.0203274
0.011479
-0.0204957
0.011824
-0.0206654
0.0121668
-0.0208339
0.0125083
-0.0210044
0.0128468
-0.0211743
0.0131825
-0.0213366
0.0135128
-0.0214983
0.0138407
-0.021656
0.014206
-0.0219577
-0.023762
0.0145975
9.59354e-05
-0.00127465
0.000451765
-0.0202352
0.000905036
-0.0276912
0.00139389
-0.0299022
0.00187709
-0.0298851
0.00234532
-0.0288915
0.00279367
-0.0275356
0.00321925
-0.0261282
0.00362614
-0.0248196
0.00401546
-0.0236669
0.0043903
-0.0226918
0.00475204
-0.0218881
0.00510583
-0.0212385
0.00545059
-0.0207257
0.00578717
-0.0203283
0.00612032
-0.0200312
0.00645128
-0.0198157
0.00677958
-0.0196705
0.00710529
-0.0195875
0.00742927
-0.0195559
0.00775299
-0.0195644
0.00807737
-0.0196076
0.00840288
-0.0196803
0.00872932
-0.0197748
0.00905684
-0.0198904
0.00938533
-0.0200245
0.00971405
-0.0201705
0.0100448
-0.0203265
0.010376
-0.02049
0.0107053
-0.0206568
0.0110363
-0.0208266
0.0113683
-0.0209974
0.0116992
-0.0211647
0.0120294
-0.0213344
0.0123549
-0.0214999
0.0126787
-0.0216607
0.0129977
-0.0218174
0.0133151
-0.0219732
0.0136695
-0.0223119
-0.0241412
0.0140487
9.59197e-05
-0.00137057
0.000445573
-0.0205849
0.000890496
-0.0281361
0.00136301
-0.0303749
0.00183172
-0.0303538
0.00228411
-0.0293439
0.00271557
-0.0279672
0.00312491
-0.0265378
0.00351369
-0.0252083
0.00388566
-0.0240389
0.00424395
-0.0230499
0.00458968
-0.0222338
0.00492674
-0.0215755
0.00525518
-0.0210544
0.00557778
-0.0206508
0.00589553
-0.020349
0.00620968
-0.02013
0.00652202
-0.0199831
0.00683298
-0.0198985
0.0071411
-0.019864
0.00744836
-0.0198717
0.00775699
-0.0199164
0.00806708
-0.0199905
0.00837855
-0.0200864
0.00869111
-0.0202031
0.00900439
-0.0203379
0.00931877
-0.0204849
0.00963627
-0.0206442
0.00995432
-0.0208081
0.010272
-0.0209745
0.0105916
-0.0211461
0.0109098
-0.0213156
0.0112296
-0.0214842
0.0115469
-0.0216517
0.0118628
-0.0218159
0.0121764
-0.0219746
0.0124873
-0.0221282
0.0127967
-0.0222825
0.013143
-0.0226583
-0.0245079
0.0135097
9.90865e-05
-0.00146963
0.000440055
-0.0209259
0.000874842
-0.0285708
0.00133309
-0.0308334
0.00178568
-0.0308064
0.00222196
-0.0297804
0.00263617
-0.0283814
0.00302766
-0.0269294
0.0033989
-0.0255797
0.00375409
-0.0243937
0.00409474
-0.0233908
0.00442466
-0.0225636
0.00474605
-0.0218968
0.00505825
-0.0213668
0.00536465
-0.0209571
0.00566635
-0.0206508
0.0059648
-0.0204287
0.00626118
-0.0202797
0.00655538
-0.0201928
0.00684678
-0.0201556
0.00713861
-0.0201636
0.00743245
-0.0202103
0.00772678
-0.020285
0.00802274
-0.0203824
0.00832028
-0.0205008
0.0086186
-0.0206364
0.00891932
-0.020786
0.00922247
-0.0209476
0.00952577
-0.0211115
0.00983099
-0.0212798
0.0101381
-0.0214532
0.0104468
-0.0216241
0.0107565
-0.0217938
0.0110629
-0.0219583
0.0113687
-0.0221218
0.0116728
-0.0222786
0.0119756
-0.0224309
0.0122792
-0.0225862
0.0126219
-0.023001
-0.0248667
0.0129808
9.99956e-05
-0.00156977
0.000435635
-0.0212616
0.000859902
-0.0289952
0.00130123
-0.0312747
0.00173878
-0.031244
0.00215994
-0.0302015
0.00255492
-0.0287765
0.00292884
-0.0273034
0.00328295
-0.025934
0.0036199
-0.0247306
0.0039446
-0.0237156
0.00425949
-0.0228781
0.00456243
-0.0222001
0.00485739
-0.0216619
0.00514849
-0.0212482
0.00543439
-0.0209369
0.00571627
-0.0207107
0.00599565
-0.0205591
0.00627273
-0.0204701
0.00654878
-0.0204317
0.00682582
-0.0204407
0.00710352
-0.0204882
0.00738136
-0.0205628
0.00766194
-0.0206629
0.00794431
-0.0207832
0.00822793
-0.0209201
0.00851481
-0.0210729
0.00880253
-0.0212355
0.0090923
-0.0214014
0.00938592
-0.0215735
0.0096789
-0.0217461
0.00997588
-0.021921
0.0102739
-0.0220918
0.0105728
-0.0222574
0.0108707
-0.0224197
0.0111683
-0.0225763
0.0114646
-0.0227272
0.0117626
-0.0228842
0.0121018
-0.0233401
-0.0252218
0.012457
0.000101407
-0.00167121
0.000430357
-0.0215905
0.000841923
-0.029407
0.00127021
-0.031703
0.00169187
-0.0316657
0.00209523
-0.0306048
0.00247385
-0.0291556
0.0028295
-0.0276591
0.0031645
-0.0262693
0.00348551
-0.0250515
0.00379439
-0.0240245
0.00409031
-0.0231739
0.00437501
-0.0224851
0.00465515
-0.021942
0.00493031
-0.0215235
0.00519884
-0.0212054
0.00546407
-0.020976
0.00572706
-0.0208224
0.00598714
-0.0207304
0.00624733
-0.0206919
0.00650822
-0.0207018
0.00676878
-0.0207489
0.00703021
-0.0208242
0.00729457
-0.0209274
0.00756119
-0.0210501
0.00783101
-0.0211899
0.00810417
-0.0213461
0.00837765
-0.021509
0.00865455
-0.0216784
0.00893469
-0.0218537
0.00921715
-0.0220287
0.00950188
-0.0222057
0.00978806
-0.0223778
0.0100766
-0.0225459
0.0103664
-0.0227095
0.0106574
-0.0228673
0.0109492
-0.0230191
0.0112441
-0.0231791
0.0115815
-0.0236775
-0.0255761
0.0119358
0.000100723
-0.00177191
0.000424964
-0.0219148
0.000824126
-0.0298062
0.00123854
-0.0321173
0.00164472
-0.032072
0.00202982
-0.0309899
0.00239134
-0.0295173
0.00272855
-0.0279965
0.00304584
-0.0265868
0.00335012
-0.0253558
0.00364034
-0.0243148
0.00391786
-0.0234514
0.00418742
-0.0227549
0.00445193
-0.0222067
0.00470913
-0.0217808
0.0049609
-0.0214571
0.00520986
-0.0212251
0.00545559
-0.0210683
0.0056984
-0.0209732
0.00594237
-0.0209359
0.00618634
-0.0209459
0.00642981
-0.0209923
0.00667551
-0.02107
0.00692323
-0.0211754
0.00717372
-0.0213006
0.00742874
-0.0214449
0.0076857
-0.0216033
0.0079451
-0.0217685
0.00820982
-0.0219432
0.00847598
-0.02212
0.00874672
-0.0222996
0.0090192
-0.0224782
0.00929676
-0.0226553
0.00957675
-0.0228259
0.00985876
-0.0229916
0.0101426
-0.0231511
0.0104291
-0.0233056
0.0107214
-0.0234715
0.0110575
-0.0240136
-0.0259312
0.0114127
0.000101122
-0.00187299
0.000420017
-0.022234
0.000806702
-0.0301929
0.00120629
-0.0325169
0.00159682
-0.0324624
0.00196376
-0.0313569
0.00230684
-0.0298604
0.00262622
-0.0283161
0.00292651
-0.0268871
0.00321231
-0.0256416
0.00348388
-0.0245864
0.00374513
-0.0237127
0.00399974
-0.0230096
0.00424704
-0.0224541
0.00448609
-0.02202
0.00472124
-0.0216922
0.00495297
-0.0214572
0.00518071
-0.0212962
0.00540663
-0.0211992
0.00563403
-0.0211633
0.00586097
-0.0211728
0.00608752
-0.0212187
0.00631652
-0.021299
0.00654716
-0.021406
0.00678156
-0.0215349
0.00702035
-0.0216838
0.00726075
-0.0218439
0.00750583
-0.0220137
0.00775572
-0.0221932
0.00800989
-0.0223745
0.00826897
-0.0225588
0.00853106
-0.0227403
0.00879726
-0.0229214
0.0090688
-0.0230975
0.00934378
-0.0232667
0.00962174
-0.0234291
0.00990309
-0.023587
0.010193
-0.0237614
0.0105285
-0.024349
-0.0262875
0.010885
0.000102356
-0.00197545
0.000414198
-0.022546
0.000789452
-0.0305682
0.00117464
-0.0329022
0.00154691
-0.0328345
0.00189609
-0.0317063
0.00222185
-0.0301861
0.00252314
-0.0286177
0.00280558
-0.0271695
0.00307317
-0.0259093
0.00332757
-0.0248409
0.00357275
-0.0239579
0.00381065
-0.0232475
0.00403997
-0.0226834
0.00426152
-0.0222415
0.00447944
-0.0219103
0.00469294
-0.0216709
0.00490307
-0.0215066
0.00511282
-0.0214091
0.00532211
-0.0213726
0.00553052
-0.0213812
0.00574025
-0.0214284
0.00595215
-0.021511
0.00616569
-0.0216195
0.00638357
-0.0217528
0.00660517
-0.0219055
0.00683006
-0.0220688
0.00706115
-0.0222448
0.00729617
-0.0224285
0.00753734
-0.0226161
0.00778235
-0.022804
0.00803404
-0.0229919
0.0082902
-0.0231775
0.00855241
-0.0233597
0.00881999
-0.0235343
0.00909229
-0.0237015
0.00936937
-0.0238641
0.00965709
-0.024049
0.00999218
-0.024684
-0.0266449
0.0103498
0.000104603
-0.00208013
0.000408169
-0.0228497
0.000771821
-0.0309318
0.00114203
-0.0332725
0.00149641
-0.0331888
0.00182854
-0.0320387
0.00213579
-0.0304934
0.00241878
-0.0289009
0.00268438
-0.0274349
0.00293413
-0.0261591
0.00317063
-0.0250775
0.00339934
-0.0241867
0.00362021
-0.0234683
0.00383102
-0.0228942
0.00403471
-0.0224452
0.00423549
-0.0221111
0.0044318
-0.0218673
0.00462444
-0.0216993
0.00481666
-0.0216014
0.00500731
-0.0215632
0.00519764
-0.0215714
0.00538969
-0.0216206
0.00558275
-0.0217042
0.00577859
-0.0218154
0.00597914
-0.0219535
0.00618342
-0.0221097
0.0063933
-0.0222786
0.00660856
-0.0224601
0.00682833
-0.0226486
0.007055
-0.022843
0.00728738
-0.0230364
0.00752678
-0.0232313
0.00777345
-0.0234242
0.00802676
-0.023613
0.00828684
-0.0237945
0.00855301
-0.0239677
0.00882574
-0.0241368
0.00911144
-0.0243345
0.009446
-0.0250185
-0.0270031
0.0098043
0.000106532
-0.00218681
0.00040202
-0.0231453
0.000753952
-0.0312838
0.00110822
-0.0336267
0.00144569
-0.0335263
0.00176063
-0.0323537
0.00204883
-0.0307817
0.00231397
-0.0291663
0.00256216
-0.027683
0.00279383
-0.026391
0.00301327
-0.0252971
0.0032252
-0.0243987
0.00342751
-0.0236706
0.00362021
-0.0230869
0.00380776
-0.0226327
0.00399108
-0.0222945
0.00416908
-0.0220455
0.00434396
-0.0218744
0.00451809
-0.0217755
0.00468977
-0.0217348
0.00486134
-0.0217429
0.00503467
-0.0217941
0.00520905
-0.0218788
0.00538707
-0.0219935
0.00556913
-0.0221355
0.00575521
-0.0222957
0.00594822
-0.0224716
0.00614682
-0.022659
0.00635196
-0.022854
0.00656313
-0.0230543
0.00678251
-0.0232559
0.00700964
-0.0234584
0.00724569
-0.0236602
0.00748972
-0.0238571
0.00774174
-0.0240466
0.00800177
-0.0242278
0.00827026
-0.0244051
0.00855399
-0.0246181
0.00888781
-0.0253523
-0.0273622
0.0092469
0.000107683
-0.00229468
0.000396292
-0.0234341
0.000735002
-0.0316225
0.00107303
-0.0339646
0.00139483
-0.0338481
0.00169141
-0.0326503
0.00195998
-0.0310506
0.00220809
-0.0294146
0.00243904
-0.0279139
0.00265272
-0.0266048
0.0028552
-0.0254997
0.00304993
-0.0245936
0.0032339
-0.0238546
0.00340922
-0.0232621
0.00358058
-0.022804
0.00374564
-0.0224598
0.00390473
-0.0222049
0.00406117
-0.022031
0.00421604
-0.0219305
0.00436885
-0.0218876
0.00452188
-0.021896
0.0046761
-0.0219484
0.00483198
-0.0220346
0.00499105
-0.0221526
0.00515314
-0.0222976
0.00532079
-0.0224633
0.00549581
-0.0226466
0.00567693
-0.0228403
0.00586534
-0.0230427
0.00606109
-0.0232502
0.00626637
-0.0234613
0.00648123
-0.0236733
0.00670571
-0.0238847
0.00693988
-0.0240914
0.00718338
-0.0242903
0.00743688
-0.0244813
0.00770103
-0.024669
0.00798263
-0.0248995
0.0083156
-0.0256855
-0.0277228
0.00867621
0.000108148
-0.0024029
0.000390197
-0.0237161
0.000714468
-0.0319468
0.00103734
-0.0342872
0.00134286
-0.0341537
0.00161966
-0.0329272
0.00186981
-0.031301
0.00210152
-0.0296463
0.00231483
-0.0281272
0.00251118
-0.0268013
0.00269738
-0.0256862
0.00287416
-0.0247706
0.00303988
-0.0240204
0.00319845
-0.0234206
0.00335283
-0.0229584
0.003499
-0.0226061
0.0036391
-0.0223451
0.00377708
-0.0221692
0.00391259
-0.0220661
0.00404641
-0.0220215
0.00418009
-0.0220297
0.00431388
-0.0220822
0.00444999
-0.0221707
0.00458937
-0.022292
0.00473181
-0.02244
0.00488017
-0.0226116
0.0050352
-0.0228016
0.00519771
-0.023003
0.00536818
-0.0232134
0.00554797
-0.0234302
0.00573827
-0.0236517
0.00594
-0.0238751
0.00615242
-0.0240973
0.00637588
-0.0243151
0.00661044
-0.024525
0.00685691
-0.0247277
0.00711631
-0.0249283
0.00739551
-0.0251788
0.00772769
-0.0260178
-0.0280858
0.00809072
0.000108728
-0.0025116
0.00038292
-0.0239902
0.000692842
-0.0322568
0.00100151
-0.0345958
0.00128901
-0.0344413
0.00154609
-0.0331842
0.00177965
-0.0315348
0.00199461
-0.0298611
0.00218982
-0.0283224
0.00236961
-0.0269812
0.0025397
-0.0258565
0.00269791
-0.024929
0.00284577
-0.0241683
0.00298793
-0.0235627
0.00312426
-0.0230949
0.00325144
-0.0227334
0.00337291
-0.0224668
0.00349224
-0.0222887
0.00360841
-0.0221824
0.00372254
-0.0221356
0.00383583
-0.0221429
0.00394901
-0.0221954
0.00406442
-0.0222861
0.00418238
-0.02241
0.00430392
-0.0225615
0.00443163
-0.0227392
0.00456631
-0.0229364
0.00470927
-0.0231461
0.0048611
-0.0233654
0.00502363
-0.0235928
0.00519787
-0.023826
0.00538467
-0.024062
0.00558398
-0.0242969
0.00579611
-0.0245274
0.00602137
-0.0247503
0.00626034
-0.0249666
0.00651449
-0.0251823
0.00679104
-0.0254553
0.00712263
-0.0263495
-0.0284518
0.00748878
0.000110061
-0.00262162
0.000374646
-0.0242549
0.00067138
-0.0325535
0.000965222
-0.0348897
0.00123342
-0.0347096
0.00147235
-0.033423
0.00169004
-0.0317525
0.00188716
-0.0300582
0.00206448
-0.0284999
0.00222809
-0.0271449
0.0023813
-0.0260098
0.00252109
-0.0250689
0.00265218
-0.0242994
0.00277798
-0.0236884
0.00289528
-0.0232121
0.00300375
-0.0228419
0.00310734
-0.0225706
0.00320757
-0.0223892
0.00330381
-0.0222787
0.00339753
-0.0222294
0.00348964
-0.0222351
0.00358149
-0.0222873
0.00367482
-0.0223795
0.00377031
-0.0225054
0.00387035
-0.0226614
0.00397632
-0.0228451
0.00408945
-0.0230496
0.00421123
-0.0232681
0.00434314
-0.0234975
0.00448673
-0.0237365
0.00464343
-0.0239828
0.00481403
-0.0242327
0.00499916
-0.0244822
0.00519919
-0.0247276
0.00541454
-0.0249657
0.00564553
-0.0251975
0.00589398
-0.0254307
0.00616771
-0.025729
0.00649901
-0.0266807
-0.0288214
0.0068688
0.000111847
-0.00273346
0.000366192
-0.0245093
0.000650722
-0.032838
0.000927958
-0.035167
0.00117676
-0.0349584
0.00139922
-0.0336455
0.00160043
-0.0319537
0.0017789
-0.0302367
0.001939
-0.0286601
0.00208652
-0.0272925
0.00222232
-0.0261458
0.00234481
-0.0251916
0.00245987
-0.0244145
0.00256886
-0.0237973
0.00266724
-0.0233104
0.00275743
-0.0229321
0.00284303
-0.0226564
0.00292336
-0.0224696
0.00299872
-0.022354
0.00307111
-0.0223018
0.00314143
-0.0223055
0.00321129
-0.0223572
0.00328203
-0.0224502
0.00335479
-0.0225781
0.00343204
-0.0227386
0.00351464
-0.0229278
0.00360407
-0.0231391
0.00370271
-0.0233668
0.0038128
-0.0236077
0.00393605
-0.0238599
0.00407371
-0.0241205
0.00422682
-0.0243858
0.00439647
-0.0246519
0.00458331
-0.0249145
0.00478794
-0.0251704
0.00501048
-0.0254199
0.00525299
-0.0256732
0.00552405
-0.026
0.00585558
-0.0270122
-0.0291956
0.00622994
0.000113239
-0.00284662
0.000358163
-0.0247542
0.000630077
-0.0331099
0.000889173
-0.0354263
0.00111988
-0.0351891
0.00132655
-0.0338522
0.00150998
-0.0321371
0.00167008
-0.0303968
0.00181387
-0.028804
0.00194534
-0.027424
0.0020637
-0.0262645
0.00217018
-0.0252982
0.00226935
-0.0245136
0.00236052
-0.0238882
0.00244029
-0.02339
0.00251251
-0.0230043
0.00257954
-0.0227235
0.00263966
-0.0225297
0.00269397
-0.0224084
0.0027449
-0.0223528
0.00279356
-0.0223542
0.00284075
-0.0224043
0.00288742
-0.0224968
0.00293574
-0.0226264
0.00298805
-0.0227909
0.0030456
-0.0229854
0.00310977
-0.0232034
0.00318374
-0.0234409
0.00327007
-0.0236942
0.00337077
-0.0239606
0.00348732
-0.024237
0.00362116
-0.0245196
0.00377376
-0.0248046
0.00394607
-0.0250869
0.00413904
-0.0253634
0.00435285
-0.0256337
0.00458956
-0.0259098
0.00485867
-0.026269
0.0051917
-0.0273452
-0.0295762
0.00557244
0.000113859
-0.00296037
0.000350445
-0.0249909
0.000608226
-0.0333676
0.000848977
-0.0356671
0.00106332
-0.0354034
0.00125376
-0.0340425
0.00141861
-0.0323018
0.0015616
-0.0305398
0.0016897
-0.0289321
0.0018051
-0.0275396
0.0019065
-0.0263662
0.00199761
-0.0253895
0.00208056
-0.0245966
0.00215311
-0.0239606
0.00221468
-0.0234515
0.0022694
-0.0230591
0.00231781
-0.022772
0.00235813
-0.02257
0.00239173
-0.022442
0.00242073
-0.0223819
0.00244646
-0.0223799
0.00246943
-0.0224272
0.00249086
-0.0225182
0.00251355
-0.0226491
0.00253939
-0.0228167
0.00256989
-0.023016
0.00260707
-0.0232406
0.00265417
-0.023488
0.00271425
-0.0237542
0.00278964
-0.024036
0.00288257
-0.0243299
0.00299493
-0.024632
0.00312844
-0.0249382
0.00328462
-0.0252432
0.00346497
-0.0255437
0.00367
-0.0258386
0.00390142
-0.0261411
0.00416995
-0.0265375
0.00450717
-0.0276824
-0.0299662
0.00489718
0.000114155
-0.0030745
0.000342402
-0.0252192
0.000584788
-0.0336098
0.00080832
-0.0358907
0.00100729
-0.0356023
0.00118041
-0.0342155
0.00132698
-0.0324482
0.00145424
-0.030667
0.00156667
-0.0290445
0.00166591
-0.0276389
0.00175129
-0.0264518
0.00182716
-0.0254654
0.00189344
-0.0246629
0.00194763
-0.0240147
0.00199188
-0.0234956
0.00202945
-0.0230966
0.00205897
-0.0228014
0.00207918
-0.0225902
0.00209177
-0.0224546
0.00209862
-0.0223888
0.0021008
-0.0223821
0.00209865
-0.0224251
0.00209383
-0.0225134
0.00208938
-0.0226446
0.00208714
-0.0228145
0.00208839
-0.0230172
0.00209617
-0.0232483
0.00211373
-0.0235055
0.00214458
-0.023785
0.00219162
-0.024083
0.00225786
-0.0243962
0.00234576
-0.02472
0.00245764
-0.0250502
0.00259589
-0.0253815
0.00276254
-0.0257103
0.00295848
-0.0260344
0.00318527
-0.0263679
0.00345538
-0.0268077
0.00380067
-0.0280277
-0.0303691
0.00420363
0.000114738
-0.00318936
0.000333447
-0.0254379
0.000560358
-0.0338366
0.000768157
-0.0360986
0.000951485
-0.0357856
0.0011064
-0.0343703
0.00123587
-0.0325776
0.00134802
-0.030779
0.00144455
-0.0291409
0.00152776
-0.0277222
0.00159814
-0.0265222
0.00165875
-0.0255261
0.00170824
-0.0247124
0.00174512
-0.0240514
0.00177288
-0.0235233
0.00179313
-0.0231168
0.00180348
-0.0228117
0.0018037
-0.0225904
0.00179556
-0.0224467
0.00178022
-0.0223735
0.00175794
-0.0223597
0.00172966
-0.0223968
0.0016976
-0.0224814
0.00166454
-0.0226115
0.00163214
-0.0227821
0.00160194
-0.022987
0.00157755
-0.0232239
0.00156262
-0.0234905
0.00156086
-0.0237832
0.0015758
-0.024098
0.0016114
-0.0244318
0.00167116
-0.0247799
0.00175838
-0.0251374
0.00187628
-0.0254993
0.00202741
-0.0258613
0.00221344
-0.0262204
0.0024364
-0.0265909
0.002711
-0.0270823
0.00306818
-0.0283848
-0.0307897
0.00348885
0.000115576
-0.00330506
0.000323452
-0.0256457
0.00053573
-0.0340489
0.000728609
-0.0362916
0.000895261
-0.0359522
0.00103204
-0.0345071
0.0011457
-0.0326912
0.00124251
-0.0308756
0.0013233
-0.0292217
0.00139114
-0.0277901
0.00144716
-0.0265783
0.00149257
-0.0255717
0.00152574
-0.0247456
0.00154664
-0.0240722
0.00155867
-0.0235352
0.00156158
-0.0231196
0.00155286
-0.022803
0.00153315
-0.0225708
0.00150403
-0.0224177
0.00146602
-0.0223354
0.00141872
-0.0223124
0.00136392
-0.0223421
0.00130397
-0.0224215
0.0012409
-0.0225485
0.00117592
-0.0227171
0.00111174
-0.0229227
0.00105229
-0.0231643
0.00100142
-0.0234395
0.000962882
-0.0237445
0.000941164
-0.0240763
0.000941494
-0.0244322
0.000968691
-0.0248072
0.0010271
-0.0251958
0.00112084
-0.025593
0.00125354
-0.025994
0.0014283
-0.0263952
0.00164842
-0.026811
0.00193111
-0.0273649
0.00230496
-0.0287585
-0.0312352
0.00275041
0.000116025
-0.00342114
0.000312758
-0.0258424
0.000511238
-0.0342476
0.000689103
-0.0364695
0.000838189
-0.0361013
0.000957874
-0.0346268
0.00105665
-0.0327898
0.00113774
-0.0309566
0.00120362
-0.0292875
0.00125711
-0.0278436
0.00129909
-0.0266204
0.00132957
-0.0256022
0.00134727
-0.0247632
0.00135321
-0.0240779
0.0013496
-0.0235315
0.00133483
-0.0231047
0.00130723
-0.0227753
0.00126805
-0.0225317
0.0012183
-0.0223679
0.00115757
-0.0222746
0.00108537
-0.0222403
0.00100368
-0.0222605
0.00091481
-0.0223327
0.000819932
-0.0224536
0.000720368
-0.0226176
0.000619713
-0.022822
0.00052199
-0.0230664
0.000430953
-0.0233483
0.000350803
-0.0236643
0.00028728
-0.0240128
0.000246807
-0.0243918
0.00023545
-0.0247959
0.000258958
-0.0252193
0.000323113
-0.0256572
0.000433406
-0.0261043
0.000594587
-0.0265564
0.000812795
-0.0270292
0.00110687
-0.0276589
0.00150611
-0.0291577
-0.0317098
0.00198069
0.000115478
-0.00353665
0.000301932
-0.0260289
0.000486758
-0.0344325
0.000649078
-0.0366317
0.000780521
-0.0362327
0.000884564
-0.0347309
0.000968707
-0.0328739
0.00103428
-0.0310221
0.00108636
-0.0293396
0.00112632
-0.0278836
0.00115425
-0.0266485
0.00117005
-0.025618
0.00117311
-0.0247661
0.00116468
-0.0240694
0.00114549
-0.0235121
0.00111353
-0.0230725
0.00106809
-0.0227297
0.00101034
-0.022474
0.000940404
-0.0222979
0.000856754
-0.022191
0.000759669
-0.0221433
0.00065076
-0.0221517
0.000532043
-0.022214
0.000403829
-0.0223255
0.000268007
-0.0224818
0.000128405
-0.0226822
-1.12023e-05
-0.0229266
-0.000147064
-0.0232123
-0.000274179
-0.0235371
-0.000385647
-0.0239014
-0.00047412
-0.0243034
-0.00053204
-0.0247381
-0.000551635
-0.0251997
-0.000524301
-0.0256845
-0.000442049
-0.0261866
-0.000297311
-0.0267012
-8.20087e-05
-0.0272445
0.000226555
-0.0279674
0.000648888
-0.02958
-0.032225
0.00116394
0.00011429
-0.00365096
0.000291384
-0.0262061
0.000462128
-0.0346031
0.000608501
-0.0367778
0.000723071
-0.0363473
0.000812565
-0.0348204
0.000881826
-0.0329431
0.000932661
-0.0310729
0.000971652
-0.0293785
0.000998332
-0.0279103
0.00101236
-0.0266627
0.00101416
-0.0256198
0.00100365
-0.0247555
0.00098173
-0.0240474
0.000947607
-0.0234778
0.000899462
-0.0230242
0.000837219
-0.0226674
0.000761385
-0.022398
0.000671292
-0.0222077
0.000564966
-0.0220847
0.000443396
-0.0220218
0.000307454
-0.0220157
0.000158148
-0.0220648
-4.47044e-06
-0.022163
-0.00017798
-0.0223082
-0.000358922
-0.0225011
-0.000544174
-0.0227413
-0.000729855
-0.0230264
-0.000910086
-0.0233569
-0.00107712
-0.0237344
-0.00122272
-0.0241579
-0.00133737
-0.0246235
-0.0014103
-0.0251268
-0.0014299
-0.0256649
-0.00138525
-0.0262312
-0.00126497
-0.0268215
-0.00105432
-0.0274552
-0.000732214
-0.0282896
-0.000277531
-0.0300348
-0.0328021
0.000299508
0.000113191
-0.00376415
0.000281037
-0.0263739
0.000437416
-0.0347594
0.000567836
-0.0369082
0.000666756
-0.0364463
0.000742076
-0.0348956
0.000796192
-0.0329972
0.000833332
-0.0311099
0.000859441
-0.0294044
0.000872885
-0.0279238
0.00087378
-0.0266637
0.000862648
-0.0256087
0.000839619
-0.0247325
0.000804961
-0.0240126
0.000756743
-0.0234294
0.000693441
-0.0229607
0.000615255
-0.0225891
0.000522056
-0.0223047
0.000412323
-0.0220979
0.000284406
-0.0219568
0.000138884
-0.0218763
-2.38711e-05
-0.021853
-0.000204101
-0.0218846
-0.000401419
-0.0219657
-0.000613639
-0.0220959
-0.000838227
-0.0222763
-0.00107299
-0.0225064
-0.00131374
-0.0227855
-0.00155392
-0.0231167
-0.00178523
-0.0235031
-0.00199847
-0.0239448
-0.00218199
-0.02444
-0.00232198
-0.0249868
-0.0024031
-0.0255837
-0.00240978
-0.0262246
-0.00232429
-0.0269071
-0.00212532
-0.0276542
-0.00178272
-0.0286323
-0.00127019
-0.0305474
-0.0334002
-0.000672227
0.000112359
-0.00387648
0.000270341
-0.0265319
0.00041274
-0.0349017
0.000527523
-0.0370229
0.000611971
-0.0365307
0.000672952
-0.0349566
0.000712145
-0.0330363
0.000736571
-0.0311341
0.000749781
-0.0294176
0.000750243
-0.0279244
0.000739049
-0.0266525
0.000716051
-0.0255857
0.000681281
-0.0246977
0.000634581
-0.0239658
0.00057345
-0.023368
0.000496361
-0.0228835
0.000403298
-0.022496
0.000293705
-0.022195
0.0001652
-0.0219694
1.69639e-05
-0.0218087
-0.000151551
-0.0217078
-0.000340536
-0.0216641
-0.000551166
-0.0216741
-0.000782914
-0.0217339
-0.00103447
-0.0218442
-0.00130489
-0.0220058
-0.00159261
-0.0222185
-0.00189337
-0.0224846
-0.00220046
-0.0228096
-0.00250553
-0.0231981
-0.00279864
-0.0236517
-0.0030663
-0.0241723
-0.00329141
-0.0247617
-0.00345416
-0.0254209
-0.00353253
-0.0261463
-0.00350078
-0.0269389
-0.00332708
-0.0278279
-0.00296965
-0.0289898
-0.00241996
-0.0310971
-0.0340799
-0.00174034
0.000111492
-0.00398795
0.000258896
-0.0266793
0.000388071
-0.0350308
0.000487665
-0.0371226
0.000558387
-0.0366014
0.000604754
-0.0350029
0.000629847
-0.0330614
0.000642279
-0.0311465
0.000642785
-0.0294182
0.000631013
-0.0279127
0.000608771
-0.0266302
0.000574864
-0.0255518
0.000529178
-0.024652
0.000471286
-0.0239077
0.00039848
-0.0232951
0.000308889
-0.0227939
0.000202113
-0.0223891
7.73185e-05
-0.0220701
-6.83262e-05
-0.0218238
-0.000235283
-0.0216418
-0.000425179
-0.0215179
-0.000639322
-0.02145
-0.000879006
-0.0214344
-0.00114427
-0.0214686
-0.00143552
-0.0215529
-0.00175298
-0.0216882
-0.00209596
-0.0218753
-0.00246086
-0.0221196
-0.00284162
-0.0224288
-0.00323061
-0.0228091
-0.0036177
-0.0232647
-0.00398806
-0.023802
-0.0043212
-0.0244285
-0.00459254
-0.0251496
-0.00477212
-0.0259667
-0.00482377
-0.0268872
-0.0047014
-0.0279503
-0.00435113
-0.0293401
-0.00375342
-0.0316948
-0.0348171
-0.00301624
0.000110377
-0.00409833
0.000247006
-0.0268159
0.000363399
-0.0351472
0.000448391
-0.0372076
0.000505648
-0.0366587
0.000537452
-0.0350348
0.000549583
-0.0330736
0.000550422
-0.0311473
0.000538809
-0.0294066
0.000515897
-0.0278897
0.000483342
-0.0265977
0.000439268
-0.0255078
0.000383504
-0.0245962
0.000315327
-0.0238392
0.00023199
-0.0232116
0.000131278
-0.0226931
1.25431e-05
-0.0222703
-0.000125677
-0.0219318
-0.000286129
-0.0216635
-0.000469974
-0.021458
-0.00067957
-0.0213084
-0.000917027
-0.0212126
-0.00118377
-0.0211677
-0.00148095
-0.0211714
-0.00181057
-0.0212232
-0.00217469
-0.021324
-0.00257384
-0.021476
-0.0030059
-0.0216875
-0.00346641
-0.0219683
-0.00394947
-0.0223262
-0.00444583
-0.0227684
-0.00494006
-0.0233079
-0.00540934
-0.0239591
-0.00582468
-0.0247343
-0.00614775
-0.0256435
-0.00632907
-0.0267059
-0.00630458
-0.027975
-0.00599431
-0.0296505
-0.00538657
-0.0323026
-0.035557
-0.00464688
0.000109352
-0.00420768
0.000235466
-0.0269421
0.000338964
-0.0352508
0.000410148
-0.0372789
0.000453931
-0.0367026
0.000471687
-0.0350526
0.00047181
-0.0330737
0.000461058
-0.0311366
0.000438086
-0.0293837
0.000405059
-0.0278567
0.000362607
-0.0265553
0.000309049
-0.0254542
0.000244223
-0.0245312
0.000166965
-0.0237617
7.45134e-05
-0.023119
-3.55416e-05
-0.022583
-0.000164165
-0.0221416
-0.000313832
-0.0217822
-0.000486712
-0.0214906
-0.00068536
-0.0212594
-0.000912006
-0.0210817
-0.00117128
-0.0209535
-0.00146156
-0.0208774
-0.00178647
-0.0208465
-0.00215182
-0.0208577
-0.00256081
-0.0209149
-0.00301531
-0.0210212
-0.00351552
-0.0211871
-0.00405992
-0.0214238
-0.00464573
-0.0217404
-0.00526617
-0.0221481
-0.00590672
-0.0226674
-0.00654452
-0.0233213
-0.00714808
-0.0241308
-0.00767234
-0.0251192
-0.0080558
-0.0263225
-0.00820444
-0.0278266
-0.00802438
-0.0298307
-0.00750476
-0.0328223
-0.0361496
-0.00691219
0.000109332
-0.00431697
0.000224802
-0.0270576
0.000315155
-0.0353412
0.000373411
-0.0373372
0.000403641
-0.0367329
0.00040817
-0.0350572
0.000396776
-0.0330623
0.000374268
-0.0311141
0.000340812
-0.0293504
0.000298702
-0.0278147
0.000247098
-0.0265039
0.000184602
-0.0253917
0.000111644
-0.024458
2.70782e-05
-0.0236769
-7.26817e-05
-0.0230192
-0.000190345
-0.0224652
-0.000326867
-0.022005
-0.000485477
-0.0216236
-0.000668482
-0.0213076
-0.000877165
-0.0210507
-0.00111383
-0.0208452
-0.00138058
-0.0206868
-0.00169317
-0.0205649
-0.00205119
-0.0204886
-0.00245148
-0.0204574
-0.00290199
-0.0204642
-0.00340857
-0.0205144
-0.00397504
-0.0206206
-0.00460436
-0.0207945
-0.00529877
-0.021046
-0.00605504
-0.0213919
-0.00686349
-0.0218591
-0.00770469
-0.0224801
-0.00854691
-0.0232888
-0.00933579
-0.0243302
-0.00999364
-0.0256648
-0.0104511
-0.0273693
-0.0105549
-0.029727
-0.010387
-0.0329904
-0.0361702
-0.0103665
0.00010674
-0.00442368
0.000214879
-0.0271658
0.000292704
-0.035419
0.000338549
-0.0373831
0.00035537
-0.0367498
0.000347527
-0.0350493
0.000324875
-0.0330396
0.000290883
-0.0310803
0.000248425
-0.0293081
0.000198335
-0.0277648
0.000140645
-0.0264462
7.71555e-05
-0.0253281
4.17944e-07
-0.024381
-9.5481e-05
-0.0235809
-0.000207395
-0.0229072
-0.000333466
-0.0223391
-0.000477268
-0.0218612
-0.000643661
-0.0214571
-0.000835225
-0.0211159
-0.0010536
-0.0208323
-0.00130352
-0.0205953
-0.00159104
-0.0203993
-0.00191558
-0.0202404
-0.0022842
-0.02012
-0.00270676
-0.0200347
-0.00319005
-0.0199806
-0.00374094
-0.0199633
-0.00436669