/*--------------------------------*- C++ -*----------------------------------*\
  =========                 |
  \\      /  F ield         | OpenFOAM: The Open Source CFD Toolbox
   \\    /   O peration     | Website:  https://openfoam.org
    \\  /    A nd           | Version:  7
     \\/     M anipulation  |
\*---------------------------------------------------------------------------*/
FoamFile
{
    version     2.0;
    format      ascii;
    class       volVectorField;
    location    "0.2";
    object      U;
}
// * * * * * * * * * * * * * * * * * * * * * * * * * * * * * * * * * * * * * //

dimensions      [0 1 -1 0 0 0 0];

internalField   nonuniform List<vector> 
32000
(
(0.0120509 -0.0376048 -5.46916e-19)
(0.0309714 -0.757207 0)
(0.0791122 -1.04207 -4.62261e-18)
(0.119218 -1.12475 0)
(0.158079 -1.12317 4.64012e-18)
(0.193791 -1.08553 0)
(0.22614 -1.03377 4.62848e-18)
(0.254276 -0.97993 -3.45869e-18)
(0.278286 -0.929992 1.23891e-21)
(0.298835 -0.886211 1.28672e-21)
(0.317179 -0.849416 -1.13643e-18)
(0.333664 -0.818785 4.51329e-18)
(0.348473 -0.794109 0)
(0.362281 -0.77492 -1.11314e-18)
(0.37473 -0.759607 1.10242e-18)
(0.385721 -0.747997 0)
(0.396084 -0.739811 5.41399e-18)
(0.406412 -0.734238 -1.07262e-18)
(0.416291 -0.730822 0)
(0.425084 -0.72964 2.10652e-18)
(0.433031 -0.730303 2.08066e-18)
(0.440565 -0.732033 0)
(0.447854 -0.734672 0)
(0.455116 -0.738369 0)
(0.462289 -0.742741 0)
(0.469031 -0.747567 0)
(0.475277 -0.753181 0)
(0.481377 -0.759492 0)
(0.48748 -0.766082 -3.82345e-18)
(0.493254 -0.772727 0)
(0.498642 -0.779452 3.74152e-18)
(0.503747 -0.786078 0)
(0.508741 -0.79297 0)
(0.51354 -0.800216 0)
(0.517663 -0.807163 -3.58344e-18)
(0.521592 -0.813944 -1.77624e-18)
(0.525253 -0.820835 5.26946e-18)
(0.530897 -0.827238 -1.55764e-21)
(0.525662 -0.835513 3.44131e-18)
(0.539528 -0.904475 -1.53334e-21)
(0.0125698 -0.040935 0)
(0.0454605 -0.772828 9.18286e-18)
(0.0991795 -1.05952 2.31281e-18)
(0.139863 -1.14285 -1.70572e-21)
(0.177674 -1.14149 -2.32335e-18)
(0.211651 -1.10161 0)
(0.24157 -1.04854 4.61016e-18)
(0.267306 -0.993698 -4.59559e-18)
(0.289356 -0.942554 0)
(0.308572 -0.898128 -9.12365e-18)
(0.325433 -0.860107 0)
(0.340455 -0.828791 -1.35218e-17)
(0.354166 -0.803366 0)
(0.366891 -0.783046 0)
(0.378668 -0.76739 4.40646e-18)
(0.389047 -0.75559 -4.36202e-18)
(0.398591 -0.74709 -4.32983e-18)
(0.408173 -0.741065 0)
(0.417407 -0.737599 1.27226e-17)
(0.425684 -0.73639 -4.19783e-18)
(0.433261 -0.736784 -1.5273e-21)
(0.440583 -0.73828 -1.23345e-17)
(0.447701 -0.740761 -8.13625e-18)
(0.454789 -0.744122 -4.03301e-18)
(0.461841 -0.748334 1.19494e-17)
(0.468329 -0.75333 -1.18282e-17)
(0.474126 -0.759058 1.17106e-17)
(0.479839 -0.765135 -1.54272e-17)
(0.485846 -0.771523 -3.80545e-18)
(0.491716 -0.778114 1.50259e-20)
(0.497168 -0.78472 -1.1195e-17)
(0.502245 -0.791338 -7.38785e-18)
(0.507061 -0.798077 1.46249e-17)
(0.511786 -0.804906 -1.44565e-17)
(0.515867 -0.81171 -3.56575e-18)
(0.519677 -0.818265 -1.41604e-17)
(0.523572 -0.824889 3.3365e-21)
(0.52934 -0.831112 3.4675e-18)
(0.524843 -0.84075 -1.37057e-17)
(0.538861 -0.910468 -1.64929e-17)
(0.0137542 -0.0448341 -2.17922e-18)
(0.0606639 -0.785874 -4.59581e-18)
(0.119594 -1.07587 -2.07199e-17)
(0.161194 -1.16041 0)
(0.198215 -1.15808 2.31412e-18)
(0.230162 -1.11769 -2.31088e-18)
(0.257498 -1.06317 -2.76786e-17)
(0.281302 -1.00667 9.2097e-18)
(0.301303 -0.954533 -4.58319e-18)
(0.318479 -0.908788 2.73279e-17)
(0.334011 -0.869859 9.05968e-18)
(0.347825 -0.837856 4.51147e-18)
(0.360394 -0.811605 -1.78463e-17)
(0.372108 -0.790553 0)
(0.382708 -0.774746 0)
(0.392184 -0.763055 8.71709e-18)
(0.401297 -0.753997 1.18545e-20)
(0.410355 -0.747538 -8.54429e-18)
(0.41879 -0.743989 -8.47661e-18)
(0.426509 -0.742663 -1.67471e-17)
(0.43387 -0.742715 2.48815e-17)
(0.441002 -0.743935 1.53172e-20)
(0.447854 -0.746305 3.1294e-21)
(0.454596 -0.749617 8.03544e-18)
(0.461179 -0.753879 -1.59276e-17)
(0.46727 -0.759041 3.14694e-17)
(0.473017 -0.76473 0)
(0.478781 -0.770502 7.71212e-18)
(0.484601 -0.776558 7.62901e-18)
(0.490349 -0.783016 1.50901e-17)
(0.495818 -0.789518 1.48795e-20)
(0.500799 -0.796114 0)
(0.5055 -0.802733 7.29845e-18)
(0.510142 -0.809346 -7.19746e-18)
(0.514434 -0.816108 -7.11319e-18)
(0.518357 -0.822382 2.12122e-17)
(0.52216 -0.828746 -2.09293e-17)
(0.527641 -0.834856 1.38411e-17)
(0.52412 -0.846444 -2.049e-17)
(0.539113 -0.917346 6.57454e-18)
(0.0150262 -0.0482051 1.73763e-17)
(0.0768033 -0.799381 -1.82902e-17)
(0.140834 -1.09167 3.67938e-17)
(0.183236 -1.17652 0)
(0.219111 -1.17386 1.38291e-17)
(0.249134 -1.13243 2.30497e-17)
(0.274396 -1.07618 4.64567e-18)
(0.295503 -1.01882 4.50059e-21)
(0.313397 -0.965795 1.36965e-17)
(0.329155 -0.91863 -4.58862e-18)
(0.342925 -0.878951 2.2579e-17)
(0.355334 -0.846096 -2.69247e-17)
(0.366909 -0.819085 2.67546e-17)
(0.377243 -0.798245 -8.8488e-18)
(0.386686 -0.782237 8.76354e-18)
(0.39578 -0.769556 -1.73648e-17)
(0.404465 -0.759982 -2.58244e-17)
(0.412569 -0.753727 8.52536e-18)
(0.42018 -0.750133 -8.45415e-18)
(0.427519 -0.748391 2.51054e-17)
(0.434602 -0.748158 -1.65774e-17)
(0.441391 -0.749355 -1.63686e-17)
(0.447944 -0.751773 0)
(0.454401 -0.755118 0)
(0.460694 -0.759382 -1.58561e-17)
(0.466591 -0.764376 -1.57239e-17)
(0.472273 -0.769764 -1.55176e-17)
(0.477934 -0.775468 0)
(0.483533 -0.78159 0)
(0.489156 -0.787926 -3.00694e-17)
(0.494569 -0.794293 -2.28521e-20)
(0.499544 -0.800773 1.47333e-17)
(0.50426 -0.8071 -1.45445e-17)
(0.508726 -0.813613 -1.441e-17)
(0.513034 -0.820074 1.427e-17)
(0.517102 -0.826378 0)
(0.520999 -0.832484 1.39601e-17)
(0.526236 -0.838357 -2.75813e-17)
(0.523522 -0.851416 2.73057e-17)
(0.539686 -0.923307 -2.6366e-17)
(0.0162855 -0.0518007 -8.69616e-18)
(0.0931385 -0.811334 1.37232e-17)
(0.162883 -1.10657 -1.83776e-17)
(0.205863 -1.19233 0)
(0.240632 -1.18825 -2.30566e-17)
(0.268826 -1.14522 -1.38347e-17)
(0.29139 -1.08867 1.84014e-17)
(0.310114 -1.03023 0)
(0.326179 -0.97563 -2.73929e-17)
(0.33991 -0.927924 -9.09974e-18)
(0.352129 -0.887408 -9.03534e-18)
(0.363364 -0.853546 1.79501e-17)
(0.373307 -0.826664 -1.77884e-17)
(0.382354 -0.805545 8.81839e-18)
(0.391316 -0.788346 0)
(0.399725 -0.77514 2.60434e-17)
(0.407336 -0.765919 8.61841e-18)
(0.414683 -0.759702 -1.70353e-17)
(0.421891 -0.755652 3.37157e-17)
(0.428802 -0.753586 -3.33795e-17)
(0.435421 -0.753274 3.30089e-17)
(0.441813 -0.754434 1.63687e-17)
(0.448071 -0.756848 0)
(0.454244 -0.760205 1.60196e-17)
(0.460248 -0.764408 3.07901e-20)
(0.46599 -0.769271 0)
(0.471546 -0.774552 1.55177e-17)
(0.476976 -0.780374 -1.5343e-17)
(0.482438 -0.786546 1.51538e-17)
(0.488092 -0.792754 3.00318e-17)
(0.493537 -0.799122 -2.96763e-17)
(0.498606 -0.805479 2.93623e-17)
(0.503213 -0.811701 0)
(0.507626 -0.818085 0)
(0.511955 -0.82421 2.84147e-17)
(0.516086 -0.830286 0)
(0.520274 -0.83614 0)
(0.525415 -0.84188 -2.75003e-17)
(0.523652 -0.856338 2.7205e-17)
(0.540807 -0.928737 1.31948e-17)
(0.0181545 -0.0554055 4.33025e-18)
(0.110446 -0.823154 0)
(0.184978 -1.12083 3.6599e-17)
(0.229258 -1.20673 4.59438e-18)
(0.263161 -1.20158 4.60288e-18)
(0.288587 -1.1579 2.75324e-17)
(0.308734 -1.10028 3.66459e-17)
(0.325335 -1.04046 0)
(0.339059 -0.985153 9.10783e-18)
(0.351047 -0.936464 2.71319e-17)
(0.361785 -0.894922 3.59646e-17)
(0.371198 -0.861069 -8.94552e-18)
(0.379822 -0.833872 -2.65881e-17)
(0.388192 -0.811465 0)
(0.396169 -0.79382 3.48802e-17)
(0.403376 -0.781015 0)
(0.410257 -0.771673 5.14129e-17)
(0.417139 -0.764928 -1.69731e-17)
(0.423768 -0.760683 0)
(0.430095 -0.758549 -1.66623e-17)
(0.43627 -0.758126 -3.11172e-20)
(0.442267 -0.759269 -1.62595e-17)
(0.44821 -0.761711 -1.61283e-17)
(0.454168 -0.765034 1.59808e-17)
(0.459976 -0.769086 -1.57871e-17)
(0.465556 -0.773784 0)
(0.470863 -0.779071 -1.54721e-17)
(0.476062 -0.785 1.52818e-17)
(0.481481 -0.791032 0)
(0.487027 -0.797143 0)
(0.492432 -0.803548 0)
(0.497634 -0.809819 -2.93009e-17)
(0.50234 -0.816232 2.894e-17)
(0.506796 -0.822395 0)
(0.511235 -0.828477 -1.41888e-17)
(0.515396 -0.834237 0)
(0.519706 -0.839908 2.77575e-17)
(0.524851 -0.845597 -1.36816e-17)
(0.524353 -0.861566 -2.71726e-17)
(0.54256 -0.934344 2.6321e-17)
(0.0197608 -0.0586447 3.02086e-17)
(0.127955 -0.834656 -4.08946e-17)
(0.208201 -1.13424 -6.85492e-17)
(0.25309 -1.21969 -3.66211e-17)
(0.285767 -1.21466 -9.17846e-18)
(0.309118 -1.17004 -1.83786e-17)
(0.326594 -1.11067 -8.23591e-17)
(0.340647 -1.05007 -2.73219e-17)
(0.352422 -0.993712 -4.53712e-17)
(0.362566 -0.943936 -4.52237e-17)
(0.371345 -0.902258 -6.28721e-17)
(0.37928 -0.867948 -3.56405e-17)
(0.386937 -0.839597 8.08664e-20)
(0.394126 -0.81681 -3.50955e-17)
(0.400784 -0.799541 -3.48804e-17)
(0.40716 -0.786525 -5.17688e-17)
(0.413489 -0.776629 3.41339e-17)
(0.419656 -0.769725 -1.69334e-17)
(0.425647 -0.765435 0)
(0.431516 -0.763047 3.31817e-17)
(0.437201 -0.762568 0)
(0.442727 -0.76385 6.50849e-17)
(0.448388 -0.766242 0)
(0.454197 -0.769461 -1.59414e-17)
(0.459842 -0.773462 1.5811e-17)
(0.465176 -0.778195 -3.11576e-17)
(0.470168 -0.783665 0)
(0.47526 -0.789599 -3.05311e-17)
(0.480691 -0.795446 3.01548e-17)
(0.486084 -0.801532 0)
(0.491477 -0.807823 0)
(0.496627 -0.814119 0)
(0.501386 -0.820428 -2.8846e-17)
(0.505997 -0.826523 0)
(0.510586 -0.83255 -2.82849e-17)
(0.515023 -0.838287 5.59202e-17)
(0.519462 -0.843785 -5.5322e-17)
(0.52458 -0.849439 2.72875e-17)
(0.52551 -0.866888 5.41541e-17)
(0.544788 -0.939973 -2.63072e-17)
(0.0218012 -0.0624 -3.88405e-17)
(0.145803 -0.844707 7.99748e-20)
(0.231644 -1.1466 3.65188e-17)
(0.277455 -1.23237 7.31608e-17)
(0.308792 -1.22634 -9.15826e-18)
(0.329983 -1.18074 -3.65641e-17)
(0.344862 -1.12035 3.65576e-17)
(0.356416 -1.05847 5.46527e-17)
(0.36604 -1.0011 1.81664e-17)
(0.374119 -0.951021 4.50318e-17)
(0.381181 -0.908875 3.5884e-17)
(0.387807 -0.87363 5.33896e-17)
(0.394105 -0.844844 1.06009e-16)
(0.399916 -0.822248 5.25924e-17)
(0.405568 -0.804801 0)
(0.411215 -0.791223 1.72556e-17)
(0.416768 -0.781127 1.6974e-17)
(0.422209 -0.774145 1.68519e-17)
(0.427705 -0.769569 3.34773e-17)
(0.433027 -0.767081 -1.6641e-17)
(0.43804 -0.76679 0)
(0.443163 -0.768106 -8.09696e-20)
(0.448644 -0.770315 -3.20807e-17)
(0.454241 -0.773489 3.17398e-17)
(0.459624 -0.777541 6.28797e-17)
(0.464659 -0.78242 6.21848e-17)
(0.46946 -0.788058 -1.80168e-20)
(0.474595 -0.793868 3.03898e-17)
(0.480013 -0.79976 3.00582e-17)
(0.485269 -0.805959 -2.97299e-17)
(0.490551 -0.812122 2.94051e-17)
(0.495864 -0.818559 2.90843e-17)
(0.500742 -0.824667 5.76139e-17)
(0.505335 -0.830696 -6.02794e-20)
(0.509976 -0.836572 8.45206e-17)
(0.514628 -0.842312 -1.87573e-20)
(0.519368 -0.847769 -2.75452e-17)
(0.52453 -0.85342 -2.73286e-17)
(0.527073 -0.872344 2.69622e-17)
(0.547442 -0.945716 2.62743e-17)
(0.0239284 -0.0658972 3.43761e-17)
(0.164125 -0.854575 4.53231e-17)
(0.255377 -1.15791 2.72596e-17)
(0.302232 -1.24367 -2.74115e-17)
(0.332262 -1.23684 -4.56252e-17)
(0.351113 -1.19018 3.65564e-17)
(0.363487 -1.12874 0)
(0.372509 -1.06589 3.62846e-17)
(0.379783 -1.00794 0)
(0.385873 -0.957405 -7.19588e-17)
(0.3913 -0.914531 1.78899e-17)
(0.396439 -0.878792 -8.87845e-17)
(0.401279 -0.849916 -3.52954e-17)
(0.405856 -0.827137 1.74135e-17)
(0.410563 -0.809232 2.06838e-20)
(0.415366 -0.795339 -1.71741e-17)
(0.420124 -0.785141 -3.40927e-17)
(0.424919 -0.77794 -6.74522e-17)
(0.429816 -0.773221 0)
(0.434464 -0.770961 -1.88116e-20)
(0.438902 -0.77076 -3.26999e-17)
(0.443732 -0.771816 -3.24224e-17)
(0.448968 -0.773892 3.20812e-17)
(0.454282 -0.77717 -3.18036e-17)
(0.459396 -0.781319 3.13193e-17)
(0.464117 -0.786301 -6.20606e-17)
(0.468784 -0.791948 -1.85605e-20)
(0.473855 -0.797715 -6.07187e-17)
(0.479144 -0.803853 -3.00586e-17)
(0.484473 -0.81019 1.8912e-20)
(0.489674 -0.816486 -6.08998e-20)
(0.494945 -0.822798 -2.90846e-17)
(0.500154 -0.829004 -2.8768e-17)
(0.504902 -0.834995 -7.95991e-20)
(0.5096 -0.840843 -2.81476e-17)
(0.514364 -0.846481 -7.90315e-20)
(0.519419 -0.851891 -2.75073e-17)
(0.524705 -0.8576 8.15588e-17)
(0.528917 -0.877976 -2.69625e-17)
(0.550383 -0.95172 -2.63353e-17)
(0.026222 -0.0692387 -3.43775e-17)
(0.182964 -0.863956 9.03388e-18)
(0.279673 -1.16828 -2.72744e-17)
(0.327267 -1.25363 -9.10103e-18)
(0.356025 -1.24624 3.64946e-17)
(0.372628 -1.19855 -9.11202e-18)
(0.382369 -1.13622 9.08621e-18)
(0.388775 -1.07267 -5.44146e-17)
(0.393721 -1.01406 1.8035e-17)
(0.397844 -0.962945 3.59381e-17)
(0.401583 -0.919521 0)
(0.40516 -0.883416 7.08686e-17)
(0.408558 -0.854308 0)
(0.411961 -0.83126 -6.97785e-17)
(0.415716 -0.81303 -3.45512e-17)
(0.419616 -0.798929 0)
(0.423564 -0.7886 0)
(0.427692 -0.781336 6.72864e-17)
(0.431872 -0.776703 3.33344e-17)
(0.435863 -0.774581 -6.59555e-17)
(0.439917 -0.774225 3.26179e-17)
(0.444461 -0.775122 0)
(0.449283 -0.777354 -3.19804e-17)
(0.454247 -0.780774 6.31529e-17)
(0.459161 -0.785054 -3.12563e-17)
(0.46367 -0.790163 -3.09613e-17)
(0.468182 -0.795731 3.05818e-17)
(0.473079 -0.801604 0)
(0.478195 -0.807919 5.98547e-17)
(0.483449 -0.814241 -2.95887e-17)
(0.488846 -0.820724 -2.93055e-17)
(0.494196 -0.826915 -4.09017e-20)
(0.499462 -0.833187 1.14572e-16)
(0.504415 -0.839299 -8.50085e-17)
(0.509271 -0.845208 0)
(0.514233 -0.850824 -2.77655e-17)
(0.519588 -0.856169 -5.48942e-17)
(0.525044 -0.86204 2.70554e-17)
(0.531013 -0.883874 2.68056e-17)
(0.553546 -0.95807 0)
(0.0285986 -0.0725165 -6.84374e-17)
(0.202092 -0.8727 -9.01326e-18)
(0.304505 -1.17776 7.23804e-17)
(0.352756 -1.26274 -7.25815e-17)
(0.380035 -1.25466 0)
(0.394328 -1.20603 0)
(0.401472 -1.14291 -1.81461e-17)
(0.4053 -1.0786 -1.59379e-20)
(0.407859 -1.01931 1.79931e-17)
(0.409951 -0.967593 0)
(0.412011 -0.923673 0)
(0.41403 -0.887319 -1.77081e-17)
(0.415955 -0.858063 1.9038e-20)
(0.418158 -0.834748 1.74546e-17)
(0.420955 -0.816242 3.45516e-17)
(0.423961 -0.802102 0)
(0.427049 -0.79175 3.3905e-17)
(0.430433 -0.784437 -3.35598e-17)
(0.433916 -0.779811 -6.64579e-17)
(0.437354 -0.777646 6.5788e-17)
(0.440989 -0.777143 4.2596e-20)
(0.445058 -0.778111 -3.21947e-17)
(0.449469 -0.780596 3.18968e-17)
(0.454147 -0.78409 -6.30901e-17)
(0.458818 -0.788507 0)
(0.46321 -0.793761 3.08782e-17)
(0.467589 -0.79937 -6.10413e-17)
(0.472237 -0.80544 3.01659e-17)
(0.477303 -0.811813 -2.98968e-17)
(0.482515 -0.818219 -2.95478e-17)
(0.487876 -0.8247 -2.92638e-17)
(0.493387 -0.831114 1.15532e-16)
(0.49874 -0.837462 -8.57017e-17)
(0.503884 -0.843724 -5.655e-17)
(0.508957 -0.849674 5.58568e-17)
(0.514155 -0.855304 0)
(0.519836 -0.860632 5.47335e-17)
(0.525472 -0.866761 -5.40701e-17)
(0.533278 -0.890093 -2.68059e-17)
(0.556872 -0.964813 0)
(0.031136 -0.0759776 1.45265e-16)
(0.221619 -0.880674 6.28772e-17)
(0.329729 -1.18628 -7.23801e-17)
(0.378546 -1.27106 6.35159e-17)
(0.404305 -1.26206 -9.08184e-18)
(0.41627 -1.21248 1.81246e-17)
(0.420754 -1.1486 0)
(0.421961 -1.08347 -1.80449e-17)
(0.422169 -1.0235 1.79506e-17)
(0.422256 -0.971328 1.7872e-17)
(0.422541 -0.927107 -1.77454e-17)
(0.422915 -0.890639 -1.76417e-17)
(0.423456 -0.86127 1.74913e-17)
(0.424531 -0.837709 0)
(0.426232 -0.819008 0)
(0.428248 -0.804886 -3.41362e-17)
(0.430576 -0.794481 3.37789e-17)
(0.433279 -0.787058 -3.34949e-17)
(0.436015 -0.782374 3.31232e-17)
(0.438864 -0.780116 3.28299e-17)
(0.442077 -0.779651 -6.49424e-17)
(0.445617 -0.780826 6.42631e-17)
(0.449571 -0.783415 4.18973e-20)
(0.45394 -0.786953 -3.14297e-17)
(0.458331 -0.791525 0)
(0.462587 -0.79688 3.07939e-17)
(0.466859 -0.802701 4.10362e-20)
(0.471349 -0.809018 -3.00829e-17)
(0.476269 -0.81548 0)
(0.481495 -0.822131 5.89287e-17)
(0.486841 -0.828672 -5.82012e-17)
(0.492392 -0.835302 0)
(0.497898 -0.84183 5.70083e-17)
(0.503275 -0.848221 -5.63075e-17)
(0.508653 -0.854269 0)
(0.514113 -0.859952 0)
(0.520101 -0.865343 0)
(0.525926 -0.871832 -5.39849e-17)
(0.535637 -0.896667 5.33336e-17)
(0.560303 -0.97195 5.25383e-17)
(0.033854 -0.079508 -6.82799e-17)
(0.241489 -0.88781 -7.18694e-17)
(0.355184 -1.19381 -9.01874e-18)
(0.404576 -1.27812 2.71261e-17)
(0.428756 -1.26814 -3.61996e-17)
(0.438294 -1.21785 3.61781e-17)
(0.440183 -1.15318 -3.61056e-17)
(0.438831 -1.08723 -5.39022e-17)
(0.436596 -1.02683 0)
(0.43459 -0.974408 -1.78287e-17)
(0.43313 -0.929972 1.77025e-17)
(0.431912 -0.893438 0)
(0.43104 -0.863922 3.49331e-17)
(0.43094 -0.840099 -3.46148e-17)
(0.431549 -0.821275 -1.02944e-16)
(0.432592 -0.807155 -3.88386e-20)
(0.434126 -0.796629 6.74257e-17)
(0.436115 -0.789115 -3.33681e-17)
(0.43818 -0.784477 0)
(0.4404 -0.782232 0)
(0.44305 -0.781958 6.46829e-17)
(0.446112 -0.783362 3.20663e-17)
(0.449677 -0.78593 -3.1685e-17)
(0.453668 -0.789527 -3.13858e-17)
(0.457759 -0.794262 6.20519e-17)
(0.461839 -0.799747 -3.06678e-17)
(0.465918 -0.805839 6.07445e-17)
(0.470277 -0.812367 -1.20074e-16)
(0.475113 -0.819043 1.18751e-16)
(0.480321 -0.825883 -1.17441e-16)
(0.485697 -0.832675 1.16146e-16)
(0.491236 -0.839476 -1.14867e-16)
(0.496897 -0.846225 5.6764e-17)
(0.502525 -0.852771 5.62181e-17)
(0.508227 -0.858983 7.56432e-20)
(0.514012 -0.86481 7.52237e-20)
(0.520319 -0.870338 -5.43309e-17)
(0.52636 -0.877273 1.20358e-19)
(0.538034 -0.903589 -5.31714e-17)
(0.563794 -0.979463 0)
(0.0367382 -0.0829573 8.50492e-18)
(0.261656 -0.894158 -8.9542e-18)
(0.380836 -1.20021 2.69868e-17)
(0.430709 -1.28376 -3.60778e-17)
(0.453251 -1.2731 1.80498e-17)
(0.4604 -1.22217 0)
(0.459708 -1.15661 0)
(0.455745 -1.09017 7.18891e-17)
(0.451098 -1.02961 8.92793e-17)
(0.447036 -0.976852 -1.77688e-17)
(0.443741 -0.93218 8.82558e-17)
(0.440909 -0.895635 -1.75371e-17)
(0.438725 -0.865874 0)
(0.437435 -0.841746 0)
(0.436836 -0.822932 6.85882e-17)
(0.436902 -0.808854 0)
(0.437713 -0.798208 3.35167e-17)
(0.438924 -0.790643 -3.3231e-17)
(0.440249 -0.786136 0)
(0.44183 -0.784019 -6.51828e-17)
(0.443892 -0.78387 -3.23659e-17)
(0.446526 -0.785325 -9.57678e-17)
(0.449734 -0.787933 -3.16388e-17)
(0.453298 -0.791759 3.12586e-17)
(0.457038 -0.796692 6.1791e-17)
(0.460901 -0.802368 0)
(0.464821 -0.808722 6.04445e-17)
(0.469033 -0.81545 1.19682e-16)
(0.473759 -0.822439 7.70252e-20)
(0.478914 -0.829503 -5.85115e-17)
(0.484338 -0.836607 -5.79409e-17)
(0.48991 -0.843663 5.7226e-17)
(0.49569 -0.850656 5.66709e-17)
(0.501584 -0.857421 -1.12023e-16)
(0.507611 -0.863834 1.10798e-16)
(0.51376 -0.86987 -5.48807e-17)
(0.520426 -0.875602 5.41652e-17)
(0.526727 -0.883057 1.07235e-16)
(0.540405 -0.910832 5.29597e-17)
(0.567303 -0.987355 5.23483e-17)
(0.0397268 -0.0862038 -6.77967e-17)
(0.282009 -0.8998 6.24215e-17)
(0.406689 -1.20553 -5.37551e-17)
(0.456955 -1.2883 5.38917e-17)
(0.477758 -1.27712 8.99691e-17)
(0.482529 -1.22541 -7.19182e-17)
(0.479259 -1.15909 8.97451e-17)
(0.47266 -1.09239 5.36376e-17)
(0.465626 -1.03158 -1.24787e-16)
(0.459522 -0.978467 3.53755e-17)
(0.454369 -0.933697 1.74365e-17)
(0.44995 -0.897039 3.502e-17)
(0.446465 -0.866941 3.46662e-17)
(0.443922 -0.842741 -6.88254e-17)
(0.442104 -0.824118 6.82339e-17)
(0.441196 -0.809944 1.01491e-16)
(0.441266 -0.799185 -1.00681e-16)
(0.441685 -0.791747 1.32848e-16)
(0.44225 -0.787356 6.56741e-17)
(0.443198 -0.785269 9.77513e-17)
(0.444685 -0.785156 3.21396e-17)
(0.446828 -0.786662 6.38303e-17)
(0.449568 -0.789477 -6.2972e-17)
(0.452691 -0.793583 0)
(0.456127 -0.798698 -1.8515e-16)
(0.459762 -0.804653 1.22058e-16)
(0.463502 -0.81134 -6.03689e-17)
(0.467553 -0.818383 -5.9703e-17)
(0.472162 -0.825653 -5.07882e-20)
(0.477265 -0.832991 0)
(0.482675 -0.840412 0)
(0.488322 -0.847825 5.70046e-17)
(0.494243 -0.855119 -5.64991e-17)
(0.500394 -0.862168 5.58046e-17)
(0.50675 -0.868835 -5.52658e-17)
(0.513291 -0.875128 -5.4662e-17)
(0.520362 -0.881129 0)
(0.526982 -0.889178 -5.34138e-17)
(0.542701 -0.918412 -5.28894e-17)
(0.570805 -0.995682 -1.57282e-16)
(0.0428409 -0.0894035 6.77934e-17)
(0.302562 -0.904832 -6.24508e-17)
(0.432719 -1.20978 7.16966e-17)
(0.483292 -1.29197 -1.25653e-16)
(0.502311 -1.28019 -8.99256e-17)
(0.504659 -1.22747 7.19187e-17)
(0.498745 -1.16058 -1.43367e-16)
(0.489549 -1.09371 -7.15375e-17)
(0.480179 -1.03257 8.90145e-17)
(0.471971 -0.979174 -1.59185e-16)
(0.464953 -0.934415 -1.05577e-16)
(0.459043 -0.897634 -3.48391e-17)
(0.454243 -0.867355 -1.04056e-16)
(0.450338 -0.843277 1.03178e-16)
(0.447369 -0.824808 -6.82353e-17)
(0.445541 -0.810449 -6.76197e-17)
(0.444733 -0.799646 0)
(0.444331 -0.7924 -6.63359e-17)
(0.444214 -0.788052 -9.84872e-17)
(0.444538 -0.785973 3.24393e-17)
(0.445406 -0.785956 -6.43317e-17)
(0.447002 -0.787615 0)
(0.449252 -0.790679 6.29734e-17)
(0.451929 -0.794999 6.22427e-17)
(0.454968 -0.800342 -6.13084e-17)
(0.458291 -0.80668 0)
(0.461866 -0.813716 0)
(0.465832 -0.82109 0)
(0.470324 -0.828631 -1.78263e-19)
(0.47534 -0.836318 0)
(0.480705 -0.84413 -1.1506e-16)
(0.486401 -0.851968 -1.23869e-19)
(0.492477 -0.859648 -1.12526e-16)
(0.498897 -0.867041 1.11338e-16)
(0.505598 -0.874017 -5.50218e-17)
(0.512551 -0.880612 5.45418e-17)
(0.52007 -0.88695 0)
(0.527085 -0.895679 1.06683e-16)
(0.544894 -0.926391 -5.26735e-17)
(0.574292 -1.00453 0)
(0.0461271 -0.0926729 8.44351e-18)
(0.323372 -0.909147 0)
(0.45891 -1.213 -8.92101e-17)
(0.509664 -1.29466 1.07534e-16)
(0.526883 -1.282 5.36894e-17)
(0.526759 -1.22828 -7.15614e-17)
(0.518129 -1.16104 7.1595e-17)
(0.506364 -1.09402 -7.11781e-17)
(0.494724 -1.03259 0)
(0.484401 -0.979111 7.06632e-17)
(0.475501 -0.934432 -7.00424e-17)
(0.468102 -0.897532 1.82409e-19)
(0.462 -0.867269 0)
(0.456739 -0.843367 6.84649e-17)
(0.452645 -0.824879 -3.38733e-17)
(0.449897 -0.810347 6.72921e-17)
(0.44812 -0.799567 3.32828e-17)
(0.446868 -0.792429 -6.5973e-17)
(0.446102 -0.788103 0)
(0.4458 -0.78614 9.70301e-17)
(0.446024 -0.786315 3.1957e-17)
(0.447027 -0.788193 0)
(0.44876 -0.791516 0)
(0.450987 -0.796067 0)
(0.453566 -0.801685 6.14376e-17)
(0.45651 -0.808352 0)
(0.45989 -0.815712 -6.00385e-17)
(0.463773 -0.823434 1.18673e-16)
(0.468172 -0.831369 -1.17408e-16)
(0.473062 -0.839511 0)
(0.478355 -0.847823 5.74685e-17)
(0.484093 -0.856145 -5.66528e-17)
(0.49034 -0.864275 5.62022e-17)
(0.497054 -0.872066 0)
(0.504117 -0.879411 0)
(0.51149 -0.886369 5.43185e-17)
(0.519491 -0.893128 -5.36573e-17)
(0.526997 -0.902631 1.06291e-16)
(0.546974 -0.934848 -1.05008e-16)
(0.577768 -1.01398 0)
(0.0496069 -0.0959644 5.88721e-17)
(0.344402 -0.912517 1.77275e-17)
(0.485193 -1.21519 7.13464e-17)
(0.536056 -1.29619 7.13624e-17)
(0.551441 -1.28239 -7.16083e-17)
(0.548764 -1.22795 7.15623e-17)
(0.537411 -1.16063 7.12335e-17)
(0.523125 -1.0934 7.11791e-17)
(0.509221 -1.0318 0)
(0.496788 -0.978433 7.0299e-17)
(0.486066 -0.933846 7.00438e-17)
(0.47714 -0.896771 6.95567e-17)
(0.469672 -0.866594 0)
(0.463131 -0.842881 -1.84542e-19)
(0.457967 -0.824272 6.78746e-17)
(0.454263 -0.809627 -3.36583e-17)
(0.451476 -0.798949 -3.34339e-17)
(0.44935 -0.791894 9.89335e-17)
(0.447893 -0.787643 3.56153e-20)
(0.446925 -0.785872 -3.24441e-17)
(0.446486 -0.78626 -6.39708e-17)
(0.446872 -0.788347 0)
(0.448058 -0.79186 0)
(0.44981 -0.796619 0)
(0.451919 -0.802578 0)
(0.454425 -0.8096 0)
(0.457552 -0.817335 0)
(0.461298 -0.825465 5.91912e-17)
(0.465578 -0.833898 -5.84614e-17)
(0.470341 -0.842591 0)
(0.475559 -0.851471 0)
(0.48134 -0.86034 5.66542e-17)
(0.487768 -0.868989 0)
(0.494797 -0.87725 5.5353e-17)
(0.502243 -0.88505 -5.46743e-17)
(0.51004 -0.892464 0)
(0.518567 -0.899736 1.07106e-16)
(0.526681 -0.910099 -1.05808e-16)
(0.548944 -0.943839 0)
(0.581245 -1.02409 0)
(0.0532572 -0.0991502 -6.72979e-17)
(0.365551 -0.914913 -1.76907e-17)
(0.511471 -1.21637 1.77658e-17)
(0.562443 -1.29643 -7.13629e-17)
(0.575972 -1.28157 0)
(0.570669 -1.22681 0)
(0.556606 -1.15944 -5.3442e-17)
(0.53984 -1.09195 -1.77197e-17)
(0.52366 -1.03031 -3.53091e-17)
(0.509115 -0.9771 -3.52103e-17)
(0.496638 -0.932525 -3.48994e-17)
(0.486182 -0.895321 3.46258e-17)
(0.477256 -0.86529 3.42673e-17)
(0.469486 -0.841733 -3.4204e-17)
(0.463303 -0.823004 0)
(0.458599 -0.808385 0)
(0.454796 -0.797904 -6.64408e-17)
(0.451795 -0.790928 0)
(0.449593 -0.786735 0)
(0.447913 -0.785091 6.42156e-17)
(0.446799 -0.785621 7.02392e-20)
(0.446573 -0.787878 -5.92003e-20)
(0.447189 -0.791589 -6.23722e-17)
(0.448355 -0.796624 6.16227e-17)
(0.449917 -0.803 6.08868e-17)
(0.451977 -0.810452 -6.02128e-17)
(0.454794 -0.818587 0)
(0.458354 -0.827187 5.90073e-17)
(0.462473 -0.836178 6.9441e-20)
(0.467096 -0.845503 -5.76289e-17)
(0.472237 -0.855026 0)
(0.478056 -0.864523 0)
(0.484669 -0.873779 5.57921e-17)
(0.492025 -0.882612 -5.51061e-17)
(0.49988 -0.890987 -5.4566e-17)
(0.508125 -0.898966 5.38991e-17)
(0.51724 -0.906832 0)
(0.526109 -0.91813 0)
(0.550809 -0.953404 0)
(0.584767 -1.03489 -5.21799e-17)
(0.0570471 -0.102185 8.37242e-17)
(0.386749 -0.916542 -3.52851e-17)
(0.537705 -1.21656 1.77212e-17)
(0.588788 -1.29547 0)
(0.600428 -1.27983 8.8861e-17)
(0.592476 -1.22495 1.24683e-20)
(0.575723 -1.15737 7.08797e-17)
(0.556474 -1.08963 -5.3048e-17)
(0.538009 -1.02806 7.04062e-17)
(0.521383 -0.974982 -3.49981e-17)
(0.507178 -0.930364 0)
(0.495201 -0.893213 3.45632e-17)
(0.484793 -0.863413 -1.02931e-16)
(0.475809 -0.839921 0)
(0.468597 -0.821104 1.01041e-16)
(0.462843 -0.806618 -6.66704e-17)
(0.458044 -0.796324 -6.61619e-17)
(0.454199 -0.789357 3.27395e-17)
(0.451224 -0.785176 0)
(0.448796 -0.783645 -6.42757e-17)
(0.446969 -0.784346 -6.35411e-17)
(0.446065 -0.786808 -1.28381e-19)
(0.446065 -0.790772 6.20547e-17)
(0.446622 -0.796166 6.15057e-17)
(0.44757 -0.802956 -1.21649e-16)
(0.449148 -0.810838 6.02145e-17)
(0.451594 -0.819397 0)
(0.454872 -0.828534 -5.86926e-17)
(0.458772 -0.838173 5.80356e-17)
(0.463228 -0.848211 5.73859e-17)
(0.468292 -0.858459 -5.67437e-17)
(0.474139 -0.868679 5.61098e-17)
(0.480929 -0.878659 0)
(0.488615 -0.888199 5.49939e-17)
(0.496914 -0.897278 1.08716e-16)
(0.505663 -0.905929 -1.07444e-16)
(0.515456 -0.914462 1.06401e-16)
(0.525247 -0.92679 1.32204e-19)
(0.552592 -0.963624 -5.20422e-17)
(0.588434 -1.04647 1.04471e-16)
(0.0609739 -0.105139 -5.02386e-17)
(0.407966 -0.917551 -1.05494e-16)
(0.563888 -1.21571 7.0621e-17)
(0.615043 -1.29338 -5.30968e-17)
(0.624745 -1.2772 -1.79337e-17)
(0.614143 -1.22216 1.77253e-17)
(0.594718 -1.15423 -3.54679e-17)
(0.572977 -1.08638 -3.52555e-17)
(0.552229 -1.02498 3.51231e-17)
(0.53359 -0.972054 -6.98374e-17)
(0.517662 -0.927469 -2.76526e-20)
(0.504163 -0.890558 3.44405e-17)
(0.492323 -0.861004 0)
(0.482147 -0.83747 -3.3924e-17)
(0.473863 -0.818608 -3.37225e-17)
(0.467018 -0.804303 6.6704e-17)
(0.461253 -0.794131 0)
(0.456575 -0.787144 0)
(0.452764 -0.783009 6.46942e-17)
(0.44953 -0.781629 -6.39602e-17)
(0.446991 -0.782525 0)
(0.445395 -0.785174 6.26733e-17)
(0.444692 -0.789383 -6.19903e-17)
(0.444577 -0.795156 -1.22565e-16)
(0.444889 -0.802372 -6.60553e-20)
(0.445917 -0.810672 6.00286e-17)
(0.447904 -0.81973 -1.18397e-16)
(0.450786 -0.829491 5.86944e-17)
(0.454391 -0.839854 -5.80374e-17)
(0.458647 -0.85066 -6.06265e-20)
(0.463614 -0.86172 1.26379e-19)
(0.469466 -0.8728 -5.61115e-17)
(0.476409 -0.88365 -5.53007e-17)
(0.484429 -0.89404 -5.46858e-17)
(0.493219 -0.903948 -1.83013e-19)
(0.50256 -0.913403 0)
(0.513138 -0.922711 -5.28985e-17)
(0.524041 -0.936201 1.04888e-16)
(0.554334 -0.974648 -1.55555e-16)
(0.592342 -1.05897 7.72051e-20)
(0.0650464 -0.108072 -1.6676e-17)
(0.429176 -0.917835 1.40417e-16)
(0.589964 -1.21368 -7.06306e-17)
(0.641122 -1.29019 5.31332e-17)
(0.648865 -1.27357 -1.41592e-16)
(0.635615 -1.21819 1.76793e-17)
(0.61353 -1.14997 -7.04948e-17)
(0.589321 -1.08226 0)
(0.566306 -1.02111 0)
(0.545722 -0.968423 -6.95538e-17)
(0.528084 -0.924007 3.46181e-17)
(0.513056 -0.887396 -9.6404e-20)
(0.499853 -0.857997 3.40819e-17)
(0.488511 -0.834372 0)
(0.479107 -0.815562 -1.00473e-16)
(0.471151 -0.801459 3.31952e-17)
(0.464434 -0.791328 -6.56871e-17)
(0.458911 -0.7843 0)
(0.454228 -0.780238 0)
(0.450151 -0.779014 1.2894e-19)
(0.44687 -0.780086 -6.30954e-17)
(0.444556 -0.782917 6.23511e-17)
(0.443084 -0.787381 -6.1802e-17)
(0.442202 -0.793511 6.10594e-17)
(0.441835 -0.801149 1.29742e-19)
(0.442244 -0.809898 1.28228e-19)
(0.443659 -0.819538 5.91689e-17)
(0.446038 -0.829983 -5.83133e-17)
(0.449262 -0.841108 0)
(0.453249 -0.852759 -5.71383e-17)
(0.458057 -0.864769 5.64327e-17)
(0.463874 -0.876865 0)
(0.470957 -0.888728 5.53024e-17)
(0.479315 -0.900127 -5.45677e-17)
(0.488636 -0.911044 5.38331e-17)
(0.498676 -0.921484 0)
(0.510181 -0.931715 1.58584e-16)
(0.522424 -0.946557 -1.04402e-16)
(0.556053 -0.986708 0)
(0.596497 -1.07259 5.22512e-17)
(0.0692516 -0.110947 1.3289e-16)
(0.450332 -0.917175 -7.01186e-17)
(0.615851 -1.21046 -1.75939e-17)
(0.666943 -1.28589 1.76316e-17)
(0.672747 -1.26881 7.06989e-17)
(0.656869 -1.21304 0)
(0.632138 -1.14478 7.04961e-17)
(0.605499 -1.07741 1.0504e-16)
(0.580248 -1.01654 3.49101e-17)
(0.557748 -0.964152 3.48129e-17)
(0.538426 -0.919979 3.4497e-17)
(0.521867 -0.883588 -1.02906e-16)
(0.507336 -0.854208 3.39872e-17)
(0.494826 -0.830524 1.34682e-16)
(0.484279 -0.811878 3.3505e-17)
(0.475246 -0.797958 3.31002e-17)
(0.46761 -0.787811 6.56891e-17)
(0.461214 -0.78078 0)
(0.455616 -0.776857 0)
(0.450663 -0.775812 1.27346e-16)
(0.446598 -0.777002 -2.51538e-16)
(0.443523 -0.779968 -1.28175e-19)
(0.441233 -0.784666 0)
(0.43952 -0.791148 0)
(0.438384 -0.799201 6.03191e-17)
(0.438076 -0.808445 0)
(0.438803 -0.818704 0)
(0.440572 -0.829872 -5.79253e-17)
(0.4433 -0.841821 -1.14931e-16)
(0.446902 -0.854437 0)
(0.451458 -0.867541 -1.12359e-16)
(0.457197 -0.880794 -2.22451e-16)
(0.464393 -0.893845 1.09981e-16)
(0.473071 -0.906487 -1.0863e-16)
(0.482953 -0.91866 1.07677e-16)
(0.493826 -0.930298 -1.0636e-16)
(0.506439 -0.941662 -1.05072e-16)
(0.520295 -0.958145 0)
(0.557719 -1.00008 0)
(0.600918 -1.08757 0)
(0.0735574 -0.113678 -1.32891e-16)
(0.471383 -0.91551 0)
(0.641504 -1.20617 0)
(0.692493 -1.28056 0)
(0.696378 -1.26294 0)
(0.677898 -1.20687 0)
(0.650551 -1.13883 3.51181e-17)
(0.621513 -1.07184 -1.75111e-16)
(0.594064 -1.01128 -1.04277e-16)
(0.569658 -0.959203 -3.4623e-17)
(0.548682 -0.915269 0)
(0.530625 -0.879003 1.36484e-16)
(0.514786 -0.849602 3.39182e-17)
(0.501086 -0.825984 -3.02591e-16)
(0.489395 -0.807604 0)
(0.479335 -0.793845 -1.31874e-16)
(0.470793 -0.783685 0)
(0.463484 -0.776708 1.29297e-16)
(0.456944 -0.772933 0)
(0.451116 -0.771985 -1.26629e-16)
(0.446222 -0.773172 6.29067e-17)
(0.442316 -0.776224 1.85951e-16)
(0.439134 -0.781169 6.14103e-17)
(0.43652 -0.788022 -6.06724e-17)
(0.434526 -0.79647 0)
(0.43339 -0.806206 1.18507e-16)
(0.433305 -0.817103 1.17172e-16)
(0.434332 -0.829045 2.32095e-16)
(0.436413 -0.841904 2.86879e-16)