/*--------------------------------*- C++ -*----------------------------------*\
  =========                 |
  \\      /  F ield         | OpenFOAM: The Open Source CFD Toolbox
   \\    /   O peration     | Website:  https://openfoam.org
    \\  /    A nd           | Version:  7
     \\/     M anipulation  |
\*---------------------------------------------------------------------------*/
FoamFile
{
    version     2.0;
    format      ascii;
    class       surfaceScalarField;
    location    "2.3";
    object      phi;
}
// * * * * * * * * * * * * * * * * * * * * * * * * * * * * * * * * * * * * * //

dimensions      [0 3 -1 0 0 0 0];

internalField   nonuniform List<scalar> 
63520
(
-1.82252e-05
0.00101131
-0.00099308
-6.14245e-05
0.00258577
-0.00254258
-0.000124035
0.00382604
-0.00376343
-0.000200302
0.00475187
-0.0046756
-0.000284344
0.00540326
-0.00531921
-0.0003703
0.00582459
-0.00573864
-0.000452632
0.00605769
-0.00597536
-0.000526323
0.00613873
-0.00606504
-0.000586988
0.00609799
-0.00603733
-0.00063093
0.00596005
-0.0059161
-0.000655129
0.00574473
-0.00572054
-0.000657227
0.00546832
-0.00546622
-0.000635473
0.00514434
-0.00516609
-0.000588693
0.0047844
-0.00483118
-0.000516231
0.00439872
-0.00447119
-0.000417912
0.0039965
-0.00409482
-0.000294025
0.00358608
-0.00370997
-0.000145264
0.003175
-0.00332376
2.73138e-05
0.00277007
-0.00294265
0.000222317
0.00237735
-0.00257235
0.000438083
0.00200203
-0.00221779
0.000672737
0.00164845
-0.00188311
0.00092423
0.00132014
-0.00157164
0.0011904
0.00101974
-0.00128591
0.00146905
0.000749048
-0.0010277
0.001758
0.000509071
-0.000798018
0.0020551
0.000300109
-0.000597209
0.00235829
0.000121825
-0.000425023
0.00266567
-2.66579e-05
-0.000280718
0.00297546
-0.00014666
-0.000163132
0.00328608
-0.000239853
-7.07659e-05
0.00359611
-0.000308154
-1.87106e-06
0.00390431
-0.000353652
4.5454e-05
0.00420963
-0.000378522
7.31988e-05
0.00451119
-0.000384936
8.33749e-05
0.00480825
-0.000375002
7.79416e-05
0.00510018
-0.000350678
5.87454e-05
0.00538642
-0.000313776
2.75366e-05
0.00566641
-0.000263489
-1.6503e-05
-0.000194339
0.00593935
-7.85987e-05
-1.50247e-05
0.00102633
-5.14566e-05
0.00262221
-0.000104986
0.00387957
-0.000170898
0.00481778
-0.000244002
0.00547636
-0.000318921
0.00589951
-0.000390399
0.00612917
-0.000453592
0.00620192
-0.000504184
0.00614858
-0.000538509
0.00599437
-0.00055357
0.00575979
-0.000547001
0.00546175
-0.000517026
0.00511437
-0.000462436
0.00472981
-0.00038256
0.00431885
-0.000277208
0.00389115
-0.000146642
0.00345551
8.44276e-06
0.00301991
0.000186977
0.00259154
0.00038758
0.00217675
0.000608576
0.00178103
0.000848062
0.00140897
0.00110398
0.00106423
0.00137417
0.000749555
0.00165641
0.000466803
0.00194851
0.000216977
0.0022483
3.13087e-07
0.00255376
-0.000183633
0.00286297
-0.000335867
0.00317418
-0.00045787
0.00348582
-0.000551491
0.0037965
-0.000618837
0.00410504
-0.000662187
0.00441041
-0.000683893
0.00471178
-0.000686311
0.00500848
-0.0006717
0.00529993
-0.00064213
0.00558565
-0.000599497
0.00586517
-0.000543013
-0.000467013
0.00613785
-1.17983e-05
0.00103813
-4.12226e-05
0.00265163
-8.53072e-05
0.00392365
-0.000140347
0.00487282
-0.000201863
0.00553788
-0.000264993
0.00596264
-0.000324779
0.00618895
-0.000376594
0.00625373
-0.000416228
0.00618822
-0.00044007
0.00601821
-0.000445132
0.00576485
-0.000429035
0.00544565
-0.000390007
0.00507534
-0.000326833
0.00466664
-0.000238822
0.00423084
-0.00012578
0.0037781
1.20242e-05
0.00331771
0.000173905
0.00285803
0.000358798
0.00240665
0.000565298
0.00197025
0.000791715
0.00155461
0.00103614
0.00116454
0.0012965
0.000803866
0.00157061
0.000475446
0.00185625
0.000181167
0.00215121
-7.79884e-05
0.00245337
-0.000301843
0.00276067
-0.000490938
0.00307123
-0.000646426
0.00338333
-0.000769967
0.00369543
-0.000863591
0.00400619
-0.000929596
0.00431446
-0.000970454
0.00461927
-0.000988711
0.00491986
-0.000986899
0.00521559
-0.000967429
0.00550597
-0.000932515
0.0057906
-0.000884127
0.00606912
-0.000821526
-0.000738921
0.00634102
-8.56663e-06
0.00104669
-3.08694e-05
0.00267393
-6.52316e-05
0.00395801
-0.000108971
0.00491656
-0.000158335
0.00558724
-0.000208982
0.00601328
-0.00025632
0.00623629
-0.000295931
0.00629334
-0.000323737
0.00621602
-0.000336201
0.00603068
-0.00033038
0.00575903
-0.000303914
0.00541918
-0.000255027
0.00502645
-0.000182501
0.00459411
-8.56542e-05
0.00413399
3.57079e-05
0.00365674
0.000181324
0.00317209
0.000350489
0.00268887
0.000542117
0.00221502
0.000754799
0.00175757
0.000986833
0.00132258
0.00123628
0.000915093
0.00150105
0.000539099
0.00177895
0.000197539
0.00206778
-0.00010766
0.00236532
-0.000375531
0.00266945
-0.000605972
0.00297815
-0.000799637
0.00328956
-0.000957838
0.00360201
-0.00108241
0.00391399
-0.00117557
0.00422422
-0.00123983
0.00453161
-0.00127784
0.00483526
-0.00129236
0.00513444
-0.00128608
0.00542861
-0.00126159
0.00571733
-0.00122124
0.00600029
-0.00116709
0.00627724
-0.00109848
-0.00100951
0.00654783
-5.36638e-06
0.00105206
-2.0471e-05
0.00268904
-4.49259e-05
0.00398247
-7.70199e-05
0.00494865
-0.000113762
0.00562398
-0.000151336
0.00605086
-0.000185528
0.00627048
-0.000212158
0.00631997
-0.000227332
0.0062312
-0.000227603
0.00603095
-0.000210068
0.0057415
-0.000172405
0.00538152
-0.000112863
0.00496691
-3.02352e-05
0.00451149
7.61554e-05
0.0040276
0.000206484
0.00352641
0.000360462
0.00301811
0.000537375
0.00251196
0.000736124
0.00201627
0.000955268
0.00153843
0.00119308
0.00108477
0.00144761
0.000660564
0.00171675
0.000269952
0.00199832
-8.40323e-05
0.0022901
-0.000399438
0.0025899
-0.000675328
0.00289561
-0.000911678
0.00320524
-0.00110927
0.00351699
-0.00126959
0.00382922
-0.00139464
0.00414049
-0.00148685
0.00444959
-0.00154892
0.00475548
-0.00158373
0.00505734
-0.00159422
0.00535451
-0.00158325
0.00564651
-0.00155359
0.00593299
-0.00150772
0.00621372
-0.00144782
0.00648856
-0.00137332
-0.00127827
0.00675732
-2.20839e-06
0.00105427
-1.01043e-05
0.00269693
-2.45507e-05
0.00399691
-4.47806e-05
0.00496888
-6.85218e-05
0.00564772
-9.25088e-05
0.00607484
-0.00011294
0.00629091
-0.000125903
0.00633293
-0.000127685
0.00623298
-0.00011496
0.00601822
-8.49119e-05
0.00571145
-3.52632e-05
0.00533187
3.57125e-05
0.00489593
0.000129184
0.00441801
0.000245794
0.00391099
0.000385697
0.00338651
0.00054858
0.00285523
0.000733698
0.00232684
0.000939918
0.00181005
0.00116577
0.00131257
0.00140951
0.000841033
0.00166917
0.000400909
0.00194263
-3.50731e-06
0.0022277
-0.000369104
0.00252217
-0.000693913
0.00282388
-0.00097704
0.00313076
-0.00121855
0.00344085
-0.00141937
0.00375241
-0.00158115
0.00406386
-0.00170609
0.00437384
-0.00179683
0.00468119
-0.00185627
0.00498497
-0.00188751
0.00528442
-0.00189367
0.00557898
-0.00187781
0.00586823
-0.00184284
0.00615191
-0.0017914
0.00642986
-0.00172577
0.00670207
-0.00164553
-0.0015447
0.0069685
8.77254e-07
0.00105339
1.15411e-07
0.00269769
-4.29859e-06
0.00400133
-1.2509e-05
0.00497709
-2.2969e-05
0.00565818
-3.29623e-05
0.00608484
-3.90988e-05
0.00629705
-3.77672e-05
0.0063316
-2.54721e-05
0.00622068
9.70754e-07
0.00599178
4.42859e-05
0.00566813
0.000106679
0.00526948
0.000189816
0.00481279
0.000294821
0.00431301
0.000422301
0.00378351
0.000572368
0.00323644
0.000744662
0.00268294
0.000938404
0.0021331
0.00115243
0.00159603
0.00138522
0.00107978
0.00163501
0.000591242
0.00189981
0.000136108
0.00217751
-0.0002812
0.0024659
-0.0006575
0.00276281
-0.00099082
0.00306609
-0.00128032
0.0033737
-0.00152616
0.00368378
-0.00172945
0.00399462
-0.00189199
0.00430473
-0.0020162
0.00461283
-0.00210492
0.00491785
-0.00216129
0.00521893
-0.00218859
0.00551539
-0.00219014
0.00580676
-0.00216918
0.0060927
-0.00212878
0.00637303
-0.00207173
0.0066477
-0.00200044
0.00691677
-0.0019146
-0.00180833
0.00718041
3.84313e-06
0.00104955
1.00957e-05
0.00269144
1.56541e-05
0.00399577
1.95081e-05
0.00497323
2.25145e-05
0.00565517
2.68409e-05
0.00608051
3.54351e-05
0.00628845
5.15898e-05
0.00631545
7.85734e-05
0.0061937
0.000119399
0.00595095
0.000176668
0.00561086
0.000252495
0.00519365
0.000348475
0.00471681
0.000465669
0.00419582
0.000604626
0.00364455
0.000765399
0.00307567
0.00094758
0.00250076
0.00115034
0.00193034
0.00137247
0.00137391
0.00161241
0.000839836
0.00186835
0.000335297
0.0021383
-0.000133843
0.00242013
-0.000563031
0.00271167
-0.000949031
0.00301072
-0.00128988
0.00331521
-0.0015848
0.00362315
-0.00183411
0.00393274
-0.00203903
0.00424235
-0.0022016
0.00455058
-0.00232443
0.00485624
-0.00241058
0.00515835
-0.0024634
0.00545615
-0.00248639
0.00574907
-0.00248306
0.0060367
-0.00245681
0.00631881
-0.00241089
0.0065953
-0.00234822
0.00686619
-0.00227133
0.00713168
-0.00218009
-0.00206872
0.00739207
6.66886e-06
0.00104288
1.97425e-05
0.00267837
3.51249e-05
0.00398039
5.09995e-05
0.00495736
6.75549e-05
0.00563862
8.64122e-05
0.00606165
0.000110075
0.00626479
0.000141498
0.00628403
0.000183693
0.0061515
0.00023948
0.00589516
0.000311319
0.00553903
0.000401212
0.00510376
0.000510658
0.00460737
0.000640641
0.00406583
0.000791632
0.00349356
0.000963617
0.00290369
0.00115612
0.00230825
0.00136826
0.0017182
0.00159876
0.00114341
0.00184602
0.000592575
0.00210821
7.31145e-05
0.00238329
-0.000408928
0.00266915
-0.000848891
0.00296362
-0.0012435
0.00326455
-0.00159081
0.0035699
-0.00189015
0.00387776
-0.00214196
0.00418639
-0.00234767
0.00449427
-0.00250948
0.00480009
-0.00263025
0.00510277
-0.00271326
0.00540144
-0.00276207
0.00569543
-0.00278039
0.00598428
-0.0027719
0.00626768
-0.00274021
0.00654548
-0.00268869
0.00681767
-0.00262041
0.00708436
-0.00253802
0.00734583
-0.00244157
-0.00232546
0.00760257
9.33066e-06
0.00103355
2.89701e-05
0.00265873
5.39422e-05
0.00395541
8.16925e-05
0.00492961
0.000111775
0.00560854
0.00014527
0.00602816
0.000184236
0.00622582
0.00023127
0.00623699
0.000289107
0.00609367
0.000360353
0.00582392
0.0004473
0.00545208
0.000551816
0.00499924
0.000675287
0.0044839
0.000818598
0.00392252
0.000982131
0.00333003
0.00116579
0.00272003
0.00136902
0.00210502
0.00159086
0.00149636
0.00182996
0.000904299
0.0020847
0.000337843
0.00235318
-0.000195366
0.00263337
-0.000689118
0.00292313
-0.00113866
0.00322033
-0.00154069
0.00352286
-0.00189334
0.00382872
-0.00219601
0.00413609
-0.00244933
0.00444332
-0.0026549
0.004749
-0.00281516
0.00505192
-0.00293317
0.00535112
-0.00301245
0.00564584
-0.00305679
0.00593554
-0.00307008
0.00621984
-0.00305621
0.00649856
-0.00301892
0.00677162
-0.00296175
0.00703911
-0.0028879
0.00730121
-0.00280013
0.00755831
-0.00269867
-0.00257819
0.00781104
1.18045e-05
0.00102174
3.7699e-05
0.00263283
7.19454e-05
0.00392117
0.000111329
0.00489023
0.000154809
0.00556505
0.000202942
0.00598002
0.000257338
0.00617143
0.000320222
0.00617411
0.000394034
0.00601986
0.000481143
0.00573681
0.000583651
0.00534957
0.00070327
0.00487962
0.000841254
0.00434591
0.000998372
0.0037654
0.0011749
0.0031535
0.00137063
0.0025243
0.00158493
0.00189071
0.00181675
0.00126454
0.00206468
0.000656376
0.00232701
7.55162e-05
0.00260182
-0.000470182
0.00288707
-0.000974364
0.00318061
-0.0014322
0.00348033
-0.00184041
0.00378416
-0.00219717
0.0040902
-0.00250205
0.00439669
-0.00275582
0.0047021
-0.00296031
0.00500512
-0.00311818
0.00530469
-0.00323273
0.00559994
-0.00330771
0.00589027
-0.00334712
0.00617523
-0.00335505
0.00645457
-0.00333555
0.00672821
-0.00329256
0.00699616
-0.00322971
0.0072586
-0.00315034
0.0075158
-0.00305733
0.00776823
-0.0029511
-0.00282662
0.00801666
1.4074e-05
0.00100767
4.58588e-05
0.00260105
8.89872e-05
0.00387804
0.000139669
0.00483954
0.000196316
0.00550841
0.000258977
0.00591736
0.000328819
0.00610159
0.000407686
0.00609524
0.000497705
0.00592984
0.000600985
0.00563353
0.000719418
0.00523114
0.000854539
0.0047445
0.00100745
0.004193
0.00117879
0.00359407
0.00136869
0.0029636
0.00157686
0.00231613
0.00180254
0.00166503
0.00204458
0.0010225
0.00230149
0.000399466
0.00257151
-0.000194502
0.00285268
-0.00075135
0.00314291
-0.0012646
0.00344008
-0.00172938
0.0037421
-0.00214243
0.00404697
-0.00250204
0.00435285
-0.00280792
0.00465809
-0.00306106
0.00496127
-0.0032635
0.00526123
-0.00341814
0.00555701
-0.00352852
0.00584791
-0.00359861
0.00613343
-0.00363264
0.00641327
-0.00363489
0.0066873
-0.00360958
0.00695552
-0.00356078
0.00721806
-0.00349226
0.00747518
-0.00340745
0.00772721
-0.00330936
0.00797472
-0.00319861
-0.00307051
0.0082186
1.61232e-05
0.000991545
5.3389e-05
0.00256378
0.00010494
0.00382649
0.000166499
0.00477798
0.00023598
0.00543893
0.000312955
0.00584039
0.000398152
0.00601639
0.000493028
0.00600036
0.00059938
0.00582348
0.000719042
0.00551387
0.000853672
0.00509651
0.00100461
0.00459356
0.00117279
0.00402482
0.00135868
0.00340818
0.00156229
0.00275998
0.00178319
0.00209523
0.0020205
0.00142772
0.00227296
0.000770034
0.00253899
0.000133435
0.00281677
-0.000472274
0.00310427
-0.00103886
0.00339941
-0.00155973
0.00370005
-0.00203002
0.00400415
-0.00244653
0.00430977
-0.00280766
0.00461517
-0.00311332
0.0049188
-0.0033647
0.00521939
-0.00356409
0.00551589
-0.00371464
0.00580751
-0.00382014
0.00609368
-0.00388478
0.00637405
-0.00391301
0.00664845
-0.00390929
0.00691686
-0.00387799
0.0071794
-0.00382332
0.0074363
-0.00374916
0.00768789
-0.00365903
0.00793457
-0.00355604
0.00817698
-0.00344102
-0.00330967
0.00841614
1.79411e-05
0.000973604
6.02419e-05
0.00252148
0.000119696
0.00376703
0.00019163
0.00470605
0.000273523
0.00535703
0.000364495
0.00574941
0.000464851
0.00591603
0.000575656
0.00588956
0.000698365
0.00570077
0.00083452
0.00537771
0.000985528
0.0049455
0.00115251
0.00442658
0.00133621
0.00384112
0.00153693
0.00320746
0.00175452
0.00254239
0.00198839
0.00186136
0.00223754
0.00117858
0.00250057
0.000507
0.00277582
-0.000141812
0.00306137
-0.000757828
0.00335517
-0.00133266
0.0036551
-0.00185966
0.00395904
-0.00233396
0.00426499
-0.00275247
0.00457108
-0.00311375
0.00487568
-0.00341792
0.00517737
-0.00366639
0.00547501
-0.00386173
0.00576772
-0.00400734
0.00605484
-0.00410726
0.00633596
-0.00416591
0.00661089
-0.00418794
0.00687958
-0.00417798
0.00714215
-0.00414056
0.00739882
-0.00407999
0.00764991
-0.00400025
0.00789583
-0.00390495
0.00813705
-0.00379727
0.00837427
-0.00367823
-0.00354402
0.00860861
1.95205e-05
0.000954083
6.63817e-05
0.00247462
0.000133169
0.00370025
0.00021491
0.00462431
0.000308707
0.00526324
0.000413269
0.00564485
0.000528488
0.00580081
0.00065504
0.00576301
0.000794031
0.00556178
0.000946695
0.00522505
0.00111417
0.00477802
0.00129735
0.0042434
0.00149676
0.00364171
0.00171251
0.00299171
0.00194427
0.00231063
0.0021913
0.00161434
0.00245242
0.000917455
0.00272613
0.000233287
0.00301065
-0.000426326
0.00330397
-0.00105115
0.003604
-0.00163268
0.00390858
-0.00216424
0.00421562
-0.00264101
0.00452317
-0.00306002
0.00482946
-0.00342004
0.00513295
-0.00372141
0.00543238
-0.00396582
0.00572675
-0.0041561
0.00601534
-0.00429593
0.00629767
-0.00438958
0.00657348
-0.00444173
0.00684273
-0.00445719
0.00710552
-0.00444077
0.00736208
-0.00439713
0.00761276
-0.00433067
0.00785796
-0.00424545
0.00809815
-0.00414514
0.00833388
-0.00403299
0.00856588
-0.00391024
-0.00377353
0.0087954
2.08587e-05
0.000933224
7.17856e-05
0.00242369
0.000145299
0.00362673
0.00023622
0.00453339
0.000341344
0.00515811
0.000459004
0.00552719
0.0005887
0.00567112
0.000730725
0.00562098
0.000885829
0.00540668
0.00105493
0.00505595
0.00123888
0.00459407
0.00143832
0.00404396
0.00165354
0.00342649
0.00188445
0.0027608
0.00213053
0.00206455
0.00239083
0.00135403
0.00266403
0.000644254
0.00294848
-5.11597e-05
0.00324226
-0.000720112
0.00354331
-0.00135219
0.00384944
-0.00193881
0.0041585
-0.0024733
0.00446842
-0.00295093
0.00477732
-0.00336891
0.00508351
-0.00372623
0.00538559
-0.00402349
0.00568245
-0.00426268
0.00597326
-0.00444691
0.00625745
-0.00458013
0.00653474
-0.00466687
0.00680503
-0.00471202
0.00706842
-0.00472058
0.00732518
-0.00469752
0.00757565
-0.0046476
0.00782028
-0.0045753
0.00805957
-0.00448474
0.00829405
-0.00437961
0.00852432
-0.00426327
0.00875118
-0.0041371
-0.00399828
0.00897592
2.19567e-05
0.000911268
7.64441e-05
0.00236921
0.000156048
0.00354713
0.000255482
0.00443395
0.000371297
0.0050423
0.000501495
0.00539699
0.000645203
0.00552741
0.000802342
0.00546384
0.000973305
0.00523572
0.00115868
0.00487057
0.00135903
0.00439372
0.00157472
0.00382827
0.0018058
0.00319541
0.00205193
0.00251467
0.00231239
0.00180409
0.00258604
0.00108039
0.00287136
0.000358934
0.00316654
-0.000346342
0.00346955
-0.00102312
0.0037782
-0.00166085
0.00409028
-0.00225089
0.00440362
-0.00278663
0.00471617
-0.00326349
0.00502613
-0.00367887
0.00533192
-0.00403203
0.00563229
-0.00432387
0.00592629
-0.00455668
0.00621325
-0.00473388
0.00649281
-0.00485969
0.00676485
-0.00493891
0.00702946
-0.00497662
0.00728689
-0.00497801
0.00753754
-0.00494817
0.00778189
-0.00489196
0.0080205
-0.0048139
0.00825392
-0.00471816
0.00848278
-0.00460847
0.00870771
-0.0044882
0.00892955
-0.00435893
-0.00421838
0.00914965
2.28196e-05
0.000888448
8.03615e-05
0.00231166
0.00016541
0.00346208
0.00027266
0.0043267
0.000398489
0.00491647
0.000540606
0.00525488
0.000697797
0.00537022
0.00086962
0.00529202
0.00105611
0.00504922
0.00125753
0.00466915
0.00147414
0.00417712
0.001706
0.00359641
0.0019529
0.00294851
0.00221427
0.0022533
0.00248912
0.00152923
0.00277611
0.000793398
0.00307353
6.15196e-05
0.00337938
-0.000652198
0.0036915
-0.00133524
0.00400761
-0.00197696
0.00432543
-0.00256871
0.00464279
-0.00310399
0.00495768
-0.00357839
0.00526839
-0.00398958
0.00557348
-0.00433711
0.00587183
-0.00462222
0.00616267
-0.00484753
0.00644555
-0.00501675
0.00672027
-0.00513441
0.00698689
-0.00520554
0.0072457
-0.00523543
0.00749711
-0.00522942
0.00774165
-0.00519271
0.00797992
-0.00513023
0.00821258
-0.00504656
0.00844027
-0.00494586
0.00866366
-0.00483186
0.00888343
-0.00470798
0.00910044
-0.00457594
-0.00443403
0.00931609
2.34561e-05
0.000864992
8.35556e-05
0.00225156
0.000173401
0.00337223
0.000287761
0.00421234
0.000422898
0.00478133
0.000576278
0.0051015
0.000746372
0.00520012
0.000932393
0.005106
0.00113403
0.00484759
0.0013512
0.00445198
0.00158385
0.00394447
0.00183174
0.00334852
0.00209438
0.00268587
0.00237091
0.00197677
0.00266011
0.00124003
0.00296039
0.000493125
0.00326981
-0.000247903
0.00358621
-0.000968602
0.00390727
-0.0016563
0.00423061
-0.0023003
0.0045539
-0.002892
0.00487497
-0.00342506
0.00519188
-0.0038953
0.00550301
-0.0043007
0.00580705
-0.00464115
0.00610307
-0.00491824
0.00639049
-0.00513495
0.00666904
-0.0052953
0.00693874
-0.0054041
0.00719984
-0.00546663
0.00745278
-0.00548838
0.00769816
-0.0054748
0.00793663
-0.00543119
0.00816893
-0.00536253
0.00839578
-0.00527341
0.00861792
-0.00516799
0.00883606
-0.00505
0.00905091
-0.00492283
0.00926335
-0.00478838
-0.0046455
0.00947482
2.38783e-05
0.000841114
8.60569e-05
0.00218939
0.000180067
0.00327822
0.000300834
0.00409157
0.000444566
0.0046376
0.000608531
0.00493753
0.000790916
0.00501774
0.000990606
0.00490631
0.00120695
0.00463124
0.00143954
0.00421939
0.00168797
0.00369604
0.0019517
0.00308478
0.00222992
0.00240765
0.0025215
0.00168519
0.00282494
0.0009366
0.00313836
0.000179697
0.00345963
-0.000569174
0.00378638
-0.00129535
0.00411613
-0.00198605
0.0044464
-0.00263056
0.00477483
-0.00322043
0.00509925
-0.00374948
0.0054178
-0.00421385
0.00572896
-0.00461187
0.00603161
-0.0049438
0.00632499
-0.00521163
0.00660872
-0.00541867
0.00688273
-0.00556931
0.00714726
-0.00566863
0.00740274
-0.00572212
0.00764981
-0.00573544
0.0078892
-0.00571419
0.00812172
-0.0056637
0.00834819
-0.005589
0.00856944
-0.00549466
0.00878626
-0.00538482
0.00899941
-0.00526315
0.00920964
-0.00513306
0.00941783
-0.00499656
-0.0048531
0.00962542
2.41017e-05
0.000817012
8.79087e-05
0.00212558
0.000185479
0.00318065
0.000311971
0.00396508
0.000463592
0.00448598
0.000637461
0.00476366
0.00083151
0.00482369
0.00104432
0.0046935
0.00127491
0.00440065
0.00152253
0.00397178
0.00178644
0.00343213
0.00206577
0.00280546
0.00235938
0.00211403
0.00266583
0.00137874
0.00298331
0.000619119
0.00330969
-0.000146683
0.00364258
-0.000902056
0.00397939
-0.00163216
0.00431749
-0.00232416
0.00465432
-0.00296739
0.00498747
-0.00355358
0.00531481
-0.00407682
0.00563457
-0.00453361
0.00594537
-0.00492267
0.00624625
-0.00524468
0.00653667
-0.00550204
0.00681644
-0.00569844
0.00708572
-0.0058386
0.00734495
-0.00592786
0.00759478
-0.00597195
0.007836
-0.00597666
0.0080695
-0.00594769
0.00829621
-0.00589041
0.00851706
-0.00580985
0.00873295
-0.00571056
0.00894474
-0.00559661
0.00915323
-0.00547163
0.00935917
-0.005339
0.00956344
-0.00520084
-0.00505718
0.00976752
2.4145e-05
0.000792867
8.91662e-05
0.00206056
0.000189733
0.00308009
0.000321303
0.00383351
0.000480136
0.00432714
0.000663241
0.00458056
0.000868334
0.00461859
0.00109371
0.00446812
0.00133807
0.00415629
0.00160032
0.00370953
0.00187937
0.00315308
0.00217401
0.00251082
0.00248277
0.00180527
0.00280385
0.00105766
0.00313513
0.000287838
0.00347418
-0.000485735
0.00381835
-0.00124622
0.00416485
-0.00197866
0.00451089
-0.00267019
0.00485381
-0.00331031
0.00519119
-0.00389096
0.00552097
-0.0044066
0.00584145
-0.0048541
0.00615144
-0.00523265
0.00645016
-0.0055434
0.00673727
-0.00578915
0.00701283
-0.005974
0.00727721
-0.00610298
0.00753107
-0.00618172
0.00777523
-0.00621611
0.00801067
-0.0062121
0.00823841
-0.00617543
0.00845951
-0.00611151
0.00867498
-0.00602533
0.00888581
-0.00592139
0.00909289
-0.00580369
0.00929705
-0.00567579
0.00949907
-0.00554102
0.00969983
-0.00540159
-0.00525813
0.00990078
2.40293e-05
0.000768838
8.98954e-05
0.00199469
0.000192949
0.00297703
0.000328999
0.00369746
0.000494408
0.00416173
0.000686118
0.00438885
0.000901655
0.00440306
0.00113905
0.00423073
0.0013967
0.00389864
0.00167316
0.00343307
0.00196701
0.00285923
0.00227665
0.00220118
0.00260025
0.00148167
0.00293566
0.000722245
0.00328041
-5.69171e-05
0.00363177
-0.000837091
0.0039868
-0.00160125
0.00434251
-0.00233437
0.00469596
-0.00302364
0.00504442
-0.00365877
0.00538547
-0.00423202
0.00571711
-0.00473823
0.00603779
-0.00517479
0.00634647
-0.00554134
0.00664261
-0.00583954
0.00692609
-0.00607263
0.00719719
-0.0062451
0.00745652
-0.00636232
0.00770494
-0.00643013
0.00794346
-0.00645464
0.00817323
-0.00644186
0.00839539
-0.00639759
0.00861111
-0.00632723
0.00882149
-0.00623572
0.00902758
-0.00612747
0.0092303
-0.00600641
0.00943051
-0.00587601
0.009629
-0.00573951
0.00982664
-0.00559923
-0.00545636
0.0100249
2.37782e-05
0.00074506
9.01721e-05
0.0019283
0.000195265
0.00287194
0.000335262
0.00355746
0.000506671
0.00399033
0.000706401
0.00418912
0.000931823
0.00417763
0.00118073
0.00398182
0.0014512
0.00362817
0.00174146
0.0031428
0.00204972
0.00255098
0.00237401
0.00187689
0.0027121
0.00114358
0.00306148
0.000372874
0.00341929
-0.000414736
0.00378249
-0.00120029
0.00414786
-0.00196662
0.0045122
-0.0026987
0.00487243
-0.00338388
0.00522578
-0.00401212
0.00556984
-0.00457608
0.00590271
-0.0050711
0.006223
-0.00549508
0.00652987
-0.00584821
0.006823
-0.00613266
0.00710251
-0.00635214
0.00736892
-0.00651152
0.00762307
-0.00661647
0.00786602
-0.00667308
0.00809897
-0.00668759
0.0083232
-0.00666609
0.00853999
-0.00661439
0.0087506
-0.00653784
0.00895621
-0.00644132
0.0091579
-0.00632916
0.00935663
-0.00620515
0.00955328
-0.00607266
0.00974864
-0.00593487
0.00994357
-0.00579415
-0.00565228
0.0101395
2.34174e-05
0.000721642
9.00795e-05
0.00186164
0.000196834
0.00276519
0.00034032
0.00341398
0.000517223
0.00381342
0.000724455
0.00398188
0.000959255
0.00394284
0.00121918
0.00372189
0.00150204
0.00334532
0.0018057
0.00283914
0.00212799
0.00222869
0.00246654
0.00153833
0.00281873
0.000791392
0.00318162
9.98365e-06
0.00355201
-0.000785121
0.00392648
-0.00157476
0.00430155
-0.0023417
0.00467383
-0.00307098
0.00504011
-0.00375017
0.0053976
-0.0043696
0.00574394
-0.00492242
0.00607734
-0.0054045
0.0063966
-0.00581434
0.00670112
-0.00615273
0.00699079
-0.00642234
0.007266
-0.00662735
0.00752752
-0.00677303
0.00777639
-0.00686534
0.00801387
-0.00691057
0.00824134
-0.00691506
0.00846021
-0.00688496
0.00867188
-0.00682605
0.00887767
-0.00674364
0.00907884
-0.00664249
0.00927649
-0.00652681
0.00947162
-0.00640028
0.0096651
-0.00626614
0.00985773
-0.0061275
0.0100504
-0.00598677
-0.00584629
0.0102444
2.29749e-05
0.000698667
8.97062e-05
0.0017949
0.000197823
0.00265707
0.000344422
0.00326738
0.000526399
0.00363145
0.00074069
0.00376759
0.000984423
0.0036991
0.00125495
0.00345136
0.00154978
0.00305049
0.00186644
0.00252248
0.00220236
0.00189277
0.00255477
0.00118593
0.00292059
0.000425571
0.00329647
-0.000365904
0.00367883
-0.00116747
0.00406389
-0.00195983
0.00444793
-0.00272573
0.00482733
-0.00345038
0.00519883
-0.00412167
0.00555961
-0.00473039
0.00590741
-0.00527022
0.0062406
-0.00573769
0.00655818
-0.00613193
0.00685978
-0.00645432
0.00714556
-0.00670812
0.00741616
-0.00689795
0.00767258
-0.00702945
0.00791609
-0.00710885
0.00814814
-0.00714262
0.00837026
-0.00713718
0.00858398
-0.00709868
0.00879079
-0.00703286
0.00899209
-0.00694494
0.00918916
-0.00683956
0.00938315
-0.00672079
0.00957505
-0.00659218
0.00976576
-0.00645685
0.00995605
-0.00631779
0.0101468
-0.00617747
-0.0060388
0.0103393
2.24804e-05
0.000676187
8.91444e-05
0.00172824
0.000198405
0.00254781
0.000347834
0.00311795
0.000534552
0.00344473
0.000755543
0.0035466
0.00100784
0.0034468
0.0012886
0.00317061
0.00159503
0.00274406
0.0019243
0.00219321
0.00227345
0.00154362
0.00263924
0.000820139
0.00301817
4.6641e-05
0.00340644
-0.000754178
0.00380006
-0.00156109
0.00419493
-0.0023547
0.00458705
-0.00311786
0.00497267
-0.003836
0.00534845
-0.00449745
0.0057116
-0.00509354
0.00605998
-0.0056186
0.00639216
-0.00606986
0.00670736
-0.00644713
0.00700548
-0.00675244
0.00728693
-0.00698957
0.00755262
-0.00716364
0.00780379
-0.00728062
0.00804191
-0.00734697
0.0082686
-0.00736931
0.00848553
-0.00735411
0.00869434
-0.00730749
0.00889658
-0.00723511
0.00909372
-0.00714208
0.00928705
-0.00703289
0.00947775
-0.00691148
0.0096668
-0.00678124
0.00985509
-0.00664514
0.0100434
-0.00650611
0.0102326
-0.00636663
-0.00623015
0.0104239
2.19642e-05
0.000654222
8.84879e-05
0.00166172
0.00019876
0.00243754
0.000350828
0.00296588
0.000542051
0.00325351
0.00076947
0.00331918
0.00103004
0.00318623
0.00132071
0.00287994
0.0016384
0.00242637
0.00197992
0.00185169
0.00234186
0.00118169
0.00272053
0.000441462
0.00311197
-0.000344797
0.00351193
-0.00115413
0.003916
-0.00196516
0.00431977
-0.00275847
0.00471899
-0.00351708
0.0051098
-0.0042268
0.00548881
-0.00487647
0.00585334
-0.00545806
0.00620138
-0.00596665
0.00653172
-0.0064002
0.00684384
-0.00675926
0.00713791
-0.00704651
0.00741464
-0.0072663
0.00767516
-0.00742416
0.00792094
-0.0075264
0.00815367
-0.0075797
0.0083751
-0.00759075
0.00858703
-0.00756604
0.00879119
-0.00751164
0.00898918
-0.00743311
0.0091825
-0.0073354
0.00937246
-0.00722286
0.00956023
-0.00709925
0.00974679
-0.0069678
0.00993301
-0.00683136
0.0101197
-0.00669277
0.0103076
-0.00655453
-0.00642065
0.0104981
2.14568e-05
0.000632765
8.783e-05
0.00159534
0.000199064
0.0023263
0.000353676
0.00281127
0.000549262
0.00305792
0.000782928
0.00308552
0.00105155
0.00291761
0.00135188
0.00257961
0.00168053
0.00209772
0.00203392
0.00149831
0.00240819
0.000807413
0.0027992
5.04602e-05
0.00320246
-0.000748064
0.00361329
-0.00156497
0.00402689
-0.00237876
0.00443853
-0.00317011
0.00484377
-0.00392232
0.00523863
-0.00462166
0.00561978
-0.00525762
0.00598462
-0.0058229
0.00633135
-0.00631338
0.00665901
-0.00672786
0.00696737
-0.00706761
0.00725686
-0.007336
0.00752846
-0.0075379
0.00778358
-0.00767928
0.0080239
-0.00776672
0.00825126
-0.00780706
0.00846758
-0.00780707
0.00867474
-0.0077732
0.00887453
-0.00771143
0.00906861
-0.00762718
0.00925846
-0.00752525
0.00944542
-0.00740981
0.00963061
-0.00728444
0.00981501
-0.0071522
0.00999947
-0.00701582
0.0101848
-0.00687804
0.0103717
-0.00674143
-0.00661049
0.0105615
2.09869e-05
0.000611778
8.72608e-05
0.00152907
0.00019949
0.00221407
0.00035664
0.00265412
0.00055654
0.00285802
0.000796358
0.0028457
0.00107289
0.00264108
0.00138267
0.00226982
0.001722
0.00175839
0.00208688
0.00113342
0.00247301
0.00042129
0.00287571
-0.000352243
0.00329003
-0.00116239
0.00371083
-0.00198576
0.00413292
-0.00280084
0.00455129
-0.00358848
0.00496135
-0.00433238
0.00535906
-0.00501938
0.00574117
-0.00563972
0.00610522
-0.00618695
0.00644967
-0.00665783
0.00677382
-0.007052
0.00707772
-0.00737152
0.00736212
-0.0076204
0.00762827
-0.00780405
0.0078778
-0.00792881
0.0081126
-0.00800152
0.00833468
-0.00802914
0.00854607
-0.00801845
0.00874871
-0.00797584
0.00894445
-0.00790717
0.00913495
-0.00781769
0.00932171
-0.00771201
0.00950602
-0.00759412
0.00968899
-0.0074674
0.00987155
-0.00733476
0.0100545
-0.0071988
0.0102387
-0.00706218
0.0104248
-0.00692753
-0.00679987
0.0106141
2.05815e-05
0.000591196
8.68652e-05
0.00146278
0.000200199
0.00210074
0.000359969
0.00249435
0.000564221
0.00265377
0.000810177
0.00259974
0.00109454
0.00235672
0.00141361
0.00195075
0.00176335
0.00140866
0.00213933
0.000757438
0.00253677
2.38569e-05
0.00295047
-0.000765949
0.003375
-0.00158691
0.00380474
-0.00241551
0.00423417
-0.00323027
0.00465804
-0.00401236
0.00507163
-0.00474597
0.00547093
-0.00541868
0.00585277
-0.00602156
0.00621493
-0.00654911
0.00655611
-0.00699902
0.00687593
-0.00737181
0.00717474
-0.00767034
0.00745359
-0.00789925
0.00771399
-0.00806444
0.0079578
-0.00817262
0.00818709
-0.00823081
0.00840401
-0.00824606
0.00861066
-0.00822511
0.00880907
-0.00817425
0.0090011
-0.00809919
0.00918839
-0.00800499
0.00937243
-0.00789605
0.00955445
-0.00777614
0.00973553
-0.00764847
0.00991655
-0.00751578
0.0100983
-0.00738054
0.0102815
-0.00724537
0.0104669
-0.00711297
-0.0069889
0.010656
2.0265e-05
0.000570931
8.67206e-05
0.00139633
0.000201338
0.00198612
0.000363887
0.0023318
0.000572608
0.00244505
0.000824758
0.00234759
0.00111692
0.00206455
0.00144515
0.00162252
0.00180503
0.00104877
0.0021917
0.000370765
0.00259985
-0.000384293
0.00302378
-0.00118988
0.00345755
-0.00202068
0.00389512
-0.00285308
0.00433065
-0.0036658
0.00475869
-0.0044404
0.00517446
-0.00516174
0.00557402
-0.00581823
0.00595436
-0.0064019
0.00631351
-0.00690826
0.00665048
-0.00733599
0.00696518
-0.00768652
0.00725832
-0.00796347
0.0075312
-0.00817213