/*--------------------------------*- C++ -*----------------------------------*\
  =========                 |
  \\      /  F ield         | OpenFOAM: The Open Source CFD Toolbox
   \\    /   O peration     | Website:  https://openfoam.org
    \\  /    A nd           | Version:  7
     \\/     M anipulation  |
\*---------------------------------------------------------------------------*/
FoamFile
{
    version     2.0;
    format      ascii;
    class       volVectorField;
    location    "2.3";
    object      U;
}
// * * * * * * * * * * * * * * * * * * * * * * * * * * * * * * * * * * * * * //

dimensions      [0 1 -1 0 0 0 0];

internalField   nonuniform List<vector> 
32000
(
(-0.00101538 0.0400894 -1.12379e-21)
(-0.00443272 0.102557 0)
(-0.00988539 0.151753 -1.00125e-20)
(-0.0160863 0.18847 0)
(-0.0225815 0.214316 1.04371e-20)
(-0.0288589 0.231073 0)
(-0.0345119 0.240413 1.07961e-20)
(-0.0392234 0.243778 -8.20811e-21)
(-0.0427643 0.24237 3.31071e-24)
(-0.0449828 0.237159 3.43677e-24)
(-0.0457924 0.228928 -2.83478e-21)
(-0.0451561 0.218313 1.1427e-20)
(-0.043081 0.205845 0)
(-0.0396137 0.191976 -2.90496e-21)
(-0.0348264 0.177104 2.91702e-21)
(-0.0288105 0.161586 0)
(-0.0216743 0.145745 1.47148e-20)
(-0.0135375 0.129874 -2.95443e-21)
(-0.00452744 0.114237 0)
(0.00522282 0.099067 5.95343e-21)
(0.0155792 0.0845659 5.93978e-21)
(0.0264091 0.0709022 0)
(0.037582 0.0582117 0)
(0.0489728 0.0465963 0)
(0.0604651 0.036126 0)
(0.0719526 0.0268409 0)
(0.0833396 0.0187529 0)
(0.094542 0.0118492 0)
(0.105487 0.00609665 -1.18426e-20)
(0.116115 0.00144537 0)
(0.126377 -0.0021684 1.17796e-20)
(0.136234 -0.00481854 0)
(0.145658 -0.00658513 0)
(0.154632 -0.00755154 0)
(0.163146 -0.0078014 -1.16062e-20)
(0.171193 -0.007416 -5.79351e-21)
(0.178771 -0.00647149 1.72906e-20)
(0.185898 -0.00503868 -1.60432e-23)
(0.192612 -0.00308502 1.1416e-20)
(0.198721 -0.000397173 -1.94561e-23)
(-0.00171334 0.0407482 0)
(-0.00592709 0.104113 1.9487e-20)
(-0.011624 0.153941 5.01014e-21)
(-0.0177519 0.191065 -3.63136e-24)
(-0.0239488 0.217094 -5.2264e-21)
(-0.0297854 0.233814 0)
(-0.0349114 0.242915 1.07326e-20)
(-0.0390464 0.245861 -1.08861e-20)
(-0.0419851 0.243883 0)
(-0.0435927 0.237981 -2.23615e-20)
(-0.0437925 0.228965 0)
(-0.0425547 0.2175 -3.42008e-20)
(-0.0398922 0.204139 0)
(-0.0358536 0.189355 0)
(-0.0305135 0.173567 1.16444e-20)
(-0.0239676 0.157148 -1.16819e-20)
(-0.0163272 0.14044 -1.17637e-20)
(-0.007714 0.123747 0)
(0.00174025 0.107347 3.54169e-20)
(0.0118991 0.0914848 -1.18315e-20)
(0.0226267 0.0763688 -1.06767e-23)
(0.0337871 0.0621741 -3.55734e-20)
(0.0452473 0.0490403 -2.37235e-20)
(0.0568821 0.0370714 -1.19026e-20)
(0.0685749 0.0263374 3.55913e-20)
(0.080218 0.0168755 -3.55914e-20)
(0.0917159 0.00869357 3.55976e-20)
(0.102987 0.00177351 -4.72928e-20)
(0.113961 -0.00392408 -1.17435e-20)
(0.12458 -0.00845695 7.216e-23)
(0.134798 -0.0118971 -3.51953e-20)
(0.144581 -0.0143261 -2.34126e-20)
(0.153904 -0.0158318 4.66723e-20)
(0.162753 -0.0165049 -4.64531e-20)
(0.171121 -0.0164362 -1.15092e-20)
(0.179007 -0.0157139 -4.60899e-20)
(0.186414 -0.0144175 3.21528e-23)
(0.193359 -0.0126207 1.14108e-20)
(0.199886 -0.0102906 -4.53825e-20)
(0.205812 -0.00720854 -6.32115e-20)
(-0.00243055 0.0412421 -4.46589e-21)
(-0.00745538 0.105285 -9.75569e-21)
(-0.0133917 0.155663 -4.47918e-20)
(-0.0194258 0.193172 0)
(-0.0252877 0.219395 5.19769e-21)
(-0.0306338 0.236111 -5.28616e-21)
(-0.0351712 0.245017 -6.44543e-20)
(-0.0386611 0.247595 2.18346e-20)
(-0.0409245 0.245098 -1.10455e-20)
(-0.0418477 0.238554 6.69338e-20)
(-0.0413642 0.228801 2.25454e-20)
(-0.0394505 0.216529 1.14123e-20)
(-0.0361265 0.202314 -4.57342e-20)
(-0.031447 0.186654 0)
(-0.0254899 0.169985 0)
(-0.0183537 0.1527 2.33157e-20)
(-0.0101553 0.135155 4.28091e-23)
(-0.00102051 0.117671 -2.34496e-20)
(0.00891746 0.100537 -2.35862e-20)
(0.0195179 0.0840084 -4.70846e-20)
(0.0306399 0.0683031 7.08199e-20)
(0.0421466 0.0536019 7.63557e-23)
(0.0539041 0.0400491 2.26539e-23)
(0.0657845 0.0277503 2.36491e-20)
(0.0776705 0.0167745 -4.7416e-20)
(0.0894559 0.00715651 9.45267e-20)
(0.101047 -0.00109988 0)
(0.112363 -0.00801816 2.36339e-20)
(0.123338 -0.0136448 2.35852e-20)
(0.133917 -0.0180457 4.70272e-20)
(0.144057 -0.0213006 7.19654e-23)
(0.153729 -0.0234988 0)
(0.162913 -0.0247361 2.32421e-20)
(0.171599 -0.0251113 -2.30754e-20)
(0.179784 -0.0247226 -2.29191e-20)
(0.187472 -0.0236628 6.89714e-20)
(0.19467 -0.0220179 -6.83879e-20)
(0.201398 -0.0198642 4.55142e-20)
(0.207703 -0.0171678 -6.77012e-20)
(0.213412 -0.0137085 2.50643e-20)
(-0.00316255 0.0416129 3.55665e-20)
(-0.0090152 0.106217 -3.87456e-20)
(-0.0151875 0.157056 7.95029e-20)
(-0.0211121 0.194903 0)
(-0.0266072 0.221305 3.10197e-20)
(-0.0314163 0.238028 5.26714e-20)
(-0.0353082 0.246761 1.08447e-20)
(-0.0380883 0.249005 1.03305e-23)
(-0.0396077 0.246029 3.29585e-20)
(-0.0397713 0.238884 -1.12721e-20)
(-0.0385275 0.228437 5.61034e-20)
(-0.0358645 0.215401 -6.79204e-20)
(-0.0318086 0.200376 6.85484e-20)
(-0.0264194 0.18388 -2.29865e-20)
(-0.0197815 0.166369 2.30822e-20)
(-0.011998 0.148255 -4.63226e-20)
(-0.00318883 0.129909 -6.98255e-20)
(0.006515 0.111668 2.3356e-20)
(0.0169747 0.0938342 -2.34656e-20)
(0.0280464 0.0766713 7.05518e-20)
(0.0395865 0.0604071 -4.71612e-20)
(0.0514548 0.0452294 -4.70126e-20)
(0.0635151 0.0312854 0)
(0.0756399 0.0186826 0)
(0.087712 0.00748993 -4.70322e-20)
(0.0996258 -0.0022608 -4.72001e-20)
(0.111289 -0.0105705 -4.69406e-20)
(0.122625 -0.0174683 0)
(0.133572 -0.023008 0)
(0.144077 -0.0272631 -9.34525e-20)
(0.154105 -0.0303209 -8.81346e-23)
(0.163629 -0.0322796 4.65694e-20)
(0.172637 -0.0332431 -4.6266e-20)
(0.181121 -0.0333177 -4.61631e-20)
(0.189085 -0.0326084 4.60963e-20)
(0.196538 -0.0312146 0)
(0.203489 -0.0292269 4.56122e-20)
(0.209965 -0.0267243 -9.05059e-20)
(0.216013 -0.0236754 9.01782e-20)
(0.221473 -0.0198568 -9.99834e-20)
(-0.00389908 0.04182 -1.78103e-20)
(-0.0105866 0.1068 2.90732e-20)
(-0.0169953 0.158005 -3.96935e-20)
(-0.0227977 0.196147 0)
(-0.0278995 0.222726 -5.17211e-20)
(-0.0321338 0.239475 -3.1616e-20)
(-0.0353302 0.248077 4.28038e-20)
(-0.0373408 0.250033 0)
(-0.0380504 0.246629 -6.5914e-20)
(-0.0373864 0.238939 -2.22657e-20)
(-0.0353128 0.22785 -2.24627e-20)
(-0.0318286 0.2141 4.52656e-20)
(-0.0269705 0.198314 -4.54958e-20)
(-0.020806 0.181029 2.28766e-20)
(-0.0134243 0.162722 0)
(-0.00493446 0.143822 6.94552e-20)
(0.00453681 0.124718 2.33162e-20)
(0.0148535 0.10576 -4.66067e-20)
(0.0258725 0.0872634 9.33785e-20)
(0.0374455 0.0695032 -9.35751e-20)
(0.0494245 0.0527154 9.35707e-20)
(0.0616672 0.037094 4.70114e-20)
(0.0740364 0.0227908 0)
(0.0864037 0.0099147 4.69978e-20)
(0.0986521 -0.00146695 1.56647e-22)
(0.110678 -0.0113254 0)
(0.122392 -0.0196657 4.69395e-20)
(0.133722 -0.0265231 -4.68111e-20)
(0.144609 -0.0319587 4.6616e-20)
(0.155008 -0.0360539 9.32485e-20)
(0.164887 -0.0389043 -9.28356e-20)
(0.174228 -0.0406159 9.25979e-20)
(0.18302 -0.0413013 0)
(0.191265 -0.0410745 0)
(0.198971 -0.0400464 9.14697e-20)
(0.206151 -0.0383234 0)
(0.212821 -0.0360007 0)
(0.21901 -0.0331609 -9.00349e-20)
(0.22477 -0.0297748 8.96553e-20)
(0.229949 -0.0256176 4.98053e-20)
(-0.00463524 0.0418976 8.85008e-21)
(-0.0121601 0.107092 0)
(-0.0188049 0.158565 7.89256e-20)
(-0.0244789 0.196952 1.0104e-20)
(-0.0291682 0.22369 1.03159e-20)
(-0.0327928 0.240478 6.28108e-20)
(-0.0352488 0.248974 8.51126e-20)
(-0.0364369 0.250681 0)
(-0.0362755 0.246895 2.18871e-20)
(-0.034717 0.238709 6.62211e-20)
(-0.0317448 0.22703 8.91597e-20)
(-0.0273715 0.212619 -2.25172e-20)
(-0.021644 0.196122 -6.78525e-20)
(-0.0146383 0.178098 0)
(-0.00645208 0.159045 9.15237e-20)
(0.00279888 0.139407 0)
(0.012982 0.119591 1.38531e-19)
(0.0239548 0.0999614 -4.63348e-20)
(0.0355682 0.0808456 0)
(0.0476691 0.0625294 -4.66344e-20)
(0.0601065 0.045258 -1.48288e-22)
(0.0727353 0.0292318 -4.64509e-20)
(0.0854165 0.0146059 -4.66801e-20)
(0.0980215 0.00148972 4.67913e-20)
(0.110435 -0.0100506 -4.66685e-20)
(0.122555 -0.0199889 0)
(0.134297 -0.0283351 -4.66831e-20)
(0.145593 -0.0351312 4.65045e-20)
(0.15639 -0.0404455 0)
(0.166648 -0.0443669 0)
(0.176344 -0.0469998 0)
(0.185463 -0.0484584 -9.22154e-20)
(0.194003 -0.0488633 9.17277e-20)
(0.201971 -0.0483355 0)
(0.209382 -0.0469931 -4.56344e-20)
(0.216254 -0.0449476 0)
(0.222609 -0.0423003 9.02863e-20)
(0.22848 -0.0391369 -4.4732e-20)
(0.23392 -0.0354315 -8.93559e-20)
(0.23879 -0.0309591 9.87408e-20)
(-0.0053633 0.0418352 6.16476e-20)
(-0.0137235 0.107074 -8.6422e-20)
(-0.0206069 0.15871 -1.47771e-19)
(-0.0261461 0.197285 -8.04478e-20)
(-0.030406 0.224167 -2.0554e-20)
(-0.0333951 0.241 -4.19472e-20)
(-0.0350726 0.249418 -1.91214e-19)
(-0.0353886 0.250918 -6.45047e-20)
(-0.0343003 0.2468 -1.08923e-19)
(-0.0317873 0.23817 -1.10382e-19)
(-0.0278526 0.225956 -1.5578e-19)
(-0.0225247 0.210941 -8.95788e-20)
(-0.0158637 0.19379 3.15436e-22)
(-0.00795595 0.175083 -9.07233e-20)
(0.00109268 0.155337 -9.15213e-20)
(0.0111582 0.135014 -1.3747e-19)
(0.0221 0.114538 9.1718e-20)
(0.0337687 0.0942864 -4.61465e-20)
(0.0460089 0.0745996 0)
(0.0586629 0.0557744 9.25777e-20)
(0.071576 0.0380646 0)
(0.0845998 0.021676 1.86006e-19)
(0.0975941 0.00676669 0)
(0.11043 -0.00655307 -4.65847e-20)
(0.122995 -0.0182184 4.67742e-20)
(0.135191 -0.0282068 -9.28545e-20)
(0.146937 -0.0365332 0)
(0.158172 -0.0432459 -9.27986e-20)
(0.168847 -0.048421 9.2412e-20)
(0.178931 -0.0521554 0)
(0.188406 -0.0545616 0)
(0.197268 -0.0557624 0)
(0.205519 -0.055886 -9.11993e-20)
(0.213175 -0.05506 0)
(0.220256 -0.0534094 -9.0729e-20)
(0.226787 -0.0510511 1.80508e-19)
(0.232795 -0.0480915 -1.79647e-19)
(0.238317 -0.0446203 8.90636e-20)
(0.24341 -0.040615 1.77803e-19)
(0.247946 -0.0358531 -9.81448e-20)
(-0.00607847 0.0416407 -7.92643e-20)
(-0.0152666 0.106752 2.26287e-22)
(-0.0223892 0.158446 7.86939e-20)
(-0.0277918 0.197149 1.60663e-19)
(-0.0316122 0.224148 -2.04951e-20)
(-0.0339431 0.241031 -8.33132e-20)
(-0.0348091 0.249397 8.48473e-20)
(-0.0342113 0.250727 1.29021e-19)
(-0.0321462 0.246323 4.36251e-20)
(-0.0286224 0.237304 1.09749e-19)
(-0.0236659 0.224613 8.88669e-20)
(-0.0173235 0.209051 1.34129e-19)
(-0.00966931 0.191305 2.70105e-19)
(-0.000801087 0.171974 1.35851e-19)
(0.00916454 0.151594 0)
(0.020094 0.130644 4.58442e-20)
(0.0318383 0.109564 4.54642e-20)
(0.0442399 0.0887449 4.5768e-20)
(0.0571369 0.0685406 9.22076e-20)
(0.0703665 0.0492582 -4.65414e-20)
(0.0837697 0.031159 0)
(0.0971951 0.0144543 -4.03613e-22)
(0.110501 -0.000695224 -9.24405e-20)
(0.123561 -0.0141789 9.24481e-20)
(0.136263 -0.0259335 1.85242e-19)
(0.148515 -0.0359401 1.84999e-19)
(0.16024 -0.0442192 -9.96981e-23)
(0.171384 -0.050826 9.20837e-20)
(0.181906 -0.0558439 9.18952e-20)
(0.191782 -0.0593782 -9.16701e-20)
(0.201003 -0.0615496 9.141e-20)
(0.209572 -0.0624891 9.11167e-20)
(0.217499 -0.0623317 1.8199e-19)
(0.224809 -0.0612124 -2.71475e-22)
(0.231528 -0.0592615 2.70567e-19)
(0.237687 -0.0566021 -1.39276e-22)
(0.243319 -0.0533448 -8.92165e-20)
(0.248465 -0.0495834 -8.91699e-20)
(0.253185 -0.0452999 8.82939e-20)
(0.257363 -0.0402755 9.7373e-20)
(-0.00677451 0.0413182 7.00338e-20)
(-0.0167786 0.106134 9.56987e-20)
(-0.0241419 0.157775 5.86573e-20)
(-0.0294083 0.196541 -6.01808e-20)
(-0.0327829 0.223628 -1.02012e-19)
(-0.0344396 0.240559 8.32936e-20)
(-0.0344677 0.248892 0)
(-0.0329198 0.250088 8.55535e-20)
(-0.0298333 0.245446 0)
(-0.0252488 0.236091 -1.7528e-19)
(-0.019217 0.222981 4.42258e-20)
(-0.0118045 0.206933 -2.22811e-19)
(-0.00310134 0.188654 -8.9876e-20)
(0.00678112 0.168762 4.48071e-20)
(0.0177141 0.147809 3.44711e-23)
(0.0295535 0.126294 -4.54979e-20)
(0.0421405 0.10467 -9.15285e-20)
(0.0553089 0.0833434 -1.83216e-19)
(0.0688897 0.0626794 0)
(0.0827144 0.0429955 -1.10664e-22)
(0.0966194 0.0245604 -9.20209e-20)
(0.110451 0.00758978 -9.23917e-20)
(0.124066 -0.00775333 9.24382e-20)
(0.137339 -0.0213582 -9.27521e-20)
(0.150163 -0.0331637 9.2006e-20)
(0.162448 -0.0431547 -1.84376e-19)
(0.174128 -0.0513579 -1.03645e-22)
(0.185152 -0.0578356 -1.83857e-19)
(0.19549 -0.0626786 -9.18932e-20)
(0.205125 -0.0660005 1.15419e-22)
(0.214059 -0.0679299 -2.92166e-22)
(0.222301 -0.0686056 -9.11149e-20)
(0.229872 -0.0681694 -9.07902e-20)
(0.236804 -0.0667628 -4.05716e-22)
(0.24313 -0.064522 -9.00539e-20)
(0.248889 -0.0615747 -4.05965e-22)
(0.254119 -0.0580363 -8.89142e-20)
(0.258864 -0.0540042 2.6537e-19)
(0.26319 -0.0494654 -8.82926e-20)
(0.266991 -0.0442071 -9.72296e-20)
(-0.00744619 0.0408754 -7.00401e-20)
(-0.0182489 0.105229 1.9052e-20)
(-0.025855 0.156705 -5.86972e-20)
(-0.0309881 0.195463 -1.99588e-20)
(-0.0339148 0.222603 8.1593e-20)
(-0.0348867 0.239575 -2.07429e-20)
(-0.0340562 0.24789 2.10555e-20)
(-0.0315279 0.248985 -1.28276e-19)
(-0.0273822 0.24415 4.32214e-20)
(-0.0216929 0.234512 8.75029e-20)
(-0.0145376 0.22104 0)
(-0.00600463 0.204569 1.77664e-19)
(0.00379812 0.185821 0)
(0.0147439 0.165432 -1.79817e-19)
(0.0266905 0.143972 -9.01651e-20)
(0.0394817 0.121958 0)
(0.0529478 0.0998546 0)
(0.0669132 0.078084 1.82473e-19)
(0.0812014 0.0570223 9.15089e-20)
(0.0956376 0.0369971 -1.83195e-19)
(0.110053 0.0182832 9.1628e-20)
(0.124292 0.00110038 0)
(0.13821 -0.0143866 -9.19335e-20)
(0.151686 -0.028067 1.83275e-19)
(0.164613 -0.0398825 -9.16992e-20)
(0.176912 -0.0498228 -9.18328e-20)
(0.18852 -0.0579206 9.15156e-20)
(0.199396 -0.0642455 0)
(0.209518 -0.068896 1.82451e-19)
(0.218881 -0.0719934 -9.09634e-20)
(0.227494 -0.0736745 -9.08793e-20)
(0.235378 -0.0740851 -1.59961e-22)
(0.242564 -0.0733739 3.60583e-19)
(0.249088 -0.0716881 -2.69536e-19)
(0.254995 -0.0691691 0)
(0.260329 -0.0659492 -8.92389e-20)
(0.265133 -0.0621479 -1.7731e-19)
(0.269457 -0.0578661 8.78452e-20)
(0.273369 -0.0530964 8.74745e-20)
(0.276777 -0.0476334 0)
(-0.00808916 0.0403204 -1.39205e-19)
(-0.0196683 0.104051 -1.89951e-20)
(-0.0275184 0.155247 1.55579e-19)
(-0.0325232 0.193921 -1.59069e-19)
(-0.0350042 0.221072 0)
(-0.0352856 0.238072 0)
(-0.0335815 0.246381 -4.202e-20)
(-0.0300489 0.247402 -2.06797e-23)
(-0.0248121 0.242415 4.30952e-20)
(-0.0179801 0.232545 0)
(-0.00965889 0.218771 0)
(3.94651e-05 0.201939 -4.44113e-20)
(0.010987 0.182787 8.51431e-24)
(0.0230403 0.161969 4.4958e-20)
(0.0360421 0.140072 9.01629e-20)
(0.0498226 0.117626 0)
(0.0642 0.0951124 9.06799e-20)
(0.0789888 0.0729649 -9.09435e-20)
(0.0940044 0.0515717 -1.82129e-19)
(0.109065 0.0312688 1.82427e-19)
(0.123997 0.0123367 1.67398e-22)
(0.138641 -0.00500132 -9.13068e-20)
(0.152856 -0.0205791 9.15333e-20)
(0.166519 -0.034287 -1.82971e-19)
(0.179533 -0.0460699 0)
(0.191821 -0.0559227 9.1427e-20)
(0.20333 -0.0638849 -1.82423e-19)
(0.214029 -0.0700329 9.09629e-20)
(0.223907 -0.0744733 -9.10762e-20)
(0.232967 -0.0773349 -9.07366e-20)
(0.24123 -0.0787622 -9.06405e-20)
(0.248727 -0.0789078 3.60381e-19)
(0.255498 -0.0779267 -2.69371e-19)
(0.26159 -0.0759712 -1.78968e-19)
(0.267053 -0.0731876 1.77943e-19)
(0.27194 -0.069712 0)
(0.276299 -0.0656674 1.76489e-19)
(0.280185 -0.0611584 -1.75385e-19)
(0.283669 -0.0561829 -8.74733e-20)
(0.286672 -0.0505451 0)
(-0.00869935 0.0396618 2.95392e-19)
(-0.021028 0.102612 1.32439e-19)
(-0.0291227 0.153414 -1.55578e-19)
(-0.0340058 0.191924 1.39202e-19)
(-0.0360464 0.21904 -2.0284e-20)
(-0.035636 0.236048 4.12187e-20)
(-0.0330488 0.244355 0)
(-0.0284942 0.245327 -4.24762e-20)
(-0.0221405 0.240226 4.29708e-20)
(-0.0141338 0.230174 4.34211e-20)
(-0.00461027 0.216154 -4.38007e-20)
(0.00629241 0.199023 -4.41274e-20)
(0.0184247 0.179535 4.44039e-20)
(0.0316246 0.158358 0)
(0.0457182 0.136093 0)
(0.0605206 0.113287 -9.00396e-20)
(0.0758371 0.0904342 9.02512e-20)
(0.0914717 0.0679809 -9.0563e-20)
(0.107231 0.0463258 9.06358e-20)
(0.122925 0.0258122 9.09071e-20)
(0.138376 0.00672561 -1.81881e-19)
(0.153421 -0.0107076 1.82019e-19)
(0.167921 -0.0263205 1.90345e-22)
(0.181757 -0.0400056 -9.0942e-20)
(0.194836 -0.0517116 0)
(0.207089 -0.0614394 9.10257e-20)
(0.218473 -0.0692348 1.98048e-22)
(0.228968 -0.0751817 -9.05621e-20)
(0.238571 -0.0793945 0)
(0.247299 -0.0820097 1.80665e-19)
(0.255185 -0.0831787 -1.79803e-19)
(0.262268 -0.0830607 0)
(0.2686 -0.0818162 1.78875e-19)
(0.274237 -0.0796022 -1.77889e-19)
(0.279237 -0.0765688 0)
(0.283659 -0.0728556 0)
(0.287557 -0.0685887 0)
(0.290991 -0.0638756 -1.7475e-19)
(0.294035 -0.0587202 1.7363e-19)
(0.296626 -0.0529375 1.90552e-19)
(-0.00927355 0.0389093 -1.38794e-19)
(-0.0223203 0.100931 -1.51377e-19)
(-0.0306588 0.151224 -1.93749e-20)
(-0.0354276 0.189486 5.94109e-20)
(-0.0370356 0.216512 -8.07958e-20)
(-0.0359363 0.233505 8.22431e-20)
(-0.0324615 0.241807 -8.3542e-20)
(-0.0268725 0.242749 -1.26825e-19)
(-0.0193823 0.237568 0)
(-0.0101749 0.22738 -4.32906e-20)
(0.000581529 0.213169 4.3669e-20)
(0.0127218 0.195803 0)
(0.026073 0.176045 8.85163e-20)
(0.0404533 0.154578 -8.89739e-20)
(0.0556701 0.132019 -2.67783e-19)
(0.0715222 0.108927 -4.31395e-23)
(0.0878012 0.0858087 1.79896e-19)
(0.1043 0.0631236 -9.01194e-20)
(0.120814 0.0412789 0)
(0.137147 0.0206244 0)
(0.153114 0.00145001 1.80753e-19)
(0.168554 -0.0160155 9.07143e-20)
(0.183326 -0.0316058 -9.05645e-20)
(0.197317 -0.045216 -9.07485e-20)
(0.210438 -0.0567997 1.81219e-19)
(0.222632 -0.0663637 -9.04315e-20)
(0.233864 -0.0739608 1.81024e-19)
(0.244125 -0.0796825 -3.61044e-19)
(0.253426 -0.0836507 3.60284e-19)
(0.261796 -0.0860096 -3.59381e-19)
(0.269277 -0.0869171 3.58338e-19)
(0.275923 -0.086538 -3.5716e-19)
(0.281795 -0.0850378 1.77787e-19)
(0.286957 -0.0825775 1.77344e-19)
(0.291477 -0.0793106 2.35185e-22)
(0.295421 -0.0753792 2.12754e-22)
(0.298848 -0.0709117 -1.74661e-19)
(0.30182 -0.0660182 4.87543e-22)
(0.304418 -0.0607089 -1.72814e-19)
(0.306592 -0.0548108 0)
(-0.00980917 0.0380729 1.72724e-20)
(-0.0235383 0.0990262 -1.88504e-20)
(-0.0321181 0.148695 5.79445e-20)
(-0.0367799 0.186623 -7.89827e-20)
(-0.0379648 0.213501 4.02676e-20)
(-0.0361827 0.230446 0)
(-0.0318203 0.238737 0)
(-0.0251897 0.23966 1.69162e-19)
(-0.0165488 0.234429 2.13429e-19)
(-0.00612037 0.224148 -4.31662e-20)
(0.00589362 0.2098 2.17422e-19)
(0.0192991 0.192259 -4.38557e-20)
(0.033898 0.172298 0)
(0.0494868 0.150613 0)
(0.065853 0.127833 1.78405e-19)
(0.0827776 0.104529 0)
(0.100038 0.0812223 8.92547e-20)
(0.117413 0.0583815 -8.95129e-20)
(0.134689 0.0364219 0)
(0.151661 0.0156989 -1.79849e-19)
(0.16814 -0.00349401 -9.04785e-20)
(0.183963 -0.0209269 -2.70307e-19)
(0.198991 -0.0364349 -9.03688e-20)
(0.213115 -0.0499168 9.01741e-20)
(0.226256 -0.0613315 1.80069e-19)
(0.238363 -0.0706924 0)
(0.249416 -0.0780595 1.79668e-19)
(0.259416 -0.0835322 3.59282e-19)
(0.268388 -0.0872399 3.58422e-22)
(0.276373 -0.0893335 -1.78731e-19)
(0.283427 -0.0899771 -1.78535e-19)
(0.289615 -0.0893406 1.77637e-19)
(0.295009 -0.0875936 1.77265e-19)
(0.299682 -0.0849006 -3.52827e-19)
(0.30371 -0.0814175 3.51284e-19)
(0.307165 -0.0772881 -1.75213e-19)
(0.310113 -0.0726423 1.73855e-19)
(0.312621 -0.0675926 3.46068e-19)
(0.314769 -0.0621552 1.7167e-19)
(0.316526 -0.0561705 1.87746e-19)
(-0.0103044 0.0371633 -1.37592e-19)
(-0.0246763 0.0969166 1.31283e-19)
(-0.0334925 0.145849 -1.15355e-19)
(-0.0380536 0.183354 1.1792e-19)
(-0.0388259 0.210021 2.00662e-19)
(-0.0363694 0.22688 -1.63384e-19)
(-0.0311228 0.235145 2.07517e-19)
(-0.0234478 0.236057 1.26132e-19)
(-0.0136469 0.2308 -2.98305e-19)
(-0.00198267 0.220465 8.58493e-20)
(0.0113082 0.206031 4.29095e-20)
(0.0260008 0.188374 8.74196e-20)
(0.0418708 0.168275 8.76683e-20)
(0.0586909 0.146442 -1.76492e-19)
(0.0762273 0.123515 1.77202e-19)
(0.0942421 0.100078 2.66844e-19)
(0.112497 0.0766599 -2.68162e-19)
(0.130757 0.0537412 3.57922e-19)
(0.148797 0.0317435 1.78928e-19)
(0.166404 0.0110265 2.69658e-19)
(0.183385 -0.00811356 8.95486e-20)
(0.199575 -0.0254471 1.80133e-19)
(0.214839 -0.0408118 -1.79449e-19)
(0.229073 -0.0541109 0)
(0.242207 -0.0653095 -5.39264e-19)
(0.254201 -0.0744278 3.59042e-19)
(0.265046 -0.0815338 -1.79288e-19)
(0.274758 -0.0867344 -1.78987e-19)
(0.283375 -0.0901662 -2.00468e-22)
(0.290952 -0.0919867 0)
(0.297558 -0.0923652 0)
(0.303271 -0.0914762 1.76615e-19)
(0.308171 -0.0894925 -1.7647e-19)
(0.312345 -0.0865813 1.75497e-19)
(0.315872 -0.0829001 -1.74953e-19)
(0.318833 -0.0785936 -1.74128e-19)
(0.3213 -0.0737923 0)
(0.323341 -0.0686106 -1.72153e-19)
(0.325042 -0.0630708 -1.71533e-19)
(0.326387 -0.0570273 -5.61654e-19)
(-0.0107582 0.036191 1.37566e-19)
(-0.0257296 0.0946239 -1.31381e-19)
(-0.0347744 0.142711 1.53852e-19)
(-0.0392395 0.179702 -2.74928e-19)
(-0.0396091 0.20609 -2.00553e-19)
(-0.0364881 0.222819 1.63383e-19)
(-0.0303634 0.231038 -3.31481e-19)
(-0.0216447 0.23194 -1.68237e-19)
(-0.0106788 0.226677 2.12716e-19)
(0.00223139 0.216322 -3.86307e-19)
(0.0168132 0.201848 -2.59929e-19)
(0.03281 0.184132 -8.69016e-20)
(0.0499689 0.16396 -2.63299e-19)
(0.0680379 0.142049 2.64608e-19)
(0.0867601 0.119049 -1.77198e-19)
(0.105878 0.0955547 -1.7778e-19)
(0.125134 0.0721054 0)
(0.144282 0.0491883 -1.78628e-19)
(0.163082 0.0272308 -2.68268e-19)
(0.181315 0.00659614 8.93545e-20)
(0.198783 -0.0124184 -1.79311e-19)
(0.215321 -0.0295848 0)
(0.230797 -0.0447442 1.79445e-19)
(0.245115 -0.0578056 1.79232e-19)
(0.258213 -0.0687407 -1.78031e-19)
(0.270064 -0.0775776 0)
(0.280673 -0.0843919 0)
(0.29007 -0.0892982 0)
(0.298308 -0.09244 -7.55287e-22)
(0.305456 -0.0939806 0)
(0.311596 -0.094094 -3.53413e-19)
(0.316818 -0.0929585 -5.33389e-22)
(0.321216 -0.0907495 -3.50856e-19)
(0.324881 -0.0876357 3.49661e-19)
(0.327904 -0.0837753 -1.73946e-19)
(0.33037 -0.0793129 1.73622e-19)
(0.332357 -0.0743792 0)
(0.333936 -0.0690897 3.433e-19)
(0.335195 -0.0634725 -1.70384e-19)
(0.336136 -0.0573969 0)
(-0.01117 0.0351669 1.71241e-20)
(-0.0266946 0.0921698 0)
(-0.0359567 0.139306 -1.91349e-19)
(-0.0403278 0.175692 2.35246e-19)
(-0.0403034 0.201729 1.1971e-19)
(-0.0365278 0.218279 -1.62522e-19)
(-0.0295324 0.226426 1.6552e-19)
(-0.0197734 0.227313 -1.67345e-19)
(-0.007641 0.222058 0)
(0.00652129 0.211713 1.71451e-19)
(0.0224038 0.197243 -1.72404e-19)
(0.0397167 0.17952 4.99762e-22)
(0.0581776 0.159338 0)
(0.0775078 0.137418 1.7539e-19)
(0.097426 0.114419 -8.78933e-20)
(0.117653 0.0909448 1.76596e-19)
(0.137914 0.0675436 8.83698e-20)
(0.157946 0.0447083 -1.77363e-19)
(0.177498 0.0228704 0)
(0.196341 0.00239529 2.66943e-19)
(0.214276 -0.0164203 8.88664e-20)
(0.231137 -0.0333509 0)
(0.246797 -0.0482429 0)
(0.261168 -0.0610116 0)
(0.274199 -0.0716365 1.78581e-19)
(0.285877 -0.0801536 0)
(0.29622 -0.0866467 -1.77965e-19)
(0.305276 -0.0912379 3.5492e-19)
(0.313111 -0.0940769 -3.54338e-19)
(0.319811 -0.0953322 0)
(0.32547 -0.0951821 1.76441e-19)
(0.330191 -0.0938074 -1.75076e-19)
(0.334078 -0.0913854 1.75171e-19)
(0.337233 -0.0880853 0)
(0.339751 -0.0840651 0)
(0.341726 -0.0794685 1.72517e-19)
(0.343238 -0.0744254 -1.71466e-19)
(0.344363 -0.0690518 3.41352e-19)
(0.34519 -0.0633814 -3.39165e-19)
(0.345739 -0.0572989 0)
(-0.0115401 0.0341015 1.19315e-19)
(-0.0275686 0.0895766 3.72372e-20)
(-0.0370326 0.135661 1.5302e-19)
(-0.0413083 0.17135 1.56072e-19)
(-0.0408963 0.196963 -1.59653e-19)
(-0.0364748 0.213281 1.62522e-19)
(-0.0286166 0.221324 1.64658e-19)
(-0.0178219 0.222185 1.67344e-19)
(-0.0045239 0.216946 0)
(0.0108934 0.206637 1.70525e-19)
(0.0280825 0.192208 1.72402e-19)
(0.0467194 0.17453 1.73589e-19)
(0.0664906 0.154397 0)
(0.0870891 0.132535 -5.27516e-22)
(0.108208 0.109611 1.76052e-19)
(0.129546 0.0862342 -8.84379e-20)
(0.150808 0.0629608 -8.89476e-20)
(0.171713 0.0402879 2.65913e-19)
(0.192001 0.0186494 6.82779e-23)
(0.211435 -0.00158849 -8.93414e-20)
(0.22981 -0.0201312 -1.77944e-19)
(0.246964 -0.0367577 0)
(0.262776 -0.0513203 0)
(0.277165 -0.0637421 0)
(0.290096 -0.074011 0)
(0.301568 -0.0821715 0)
(0.311616 -0.0883157 0)
(0.320304 -0.0925724 1.76896e-19)
(0.327715 -0.0950974 -1.76161e-19)
(0.333949 -0.0960637 0)
(0.339115 -0.095653 0)
(0.343328 -0.0940478 1.75074e-19)
(0.346701 -0.0914262 0)
(0.349345 -0.0879569 1.73387e-19)
(0.351363 -0.0837967 -1.72395e-19)
(0.352853 -0.0790875 0)
(0.353901 -0.0739576 3.41649e-19)
(0.354584 -0.0685232 -3.39512e-19)
(0.354992 -0.0628229 0)
(0.355164 -0.0567572 0)
(-0.0118691 0.0330049 -1.3642e-19)
(-0.0283497 0.0868663 -3.71894e-20)
(-0.0379958 0.131804 3.80802e-20)
(-0.0421702 0.166707 -1.56072e-19)
(-0.0413732 0.191818 0)
(-0.0363125 0.207848 0)
(-0.0275983 0.215751 -1.23538e-19)
(-0.0157729 0.216569 -4.16647e-20)
(-0.00131155 0.21135 -8.43068e-20)
(0.0153613 0.201096 -8.53635e-20)
(0.0338599 0.186744 -8.58186e-20)
(0.0538249 0.169158 8.64576e-20)
(0.0749104 0.149131 8.66899e-20)
(0.0967798 0.127392 -8.75299e-20)
(0.119099 0.104614 0)
(0.141542 0.081412 0)
(0.163794 0.0583457 -1.76431e-19)
(0.185558 0.0359156 0)
(0.206559 0.0145566 0)
(0.226554 -0.00536659 1.76334e-19)
(0.245338 -0.023563 2.24073e-22)
(0.262749 -0.0398176 -1.97179e-22)
(0.278674 -0.05399 -1.77167e-19)
(0.293045 -0.0660121 1.76785e-19)
(0.305838 -0.075881 1.76475e-19)
(0.31707 -0.0836501 -1.76274e-19)
(0.326793 -0.0894195 0)
(0.335088 -0.0933247 1.76171e-19)
(0.342054 -0.0955265 3.12116e-22)
(0.347808 -0.096202 -1.74965e-19)
(0.352471 -0.0955352 0)
(0.356171 -0.0937095 0)
(0.35903 -0.0909025 1.73372e-19)
(0.361168 -0.0872816 -1.72417e-19)
(0.362695 -0.0830013 -1.71811e-19)
(0.363712 -0.078201 1.70796e-19)
(0.364308 -0.0730069 0)
(0.364564 -0.0675341 0)
(0.36457 -0.061826 0)
(0.364385 -0.0557991 -1.82349e-19)
(-0.0121585 0.0318867 1.69668e-19)
(-0.0290369 0.0840606 -7.41246e-20)
(-0.0388402 0.127763 3.79785e-20)
(-0.042902 0.161792 0)
(-0.0417183 0.186326 1.98088e-19)
(-0.0360212 0.202006 3.45814e-23)
(-0.0264557 0.209728 1.63837e-19)
(-0.0136037 0.210484 -1.2469e-19)
(0.00201854 0.205283 1.68186e-19)
(0.0199462 0.1951 -8.49379e-20)
(0.0397548 0.180855 0)
(0.0610489 0.163404 8.61562e-20)
(0.0834489 0.143537 -2.60262e-19)
(0.106587 0.121986 0)
(0.1301 0.0994244 2.61772e-19)
(0.153637 0.0764717 -1.74946e-19)
(0.176862 0.053691 -1.75586e-19)
(0.199459 0.0315835 8.79278e-20)
(0.221144 0.0105832 0)
(0.241665 -0.00894857 -1.76546e-19)
(0.260817 -0.0267263 -1.76449e-19)
(0.278443 -0.0425425 -4.38055e-22)
(0.294439 -0.0562658 1.76032e-19)
(0.308749 -0.0678377 1.76435e-19)
(0.321365 -0.0772652 -3.52445e-19)
(0.332322 -0.0846108 1.76271e-19)
(0.341689 -0.0899822 0)
(0.349566 -0.093521 -1.74959e-19)
(0.35607 -0.0953928 1.74534e-19)
(0.36133 -0.0957777 1.74039e-19)
(0.365484 -0.0948611 -1.73475e-19)
(0.36867 -0.0928261 1.72845e-19)
(0.37102 -0.0898488 0)
(0.37266 -0.0860943 1.71862e-19)
(0.373707 -0.0817141 3.4181e-19)
(0.374265 -0.076844 -3.40071e-19)
(0.374426 -0.0716074 3.38518e-19)
(0.374275 -0.0661178 1.91566e-22)
(0.3739 -0.0604228 -1.67563e-19)
(0.373378 -0.0544549 3.63533e-19)
(-0.0124096 0.030756 -1.0177e-19)
(-0.0296297 0.08118 -2.21605e-19)
(-0.0395599 0.123565 1.51354e-19)
(-0.0434917 0.156637 -1.16115e-19)
(-0.0419137 0.180517 -3.99795e-20)
(-0.0355784 0.195786 4.0245e-20)
(-0.0251627 0.203284 -8.19964e-20)
(-0.0112861 0.203953 -8.29037e-20)
(0.00549531 0.198763 8.38694e-20)
(0.0246767 0.188662 -1.69396e-19)
(0.0457944 0.174551 6.06024e-23)
(0.0684158 0.157276 8.59913e-20)
(0.0921264 0.137621 0)
(0.116525 0.116318 -8.67608e-20)
(0.14122 0.0940408 -8.73176e-20)
(0.165833 0.0714117 1.74919e-19)
(0.190005 0.0489939 0)
(0.213405 0.0272876 0)
(0.235734 0.00672395 1.75558e-19)
(0.256738 -0.0123411 -1.75578e-19)
(0.276211 -0.0296298 0)
(0.294004 -0.0449437 1.75869e-19)
(0.310022 -0.0581616 -1.75755e-19)
(0.324226 -0.0692358 -3.5125e-19)
(0.336623 -0.0781836 -3.1471e-22)
(0.347268 -0.0850767 1.75582e-19)
(0.356249 -0.0900299 -3.49442e-19)
(0.363684 -0.0931905 1.74956e-19)
(0.369708 -0.0947281 -1.74532e-19)
(0.374465 -0.0948249 -2.24952e-22)
(0.378107 -0.0936664 4.88821e-22)
(0.38078 -0.0914346 -1.72844e-19)
(0.382628 -0.088303 -1.71423e-19)
(0.383783 -0.0844332 -1.70665e-19)
(0.384364 -0.0799729 -7.43221e-22)
(0.384482 -0.075054 0)
(0.384229 -0.0697959 -1.68066e-19)
(0.383691 -0.0643101 3.35038e-19)
(0.382958 -0.0586478 -4.99764e-19)
(0.382123 -0.0527576 5.03884e-23)
(-0.0126244 0.0296208 -3.37804e-20)
(-0.0301279 0.0782445 2.94964e-19)
(-0.0401489 0.119238 -1.51402e-19)
(-0.0439265 0.151273 1.16167e-19)
(-0.0419399 0.174425 -3.15653e-19)
(-0.0349589 0.189222 4.01421e-20)
(-0.0236894 0.196449 -1.62984e-19)
(-0.0087869 0.197003 0)
(0.00915385 0.191815 0)
(0.0295882 0.181804 -1.68752e-19)
(0.0520132 0.16785 8.51295e-20)
(0.075958 0.150786 -2.24713e-22)
(0.100972 0.131392 8.62212e-20)
(0.126619 0.110395 0)
(0.152476 0.0884699 -2.60228e-19)
(0.178139 0.0662364 8.70878e-20)
(0.203226 0.0442572 -1.7421e-19)
(0.227386 0.0230292 0)
(0.250314 0.00297812 0)
(0.271749 -0.0155476 3.63783e-22)
(0.291489 -0.0322798 -1.75037e-19)
(0.309394 -0.0470306 1.74826e-19)
(0.325381 -0.0596904 -1.75219e-19)
(0.339428 -0.0702234 1.74842e-19)
(0.351562 -0.0786572 4.70338e-22)
(0.361856 -0.0850725 4.82782e-22)
(0.370421 -0.0895908 1.74632e-19)
(0.377393 -0.0923647 -1.73596e-19)
(0.382922 -0.0935668 0)
(0.387169 -0.0933802 -1.73106e-19)
(0.390298 -0.0919897 1.72282e-19)
(0.392465 -0.0895747 0)
(0.393822 -0.0863052 1.71422e-19)
(0.394505 -0.0823387 -1.70089e-19)
(0.39464 -0.0778181 1.68955e-19)
(0.394338 -0.0728706 0)
(0.393694 -0.0676112 5.03522e-19)
(0.392794 -0.0621486 -3.33359e-19)
(0.391727 -0.0565374 0)
(0.390606 -0.0507418 1.80227e-19)
(-0.012805 0.0284887 2.6915e-19)
(-0.0305317 0.0752724 -1.47285e-19)
(-0.0406011 0.114809 -3.7727e-20)
(-0.0441929 0.145732 3.85352e-20)
(-0.0417759 0.168085 1.57602e-19)
(-0.0341347 0.182347 0)
(-0.0220023 0.189258 1.62984e-19)
(-0.00606825 0.189667 2.47078e-19)
(0.0130348 0.184468 8.34569e-20)
(0.0347228 0.17455 8.45137e-20)
(0.0584528 0.160773 8.4973e-20)
(0.0837148 0.143956 -2.56676e-19)
(0.11002 0.124868 8.59883e-20)
(0.136898 0.104234 3.44726e-19)
(0.163892 0.0827247 8.68624e-20)
(0.190571 0.060957 8.68323e-20)
(0.216529 0.0394898 1.74208e-19)
(0.241401 0.0188145 0)
(0.26487 -0.00065087 0)
(0.286676 -0.018568 3.49308e-19)
(0.306622 -0.0346798 -6.97558e-19)
(0.324576 -0.0488109 -3.94813e-22)
(0.340475 -0.0608647 0)
(0.354312 -0.0708173 0)
(0.366136 -0.0787074 1.74501e-19)
(0.376043 -0.0846237 0)
(0.384162 -0.0886947 0)
(0.390648 -0.0910769 -1.7227e-19)
(0.395671 -0.0919452 -3.44956e-19)
(0.399404 -0.0914824 0)
(0.402022 -0.0898713 -3.42729e-19)
(0.403692 -0.0872878 -6.83725e-19)
(0.404572 -0.0838976 3.40499e-19)