/*--------------------------------*- C++ -*----------------------------------*\
  =========                 |
  \\      /  F ield         | OpenFOAM: The Open Source CFD Toolbox
   \\    /   O peration     | Website:  https://openfoam.org
    \\  /    A nd           | Version:  7
     \\/     M anipulation  |
\*---------------------------------------------------------------------------*/
FoamFile
{
    version     2.0;
    format      ascii;
    class       volScalarField;
    location    "3.4";
    object      p;
}
// * * * * * * * * * * * * * * * * * * * * * * * * * * * * * * * * * * * * * //

dimensions      [0 2 -2 0 0 0 0];

internalField   nonuniform List<scalar> 
32000
(
0.842928
0.841772
0.841635
0.841699
0.842049
0.842635
0.843414
0.844353
0.845421
0.84659
0.847839
0.849162
0.850572
0.852087
0.853712
0.855445
0.857274
0.859186
0.861167
0.863205
0.865291
0.867422
0.86959
0.87179
0.87401
0.876237
0.878458
0.880663
0.882846
0.885
0.887118
0.889191
0.891213
0.893178
0.895084
0.896925
0.898697
0.900408
0.902041
0.903434
0.841338
0.840274
0.840176
0.840271
0.840644
0.841238
0.84201
0.842925
0.843958
0.845079
0.846264
0.847506
0.84882
0.850223
0.851725
0.853326
0.855017
0.856787
0.858624
0.860516
0.862458
0.864446
0.866478
0.86855
0.870654
0.872778
0.874908
0.877031
0.87914
0.88123
0.883292
0.885318
0.887301
0.889235
0.891116
0.892938
0.894695
0.896393
0.898015
0.899405
0.839674
0.838723
0.838666
0.838797
0.839193
0.839797
0.840564
0.841454
0.842447
0.843514
0.844629
0.845788
0.847005
0.848295
0.849671
0.851135
0.852682
0.854303
0.855989
0.857732
0.859526
0.861368
0.86326
0.865201
0.867186
0.869204
0.871239
0.873278
0.875314
0.87734
0.879347
0.881327
0.883274
0.88518
0.88704
0.888847
0.890592
0.892281
0.893898
0.895287
0.837959
0.837113
0.8371
0.83727
0.837693
0.838308
0.83907
0.839937
0.840888
0.841896
0.842939
0.844013
0.84513
0.846307
0.847553
0.848875
0.850272
0.85174
0.853271
0.85486
0.856501
0.858194
0.859943
0.861751
0.863614
0.865522
0.86746
0.869415
0.871376
0.873337
0.87529
0.877227
0.879139
0.881021
0.882864
0.884658
0.886395
0.888079
0.889695
0.891089
0.836209
0.835482
0.835511
0.83572
0.836167
0.836792
0.837545
0.838388
0.839292
0.840237
0.841204
0.84219
0.843205
0.844264
0.845378
0.846555
0.847799
0.849109
0.850482
0.851911
0.853395
0.854935
0.856539
0.858212
0.859952
0.861749
0.863586
0.865453
0.867338
0.869234
0.871133
0.873028
0.87491
0.87677
0.878597
0.880381
0.882113
0.883796
0.885417
0.886817
0.834413
0.833808
0.83388
0.834129
0.8346
0.835235
0.835981
0.836798
0.837657
0.838539
0.839429
0.840324
0.841235
0.842175
0.843154
0.844184
0.845274
0.846424
0.847633
0.848898
0.85022
0.851604
0.853062
0.8546
0.856215
0.857897
0.859631
0.861406
0.863213
0.865044
0.866892
0.868747
0.8706
0.872438
0.874252
0.876028
0.877758
0.879444
0.881072
0.882483
0.832586
0.83211
0.832226
0.832516
0.833013
0.833658
0.834396
0.835185
0.835997
0.836815
0.837626
0.838429
0.839234
0.840052
0.840895
0.841777
0.84271
0.843697
0.844738
0.845835
0.846991
0.84822
0.849532
0.850933
0.85242
0.853984
0.855611
0.857293
0.859021
0.860787
0.862583
0.864399
0.866223
0.868041
0.869842
0.871613
0.873343
0.875033
0.876673
0.878097
0.830733
0.830392
0.830555
0.830885
0.831408
0.832064
0.832793
0.833553
0.834318
0.835072
0.835803
0.836513
0.837209
0.837904
0.838611
0.839346
0.84012
0.840941
0.841811
0.842736
0.843727
0.844799
0.845964
0.847227
0.848584
0.850027
0.851545
0.853133
0.854781
0.856482
0.858227
0.860003
0.861797
0.863595
0.865385
0.867152
0.868884
0.87058
0.872234
0.873672
0.828861
0.828659
0.828869
0.829242
0.82979
0.830457
0.831177
0.831909
0.832628
0.833318
0.83397
0.834585
0.835172
0.835744
0.836316
0.836902
0.837518
0.838171
0.838868
0.83962
0.840446
0.841362
0.842379
0.843502
0.844726
0.846045
0.847454
0.848946
0.850515
0.852151
0.853843
0.855579
0.857343
0.85912
0.860898
0.862662
0.864396
0.8661
0.867768
0.869222
0.826975
0.826915
0.827173
0.827589
0.828163
0.828839
0.829551
0.830257
0.830933
0.831561
0.832134
0.832654
0.833133
0.833583
0.83402
0.83446
0.834917
0.835401
0.835924
0.836505
0.837167
0.837927
0.838796
0.839776
0.840866
0.842062
0.84336
0.844757
0.846245
0.847815
0.849454
0.851147
0.85288
0.854636
0.856401
0.858161
0.859898
0.861609
0.863292
0.864762
0.825081
0.825164
0.825472
0.825931
0.82653
0.827215
0.82792
0.828603
0.829238
0.829807
0.830303
0.83073
0.831101
0.831432
0.831737
0.832032
0.832331
0.832647
0.832997
0.83341
0.833909
0.834514
0.835233
0.83607
0.837025
0.838097
0.839285
0.840586
0.841993
0.843496
0.84508
0.84673
0.848429
0.850163
0.851915
0.85367
0.855408
0.857124
0.858821
0.860307
0.823187
0.823412
0.823768
0.82427
0.824893
0.825587
0.826289
0.826952
0.827549
0.828062
0.828484
0.828821
0.829088
0.829302
0.829478
0.829631
0.829773
0.829923
0.830104
0.830352
0.830691
0.831141
0.83171
0.832404
0.833225
0.834174
0.835253
0.836458
0.837784
0.839218
0.840746
0.84235
0.844014
0.845723
0.84746
0.849208
0.850944
0.852663
0.854371
0.855874
0.821296
0.821662
0.822066
0.82261
0.823257
0.823961
0.824661
0.825309
0.825872
0.826332
0.826684
0.826935
0.827103
0.827204
0.827254
0.827267
0.827257
0.827245
0.827263
0.827349
0.827531
0.827827
0.828247
0.828799
0.829487
0.830315
0.831285
0.832396
0.83364
0.835004
0.836473
0.83803
0.839656
0.841338
0.843057
0.844795
0.846525
0.848241
0.849955
0.851459
0.819414
0.819916
0.820369
0.820953
0.821624
0.822341
0.823043
0.823677
0.824211
0.824624
0.82491
0.825081
0.825154
0.825147
0.825076
0.824953
0.824795
0.824628
0.824489
0.824418
0.824445
0.824589
0.824862
0.825273
0.825831
0.82654
0.827403
0.82842
0.829582
0.830876
0.832284
0.83379
0.835377
0.837028
0.838727
0.840449
0.84217
0.843879
0.845595
0.847109
0.817545
0.818177
0.818677
0.819303
0.819999
0.82073
0.821437
0.822063
0.822572
0.822942
0.82317
0.823266
0.823249
0.82314
0.822952
0.822699
0.8224
0.822085
0.821795
0.821573
0.821449
0.821443
0.821572
0.821847
0.822277
0.822869
0.823628
0.824551
0.82563
0.826851
0.828196
0.829649
0.831194
0.832812
0.834485
0.836189
0.837895
0.839591
0.841302
0.84282
0.815691
0.816446
0.816993
0.817659
0.818384
0.819133
0.819846
0.820468
0.820957
0.821291
0.821467
0.821496
0.821397
0.821189
0.82089
0.820514
0.820082
0.819628
0.819195
0.818827
0.818556
0.818405
0.818393
0.818534
0.81884
0.819319
0.819975
0.820805
0.821801
0.822947
0.824227
0.825625
0.827125
0.828707
0.83035
0.832028
0.833712
0.835388
0.837087
0.838602
0.813854
0.814723
0.815316
0.816025
0.816779
0.817549
0.818274
0.818895
0.81937
0.819676
0.819808
0.819777
0.819601
0.819302
0.818898
0.818406
0.81785
0.817265
0.816697
0.816189
0.815776
0.815485
0.815337
0.815349
0.815535
0.815904
0.816459
0.817196
0.818107
0.819177
0.820391
0.821732
0.823183
0.824725
0.826333
0.82798
0.829635
0.831283
0.832961
0.834466
0.812036
0.813009
0.813647
0.8144
0.815187
0.815981
0.816721
0.817346
0.817813
0.818098
0.818195
0.818111
0.817866
0.817481
0.816979
0.81638
0.815708
0.815002
0.814306
0.813665
0.813117
0.812691
0.812412
0.8123
0.812371
0.812633
0.813089
0.813734
0.81456
0.815553
0.816699
0.817981
0.819381
0.820878
0.822445
0.824054
0.825672
0.827284
0.828933
0.830423
0.810239
0.811305
0.811987
0.812784
0.813608
0.814429
0.815187
0.815821
0.816287
0.816559
0.816628
0.816499
0.816191
0.815729
0.815137
0.814439
0.813661
0.812842
0.812027
0.81126
0.810583
0.810028
0.809624
0.809394
0.809355
0.809514
0.809873
0.810426
0.811166
0.812082
0.813159
0.814381
0.815726
0.817172
0.818692
0.820256
0.821831
0.823398
0.825009
0.826478
0.808461
0.80961
0.810336
0.811179
0.812041
0.812891
0.813671
0.814319
0.81479
0.815056
0.815105
0.81494
0.814578
0.814046
0.813372
0.812583
0.811708
0.810785
0.809857
0.808972
0.808173
0.807496
0.806974
0.806633
0.806489
0.806549
0.806812
0.807275
0.807931
0.80877
0.809777
0.810935
0.812222
0.813613
0.815081
0.816593
0.818115
0.819631
0.821193
0.822632
0.806704
0.807923
0.808692
0.809582
0.810484
0.811367
0.812172
0.812839
0.813321
0.813589
0.813625
0.81343
0.813022
0.812429
0.811682
0.81081
0.809846
0.808827
0.807795
0.8068
0.805885
0.805094
0.804462
0.804017
0.803773
0.803736
0.803907
0.804281
0.804855
0.805617
0.806553
0.807645
0.80887
0.810202
0.81161
0.813064
0.814528
0.815983
0.817488
0.81889
0.804966
0.806244
0.807054
0.807992
0.808936
0.809855
0.810688
0.811378
0.811877
0.812152
0.812182
0.811966
0.81152
0.810875
0.810063
0.809117
0.80807
0.806962
0.805834
0.804736
0.803716
0.802819
0.802083
0.801539
0.8012
0.801071
0.801152
0.801442
0.801935
0.802621
0.803486
0.804509
0.805668
0.806935
0.80828
0.809669
0.811068
0.812455
0.813894
0.815249
0.803246
0.80457
0.80542
0.806406
0.807394
0.808351
0.809217
0.809934
0.810455
0.810741
0.810772
0.810541
0.810066
0.809377
0.808508
0.807494
0.806373
0.805183
0.803967
0.802775
0.801657
0.800661
0.79983
0.799192
0.798763
0.798546
0.798542
0.79875
0.799165
0.799776
0.800568
0.801521
0.802611
0.803811
0.805087
0.806406
0.807733
0.809046
0.810411
0.811712
0.801541
0.802903
0.80379
0.804823
0.805856
0.806854
0.807756
0.808504
0.809049
0.809353
0.809388
0.80915
0.808653
0.807926
0.807008
0.805934
0.804744
0.803479
0.802183
0.800906
0.799698
0.798611
0.79769
0.796965
0.79645
0.79615
0.796066
0.796196
0.796536
0.797074
0.797793
0.798674
0.799692
0.800821
0.802025
0.80327
0.804521
0.805754
0.807038
0.80828
0.799851
0.801238
0.802161
0.803239
0.804319
0.80536
0.8063
0.807082
0.807656
0.807979
0.808024
0.807784
0.807271
0.806514
0.805552
0.804425
0.803173
0.80184
0.800471
0.799115
0.797825
0.796655
0.795651
0.794844
0.794249
0.793871
0.793711
0.793768
0.794036
0.794502
0.795149
0.795957
0.796903
0.797958
0.799087
0.800254
0.801424
0.802575
0.803773
0.804952
0.798173
0.799576
0.800531
0.801652
0.802779
0.803864
0.804845
0.805664
0.806268
0.806615
0.806673
0.806434
0.80591
0.805129
0.804129
0.802953
0.801645
0.80025
0.798815
0.797389
0.796024
0.794778
0.793697
0.792815
0.792145
0.791695
0.791465
0.791453
0.791652
0.792048
0.792624
0.79336
0.794233
0.795213
0.796264
0.79735
0.798438
0.799502
0.80061
0.801723
0.796503
0.797911
0.798895
0.800058
0.801231
0.802362
0.803386
0.804244
0.804881
0.805251
0.805325
0.805092
0.80456
0.803758
0.802724
0.801504
0.800145
0.798696
0.797201
0.79571
0.794278
0.792963
0.791814
0.790862
0.790124
0.789607
0.789312
0.789236
0.78937
0.789699
0.790206
0.790871
0.791671
0.792575
0.793547
0.794551
0.795553
0.796529
0.797543
0.798572
0.794836
0.79624
0.797249
0.798453
0.799673
0.80085
0.801918
0.802815
0.803485
0.803882
0.803972
0.803746
0.803209
0.802388
0.801323
0.800063
0.798659
0.79716
0.795611
0.794063
0.792572
0.791195
0.789984
0.78897
0.78817
0.787592
0.787237
0.787101
0.787174
0.78744
0.787881
0.788476
0.789204
0.790032
0.790924
0.791845
0.792763
0.793652
0.794577
0.795536
0.793166
0.794558
0.79559
0.796833
0.798098
0.799322
0.800435
0.801372
0.802074
0.802496
0.802604
0.802384
0.801843
0.801004
0.799911
0.798615
0.797171
0.795627
0.794031
0.792432
0.790888
0.789458
0.788191
0.787121
0.786266
0.785633
0.785224
0.785033
0.785048
0.785254
0.785631
0.78616
0.786816
0.787569
0.788382
0.789221
0.790057
0.790863
0.7917
0.792593
0.791486
0.79286
0.793914
0.795192
0.796501
0.797772
0.79893
0.799906
0.80064
0.801086
0.801211
0.800997
0.80045
0.799595
0.798476
0.797147
0.795666
0.794083
0.792444
0.790801
0.789211
0.787734
0.78642
0.785301
0.784397
0.783715
0.783256
0.783015
0.782976
0.783125
0.783442
0.783905
0.784492
0.785171
0.785907
0.786668
0.787424
0.788151
0.788905
0.78973
0.789789
0.791141
0.792214
0.793525
0.794878
0.796195
0.797398
0.798411
0.799175
0.799644
0.799782
0.799572
0.799018
0.798147
0.797004
0.795646
0.794132
0.792513
0.790837
0.789155
0.787527
0.786011
0.784656
0.783496
0.782549
0.781823
0.78132
0.781031
0.780942
0.781037
0.781295
0.781695
0.782214
0.782822
0.783484
0.784171
0.784854
0.785507
0.786184
0.786946
0.78807
0.789397
0.790487
0.791828
0.793223
0.794586
0.79583
0.79688
0.797672
0.79816
0.798309
0.7981
0.797538
0.79665
0.795483
0.794098
0.792555
0.790905
0.789197
0.787483
0.785822
0.784274
0.782886
0.781691
0.780707
0.779943
0.779399
0.779066
0.778931
0.778974
0.779175
0.779514
0.779967
0.780506
0.781099
0.781717
0.782333
0.782921
0.783531
0.784238
0.786321
0.787622
0.788726
0.790096
0.79153
0.792937
0.794222
0.795305
0.796123
0.796628
0.796783
0.796572
0.795998
0.795092
0.793903
0.792493
0.790924
0.789247
0.787511
0.785771
0.784085
0.782512
0.781097
0.779873
0.778858
0.778061
0.77748
0.777107
0.776926
0.776919
0.777066
0.777345
0.777734
0.778206
0.778734
0.77929
0.779848
0.780381
0.780937
0.781603
0.784535
0.78581
0.786928
0.788325
0.789797
0.791243
0.792566
0.793681
0.794521
0.795038
0.795196
0.794977
0.79439
0.793465
0.792254
0.790822
0.789229
0.787529
0.785771
0.784011
0.782306
0.780714
0.779279
0.778032
0.776992
0.776165
0.775551
0.775139
0.774915
0.774859
0.774951
0.775171
0.775497
0.775906
0.776373
0.776873
0.777382
0.777874
0.778391
0.779033
0.782705
0.783958
0.785089
0.786512
0.788018
0.789502
0.790858
0.792001
0.79286
0.793384
0.793539
0.793309
0.792705
0.791759
0.790527
0.789075
0.787462
0.785744
0.783969
0.782193
0.780475
0.778871
0.777422
0.776158
0.775098
0.774246
0.773601
0.773152
0.772885
0.772779
0.772816
0.772976
0.77324
0.773587
0.773997
0.774446
0.774915
0.775379
0.775878
0.776519
0.780826
0.782061
0.783206
0.784653
0.78619
0.787706
0.789092
0.790259
0.791132
0.791658
0.791805
0.79156
0.790936
0.789969
0.788717
0.787246
0.785617
0.783884
0.782098
0.780313
0.778588
0.776976
0.775519
0.774244
0.773167
0.772293
0.771619
0.771135
0.770823
0.770666
0.770646
0.770745
0.770946
0.771232
0.771585
0.771988
0.772424
0.772872
0.773372
0.77404
0.778892
0.780115
0.781274
0.782745
0.784309
0.785853
0.787265
0.78845
0.789331
0.789854
0.789988
0.789725
0.789078
0.788089
0.786819
0.785332
0.78369
0.781947
0.780154
0.778365
0.776639
0.775027
0.773566
0.772283
0.771193
0.770299
0.769598
0.769077
0.768719
0.768509
0.768429
0.768464
0.768598
0.768819
0.769113
0.76947
0.769877
0.770319
0.770838
0.771565
0.776897
0.778116
0.779289
0.780782
0.782372
0.783939
0.785371
0.786569
0.787453
0.787968
0.788085
0.787799
0.787128
0.786117
0.784829
0.783329
0.781678
0.77993
0.778135
0.776349
0.774627
0.773019
0.771559
0.770271
0.76917
0.768258
0.767529
0.76697
0.766565
0.766299
0.766155
0.766119
0.76618
0.766329
0.766557
0.766859
0.767234
0.767677
0.768241
0.769068
0.774837
0.77606
0.777249
0.778763
0.780374
0.781961
0.783409
0.784614
0.785494
0.785995
0.786092
0.78578
0.785084
0.784052
0.782748
0.781238
0.779582
0.777833
0.776042
0.774264
0.772552
0.770951
0.769494
0.768204
0.767093
0.766163
0.765406
0.764808
0.764353
0.764028
0.763815
0.763703
0.763682
0.763745
0.763888
0.764111
0.764427
0.764859
0.765509
0.766557
0.772711
0.773947
0.775151
0.776685
0.778314
0.779918
0.781376
0.782582
0.783451
0.783935
0.784007
0.783668
0.782947
0.781895
0.780578
0.779061
0.777404
0.775659
0.773878
0.772112
0.770414
0.768824
0.767373
0.766082
0.764962
0.764013
0.763226
0.762587
0.762081
0.761693
0.761408
0.761212
0.761098
0.76106
0.761091
0.76119
0.76137
0.761663
0.762183
0.763392
0.907712
0.915193
0.919183
0.923443
0.926251
0.928731
0.930619
0.932247
0.933598
0.934746
0.935692
0.936533
0.937226
0.937772
0.938169
0.938447
0.938614
0.938662
0.938627
0.938503
0.93831
0.93803
0.937664
0.937228
0.936715
0.93611
0.935395
0.934559
0.933606
0.932514
0.931278
0.929893
0.928334
0.926634
0.92477
0.922805
0.920704
0.918608
0.91649
0.914839
0.903708
0.911724
0.916034
0.920525
0.923505
0.926084
0.928078
0.929742
0.931139
0.932339
0.933351
0.934217
0.934926
0.935514
0.93596
0.936265
0.936445
0.936527
0.936524
0.936434
0.936261
0.936002
0.935668
0.93526
0.934768
0.934187
0.933494
0.932677
0.93173
0.930655
0.929433
0.928054
0.926509
0.924811
0.922961
0.921006
0.918916
0.916824
0.914718
0.913069
0.899605
0.908208
0.912838
0.917577
0.920733
0.92342
0.925518
0.927225
0.928668
0.929919
0.930995
0.931885
0.932616
0.933246
0.933738
0.934072
0.934272
0.934391
0.934419
0.934364
0.934212
0.933976
0.933676
0.933295
0.932823
0.932265
0.931594
0.930797
0.929862
0.928804
0.927599
0.92623
0.924703
0.923013
0.921179
0.919239
0.917162
0.915075
0.912983
0.911338
0.895406
0.904647
0.909585
0.914608
0.917932
0.920746
0.922927
0.924704
0.926196
0.92749
0.92861
0.929537
0.930308
0.930971
0.931497
0.931867
0.932102
0.932254
0.932311
0.932286
0.932165
0.931957
0.931687
0.93133
0.930882
0.930345
0.929693
0.92892
0.928005
0.926964
0.925776
0.924422
0.922914
0.92124
0.919426
0.917498
0.915439
0.913362
0.911282
0.909645
0.891116
0.901043
0.906286
0.911615
0.915106
0.918057
0.920315
0.922173
0.923717
0.925052
0.926209
0.927178
0.927996
0.92869
0.929245
0.929655
0.929931
0.930116
0.930202
0.930204
0.930118
0.929942
0.929699
0.929367
0.928942
0.928427
0.927796
0.927046
0.926156
0.925133
0.923963
0.922631
0.921143
0.919491
0.917698
0.915785
0.913746
0.911681
0.909612
0.907986
0.886744
0.897395
0.902953
0.908595
0.912261
0.915348
0.917692
0.919627
0.921227
0.922605
0.923802
0.924813
0.925675
0.926403
0.92699
0.927439
0.927756
0.927974
0.928091
0.928122
0.92807
0.927926
0.92771
0.927405
0.927004
0.926513
0.925905
0.925178
0.924314
0.923313
0.922164
0.920856
0.919391
0.917763
0.915994
0.914098
0.91208
0.91003
0.907974
0.906358
0.882296
0.893707
0.899588
0.905548
0.909396
0.91262
0.915057
0.917068
0.918726
0.920149
0.921388
0.922442
0.923346
0.92411
0.924731
0.925219
0.925577
0.925828
0.925978
0.92604
0.926021
0.925911
0.925722
0.925444
0.925069
0.924602
0.924019
0.923317
0.922479
0.921503
0.920379
0.919095
0.917657
0.916055
0.914312
0.912436
0.910442
0.908409
0.906365
0.904761
0.877783
0.889981
0.896192
0.902476
0.906511
0.909875
0.912409
0.914497
0.916216
0.917687
0.918969
0.920064
0.921009
0.921812
0.922468
0.922995
0.923393
0.923678
0.923862
0.923956
0.923972
0.923896
0.923734
0.923486
0.923137
0.922695
0.922138
0.921462
0.920653
0.919703
0.918605
0.917349
0.915939
0.914366
0.912653
0.9108
0.908829
0.906817
0.904788
0.903194
0.873217
0.886221
0.892769
0.899381
0.903608
0.907114
0.90975
0.911916
0.913697
0.915218
0.916545
0.917682
0.918668
0.919508
0.920203
0.920768
0.921204
0.921525
0.921743
0.921872
0.921922
0.921882
0.921748
0.921528
0.921207
0.920791
0.920264
0.919615
0.918834
0.917912
0.916843
0.915618
0.914237
0.912696
0.911014
0.909187
0.907242
0.905254
0.903241
0.901656
0.868612
0.882433
0.889323
0.896264
0.900688
0.904338
0.90708
0.909326
0.911171
0.912744
0.914117
0.915295
0.916322
0.9172
0.917934
0.918537
0.919012
0.919368
0.919621
0.919787
0.919871
0.919867
0.919762
0.919573
0.91928
0.918892
0.918394
0.917772
0.917022
0.91613
0.915091
0.913899
0.912551
0.911043
0.909395
0.907598
0.90568
0.903717
0.901723
0.900146
0.864001
0.878622
0.885857
0.893128
0.897753
0.901548
0.9044
0.906727
0.90864
0.910266
0.911686
0.912906
0.913974
0.91489
0.915664
0.916304
0.916816
0.917209
0.917497
0.917701
0.917819
0.917852
0.917776
0.917618
0.917356
0.916996
0.916527
0.915934
0.915215
0.914356
0.913348
0.912192
0.910878
0.909407
0.907794
0.906031
0.904144
0.902206
0.900234
0.898665
0.8594
0.874793
0.882375
0.889974
0.894802
0.898746
0.901711
0.904123
0.906104
0.907786
0.909254
0.910515
0.911626
0.91258
0.913394
0.914071
0.914619
0.915048
0.915371
0.915614
0.915766
0.915835
0.915791
0.915664
0.915434
0.915101
0.914664
0.914101
0.913413
0.912589
0.911615
0.910496
0.909217
0.907786
0.906212
0.904486
0.902631
0.900721
0.898772
0.897212
0.854593
0.870949
0.878882
0.886803
0.891839
0.895933
0.899015
0.901514
0.903566
0.905304
0.906821
0.908125
0.909278
0.910271
0.911126
0.911838
0.912421
0.912887
0.913244
0.913526
0.913712
0.913816
0.913805
0.91371
0.913513
0.913208
0.912803
0.912272
0.911616
0.910827
0.90989
0.908811
0.90757
0.906181
0.904648
0.902963
0.901141
0.899262
0.897339
0.895789
0.850001
0.867103
0.875383
0.88362
0.888863
0.893111
0.896311
0.898902
0.901026
0.902823
0.904389
0.905737
0.906931
0.907964
0.908858
0.909606
0.910223
0.910725
0.911118
0.911437
0.911657
0.911797
0.91182
0.911756
0.911593
0.911317
0.910944
0.910447
0.909824
0.909072
0.908174
0.907136
0.905935
0.904591
0.903103
0.90146
0.899675
0.897828
0.895933
0.894393
0.845426
0.86326
0.871883
0.880425
0.885878
0.890281
0.893603
0.896288
0.898486
0.900343
0.901957
0.90335
0.904586
0.905659
0.906591
0.907375
0.908025
0.908563
0.908992
0.909347
0.909602
0.909776
0.909834
0.909801
0.909673
0.909428
0.909086
0.908624
0.908037
0.907322
0.906465
0.90547
0.904313
0.903017
0.901575
0.899978
0.898232
0.896421
0.894555
0.893026
0.840879
0.859348
0.868387
0.877222
0.882885
0.887446
0.890891
0.893674
0.895947
0.897864
0.899528
0.900966
0.902244
0.903357
0.904326
0.905144
0.905829
0.906403
0.906867
0.907258
0.907547
0.907755
0.907848
0.907845
0.907753
0.90754
0.907229
0.906803
0.906256
0.905579
0.904763
0.903813
0.902704
0.901457
0.900064
0.898516
0.896812
0.89504
0.893204
0.891688
0.836394
0.855417
0.8649
0.874013
0.879886
0.884606
0.888178
0.89106
0.89341
0.895388
0.897101
0.898586
0.899906
0.901058
0.902063
0.902916
0.903635
0.904244
0.904743
0.905169
0.905492
0.905732
0.905863
0.90589
0.905832
0.905653
0.905375
0.904983
0.904478
0.903841
0.903066
0.902165
0.901106
0.899912
0.898569
0.897074
0.895417
0.893685
0.891881
0.89038
0.831991
0.85168
0.86143
0.870802
0.876884
0.881763
0.885466
0.888448
0.890876
0.892916
0.894679
0.896212
0.897573
0.898763
0.899805
0.900692
0.901445
0.902089
0.902623
0.903082
0.903439
0.903708
0.903877
0.903936
0.903909
0.903766
0.903522
0.903166
0.902703
0.902107
0.901376
0.900524
0.899518
0.898379
0.89709
0.895652
0.894045
0.892357
0.890587
0.889102
0.827677
0.847983
0.857981
0.867594
0.873882
0.878921
0.882756
0.88584
0.888347
0.89045
0.892264
0.893845
0.895248
0.896476
0.897554
0.898474
0.89926
0.899938
0.900505
0.900996
0.901388
0.901686
0.901891
0.901982
0.901985
0.901879
0.901671
0.901351
0.90093
0.900377
0.899691
0.89889
0.89794
0.896859
0.895627
0.89425
0.892698
0.891057
0.889324
0.887856
0.823456
0.844317
0.854558
0.864391
0.870883
0.87608
0.880051
0.883238
0.885824
0.887991
0.889857
0.891486
0.892931
0.894196
0.89531
0.896263
0.897082
0.897793
0.898391
0.898913
0.899339
0.899664
0.899904
0.900029
0.90006
0.899991
0.89982
0.899538
0.899158
0.898649
0.898012
0.897263
0.896371
0.895351
0.894181
0.892868
0.891375
0.889786
0.888091
0.886642
0.819337
0.840691
0.851165
0.861198
0.867887
0.873246
0.877352
0.880644
0.88331
0.885542
0.887461
0.889137
0.890623
0.891926
0.893076
0.89406
0.894911
0.895653
0.896282
0.896833
0.897293
0.897645
0.897917
0.898076
0.898137
0.898104
0.897969
0.897726
0.897388
0.896924
0.896336
0.895641
0.89481
0.893853
0.892749
0.891504
0.890076
0.888544
0.886891
0.885462
0.815326
0.837117
0.847802
0.858016
0.864899
0.870418
0.874661
0.878059
0.880807
0.883104
0.885075
0.886799
0.888326
0.889666
0.890851
0.891865
0.892745
0.893518
0.894178
0.894757
0.895249
0.895627
0.895929
0.896124
0.896213
0.896217
0.896119
0.895914
0.895618
0.895202
0.894664
0.894025
0.893256
0.892366
0.891331
0.890159
0.8888
0.887331
0.885724
0.884314
0.811431
0.833528
0.84447
0.854848
0.861919
0.867601
0.871981
0.875485
0.878316
0.880679
0.882702
0.884474
0.88604
0.887416
0.888635
0.889677
0.890587
0.89139
0.892079
0.892685
0.893206
0.893612
0.893941
0.894172
0.894291
0.894331
0.894268
0.894103
0.893849
0.89348
0.892995
0.892413
0.891708
0.890887
0.889926
0.888832
0.887548
0.886147
0.88459
0.8832
0.807661
0.829708
0.841166
0.851695
0.858952
0.864796
0.869315
0.872926
0.875841
0.878269
0.880344
0.882163
0.883767
0.885178
0.886427
0.887498
0.888435
0.889268
0.889986
0.890618
0.891165
0.891599
0.891955
0.892221
0.892369
0.892445
0.892417
0.892292
0.892081
0.89176
0.891327
0.890803
0.890165
0.889414
0.888531
0.887519
0.886317
0.88499
0.88349
0.882122
0.804053
0.826158
0.837894
0.848557
0.856
0.862005
0.866665
0.870383
0.873383
0.875876
0.878004
0.879867
0.881509
0.882953
0.884231
0.885328
0.886292
0.887153
0.8879
0.888555
0.889127
0.889589
0.889971
0.89027
0.890448
0.890558
0.890566
0.89048
0.890311
0.890038
0.88966
0.889195
0.888625
0.887947
0.887145
0.88622
0.885107
0.883861
0.882425
0.881079
0.8006
0.822712
0.834654
0.845437
0.853065
0.859232
0.864033
0.867858
0.870944
0.873502
0.875682
0.87759
0.879268
0.880742
0.882045
0.883169
0.884159
0.885046
0.88582
0.886498
0.887093
0.887582
0.88799
0.888319
0.888527
0.88867
0.888715
0.888667
0.888541
0.888316
0.887994
0.887587
0.887086
0.886483
0.885766
0.884934
0.883918
0.882759
0.881395
0.880076
0.797049
0.819315
0.831452
0.842339
0.85015
0.856479
0.86142
0.865354
0.868525
0.871148
0.873379
0.875331
0.877043
0.878546
0.879873
0.881021
0.882036
0.882948
0.883747
0.884446
0.885064
0.885578
0.88601
0.886369
0.886607
0.886781
0.886863
0.886852
0.886768
0.886593
0.886326
0.885979
0.885547
0.885022
0.884393
0.88366
0.882748
0.881685
0.880401
0.879114
0.793884
0.815981
0.828291
0.839265
0.847258
0.853749
0.858829
0.862872
0.866128
0.868816
0.871099
0.873093
0.874837
0.876366
0.877715
0.878886
0.879924
0.880859
0.881682
0.8824
0.883041
0.883577
0.884033
0.884418
0.884688
0.884891
0.885009
0.885036
0.884994
0.884867
0.884657
0.88437
0.884008
0.883563
0.883026
0.882396
0.881597
0.88064
0.879446
0.878198
0.790835
0.812716
0.825173
0.836219
0.844391
0.851044
0.856263
0.860415
0.863755
0.866509
0.868842
0.870877
0.87265
0.874202
0.875572
0.876765
0.877824
0.878779
0.879624
0.880361
0.881022
0.881579
0.882058
0.882467
0.882768
0.882999
0.883153
0.883218
0.883218
0.883139
0.882984
0.882759
0.882467
0.882104
0.881662
0.881142
0.880462
0.879624
0.878531
0.877332
0.787899
0.809528
0.822101
0.833207
0.841555
0.848367
0.853724
0.857984
0.861409
0.86423
0.866611
0.868685
0.870484
0.872057
0.873446
0.874658
0.875738
0.87671
0.877575
0.878328
0.879008
0.879585
0.880085
0.880516
0.880848
0.881106
0.881294
0.881397
0.881438
0.881407
0.881307
0.881144
0.880924
0.880644
0.880301
0.879894
0.879343
0.878636
0.877659
0.876519
0.785098
0.806418
0.819077
0.830231
0.838755
0.845722
0.851217
0.855585
0.859094
0.861981
0.864408
0.866518
0.86834
0.869932
0.871338
0.872566
0.873665
0.874651
0.875535
0.876302
0.877
0.877594
0.878116
0.878566
0.878927
0.879211
0.879433
0.879574
0.879654
0.879672
0.879625
0.879525
0.879376
0.879183
0.878939
0.878652
0.878236
0.877678
0.876834
0.875766
0.782441
0.803388
0.816105
0.827298
0.835996
0.843113
0.848745
0.853219
0.856814
0.859765
0.862236
0.864378
0.86622
0.867829
0.869249
0.870492
0.871608
0.872605
0.873505
0.874285
0.874997
0.875608
0.876149
0.876617
0.877005
0.877316
0.877569
0.877748
0.877866
0.877932
0.877938
0.8779
0.877824
0.877717
0.877576
0.877411
0.87714
0.876747
0.876058
0.87508
0.779929
0.800436
0.813189
0.824414
0.833281
0.840545
0.84631
0.850892
0.85457
0.857583
0.860096
0.862265
0.864125
0.865749
0.86718
0.868435
0.869566
0.870573
0.871484
0.872277
0.873
0.873626
0.874186
0.87467
0.875082
0.875419
0.875702
0.875918
0.876073
0.876187
0.876245
0.876269
0.876265
0.876245
0.876208
0.87617
0.876052
0.875841
0.875335
0.874469
0.777569
0.797563
0.81033
0.821586
0.830616
0.838021
0.843917
0.848605
0.852365
0.855437
0.857989
0.860182
0.862057
0.863692
0.865133
0.866398
0.86754
0.868555
0.869474
0.870279
0.87101
0.87165
0.872225
0.872724
0.873159
0.873522
0.873831
0.874084
0.874275
0.874436
0.874546
0.874631
0.874699
0.874766
0.874834
0.874924
0.874968
0.874957
0.874667
0.873945
0.775367
0.794768
0.807538
0.818824
0.828007
0.83555
0.841572
0.846365
0.850203
0.85333
0.855918
0.85813
0.860019
0.861662
0.863109
0.864381
0.865532
0.866552
0.867477
0.86829
0.869028
0.869679
0.870267
0.87078
0.871235
0.871623
0.871957
0.872245
0.872472
0.872678
0.872839
0.872984
0.873124
0.873277
0.87345
0.873671
0.873883
0.874092
0.874055
0.873522
0.773332
0.792061
0.804828
0.816146
0.82547
0.833143
0.839287
0.844179
0.848091
0.851268
0.853887
0.856116
0.858013
0.859661
0.861112
0.862389
0.863543
0.864567
0.865493
0.866313
0.867054
0.867715
0.868312
0.868839
0.86931
0.869722
0.870079
0.870401
0.870664
0.870913
0.871124
0.871328
0.871539
0.871777
0.872053
0.872406
0.872794
0.87324
0.873501
0.873218
0.77148
0.789455
0.802217
0.81357
0.823019
0.830813
0.837073
0.842056
0.846037
0.849259
0.851903
0.854143
0.856045
0.857694
0.859145
0.860423
0.861577
0.8626
0.863524
0.864348
0.86509
0.865757
0.866361
0.8669
0.867384
0.867817
0.868198
0.868551
0.86885
0.86914
0.869401
0.869663
0.869944
0.870264
0.870642
0.871125
0.871694
0.872395
0.873002
0.873057
0.769806
0.786893
0.799638
0.81102
0.820582
0.828493
0.834868
0.839942
0.843991
0.847257
0.849926
0.852175
0.85408
0.855726
0.857175
0.858452
0.859602
0.860624
0.861543
0.862367
0.863108
0.863781
0.864391
0.86494
0.865438
0.86589
0.866295
0.866677
0.867012
0.867342
0.867654
0.867974
0.868322
0.868724
0.869203
0.869816
0.870567
0.87154
0.872549
0.873066
0.76819
0.784201
0.796922
0.808337
0.818012
0.826049
0.832546
0.837721
0.841846
0.845165
0.847867
0.85013
0.852042
0.85369
0.855138
0.856417
0.857564
0.858586
0.859502
0.860328
0.861072
0.861751
0.862368
0.86293
0.863443
0.863916
0.864347
0.864758
0.865132
0.865502
0.865866
0.866245
0.866661
0.867143
0.867722
0.868462
0.869397
0.870657
0.872129
0.873283
0.766872
0.781824
0.794535
0.805941
0.815663
0.823775
0.830352
0.835596
0.839768
0.843114
0.845833
0.8481
0.850015
0.851667
0.853116
0.854398
0.855543
0.856565
0.85748
0.858308
0.859054
0.859738
0.86036
0.860933
0.86146
0.861951
0.862405
0.862842
0.863251
0.863659
0.864069
0.864502
0.86498
0.865535
0.866203
0.867059
0.868164
0.869705
0.871676
0.873678
0.762303
0.7762
0.789039
0.800445
0.810175
0.818368
0.825073
0.830412
0.834589
0.837854
0.840461
0.842617
0.844459
0.846069
0.847492
0.848755
0.849876
0.850876
0.851769
0.852578
0.853309
0.853984
0.854604
0.855186
0.85573
0.856248
0.856746
0.857232
0.857714
0.858204
0.858717
0.85927
0.859888
0.860609
0.861481
0.8626
0.864098
0.866329
0.869668
0.874545
0.749421
0.762667
0.77488
0.785729
0.795129
0.803198
0.809934
0.815421
0.819836
0.82339
0.826293
0.828724
0.830812
0.832639
0.834258
0.835703
0.836999
0.83817
0.839232
0.840204
0.8411
0.841933
0.842714
0.843452
0.844154
0.844827
0.845481
0.846123
0.846763
0.847413
0.848087
0.848806
0.849597
0.850506
0.851591
0.852974
0.854838
0.857687
0.862061
0.86837
0.73593
0.748546
0.760094
0.7705
0.779642
0.787599
0.794359
0.799989
0.804633
0.808462
0.811648
0.814345
0.816676
0.818725
0.820549
0.82219
0.823676