/*--------------------------------*- C++ -*----------------------------------*\
  =========                 |
  \\      /  F ield         | OpenFOAM: The Open Source CFD Toolbox
   \\    /   O peration     | Website:  https://openfoam.org
    \\  /    A nd           | Version:  7
     \\/     M anipulation  |
\*---------------------------------------------------------------------------*/
FoamFile
{
    version     2.0;
    format      ascii;
    class       volVectorField;
    location    "3.4";
    object      U;
}
// * * * * * * * * * * * * * * * * * * * * * * * * * * * * * * * * * * * * * //

dimensions      [0 1 -1 0 0 0 0];

internalField   nonuniform List<vector> 
32000
(
(-0.000812861 0.0207767 -7.31486e-22)
(-0.00410033 0.0571958 0)
(-0.00958782 0.0896423 -6.51221e-21)
(-0.0159065 0.117642 0)
(-0.0226833 0.141382 6.78243e-21)
(-0.0295085 0.161295 0)
(-0.0360859 0.177867 7.01305e-21)
(-0.0421932 0.191561 -5.33291e-21)
(-0.0476693 0.202784 2.38536e-24)
(-0.0524021 0.211864 2.60444e-24)
(-0.056319 0.219064 -1.84111e-21)
(-0.0593748 0.224581 7.42919e-21)
(-0.0615485 0.228565 0)
(-0.0628402 0.231134 -1.88871e-21)
(-0.063263 0.232384 1.89657e-21)
(-0.0628379 0.2324 0)
(-0.0615933 0.231263 9.57677e-21)
(-0.0595618 0.229056 -1.92205e-21)
(-0.0567789 0.225862 0)
(-0.0532832 0.221773 3.87465e-21)
(-0.049115 0.216881 3.86934e-21)
(-0.0443155 0.211286 0)
(-0.0389283 0.205088 0)
(-0.0329985 0.19839 0)
(-0.026572 0.191294 0)
(-0.0196947 0.183902 0)
(-0.0124134 0.176312 0)
(-0.00477527 0.168618 0)
(0.00317124 0.16091 -7.72294e-21)
(0.0113775 0.153273 0)
(0.019795 0.145783 7.68815e-21)
(0.0283753 0.138511 0)
(0.0370702 0.131522 0)
(0.0458325 0.124874 0)
(0.0546152 0.11862 -7.59052e-21)
(0.0633674 0.112809 -3.79265e-21)
(0.0720369 0.10749 1.13231e-20)
(0.080587 0.102704 -9.59312e-24)
(0.0889726 0.098577 7.48444e-21)
(0.0968908 0.0953051 -1.24289e-23)
(-0.00120117 0.0215245 0)
(-0.0050383 0.0589228 1.26943e-20)
(-0.0108533 0.0920289 3.25774e-21)
(-0.017372 0.120467 -9.21543e-25)
(-0.0242578 0.144462 -3.39389e-21)
(-0.0311341 0.164471 0)
(-0.0377286 0.181005 6.9877e-21)
(-0.0438333 0.194542 -7.08806e-21)
(-0.0492946 0.205508 0)
(-0.0540053 0.214253 -1.45483e-20)
(-0.0578949 0.22105 0)
(-0.0609188 0.226111 -2.22545e-20)
(-0.0630553 0.2296 0)
(-0.0643021 0.231641 0)
(-0.0646703 0.232339 7.58198e-21)
(-0.0641793 0.231787 -7.60648e-21)
(-0.062856 0.230069 -7.65687e-21)
(-0.0607312 0.227273 0)
(-0.05784 0.223489 2.30767e-20)
(-0.0542205 0.21881 -7.7067e-21)
(-0.0499119 0.213334 -3.82327e-24)
(-0.0449561 0.207162 -2.31775e-20)
(-0.0393975 0.200399 -1.54581e-20)
(-0.0332812 0.19315 -7.75457e-21)
(-0.0266536 0.185523 2.31907e-20)
(-0.0195633 0.177621 -2.31942e-20)
(-0.0120594 0.169547 2.32021e-20)
(-0.00419087 0.161399 -3.08285e-20)
(0.00399278 0.153269 -7.65663e-21)
(0.0124406 0.145245 5.18826e-23)
(0.0211008 0.137406 -2.29607e-20)
(0.0299229 0.129826 -1.52827e-20)
(0.0388574 0.122573 3.04886e-20)
(0.0478552 0.115707 -3.03531e-20)
(0.0568666 0.109284 -7.522e-21)
(0.0658404 0.103357 -3.01563e-20)
(0.0747239 0.0979819 1.96564e-23)
(0.0834779 0.0932095 7.47652e-21)
(0.0920548 0.0891773 -2.97332e-20)
(0.100146 0.0861003 -4.24052e-20)
(-0.00160983 0.0221807 -2.91199e-21)
(-0.00600492 0.0604255 -6.35122e-21)
(-0.0121312 0.0941477 -2.91932e-20)
(-0.0188194 0.123011 0)
(-0.025772 0.147266 3.38277e-21)
(-0.0326495 0.167389 -3.44036e-21)
(-0.0392044 0.183906 -4.19477e-20)
(-0.0452451 0.197314 1.42003e-20)
(-0.0506277 0.208053 -7.18966e-21)
(-0.0552535 0.216488 4.35797e-20)
(-0.0590527 0.222906 1.46813e-20)
(-0.06198 0.227534 7.42571e-21)
(-0.064014 0.230546 -2.98182e-20)
(-0.0651521 0.232076 0)
(-0.065403 0.232238 0)
(-0.0647845 0.231129 1.52017e-20)
(-0.0633229 0.228841 2.83329e-23)
(-0.0610481 0.225467 -1.52897e-20)
(-0.0579932 0.221099 -1.53707e-20)
(-0.0541963 0.215835 -3.0709e-20)
(-0.0496981 0.209778 4.61759e-20)
(-0.0445398 0.203032 4.41115e-23)
(-0.0387659 0.195704 1.14801e-23)
(-0.0324235 0.187907 1.54131e-20)
(-0.0255611 0.179748 -3.08994e-20)
(-0.0182283 0.171336 6.16047e-20)
(-0.010476 0.162778 0)
(-0.00235519 0.154174 1.54069e-20)
(0.00608171 0.145622 1.5379e-20)
(0.0147812 0.13721 3.06756e-20)
(0.0236899 0.129022 5.17522e-23)
(0.0327554 0.121135 0)
(0.041926 0.113618 1.51819e-20)
(0.0511506 0.106534 -1.50653e-20)
(0.0603783 0.0999415 -1.49719e-20)
(0.0695573 0.0938995 4.512e-20)
(0.0786337 0.0884666 -4.47345e-20)
(0.0875679 0.0837046 2.98083e-20)
(0.0963105 0.0797652 -4.43351e-20)
(0.104547 0.0768824 1.67999e-20)
(-0.00203707 0.0227881 2.32368e-20)
(-0.00700134 0.0618326 -2.5291e-20)
(-0.0134255 0.0961224 5.18437e-20)
(-0.020257 0.125383 0)
(-0.0272373 0.149885 2.02257e-20)
(-0.0340671 0.170123 3.4327e-20)
(-0.0405265 0.186631 7.03467e-21)
(-0.0464433 0.199924 7.66258e-24)
(-0.0516851 0.210451 2.1492e-20)
(-0.0561586 0.218591 -7.31411e-21)
(-0.0597984 0.224648 3.65941e-20)
(-0.0625618 0.228861 -4.43171e-20)
(-0.0644268 0.231412 4.47e-20)
(-0.0653892 0.232447 -1.50013e-20)
(-0.0654576 0.232086 1.50639e-20)
(-0.0646484 0.230433 -3.02533e-20)
(-0.0629858 0.227588 -4.55932e-20)
(-0.0604997 0.223645 1.52449e-20)
(-0.0572237 0.218704 -1.53122e-20)
(-0.0531954 0.212865 4.60226e-20)
(-0.0484552 0.206234 -3.07544e-20)
(-0.043046 0.19892 -3.06687e-20)
(-0.0370135 0.191035 0)
(-0.0304054 0.182693 0)
(-0.0232718 0.174007 -3.0658e-20)
(-0.015665 0.16509 -3.07623e-20)
(-0.00763839 0.156051 -3.05911e-20)
(0.000755078 0.146995 0)
(0.00946084 0.138023 0)
(0.018423 0.129227 -6.09302e-20)
(0.027586 0.120694 -6.75554e-23)
(0.0368955 0.112503 3.03918e-20)
(0.0462978 0.104725 -3.01922e-20)
(0.0557398 0.0974264 -3.0154e-20)
(0.0651701 0.0906679 3.01247e-20)
(0.0745361 0.0845108 0)
(0.083783 0.0790198 2.98417e-20)
(0.0928717 0.0742659 -5.92369e-20)
(0.101752 0.070415 5.9051e-20)
(0.110103 0.0677228 -6.70428e-20)
(-0.00247802 0.0233024 -1.16329e-20)
(-0.00801636 0.0630366 1.89714e-20)
(-0.0147233 0.097838 -2.5897e-20)
(-0.0216699 0.12747 0)
(-0.0286396 0.152215 -3.37196e-20)
(-0.035376 0.172576 -2.06024e-20)
(-0.0416868 0.189096 2.78976e-20)
(-0.0474205 0.202296 0)
(-0.0524589 0.212639 -4.2983e-20)
(-0.0567162 0.220514 -1.45143e-20)
(-0.0601312 0.226238 -1.46427e-20)
(-0.0626631 0.230059 2.95446e-20)
(-0.0642914 0.232173 -2.97165e-20)
(-0.065012 0.232735 1.49445e-20)
(-0.0648315 0.231872 0)
(-0.0637658 0.229696 4.53694e-20)
(-0.0618392 0.22631 1.5219e-20)
(-0.059081 0.221815 -3.04459e-20)
(-0.0555245 0.216315 6.09917e-20)
(-0.0512083 0.209914 -6.1102e-20)
(-0.0461739 0.202721 6.10929e-20)
(-0.0404648 0.19485 3.06681e-20)
(-0.0341276 0.186418 0)
(-0.0272124 0.177541 3.06414e-20)
(-0.0197717 0.168337 9.62111e-23)
(-0.01186 0.158923 0)
(-0.0035325 0.149411 3.05905e-20)
(0.00515518 0.139911 -3.05042e-20)
(0.0141458 0.130527 3.03771e-20)
(0.0233812 0.121355 6.0785e-20)
(0.032804 0.112484 -6.05224e-20)
(0.0423575 0.103996 6.03882e-20)
(0.0519862 0.095965 0)
(0.0616356 0.0884574 0)
(0.0712534 0.0815374 5.97328e-20)
(0.080787 0.0752685 0)
(0.0901812 0.0697202 0)
(0.0993965 0.0649723 -5.89045e-20)
(0.108384 0.061205 5.86696e-20)
(0.116817 0.0586975 3.33872e-20)
(-0.00292962 0.0237442 5.79051e-21)
(-0.00904427 0.0640771 0)
(-0.0160187 0.099334 5.15918e-20)
(-0.0230566 0.129305 6.59761e-21)
(-0.0299808 0.154282 6.73277e-21)
(-0.036579 0.174771 4.10263e-20)
(-0.0426906 0.191315 5.55866e-20)
(-0.0481857 0.204442 0)
(-0.0529596 0.214623 1.42952e-20)
(-0.0569359 0.222257 4.32922e-20)
(-0.0600597 0.227672 5.82971e-20)
(-0.062293 0.231127 -1.47225e-20)
(-0.0636166 0.232829 -4.44068e-20)
(-0.0640264 0.23294 0)
(-0.0635296 0.231597 5.99044e-20)
(-0.0621415 0.228917 0)
(-0.0598858 0.22501 9.06375e-20)
(-0.0567923 0.219982 -3.03039e-20)
(-0.0528956 0.21394 0)
(-0.0482346 0.206994 -3.04656e-20)
(-0.0428517 0.199256 -8.06801e-23)
(-0.036792 0.190844 -3.03427e-20)
(-0.0301042 0.181879 -3.04657e-20)
(-0.0228408 0.172481 3.05098e-20)
(-0.0150566 0.162773 -3.04299e-20)
(-0.00680819 0.152874 0)
(0.00184658 0.142903 -3.04129e-20)
(0.0108494 0.132972 3.02967e-20)
(0.0201405 0.123188 0)
(0.0296595 0.113652 0)
(0.039347 0.104455 0)
(0.0491439 0.0956816 -6.01153e-20)
(0.0589927 0.0874068 5.97972e-20)
(0.0688386 0.0796999 0)
(0.0786285 0.0726261 -2.97927e-20)
(0.0883091 0.0662513 0)
(0.0978257 0.060648 5.90167e-20)
(0.107139 0.0559047 -2.92225e-20)
(0.116203 0.0522157 -5.8481e-20)
(0.124683 0.0498851 6.61172e-20)
(-0.00338725 0.0240997 4.03929e-20)
(-0.0100778 0.0649276 -5.65659e-20)
(-0.0173052 0.100576 -9.66372e-20)
(-0.0244092 0.130852 -5.26117e-20)
(-0.031254 0.15605 -1.34309e-20)
(-0.0376738 0.176668 -2.73807e-20)
(-0.0435381 0.19325 -1.24942e-19)
(-0.0487392 0.206326 -4.21817e-20)
(-0.0531896 0.21637 -7.12318e-20)
(-0.0568228 0.223791 -7.21564e-20)
(-0.0595901 0.228925 -1.01915e-19)
(-0.0614575 0.232043 -5.86574e-20)
(-0.0624085 0.233359 1.41877e-22)
(-0.0624402 0.233047 -5.94386e-20)
(-0.0615595 0.231249 -5.99032e-20)
(-0.059782 0.22809 -9.00485e-20)
(-0.0571323 0.223687 6.01043e-20)
(-0.0536412 0.218148 -3.02085e-20)
(-0.0493439 0.211587 0)
(-0.0442805 0.204116 6.05518e-20)
(-0.0384949 0.195853 0)
(-0.0320345 0.186921 1.21471e-19)
(-0.0249505 0.177443 0)
(-0.0172977 0.167544 -3.03761e-20)
(-0.00913348 0.15735 3.04884e-20)
(-0.000517176 0.146985 -6.05164e-20)
(0.00849084 0.136572 0)
(0.0178295 0.126226 -6.04259e-20)
(0.0274363 0.11606 6.01742e-20)
(0.0372484 0.106176 0)
(0.0472044 0.0966685 0)
(0.0572432 0.0876241 0)
(0.067306 0.0791198 -5.94068e-20)
(0.0773367 0.0712263 0)
(0.087282 0.0640096 -5.91968e-20)
(0.0970888 0.0575367 1.1781e-19)
(0.106702 0.0518831 -1.17324e-19)
(0.116083 0.0471441 5.8148e-20)
(0.125191 0.0435281 1.16276e-19)
(0.133685 0.0413646 -6.56613e-20)
(-0.00384751 0.0243686 -5.19351e-20)
(-0.01111 0.0655817 1.04369e-22)
(-0.0185748 0.101556 5.14875e-20)
(-0.0257224 0.132101 1.05118e-19)
(-0.0324574 0.157502 -1.3405e-20)
(-0.0386595 0.17825 -5.45128e-20)
(-0.0442307 0.194883 5.54663e-20)
(-0.0490865 0.207927 8.43755e-20)
(-0.0531566 0.21786 2.85181e-20)
(-0.0563855 0.225096 7.18716e-20)
(-0.0587323 0.229979 5.81689e-20)
(-0.0601685 0.232789 8.78713e-20)
(-0.0606803 0.23375 1.77018e-19)
(-0.0602662 0.233043 8.9054e-20)
(-0.0589344 0.230819 0)
(-0.0567018 0.22721 3.00252e-20)
(-0.0535939 0.222336 2.9851e-20)
(-0.0496426 0.216314 3.00121e-20)
(-0.0448847 0.209259 6.03662e-20)
(-0.0393619 0.201289 -3.04259e-20)
(-0.0331201 0.192528 0)
(-0.0262095 0.1831 -2.45526e-22)
(-0.0186841 0.173133 -6.03455e-20)
(-0.0106014 0.162756 6.03008e-20)
(-0.0020217 0.152099 1.20743e-19)
(0.00699302 0.141291 1.20493e-19)
(0.0163797 0.130458 -9.07173e-23)
(0.026074 0.119721 5.99236e-20)
(0.0360107 0.109193 5.97869e-20)
(0.0461248 0.0989812 -5.96355e-20)
(0.0563525 0.0891831 5.94702e-20)
(0.0666311 0.0798866 5.92917e-20)
(0.0769004 0.0711706 1.18506e-19)
(0.0871039 0.0631065 -2.1398e-22)
(0.0971876 0.0557608 1.76344e-19)
(0.107099 0.0492008 -9.1836e-23)
(0.116783 0.0435036 -5.82113e-20)
(0.126202 0.0387703 -5.82581e-20)
(0.135321 0.0352223 5.76981e-20)
(0.143793 0.0332146 6.50825e-20)
(-0.00430579 0.0245487 4.5962e-20)
(-0.012133 0.0660347 6.26998e-20)
(-0.0198207 0.102264 3.84472e-20)
(-0.0269909 0.133035 -3.93888e-20)
(-0.0335879 0.158621 -6.68104e-20)
(-0.0395371 0.179499 5.45006e-20)
(-0.0447726 0.196193 0)
(-0.0492344 0.209224 5.60462e-20)
(-0.0528697 0.219071 0)
(-0.0556359 0.226151 -1.14858e-19)
(-0.0575008 0.230813 2.89991e-20)
(-0.0584418 0.233347 -1.46122e-19)
(-0.0584487 0.233984 -5.89333e-20)
(-0.0575229 0.232914 2.94606e-20)
(-0.0556746 0.230296 2.0598e-23)
(-0.0529221 0.226267 -2.98538e-20)
(-0.0492925 0.220954 -6.00069e-20)
(-0.0448198 0.214477 -1.20108e-19)
(-0.0395426 0.206958 0)
(-0.0335045 0.19852 -8.2248e-23)
(-0.0267543 0.189289 -6.02134e-20)
(-0.0193453 0.179394 -6.03655e-20)
(-0.0113345 0.168966 6.03442e-20)
(-0.0027827 0.15814 -6.04758e-20)
(0.00624706 0.147049 5.99619e-20)
(0.0156897 0.135826 -1.20107e-19)
(0.0254791 0.1246 -9.20397e-23)
(0.0355477 0.113497 -1.19644e-19)
(0.0458277 0.102634 -5.97855e-20)
(0.0562514 0.0921192 9.22984e-23)
(0.0667531 0.0820541 -2.11247e-22)
(0.0772687 0.0725281 -5.92905e-20)
(0.0877367 0.0636217 -5.90991e-20)
(0.0980999 0.0554064 -3.06312e-22)
(0.108304 0.0479488 -5.86788e-20)
(0.118298 0.0413156 -3.03804e-22)
(0.128027 0.0355843 -5.80228e-20)
(0.137453 0.0308601 1.73164e-19)
(0.146549 0.027376 -5.7697e-20)
(0.154966 0.025512 -6.49399e-20)
(-0.00475768 0.0246398 -4.59612e-20)
(-0.013139 0.0662826 1.25031e-20)
(-0.0210357 0.102692 -3.84682e-20)
(-0.0282099 0.133645 -1.30841e-20)
(-0.0346441 0.159394 5.34407e-20)
(-0.0403082 0.180395 -1.35911e-20)
(-0.0451693 0.197158 1.3796e-20)
(-0.0491914 0.210195 -8.40515e-20)
(-0.0523411 0.21998 2.83326e-20)
(-0.0545892 0.226932 5.73674e-20)
(-0.0559132 0.231405 0)
(-0.0562973 0.233696 1.16634e-19)
(-0.0557363 0.234043 0)
(-0.0542351 0.232644 -1.18106e-19)
(-0.0518064 0.229664 -5.92489e-20)
(-0.0484709 0.225249 0)
(-0.0442584 0.21953 0)
(-0.0392048 0.212633 1.19709e-19)
(-0.0333512 0.204684 5.99612e-20)
(-0.0267438 0.195811 -1.19982e-19)
(-0.0194348 0.186143 5.99828e-20)
(-0.011481 0.175814 0)
(-0.00294286 0.16496 -5.99933e-20)
(0.00611575 0.153717 1.19537e-19)
(0.0156284 0.142224 -5.97811e-20)
(0.0255268 0.130618 -5.97682e-20)
(0.0357413 0.119032 5.95619e-20)
(0.0462014 0.107593 0)
(0.0568364 0.0964242 1.18576e-19)
(0.0675763 0.0856361 -5.91239e-20)
(0.0783534 0.0753316 -5.9069e-20)
(0.0891021 0.0656026 -1.18403e-22)
(0.09976 0.0565302 2.34459e-19)
(0.110269 0.0481865 -1.75336e-19)
(0.120577 0.0406372 0)
(0.130631 0.0339478 -5.81455e-20)
(0.140377 0.0281947 -1.15627e-19)
(0.149781 0.0234854 5.7244e-20)
(0.158822 0.0200629 5.71027e-20)
(0.167149 0.0183305 0)
(-0.00519912 0.0246426 -9.15019e-20)
(-0.0141202 0.0663237 -1.24754e-20)
(-0.0222128 0.102836 1.02133e-19)
(-0.0293748 0.133922 -1.04383e-19)
(-0.0356247 0.159807 0)
(-0.0409758 0.180922 0)
(-0.0454273 0.19776 -2.75606e-20)
(-0.0489683 0.210818 -2.22175e-23)
(-0.0515853 0.220564 2.82751e-20)
(-0.0532633 0.227416 0)
(-0.0539906 0.231732 0)
(-0.0537594 0.233813 -2.91513e-20)
(-0.0525703 0.233905 1.2378e-23)
(-0.0504324 0.232212 2.95317e-20)
(-0.0473622 0.228907 5.92476e-20)
(-0.0433836 0.224142 0)
(-0.0385293 0.218053 5.95513e-20)
(-0.032838 0.210772 -5.97303e-20)
(-0.0263533 0.202431 -1.19461e-19)
(-0.0191251 0.19316 1.19536e-19)
(-0.0112095 0.183093 3.95663e-23)
(-0.00266712 0.172368 -5.97275e-20)
(0.00643817 0.161123 5.97321e-20)
(0.016039 0.149501 -1.19369e-19)
(0.0260652 0.137644 0)
(0.0364448 0.125691 5.94817e-20)
(0.0471048 0.11378 -1.18641e-19)
(0.0579718 0.102042 5.91374e-20)
(0.068972 0.090601 -5.91847e-20)
(0.0800331 0.079572 -5.89311e-20)
(0.0910855 0.0690596 -5.88746e-20)
(0.102062 0.0591573 2.34096e-19)
(0.112901 0.049947 -1.75027e-19)
(0.123542 0.0415006 -1.16374e-19)
(0.133934 0.0338827 1.15707e-19)
(0.144025 0.027157 0)
(0.153764 0.0213974 1.15022e-19)
(0.163115 0.0167118 -1.14301e-19)
(0.172068 0.0133513 -5.71016e-20)
(0.180272 0.011741 0)
(-0.005626 0.0245583 1.9422e-19)
(-0.0150693 0.0661593 8.70423e-20)
(-0.0233453 0.102694 -1.02132e-19)
(-0.0304815 0.133859 9.13428e-20)
(-0.0365293 0.159849 -1.33102e-20)
(-0.0415431 0.181066 2.70519e-20)
(-0.0455543 0.19798 0)
(-0.0485774 0.211071 -2.78926e-20)
(-0.0506186 0.220799 2.82177e-20)
(-0.0516787 0.227578 2.85392e-20)
(-0.0517575 0.231769 -2.87889e-20)
(-0.0508562 0.233674 -2.90277e-20)
(-0.0489823 0.233546 2.92099e-20)
(-0.0461502 0.231597 0)
(-0.0423808 0.228005 0)
(-0.037702 0.222928 -5.92109e-20)
(-0.0321503 0.216509 5.93507e-20)
(-0.0257675 0.208884 -5.94654e-20)
(-0.0186004 0.20019 5.95139e-20)
(-0.0107033 0.190561 5.95578e-20)
(-0.00213657 0.180137 -1.19083e-19)
(0.00703534 0.169056 1.19017e-19)
(0.0167446 0.157463 4.51148e-23)
(0.0269201 0.145503 -5.93457e-20)
(0.0374876 0.133322 0)
(0.0483715 0.121063 5.91981e-20)
(0.0594952 0.108867 8.06948e-23)
(0.0707822 0.0968682 -5.88487e-20)
(0.0821558 0.0851933 0)
(0.0935413 0.0739599 1.17258e-19)
(0.104867 0.0632745 -1.16699e-19)
(0.116066 0.0532318 0)
(0.127074 0.0439145 1.16168e-19)
(0.137833 0.0353941 -1.15527e-19)
(0.14829 0.0277337 0)
(0.158397 0.020994 0)
(0.168102 0.0152458 0)
(0.177372 0.0105957 -1.13931e-19)
(0.186206 0.00730061 1.132e-19)
(0.19426 0.00580997 1.26719e-19)
(-0.0060346 0.0243897 -9.12912e-20)
(-0.0159792 0.0657925 -9.94894e-20)
(-0.024427 0.102267 -1.27311e-20)
(-0.0315262 0.133453 3.90308e-20)
(-0.0373574 0.159514 -5.30711e-20)
(-0.0420142 0.180815 5.40192e-20)
(-0.0455591 0.197802 -5.48794e-20)
(-0.048032 0.210936 -8.33814e-20)
(-0.0494593 0.220664 0)
(-0.0498582 0.227396 -2.84779e-20)
(-0.049241 0.23149 2.87271e-20)
(-0.0476193 0.233253 0)
(-0.0450082 0.232943 5.82918e-20)
(-0.0414284 0.230775 -5.85938e-20)
(-0.0369061 0.226936 -1.76381e-19)
(-0.0314743 0.221587 -1.04182e-25)
(-0.0251735 0.214879 1.18349e-19)
(-0.0180491 0.206953 -5.92662e-20)
(-0.0101524 0.197949 0)
(-0.0015422 0.188006 0)
(0.00771659 0.177267 1.18402e-19)
(0.0175553 0.165875 5.92825e-20)
(0.027902 0.153979 -5.91849e-20)
(0.0386812 0.141726 -5.91364e-20)
(0.0498147 0.129266 1.18017e-19)
(0.0612228 0.116745 -5.88553e-20)
(0.0728257 0.104307 1.17578e-19)
(0.0845433 0.0920901 -2.34424e-19)
(0.0962962 0.0802226 2.33796e-19)
(0.108007 0.0688244 -2.33128e-19)
(0.119604 0.0580039 2.32423e-19)
(0.131017 0.047857 -2.3168e-19)
(0.142182 0.0384665 1.15337e-19)
(0.153042 0.0299034 1.15159e-19)
(0.163546 0.0222286 2.3497e-22)
(0.173645 0.0154998 2.34356e-22)
(0.183293 0.00978299 -1.13592e-19)
(0.192455 0.00518104 4.05169e-22)
(0.201149 0.00195405 -1.12612e-19)
(0.209044 0.000567861 0)
(-0.00642156 0.0241403 1.13721e-20)
(-0.0168436 0.0652286 -1.23999e-20)
(-0.0254524 0.101558 3.8107e-20)
(-0.0325056 0.132705 -5.19293e-20)
(-0.0381093 0.158796 2.64714e-20)
(-0.0423937 0.18016 0)
(-0.0454511 0.197212 0)
(-0.0473463 0.210394 1.11196e-19)
(-0.0481267 0.220138 1.40462e-19)
(-0.0478261 0.226845 -2.84055e-20)
(-0.0464707 0.230872 1.43238e-19)
(-0.044083 0.232526 -2.88881e-20)
(-0.0406872 0.232068 0)
(-0.036311 0.229721 0)
(-0.030987 0.225674 1.17533e-19)
(-0.0247539 0.220097 0)
(-0.0176567 0.213142 5.88317e-20)
(-0.00974547 0.204959 -5.88887e-20)
(-0.00107645 0.19569 0)
(0.00828666 0.185479 -1.1803e-19)
(0.0182742 0.174473 -5.9305e-20)
(0.028813 0.162818 -1.76872e-19)
(0.0398265 0.150665 -5.89711e-20)
(0.0512347 0.138167 5.88442e-20)
(0.0629553 0.125475 1.17236e-19)
(0.0749047 0.11274 0)
(0.086999 0.100107 1.16682e-19)
(0.0991551 0.0877174 2.33098e-19)
(0.111291 0.0757015 1.72139e-22)
(0.123327 0.0641814 -1.15891e-19)
(0.135188 0.0532668 -1.15728e-19)
(0.146806 0.0430543 1.15145e-19)
(0.158116 0.033627 1.14971e-19)
(0.169061 0.0250547 -2.28902e-19)
(0.17959 0.0173962 2.28051e-19)
(0.189659 0.010705 -1.1387e-19)
(0.199222 0.00504187 1.13005e-19)
(0.208247 0.000503147 2.25285e-19)
(0.216765 -0.00265315 1.11861e-19)
(0.22446 -0.00395565 1.24372e-19)
(-0.006784 0.0238143 -9.06705e-20)
(-0.0176569 0.0644751 8.64739e-20)
(-0.0264163 0.100573 -7.59491e-20)
(-0.0334167 0.131617 7.76201e-20)
(-0.0387856 0.157694 1.32033e-19)
(-0.0426864 0.179092 -1.07509e-19)
(-0.0452397 0.196198 1.36566e-19)
(-0.0465353 0.209429 8.30533e-20)
(-0.0466408 0.219199 -1.96394e-19)
(-0.0456081 0.225902 5.65973e-20)
(-0.0434775 0.229888 2.83669e-20)
(-0.040284 0.231465 5.76535e-20)
(-0.0360613 0.230896 5.78835e-20)
(-0.0308453 0.228408 -1.16476e-19)
(-0.0246761 0.224194 1.16927e-19)
(-0.0175985 0.21843 1.75956e-19)
(-0.00966281 0.211274 -1.76655e-19)
(-0.00092461 0.202879 2.3558e-19)
(0.00855447 0.193393 1.17654e-19)
(0.0187055 0.182962 1.76935e-19)
(0.0294539 0.171737 5.86609e-20)
(0.0407214 0.159868 1.1784e-19)
(0.0524268 0.147509 -1.17212e-19)
(0.0644855 0.134817 0)
(0.0768106 0.121944 -3.50991e-19)
(0.0893145 0.109044 2.33426e-19)
(0.10191 0.096266 -1.1656e-19)
(0.114509 0.0837516 -1.16228e-19)
(0.127028 0.0716345 -1.92553e-22)
(0.139385 0.0600377 0)
(0.151505 0.0490723 0)
(0.163317 0.0388354 1.14396e-19)
(0.174756 0.0294099 -1.14391e-19)
(0.185768 0.0208641 1.1376e-19)
(0.196302 0.0132543 -1.13561e-19)
(0.206317 0.00663011 -1.13126e-19)
(0.21577 0.00104568 0)
(0.224631 -0.00341035 -1.11957e-19)
(0.232942 -0.00648423 -1.11644e-19)
(0.240411 -0.00769864 -3.71436e-19)
(-0.00711954 0.023417 9.06607e-20)
(-0.0184146 0.0635414 -8.65178e-20)
(-0.0273146 0.0993215 1.01289e-19)
(-0.0342573 0.130196 -1.81006e-19)
(-0.0393868 0.156208 -1.3198e-19)
(-0.042897 0.17761 1.07508e-19)
(-0.0449347 0.194752 -2.18235e-19)
(-0.0456135 0.208026 -1.10758e-19)
(-0.0450221 0.217831 1.40124e-19)
(-0.0432301 0.224545 -2.5467e-19)
(-0.0402934 0.228515 -1.71423e-19)
(-0.0362598 0.230045 -5.74098e-20)
(-0.031174 0.229399 -1.73773e-19)
(-0.0250808 0.226807 1.7465e-19)
(-0.0180285 0.222467 -1.16924e-19)
(-0.0100687 0.21656 -1.17256e-19)
(-0.00125822 0.209248 0)
(0.00834165 0.200688 -1.17608e-19)
(0.0186633 0.191032 -1.76371e-19)
(0.0296322 0.180431 5.87267e-20)
(0.0411685 0.169038 -1.17535e-19)
(0.0531887 0.157007 0)
(0.0656067 0.144495 1.17209e-19)
(0.078333 0.131659 1.16772e-19)
(0.0912762 0.118658 -1.15987e-19)
(0.104344 0.105646 0)
(0.117446 0.0927741 0)
(0.130491 0.0801859 0)
(0.143391 0.0680167 -5.27422e-22)
(0.156064 0.056391 0)
(0.168433 0.0454205 -2.28827e-19)
(0.180425 0.0352025 -3.75026e-22)
(0.191978 0.0258191 -2.27272e-19)
(0.203037 0.0173372 2.26616e-19)
(0.213554 0.00981035 -1.12769e-19)
(0.223492 0.00328387 1.1272e-19)
(0.232809 -0.00219491 0)
(0.241479 -0.00654662 2.23397e-19)
(0.249559 -0.00952434 -1.10899e-19)
(0.256782 -0.0106481 0)
(-0.00742635 0.0229543 1.12949e-20)
(-0.0191128 0.0624391 0)
(-0.0281437 0.0978156 -1.26129e-19)
(-0.0350255 0.12845 1.54951e-19)
(-0.0399141 0.154345 7.88866e-20)
(-0.0430301 0.175711 -1.07092e-19)
(-0.0445449 0.192866 1.09011e-19)
(-0.0445952 0.206175 -1.10333e-19)
(-0.0432901 0.216016 0)
(-0.0407177 0.222755 1.13075e-19)
(-0.03695 0.226729 -1.13858e-19)
(-0.0320484 0.228238 2.37044e-22)
(-0.0260693 0.227548 0)
(-0.0190676 0.224889 1.15938e-19)
(-0.0111002 0.220464 -5.8127e-20)
(-0.00222678 0.214456 1.16615e-19)
(0.00748918 0.207033 5.83233e-20)
(0.0179797 0.198355 -1.16929e-19)
(0.0291708 0.188579 0)
(0.0409822 0.177859 1.75373e-19)
(0.0533285 0.16635 5.82579e-20)
(0.0661208 0.154209 0)
(0.0792676 0.141597 0)
(0.0926745 0.128673 0)
(0.106245 0.115598 1.1625e-19)
(0.119884 0.102528 0)
(0.133494 0.0896151 -1.15444e-19)
(0.146983 0.0770056 2.30122e-19)
(0.160261 0.0648356 -2.29602e-19)
(0.173241 0.0532306 0)
(0.185846 0.0423024 1.14229e-19)
(0.198005 0.032148 -1.13314e-19)
(0.209653 0.0228487 1.13444e-19)
(0.220739 0.0144695 0)
(0.231217 0.00706108 0)
(0.241051 0.000664233 1.12001e-19)
(0.250208 -0.0046809 -1.11318e-19)
(0.258662 -0.00890549 2.22126e-19)
(0.266483 -0.0117723 -2.20702e-19)
(0.273443 -0.0128034 0)
(-0.00770322 0.0224329 7.87742e-20)
(-0.019749 0.0611811 2.4569e-20)
(-0.0289012 0.096069 1.00874e-19)
(-0.0357197 0.126393 1.02923e-19)
(-0.040368 0.152112 -1.052e-19)
(-0.0430898 0.1734 1.07091e-19)
(-0.0440787 0.190539 1.08597e-19)
(-0.0434934 0.203868 1.10332e-19)
(-0.0414634 0.213743 0)
(-0.0380952 0.220514 1.12639e-19)
(-0.0334775 0.224508 1.13857e-19)
(-0.0276862 0.226021 1.14698e-19)
(-0.0207901 0.225317 0)
(-0.0128547 0.222626 -2.53056e-22)
(-0.00394665 0.218154 1.16354e-19)
(0.00586593 0.212088 -5.84214e-20)
(0.016512 0.204599 -5.86658e-20)
(0.0279164 0.195851 1.75284e-19)
(0.0399985 0.186004 -4.79165e-23)
(0.0526718 0.175215 -5.87171e-20)
(0.0658452 0.163642 -1.16733e-19)
(0.0794242 0.151446 0)
(0.0933117 0.138788 0)
(0.107408 0.125832 0)
(0.121612 0.112737 0)
(0.135824 0.0996642 0)
(0.149942 0.0867659 0)
(0.163871 0.074189 1.14623e-19)
(0.177517 0.0620711 -1.14145e-19)
(0.190794 0.0505378 0)
(0.203622 0.0397007 0)
(0.215929 0.0296562 1.13312e-19)
(0.227653 0.0204842 0)
(0.238743 0.0122475 1.12337e-19)
(0.249157 0.00499371 -1.11694e-19)
(0.258864 -0.00124093 0)
(0.267834 -0.00642375 2.22005e-19)
(0.276046 -0.0104975 -2.20615e-19)
(0.283583 -0.0132371 0)
(0.290261 -0.0141712 0)
(-0.00794956 0.0218599 -9.00572e-20)
(-0.0203215 0.0597817 -2.45425e-20)
(-0.0295851 0.0940983 2.51305e-20)
(-0.0363389 0.124038 -1.02923e-19)
(-0.0407491 0.149521 0)
(-0.0430792 0.170682 0)
(-0.0435427 0.187773 -8.14626e-20)
(-0.0423192 0.201101 -2.74946e-20)
(-0.0395582 0.211001 -5.56923e-20)
(-0.0353846 0.217807 -5.63816e-20)
(-0.029904 0.221834 -5.67583e-20)
(-0.0232074 0.223372 5.71815e-20)
(-0.0153765 0.22268 5.74162e-20)
(-0.00648864 0.21999 -5.7886e-20)
(0.00337953 0.215509 0)
(0.0141508 0.209425 0)
(0.0257458 0.201914 -1.16536e-19)
(0.0380817 0.193143 0)
(0.051071 0.183274 0)
(0.0646207 0.172467 1.15949e-19)
(0.0786338 0.160883 -8.83637e-23)
(0.0930096 0.148685 -2.21125e-22)
(0.107646 0.136037 -1.15704e-19)
(0.122437 0.123103 1.15454e-19)
(0.137276 0.110046 1.14926e-19)
(0.152059 0.0970262 -1.14591e-19)
(0.166681 0.0841979 0)
(0.181042 0.0717089 1.14148e-19)
(0.195046 0.059697 1.16051e-22)
(0.208606 0.0482875 -1.13279e-19)
(0.221638 0.0375915 0)
(0.234074 0.027704 0)
(0.245851 0.0187031 1.12241e-19)
(0.25692 0.0106494 -1.11622e-19)
(0.267245 0.00358702 -1.11394e-19)
(0.276797 -0.00245261 1.10735e-19)
(0.285554 -0.0074443 0)
(0.293498 -0.011343 0)
(0.300727 -0.0139379 0)
(0.307105 -0.014768 -1.19764e-19)
(-0.00816534 0.0212427 1.12119e-19)
(-0.0208295 0.0582564 -4.89555e-20)
(-0.0301943 0.0919215 2.50787e-20)
(-0.036882 0.121403 0)
(-0.0410575 0.146587 1.30777e-19)
(-0.0430003 0.16757 2.67296e-23)
(-0.042942 0.184572 1.08217e-19)
(-0.0410816 0.197873 -8.23686e-20)
(-0.0375879 0.207786 1.11154e-19)
(-0.0326042 0.214624 -5.61529e-20)
(-0.0262534 0.218692 0)
(-0.0186416 0.22027 5.70545e-20)
(-0.00986439 0.219615 -1.72324e-19)
(-1.11313e-05 0.216956 0)
(0.0108308 0.2125 1.73402e-19)
(0.0225745 0.206438 -1.15893e-19)
(0.0351318 0.198948 -1.16106e-19)
(0.0484117 0.190199 5.81109e-20)
(0.0623195 0.180356 0)
(0.0767556 0.169581 -1.16167e-19)
(0.0916163 0.158039 -1.1578e-19)
(0.106795 0.145893 -1.32588e-22)
(0.122183 0.133309 1.15159e-19)
(0.13767 0.120454 1.15031e-19)
(0.153143 0.107491 -2.29653e-19)
(0.168493 0.0945809 1.14588e-19)
(0.183611 0.0818791 0)
(0.198393 0.0695338 -1.13439e-19)
(0.212741 0.0576825 1.13053e-19)
(0.226564 0.0464498 1.12658e-19)
(0.239781 0.0359453 -1.12256e-19)
(0.252322 0.0262624 1.11846e-19)
(0.264126 0.0174771 0)
(0.275149 0.00964709 1.11332e-19)
(0.285355 0.00281267 2.21658e-19)
(0.294726 -0.00299945 -2.20481e-19)
(0.303242 -0.00777159 2.19952e-19)
(0.310892 -0.0114711 4.10764e-22)
(0.317787 -0.0139033 -1.08933e-19)
(0.323846 -0.0146206 2.38374e-19)
(-0.00835117 0.0205893 -6.72548e-20)
(-0.0212735 0.0566214 -1.46472e-19)
(-0.0307285 0.0895585 1.0003e-19)
(-0.037348 0.118509 -7.67254e-20)
(-0.0412924 0.143327 -2.63369e-20)
(-0.0428536 0.164076 2.65812e-20)
(-0.042279 0.180946 -5.41241e-20)
(-0.0397861 0.19419 -5.47866e-20)
(-0.035562 0.204096 5.54892e-20)
(-0.0297682 0.210959 -1.12113e-19)
(-0.0225447 0.215071 5.46404e-24)
(-0.0140132 0.216702 5.69677e-20)
(-0.00428335 0.216103 0)
(0.00654283 0.213501 -5.75168e-20)
(0.0183667 0.209103 -5.78226e-20)
(0.0310914 0.203099 1.15832e-19)
(0.0446195 0.195671 0)
(0.0588514 0.186988 0)
(0.0736848 0.177218 1.15747e-19)
(0.0890129 0.166525 -1.15761e-19)
(0.104726 0.155075 0)
(0.12071 0.143035 1.15212e-19)
(0.136851 0.130571 -1.15234e-19)
(0.153031 0.11785 -2.29346e-19)
(0.169132 0.105038 1.99915e-23)
(0.18504 0.0922939 1.1418e-19)
(0.200641 0.0797756 -2.27007e-19)
(0.215829 0.0676302 1.13436e-19)
(0.230503 0.0559945 -1.1305e-19)
(0.244568 0.0449915 -1.54877e-22)
(0.257945 0.0347292 2.89137e-22)
(0.270563 0.0252988 -1.11843e-19)
(0.282366 0.0167734 -1.10974e-19)
(0.293312 0.00920721 -1.1054e-19)
(0.30337 0.00263676 -4.62172e-22)
(0.312528 -0.00291624 0)
(0.320774 -0.00744133 -1.09158e-19)
(0.328104 -0.0109183 2.18e-19)
(0.33464 -0.0131702 -3.2525e-19)
(0.340364 -0.0137649 1.33598e-23)
(-0.00850818 0.0199073 -2.23432e-20)
(-0.0216544 0.0548936 1.95036e-19)
(-0.0311875 0.0870302 -1.00056e-19)
(-0.0377359 0.115377 7.67469e-20)
(-0.0414521 0.139762 -2.08612e-19)
(-0.0426375 0.16022 2.6531e-20)
(-0.0415537 0.17691 -1.07797e-19)
(-0.0384346 0.190061 0)
(-0.0334853 0.199935 0)
(-0.026885 0.206812 -1.11826e-19)
(-0.0187905 0.210965 5.64449e-20)
(-0.00933917 0.212657 -9.18362e-23)
(0.00134503 0.21213 5.71984e-20)
(0.013147 0.209608 0)
(0.0259565 0.205296 -1.72695e-19)
(0.0396664 0.199386 5.77649e-20)
(0.0541695 0.192057 -1.15462e-19)
(0.0693575 0.183482 0)
(0.0851197 0.17383 0)
(0.101342 0.163268 6.77625e-23)
(0.117908 0.151962 -1.15259e-19)
(0.134696 0.140079 1.14775e-19)
(0.151586 0.127789 -1.14596e-19)
(0.168453 0.115258 1.14349e-19)
(0.185174 0.102652 1.6422e-22)
(0.201627 0.0901318 1.79802e-22)
(0.217696 0.0778536 1.13409e-19)
(0.23327 0.0659643 -1.12633e-19)
(0.248245 0.054599 0)
(0.262526 0.0438788 -1.12075e-19)
(0.276033 0.0339091 1.1154e-19)
(0.288697 0.0247783 0)
(0.300466 0.0165562 1.10971e-19)
(0.3113 0.00929315 -1.10274e-19)
(0.321177 0.00302141 1.09456e-19)
(0.33009 -0.00224244 0)
(0.338036 -0.00649466 3.27189e-19)
(0.345019 -0.00972754 -2.16668e-19)
(0.351171 -0.0117826 0)
(0.356542 -0.012245 1.17817e-19)
(-0.00863804 0.019205 1.78175e-19)
(-0.0219741 0.0530902 -9.7417e-20)
(-0.0315721 0.0843588 -2.49533e-20)
(-0.0380444 0.112032 2.5488e-20)
(-0.0415338 0.135917 1.04192e-19)
(-0.0423485 0.156022 0)
(-0.0407623 0.172482 1.07797e-19)
(-0.0370246 0.1855 1.63629e-19)
(-0.0313572 0.195315 5.52665e-20)
(-0.0239564 0.202187 5.59601e-20)
(-0.0149955 0.206376 5.6353e-20)
(-0.00462762 0.208131 -1.70356e-19)
(0.00700892 0.207688 5.70965e-20)
(0.0197859 0.205266 2.29097e-19)
(0.0335812 0.201066 5.76484e-20)
(0.0482769 0.195279 5.76508e-20)
(0.063756 0.188086 1.15461e-19)
(0.0799008 0.17966 0)
(0.0965922 0.17017 0)
(0.113708 0.159784 2.30277e-19)
(0.131124 0.14867 -4.59281e-19)
(0.148713 0.136997 -8.28543e-23)
(0.166345 0.124934 0)
(0.183889 0.112648 0)
(0.201215 0.100304 1.13786e-19)
(0.218196 0.0880639 0)
(0.234712 0.0760823 0)
(0.250646 0.0645046 -1.11892e-19)
(0.265893 0.0534639 -2.23695e-19)
(0.280357 0.0430786 0)
(0.293959 0.0334509 -2.22e-19)
(0.306632 0.0246658 -4.42814e-19)
(0.318329 0.0167889 2.20507e-19)
(0.329014 0.00986647 -2.1936e-19)
(0.338673 0.00392608 2.19037e-19)
(0.347306 -0.00102069 -2.17741e-19)
(0.354922 -0.00497676 -2.16516e-19)
(0.361529 -0.0079461 0)
(0.367273 -0.00978954 0)