/*--------------------------------*- C++ -*----------------------------------*\
  =========                 |
  \\      /  F ield         | OpenFOAM: The Open Source CFD Toolbox
   \\    /   O peration     | Website:  https://openfoam.org
    \\  /    A nd           | Version:  7
     \\/     M anipulation  |
\*---------------------------------------------------------------------------*/
FoamFile
{
    version     2.0;
    format      ascii;
    class       volScalarField;
    location    "6.2";
    object      p;
}
// * * * * * * * * * * * * * * * * * * * * * * * * * * * * * * * * * * * * * //

dimensions      [0 2 -2 0 0 0 0];

internalField   nonuniform List<scalar> 
32000
(
0.441797
0.441946
0.442012
0.442034
0.442062
0.44214
0.442286
0.442493
0.44276
0.443107
0.44357
0.444178
0.444936
0.445831
0.446854
0.448002
0.44928
0.450699
0.452264
0.453973
0.455817
0.457786
0.459868
0.462053
0.464332
0.466696
0.469133
0.471628
0.474164
0.476726
0.479299
0.481873
0.484438
0.486983
0.4895
0.491978
0.494412
0.496802
0.499126
0.501309
0.441897
0.442
0.442039
0.442033
0.442043
0.44211
0.442247
0.442445
0.442698
0.443031
0.443481
0.444074
0.444815
0.445691
0.446691
0.447812
0.449058
0.450438
0.451959
0.45362
0.45541
0.457321
0.459339
0.461455
0.463658
0.465942
0.468294
0.470702
0.47315
0.475623
0.478107
0.48059
0.483062
0.485515
0.487938
0.490322
0.492664
0.49496
0.497188
0.499292
0.442001
0.44206
0.442069
0.442036
0.442029
0.442086
0.442216
0.442406
0.442649
0.442973
0.443413
0.443994
0.444719
0.445577
0.446555
0.44765
0.448867
0.450214
0.451694
0.453307
0.455045
0.456897
0.458852
0.460899
0.463028
0.46523
0.467496
0.469816
0.472173
0.474553
0.476944
0.479332
0.481709
0.484065
0.48639
0.488677
0.490921
0.49312
0.495249
0.497268
0.442098
0.442106
0.442088
0.442032
0.442012
0.442064
0.442189
0.442373
0.442611
0.442931
0.443366
0.443938
0.444649
0.445489
0.446447
0.44752
0.448711
0.450025
0.451467
0.453034
0.45472
0.456515
0.458407
0.460385
0.462438
0.464558
0.466738
0.468966
0.47123
0.473516
0.47581
0.478101
0.480378
0.482632
0.484856
0.487041
0.489183
0.491281
0.493306
0.495236
0.442196
0.442158
0.442116
0.442038
0.442008
0.442056
0.442175
0.442355
0.442593
0.442911
0.443343
0.443906
0.444605
0.445428
0.446368
0.44742
0.448587
0.449871
0.451276
0.452799
0.454434
0.456173
0.458002
0.459909
0.461885
0.463923
0.466015
0.468152
0.470321
0.47251
0.474704
0.476894
0.479068
0.481217
0.483335
0.485414
0.48745
0.489442
0.491358
0.493194
0.442286
0.442201
0.442139
0.442044
0.442005
0.442049
0.442166
0.442345
0.442585
0.442906
0.443336
0.443895
0.444582
0.445392
0.446316
0.44735
0.448494
0.44975
0.451119
0.452599
0.454186
0.455869
0.457634
0.45947
0.461369
0.463323
0.465327
0.467372
0.469446
0.471535
0.473628
0.475712
0.477779
0.479819
0.481827
0.483796
0.485722
0.487603
0.489407
0.491142
0.44237
0.442241
0.442162
0.442054
0.442009
0.44205
0.442167
0.442348
0.442593
0.442919
0.443351
0.443906
0.444585
0.445383
0.446293
0.447311
0.448433
0.449661
0.450997
0.452438
0.453977
0.455603
0.457304
0.459068
0.460888
0.462759
0.464675
0.466627
0.468604
0.470592
0.472579
0.474555
0.476511
0.47844
0.480335
0.482189
0.484001
0.485766
0.487452
0.489082
0.442446
0.442277
0.442184
0.442066
0.442016
0.442056
0.442176
0.442362
0.442614
0.442947
0.443383
0.443937
0.444611
0.445401
0.446298
0.4473
0.448402
0.449605
0.450909
0.452311
0.453804
0.455373
0.457009
0.4587
0.460443
0.46223
0.464058
0.465917
0.467795
0.469679
0.471558
0.473423
0.475266
0.47708
0.478858
0.480594
0.482286
0.483931
0.485495
0.487013
0.442511
0.442305
0.442202
0.442077
0.442024
0.442066
0.442191
0.442384
0.442645
0.442987
0.44343
0.443986
0.444659
0.445441
0.446328
0.447315
0.448398
0.449577
0.450852
0.452218
0.453664
0.455176
0.456746
0.458366
0.460031
0.461736
0.463476
0.46524
0.467017
0.468795
0.470564
0.472316
0.474044
0.47574
0.477398
0.479012
0.48058
0.4821
0.483539
0.484938
0.442562
0.442324
0.442213
0.442085
0.442033
0.442078
0.44221
0.442413
0.442685
0.443038
0.443489
0.444052
0.444725
0.445503
0.44638
0.447354
0.448419
0.449577
0.450825
0.452155
0.453554
0.45501
0.456515
0.458064
0.459652
0.461275
0.462925
0.464594
0.466269
0.46794
0.469598
0.471235
0.472845
0.47442
0.475955
0.477444
0.478885
0.480276
0.481585
0.482861
0.442598
0.442331
0.442215
0.442087
0.442039
0.442091
0.442232
0.442445
0.442729
0.443096
0.44356
0.44413
0.444806
0.445582
0.446452
0.447413
0.448463
0.449602
0.450825
0.452119
0.453471
0.454871
0.456313
0.457792
0.459304
0.460844
0.462406
0.463979
0.465551
0.467114
0.46866
0.47018
0.47167
0.473123
0.474532
0.475892
0.477202
0.478461
0.479637
0.480784
0.442617
0.442323
0.442206
0.442081
0.442041
0.442103
0.442254
0.442479
0.442778
0.44316
0.443639
0.44422
0.444902
0.445676
0.44654
0.447491
0.448528
0.44965
0.450848
0.452106
0.453413
0.454758
0.456138
0.457548
0.458985
0.460444
0.461916
0.463392
0.464862
0.466316
0.467747
0.469151
0.47052
0.471849
0.47313
0.474359
0.475535
0.476659
0.4777
0.478712
0.442615
0.442299
0.442183
0.442066
0.442037
0.442111
0.442274
0.442513
0.442827
0.443228
0.443724
0.444319
0.445008
0.445783
0.446643
0.447585
0.448611
0.449717
0.450891
0.452115
0.453377
0.454669
0.455988
0.457331
0.458694
0.460071
0.461454
0.462833
0.464199
0.465543
0.466861
0.468147
0.469394
0.470598
0.47175
0.472846
0.473887
0.474873
0.475778
0.476651
0.442592
0.442257
0.442145
0.442039
0.442026
0.442113
0.44229
0.442543
0.442876
0.443297
0.443813
0.444424
0.445122
0.4459
0.446757
0.447694
0.44871
0.449801
0.450951
0.452141
0.45336
0.454601
0.455861
0.457137
0.458427
0.459722
0.461016
0.462298
0.46356
0.464796
0.466
0.467168
0.468294
0.469371
0.470394
0.471356
0.472259
0.473107
0.473876
0.474605
0.442547
0.442196
0.44209
0.441999
0.442003
0.442107
0.442298
0.442569
0.442922
0.443365
0.443903
0.444531
0.44524
0.446024
0.446881
0.447814
0.448822
0.449898
0.451024
0.452182
0.453359
0.45455
0.455753
0.456965
0.458182
0.459397
0.460601
0.461787
0.462945
0.464072
0.465163
0.466214
0.467218
0.46817
0.469062
0.469891
0.470657
0.471366
0.471998
0.472581
0.442478
0.442116
0.442019
0.441945
0.441968
0.442089
0.442297
0.442587
0.442962
0.44343
0.443991
0.444637
0.44536
0.446151
0.447011
0.447943
0.448944
0.450004
0.451107
0.452232
0.45337
0.454513
0.455661
0.45681
0.457955
0.45909
0.460206
0.461296
0.462352
0.463372
0.464351
0.465286
0.466169
0.466995
0.467757
0.468453
0.469083
0.469654
0.47015
0.470585
0.442385
0.442015
0.44193
0.441875
0.441919
0.442059
0.442285
0.442595
0.442994
0.443488
0.444072
0.444739
0.445477
0.44628
0.447145
0.448077
0.449071
0.450117
0.451196
0.45229
0.453389
0.454487
0.455581
0.456669
0.457744
0.4588
0.459829
0.460824
0.46178
0.462694
0.463563
0.464382
0.465145
0.465847
0.466481
0.467045
0.46754
0.467974
0.468338
0.468623
0.442268
0.441893
0.441821
0.441788
0.441853
0.442013
0.44226
0.442592
0.443017
0.443536
0.444145
0.444834
0.44559
0.446406
0.44728
0.448213
0.449201
0.450232
0.451288
0.452353
0.453415
0.454469
0.455512
0.45654
0.457546
0.458524
0.459467
0.46037
0.461228
0.462038
0.462798
0.463503
0.464148
0.464726
0.465235
0.46567
0.466031
0.466331
0.466567
0.466702
0.442127
0.44175
0.441693
0.441681
0.441769
0.441951
0.44222
0.442577
0.443027
0.443573
0.444208
0.444919
0.445696
0.446528
0.447412
0.448348
0.44933
0.450346
0.45138
0.452416
0.453443
0.454456
0.45545
0.456419
0.457358
0.458259
0.459119
0.459931
0.460693
0.461402
0.462055
0.462648
0.463176
0.463634
0.464019
0.464328
0.46456
0.46473
0.464841
0.464829
0.441961
0.441586
0.441544
0.441554
0.441666
0.441871
0.442164
0.442547
0.443024
0.443597
0.444258
0.444994
0.445792
0.446642
0.447538
0.448478
0.449454
0.450456
0.451469
0.452478
0.453472
0.454445
0.455391
0.456303
0.457176
0.458003
0.458782
0.459506
0.460174
0.460784
0.461331
0.461814
0.462228
0.462569
0.462834
0.46302
0.463128
0.463171
0.463165
0.463008
0.441771
0.4414
0.441374
0.441406
0.441542
0.441772
0.442092
0.442501
0.443007
0.443607
0.444294
0.445055
0.445876
0.446745
0.447655
0.4486
0.449572
0.45056
0.451552
0.452535
0.453498
0.454433
0.455333
0.45619
0.456998
0.457753
0.458452
0.459092
0.459668
0.46018
0.460625
0.461002
0.461305
0.461531
0.46168
0.461749
0.461736
0.461659
0.46154
0.461244
0.441556
0.441192
0.441182
0.441236
0.441397
0.441653
0.442
0.442439
0.442973
0.443601
0.444315
0.445102
0.445947
0.446836
0.44776
0.448711
0.449679
0.450655
0.451627
0.452585
0.453518
0.454416
0.455271
0.456074
0.45682
0.457506
0.458128
0.458684
0.459172
0.459589
0.459935
0.460208
0.460403
0.46052
0.460557
0.460513
0.460385
0.460193
0.45997
0.459541
0.441318
0.440961
0.440967
0.441043
0.441229
0.441513
0.441889
0.442358
0.442922
0.443578
0.444319
0.445133
0.446002
0.446912
0.44785
0.448807
0.449772
0.450736
0.45169
0.452624
0.453528
0.454391
0.455203
0.455954
0.456641
0.457259
0.457807
0.458282
0.458682
0.459008
0.459258
0.459431
0.459524
0.459535
0.459465
0.459313
0.459077
0.458777
0.458457
0.457903
0.441054
0.440707
0.440727
0.440826
0.441037
0.441349
0.441756
0.442257
0.442851
0.443536
0.444305
0.445145
0.446039
0.44697
0.447923
0.448886
0.449849
0.450802
0.451738
0.452649
0.453525
0.454354
0.455125
0.455826
0.456455
0.457008
0.457484
0.45788
0.458197
0.458435
0.458593
0.45867
0.458664
0.458574
0.458402
0.458149
0.45781
0.457409
0.457001
0.456331
0.440765
0.440427
0.440463
0.440584
0.440821
0.441162
0.441601
0.442134
0.44276
0.443475
0.444272
0.445138
0.446056
0.447007
0.447975
0.448946
0.449906
0.450848
0.451767
0.452656
0.453506
0.454303
0.455033
0.455687
0.45626
0.45675
0.457156
0.457477
0.457713
0.457866
0.457936
0.457922
0.457822
0.457636
0.457368
0.457019
0.456585
0.45609
0.455602
0.454827
0.440449
0.44012
0.440172
0.440315
0.440578
0.44095
0.441422
0.441989
0.442647
0.443392
0.444217
0.445109
0.446051
0.447023
0.448005
0.448982
0.449941
0.450873
0.451776
0.452644
0.453468
0.454233
0.454925
0.455533
0.456053
0.456482
0.456821
0.457069
0.457228
0.4573
0.457285
0.457184
0.456994
0.456718
0.45636
0.455922
0.4554
0.454818
0.454258
0.45339
0.440105
0.439787
0.439855
0.440019
0.440309
0.440712
0.441218
0.441819
0.44251
0.443286
0.444139
0.445057
0.446022
0.447014
0.448011
0.448994
0.449951
0.450875
0.451762
0.45261
0.453409
0.454143
0.454797
0.455361
0.455829
0.456199
0.456473
0.456651
0.456736
0.456731
0.456636
0.456452
0.456178
0.455817
0.455374
0.454854
0.454252
0.453592
0.452969
0.452019
0.439733
0.439426
0.439509
0.439695
0.440013
0.440447
0.440988
0.441624
0.442349
0.443156
0.444037
0.44498
0.445968
0.446979
0.44799
0.44898
0.449935
0.450849
0.451722
0.45255
0.453325
0.454029
0.454646
0.455166
0.455584
0.455898
0.456109
0.45622
0.456234
0.456154
0.455983
0.455721
0.455367
0.454927
0.454407
0.453812
0.453138
0.452408
0.451729
0.45071
0.439333
0.439036
0.439135
0.439343
0.439688
0.440154
0.44073
0.441403
0.442163
0.443001
0.44391
0.444877
0.445887
0.446916
0.44794
0.448936
0.44989
0.450795
0.451654
0.452463
0.453212
0.453886
0.454467
0.454944
0.455313
0.455572
0.455723
0.455769
0.455715
0.455565
0.455321
0.454984
0.454556
0.454043
0.453452
0.45279
0.452052
0.451261
0.450536
0.449461
0.438903
0.438617
0.438732
0.438962
0.439335
0.439834
0.440445
0.441154
0.441949
0.442819
0.443755
0.444747
0.445778
0.446825
0.44786
0.448861
0.449812
0.45071
0.451554
0.452344
0.453068
0.453711
0.454255
0.45469
0.455011
0.455217
0.45531
0.455294
0.455175
0.454957
0.454643
0.454236
0.453738
0.453157
0.452503
0.451781
0.450988
0.450145
0.449383
0.448266
0.438444
0.438168
0.438298
0.438551
0.438954
0.439485
0.440131
0.440877
0.441707
0.442608
0.443572
0.444588
0.445639
0.446701
0.447747
0.448752
0.4497
0.450589
0.451419
0.452189
0.452888
0.453499
0.454006
0.454399
0.454673
0.454827
0.454864
0.454788
0.454605
0.454322
0.453942
0.453468
0.452905
0.452262
0.45155
0.450776
0.449937
0.449053
0.448264
0.44712
0.437952
0.437688
0.437835
0.438112
0.438544
0.439108
0.439789
0.440571
0.441435
0.442367
0.443358
0.444397
0.445468
0.446544
0.447598
0.448605
0.44955
0.450429
0.451245
0.451995
0.452667
0.453245
0.453714
0.454065
0.454292
0.454395
0.454377
0.454242
0.453999
0.453652
0.453208
0.452671
0.452047
0.451347
0.450583
0.449764
0.448887
0.447974
0.44717
0.446017
0.437428
0.437175
0.437339
0.437642
0.438104
0.438701
0.439418
0.440234
0.441131
0.442093
0.443111
0.444173
0.445261
0.44635
0.447411
0.448418
0.449358
0.450228
0.451028
0.451756
0.4524
0.452945
0.453375
0.453683
0.453862
0.453914
0.453842
0.45365
0.453347
0.452939
0.452432
0.451834
0.451152
0.450398
0.449588
0.448731
0.447826
0.446895
0.446091
0.444949
0.436868
0.436627
0.436811
0.437141
0.437633
0.438264
0.439015
0.439865
0.440794
0.441785
0.442828
0.443912
0.445016
0.446116
0.447181
0.448188
0.449121
0.44998
0.450763
0.451469
0.452083
0.452592
0.452983
0.453246
0.453377
0.453378
0.453252
0.453003
0.45264
0.452171
0.451603
0.450944
0.450206
0.449402
0.448548
0.447659
0.446734
0.445799
0.445013
0.44391
0.436272
0.436045
0.436249
0.436605
0.437129
0.437794
0.43858
0.439463
0.440422
0.441441
0.442509
0.443612
0.444731
0.44584
0.446908
0.447911
0.448836
0.449681
0.450447
0.451127
0.451711
0.452183
0.452531
0.452748
0.45283
0.452779
0.452597
0.452291
0.451868
0.451337
0.450708
0.449989
0.449195
0.44834
0.447444
0.446526
0.44559
0.444663
0.443916
0.442887
0.435637
0.435424
0.435649
0.436035
0.436591
0.437291
0.43811
0.439024
0.440012
0.441058
0.442149
0.443271
0.444403
0.445518
0.446586
0.447583
0.448498
0.449328
0.450073
0.450727
0.451277
0.45171
0.452014
0.452182
0.452213
0.452107
0.451869
0.451504
0.45102
0.450427
0.449735
0.448954
0.448101
0.447193
0.446254
0.445305
0.444361
0.443454
0.442768
0.441862
0.43496
0.434764
0.435011
0.435427
0.436018
0.436752
0.437605
0.438549
0.439564
0.440635
0.441748
0.442886
0.444029
0.445147
0.446213
0.447202
0.448104
0.448916
0.449638
0.450263
0.450777
0.451167
0.451424
0.451542
0.451519
0.451356
0.451059
0.450633
0.450087
0.449429
0.44867
0.447824
0.446907
0.44594
0.44495
0.443965
0.443009
0.442125
0.441517
0.44079
0.43424
0.434062
0.434333
0.434782
0.435408
0.436177
0.437061
0.438034
0.439076
0.440171
0.441303
0.442456
0.443606
0.444725
0.445785
0.446763
0.447649
0.448441
0.449137
0.449728
0.450203
0.450548
0.450755
0.450819
0.450739
0.450517
0.450159
0.44967
0.449058
0.448332
0.447504
0.446587
0.445598
0.444561
0.443505
0.442467
0.441484
0.440616
0.440106
0.439647
0.433474
0.433316
0.433614
0.434097
0.43476
0.435564
0.436478
0.437478
0.438545
0.439662
0.440812
0.441976
0.443131
0.444248
0.445299
0.446262
0.447129
0.447897
0.448563
0.449118
0.44955
0.449846
0.45
0.450007
0.449868
0.449584
0.449161
0.448606
0.447925
0.447128
0.446225
0.44523
0.44416
0.443036
0.441889
0.440761
0.439703
0.438816
0.438446
0.438459
0.432662
0.432528
0.432855
0.433374
0.434073
0.43491
0.435853
0.43688
0.437971
0.439107
0.440272
0.441445
0.442602
0.443713
0.44475
0.445696
0.44654
0.44728
0.447913
0.448427
0.448811
0.449056
0.449153
0.4491
0.448898
0.44855
0.44806
0.447436
0.446684
0.445812
0.44483
0.443751
0.442587
0.441355
0.440079
0.438789
0.437524
0.4364
0.435814
0.435947
0.508543
0.51852
0.525823
0.532151
0.536654
0.540531
0.54357
0.546218
0.548447
0.550388
0.552073
0.553555
0.554832
0.555921
0.556853
0.557637
0.558284
0.558788
0.559178
0.559447
0.559613
0.559676
0.559646
0.559525
0.55931
0.559002
0.558594
0.558085
0.557479
0.556768
0.555956
0.555031
0.554001
0.552865
0.55162
0.550274
0.548853
0.54734
0.545937
0.544305
0.506465
0.51629
0.523664
0.530048
0.534632
0.538605
0.541732
0.544447
0.546734
0.548739
0.550479
0.551987
0.55329
0.55442
0.555384
0.556181
0.556847
0.557381
0.557796
0.558086
0.558264
0.558343
0.558332
0.558233
0.558031
0.557732
0.557334
0.55684
0.556244
0.555545
0.554741
0.55383
0.55281
0.551678
0.550443
0.549107
0.547696
0.546189
0.544799
0.543183
0.504352
0.514028
0.521461
0.527912
0.532583
0.53666
0.53988
0.542668
0.545019
0.547089
0.548884
0.550421
0.55175
0.55292
0.553912
0.554724
0.55541
0.555973
0.556411
0.556723
0.556914
0.55701
0.557017
0.556939
0.556751
0.556462
0.556077
0.555597
0.555011
0.554326
0.55353
0.552633
0.551625
0.5505
0.549276
0.547952
0.546555
0.545055
0.543679
0.542078
0.502206
0.511737
0.519205
0.52574
0.530509
0.534695
0.53801
0.540885
0.543308
0.545437
0.54728
0.548857
0.550219
0.551417
0.552435
0.553272
0.553978
0.554563
0.55502
0.555353
0.555565
0.555681
0.555704
0.55564
0.555469
0.555194
0.554824
0.554357
0.553782
0.55311
0.552325
0.55144
0.550444
0.549333
0.548121
0.54681
0.545427
0.54394
0.542577
0.54099
0.500018
0.509414
0.5169
0.523531
0.528405
0.532708
0.536124
0.539096
0.541598
0.543784
0.545673
0.547295
0.548694
0.549914
0.550955
0.551822
0.552548
0.553152
0.553627
0.553982
0.554217
0.554354
0.554393
0.55434
0.554187
0.553928
0.553573
0.55312
0.552558
0.551899
0.551127
0.550254
0.549269
0.548176
0.546977
0.54568
0.544312
0.54284
0.541489
0.539916
0.497784
0.507056
0.514548
0.521283
0.526269
0.530699
0.534226
0.5373
0.539885
0.542132
0.544069
0.545735
0.547168
0.548414
0.549477
0.55037
0.551117
0.551741
0.552234
0.552611
0.552868
0.553025
0.553082
0.553042
0.552907
0.552665
0.552325
0.551886
0.551339
0.550692
0.549935
0.549075
0.548103
0.547028
0.545844
0.544563
0.54321
0.541753
0.540415
0.538855
0.495501
0.504664
0.512147
0.518994
0.524099
0.528668
0.532315
0.535497
0.538169
0.54048
0.542468
0.544176
0.545645
0.546915
0.548001
0.548919
0.549686
0.55033
0.550843
0.551242
0.55152
0.551695
0.551772
0.551745
0.551629
0.551403
0.551079
0.550655
0.550124
0.549491
0.54875
0.547905
0.546948
0.54589
0.544723
0.543458
0.54212
0.540678
0.539353
0.537807
0.493167
0.502237
0.509694
0.516663
0.521892
0.526612
0.530388
0.533686
0.536449
0.538829
0.54087
0.54262
0.544123
0.54542
0.546527
0.547469
0.548256
0.548921
0.549454
0.549873
0.550173
0.550366
0.550462
0.550451
0.550352
0.550144
0.549835
0.549428
0.548913
0.548296
0.54757
0.546743
0.545802
0.544762
0.543613
0.542364
0.541043
0.539616
0.538303
0.536772
0.490782
0.499774
0.507189
0.514288
0.519648
0.52453
0.528446
0.531867
0.534727
0.537179
0.539274
0.541068
0.542604
0.543928
0.545057
0.546021
0.546828
0.547513
0.548067
0.548506
0.548826
0.549037
0.549153
0.549159
0.549076
0.548886
0.548593
0.548203
0.547706
0.547105
0.546397
0.545589
0.544666
0.543645
0.542515
0.541283
0.539978
0.538566
0.537265
0.535749
0.488347
0.497278
0.504629
0.511867
0.517363
0.522421
0.526488
0.53004
0.533003
0.535529
0.537681
0.539518
0.541088
0.542439
0.543589
0.544576
0.545403
0.546108
0.546683
0.54714
0.547482
0.54771
0.547845
0.547869
0.547801
0.547631
0.547354
0.546982
0.546503
0.545921
0.545232
0.544442
0.543539
0.542537
0.541427
0.540214
0.538924
0.537529
0.536239
0.534738
0.485861
0.494748
0.502015
0.509399
0.515038
0.520283
0.524512
0.528204
0.531275
0.533881
0.53609
0.537972
0.539575
0.540952
0.542125
0.543133
0.54398
0.544706
0.545302
0.545777
0.546139
0.546384
0.546539
0.54658
0.546528
0.546377
0.546118
0.545764
0.545305
0.544742
0.544073
0.543303
0.542422
0.541439
0.54035
0.539156
0.537882
0.536504
0.535226
0.533739
0.483328
0.492187
0.499347
0.506884
0.512671
0.518115
0.522518
0.526358
0.529543
0.532232
0.534501
0.536428
0.538065
0.539469
0.540662
0.541692
0.54256
0.543306
0.543923
0.544416
0.544798
0.545061
0.545234
0.545294
0.545258
0.545126
0.544885
0.54455
0.544111
0.543569
0.542921
0.542172
0.541314
0.540351
0.539284
0.53811
0.536852
0.535492
0.534226
0.532752
0.480751
0.489598
0.496627
0.504319
0.51026
0.515915
0.520503
0.524501
0.527807
0.530583
0.532915
0.534887
0.536558
0.537988
0.539203
0.540254
0.541143
0.541909
0.542546
0.543057
0.543459
0.543739
0.54393
0.54401
0.543989
0.543877
0.543656
0.543339
0.542923
0.542402
0.541775
0.541048
0.540215
0.539273
0.538226
0.537075
0.535834
0.534492
0.533238
0.531777
0.478133
0.486983
0.493857
0.501707
0.507806
0.513683
0.518469
0.522632
0.526065
0.528934
0.531331
0.533349
0.535055
0.53651
0.537747
0.538819
0.53973
0.540514
0.541172
0.541701
0.542121
0.542421
0.542628
0.542728
0.542723
0.542631
0.54243
0.542133
0.541738
0.541239
0.540635
0.539931
0.539123
0.538203
0.537178
0.53605
0.534828
0.533505
0.532263
0.530815
0.475483
0.484348
0.49104
0.499047
0.505308
0.511417
0.516412
0.520752
0.524319
0.527284
0.52975
0.531815
0.533556
0.535035
0.536295
0.537388
0.538319
0.539123
0.539799
0.540347
0.540786
0.541104
0.541327
0.541447
0.541459
0.541386
0.541207
0.54093
0.540557
0.540082
0.539501
0.53882
0.538038
0.537141
0.53614
0.535036
0.533834
0.532529
0.531301
0.529865
0.472805
0.481698
0.488182
0.496341
0.502768
0.509117
0.514333
0.518859
0.522567
0.525635
0.528171
0.530285
0.532061
0.533566
0.534848
0.535961
0.536912
0.537735
0.53843
0.538996
0.539452
0.53979
0.540029
0.540167
0.540198
0.540143
0.539987
0.53973
0.539379
0.538929
0.538373
0.537714
0.536959
0.536087
0.53511
0.534032
0.532851
0.531565
0.530353
0.528928
0.47011
0.479039
0.485289
0.493592
0.500187
0.506784
0.512232
0.516952
0.52081
0.523985
0.526596
0.528759
0.530571
0.532101
0.533406
0.534538
0.535509
0.53635
0.537062
0.537647
0.538121
0.538478
0.538732
0.538889
0.538939
0.538902
0.538769
0.538534
0.538205
0.537779
0.537249
0.536614
0.535885
0.53504
0.534089
0.533037
0.53188
0.530613
0.529418
0.528003
0.467406
0.47638
0.482368
0.490805
0.497567
0.504417
0.510108
0.515033
0.519048
0.522336
0.525024
0.527237
0.529085
0.530641
0.531968
0.53312
0.534109
0.534968
0.535698
0.536301
0.536791
0.537167
0.537437
0.537612
0.537683
0.537664
0.537553
0.537342
0.537033
0.536633
0.536129
0.535519
0.534818
0.534001
0.533077
0.532052
0.53092
0.529673
0.528496
0.527091
0.464705
0.473728
0.479429
0.487983
0.494911
0.502018
0.507961
0.5131
0.517279
0.520685
0.523454
0.52572
0.527604
0.529187
0.530535
0.531706
0.532713
0.533589
0.534336
0.534957
0.535463
0.535859
0.536144
0.536337
0.53643
0.536429
0.536339
0.536152
0.535865
0.53549
0.535013
0.534429
0.533755
0.532967
0.532072
0.531075
0.529971
0.528746
0.527586
0.526191
0.462018
0.471093
0.476482
0.485134
0.492224
0.499589
0.505793
0.511153
0.515504
0.519034
0.521886
0.524207
0.526128
0.527737
0.529106
0.530296
0.53132
0.532213
0.532977
0.533616
0.534138
0.534551
0.534854
0.535063
0.535178
0.535195
0.535127
0.534964
0.534701
0.53435
0.533901
0.533342
0.532697
0.531939
0.531075
0.530106
0.529032
0.527829
0.526688
0.525303
0.459358
0.468485
0.473539
0.482264
0.489511
0.497132
0.503604
0.509192
0.513723
0.517382
0.52032
0.522698
0.524657
0.526292
0.527682
0.528891
0.529932
0.530842
0.531621
0.532277
0.532814
0.533246
0.533567
0.533792
0.533928
0.533965
0.533918
0.533779
0.533538
0.533213
0.532791
0.532259
0.531644
0.530917
0.530084
0.529145
0.528103
0.526924
0.525803
0.524427
0.456737
0.465916
0.470613
0.479381
0.486777
0.494651
0.501395
0.507219
0.511936
0.515729
0.518757
0.521193
0.523192
0.524853
0.526264
0.52749
0.528548
0.529474
0.530269
0.530941
0.531494
0.531942
0.532282
0.532522
0.53268
0.532736
0.53271
0.532596
0.532379
0.532077
0.531684
0.531179
0.530593
0.529899
0.529099
0.528193
0.527183
0.526031
0.52493
0.523566
0.45417
0.463394
0.467717
0.476496
0.484031
0.492149
0.499169
0.505235
0.510141
0.514075
0.517197
0.519694
0.521733
0.52342
0.524851
0.526095
0.52717
0.52811
0.528921
0.529608
0.530177
0.530641
0.530999
0.531254
0.531433
0.531509
0.531504
0.531414
0.53122
0.530944
0.530578
0.530102
0.529547
0.528886
0.528121
0.527248
0.526273
0.525149
0.524071
0.522718
0.45167
0.460932
0.464865
0.473619
0.481279
0.489633
0.496929
0.503239
0.508341
0.51242
0.515639
0.5182
0.52028
0.521994
0.523446
0.524706
0.525798
0.526752
0.527576
0.528278
0.528864
0.529342
0.529718
0.529989
0.530188
0.530283
0.5303
0.530233
0.530063
0.529812
0.529474
0.529028
0.528503
0.527877
0.527149
0.526311
0.525373
0.52428
0.523225
0.521885
0.449251
0.458539
0.462072
0.470762
0.478532
0.487107
0.494676
0.501233
0.506535
0.510764
0.514083
0.516711
0.518833
0.520575
0.522049
0.523325
0.524432
0.525398
0.526236
0.526952
0.527554
0.528046
0.52844
0.528726
0.528944
0.52906
0.529097
0.529054
0.528907
0.528681
0.528371
0.527955
0.527461
0.526872
0.526181
0.525381
0.524483
0.523424
0.522395
0.521068
0.446925
0.456224
0.459351
0.467937
0.475798
0.48458
0.492415
0.499219
0.504723
0.509106
0.512529
0.515227
0.517393
0.519163
0.520659
0.52195
0.523072
0.52405
0.524901
0.52563
0.526247
0.526753
0.527163
0.527465
0.527701
0.527839
0.527895
0.527875
0.527752
0.52755
0.527268
0.526884
0.526422
0.52587
0.525219
0.524459
0.523601
0.522581
0.52158
0.520268
0.444705
0.453995
0.456715
0.465156
0.473089
0.482057
0.49015
0.497199
0.502908
0.507447
0.510978
0.513747
0.515959
0.517759
0.519276
0.520582
0.521718
0.522707
0.52357
0.524312
0.524943
0.525463
0.525889
0.526207
0.52646
0.526618
0.526693
0.526696
0.526597
0.526421
0.526165
0.525814
0.525385
0.52487
0.52426
0.523543
0.522729
0.52175
0.520782
0.519486
0.442602
0.45186
0.454177
0.462431
0.470416
0.479546
0.487887
0.495176
0.50109
0.505788
0.50943
0.512272
0.514531
0.516362
0.517902
0.519222
0.520371
0.52137
0.522244
0.522998
0.523643
0.524175
0.524617
0.524952
0.52522
0.525399
0.525493
0.525518
0.525442
0.525291
0.525061
0.524743
0.524348
0.523872
0.523304
0.522632
0.521864
0.520933
0.520001
0.518723
0.440625
0.449822
0.451748
0.459776
0.467788
0.477056
0.485629
0.493152
0.49927
0.504129
0.507884
0.510801
0.513111
0.514974
0.516535
0.51787
0.51903
0.520039
0.520924
0.521689
0.522345
0.522891
0.523347
0.523699
0.523982
0.524181
0.524293
0.524339
0.524287
0.52416
0.523958
0.523672
0.523312
0.522874
0.52235
0.521724
0.521008
0.520128
0.519239
0.517982
0.438783
0.447886
0.449437
0.457201
0.465217
0.474595
0.483381
0.49113
0.497451
0.50247
0.506342
0.509337
0.511698
0.513594
0.515177
0.516526
0.517696
0.518716
0.519609
0.520385
0.521052
0.52161
0.522079
0.522448
0.522746
0.522964
0.523093
0.52316
0.52313
0.523028
0.522853
0.5226
0.522274
0.521877
0.521396
0.52082
0.520159
0.519336
0.518497
0.517264
0.437085
0.446053
0.447252
0.454718
0.462711
0.47217
0.481149
0.489113
0.495632
0.500811
0.504802
0.507879
0.510293
0.512223
0.513827
0.51519
0.51637
0.517399
0.518301
0.519085
0.519762
0.520333
0.520814
0.521199
0.521511
0.521747
0.521894
0.521979
0.521973
0.521895
0.521747
0.521526
0.521235
0.520877
0.520442
0.519918
0.519315
0.518556
0.517775
0.516574
0.435538
0.444322
0.445198
0.452337
0.46028
0.469789
0.478938
0.487103
0.493816
0.499154
0.503265
0.506426
0.508897
0.510861
0.512487
0.513862
0.515051
0.516089
0.516998
0.51779
0.518476
0.519058
0.519551
0.519951
0.520277
0.52053
0.520695
0.520798
0.520814
0.52076
0.520639
0.52045
0.520194
0.519876
0.519487
0.519016
0.518477
0.517788
0.517075
0.515913
0.434149
0.442693
0.443278
0.450065
0.457933
0.467459
0.476754
0.485104
0.492004
0.4975
0.501733
0.504981
0.507508
0.509508
0.511155
0.512544
0.513741
0.514786
0.515701
0.5165
0.517195
0.517787
0.51829
0.518705
0.519044
0.519312
0.519495
0.519614
0.519654
0.519623
0.519529
0.519371
0.519149
0.518871
0.518529
0.518114
0.517642
0.517031
0.516397
0.515288
0.432928
0.441163
0.441494
0.44791
0.455678
0.465188
0.474601
0.483119
0.490198
0.49585
0.500206
0.503544
0.506129
0.508165
0.509834
0.511235
0.512438
0.513489
0.51441
0.515214
0.515917
0.516518
0.517031
0.517459
0.517813
0.518094
0.518294
0.51843
0.518491
0.518483
0.518416
0.518289
0.518101
0.517862
0.517567
0.51721
0.516808
0.516284
0.515742
0.514701
0.431888
0.439728
0.439847
0.445879
0.45352
0.462982
0.472485
0.481153
0.488403
0.494207
0.498687
0.502114
0.504759
0.506833
0.508522
0.509936
0.511145
0.512201
0.513126
0.513934
0.514643
0.515251
0.515775
0.516215
0.516582
0.516875
0.517093
0.517244
0.517327
0.517341
0.5173
0.517203
0.517048
0.516849
0.5166
0.516302
0.515974
0.515546
0.515112
0.514161
0.431047
0.438385
0.438335
0.443975
0.451468
0.46085
0.470414
0.479214
0.486625
0.492577
0.497179
0.500697
0.5034
0.505512
0.507223
0.508647
0.509862
0.51092
0.511848
0.512659
0.513373
0.513988
0.514521
0.514971
0.515351
0.515656
0.515891
0.516057
0.51616
0.516197
0.51618
0.516113
0.515989
0.515829
0.515628
0.515389
0.515137
0.514813
0.514505
0.513676
0.430428
0.437134
0.43696
0.442205
0.449529
0.458805
0.468401
0.477312
0.48487
0.490964
0.495687
0.499293
0.502056
0.504206
0.505936
0.50737
0.508589
0.509648
0.510578
0.51139
0.512108
0.512729
0.51327
0.51373
0.514122
0.514438
0.514689
0.514869
0.514992
0.51505
0.515057
0.515018
0.514926
0.514803
0.514648
0.514469
0.514294
0.514083
0.513923
0.513256
0.430069
0.435989
0.435731
0.440576
0.447697
0.456822
0.466409
0.475402
0.483095
0.489324
0.49417
0.497869
0.500695
0.502887
0.50464
0.506085
0.507309
0.508369
0.5093
0.510114
0.510835
0.511462
0.51201
0.51248
0.512883
0.513211
0.513476
0.513672
0.513813
0.513893
0.513923
0.513911
0.51385
0.513765
0.513654
0.513535
0.513438
0.513346
0.513358
0.512914
0.430044
0.434923
0.434611
0.439031
0.445901
0.454816
0.464344
0.47339
0.481211
0.487582
0.492559
0.496363
0.499265
0.501508
0.503292
0.504755
0.505989
0.507055
0.507988
0.508807
0.509532
0.510167
0.510724
0.511205
0.511619
0.511961
0.512242
0.512454
0.512615
0.512717
0.512771
0.512785
0.512756
0.512706
0.51264
0.512579
0.512561
0.512594
0.512803
0.512668
0.430507
0.433836
0.433401
0.437448
0.444138
0.452912
0.462423
0.471538
0.479482
0.485982
0.491074
0.494968
0.49793
0.50021
0.502012
0.503482
0.504716
0.50578
0.506711
0.50753
0.508256
0.508895
0.509458
0.509948
0.510371
0.510724
0.511017
0.511245
0.511421
0.511542
0.511617
0.511654
0.511653
0.511635
0.51161
0.511602
0.511658
0.511811
0.512231
0.512512
0.4314
0.429968
0.42852
0.431882
0.438666
0.447737
0.457726
0.46735
0.475763
0.482639
0.488009
0.492074
0.495097
0.497343
0.499042
0.50038
0.501487
0.502443
0.503292
0.504056
0.504743
0.50536
0.505909
0.506394
0.506816
0.507178
0.507484
0.507734
0.507937
0.508093
0.508209
0.508294
0.508356
0.50841
0.508477
0.50859
0.508812
0.509249
0.510228
0.511936
0.420551
0.420347
0.420868
0.425454
0.432739
0.441567
0.450957
0.459954
0.467878
0.474445
0.479672
0.483721
0.48681
0.489168
0.491
0.492471
0.493699
0.494762
0.495705
0.496553
0.49732
0.498013
0.498637
0.499195
0.49969
0.500125
0.500502
0.500825
0.501097
0.501324
0.501511
0.501666
0.501802
0.501933
0.502086
0.502301
0.502657
0.503315
0.504688
0.507046
0.409009
0.41135
0.41416
0.419768
0.427142
0.435457
0.444085
0.452355
0.459735
0.465971
0.471044
0.475067
0.478215
0.480684
0.48265
0.484258
0.485617
0.486797
0.487846
0.488791
0.489648
0.490427