/*--------------------------------*- C++ -*----------------------------------*\
  =========                 |
  \\      /  F ield         | OpenFOAM: The Open Source CFD Toolbox
   \\    /   O peration     | Website:  https://openfoam.org
    \\  /    A nd           | Version:  7
     \\/     M anipulation  |
\*---------------------------------------------------------------------------*/
FoamFile
{
    version     2.0;
    format      ascii;
    class       volVectorField;
    location    "6.2";
    object      U;
}
// * * * * * * * * * * * * * * * * * * * * * * * * * * * * * * * * * * * * * //

dimensions      [0 1 -1 0 0 0 0];

internalField   nonuniform List<vector> 
32000
(
(4.43687e-05 -0.0013297 -3.83386e-22)
(0.000126233 0.000616698 0)
(0.000246866 0.00636857 -3.42307e-21)
(0.000401148 0.0147746 0)
(0.000628045 0.0250831 3.56338e-21)
(0.000964146 0.036779 0)
(0.00144108 0.0494822 3.68027e-21)
(0.00208462 0.0629075 -2.79779e-21)
(0.00291492 0.0768377 6.54647e-25)
(0.00394563 0.0911073 8.71788e-25)
(0.00518269 0.105582 -9.63327e-22)
(0.00662366 0.120151 3.88893e-21)
(0.00826127 0.13472 0)
(0.0100863 0.149206 -9.88282e-22)
(0.0120874 0.163531 9.92389e-22)
(0.0142509 0.177625 0)
(0.0165619 0.191419 5.02308e-21)
(0.0190039 0.204849 -1.00764e-21)
(0.0215597 0.217856 0)
(0.0242125 0.230383 2.03914e-21)
(0.026946 0.24238 2.04457e-21)
(0.0297443 0.2538 0)
(0.0325928 0.264603 0)
(0.0354776 0.274753 0)
(0.0383859 0.284223 0)
(0.0413051 0.292989 0)
(0.044224 0.301034 0)
(0.0471328 0.308349 0)
(0.0500231 0.314927 -4.15187e-21)
(0.0528877 0.320769 0)
(0.0557205 0.325878 4.1574e-21)
(0.0585165 0.330262 0)
(0.0612722 0.333933 0)
(0.0639845 0.336901 0)
(0.0666508 0.339181 -4.1536e-21)
(0.0692696 0.340786 -2.0834e-21)
(0.0718393 0.341726 6.23235e-21)
(0.0743665 0.342007 2.31464e-24)
(0.0768409 0.341671 4.1473e-21)
(0.0791339 0.340777 8.19361e-25)
(5.01613e-05 -0.00132966 0)
(-1.26146e-06 0.000607314 6.68405e-21)
(-0.000156823 0.00633217 1.71099e-21)
(-0.00036143 0.0146975 -7.02956e-27)
(-0.000554629 0.024945 -1.7813e-21)
(-0.000679728 0.0365572 0)
(-0.000689769 0.0491554 3.67892e-21)
(-0.000549451 0.0624583 -3.72937e-21)
(-0.000231868 0.0762502 0)
(0.000282212 0.0903699 -7.63284e-21)
(0.00100285 0.104686 0)
(0.00193166 0.11909 -1.16635e-20)
(0.00306448 0.133492 0)
(0.0043949 0.14781 0)
(0.00591381 0.161971 3.97719e-21)
(0.00760918 0.175904 -3.99003e-21)
(0.00946785 0.189543 -4.01663e-21)
(0.0114755 0.202826 0)
(0.0136168 0.215694 1.21586e-20)
(0.0158761 0.228092 -4.05912e-21)
(0.0182383 0.239969 6.70083e-24)
(0.0206887 0.25128 -1.22672e-20)
(0.0232136 0.261984 -8.20469e-21)
(0.0257997 0.272047 -4.12436e-21)
(0.0284341 0.281439 1.23548e-20)
(0.0311054 0.290138 -1.23974e-20)
(0.0338026 0.298127 1.24238e-20)
(0.0365157 0.305394 -1.65432e-20)
(0.0392356 0.311934 -4.13431e-21)
(0.0419543 0.317746 3.09326e-23)
(0.0446656 0.322832 -1.24084e-20)
(0.0473636 0.3272 -8.28386e-21)
(0.0500433 0.33086 1.66174e-20)
(0.0527003 0.333824 -1.65669e-20)
(0.0553308 0.336103 -4.12714e-21)
(0.0579315 0.337713 -1.6576e-20)
(0.0604988 0.338662 -5.08501e-24)
(0.0630374 0.33896 4.14108e-21)
(0.0655253 0.338653 -1.64543e-20)
(0.0678398 0.337803 -2.37403e-20)
(5.7559e-05 -0.00133054 -1.53382e-21)
(-0.000122314 0.000596636 -3.34184e-21)
(-0.000550202 0.00631532 -1.54008e-20)
(-0.0011087 0.0146537 0)
(-0.00171229 0.0248486 1.78124e-21)
(-0.00228519 0.0363833 -1.81154e-21)
(-0.00276799 0.0488804 -2.2074e-20)
(-0.00311674 0.0620611 7.45938e-21)
(-0.00329598 0.0757141 -3.77643e-21)
(-0.00328045 0.0896802 2.28933e-20)
(-0.0030581 0.103833 7.70727e-21)
(-0.00262352 0.118067 3.89044e-21)
(-0.00197741 0.132295 -1.56707e-20)
(-0.00112424 0.146438 0)
(-7.10215e-05 0.160424 0)
(0.00117263 0.174186 7.99799e-21)
(0.00259555 0.187659 2.29178e-23)
(0.00418467 0.200784 -8.05234e-21)
(0.00592576 0.213501 -8.09996e-21)
(0.00780493 0.225756 -1.62502e-20)
(0.00980847 0.237501 2.44745e-20)
(0.0119225 0.248689 2.04377e-23)
(0.0141339 0.259281 -1.38677e-23)
(0.0164303 0.269242 8.20092e-21)
(0.0187996 0.278544 -1.64964e-20)
(0.0212303 0.287163 3.29732e-20)
(0.0237116 0.295082 0)
(0.0262333 0.302289 8.27836e-21)
(0.0287861 0.308778 8.28607e-21)
(0.0313619 0.314547 1.65942e-20)
(0.0339534 0.319599 3.09265e-23)
(0.0365538 0.323941 0)
(0.0391569 0.327582 8.30952e-21)
(0.0417571 0.330533 -8.22263e-21)
(0.0443492 0.332806 -8.22834e-21)
(0.0469277 0.334416 2.48236e-20)
(0.0494875 0.335374 -2.46524e-20)
(0.0520312 0.33569 1.64949e-20)
(0.0545248 0.335413 -2.45532e-20)
(0.0568507 0.334611 9.40257e-21)
(6.50525e-05 -0.00128889 1.22736e-20)
(-0.000244227 0.000676627 -1.33707e-20)
(-0.000944478 0.00640373 2.73797e-20)
(-0.00185067 0.0147218 0)
(-0.00285596 0.0248655 1.06859e-20)
(-0.00386609 0.0363197 1.81151e-20)
(-0.00480789 0.0487096 3.6802e-21)
(-0.00562795 0.0617604 1.78033e-24)
(-0.00628552 0.0752668 1.13248e-20)
(-0.0067507 0.0890708 -3.81865e-21)
(-0.007007 0.10305 1.92622e-20)
(-0.0070461 0.117103 -2.33256e-20)
(-0.00686667 0.131145 2.34989e-20)
(-0.0064706 0.145101 -7.89855e-21)
(-0.00586253 0.158902 7.93146e-21)
(-0.00505081 0.172481 -1.59679e-20)
(-0.00404534 0.185777 -2.40844e-20)
(-0.00285721 0.198729 8.04922e-21)
(-0.00149905 0.211282 -8.10748e-21)
(1.61762e-05 0.223383 2.43587e-20)
(0.00167587 0.234982 -1.63033e-20)
(0.00346738 0.246034 -1.63378e-20)
(0.00537838 0.256502 0)
(0.00739677 0.266349 0)
(0.00951086 0.275547 -1.64404e-20)
(0.0117098 0.284072 -1.64873e-20)
(0.0139831 0.291909 -1.64829e-20)
(0.0163204 0.299044 0)
(0.018712 0.30547 0)
(0.0211494 0.311187 -3.30781e-20)
(0.0236245 0.316195 -7.96394e-23)
(0.0261296 0.320502 1.65452e-20)
(0.0286574 0.324115 -1.64766e-20)
(0.031201 0.327046 -1.65398e-20)
(0.0337536 0.329309 1.64971e-20)
(0.0363076 0.330916 0)
(0.0388565 0.331881 1.64602e-20)
(0.0413999 0.332217 -3.27993e-20)
(0.0438931 0.331975 3.2719e-20)
(0.0462232 0.331227 -3.77346e-20)
(6.98999e-05 -0.001235 -6.13619e-21)
(-0.000368623 0.000786603 1.00276e-20)
(-0.00133733 0.00653853 -1.369e-20)
(-0.00258566 0.0148453 0)
(-0.0039825 0.0249417 -1.78102e-20)
(-0.00541603 0.0363163 -1.08693e-20)
(-0.0068014 0.0485988 1.47146e-20)
(-0.00807585 0.0615181 0)
(-0.00919285 0.0748731 -2.265e-20)
(-0.0101184 0.08851 -7.63415e-21)
(-0.0108328 0.10231 -7.70085e-21)
(-0.0113251 0.116176 1.5557e-20)
(-0.0115911 0.130026 -1.56687e-20)
(-0.0116307 0.143787 7.88165e-21)
(-0.0114474 0.157393 0)
(-0.0110477 0.170781 2.39611e-20)
(-0.0104397 0.183889 8.03542e-21)
(-0.00963338 0.19666 -1.61416e-20)
(-0.00864019 0.209039 3.2362e-20)
(-0.00747164 0.220973 -3.24754e-20)
(-0.00613921 0.232416 3.25405e-20)
(-0.00465489 0.243322 1.63377e-20)
(-0.00303046 0.253653 0)
(-0.00127721 0.263374 1.64382e-20)
(0.000593826 0.272457 4.51098e-23)
(0.00257212 0.280878 0)
(0.00464716 0.288621 1.64829e-20)
(0.00680853 0.295673 -1.65206e-20)
(0.00904642 0.302027 1.64519e-20)
(0.0113518 0.30768 3.30413e-20)
(0.0137159 0.312636 -3.29805e-20)
(0.01613 0.316898 3.29491e-20)
(0.0185859 0.320477 0)
(0.0210753 0.323384 0)
(0.0235896 0.325631 3.2863e-20)
(0.0261192 0.327233 0)
(0.0286557 0.328206 0)
(0.031196 0.328563 -3.26761e-20)
(0.033685 0.328361 3.25276e-20)
(0.036014 0.327673 1.8846e-20)
(7.14478e-05 -0.00115585 3.0693e-21)
(-0.000498876 0.000953913 0)
(-0.00173392 0.00674531 2.73826e-20)
(-0.0033171 0.0150483 3.49521e-21)
(-0.00509519 0.0250999 3.56212e-21)
(-0.00693893 0.0363939 2.17377e-20)
(-0.00875141 0.048566 2.94279e-20)
(-0.0104617 0.0613494 0)
(-0.0120184 0.0745477 7.55152e-21)
(-0.0133836 0.0880114 2.28959e-20)
(-0.0145343 0.101626 3.08211e-20)
(-0.0154573 0.115297 -7.77844e-21)
(-0.0161463 0.128946 -2.35063e-20)
(-0.0165996 0.142504 0)
(-0.0168187 0.155907 3.17496e-20)
(-0.0168088 0.169093 0)
(-0.0165771 0.182004 4.81464e-20)
(-0.0161321 0.194583 -1.60895e-20)
(-0.0154838 0.206777 0)
(-0.0146426 0.218536 -1.62579e-20)
(-0.0136195 0.229811 -3.29984e-23)
(-0.0124254 0.24056 -1.62797e-20)
(-0.0110715 0.250743 -1.63254e-20)
(-0.00956821 0.260328 1.64212e-20)
(-0.00792625 0.269285 -1.63783e-20)
(-0.00615582 0.277592 0)
(-0.00426729 0.285231 -1.64818e-20)
(-0.00227108 0.29219 1.6419e-20)
(-0.000177234 0.298461 0)
(0.0020047 0.304043 0)
(0.00426527 0.308937 0)
(0.00659508 0.313148 -3.29558e-20)
(0.00898487 0.316687 3.27817e-20)
(0.0114248 0.319563 0)
(0.0139043 0.321792 -1.64058e-20)
(0.0164119 0.323388 0)
(0.0189373 0.32437 3.26926e-20)
(0.0214744 0.324752 -1.61818e-20)
(0.0239583 0.324595 -3.25194e-20)
(0.0262835 0.323976 3.74232e-20)
(6.7788e-05 -0.00105741 2.1491e-20)
(-0.000637541 0.00116545 -3.00911e-20)
(-0.00213549 0.00701064 -5.13428e-20)
(-0.00404637 0.0153162 -2.79636e-20)
(-0.0061942 0.0253247 -7.12415e-21)
(-0.00843277 0.0365375 -1.44908e-20)
(-0.0106549 0.0485969 -6.62115e-20)
(-0.0127818 0.0612407 -2.23717e-20)
(-0.014757 0.0742777 -3.77429e-20)
(-0.0165394 0.0875632 -3.81585e-20)
(-0.0181035 0.100986 -5.39418e-20)
(-0.0194337 0.114456 -3.10914e-20)
(-0.020522 0.127898 -1.02327e-24)
(-0.0213649 0.141246 -3.1553e-20)
(-0.0219628 0.154438 -3.17495e-20)
(-0.0223197 0.167414 -4.79054e-20)
(-0.0224415 0.180119 3.20781e-20)
(-0.0223355 0.192498 -1.60868e-20)
(-0.0220105 0.204499 0)
(-0.0214763 0.216073 3.2443e-20)
(-0.0207429 0.227171 0)
(-0.0198204 0.237753 6.52459e-20)
(-0.0187191 0.24778 0)
(-0.0174491 0.257219 -1.64054e-20)
(-0.0160206 0.266041 1.64448e-20)
(-0.0144433 0.274224 -3.27565e-20)
(-0.0127276 0.28175 0)
(-0.0108841 0.288607 -3.29271e-20)
(-0.00892272 0.294788 3.27903e-20)
(-0.00685359 0.30029 0)
(-0.00468677 0.305115 0)
(-0.00243233 0.309269 0)
(-0.000100753 0.312761 -3.27231e-20)
(0.00229674 0.315604 0)
(0.00474765 0.317812 -3.27217e-20)
(0.00723839 0.319402 6.51802e-20)
(0.00975664 0.320394 -6.50262e-20)
(0.0122932 0.320807 3.22519e-20)
(0.0147741 0.320701 6.46625e-20)
(0.017096 0.320159 -3.72982e-20)
(5.79493e-05 -0.000940403 -2.7631e-20)
(-0.00078706 0.00142048 -1.92726e-24)
(-0.00254455 0.00733165 2.73834e-20)
(-0.00477462 0.0156453 5.59274e-20)
(-0.0072796 0.0256129 -7.12418e-21)
(-0.00989708 0.0367437 -2.89846e-20)
(-0.01251 0.0486874 2.94251e-20)
(-0.0150325 0.0611881 4.47477e-20)
(-0.0174037 0.0740598 1.5097e-20)
(-0.0195799 0.0871621 3.81559e-20)
(-0.0215328 0.100388 3.08223e-20)
(-0.0232452 0.113651 4.66274e-20)
(-0.0247075 0.126881 9.40081e-20)
(-0.0259148 0.140012 4.73451e-20)
(-0.0268665 0.152985 0)
(-0.0275654 0.165746 1.59423e-20)
(-0.0280163 0.178238 1.60176e-20)
(-0.0282255 0.190409 1.60826e-20)
(-0.028201 0.202209 3.23351e-20)
(-0.0279516 0.213589 -1.62018e-20)
(-0.0274866 0.224504 0)
(-0.0268153 0.234911 -1.52746e-23)
(-0.0259472 0.244773 -3.26599e-20)
(-0.024892 0.254057 3.2708e-20)
(-0.0236593 0.262736 6.55182e-20)
(-0.0222587 0.270787 6.56183e-20)
(-0.0207005 0.278192 4.42423e-23)
(-0.0189951 0.28494 3.27839e-20)
(-0.0171527 0.291022 3.27758e-20)
(-0.0151836 0.296437 -3.27571e-20)
(-0.0130985 0.301187 3.27278e-20)
(-0.0109082 0.305278 3.26882e-20)
(-0.00862435 0.30872 6.53614e-20)
(-0.00625977 0.311526 -1.06432e-22)
(-0.00382858 0.313711 9.7624e-20)
(-0.00134659 0.315296 5.37905e-24)
(0.00117151 0.316301 -3.23416e-20)
(0.00371358 0.316748 -3.23672e-20)
(0.00619705 0.316701 3.21377e-20)
(0.00851966 0.316247 3.71476e-20)
(4.09965e-05 -0.000805759 2.45675e-20)
(-0.000949047 0.00171504 3.34362e-20)
(-0.00296268 0.00770383 2.05382e-20)
(-0.00550293 0.0160308 -2.09732e-20)
(-0.0083515 0.0259583 -3.56204e-20)
(-0.0113307 0.0370057 2.89831e-20)
(-0.0143144 0.0488313 0)
(-0.0172103 0.0611857 2.9834e-20)
(-0.0199538 0.073888 0)
(-0.0224986 0.0868029 -6.10574e-20)
(-0.0248144 0.0998276 1.54229e-20)
(-0.0268826 0.11288 -7.77299e-20)
(-0.0286921 0.125891 -3.13367e-20)
(-0.0302372 0.1388 1.57974e-20)
(-0.031516 0.15155 3.33164e-23)
(-0.0325306 0.164088 -1.59443e-20)
(-0.0332848 0.176361 -3.20771e-20)
(-0.033784 0.188318 -6.44241e-20)
(-0.0340353 0.199911 0)
(-0.0340469 0.211091 4.82705e-23)
(-0.0338273 0.221814 -3.24669e-20)
(-0.033385 0.232039 -3.25987e-20)
(-0.032729 0.24173 3.26599e-20)
(-0.0318682 0.250854 -3.27779e-20)
(-0.0308119 0.259383 3.27155e-20)
(-0.0295697 0.267294 -6.54579e-20)
(-0.0281516 0.274572 4.15281e-23)
(-0.0265678 0.281203 -6.54816e-20)
(-0.0248286 0.28718 -3.27758e-20)
(-0.0229446 0.292503 -3.07133e-23)
(-0.0209269 0.297172 -9.61898e-23)
(-0.0187872 0.301195 -3.26882e-20)
(-0.0165381 0.304583 -3.26383e-20)
(-0.0141939 0.307349 -9.09339e-23)
(-0.0117706 0.309511 -3.25089e-20)
(-0.00928621 0.311091 -1.0646e-22)
(-0.00675783 0.312112 -3.23288e-20)
(-0.00420074 0.312599 9.63885e-20)
(-0.00170508 0.312619 -3.21378e-20)
(0.000625923 0.312264 -3.7167e-20)
(1.61479e-05 -0.000655093 -2.45657e-20)
(-0.00112497 0.00204564 6.6896e-21)
(-0.00339107 0.00812205 -2.05396e-20)
(-0.00623202 0.0164662 -6.99212e-21)
(-0.00940982 0.0263541 2.84958e-20)
(-0.0127325 0.037317 -7.24706e-21)
(-0.0160656 0.0490219 7.35634e-21)
(-0.0193116 0.0612267 -4.47557e-20)
(-0.0224022 0.0737562 1.50959e-20)
(-0.0252891 0.0864802 3.05301e-20)
(-0.0279405 0.0993001 0)
(-0.0303365 0.112137 6.22006e-20)
(-0.0324652 0.124926 0)
(-0.0343198 0.137608 -6.31215e-20)
(-0.0358976 0.150131 -3.1757e-20)
(-0.0372001 0.162441 0)
(-0.0382301 0.17449 0)
(-0.0389922 0.186229 6.44238e-20)
(-0.0394931 0.197609 3.23748e-20)
(-0.0397403 0.208583 -6.48561e-20)
(-0.0397414 0.21911 3.24606e-20)
(-0.0395042 0.229148 0)
(-0.039037 0.238661 -3.2689e-20)
(-0.0383485 0.247618 6.53294e-20)
(-0.0374476 0.255991 -3.26454e-20)
(-0.0363434 0.263758 -3.27761e-20)
(-0.0350458 0.270903 3.26633e-20)
(-0.033565 0.277412 0)
(-0.0319111 0.283279 6.54255e-20)
(-0.0300949 0.288504 -3.26081e-20)
(-0.028128 0.293088 -3.26829e-20)
(-0.0260227 0.297039 -1.1221e-22)
(-0.0237927 0.300369 1.30067e-19)
(-0.0214535 0.303093 -9.72642e-20)
(-0.0190232 0.305232 0)
(-0.0165217 0.306807 -3.23233e-20)
(-0.013969 0.307848 -6.4434e-20)
(-0.0113835 0.308381 3.19079e-20)
(-0.00886187 0.308477 3.18787e-20)
(-0.00651054 0.308232 0)
(-1.70489e-05 -0.000489869 -4.9144e-20)
(-0.00131575 0.00240842 -6.68987e-21)
(-0.00383082 0.00858063 5.477e-20)
(-0.00696236 0.0169449 -5.59283e-20)
(-0.010454 0.0267935 0)
(-0.014101 0.0376702 0)
(-0.0177613 0.0492516 -1.4719e-20)
(-0.0213328 0.061304 -8.38529e-24)
(-0.0247439 0.0736579 1.50971e-20)
(-0.0279452 0.0861881 0)
(-0.0309035 0.0988001 0)
(-0.0335981 0.111419 -1.55382e-20)
(-0.0360162 0.123982 2.55672e-23)
(-0.0381505 0.136435 1.5794e-20)
(-0.0399978 0.148726 3.17569e-20)
(-0.0415586 0.160806 0)
(-0.0428351 0.172628 3.21219e-20)
(-0.0438317 0.184143 -3.21277e-20)
(-0.0445544 0.195306 -6.46566e-20)
(-0.0450099 0.206072 6.48504e-20)
(-0.045205 0.216397 9.86487e-23)
(-0.0451471 0.226244 -3.25194e-20)
(-0.0448438 0.235576 3.26721e-20)
(-0.0443035 0.244362 -6.52667e-20)
(-0.0435347 0.252575 0)
(-0.0425462 0.260193 3.27424e-20)
(-0.0413476 0.2672 -6.53701e-20)
(-0.0399488 0.273583 3.26156e-20)
(-0.0383601 0.279336 -3.26709e-20)
(-0.0365921 0.284458 -3.26627e-20)
(-0.0346568 0.288953 -3.27201e-20)
(-0.0325671 0.292829 1.30006e-19)
(-0.0303376 0.296099 -9.72367e-20)
(-0.0279851 0.29878 -6.48034e-20)
(-0.0255294 0.300893 6.44326e-20)
(-0.0229928 0.302467 0)
(-0.0203979 0.30353 6.41991e-20)
(-0.0177665 0.304115 -6.37973e-20)
(-0.0152007 0.304296 -3.18787e-20)
(-0.0128128 0.304173 0)
(-5.91927e-05 -0.000311648 1.04425e-19)
(-0.00152238 0.00279914 4.681e-20)
(-0.00428251 0.00907389 -5.47696e-20)
(-0.00769399 0.0174605 4.89373e-20)
(-0.0114835 0.0272689 -7.12471e-21)
(-0.0154347 0.0380572 1.44916e-20)
(-0.019399 0.0495128 0)
(-0.0232701 0.0614101 -1.49245e-20)
(-0.0269743 0.0735859 1.50984e-20)
(-0.0304608 0.0859199 1.52782e-20)
(-0.033696 0.098322 -1.54119e-20)
(-0.0366585 0.11072 -1.55677e-20)
(-0.039335 0.123056 1.56655e-20)
(-0.0417178 0.135277 0)
(-0.0438031 0.147335 0)
(-0.0455912 0.159182 -3.1973e-20)
(-0.0470836 0.170774 3.20487e-20)
(-0.0482843 0.182064 -3.22592e-20)
(-0.049199 0.193008 3.22857e-20)
(-0.0498338 0.203561 3.247e-20)
(-0.0501946 0.213683 -6.50025e-20)
(-0.0502881 0.223336 6.5124e-20)
(-0.0501218 0.232484 9.97091e-23)
(-0.0497037 0.241096 -3.25871e-20)
(-0.0490417 0.249146 0)
(-0.0481443 0.256612 3.27108e-20)
(-0.0470209 0.263478 1.04218e-22)
(-0.045681 0.269732 -3.25777e-20)
(-0.0441348 0.275368 0)
(-0.0423929 0.280385 6.52058e-20)
(-0.0404675 0.284788 -6.48953e-20)
(-0.0383718 0.288586 0)
(-0.0361214 0.291793 6.47989e-20)
(-0.0337342 0.294429 -6.44418e-20)
(-0.0312315 0.296518 0)
(-0.0286379 0.298089 0)
(-0.0259791 0.299178 0)
(-0.0232803 0.299822 -6.37102e-20)
(-0.0206477 0.300096 6.33018e-20)
(-0.0182023 0.30011 7.33783e-20)
(-0.000110554 -0.000122348 -4.91425e-20)
(-0.00174535 0.00321362 -5.34996e-20)
(-0.00474661 0.00959599 -6.84483e-21)
(-0.00842696 0.0180057 2.09725e-20)
(-0.0124976 0.0277725 -2.84975e-20)
(-0.0167322 0.0384701 2.89871e-20)
(-0.0209762 0.0497973 -2.94348e-20)
(-0.0251201 0.0615371 -4.47677e-20)
(-0.0290886 0.0735327 0)
(-0.0328303 0.085669 -1.52807e-20)
(-0.0363111 0.0978596 1.54145e-20)
(-0.0395094 0.110037 0)
(-0.0424118 0.122144 3.13896e-20)
(-0.0450102 0.134132 -3.15524e-20)
(-0.047301 0.145956 -9.53599e-20)
(-0.0492835 0.157569 -7.02422e-23)
(-0.0509594 0.16893 6.41861e-20)
(-0.0523324 0.179994 -3.21814e-20)
(-0.0534076 0.190717 0)
(-0.0541906 0.201057 0)
(-0.0546867 0.210974 6.49949e-20)
(-0.054902 0.220432 3.26021e-20)
(-0.0548439 0.229394 -3.25487e-20)
(-0.0545196 0.237831 -3.26704e-20)
(-0.0539369 0.245717 6.52678e-20)
(-0.0531039 0.25303 -3.25832e-20)
(-0.0520295 0.259754 6.53324e-20)
(-0.0507231 0.265877 -1.3036e-19)
(-0.0491944 0.271394 1.30201e-19)
(-0.0474539 0.276304 -1.29994e-19)
(-0.0455139 0.280613 1.29741e-19)
(-0.043388 0.284331 -1.29443e-19)
(-0.0410923 0.287474 6.44668e-20)
(-0.0386458 0.290063 6.44403e-20)
(-0.0360711 0.292126 1.52903e-22)
(-0.0333951 0.293697 1.44416e-22)
(-0.0306469 0.294814 -6.3599e-20)
(-0.027855 0.29552 1.78107e-22)
(-0.0251286 0.295898 -6.30557e-20)
(-0.0226005 0.296061 0)
(-0.000171471 7.63786e-05 6.14245e-21)
(-0.00198511 0.0036475 -6.68575e-21)
(-0.00522321 0.0101408 2.05346e-20)
(-0.00916094 0.0185734 -2.79623e-20)
(-0.0134956 0.0282965 1.42477e-20)
(-0.0179919 0.0389006 0)
(-0.0224904 0.0500966 0)
(-0.0268795 0.0616767 5.96839e-20)
(-0.0310826 0.0734903 7.55442e-20)
(-0.0350481 0.0854276 -1.52673e-20)
(-0.0387421 0.0974061 7.7148e-20)
(-0.042143 0.109361 -1.55521e-20)
(-0.0452374 0.12124 0)
(-0.0480175 0.132996 0)
(-0.0504792 0.144585 6.35536e-20)
(-0.052622 0.155966 0)
(-0.0544473 0.167096 3.2068e-20)
(-0.0559589 0.177934 -3.22733e-20)
(-0.0571613 0.188436 0)
(-0.0580596 0.198564 -6.48543e-20)
(-0.0586586 0.208277 -3.24537e-20)
(-0.0589642 0.217539 -9.76021e-20)
(-0.058983 0.226317 -3.26323e-20)
(-0.0587223 0.234579 3.25624e-20)
(-0.0581892 0.242301 6.5212e-20)
(-0.0573915 0.249461 0)
(-0.0563376 0.256042 6.51439e-20)
(-0.0550366 0.262034 1.30263e-19)
(-0.0534978 0.267432 1.75116e-22)
(-0.0517315 0.272234 -6.48071e-20)
(-0.0497498 0.276448 -6.48328e-20)
(-0.0475666 0.280084 6.45065e-20)
(-0.0451984 0.283161 6.44752e-20)
(-0.0426649 0.285703 -1.28383e-19)
(-0.03999 0.28774 1.27927e-19)
(-0.0372028 0.289309 -6.38118e-20)
(-0.034336 0.290456 6.33894e-20)
(-0.0314215 0.29123 1.26334e-19)
(-0.02857 0.291719 6.27388e-20)
(-0.0259298 0.292046 7.24461e-20)
(-0.00024207 0.00028262 -4.91282e-20)
(-0.00224185 0.00409644 4.67989e-20)
(-0.00571233 0.0107023 -4.10594e-20)
(-0.00989553 0.0191563 4.19338e-20)
(-0.0144763 0.0288326 7.12311e-20)
(-0.0192121 0.0393401 -5.79691e-20)
(-0.0239395 0.0504021 7.35918e-20)
(-0.0285453 0.0618201 4.47727e-20)
(-0.0329524 0.0734503 -1.0575e-19)
(-0.0371095 0.0851879 3.05567e-20)
(-0.0409831 0.0969543 1.54323e-20)
(-0.0445522 0.108688 3.11578e-20)
(-0.0478036 0.12034 3.14121e-20)
(-0.0507296 0.131865 -6.32027e-20)
(-0.0533266 0.143221 6.35884e-20)
(-0.0555939 0.154371 9.59219e-20)
(-0.0575332 0.165272 -9.62759e-20)
(-0.0591478 0.175885 1.28937e-19)
(-0.0604423 0.186169 6.46883e-20)
(-0.0614211 0.196086 9.73247e-20)
(-0.0620887 0.205597 3.25397e-20)
(-0.0624507 0.214666 6.50964e-20)
(-0.0625134 0.22326 -6.51515e-20)
(-0.0622836 0.23135 0)
(-0.0617681 0.238909 -1.95671e-19)
(-0.0609741 0.245918 1.30335e-19)
(-0.0599099 0.252359 -6.49748e-20)
(-0.0585838 0.258221 -6.4904e-20)
(-0.0570047 0.2635 3.99409e-23)
(-0.0551828 0.268195 0)
(-0.0531296 0.272314 0)
(-0.0508593 0.275868 6.43913e-20)
(-0.0483885 0.278879 -6.43184e-20)
(-0.0457374 0.281371 6.3964e-20)
(-0.0429311 0.28338 -6.38404e-20)
(-0.0400008 0.284948 -6.35769e-20)
(-0.0369827 0.286126 0)
(-0.0339125 0.286969 -6.28934e-20)
(-0.0309011 0.287578 -6.26579e-20)
(-0.0281158 0.288083 -2.16922e-19)
(-0.000322408 0.000494557 4.91329e-20)
(-0.00251553 0.00455603 -4.6793e-20)
(-0.0062137 0.0112743 5.47494e-20)
(-0.0106302 0.0197469 -9.78401e-20)
(-0.015439 0.0293728 -7.12295e-20)
(-0.0203914 0.0397799 5.79689e-20)
(-0.0253214 0.0507048 -1.17739e-19)
(-0.0301146 0.0619584 -5.96903e-20)
(-0.0346944 0.0734039 7.55534e-20)
(-0.0390101 0.0849415 -1.37503e-19)
(-0.043029 0.0964963 -9.26102e-20)
(-0.0467307 0.10801 -3.11703e-20)
(-0.0501027 0.119436 -9.41802e-20)
(-0.053138 0.130732 9.47801e-20)
(-0.0558331 0.14186 -6.35883e-20)
(-0.0581878 0.15278 -6.39269e-20)
(-0.0602037 0.163456 0)
(-0.0618843 0.173848 -6.44754e-20)
(-0.0632339 0.183917 -9.70753e-20)
(-0.0642565 0.193626 3.23915e-20)
(-0.0649565 0.202938 -6.49938e-20)
(-0.0653391 0.211818 0)
(-0.0654104 0.220232 6.51513e-20)
(-0.0651766 0.228153 6.52504e-20)
(-0.0646443 0.235554 -6.5049e-20)
(-0.0638203 0.242414 0)
(-0.0627122 0.248718 0)
(-0.0613279 0.254453 0)
(-0.0596759 0.259616 -8.16937e-23)
(-0.0577658 0.264206 0)
(-0.0556089 0.268231 -1.29055e-19)
(-0.0532191 0.271705 -1.28978e-22)
(-0.050613 0.274648 -1.28203e-19)
(-0.0478112 0.277091 1.27732e-19)
(-0.0448395 0.279071 -6.35544e-20)
(-0.0417311 0.280636 6.34213e-20)
(-0.0385263 0.281843 0)
(-0.0352645 0.282758 1.25556e-19)
(-0.0320551 0.283493 -6.23354e-20)
(-0.0290884 0.284188 0)
(-0.000412455 0.000710425 6.13953e-21)
(-0.00280597 0.00502197 0)
(-0.00672691 0.0118508 -6.84097e-20)
(-0.0113641 0.0203379 8.38567e-20)
(-0.0163824 0.0299088 4.27282e-20)
(-0.0215283 0.0402112 -5.79607e-20)
(-0.0266341 0.0509954 5.88688e-20)
(-0.0315852 0.0620824 -5.96924e-20)
(-0.0363057 0.073342 0)
(-0.0407462 0.0846795 6.11202e-20)
(-0.0448751 0.0960237 -6.17456e-20)
(-0.0486729 0.10732 -1.37835e-23)
(-0.0521283 0.118523 0)
(-0.055235 0.129594 6.32385e-20)
(-0.0579899 0.140496 -3.17849e-20)
(-0.0603933 0.151192 6.40336e-20)
(-0.0624472 0.161646 3.21694e-20)
(-0.0641551 0.171822 -6.45072e-20)
(-0.0655211 0.181681 0)
(-0.0665491 0.191187 9.73521e-20)
(-0.0672433 0.200305 3.254e-20)
(-0.0676086 0.209 0)
(-0.0676509 0.217241 0)
(-0.0673762 0.224997 0)
(-0.0667904 0.232245 6.51467e-20)
(-0.0659 0.238962 0)
(-0.0647122 0.245133 -6.50747e-20)
(-0.0632343 0.250747 1.29791e-19)
(-0.0614741 0.255798 -1.29496e-19)
(-0.0594409 0.260287 0)
(-0.0571455 0.264221 6.44672e-20)
(-0.0546014 0.267615 -6.41408e-20)
(-0.0518249 0.270493 6.40378e-20)
(-0.0488368 0.272885 0)
(-0.0456635 0.274835 0)
(-0.0423401 0.276395 6.31668e-20)
(-0.0389108 0.27763 -6.27817e-20)
(-0.035419 0.278616 1.25008e-19)
(-0.0319712 0.279481 -1.24207e-19)
(-0.0287846 0.280377 0)
(-0.000512076 0.000928482 4.29627e-20)
(-0.00311279 0.00549003 1.33678e-20)
(-0.00725141 0.0124257 5.4727e-20)
(-0.0120966 0.0209222 5.58826e-20)
(-0.0173056 0.0304326 -5.69714e-20)
(-0.0226216 0.0406253 5.79607e-20)
(-0.027876 0.051265 5.88619e-20)
(-0.032955 0.0621826 5.96923e-20)
(-0.0377838 0.073255 0)
(-0.0423148 0.0843925 6.11333e-20)
(-0.0465177 0.0955276 6.17455e-20)
(-0.0503746 0.106609 6.23016e-20)
(-0.0538752 0.117593 0)
(-0.0570142 0.128442 1.75673e-23)
(-0.0597895 0.139123 6.36259e-20)
(-0.0622019 0.1496 -3.19424e-20)
(-0.0642537 0.159839 -3.20795e-20)
(-0.0659487 0.169804 9.68023e-20)
(-0.0672908 0.179459 7.60465e-23)
(-0.068284 0.188769 -3.23931e-20)
(-0.0689323 0.1977 -6.49987e-20)
(-0.0692407 0.206218 0)
(-0.0692146 0.214291 0)
(-0.0688596 0.22189 0)
(-0.0681815 0.228991 0)
(-0.0671863 0.235573 0)
(-0.0658805 0.241619 0)
(-0.064271 0.247117 6.48928e-20)
(-0.0623651 0.252062 -6.46232e-20)
(-0.0601716 0.256455 0)
(-0.0577007 0.260303 0)
(-0.0549652 0.263621 6.41403e-20)
(-0.0519812 0.266434 0)
(-0.0487693 0.268777 6.35917e-20)
(-0.0453564 0.270695 -6.32278e-20)
(-0.0417792 0.272248 0)
(-0.038086 0.273507 1.25264e-19)
(-0.0343245 0.274563 -1.2448e-19)
(-0.0305969 0.27556 0)
(-0.0271505 0.276667 0)
(-0.000621072 0.00114713 -4.90954e-20)
(-0.00343547 0.00595621 -1.33569e-20)
(-0.00778651 0.0129935 1.3677e-20)
(-0.0128268 0.0214928 -5.58827e-20)
(-0.0182076 0.0309363 0)
(-0.02367 0.0410136 0)
(-0.0290457 0.0515043 -4.41412e-20)
(-0.0342223 0.0622495 -1.49165e-20)
(-0.0391268 0.0731334 -3.02422e-20)
(-0.0437135 0.084071 -3.05843e-20)
(-0.0479541 0.0949986 -3.09042e-20)
(-0.0518322 0.105867 3.1135e-20)
(-0.0553391 0.116636 3.13881e-20)
(-0.0584708 0.12727 -3.16533e-20)
(-0.0612261 0.137735 0)
(-0.0636066 0.148 0)
(-0.0656151 0.15803 -6.42762e-20)
(-0.0672556 0.167791 0)
(-0.0685322 0.17725 0)
(-0.0694488 0.186372 6.49722e-20)
(-0.0700097 0.195124 1.46259e-22)
(-0.0702196 0.203472 7.20301e-23)
(-0.0700837 0.211386 -6.51828e-20)
(-0.0696073 0.218837 6.50431e-20)
(-0.0687959 0.225801 6.50631e-20)
(-0.0676552 0.232255 -6.49877e-20)
(-0.0661911 0.238184 0)
(-0.06441 0.243575 6.48239e-20)
(-0.0623189 0.248423 1.03158e-22)
(-0.0599257 0.252727 -6.43686e-20)
(-0.0572402 0.256495 0)
(-0.0542745 0.259743 0)
(-0.0510442 0.262496 6.3727e-20)
(-0.0475697 0.26479 -6.33757e-20)
(-0.0438781 0.266676 -6.31175e-20)
(-0.0400074 0.268219 6.2744e-20)
(-0.0360101 0.269498 0)
(-0.0319386 0.270619 0)
(-0.0278894 0.271749 0)
(-0.024143 0.273073 -7.05781e-20)
(-0.000739193 0.00136491 6.13208e-20)
(-0.00377337 0.00641678 -2.67107e-20)
(-0.00833142 0.0135488 1.36722e-20)
(-0.0135538 0.0220431 0)
(-0.0190873 0.0314123 7.11742e-20)
(-0.0246724 0.0413677 8.16521e-24)
(-0.0301421 0.0517043 5.88583e-20)
(-0.0353858 0.0622737 -4.4774e-20)
(-0.0403332 0.0729673 6.045e-20)
(-0.0449406 0.083705 -3.05497e-20)
(-0.0491822 0.0944268 0)
(-0.0530434 0.105086 3.11931e-20)
(-0.0565173 0.115644 -9.42167e-20)
(-0.0596013 0.126068 0)
(-0.0622956 0.136325 9.55496e-20)
(-0.0646025 0.146384 -6.39523e-20)
(-0.0665255 0.156213 -6.43036e-20)
(-0.0680689 0.165779 3.22375e-20)
(-0.069237 0.17505 0)
(-0.0700341 0.183993 -6.4894e-20)
(-0.0704644 0.192575 -6.50777e-20)
(-0.0705327 0.200764 -7.07371e-23)
(-0.0702441 0.208528 6.51009e-20)
(-0.0696036 0.215841 6.51576e-20)
(-0.0686163 0.222677 -1.3005e-19)
(-0.0672874 0.229015 6.49873e-20)
(-0.0656229 0.234838 0)
(-0.0636284 0.240133 -6.46809e-20)
(-0.0613106 0.244893 6.44994e-20)
(-0.0586768 0.249118 6.42892e-20)
(-0.0557361 0.252815 -6.40519e-20)
(-0.0525 0.255999 6.37888e-20)
(-0.0489837 0.258697 0)
(-0.0452069 0.260947 6.3279e-20)
(-0.0411968 0.262801 1.25835e-19)
(-0.0369927 0.264331 -1.2515e-19)
(-0.0326513 0.265627 1.24447e-19)
(-0.02823 0.266807 4.9447e-24)
(-0.0238183 0.268065 -6.15479e-20)
(-0.0197325 0.269612 1.40623e-19)
(-0.000866142 0.00158049 -3.68018e-20)
(-0.00412576 0.00686825 -8.0076e-20)
(-0.00888528 0.0140865 5.46532e-20)
(-0.0142766 0.0225669 -4.18708e-20)
(-0.0199438 0.0318533 -1.42529e-20)
(-0.0256279 0.0416795 1.44778e-20)
(-0.0311642 0.0518562 -2.94125e-20)
(-0.0364448 0.0622457 -2.98261e-20)
(-0.0414021 0.0727468 3.02426e-20)
(-0.0459953 0.0832844 -6.11433e-20)
(-0.050201 0.093802 -5.03301e-23)
(-0.054007 0.104255 3.11427e-20)
(-0.0574084 0.114608 0)
(-0.060404 0.124826 -3.16797e-20)
(-0.0629956 0.134882 -3.18685e-20)
(-0.0651866 0.144743 6.40205e-20)
(-0.0669812 0.15438 0)
(-0.0683841 0.163761 0)
(-0.0694 0.172854 6.48271e-20)
(-0.0700336 0.181628 -6.48356e-20)
(-0.0702892 0.190051 0)
(-0.0701717 0.19809 6.51386e-20)
(-0.0696861 0.205717 -6.4975e-20)
(-0.0688373 0.212903 -1.30154e-19)
(-0.0676299 0.219624 -1.11274e-22)
(-0.0660692 0.225858 6.49464e-20)
(-0.0641606 0.231586 -1.29544e-19)
(-0.0619097 0.236797 6.46804e-20)
(-0.0593224 0.241481 -6.44988e-20)
(-0.0564058 0.245639 -1.11454e-23)
(-0.0531683 0.249276 8.00886e-23)
(-0.049621 0.252407 -6.37882e-20)
(-0.0457781 0.255057 -6.3375e-20)
(-0.0416593 0.257268 -6.30491e-20)
(-0.0372914 0.259093 -1.54792e-22)
(-0.0327147 0.260609 0)
(-0.0279901 0.261916 -6.19419e-20)
(-0.0231806 0.263147 1.23252e-19)
(-0.0183675 0.26453 -1.83792e-19)
(-0.0139047 0.2663 -9.65079e-23)
(-0.00100158 0.00179263 -1.22562e-20)
(-0.00449184 0.00730743 1.06726e-19)
(-0.00944717 0.014602 -5.46535e-20)
(-0.0149942 0.0230584 4.18733e-20)
(-0.0207762 0.0322526 -1.13823e-19)
(-0.0265357 0.0419413 1.44735e-20)
(-0.0321113 0.0519514 -5.88229e-20)
(-0.0373984 0.0621563 0)
(-0.042333 0.0724622 0)
(-0.0468772 0.082799 -6.11382e-20)
(-0.0510103 0.0931136 3.09143e-20)
(-0.0547229 0.103364 4.30865e-25)
(-0.058012 0.113515 3.13982e-20)
(-0.0608786 0.123535 0)
(-0.0633257 0.133396 -9.55952e-20)
(-0.0653583 0.143068 3.19884e-20)
(-0.0669812 0.152522 -6.43416e-20)
(-0.0681997 0.161727 0)
(-0.0690192 0.170654 0)
(-0.0694445 0.17927 6.38234e-23)
(-0.0694806 0.187545 -6.49471e-20)
(-0.0691323 0.195448 6.50699e-20)
(-0.0684047 0.202949 -6.51444e-20)
(-0.0673025 0.210021 6.50046e-20)
(-0.0658302 0.21664 6.13981e-23)
(-0.063993 0.222782 6.63468e-23)
(-0.061796 0.228431 6.4785e-20)
(-0.0592446 0.233571 -6.45649e-20)
(-0.0563446 0.238194 0)
(-0.0531024 0.242298 -6.41874e-20)
(-0.0495263 0.245888 6.38815e-20)
(-0.0456266 0.248977 0)
(-0.0414173 0.251591 6.33743e-20)
(-0.0369172 0.253769 -6.29151e-20)
(-0.0321531 0.25557 6.25423e-20)
(-0.0271662 0.257074 0)
(-0.0220214 0.258388 1.85616e-19)
(-0.0167876 0.259663 -1.229e-19)
(-0.0115372 0.261161 0)
(-0.00666265 0.263151 6.96048e-20)
(-0.00114517 0.00200023 9.79674e-20)
(-0.00487073 0.00773144 -5.33502e-20)
(-0.0100161 0.015091 -1.3655e-20)
(-0.0157058 0.0235123 1.39478e-20)
(-0.0215835 0.0326037 5.68981e-20)
(-0.0273949 0.0421458 0)
(-0.0329828 0.051982 5.88231e-20)
(-0.0382464 0.0619967 8.9459e-20)
(-0.0431258 0.0721041 3.01973e-20)
(-0.0475863 0.0822388 3.05446e-20)
(-0.0516105 0.0923513 3.08615e-20)
(-0.0551916 0.102401 -9.35532e-20)
(-0.0583292 0.112355 3.14012e-20)
(-0.0610262 0.122184 1.26646e-19)
(-0.0632873 0.131857 3.18178e-20)
(-0.0651189 0.141349 3.1995e-20)
(-0.0665268 0.150629 6.43414e-20)
(-0.0675171 0.159669 0)
(-0.0680957 0.16844 0)
(-0.0682681 0.17691 1.29899e-19)