/*--------------------------------*- C++ -*----------------------------------*\
  =========                 |
  \\      /  F ield         | OpenFOAM: The Open Source CFD Toolbox
   \\    /   O peration     | Website:  https://openfoam.org
    \\  /    A nd           | Version:  7
     \\/     M anipulation  |
\*---------------------------------------------------------------------------*/
FoamFile
{
    version     2.0;
    format      ascii;
    class       volScalarField;
    location    "1.7";
    object      p;
}
// * * * * * * * * * * * * * * * * * * * * * * * * * * * * * * * * * * * * * //

dimensions      [0 2 -2 0 0 0 0];

internalField   nonuniform List<scalar> 
18000
(
2.43779
2.43807
2.4401
2.44252
2.44502
2.44751
2.45018
2.45331
2.45713
2.46177
2.46725
2.47351
2.48039
2.4877
2.49524
2.50283
2.51032
2.51763
2.52466
2.53139
2.53778
2.54384
2.54961
2.55514
2.56044
2.56556
2.5705
2.57528
2.57993
2.58434
2.42676
2.42742
2.42952
2.43194
2.43434
2.43665
2.43905
2.44185
2.44533
2.44965
2.45484
2.46086
2.46754
2.47471
2.48214
2.48965
2.49708
2.50432
2.5113
2.51796
2.52428
2.53027
2.53595
2.54137
2.54656
2.55156
2.55636
2.561
2.5655
2.56976
2.41563
2.41669
2.41888
2.42131
2.42363
2.42575
2.42789
2.43036
2.43349
2.43748
2.44238
2.44814
2.45463
2.46164
2.46895
2.47637
2.48372
2.49089
2.4978
2.50439
2.51064
2.51653
2.52212
2.52742
2.5325
2.53736
2.54202
2.54651
2.55084
2.55497
2.40448
2.40593
2.4082
2.41066
2.4129
2.41485
2.41671
2.41886
2.42165
2.4253
2.4299
2.4354
2.44168
2.44853
2.45571
2.46302
2.47029
2.47738
2.4842
2.49071
2.49686
2.50266
2.50813
2.51332
2.51826
2.52297
2.52748
2.53181
2.53599
2.53997
2.39338
2.39519
2.39754
2.40003
2.40219
2.40396
2.40556
2.40739
2.40984
2.41316
2.41745
2.42269
2.42875
2.43542
2.44247
2.44966
2.45681
2.4638
2.47053
2.47694
2.48299
2.48868
2.49403
2.49908
2.50387
2.50843
2.51278
2.51694
2.52095
2.52477
2.38231
2.38446
2.3869
2.38943
2.39152
2.39312
2.39447
2.396
2.39811
2.40109
2.40506
2.41003
2.41587
2.42236
2.42924
2.4363
2.44333
2.4502
2.45682
2.46311
2.46904
2.4746
2.47981
2.48472
2.48935
2.49375
2.49793
2.50192
2.50575
2.50941
2.37132
2.3738
2.37632
2.37888
2.38092
2.38236
2.38347
2.38469
2.38646
2.3891
2.39277
2.39747
2.40308
2.40936
2.41607
2.42297
2.42986
2.4366
2.44309
2.44925
2.45504
2.46045
2.46551
2.47026
2.47473
2.47895
2.48296
2.48677
2.49041
2.4939
2.36043
2.3632
2.3658
2.36841
2.37039
2.37168
2.37256
2.37348
2.37493
2.37724
2.3806
2.38502
2.39039
2.39647
2.40298
2.4097
2.41644
2.42303
2.42937
2.43538
2.44101
2.44626
2.45115
2.45572
2.46002
2.46406
2.46788
2.4715
2.47496
2.47825
2.34963
2.35267
2.35536
2.35801
2.35995
2.3611
2.36175
2.36239
2.36351
2.3655
2.36856
2.37272
2.37784
2.38368
2.38999
2.39652
2.40307
2.4095
2.41567
2.4215
2.42696
2.43203
2.43674
2.44113
2.44524
2.44909
2.45272
2.45615
2.4594
2.4625
2.33894
2.34223
2.345
2.34769
2.34959
2.35061
2.35105
2.35141
2.35222
2.3539
2.35667
2.36055
2.36542
2.37103
2.37711
2.38343
2.38979
2.39603
2.40201
2.40765
2.41291
2.41779
2.4223
2.42649
2.43041
2.43407
2.4375
2.44072
2.44376
2.44666
2.32835
2.33186
2.33471
2.33745
2.33931
2.3402
2.34043
2.34053
2.34105
2.34243
2.34492
2.34853
2.35314
2.3585
2.36436
2.37046
2.3766
2.38262
2.38839
2.39383
2.39888
2.40354
2.40784
2.41183
2.41554
2.419
2.42222
2.42523
2.42806
2.43075
2.31785
2.32156
2.32449
2.32727
2.32909
2.32987
2.3299
2.32975
2.33
2.3311
2.33331
2.33666
2.34101
2.34612
2.35173
2.35759
2.3635
2.36929
2.37483
2.38004
2.38487
2.38931
2.39339
2.39716
2.40066
2.40391
2.40692
2.40971
2.41231
2.41479
2.30743
2.31131
2.31431
2.31713
2.31892
2.31958
2.31943
2.31905
2.31904
2.31988
2.32182
2.32491
2.32901
2.33387
2.33923
2.34484
2.35049
2.35603
2.36133
2.3663
2.37089
2.37509
2.37895
2.3825
2.38578
2.38881
2.39159
2.39417
2.39655
2.39881
2.29707
2.30109
2.30417
2.30702
2.30877
2.30932
2.309
2.3084
2.30816
2.30875
2.31044
2.31329
2.31713
2.32174
2.32684
2.33219
2.33758
2.34285
2.34789
2.3526
2.35694
2.36091
2.36453
2.36785
2.37091
2.37371
2.37628
2.37863
2.38079
2.38282
2.28675
2.29089
2.29403
2.29691
2.29862
2.29906
2.29858
2.29779
2.29732
2.29769
2.29916
2.30177
2.30537
2.30973
2.31457
2.31963
2.32474
2.32974
2.33451
2.33896
2.34304
2.34675
2.35014
2.35323
2.35606
2.35863
2.36098
2.36311
2.36504
2.36685
2.27645
2.2807
2.28389
2.28679
2.28846
2.28879
2.28815
2.28717
2.28651
2.28668
2.28794
2.29033
2.29371
2.29781
2.30238
2.30717
2.31198
2.3167
2.32119
2.32536
2.32918
2.33264
2.33578
2.33864
2.34124
2.34359
2.34572
2.34763
2.34934
2.35092
2.26615
2.27049
2.27373
2.27663
2.27824
2.27847
2.27768
2.27654
2.27571
2.2757
2.27678
2.27897
2.28212
2.28598
2.29027
2.29477
2.2993
2.30372
2.30791
2.31181
2.31535
2.31856
2.32146
2.32409
2.32646
2.32859
2.33051
2.3322
2.33369
2.33506
2.25582
2.26024
2.26352
2.26642
2.26796
2.26808
2.26716
2.26588
2.2649
2.26474
2.26566
2.26766
2.2706
2.27421
2.27823
2.28243
2.28666
2.29078
2.29469
2.29829
2.30157
2.30453
2.30719
2.30958
2.31173
2.31365
2.31536
2.31685
2.31812
2.31927
2.24545
2.24995
2.25325
2.25613
2.2576
2.2576
2.25656
2.25515
2.25406
2.25378
2.25456
2.25639
2.25912
2.26248
2.26623
2.27014
2.27408
2.27789
2.2815
2.28481
2.28782
2.29053
2.29295
2.29512
2.29706
2.29878
2.30028
2.30158
2.30265
2.3036
2.23502
2.23959
2.2429
2.24574
2.24713
2.24703
2.24587
2.24437
2.24318
2.24281
2.24346
2.24514
2.24766
2.25079
2.25426
2.25789
2.26152
2.26504
2.26834
2.27137
2.27411
2.27656
2.27876
2.28071
2.28245
2.28397
2.28529
2.28641
2.2873
2.28807
2.2245
2.22914
2.23245
2.23525
2.23654
2.23633
2.23508
2.2335
2.23225
2.2318
2.23236
2.23389
2.23623
2.23912
2.24233
2.24567
2.249
2.25221
2.2552
2.25795
2.26042
2.26264
2.26461
2.26635
2.2679
2.26925
2.2704
2.27135
2.27209
2.2727
2.21389
2.2186
2.2219
2.22463
2.22583
2.22551
2.22419
2.22255
2.22127
2.22077
2.22125
2.22265
2.2248
2.22746
2.2304
2.23346
2.23649
2.23939
2.24209
2.24454
2.24676
2.24873
2.25049
2.25204
2.25341
2.2546
2.2556
2.25642
2.25704
2.25753
2.20316
2.20794
2.21122
2.21388
2.21498
2.21457
2.21318
2.21151
2.21022
2.2097
2.21011
2.2114
2.21338
2.21581
2.21849
2.22127
2.224
2.22659
2.22899
2.23116
2.23311
2.23485
2.2364
2.23776
2.23896
2.24001
2.24089
2.24161
2.24215
2.24259
2.19232
2.19717
2.20042
2.203
2.20399
2.20349
2.20206
2.20039
2.19911
2.19858
2.19896
2.20014
2.20195
2.20416
2.20659
2.20908
2.21151
2.2138
2.2159
2.21779
2.21948
2.22098
2.22231
2.2235
2.22454
2.22546
2.22625
2.22691
2.22743
2.22788
2.18134
2.18628
2.18949
2.19198
2.19287
2.19229
2.19084
2.18919
2.18794
2.18744
2.18778
2.18887
2.19052
2.19252
2.19469
2.1969
2.19904
2.20102
2.20282
2.20442
2.20585
2.20711
2.20823
2.20922
2.21011
2.21092
2.21164
2.21229
2.21285
2.21341
2.17023
2.17526
2.17842
2.18083
2.18162
2.18098
2.17952
2.17792
2.17672
2.17626
2.17659
2.1776
2.17909
2.18088
2.18281
2.18474
2.18657
2.18825
2.18975
2.19106
2.19221
2.19322
2.19411
2.19491
2.19564
2.19633
2.197
2.19767
2.19834
2.19913
2.159
2.16412
2.16723
2.16955
2.17025
2.16958
2.16813
2.16659
2.16547
2.16505
2.16538
2.16632
2.16767
2.16926
2.17094
2.17259
2.17412
2.1755
2.17669
2.17771
2.17857
2.17931
2.17995
2.18052
2.18107
2.18162
2.18224
2.18296
2.18381
2.18496
2.14766
2.15288
2.15593
2.15816
2.15878
2.15808
2.15668
2.15522
2.15419
2.15385
2.15418
2.15505
2.15627
2.15765
2.15909
2.16046
2.1617
2.16277
2.16365
2.16437
2.16493
2.16538
2.16573
2.16604
2.16633
2.1667
2.16721
2.16796
2.16904
2.17071
2.13621
2.14154
2.14453
2.14668
2.14723
2.14653
2.14519
2.14383
2.14292
2.14265
2.143
2.1438
2.14488
2.14608
2.14727
2.14837
2.14932
2.15007
2.15065
2.15105
2.1513
2.15142
2.15145
2.15143
2.15139
2.15143
2.15168
2.15232
2.15367
2.1562
2.12468
2.13013
2.13305
2.1351
2.1356
2.13492
2.13367
2.13245
2.13166
2.13147
2.13184
2.13259
2.13354
2.13454
2.1355
2.13633
2.13698
2.13743
2.13769
2.13777
2.13769
2.13747
2.13714
2.13671
2.13624
2.13577
2.13542
2.13533
2.13588
2.13902
2.59798
2.6188
2.63594
2.65248
2.66716
2.68041
2.69219
2.70272
2.71221
2.7209
2.72899
2.73669
2.74415
2.75148
2.75879
2.76629
2.77399
2.78216
2.79045
2.79953
2.80836
2.81856
2.8277
2.83928
2.84854
2.8618
2.87098
2.88701
2.89516
2.91719
2.58311
2.60488
2.62258
2.6397
2.65475
2.66833
2.68042
2.69119
2.70081
2.70962
2.71786
2.72569
2.73323
2.74062
2.74801
2.7556
2.76336
2.77158
2.77995
2.78905
2.79788
2.80812
2.81731
2.82892
2.83822
2.85151
2.86073
2.87681
2.88505
2.90718
2.56802
2.59079
2.60905
2.62677
2.64221
2.65614
2.66854
2.67954
2.68931
2.69826
2.70666
2.71462
2.72224
2.72969
2.73718
2.74486
2.7527
2.76098
2.76943
2.77856
2.78742
2.79771
2.80695
2.81862
2.82797
2.84131
2.85059
2.86673
2.87506
2.89731
2.55274
2.57654
2.59537
2.61371
2.62959
2.64386
2.65654
2.66776
2.67774
2.68686
2.69539
2.70345
2.71118
2.71873
2.72631
2.73408
2.742
2.75036
2.75886
2.76807
2.777
2.78735
2.79664
2.80837
2.81778
2.8312
2.84055
2.85679
2.8652
2.88759
2.53725
2.56212
2.58157
2.60054
2.61688
2.6315
2.64445
2.6559
2.6661
2.67539
2.68404
2.69221
2.70004
2.70772
2.71538
2.72325
2.73127
2.73971
2.74827
2.75758
2.76659
2.77702
2.78637
2.79818
2.80766
2.82118
2.83062
2.84698
2.85547
2.878
2.52156
2.54756
2.56768
2.58727
2.60409
2.61906
2.63229
2.64397
2.65439
2.66385
2.67263
2.68091
2.68885
2.69665
2.70441
2.71237
2.72049
2.72903
2.73767
2.74707
2.75618
2.7667
2.77613
2.78804
2.79761
2.81124
2.8208
2.83729
2.84586
2.86855
2.5057
2.53285
2.5537
2.57393
2.59122
2.60656
2.62007
2.63198
2.64261
2.65224
2.66117
2.66957
2.67761
2.68553
2.69339
2.70146
2.70968
2.71832
2.72705
2.73655
2.74577
2.75639
2.76593
2.77795
2.78763
2.8014
2.81109
2.82771
2.83639
2.85922
2.48969
2.51803
2.53963
2.56053
2.5783
2.594
2.6078
2.61995
2.63078
2.64059
2.64966
2.65818
2.66634
2.67437
2.68234
2.69051
2.69884
2.70758
2.71642
2.72603
2.73537
2.7461
2.75575
2.7679
2.77773
2.79165
2.80147
2.81826
2.82705
2.85003
2.47354
2.50311
2.52551
2.54708
2.56534
2.5814
2.59548
2.60788
2.61892
2.6289
2.63812
2.64676
2.65503
2.66317
2.67126
2.67953
2.68797
2.69683
2.70577
2.7155
2.72497
2.73583
2.74561
2.75791
2.76789
2.78198
2.79197
2.80894
2.81784
2.84097
2.45728
2.48812
2.51134
2.5336
2.55236
2.56877
2.58314
2.59578
2.60702
2.61718
2.62654
2.63531
2.6437
2.65195
2.66015
2.66853
2.67707
2.68605
2.69512
2.70496
2.71456
2.72557
2.7355
2.74797
2.75812
2.77241
2.78257
2.79973
2.80877
2.83205
2.44092
2.47306
2.49716
2.52013
2.53936
2.55612
2.57078
2.58366
2.59511
2.60544
2.61494
2.62384
2.63235
2.64071
2.64902
2.6575
2.66616
2.67526
2.68445
2.69442
2.70416
2.71533
2.72541
2.73807
2.74841
2.76293
2.77328
2.79064
2.79984
2.82327
2.42451
2.45797
2.48299
2.50666
2.52636
2.54348
2.55841
2.57154
2.58319
2.59368
2.60333
2.61236
2.62097
2.62944
2.63787
2.64647
2.65524
2.66445
2.67377
2.68388
2.69376
2.7051
2.71536
2.72823
2.73877
2.75353
2.76409
2.78169
2.79105
2.81464
2.40805
2.44286
2.46885
2.49323
2.51338
2.53084
2.54606
2.55942
2.57127
2.58193
2.59172
2.60087
2.60959
2.61817
2.62671
2.63542
2.6443
2.65364
2.66309
2.67334
2.68337
2.69489
2.70533
2.71842
2.72919
2.74421
2.75501
2.77286
2.7824
2.80617
2.39157
2.42777
2.45474
2.47984
2.50042
2.51823
2.53373
2.54732
2.55937
2.57018
2.5801
2.58937
2.59821
2.60689
2.61554
2.62437
2.63336
2.64282
2.6524
2.6628
2.67298
2.68469
2.69533
2.70866
2.71968
2.73498
2.74604
2.76416
2.77391
2.79785
2.3751
2.41272
2.44071
2.4665
2.48751
2.50566
2.52143
2.53525
2.54749
2.55845
2.5685
2.57789
2.58683
2.59561
2.60438
2.61332
2.62241
2.63199
2.64171
2.65227
2.6626
2.67451
2.68535
2.69893
2.71022
2.72582
2.73717
2.75559
2.76556
2.78969
2.35868
2.39774
2.42676
2.45323
2.47465
2.49314
2.50918
2.52322
2.53564
2.54675
2.55693
2.56642
2.57547
2.58435
2.59322
2.60227
2.61147
2.62117
2.63102
2.64173
2.65223
2.66433
2.67539
2.68924
2.7008
2.71674
2.7284
2.74716
2.75737
2.7817
2.34232
2.38285
2.41293
2.44004
2.46187
2.48069
2.49699
2.51124
2.52384
2.53509
2.54538
2.55498
2.56413
2.57311
2.58207
2.59122
2.60053
2.61035
2.62033
2.6312
2.64186
2.65416
2.66546
2.67957
2.69144
2.70772
2.71973
2.73886
2.74936
2.7739
2.32608
2.3681
2.39922
2.42695
2.44917
2.46832
2.48488
2.49933
2.51209
2.52348
2.53387
2.54357
2.55282
2.56188
2.57093
2.58018
2.58959
2.59953
2.60965
2.62066
2.63149
2.644
2.65553
2.66994
2.68211
2.69878
2.71116
2.7307
2.74152
2.7663
2.30999
2.35352
2.38567
2.41396
2.43658
2.45605
2.47285
2.4875
2.50041
2.51192
2.52241
2.5322
2.54154
2.55069
2.55982
2.56915
2.57866
2.58871
2.59896
2.61012
2.62113
2.63384
2.64561
2.66032
2.67282
2.68989
2.70269
2.72268
2.73386
2.7589
2.2941
2.33913
2.3723
2.40108
2.42412
2.44389
2.46093
2.47575
2.4888
2.50043
2.51101
2.52088
2.5303
2.53952
2.54873
2.55814
2.56775
2.5779
2.58828
2.59958
2.61076
2.62368
2.6357
2.65071
2.66356
2.68106
2.69431
2.71481
2.7264
2.75173
2.27848
2.32499
2.35913
2.38836
2.41179
2.43187
2.44913
2.46412
2.47729
2.48901
2.49968
2.50962
2.51911
2.52839
2.53766
2.54715
2.55685
2.5671
2.57759
2.58904
2.60039
2.61352
2.62579
2.64112
2.65433
2.67228
2.68603
2.70707
2.71915
2.74481
2.26317
2.31112
2.34618
2.37582
2.39963
2.41999
2.43746
2.4526
2.46587
2.47768
2.48842
2.49843
2.50797
2.51731
2.52664
2.53619
2.54596
2.55631
2.56691
2.5785
2.59002
2.60335
2.61587
2.63153
2.64511
2.66354
2.67782
2.69948
2.71213
2.73816
2.24827
2.29757
2.33347
2.36349
2.38765
2.40829
2.42594
2.44121
2.45458
2.46646
2.47726
2.48731
2.49689
2.50628
2.51565
2.52526
2.5351
2.54553
2.55624
2.56796
2.57963
2.59318
2.60594
2.62193
2.6359
2.65483
2.66969
2.69202
2.70534
2.73181
2.23384
2.28437
2.32101
2.35139
2.37589
2.39677
2.41459
2.42997
2.44341
2.45535
2.46619
2.47628
2.48589
2.49531
2.50471
2.51436
2.52426
2.53476
2.54557
2.55741
2.56924
2.58299
2.59601
2.61232
2.62669
2.64613
2.66163
2.6847
2.6988
2.72582
2.21999
2.27155
2.30884
2.33957
2.36437
2.38547
2.40343
2.4189
2.43239
2.44437
2.45524
2.46534
2.47496
2.4844
2.49382
2.5035
2.51345
2.52401
2.5349
2.54686
2.55884
2.57279
2.58605
2.60269
2.61747
2.63744
2.65362
2.6775
2.69252
2.72021
2.20685
2.25917
2.29699
2.32805
2.35313
2.37442
2.3925
2.40803
2.42154
2.43354
2.44441
2.4545
2.46413
2.47356
2.48299
2.49269
2.50267
2.51328
2.52424
2.53631
2.54842
2.56256
2.57608
2.59304
2.60823
2.62874
2.64564
2.6704
2.68653
2.71506
2.19458
2.2473
2.28553
2.3169
2.34222
2.36366
2.38182
2.39739
2.4109
2.42288
2.43373
2.44379
2.4534
2.46281
2.47222
2.48192
2.49192
2.50257
2.51359
2.52575
2.538
2.55232
2.56608
2.58335
2.59897
2.62001
2.63767
2.66338
2.68083
2.71044
2.18319
2.23569
2.27423
2.306
2.33146
2.35302
2.37124
2.38681
2.4003
2.41224
2.42305
2.43308
2.44265
2.45203
2.46142
2.47112
2.48112
2.4918
2.50287
2.51512
2.5275
2.542
2.556
2.57358
2.58962
2.6112
2.62966
2.65638
2.6754
2.70644
2.1721
2.22364
2.2625
2.29479
2.32037
2.34209
2.36038
2.37598
2.38945
2.40138
2.41215
2.42215
2.4317
2.44105
2.45044
2.46013
2.47015
2.48086
2.49199
2.50433
2.51685
2.53152
2.54578
2.56366
2.58014
2.60224
2.62154
2.64933
2.67023
2.70318
2.16145
2.21167
2.25075
2.28279
2.30917
2.33105
2.34942
2.36506
2.37854
2.39047
2.40124
2.41121
2.42076
2.43011
2.43949
2.44919
2.45923
2.46997
2.48116
2.49358
2.50623
2.52105
2.53555
2.55368
2.57059
2.59314
2.6133
2.64208
2.66514
2.70064
2.13184
2.18264
2.22187
2.25402
2.28066
2.30238
2.32057
2.33603
2.34933
2.36105
2.37162
2.38138
2.39075
2.39993
2.40918
2.41877
2.42874
2.43945
2.45068
2.46319
2.47612
2.4912
2.50626
2.52491
2.54286
2.56642
2.5888
2.62005
2.64956
2.69364
2.07141
2.12203
2.16083
2.19283
2.2193
2.24111
2.25942
2.27502
2.28856
2.30053
2.31136
2.32147
2.33116
2.34073
2.35043
2.36047
2.37095
2.3822
2.39406
2.40721
2.42088
2.43676
2.45275
2.47243
2.49167
2.51677
2.54136
2.57528
2.6089
2.65658
2.01303
2.0616
2.09926
2.13069
2.15689
2.17865
2.197
2.21277
2.22656
2.23877
2.2499
2.26036
2.27043
2.28045
2.29064
2.30118
2.31224
2.32409
2.33661
2.35044
2.36486
2.38155
2.3984
2.41903
2.43933
2.46561
2.49155
2.52683
2.56183
2.61026
1.95464
2.00085
2.03708
2.06776
2.09362
2.11517
2.13354
2.14944
2.16337
2.17581
2.18725
2.19805
2.20853
2.21901
2.22966
2.24074
2.25237
2.26481
2.27796
2.29246
2.30761
2.32502
2.34265
2.36406
2.3852
2.41225
2.43895
2.47481
2.51017
2.55865
1.89568
1.93967
1.97443
2.00425
2.02962
2.05087
2.06912
2.08504
2.0991
2.1118
2.12356
2.13474
2.14566
2.1566
2.16777
2.1794
2.1916
2.20463
2.2184
2.23353
2.24934
2.26738
2.28567
2.30768
2.3294
2.3569
2.38394
2.41991
2.45511
2.50333
1.83565
1.87759
1.91087
1.93972
1.96456
1.98548
2.00356
2.01948
2.03369
2.04664
2.05872
2.07029
2.08165
2.09306
2.10475
2.11693
2.12969
2.14331
2.15769
2.17341
2.18981
2.2084
2.22724
2.2497
2.2718
2.29953
2.32664
2.36246
2.39725
2.44506
1.77418
1.81429
1.84617
1.87409
1.89841
1.919
1.93688
1.95278
1.9671
1.98027
1.99267
2.00462
2.01641
2.0283
2.0405
2.05321
2.06653
2.08071
2.09565
2.11192
2.12884
2.14793
2.1672
2.19001
2.21237
2.24019
2.26722
2.30277
2.33699
2.38433
1.71115
1.74963
1.78022
1.80725
1.83104
1.85128
1.86895
1.88481
1.89924
1.91261
1.92531
1.93763
1.94984
1.96221
1.9749
1.98813
2.00198
2.01669
2.03216
2.04893
2.06633
2.08584
2.10548
2.12857
2.1511
2.17895
2.20581
2.24101
2.27458
2.32141
1.64643
1.68346
1.71286
1.73904
1.76234
1.78225
1.7997
1.8155
1.83001
1.84358
1.85656
1.86923
1.88186
1.89467
1.90784
1.92157
1.93592
1.95114
1.9671
1.98434
2.00218
2.02207
2.04203
2.06535
2.08799
2.11583
2.14248
2.17732
2.21018
2.2565
1.57996
1.61568
1.64399
1.66937
1.69221
1.71182
1.72905
1.74478
1.75935
1.77309
1.78633
1.79934
1.81235
1.82559
1.83922
1.85342
1.86825
1.88394
1.90037
1.91804
1.93629
1.95653
1.97678
2.00031
2.02304
2.05086
2.07729
2.11177
2.14391
2.18969
1.51172
1.54622
1.57354
1.59817
1.62058
1.63989
1.65692
1.67256
1.68718
1.70107
1.71455
1.72786
1.74125
1.75489
1.76895
1.78359
1.79887
1.81501
1.83187
1.84996
1.86858
1.88915
1.90967
1.9334
1.95622
1.98403
2.01024
2.04437
2.07581
2.12107
1.44168
1.47505
1.50145
1.52536
1.54736
1.56642
1.58324
1.59878
1.61343
1.62745
1.64114
1.65473
1.66845
1.68246
1.69692
1.71197
1.72768
1.74424
1.76152
1.77999
1.79898
1.81986
1.84065
1.86457
1.88748
1.9153
1.94132
1.97513
2.00588
2.05062
1.36986
1.40214
1.42767
1.4509
1.47251
1.49132
1.50794
1.52339
1.53804
1.55216
1.56602
1.57986
1.59387
1.60823
1.62305
1.6385
1.6546
1.67156
1.68922
1.70806
1.72739
1.74858
1.76962
1.79374
1.81676
1.84461
1.87048
1.904
1.9341
1.97835
1.29627
1.32748
1.35219
1.37475
1.39596
1.41455
1.43098
1.44631
1.46094
1.47513
1.48913
1.50317
1.51745
1.5321
1.54727
1.56306
1.57953
1.59686
1.61488
1.63407
1.65373
1.67521
1.69651
1.72083
1.74398
1.77187
1.79762
1.8309
1.8604
1.90416
1.22094
1.25108
1.27498
1.29688
1.3177
1.33606
1.35231
1.36749
1.38208
1.3963
1.4104
1.42461
1.4391
1.45402
1.46947
1.48559
1.50239
1.52005
1.5384
1.55792
1.57788
1.59965
1.6212
1.64572
1.669
1.69695
1.72264
1.7557
1.78468
1.82798
1.1439
1.17296
1.19605
1.21727
1.23768
1.25582
1.27187
1.2869
1.30141
1.31562
1.32977
1.3441
1.35876
1.37389
1.38959
1.40598
1.42306
1.44102
1.45967
1.47948
1.49973
1.52176
1.54355
1.56826
1.5917
1.61972
1.64538
1.67825
1.70679
1.74963
1.06518
1.09313
1.11539
1.13592
1.15589
1.1738
1.18964
1.20449
1.21888
1.23304
1.2472
1.26159
1.27635
1.29164
1.30753
1.32414
1.34147
1.35967
1.37858
1.39864
1.41915
1.4414
1.46342
1.4883
1.51189
1.53997
1.56565
1.59834
1.62653
1.6689
0.984828
1.01162
1.03303
1.05283
1.07232
1.08996
1.10558
1.12023
1.13447
1.14853
1.16264
1.17701
1.19182
1.2072
1.22322
1.23998
1.25748
1.27589
1.29499
1.31526
1.33597
1.35842
1.38062
1.40565
1.42938
1.45749
1.48321
1.51574
1.54366
1.58557
0.902908
0.928465
0.948996
0.96802
0.98697
1.00431
1.01968
1.03409
1.04814
1.06204
1.07603
1.09033
1.10511
1.12049
1.13656
1.1534
1.17101
1.18954
1.20878
1.22919
1.25004
1.27262
1.29495
1.32007
1.34391
1.37202
1.39776
1.4301
1.45783
1.49924
0.81946
0.843716
0.863311
0.881518
0.899861
0.91684
0.931922
0.946053
0.959859
0.973551
0.987353
1.00149
1.01614
1.03145
1.04747
1.0643
1.08193
1.1005
1.11979
1.14026
1.16117
1.18379
1.20619
1.23131
1.2552
1.28323
1.309
1.34113
1.36875
1.40963
0.734562
0.75742
0.776024
0.793361
0.811016
0.827561
0.842304
0.856108
0.869612
0.883024
0.89656
0.910452
0.924886
0.939999
0.955868
0.972588
0.990131
1.00863
1.02787
1.04828
1.06915
1.09171
1.11406
1.13907
1.16289
1.19071
1.21638
1.24815
1.27564
1.3159
0.648267
0.669632
0.687197
0.703609
0.720485
0.736504
0.750842
0.764257
0.777384
0.790439
0.803624
0.817178
0.83129
0.846098
0.86169
0.878167
0.895492
0.913794
0.932848
0.953079
0.973761
0.996112
1.01828
1.04303
1.06668
1.09418
1.11974
1.15114
1.17855
1.218
0.560694
0.580454
0.596928
0.612355
0.628353
0.643728
0.657565
0.670507
0.683179
0.695795
0.708538
0.721649
0.735319
0.749693
0.76487
0.780956
0.797908
0.815858
0.834563
0.854439
0.874755
0.896701
0.918464
0.942701
0.965868
0.992649
1.01762
1.04811
1.07532
1.11395
0.472093
0.490103
0.50541
0.51978
0.534774
0.549352
0.562563
0.574928
0.587046
0.599114
0.611301
0.623851
0.636952
0.650756
0.665365
0.680889
0.697288
0.71469
0.73285
0.752164
0.771914
0.79325
0.814448
0.838021
0.860674
0.886735
0.911266
0.940882
0.967277
1.00405
0.383222
0.399176
0.413135
0.426326
0.440121
0.453674
0.466089
0.477716
0.489107
0.500462
0.511955
0.523816
0.536214
0.549297
0.563166
0.577939
0.593572
0.610196
0.627549
0.64602
0.664866
0.685199
0.705303
0.727572
0.748865
0.7732
0.796157
0.823852
0.850094
0.885634
0.296004
0.309281
0.321345
0.333043
0.345311
0.357479
0.368774
0.379374
0.389748
0.400131
0.410726
0.42171
0.433224
0.445403
0.458341
0.472143
0.48676
0.502346
0.518656
0.536051
0.553839
0.573039
0.592073
0.613077
0.633172
0.655803
0.676932
0.701797
0.724455
0.75644
0.2133
0.223512
0.23271
0.242213
0.25244
0.262648
0.272231
0.281288
0.290133
0.299065
0.308351
0.318125
0.328469
0.339474
0.351213
0.36376
0.377021
0.391159
0.405876
0.421544
0.437416
0.454527
0.47135
0.489942
0.507876
0.528124
0.547608
0.570008
0.591041
0.616682
0.139893
0.144921
0.151344
0.157784
0.165219
0.172749
0.179857
0.186552
0.19304
0.199719
0.206914
0.21473
0.223211
0.232423
0.242458
0.253332
0.264935
0.277406
0.290454
0.304318
0.318252
0.333028
0.347125
0.362275
0.376064
0.391306
0.405207
0.42145
0.437787
0.459004
0.0779746
0.0792649
0.0809547
0.0842091
0.0883364
0.0927334
0.0968211
0.100529
0.104061
0.107787
0.111955
0.11669
0.122053
0.128119
0.134937
0.142549
0.150919
0.160214
0.170186
0.18114
0.192442
0.204677
0.216634
0.229229
0.240563
0.251954
0.260997
0.269649
0.273901
0.280371
0.0251174
0.0244267
0.0239017
0.0233084
0.0235991
0.0249641
0.0260193
0.0268626
0.0275991
0.028418
0.0294291
0.0307043
0.0322896
0.0342303
0.0365457
0.039271
0.0424201
0.0461429
0.0502428
0.0550942
0.0601794
0.0662422
0.0722145
0.0791144
0.0855558
0.0922362
0.0977944
0.102401
0.103617
0.101608
2.08679
2.02701
1.97057
1.91337
1.85576
1.79678
1.73626
1.6741
1.61021
1.5446
1.47718
1.40802
1.33712
1.26453
1.19025
1.11431
1.03678
0.957688
0.877122
0.795132
0.71184
0.627356
0.541897
0.455908
0.370279
0.286793
0.207978
0.137754
0.0773182
0.0261226
2.07125
2.01203
1.95635
1.89965
1.84255
1.78402
1.7239
1.66212
1.59859
1.53333
1.46626
1.39746
1.32692
1.25471
1.18082
1.10529
1.02817
0.949502
0.869382
0.78786
0.705062
0.621113
0.536231
0.450888
0.365996
0.28337
0.205564
0.136389
0.0767247
0.026255
2.05578
1.9976
1.94264
1.88643
1.82986
1.77178
1.71207
1.65069
1.58752
1.52262
1.45591
1.38748
1.31731
1.24548
1.17198
1.09685
1.02014
0.941899
0.862215
0.781149
0.698822
0.615377
0.531037
0.446291
0.362057
0.280181
0.203209
0.134889
0.0759734
0.0262397
2.04035
1.98342
1.9292
1.87347
1.8174
1.75977
1.70046
1.63946
1.57665
1.51211
1.44575
1.37767
1.30787
1.23642
1.1633
1.08857
1.01227
0.934442
0.855188
0.774574
0.692712
0.609758
0.525943
0.441763
0.358148
0.276993
0.200858
0.13343
0.0752641
0.0261922
2.02514
1.96957
1.91611
1.86087
1.80525
1.74806
1.68914
1.62851
1.56604
1.50184
1.43582
1.3681
1.29865
1.22755
1.15481
1.08046
1.00456
0.927141
0.848309
0.768139
0.686731
0.604255
0.520952
0.437322
0.354314
0.273864
0.19854
0.13201
0.0745995
0.026131
2.01019
1.95603
1.90335
1.84861
1.79342
1.73664
1.67809
1.61782
1.55568
1.49182
1.42613
1.35874
1.28963
1.21888
1.1465
1.07252
0.997003
0.919986
0.841566
0.761825
0.680861
0.598855
0.516052
0.432955
0.350546
0.270792
0.196264
0.130621
0.073958
0.0260517
1.99552
1.94279
1.8909
1.83668
1.78191
1.72552
1.66732
1.6074
1.54558
1.48204
1.41667
1.3496
1.28082
1.21042
1.13838
1.06475
0.989607
0.912981
0.834962
0.755635
0.675105
0.593558
0.511241
0.42866
0.34684
0.267782
0.194017
0.129263
0.0733385
0.0259534
1.98116
1.92984
1.87876
1.82507
1.7707
1.71468
1.65683
1.59725
1.53574
1.47251
1.40744
1.34069
1.27223
1.20215
1.13044
1.05717
0.982379
0.906131
0.8285
0.749574
0.669465
0.588361
0.50651
0.424427
0.343182
0.264829
0.191789
0.127934
0.0727425
0.0258387
1.96713
1.91719
1.86692
1.81378
1.7598
1.70415
1.64662
1.58736
1.52616
1.46323
1.39846
1.33201
1.26386
1.19409
1.12271
1.04977
0.975326
0.899441
0.822185
0.743647
0.663947
0.583268
0.501861
0.420258
0.33957
0.261857
0.189659
0.126636
0.0721707
0.0257106
1.95345
1.90484
1.85536
1.80279
1.7492
1.6939
1.6367
1.57774
1.51683
1.45419
1.38971
1.32356
1.25571
1.18624
1.11517
1.04256
0.968451
0.892914
0.816024
0.737864
0.65856
0.57829
0.497309
0.41617
0.336021
0.25894
0.187573
0.125374
0.0716243
0.0255718
1.94013
1.8928
1.8441
1.79211
1.73891
1.68395
1.62705
1.56839
1.50775
1.4454
1.3812
1.31534
1.24777
1.17861
1.10784
1.03554
0.961758
0.886558
0.810024
0.732234
0.653316
0.573441
0.492871
0.412183
0.332557
0.256092
0.185539
0.124152
0.0711041
0.0254245
1.9272
1.88108
1.83313
1.78173
1.72893
1.67429
1.61769
1.55931
1.49895
1.43687
1.37294
1.30735
1.24006
1.17118
1.10072
1.02872
0.955247
0.880374
0.804187
0.72676
0.648219
0.568731
0.48856
0.408309
0.329191
0.253321
0.183561
0.122971
0.0706097
0.0252702
1.91467
1.86969
1.82246
1.77166
1.71924
1.66493
1.60862
1.55051
1.49042
1.42859
1.36493
1.2996
1.23258
1.16397
1.0938
1.02209
0.948919
0.874365
0.798513
0.721439
0.643264
0.564154
0.484374
0.404548
0.325931
0.250616
0.18164
0.121832
0.0701399
0.0251101
1.90254
1.85865
1.81211
1.76188
1.70986
1.65587
1.59984
1.542
1.48216
1.42059
1.35717
1.29209
1.22532
1.15698
1.08708
1.01565
0.942773
0.868527
0.792997
0.716264
0.638443
0.559701
0.480301
0.400888
0.322782
0.247965
0.179774
0.120734
0.0696939
0.0249457
1.89085
1.84795
1.80208
1.75241
1.70078
1.64711
1.59135
1.53377
1.47417
1.41284
1.34966
1.28482
1.2183
1.15021
1.08057
1.0094
0.936809
0.86286
0.787636
0.711229
0.633747
0.555362
0.476333
0.397319
0.319656
0.245449
0.177967
0.119679
0.0692715
0.0247786
1.87958
1.83762
1.79236
1.74325
1.692
1.63865
1.58315
1.52582
1.46647
1.40537
1.34241
1.2778
1.21151
1.14366
1.07426
1.00335
0.931031
0.857365
0.782431
0.706336
0.629178
0.551136
0.47247
0.393846
0.316618
0.243008
0.176224
0.11867
0.0688741
0.0246109
1.86876
1.82766
1.78298
1.73439
1.68352
1.63048
1.57524
1.51816
1.45903
1.39815
1.33542
1.27103
1.20496
1.13733
1.06817
0.99751
0.925444
0.852048
0.777391
0.701593
0.624744
0.547031
0.468722
0.390484
0.313677
0.240652
0.174551
0.11771
0.0685038
0.0244445
1.85839
1.81808
1.77393
1.72585
1.67535
1.6226
1.56762
1.51077
1.45187
1.39121
1.32869
1.2645
1.19864
1.13123
1.06229
0.991876
0.920054
0.846916
0.772526
0.697011
0.620458
0.543061
0.465101
0.387243
0.31085
0.23839
0.172954
0.116802
0.0681623
0.0242809
1.84848
1.80888
1.76524
1.71763
1.66748
1.61502
1.56029
1.50366
1.44498
1.38452
1.32221
1.25822
1.19256
1.12537
1.05664
0.986455
0.914866
0.841975
0.767845
0.692601
0.616332
0.539239
0.461617
0.384122
0.308152
0.236228
0.171435
0.115948
0.0678494
0.0241209
1.83904
1.80009
1.75691
1.70974
1.65993
1.60775
1.55325
1.49684
1.43836
1.3781
1.31598
1.25219
1.18672
1.11974
1.05122
0.981248
0.909882
0.837226
0.763346
0.688362
0.612366
0.535564
0.458271
0.381127
0.30558
0.234169
0.169995
0.115147
0.0675642
0.0239653
1.83008
1.79171
1.74894
1.70218
1.65269
1.60077
1.54651
1.4903
1.43201
1.37195
1.31001
1.2464
1.18113
1.11434
1.04602
0.976254
0.9051
0.832668
0.759025
0.684289
0.608554
0.532032
0.455049
0.378262
0.303126
0.23221
0.168634
0.114398
0.0673044
0.0238141
1.8216
1.78373
1.74135
1.69496
1.64577
1.5941
1.54006
1.48405
1.42594
1.36606
1.30429
1.24087
1.17578
1.10918
1.04105
0.971469
0.900515
0.828295
0.754873
0.680374
0.604879
0.528629
0.451948
0.375516
0.300786
0.23035
0.167352
0.1137
0.0670689
0.0236683
1.81361
1.77616
1.73413
1.68807
1.63916
1.58775
1.53391
1.47808
1.42015
1.36044
1.29884
1.23559
1.17068
1.10425
1.03629
0.96689
0.896125
0.8241
0.750885
0.676613
0.601327
0.525348
0.448962
0.372879
0.298554
0.228589
0.166149
0.113054
0.0668575
0.0235285
1.8061
1.76902
1.72729
1.68153
1.6329
1.5817
1.52806
1.47241
1.41465
1.35509
1.29366
1.23058
1.16583
1.09956
1.03176
0.962521
0.891929
0.820082
0.747057
0.67298
0.597926
0.522188
0.446087
0.370348
0.296429
0.226928
0.165027
0.112461
0.0666708
0.0233958
1.7991
1.7623
1.72085
1.67535
1.62697
1.57597
1.52252
1.46704
1.40943
1.35003
1.28876
1.22583
1.16124
1.0951
1.02745
0.958369
0.887935
0.816247
0.743396
0.669499
0.594662
0.519151
0.443324
0.367925
0.294415
0.225371
0.163989
0.11192
0.0665093
0.023271
1.79259
1.75601
1.71479
1.66953
1.62138
1.57055
1.5173
1.46196
1.40452
1.34527
1.28414
1.22135
1.1569
1.0909
1.02339
0.954444
0.88415
0.812607
0.739912
0.66618
0.591542
0.516245
0.440679
0.365613
0.292512
0.223922
0.163037
0.111434
0.0663725
0.0231548
1.78657
1.75015
1.70913
1.66407
1.61613
1.56547
1.51239
1.4572
1.39992
1.34079
1.27981
1.21715
1.15283
1.08695
1.01957
0.95075
0.880582
0.809169
0.736615
0.663036
0.588576
0.513476
0.438155
0.363413
0.290721
0.222579
0.162171
0.111001
0.0662591
0.0230472
1.78106
1.74473
1.70387
1.65898
1.61123
1.56072
1.50781
1.45275
1.39562
1.33662
1.27577
1.21323
1.14903
1.08327
1.016
0.947293
0.877237
0.80594
0.733512
0.66007
0.585767
0.510843
0.435751
0.361323
0.289038
0.22134
0.161388
0.11062
0.0661672
0.0229483
1.77603
1.73975
1.69901
1.65427
1.60669
1.5563
1.50355
1.44862
1.39162
1.33275
1.27202
1.20959
1.1455
1.07984
1.01268
0.944071
0.874114
0.80292
0.730603
0.65728
0.58311
0.508343
0.433462
0.359336
0.287454
0.220198
0.160684
0.110287
0.066094
0.0228579
1.7715
1.73522
1.69456
1.64993
1.6025
1.55223
1.49962
1.4448
1.38794
1.32917
1.26856
1.20623
1.14225
1.07668
1.0096
0.941079
0.871208
0.800103
0.72788
0.654657
0.580597
0.505966
0.43128
0.357443
0.285961
0.219145
0.160053
0.109998
0.0660369
0.0227762
1.76746
1.73113
1.69053
1.64598
1.59868
1.5485
1.49603
1.44131
1.38457
1.3259
1.2654
1.20316
1.13926
1.07377
1.00676
0.938311