/*--------------------------------*- C++ -*----------------------------------*\
  =========                 |
  \\      /  F ield         | OpenFOAM: The Open Source CFD Toolbox
   \\    /   O peration     | Website:  https://openfoam.org
    \\  /    A nd           | Version:  7
     \\/     M anipulation  |
\*---------------------------------------------------------------------------*/
FoamFile
{
    version     2.0;
    format      ascii;
    class       surfaceScalarField;
    location    "1.7";
    object      phi;
}
// * * * * * * * * * * * * * * * * * * * * * * * * * * * * * * * * * * * * * //

dimensions      [0 3 -1 0 0 0 0];

internalField   nonuniform List<scalar> 
35640
(
-2.79724e-05
0.00264889
-0.00262092
-9.24212e-05
0.00598964
-0.00592519
-0.000177162
0.00795899
-0.00787425
-0.000259308
0.00881432
-0.00873217
-0.000314998
0.00884315
-0.00878746
-0.000323351
0.00829356
-0.00828521
-0.000268292
0.00735888
-0.00741394
-0.000139254
0.00618579
-0.00631483
6.88248e-05
0.00488619
-0.00509427
0.000355973
0.00354707
-0.00383421
0.000717995
0.00223636
-0.00259838
0.00114734
0.00100614
-0.00143549
0.00163405
-0.000105904
-0.000380799
0.00216682
-0.00107545
0.000542681
0.00273406
-0.00189021
0.00132297
0.00332464
-0.00254808
0.0019575
0.00392849
-0.00305513
0.00245128
0.00453699
-0.00342324
0.00281474
0.00514321
-0.00366803
0.00306181
0.00574187
-0.00380695
0.00320828
0.00632915
-0.00385766
0.00327038
0.00690258
-0.00383712
0.00326369
0.00746073
-0.00376071
0.00320256
0.00800309
-0.00364195
0.0030996
0.00852969
-0.00349226
0.00296566
0.009041
-0.00332109
0.00280978
0.00953779
-0.003136
0.00263921
0.0100209
-0.00294277
0.00245963
0.0104913
-0.00274379
0.00227343
-0.00253183
0.0109493
0.00207382
-1.50323e-05
0.00266393
-5.37704e-05
0.00602838
-0.000105761
0.00801098
-0.00015215
0.00886071
-0.00017152
0.00886253
-0.000144362
0.00826641
-5.5425e-05
0.00726995
0.000105284
0.00602508
0.000342428
0.00464905
0.000655777
0.00323372
0.00104081
0.00185133
0.00148963
0.000557316
0.00199206
-0.000608335
0.0025367
-0.00162009
0.00311189
-0.00246541
0.00370664
-0.00314284
0.00431119
-0.00365968
0.00491736
-0.00402941
0.0055187
-0.00426937
0.0061104
-0.00439865
0.00668922
-0.00443649
0.00725319
-0.00440109
0.00780135
-0.00430888
0.00833352
-0.00417413
0.00885009
-0.00400883
0.0093518
-0.0038228
0.0098396
-0.00362379
0.0103145
-0.00341767
0.0107775
-0.00320682
-0.00298371
0.0112294
-2.78648e-06
0.00266671
-1.5799e-05
0.00604139
-3.46397e-05
0.00802982
-4.42884e-05
0.00887036
-2.58843e-05
0.00884412
3.84805e-05
0.00820204
0.000163009
0.00714542
0.000357089
0.005831
0.0006249
0.00438124
0.000965739
0.00289288
0.00137466
0.0014424
0.00184342
8.85567e-05
0.00236153
-0.00112644
0.00291743
-0.00217599
0.00349957
-0.00304754
0.00409718
-0.00374045
0.00470087
-0.00426337
0.00530298
-0.00463152
0.00589763
-0.00486402
0.00648067
-0.0049817
0.00704945
-0.00500526
0.0076025
-0.00495414
0.00813937
-0.00484574
0.00866026
-0.00469503
0.0091659
-0.00451447
0.00965725
-0.00431416
0.0101354
-0.00410198
0.0106016
-0.00388386
0.011057
-0.00366216
-0.00342917
0.0115024
9.01734e-06
0.0026577
2.08918e-05
0.00602952
3.52385e-05
0.00801547
6.29725e-05
0.00884263
0.000120224
0.00878687
0.000223175
0.00809909
0.000384897
0.0069837
0.000613919
0.00560198
0.0009138
0.00408136
0.00128328
0.00252341
0.00171684
0.00100884
0.00220576
-0.000400363
0.00273928
-0.00165997
0.00330576
-0.00274247
0.00389372
-0.00363551
0.00449274
-0.00433947
0.00509393
-0.00486456
0.00569027
-0.00522785
0.00627657
-0.00545032
0.00684934
-0.00555448
0.00740659
-0.00556251
0.00794744
-0.005495
0.00847191
-0.00537022
0.00898063
-0.00520374
0.0094746
-0.00500844
0.00995502
-0.00479458
0.0104232
-0.00457014
0.0108803
-0.00434102
0.0113278
-0.00410957
-0.003868
0.0117666
1.97983e-05
0.0026379
5.58436e-05
0.00599347
0.000102931
0.00796839
0.000168202
0.00877736
0.00026504
0.00869004
0.000407686
0.00795645
0.000607898
0.00678348
0.000873252
0.00533663
0.00120648
0.00374813
0.00160553
0.00212436
0.00206426
0.000550115
0.00257343
-0.000909541
0.00312197
-0.0022085
0.00369815
-0.00331865
0.00429072
-0.00422809
0.00488969
-0.00493844
0.00548679
-0.00546167
0.00607572
-0.00581678
0.00665207
-0.00602667
0.00721313
-0.00611554
0.00775756
-0.00610694
0.00828512
-0.00602256
0.00879631
-0.00588141
0.00929215
-0.00569958
0.00977391
-0.0054902
0.010243
-0.00526368
0.0107009
-0.00502799
0.0111488
-0.00478897
0.0115882
-0.00454894
-0.00430011
0.0120203
2.96761e-05
0.00260822
8.86728e-05
0.00593447
0.000167687
0.00788937
0.000270278
0.00867476
0.000407036
0.00855328
0.000590185
0.0077733
0.00082998
0.00654369
0.00113279
0.00503382
0.00150035
0.00338058
0.0019297
0.001695
0.00241393
6.58893e-05
0.00294321
-0.00143883
0.00350616
-0.00277145
0.00409108
-0.00390356
0.00468698
-0.00482399
0.00528441
-0.00553587
0.00587586
-0.00605312
0.00645586
-0.00639678
0.00702085
-0.00659167
0.00756893
-0.00666361
0.00809948
-0.0066375
0.00861288
-0.00653596
0.00911011
-0.00637865
0.00959256
-0.00618203
0.0100618
-0.00595941
0.0105193
-0.00572123
0.0109668
-0.00547541
0.0114054
-0.00522765
0.0118367
-0.00498023
-0.0047255
0.0122621
3.85174e-05
0.0025697
0.000119063
0.00585393
0.000228852
0.00777958
0.000368175
0.00853544
0.000544881
0.00837658
0.000768999
0.00754918
0.00104911
0.00626358
0.00139023
0.0046927
0.00179285
0.00297796
0.00225297
0.00123489
0.00276277
-0.000443911
0.00331183
-0.00198789
0.00388847
-0.00334809
0.00448102
-0.00449612
0.00507892
-0.00542189
0.00567338
-0.00613033
0.00625772
-0.00663746
0.0068274
-0.00696646
0.00737979
-0.00714406
0.00791383
-0.00719765
0.00842966
-0.00715333
0.00892826
-0.00703456
0.0094111
-0.00686148
0.00987989
-0.00665082
0.0103364
-0.00641593
0.0107824
-0.00616721
0.0112194
-0.00591242
0.0116489
-0.00565712
0.0120722
-0.00540351
-0.0051442
0.0124909
4.62565e-05
0.00252345
0.000146739
0.00575345
0.000285903
0.00764042
0.000461064
0.00836028
0.000677357
0.00816029
0.000942573
0.00728397
0.00126345
0.00594271
0.00164341
0.00431274
0.00208154
0.00253982
0.00257262
0.000743812
0.00310785
-0.000979143
0.00367616
-0.0025562
0.0042656
-0.00393752
0.00486463
-0.00509516
0.00546319
-0.00602045
0.00605326
-0.0067204
0.00662913
-0.00721333
0.00718726
-0.0075246
0.007726
-0.00768279
0.00824517
-0.00771683
0.00874568
-0.00765384
0.00922908
-0.00751796
0.00969731
-0.00732971
0.0101524
-0.00710589
0.0105963
-0.00685982
0.0110308
-0.00660174
0.0114576
-0.0063392
0.011878
-0.00607757
0.0122935
-0.00581897
-0.00555634
0.0127056
5.28689e-05
0.00247058
0.000171557
0.00563476
0.000338457
0.00747352
0.000548258
0.00815048
0.000803487
0.00790506
0.00110962
0.00697783
0.00147139
0.00558094
0.00189042
0.0038937
0.00236423
0.00206602
0.00288621
0.000221836
0.00344649
-0.00153942
0.00403332
-0.00314302
0.00463451
-0.00453871
0.00523876
-0.00569941
0.0058366
-0.0066183
0.00642094
-0.00730474
0.00698709
-0.00777948
0.0075326
-0.00807011
0.00805684
-0.00820704
0.00856055
-0.00822053
0.00904535
-0.00813865
0.0095134
-0.00798601
0.00996701
-0.00778332
0.0104085
-0.00754736
0.01084
-0.00729129
0.0112633
-0.00702509
0.0116802
-0.00675605
0.0120919
-0.00648929
0.0124998
-0.00622686
-0.00596214
0.0129056
5.83688e-05
0.00241221
0.000193452
0.00549968
0.000386287
0.00728068
0.000629304
0.00790747
0.000922547
0.00761181
0.00126913
0.00663126
0.00167161
0.00517846
0.00212967
0.00343564
0.00263904
0.00155665
0.00319158
-0.000330701
0.00377627
-0.00212411
0.00438067
-0.00374742
0.00499241
-0.00515045
0.00560051
-0.00630751
0.00619626
-0.00721404
0.00677354
-0.00788202
0.00732884
-0.00833478
0.00786083
-0.0086021
0.00836994
-0.00871615
0.0088578
-0.0087084
0.00932677
-0.00860762
0.00977952
-0.00843876
0.0102187
-0.00822255
0.010647
-0.00797559
0.0110664
-0.00771076
0.011479
-0.0074377
0.0118864
-0.0071634
0.0122898
-0.00689268
0.0126905
-0.00662754
-0.00636187
0.0130902
6.27968e-05
0.00234941
0.000212454
0.00535002
0.000429333
0.0070638
0.000703978
0.00763282
0.0010341
0.0072817
0.0014204
0.00624495
0.00186317
0.00473569
0.00235992
0.00293888
0.00290443
0.00101214
0.0034869
-0.00091317
0.0040951
-0.00273231
0.00471588
-0.0043682
0.00533678
-0.00577136
0.00594728
-0.00691801
0.0065395
-0.00780627
0.00710849
-0.00845101
0.00765192
-0.00887821
0.00816966
-0.00911984
0.00866321
-0.00920969
0.00913508
-0.00918026
0.0095883
-0.00906084
0.010026
-0.00887649
0.0104513
-0.0086478
0.0108668
-0.00839106
0.0112748
-0.00811876
0.0116772
-0.00784014
0.0120756
-0.00756178
0.0124711
-0.00728824
0.012865
-0.00702144
-0.00675591
0.0132591
6.62256e-05
0.00228319
0.00022869
0.00518755
0.000467701
0.00682479
0.000772292
0.00732823
0.00113799
0.006916
0.00156309
0.00581985
0.00204547
0.00425331
0.00258031
0.00240404
0.00315925
0.000433196
0.00377072
-0.00152464
0.00440121
-0.00336279
0.00503693
-0.00500392
0.00566542
-0.00639985
0.00627673
-0.00752932
0.006864
-0.00839355
0.00742348
-0.00901049
0.00795415
-0.00940887
0.00845709
-0.00962278
0.00893485
-0.00968745
0.00939079
-0.0096362
0.00982856
-0.00949861
0.0102517
-0.00929968
0.0106636
-0.00905967
0.011067
-0.00879444
0.0114642
-0.00851598
0.0118571
-0.00823305
0.0122472
-0.00795183
0.0126355
-0.00767656
0.0130231
-0.00740908
-0.00714471
0.0134119
6.87561e-05
0.00221443
0.000242371
0.00501394
0.000501653
0.00656551
0.000834491
0.00699539
0.00123438
0.00651612
0.0016972
0.00535703
0.00221828
0.00373223
0.00279034
0.00183199
0.0034027
-0.000179162
0.0040419
-0.00216384
0.00469314
-0.00401404
0.00534208
-0.00565286
0.00597638
-0.00703415
0.00658682
-0.00813976
0.00716768
-0.00897441
0.00771653
-0.00955935
0.00823368
-0.00992603
0.00872145
-0.0101106
0.00918339
-0.0101494
0.00962366
-0.0100765
0.0100465
-0.00992142
0.0104557
-0.00970896
0.010855
-0.00945888
0.011247
-0.00918649
0.0116342
-0.00890319
0.0120184
-0.0086172
0.0124008
-0.00833425
0.0127825
-0.00805827
0.0131645
-0.00779105
-0.00752876
0.0135485
7.05138e-05
0.00214392
0.000253786
0.00483067
0.000531601
0.0062877
0.000891031
0.00663596
0.00132368
0.00608347
0.00182302
0.00485769
0.00238173
0.00317352
0.00298985
0.00122387
0.00363428
-0.000823586
0.00429959
-0.00282915
0.00496973
-0.00468418
0.00562988
-0.006313
0.00626801
-0.00767228
0.00687581
-0.00874756
0.0074488
-0.0095474
0.00798597
-0.0100965
0.00848899
-0.010429
0.00896137
-0.0105829
0.00940765
-0.0105957
0.00983269
-0.0105015
0.0102412
-0.0103299
0.0106373
-0.0101051
0.0110248
-0.00984632
0.0114064
-0.00956812
0.0117845
-0.00928126
0.0121607
-0.0089934
0.0125362
-0.0087098
0.012912
-0.00843407
0.0132889
-0.00816798
-0.00790866
0.0136688
7.16428e-05
0.00207228
0.000263287
0.00463902
0.00055808
0.00599291
0.000942556
0.00625149
0.00140656
0.00561946
0.00194114
0.00432311
0.0025362
0.00257846
0.00317896
0.000581109
0.00385376
-0.00149838
0.00454319
-0.00351858
0.00523002
-0.00537101
0.0058991
-0.00698209
0.00653893
-0.00831211
0.00714223
-0.00935086
0.00770591
-0.0101111
0.00823044
-0.010621
0.00871885
-0.0109175
0.00917582
-0.0110399
0.00960677
-0.0110266
0.0100172
-0.0109119
0.0104122
-0.0107249
0.0107961
-0.0104891
0.0111727
-0.0102229
0.0115448
-0.00994024
0.0119147
-0.00965109
0.0122838
-0.00936249
0.0126532
-0.00907925
0.0130238
-0.00880467
0.0133963
-0.00854053
-0.00828499
0.0137727
7.2298e-05
0.00199998
0.000271272
0.00444005
0.000581718
0.00568246
0.000989853
0.00584335
0.00148387
0.00512545
0.00205234
0.00375464
0.00268229
0.0019485
0.00335798
-9.45782e-05
0.0040611
-0.0022015
0.00477229
-0.00422977
0.00547325
-0.00607197
0.00614875
-0.0076576
0.00678796
-0.00895132
0.00738486
-0.00994776
0.00793785
-0.0106641
0.00844889
-0.0111321
0.00892237
-0.0113909
0.00936405
-0.0114816
0.00978016
-0.0114427
0.0101767
-0.0113085
0.0105591
-0.0111072
0.0109318
-0.0108618
0.0112986
-0.0105897
0.0116622
-0.0103039
0.0120247
-0.0100136
0.0123875
-0.00972533
0.0127517
-0.00944338
0.0131178
-0.00917079
0.0134866
-0.00890934
-0.00865837
0.01386
7.26399e-05
0.00192734
0.000278169
0.00423452
0.000603206
0.00535742
0.0010338
0.00541275
0.00155656
0.0046027
0.00215753
0.00315367
0.00282073
0.0012853
0.00352733
-0.000801175
0.00425635
-0.00293051
0.00498656
-0.00495998
0.00569879
-0.0067842
0.00637796
-0.00833676
0.00701415
-0.00958751
0.00760274
-0.0105363
0.00814373
-0.0112051
0.00864057
-0.0116289
0.00909895
-0.0118493
0.00952565
-0.0119083
0.00992755
-0.0118446
0.0103111
-0.011692
0.0106818
-0.011478
0.0110444
-0.0112244
0.0114024
-0.0109477
0.0117585
-0.01066
0.0121146
-0.0103697
0.012472
-0.0100827
0.0128316
-0.00980294
0.0131938
-0.00953308
0.0135595
-0.00927504
-0.00902937
0.0139305
7.28291e-05
0.00185451
0.000284413
0.00402294
0.000623258
0.00501858
0.00107534
0.00496067
0.00162565
0.00405239
0.00225768
0.00252164
0.00295228
0.000590705
0.00368746
-0.00153635
0.0044396
-0.00368265
0.00518574
-0.00570613
0.00590612
-0.00750458
0.00658603
-0.00901668
0.00721674
-0.0102182
0.00779516
-0.0111148
0.00832293
-0.0117328
0.00880501
-0.012111
0.0092483
-0.0122926
0.00966043
-0.0123204
0.0100489
-0.0122331
0.0104203
-0.0120635
0.0107805
-0.0118382
0.011134
-0.0115779
0.0114843
-0.0112979
0.0118338
-0.0110095
0.0121844
-0.0107203
0.0125371
-0.0104355
0.0128928
-0.0101586
0.0132519
-0.00989214
0.013615
-0.00963814
-0.00939848
0.0139841
7.30208e-05
0.00178149
0.000290428
0.00380553
0.00064258
0.00466643
0.00111537
0.00448788
0.00169216
0.0034756
0.00235372
0.00186007
0.00307766
-0.000133229
0.00383877
-0.00229746
0.00461089
-0.00445477
0.00536957
-0.00646481
0.00609472
-0.00822973
0.00677236
-0.00969432
0.00739512
-0.010841
0.00796161
-0.0116813
0.00847511
-0.0122463
0.00894202
-0.0125779
0.00937036
-0.0127209
0.00976849
-0.0127185
0.0101443
-0.0126089
0.0105048
-0.0124239
0.0108555
-0.0121889
0.011201
-0.0119233
0.0115445
-0.0116415
0.0118884
-0.0113534
0.0122343
-0.0110661
0.012583
-0.0107843
0.0129354
-0.0105109
0.0132917
-0.0102485
0.0136526
-0.00999905
-0.00976604
0.0140202
7.33586e-05
0.00170813
0.000296611
0.00358228
0.000661832
0.00430121
0.00115474
0.00399497
0.00175697
0.00287336
0.00244646
0.00117058
0.00319744
-0.000884201
0.00398151
-0.00308154
0.00477015
-0.00524341
0.00553771
-0.00723236
0.00626413
-0.00895615
0.00693644
-0.0103666
0.00754887
-0.0114534
0.00810178
-0.0122342
0.00860012
-0.0127447
0.00905164
-0.0130294
0.00946532
-0.0131346
0.00985012
-0.0131033
0.0102143
-0.0129731
0.0105647
-0.0127744
0.010907
-0.0125313
0.0112456
-0.0122619
0.0115834
-0.0119792
0.0119225
-0.0116926
0.0122644
-0.011408
0.0126099
-0.0111297
0.0129594
-0.0108604
0.0133133
-0.0106024
0.0136722
-0.010358
-0.0101322
0.0140384
7.39693e-05
0.00163416
0.000303314
0.00335293
0.000681596
0.00392292
0.0011942
0.00348237
0.00182087
0.00224669
0.00253655
0.000454909
0.00331202
-0.00165967
0.00411579
-0.00388532
0.00491721
-0.00604482
0.00568979
-0.00800494
0.0064139
-0.00968026
0.00707788
-0.0110306
0.0076777
-0.0120532
0.00821559
-0.0127721
0.00869807
-0.0132272
0.00913414
-0.0134655
0.00953357
-0.013534
0.00990582
-0.0134756
0.0102592
-0.0133265
0.0106007
-0.0131159
0.0109358
-0.0128663
0.0112684
-0.0125945
0.0116013
-0.0123122
0.0119366
-0.0120278
0.0122752
-0.0117466
0.0126178
-0.0114724
0.0129648
-0.0112074
0.0133165
-0.010954
0.0136735
-0.010715
-0.0104969
0.0140382
7.49584e-05
0.00155921
0.000310832
0.00311706
0.000702354
0.0035314
0.00123434
0.00295038
0.00188442
0.00159661
0.00262439
-0.000285056
0.00342155
-0.00245683
0.00424149
-0.00470526
0.00505173
-0.00685506
0.00582538
-0.00877859
0.00654361
-0.0103985
0.00719636
-0.0116834
0.00778152
-0.0126384
0.00830313
-0.0132937
0.00876925
-0.0136933
0.00918995
-0.0138862
0.00957569
-0.0139198
0.0099362
-0.0138361
0.0102799
-0.0136701
0.0106135
-0.0134495
0.0109423
-0.0131951
0.0112699
-0.0129221
0.0115989
-0.0126413
0.011931
-0.0123598
0.0122669
-0.0120826
0.0126072
-0.0118126
0.0129519
-0.0115522
0.0133014
-0.0113035
0.0136564
-0.01107
-0.0108599
0.0140193
7.6409e-05
0.0014828
0.000319394
0.00287407
0.000724467
0.00312633
0.00127557
0.00239928
0.00194797
0.000924202
0.00271015
-0.00104723
0.00352597
-0.00327266
0.0043583
-0.00553759
0.00517326
-0.00767002
0.005944
-0.00954933
0.00665289
-0.0111074
0.0072917
-0.0123222
0.00786035
-0.013207
0.00836467
-0.013798
0.00881413
-0.0141428
0.00921972
-0.0142918
0.00959238
-0.0142924
0.00994202
-0.0141857
0.0102769
-0.014005
0.0106037
-0.0137762
0.0109271
-0.0135185
0.0112507
-0.0132457
0.0115767
-0.0129672
0.0119063
-0.0126894
0.0122401
-0.0124164
0.0125784
-0.012151
0.0129212
-0.011895
0.0132684
-0.0116508
0.0136209
-0.0114224
-0.0112204
0.0139815
7.83804e-05
0.00140442
0.000329158
0.0026233
0.000748171
0.00270731
0.00131812
0.00182934
0.00201164
0.000230676
0.00279375
-0.00182934
0.00362496
-0.00410387
0.00446573
-0.00637835
0.00528124
-0.00848553
0.00604516
-0.0103133
0.00674141
-0.0118036
0.00736384
-0.0129446
0.00791439
-0.0137576
0.00840066
-0.0142843
0.00883334
-0.0145754
0.00922418
-0.0146826
0.00958446
-0.0146527
0.00992408
-0.0145254
0.0102512
-0.0143321
0.010572
-0.0140971
0.0108911
-0.0138376
0.0112115
-0.0135661
0.0115352
-0.0132909
0.011863
-0.0130173
0.0121954
-0.0127488
0.0125323
-0.0124878
0.0128732
-0.0122359
0.013218
-0.0119956
0.0135675
-0.0117719
-0.0115778
0.0139249
8.09072e-05
0.00132351
0.00034021
0.00236399
0.000773575
0.00227395
0.00136205
0.00124086
0.00207534
-0.00048261
0.00287488
-0.00262889
0.00371801
-0.00494699
0.00456315
-0.0072235
0.00537506
-0.00929744
0.0061284
-0.0110666
0.00680897
-0.0124842
0.00741284
-0.0135485
0.00794401
-0.0142888
0.00841168
-0.0147519
0.00882764
-0.0149914
0.00920419
-0.0150592
0.00955279
-0.0150013
0.00988324
-0.0148558
0.0102034
-0.0146523
0.0105191
-0.0144128
0.0108347
-0.0141532
0.0111527
-0.0138842
0.0114749
-0.0136131
0.0118019
-0.0133442
0.0121335
-0.0130805
0.0124695
-0.0128237
0.012809
-0.0125754
0.0131514
-0.0123381
0.0134973
-0.0121177
-0.0119308
0.0138503
8.40005e-05
0.00123951
0.00035257
0.00209542
0.000800666
0.00182585
0.00140723
0.000634293
0.00213874
-0.00121412
0.00295302
-0.00344317
0.00380442
-0.00579839
0.00464983
-0.00806891
0.00545409
-0.0101017
0.0061933
-0.0118058
0.00685545
-0.0131464
0.00743892
-0.0141319
0.0079497
-0.0147995
0.00839847
-0.0152007
0.00879789
-0.0153908
0.00916069
-0.015422
0.0094983
-0.0153389
0.00982033
-0.0151778
0.0101343
-0.0149662
0.0104457
-0.0147242
0.0107585
-0.0144659
0.0110749
-0.0142007
0.0113964
-0.0139345
0.0117233
-0.0136711
0.0120552
-0.0134124
0.0123913
-0.0131598
0.0127302
-0.0129143
0.0130706
-0.0126785
0.0134123
-0.0124594
-0.0122776
0.0137591
8.76488e-05
0.00115186
0.000366198
0.00181687
0.000829319
0.00136273
0.00145339
1.02219e-05
0.00220137
-0.0019621
0.00302749
-0.00426929
0.00388343
-0.00665433
0.00472502
-0.0089105
0.00551774
-0.0108944
0.00623956
-0.0125276
0.00688088
-0.0137877
0.00744242
-0.0146935
0.00793209
-0.0152892
0.00836184
-0.0156304
0.00874505
-0.015774
0.00909462
-0.0157715
0.00942191
-0.0156662
0.00973618
-0.0154921
0.0100446
-0.0152746
0.0103523
-0.0150319
0.0106628
-0.0147765
0.0109784
-0.0145162
0.0113
-0.0142562
0.0116278
-0.0139989
0.0119612
-0.0137458
0.0122988
-0.0134974
0.0126386
-0.0132541
0.0129781
-0.013018
0.0133158
-0.0127971
-0.0126157
0.0136539
9.18224e-05
0.00106004
0.000380999
0.00152769
0.000859313
0.000884417
0.00150011
-0.000630578
0.0022626
-0.00272459
0.00309749
-0.00510418
0.00395416
-0.007511
0.00478794
-0.00974428
0.00556548
-0.011672
0.00626698
-0.0132291
0.00688543
-0.0144061
0.00742385
-0.0152319
0.00789193
-0.0157573
0.00830272
-0.0160412
0.00867009
-0.0161414
0.00900698
-0.0161084
0.0093245
-0.0159837
0.00963155
-0.0157991
0.00993485
-0.0155779
0.0102393
-0.0153364
0.010548
-0.0150852
0.0108632
-0.0148314
0.0111857
-0.0145786
0.0115156
-0.0143289
0.0118522
-0.0140824
0.0121937
-0.0138389
0.012537
-0.0135974
0.0128781
-0.0133592
0.0132133
-0.0131323
-0.0129419
0.0135395
9.64823e-05
0.000963554
0.000396837
0.00122734
0.000890353
0.000390901
0.00154689
-0.00128712
0.00232172
-0.00349942
0.00316217
-0.00594462
0.00401576
-0.00836459
0.00483789
-0.0105664
0.00559689
-0.012431
0.00627551
-0.0139077
0.00686939
-0.015
0.00738383
-0.0157463
0.00783009
-0.0162035
0.00822211
-0.0164333
0.00857405
-0.0164933
0.00889876
-0.0164331
0.00920696
-0.0162919
0.00950714
-0.0160993
0.0098056
-0.0158764
0.0101069
-0.0156376
0.010414
-0.0153924
0.010729
-0.0151464
0.0110529
-0.0149025
0.0113861
-0.0146621
0.0117282
-0.0144245
0.0120775
-0.0141882
0.0124302
-0.0139501
0.0127782
-0.0137072
0.0131055
-0.0134596
-0.0132546
0.0134183
0.000101586
0.000861968
0.000413553
0.000915369
0.000922092
-0.000117638
0.00159316
-0.00195818
0.00237795
-0.00428421
0.00322064
-0.00678731
0.0040674
-0.00921135
0.00487427
-0.0113733
0.0056117
-0.0131684
0.00626523
-0.0145613
0.00683322
-0.015568
0.00732309
-0.0162362
0.0077475
-0.0166279
0.00812105
-0.0168068
0.008458
-0.0168303
0.00877093
-0.0167461
0.00907014
-0.0165912
0.0093636
-0.0163928
0.00965722
-0.01617
0.0099552
-0.0159356
0.0102605
-0.0156976
0.010575
-0.0154609
0.0109002
-0.0152277
0.0112371
-0.0149989
0.0115864
-0.0147739
0.0119488
-0.0145506
0.012324
-0.0143253
0.0127088
-0.014092
0.0130896
-0.0138404
0.0133732
-0.0135382
0.0116918
-0.0078967
0.00715425
0.0121342
-0.00284142
0.002399
0.0123635
0.00201614
-0.00224543
0.0124604
0.0056018
-0.00569873
0.0124672
0.00822331
-0.00823012
0.0124093
0.0103122
-0.0102543
0.0123005
0.0122384
-0.0121296
0.0121515
0.0141343
-0.0139853
0.0119698
0.0160085
-0.0158268
0.0117606
0.0178314
-0.0176222
0.011528
0.0195786
-0.019346
0.011275
0.0212364
-0.0209833
0.0110043
0.0228037
-0.022533
0.0107173
0.024277
-0.02399
0.0104163
0.0256575
-0.0253566
0.0101022
0.0269468
-0.0266327
0.00977686
0.0281404
-0.027815
0.00944107
0.0292397
-0.0289039
0.00909665
0.0302405
-0.029896
0.0087435
0.031145
-0.0307918
0.00838419
0.0319389
-0.0315796
0.0080169
0.0326479
-0.0322806
0.00764404
0.033228
-0.0328552
0.0072641
0.033733
-0.0333531
0.00687398
0.0341291
-0.033739
0.00647952
0.0343559
-0.0339614
0.00606283
0.0347608
-0.0343442
0.00564188
0.0344775
-0.0340565
0.0051932
0.0349907
-0.034542
0.0350165
-0.0345449
0.0118975
-0.00856476
0.0123002
-0.00324412
0.0125095
0.00180688
0.0125972
0.00551415
0.0126005
0.00821999
0.0125415
0.0103713
0.0124329
0.0123469
0.0122841
0.0142831
0.0121025
0.0161901
0.0118928
0.018041
0.0116591
0.0198122
0.0114046
0.0214909
0.0111315
0.0230767
0.0108413
0.0245672
0.0105363
0.0259625
0.0102175
0.0272656
0.00988671
0.0284712
0.00954469
0.0295817
0.00919352
0.0305916
0.00883298
0.0315055
0.00846533
0.0323066
0.00808941
0.0330239
0.00770747
0.03361
0.00731827
0.0341222
0.00691859
0.0345288
0.00651453
0.0347599
0.00608819
0.0351872
0.00565801
0.0349077
0.00520043
0.0354483
0.0354965
0.0120954
-0.00915769
0.0124589
-0.00360764
0.0126489
0.00161686
0.0127277
0.0054354
0.0127281
0.00821959
0.0126685
0.0104308
0.0125606
0.0124548
0.0124125
0.0144313
0.0122313
0.0163713
0.0120217
0.0182507
0.0117873
0.0200466
0.0115316
0.0217467
0.0112564
0.0233519
0.0109633
0.0248603
0.0106546
0.0262711
0.0103315
0.0275887
0.00999547
0.0288072
0.00964742
0.0299298
0.00928971
0.0309494
0.00892187
0.0318734
0.00854613
0.0326823
0.00816175
0.0334082
0.0077709
0.0340008
0.00737259
0.0345205
0.00696349
0.0349379
0.00655004
0.0351734
0.00611427
0.035623
0.00567506
0.0353469
0.00520867
0.0359147
0.035985
0.0122844
-0.00967553
0.0126096
-0.00393277
0.012781
0.00144539
0.0128516
0.00536484
0.0128496
0.00822154
0.0127902
0.0104902
0.0126835
0.0125615
0.0125365
0.0145783
0.0123563
0.0165515
0.0121471
0.0184599
0.0119125
0.0202811
0.0116558
0.0220034
0.0113789
0.0236289
0.0110834
0.0251558
0.0107713
0.0265832
0.010444
0.027916
0.010103
0.0291481
0.00974925
0.0302836
0.00938506
0.0313135
0.00901004
0.0322484
0.00862661
0.0330658
0.00823398
0.0338009
0.00783438
0.0344004
0.00742707
0.0349279
0.00700866
0.0353563
0.00658603
0.035596
0.00614095
0.036068
0.00569317
0.0357947
0.00521776
0.0363901
0.0364817
0.0124639
-0.0101191
0.0127524
-0.00422129
0.0129046
0.00129317
0.0129687
0.00530082
0.0129651
0.00822512
0.0129065
0.0105488
0.0128013
0.0126667
0.012656
0.0147236
0.0124771
0.0167304
0.0122688
0.0186682
0.0120345
0.0205154
0.0117772
0.0222607
0.0114988
0.0239073
0.0112013
0.0254534
0.0108861
0.0268984
0.0105549
0.0282473
0.0102094
0.0294936
0.00985007
0.0306429
0.00947958
0.031684
0.00909752
0.0326304
0.00870674
0.0334566
0.00830598
0.0342016
0.00789787
0.0348085
0.00748165
0.0353441
0.00705408
0.0357838
0.00662245
0.0360276
0.00616828
0.0365222
0.00571218
0.0362508
0.00522779
0.0368745
0.0369866
0.012633
-0.01049
0.0128861
-0.00447441
0.0130201
0.00115919
0.0130787
0.00524226
0.0130742
0.0082296
0.0130169
0.010606
0.0129139
0.0127697
0.0127709
0.0148666
0.0125937
0.0169076
0.0123867
0.0188751
0.0121531
0.020749
0.0118956
0.0225183
0.0116162
0.0241867
0.0113169
0.0257527
0.010999
0.0272163
0.0106642
0.028582
0.0103144
0.0298435
0.0099498
0.0310075
0.00957331
0.0320605
0.00918442
0.0330193
0.00878644
0.0338545
0.00837766
0.0346104
0.00796123
0.035225
0.00753628
0.035769
0.00709982
0.0362203
0.00665931
0.0364681
0.0061963
0.0369852
0.00573199
0.0367151
0.00523888
0.0373676
0.0374996
0.0127912
-0.0107904
0.0130099
-0.00469306
0.0131278
0.00104129
0.0131816
0.00518846
0.013177
0.0082342
0.0131216
0.0106614
0.0130211
0.0128702
0.0128808
0.015007
0.0127058
0.0170826
0.0125007
0.0190803
0.0122681
0.0209816
0.0120109
0.0227755
0.0117308
0.0244667
0.0114301
0.0260534
0.0111099
0.0275365
0.0107719
0.0289201
0.010418
0.0301974
0.0100484
0.031377
0.00966617
0.0324428
0.00927067
0.0334148
0.00886566
0.0342595
0.00844907
0.035027
0.00802446
0.0356496
0.00759094
0.0362026
0.00714583
0.0366654
0.00669658
0.0369174
0.00622494
0.0374569
0.00575262
0.0371874
0.00525099
0.0378692
0.0380207
0.012938
-0.0110228
0.0131235
-0.00487853
0.0132275
0.00093723
0.0132774
0.00513859
0.0132734
0.00823824
0.0132204
0.0107143
0.0131229
0.0129677
0.0129857
0.0151442
0.0128134
0.0172548
0.0126105
0.0192833
0.0123795
0.0212126
0.0121229
0.0230321
0.0118427
0.024747
0.0115409
0.0263551
0.0112188
0.0278586
0.0108778
0.0292611
0.0105201
0.0305551
0.0101459
0.0317513
0.0097581
0.0328305
0.00935623
0.0338167
0.00894435
0.0346714
0.00852017
0.0354512
0.00808753
0.0360822
0.00764562
0.0366445
0.00719204
0.037119
0.00673423
0.0373752
0.00625418
0.0379369
0.00577401
0.0376676
0.00526411
0.0383791
0.0385498
0.0130731
-0.0111903
0.0132272
-0.00503263
0.0133193
0.000845057
0.0133664
0.00509154
0.0133635
0.00824112
0.0133133
0.0107645
0.0132192
0.0130618
0.0130855
0.0152779
0.0129164
0.017424
0.012716
0.0194837
0.0124869
0.0214416
0.0122315
0.0232875
0.0119515
0.025027
0.0116491
0.0266575
0.0113253
0.0281824
0.0109818
0.0296046
0.0106206
0.0309162
0.010242
0.0321298
0.00984903
0.0332235
0.00944107
0.0342247
0.00902246
0.03509
0.00859092
0.0358827
0.00815043
0.0365227
0.00770027
0.0370946
0.00723839
0.0375808
0.00677221
0.0378414
0.00628401
0.0384251
0.00579613
0.0381555
0.00527818
0.0388971
0.0390868
0.0131963
-0.0112964
0.0133211
-0.00515749
0.0134035
0.000762678
0.0134489
0.00504615
0.0134477
0.00824236
0.0134005
0.0108116
0.01331
0.0131523
0.0131801
0.0154079
0.0130145
0.0175896
0.0128171
0.0196811
0.0125904
0.0216683
0.0123366
0.0235414
0.0120572
0.0253063
0.0117545
0.0269602
0.0114296
0.0285073
0.0110839
0.0299503
0.0107195
0.0312806
0.0103369
0.0325125
0.0099389
0.0336215
0.00952511
0.0346384
0.00909995
0.0355152
0.00866126
0.0363214
0.00821309
0.0369709
0.00775484
0.0375529
0.00728486
0.0380508
0.00681047
0.0383157
0.00631437
0.0389212
0.00581891
0.0386509
0.00529315
0.0394228
0.0396316
0.0133077
-0.011345
0.0134057
-0.00525547
0.0134805
0.000687853
0.0135254
0.00500132
0.0135261
0.00824163
0.0134821
0.0108556
0.0133954
0.013239
0.0132694
0.0155338
0.0131078
0.0177512
0.0129137
0.0198751
0.0126899
0.0218921
0.0124379
0.0237933
0.0121597
0.0255845
0.0118571
0.0272628
0.0115314
0.028833
0.0111839
0.0302978
0.0108167
0.0316478
0.0104303
0.0328989
0.0100276
0.0340242
0.0096083
0.0350578
0.00917677
0.0359467
0.00873114
0.036767
0.00827549
0.0374265
0.0078093
0.0380191
0.00733141
0.0385287
0.00684893
0.0387982
0.00634519
0.039425
0.00584231
0.0391538
0.00530897
0.0399562
0.040184
0.0134076
-0.0113407
0.0134814
-0.00532926
0.0135511
0.000618137
0.0135962
0.00495626
0.0135992
0.00823857
0.0135583
0.0108965
0.0134755
0.0133218
0.0133536
0.0156556
0.0131961
0.0179087
0.0130058
0.0200655
0.0127851
0.0221128
0.0125356
0.0240428
0.0122589
0.0258613
0.0119568
0.0275648
0.0116306
0.0291593
0.0112818
0.0306466
0.0109121
0.0320176
0.0105223
0.0332886
0.0101151
0.0344314
0.00969056
0.0354824
0.00925289
0.0363844
0.00880052
0.0372194
0.00833756
0.0378895
0.00786357
0.038493
0.00737797
0.0390143
0.00688752
0.0392887
0.00637639
0.0399361
0.00586628
0.0396639
0.00532561
0.0404968
0.0407439
0.0134962
-0.0112884
0.0135488
-0.00538178
0.0136157
0.000551164
0.0136619
0.0049101
0.0136674
0.00823303
0.0136295
0.0109345
0.0135504
0.0134009
0.0134328
0.0157732
0.0132797
0.0180618
0.0130934
0.0202518
0.0128762
0.0223299
0.0126294
0.0242896
0.0123546
0.0261361
0.0120535
0.0278659
0.0117272
0.0294855
0.0113774
0.0309964
0.0110055
0.0323894
0.0106127
0.0336814
0.0102014
0.0348427
0.00977181
0.0359119
0.00932824
0.0368279
0.00886933
0.0376783
0.00839925
0.0383595
0.0079176
0.0389747
0.00742449
0.0395074
0.00692617
0.039787
0.0064079
0.0404544
0.00589074
0.0401811
0.005343
0.0410446
0.0413109
0.0135741
-0.0111937
0.0136085
-0.00541614
0.0136748
0.000484818
0.0137231
0.00486182
0.013731
0.00822511
0.0136958
0.0109696
0.0136203
0.0134765
0.013507
0.0158865
0.0133585
0.0182104
0.0131764
0.0204338
0.0129631
0.0225432
0.0127194
0.0245334
0.0124468
0.0264087
0.012147
0.0281657
0.011821
0.0298115
0.0114707
0.0313467
0.011097
0.0327631
0.0107015
0.0340769
0.0102862
0.0352579
0.00985197
0.0363462
0.00940278
0.0372771
0.0089375
0.0381436
0.00846053
0.0388365
0.00797131
0.0394639
0.0074709
0.0400078
0.00696478
0.0402931
0.00643962
0.0409795
0.0059156
0.0407051
0.00536105
0.0415991
0.0418848
0.0136416
-0.0110626
0.0136609
-0.00543548
0.0137286
0.000417123
0.0137798
0.00481063
0.01379
0.0082149
0.0137574
0.0110023
0.0136853
0.0135485
0.0135764
0.0159954
0.0134325
0.0183543
0.0132551
0.0206113
0.0130458
0.0227525
0.0128055
0.0247737
0.0125355
0.0266786
0.0122374
0.0284639
0.0119121
0.0301368
0.0115615
0.0316973