-0.362837 	0.362837 	0.5 	0.0239459 	0.0230714 	7.22368e-24
-0.380512 	0.380512 	0.5 	0.0648264 	0.061424 	4.61678e-21
-0.398188 	0.398188 	0.5 	0.100638 	0.0933472 	-2.35874e-21
-0.415863 	0.415863 	0.5 	0.132086 	0.11994 	1.90622e-20
-0.433538 	0.433538 	0.5 	0.159885 	0.141971 	0
-0.451213 	0.451213 	0.5 	0.184572 	0.160107 	1.47428e-20
-0.468888 	0.468888 	0.5 	0.206587 	0.174901 	2.49924e-20
-0.486563 	0.486563 	0.5 	0.226292 	0.186821 	1.51412e-20
-0.504238 	0.504238 	0.5 	0.243987 	0.19627 	-1.01702e-20
-0.521913 	0.521913 	0.5 	0.25993 	0.203593 	-2.58494e-20
-0.539588 	0.539588 	0.5 	0.274336 	0.209091 	0
-0.557263 	0.557263 	0.5 	0.287394 	0.213025 	2.09888e-20
-0.574938 	0.574938 	0.5 	0.299267 	0.215625 	1.0606e-20
-0.592613 	0.592613 	0.5 	0.310096 	0.217091 	-1.02826e-22
-0.610288 	0.610288 	0.5 	0.320005 	0.217596 	1.26351e-23
-0.627963 	0.627963 	0.5 	0.329104 	0.217295 	4.28049e-20
-0.645638 	0.645638 	0.5 	0.337489 	0.21632 	-1.07497e-20
-0.663313 	0.663313 	0.5 	0.345244 	0.214788 	3.21289e-20
-0.680988 	0.680988 	0.5 	0.352445 	0.2128 	-1.07497e-20
-0.698663 	0.698663 	0.5 	0.359157 	0.210443 	3.20606e-20
-0.716338 	0.716338 	0.5 	0.36544 	0.207792 	-2.13931e-20
-0.734013 	0.734013 	0.5 	0.371345 	0.204913 	3.19082e-20
-0.751688 	0.751688 	0.5 	0.376918 	0.201862 	1.06032e-20
-0.769363 	0.769363 	0.5 	0.3822 	0.198685 	-3.16317e-20
-0.787038 	0.787038 	0.5 	0.387228 	0.195424 	0
-0.804713 	0.804713 	0.5 	0.392032 	0.192112 	-2.08043e-20
-0.822388 	0.822388 	0.5 	0.396642 	0.188779 	0
-0.840063 	0.840063 	0.5 	0.401083 	0.185447 	-2.05146e-20
-0.857738 	0.857738 	0.5 	0.405379 	0.182138 	0
-0.875413 	0.875413 	0.5 	0.409549 	0.178868 	2.01858e-20
-0.893088 	0.893088 	0.5 	0.413613 	0.17565 	0
-0.910763 	0.910763 	0.5 	0.417588 	0.172495 	1.9823e-20
-0.928438 	0.928438 	0.5 	0.421492 	0.169414 	-1.963e-20
-0.946113 	0.946113 	0.5 	0.425341 	0.166412 	0
-0.963788 	0.963788 	0.5 	0.429154 	0.163497 	-1.92219e-20
-0.981463 	0.981463 	0.5 	0.432951 	0.160677 	1.90072e-20
-0.999138 	0.999138 	0.5 	0.436757 	0.157963 	0
-1.01681 	1.01681 	0.5 	0.440644 	0.155343 	0
-1.03449 	1.03449 	0.5 	0.444812 	0.152784 	-1.82817e-20
-1.05216 	1.05216 	0.5 	0.449373 	0.150689 	-2.11546e-20
-1.061 	1.061 	0.5 	0.463076 	0.149898 	1.74261e-20
-1.12274 	1.12274 	0.5 	0.459199 	0.144661 	0
-1.18448 	1.18448 	0.5 	0.467521 	0.12935 	0
-1.24621 	1.24621 	0.5 	0.481401 	0.129691 	0
-1.30795 	1.30795 	0.5 	0.493518 	0.131829 	0
-1.36969 	1.36969 	0.5 	0.496156 	0.118192 	0
-1.43142 	1.43142 	0.5 	0.506523 	0.121378 	0
-1.49316 	1.49316 	0.5 	0.50952 	0.108198 	0
-1.5549 	1.5549 	0.5 	0.51313 	0.0947059 	0
-1.61664 	1.61664 	0.5 	0.520809 	0.0979669 	0
-1.67838 	1.67838 	0.5 	0.523476 	0.0840132 	0
