1.11936e-18 	0.5125 	0.5 	0.0187951 	0.000354821 	0
1.11936e-18 	0.5375 	0.5 	0.0537121 	0.00298115 	0
1.11936e-18 	0.5625 	0.5 	0.0863154 	0.00823462 	-4.05376e-22
1.11936e-18 	0.5875 	0.5 	0.116779 	0.0148648 	0
1.11936e-18 	0.6125 	0.5 	0.145269 	0.0225567 	0
1.11936e-18 	0.6375 	0.5 	0.171935 	0.030935 	-4.47442e-22
1.11936e-18 	0.6625 	0.5 	0.196909 	0.0397299 	0
1.11936e-18 	0.6875 	0.5 	0.220305 	0.0487347 	0
1.11936e-18 	0.7125 	0.5 	0.242226 	0.0577897 	0
1.11936e-18 	0.7375 	0.5 	0.262763 	0.0667722 	0
1.11936e-18 	0.7625 	0.5 	0.281999 	0.0755887 	0
1.11936e-18 	0.7875 	0.5 	0.300008 	0.0841684 	-5.01457e-22
1.11936e-18 	0.8125 	0.5 	0.31686 	0.0924586 	0
1.11936e-18 	0.8375 	0.5 	0.332621 	0.100421 	0
1.11936e-18 	0.8625 	0.5 	0.347351 	0.10803 	0
1.11936e-18 	0.8875 	0.5 	0.36111 	0.115267 	0
1.11936e-18 	0.9125 	0.5 	0.373951 	0.122123 	-1.30738e-22
1.11936e-18 	0.9375 	0.5 	0.385928 	0.128595 	1.31007e-22
1.11936e-18 	0.9625 	0.5 	0.397091 	0.134684 	0
1.11936e-18 	0.9875 	0.5 	0.407487 	0.140397 	0
1.11936e-18 	1.0125 	0.5 	0.417162 	0.14574 	5.27083e-22
1.11936e-18 	1.0375 	0.5 	0.42616 	0.150727 	0
1.11936e-18 	1.0625 	0.5 	0.434523 	0.15537 	0
1.11936e-18 	1.0875 	0.5 	0.44229 	0.159683 	0
1.11936e-18 	1.1125 	0.5 	0.449498 	0.163681 	0
1.11936e-18 	1.1375 	0.5 	0.456183 	0.167382 	0
1.11936e-18 	1.1625 	0.5 	0.462379 	0.170802 	0
1.11936e-18 	1.1875 	0.5 	0.468117 	0.173956 	5.17504e-22
1.11936e-18 	1.2125 	0.5 	0.473427 	0.176863 	0
1.11936e-18 	1.2375 	0.5 	0.478337 	0.179539 	-5.11697e-22
1.11936e-18 	1.2625 	0.5 	0.482874 	0.181999 	0
1.11936e-18 	1.2875 	0.5 	0.487061 	0.18426 	0
1.11936e-18 	1.3125 	0.5 	0.490921 	0.186337 	0
1.11936e-18 	1.3375 	0.5 	0.494475 	0.188245 	-2.48231e-22
1.11936e-18 	1.3625 	0.5 	0.497743 	0.189997 	2.46891e-22
1.11936e-18 	1.3875 	0.5 	0.500742 	0.191607 	0
1.11936e-18 	1.4125 	0.5 	0.503488 	0.193089 	0
1.11936e-18 	1.4375 	0.5 	0.505996 	0.194453 	0
1.11936e-18 	1.4625 	0.5 	0.508277 	0.195709 	0
1.11936e-18 	1.4875 	0.5 	0.510343 	0.196876 	0
1.11936e-18 	1.55625 	0.5 	0.515466 	0.199915 	1.71146e-22
1.11936e-18 	1.66875 	0.5 	0.522095 	0.203467 	0
1.11936e-18 	1.78125 	0.5 	0.527059 	0.205877 	0
1.11936e-18 	1.89375 	0.5 	0.531405 	0.207813 	1.61258e-22
1.11936e-18 	2.00625 	0.5 	0.535417 	0.209378 	1.567e-22
1.11936e-18 	2.11875 	0.5 	0.53943 	0.210936 	-1.5183e-22
1.11936e-18 	2.23125 	0.5 	0.543539 	0.212523 	7.20617e-23
1.11936e-18 	2.34375 	0.5 	0.547791 	0.21424 	-2.13776e-22
