/*--------------------------------*- C++ -*----------------------------------*\
  =========                 |
  \\      /  F ield         | OpenFOAM: The Open Source CFD Toolbox
   \\    /   O peration     | Website:  https://openfoam.org
    \\  /    A nd           | Version:  7
     \\/     M anipulation  |
\*---------------------------------------------------------------------------*/
FoamFile
{
    version     2.0;
    format      ascii;
    class       surfaceScalarField;
    location    "87";
    object      phi;
}
// * * * * * * * * * * * * * * * * * * * * * * * * * * * * * * * * * * * * * //

dimensions      [0 3 -1 0 0 0 0];

internalField   nonuniform List<scalar> 
3880
(
-1.90577e-05
-0.000495049
0.000514107
-1.80654e-05
-0.00119407
0.00119308
1.4483e-05
-0.00160519
0.00157264
8.43545e-05
-0.0017694
0.00169952
0.00019711
-0.00171434
0.00160159
0.000359376
-0.001459
0.00129674
0.000578326
-0.001017
0.000798048
0.000859756
-0.000399704
0.000118274
0.00120553
0.000381181
-0.000726951
0.0013123
0.00161074
-0.00171751
-7.65705e-06
-0.000487392
1.64419e-05
-0.00121817
7.83814e-05
-0.00166713
0.000180388
-0.0018714
0.000325519
-0.00185947
0.000519
-0.00165248
0.000767608
-0.00126561
0.0010778
-0.000709898
0.00145303
5.95409e-06
0.000874472
0.00189085
8.13262e-06
-0.000495525
6.2912e-05
-0.00127295
0.000164192
-0.00176841
0.000309687
-0.0020169
0.000499296
-0.00204908
0.000736083
-0.00188927
0.00102569
-0.00155521
0.0013746
-0.00105881
0.00178782
-0.000407268
0.000397057
0.00226524
2.74358e-05
-0.000522961
0.000119785
-0.0013653
0.000269005
-0.00191763
0.000467962
-0.00221586
0.000713062
-0.00229418
0.0010048
-0.00218101
0.00134718
-0.00189759
0.0017462
-0.00145783
0.00220764
-0.000868705
-0.000129295
0.00273399
4.97958e-05
-0.000572756
0.000184584
-0.00150009
0.000387881
-0.00212093
0.000647425
-0.0024754
0.00095608
-0.00260284
0.00131175
-0.00253667
0.00171667
-0.00230252
0.00217602
-0.00191718
0.00269579
-0.00138848
-0.000713924
0.00328042
7.40772e-05
-0.000646834
0.000253839
-0.00167985
0.00051388
-0.00238097
0.000836777
-0.0027983
0.00121206
-0.00297812
0.00163532
-0.00295994
0.0021073
-0.0027745
0.00263243
-0.00244231
0.00321671
-0.00197276
-0.00136247
0.00386525
9.89505e-05
-0.000745784
0.000323287
-0.00190418
0.000638405
-0.00269609
0.00102182
-0.00318171
0.00146005
-0.00341635
0.00194682
-0.00344671
0.00248188
-0.00330955
0.00306951
-0.00302994
0.00371606
-0.00261931
-0.00207266
0.00442625
0.000122925
-0.000868709
0.000388147
-0.00216941
0.000751829
-0.00305977
0.00118663
-0.00361652
0.00167641
-0.00390613
0.00221345
-0.00398375
0.00279694
-0.00389304
0.00343184
-0.00366483
0.00412639
-0.00331386
-0.00283123
0.00488497
0.00014443
-0.00101314
0.000443441
-0.00246842
0.00084428
-0.00346061
0.00131514
-0.00408738
0.00183762
-0.00442861
0.00240283
-0.00454896
0.00300947
-0.00449968
0.00366324
-0.00431861
0.0043764
-0.00402702
-0.003615
0.00516016
0.000161901
-0.00117504
0.000484346
-0.00279086
0.000906479
-0.00388274
0.00139278
-0.00457368
0.00192325
-0.00495908
0.00248822
-0.00511393
0.00308563
-0.00509709
0.00372037
-0.00495335
0.00440771
-0.00471435
0.00519075
-0.00439804
0.00285428
0.0134582
-0.0147017
0.004218
0.0327505
-0.0341142
0.00481674
0.0532978
-0.0538965
0.00473432
0.0723037
-0.0722213
0.00422414
0.0909196
-0.0904094
0.00343241
0.110545
-0.109754
0.00245723
0.132851
-0.131876
0.00132852
0.163025
-0.161896
0.000390677
0.208568
-0.20763
0.263074
-0.262683
0.0031702
0.0121788
0.00478589
0.0311348
0.00567247
0.0524112
0.00578216
0.072194
0.00536428
0.0913375
0.00457946
0.11133
0.00353708
0.133894
0.00227087
0.164291
0.000983538
0.209856
0.264057
0.00351099
0.0109331
0.00532211
0.0293237
0.00650147
0.0512318
0.0068197
0.0718758
0.00650463
0.0916526
0.00573061
0.112104
0.00462048
0.135004
0.00320925
0.165703
0.00158265
0.211482
0.26564
0.00388279
0.00978427
0.00581295
0.0273935
0.0072796
0.0497652
0.00782302
0.0713323
0.00762496
0.0918506
0.00686849
0.112861
0.0056943
0.136178
0.00413847
0.167258
0.00217507
0.213446
0.267815
0.00428891
0.00877578
0.00625112
0.0254313
0.00798492
0.0480314
0.00876895
0.0705483
0.00870506
0.0919145
0.00797726
0.113588
0.00674559
0.13741
0.00504859
0.168955
0.00275548
0.215739
0.27057
0.00472208
0.00791895
0.00663466
0.0235188
0.00859933
0.0460667
0.00963573
0.0695119
0.00972545
0.0918248
0.00904019
0.114274
0.00776062
0.138689
0.00592876
0.170787
0.00331663
0.218351
0.273887
0.00515721
0.00718798
0.00696207
0.0217139
0.00910976
0.043919
0.0104041
0.0682176
0.0106691
0.0915598
0.0100443
0.114898
0.00873021
0.140003
0.00677318
0.172744
0.00385782
0.221266
0.277745
0.00554305
0.0065299
0.00722362
0.0200333
0.00950622
0.0416364
0.0110573
0.0666665
0.0115157
0.0911014
0.010968
0.115446
0.00963373
0.141338
0.00756554
0.174812
0.00436661
0.224465
0.282111
0.00579996
0.0058901
0.00739091
0.0184424
0.00977405
0.0392533
0.0115863
0.0648542
0.0122709
0.0904168
0.0118258
0.115891
0.0104887
0.142675
0.00831835
0.176983
0.00485247
0.227931
0.286964
0.00589098
0.00518987
0.00750037
0.016833
0.00993499
0.0368186
0.0119544
0.0628348
0.0128613
0.0895099
0.0125414
0.116211
0.0112474
0.143969
0.00898006
0.17925
0.00532028
0.231591
0.292284
0.0186474
0.00948934
-0.0229469
0.0143907
0.0210897
0.0122587
0.0389507
0.0111309
0.0639625
0.00972992
0.0909109
0.00781801
0.118123
0.00532347
0.146463
0.00236769
0.182206
4.04432e-05
0.233918
0.292325
0.0194643
0.0124884
-0.0224634
0.0152762
0.0252778
0.0123219
0.041905
0.0107726
0.0655119
0.00932847
0.092355
0.00744169
0.12001
0.00498385
0.148921
0.00216032
0.185029
-1.37905e-05
0.236092
0.292311
0.0190217
0.0140511
-0.0205843
0.0157346
0.0285649
0.0125653
0.0450742
0.0105297
0.0675475
0.00887255
0.0940121
0.00699422
0.121888
0.00463988
0.151276
0.00195296
0.187716
-7.17513e-05
0.238117
0.292239
0.0176828
0.01466
-0.0182917
0.0153508
0.030897
0.0125416
0.0478834
0.0103552
0.0697339
0.00853955
0.0958278
0.00663924
0.123788
0.0043637
0.153551
0.00184254
0.190238
-4.31589e-05
0.240003
0.292196
0.015976
0.0145891
-0.0159051
0.0144366
0.0324364
0.0121308
0.0501892
0.0100514
0.0718133
0.00822511
0.0976541
0.0063286
0.125685
0.00411142
0.155768
0.00169849
0.19265
-7.58078e-05
0.241777
0.29212
0.0140749
0.0139377
-0.0134235
0.0132145
0.0332968
0.0114025
0.0520012
0.00957085
0.0736449
0.00787432
0.0993506
0.00606688
0.127492
0.0039426
0.157893
0.00165799
0.194935
-1.86509e-05
0.243454
0.292102
0.0121319
0.0127449
-0.0109391
0.0119304
0.0334983
0.0106246
0.053307
0.00903521
0.0752343
0.00747042
0.100915
0.00576816
0.129195
0.00374643
0.159914
0.00155004
0.197132
-4.45987e-05
0.245048
0.292057
0.0101501
0.0110549
-0.00846004
0.0104952
0.0331532
0.00970211
0.0541
0.00847261
0.0764638
0.00710708
0.102281
0.00553779
0.130764
0.00362335
0.161829
0.00155735
0.199198
3.51719e-05
0.24657
0.292092
0.00861555
0.00868922
-0.00624988
0.00956291
0.0322058
0.00912904
0.0545339
0.00806712
0.0775258
0.00679704
0.103551
0.00531542
0.132246
0.00347813
0.163666
0.0014803
0.201195
2.06656e-05
0.24803
0.292113
0.00623202
-0.0035024
0.0080863
0.00845675
0.00780091
0.00669997
0.00525717
0.00350239
0.00154054
0.000140652
0.00506496
-0.0231342
-0.00487772
0.00463012
-0.0220286
0.00389971
-0.0198539
0.00309097
-0.017483
0.00225897
-0.0150731
0.0014223
-0.0125868
0.000584891
-0.0101017
-0.000222028
-0.00765312
-0.00112769
-0.00534422
-0.00277297
0.004172
-0.0229692
-0.00433698
0.00349986
-0.0213564
0.00264891
-0.019003
0.00176648
-0.0166005
0.000881547
-0.0141882
5.38811e-06
-0.0117107
-0.000857857
-0.00923846
-0.00169158
-0.0068194
-0.00255856
-0.00447724
-0.00210512
0.00313176
-0.0225115
-0.00358946
0.00226156
-0.0204862
0.00131679
-0.0180582
0.00037475
-0.0156585
-0.000545067
-0.0132684
-0.00143838
-0.0108174
-0.00230335
-0.00837349
-0.00312446
-0.00599828
-0.00391967
-0.00368203
-0.00152864
0.00194213
-0.0218173
-0.00263627
0.000929374
-0.0194735
-8.02248e-05
-0.0170486
-0.00105385
-0.0146849
-0.0019895
-0.0123327
-0.0028787
-0.00992815
-0.00371809
-0.0075341
-0.00449382
-0.00522256
-0.00519207
-0.00298378
-0.00105909
0.000619867
-0.0209315
-0.00150574
-0.000481028
-0.0183726
-0.00151635
-0.0160133
-0.00250157
-0.0136997
-0.00342545
-0.0114088
-0.00428458
-0.00906902
-0.00507323
-0.00674545
-0.00577648
-0.00451931
-0.00636206
-0.0023982
-0.000699865
-0.000788537
-0.0199057
-0.000237248
-0.00193615
-0.017225
-0.00297044
-0.014979
-0.00393557
-0.0127345
-0.00482254
-0.0105219
-0.00562806
-0.0082635
-0.00634461
-0.0060289
-0.00695599
-0.00390792
-0.00742324
-0.00193096
-0.000446226
-0.00224148
-0.0187615
0.00109729
-0.00339233
-0.0160741
-0.00439916
-0.0139721
-0.00532095
-0.0118127
-0.00615019
-0.00969263
-0.00688355
-0.00753014
-0.00751316
-0.0053993
-0.00802246
-0.00339862
-0.00837453
-0.00157888
-0.0002877
-0.00368062
-0.0175466
0.00246576
-0.00480471
-0.01495
-0.00576438
-0.0130125
-0.00662472
-0.0109524
-0.00738142
-0.00893593
-0.00803068
-0.00688088
-0.00856611
-0.00486386
-0.00897209
-0.00299265
-0.00921909
-0.00133188
-0.000210236
-0.00505779
-0.0163006
0.0038118
-0.00613315
-0.0138747
-0.00703233
-0.0121133
-0.00781922
-0.0101655
-0.00849532
-0.00825984
-0.00905567
-0.00632053
-0.00949723
-0.00442231
-0.00980627
-0.0026836
-0.00996312
-0.00117504
-0.000197962
-0.00633202
-0.0150576
0.00508905
-0.00734467
-0.012862
-0.00817639
-0.0112816
-0.00888407
-0.00945785
-0.00947814
-0.00766576
-0.00995155
-0.00584711
-0.0103061
-0.00406779
-0.0105304
-0.0024593
-0.0106147
-0.00109065
-0.000234422
-0.00747219
-0.0138448
0.00625932
-0.00841486
-0.0119193
-0.00917819
-0.0105182
-0.00980663
-0.00882941
-0.0103233
-0.00714913
-0.0107175
-0.00545289
-0.0109968
-0.00378843
-0.0111524
-0.00230378
-0.0111831
-0.00105991
-0.000303343
-0.00846234
-0.0126816
0.00729917
-0.00933083
-0.0110509
-0.0100292
-0.00981986
-0.010583
-0.00827563
-0.0110311
-0.00670107
-0.011358
-0.00512596
-0.0115773
-0.00356916
-0.0116819
-0.00219917
-0.0116777
-0.00106411
-0.000389022
-0.00929237
-0.0115809
0.00819171
-0.010086
-0.0102572
-0.0107267
-0.00917919
-0.0112145
-0.00778782
-0.0116061
-0.00630947
-0.0118807
-0.0048514
-0.0120568
-0.00339306
-0.012129
-0.00212689
-0.0121079
-0.00108526
-0.000476493
-0.00996152
-0.0105484
0.00892896
-0.010682
-0.00953668
-0.0112745
-0.00858675
-0.0117079
-0.00735436
-0.0120569
-0.00596055
-0.0122956
-0.00461266
-0.012446
-0.00324268
-0.0125042
-0.00206867
-0.012483
-0.00110649
-0.000551553
-0.0104755
-0.00958135
0.00950846
-0.0111262
-0.00888594
-0.0116806
-0.00803239
-0.0120735
-0.00696143
-0.012394
-0.00564005
-0.012614
-0.00439266
-0.0127558
-0.00310089
-0.0128174
-0.00200712
-0.0128118
-0.00111212
-0.000600687
-0.010844
-0.00866795
0.00993064
-0.0114306
-0.00829941
-0.0119559
-0.00750702
-0.0123235
-0.00659383
-0.0126294
-0.00533419
-0.0128475
-0.00417459
-0.012997
-0.00295139
-0.0130782
-0.00192589
-0.0131028
-0.00108755
-0.000610969
-0.0110781
-0.00778624
0.0101964
-0.01161
-0.00776753
-0.0121126
-0.0070044
-0.0124708
-0.00623564
-0.0127749
-0.00503006
-0.0130071
-0.00394245
-0.0131795
-0.00277894
-0.0132957
-0.00180977
-0.0133641
-0.00101911
-0.00056993
-0.0111813
-0.00691145
0.0103065
-0.0116762
-0.0072727
-0.0121605
-0.00652009
-0.0125262
-0.00586994
-0.0128413
-0.00471493
-0.0131028
-0.00368093
-0.0133127
-0.00256904
-0.0134781
-0.00164438
-0.0136035
-0.000893685
-0.000465412
-0.0111504
-0.00603008
0.010269
-0.0116403
-0.00678278
-0.0121102
-0.00605013
-0.0125001
-0.00548007
-0.0128389
-0.00437617
-0.0131441
-0.00337572
-0.0134051
-0.00230801
-0.0136333
-0.00141618
-0.0138284
-0.000698635
-0.000285354
-0.0110308
-0.00512428
0.010125
-0.0115473
-0.00626625
-0.0119903
-0.00560711
-0.0124066
-0.00506378
-0.0127783
-0.00400445
-0.0131377
-0.00301636
-0.0134635
-0.00198221
-0.0137679
-0.00111173
-0.0140467
-0.000419898
-1.8371e-05
-0.0492377
-0.00495307
0.0490665
-0.0504423
-0.00506164
-0.051737
-0.00431244
-0.0530247
-0.00377608
-0.0540967
-0.00293245
-0.0549314
-0.00218167
-0.0554971
-0.00141652
-0.0558158
-0.000792987
-0.0559349
-0.000300841
-2.25985e-05
-0.0583097
-0.00493556
0.0582922
-0.0590591
-0.00431227
-0.0597898
-0.00358174
-0.0606002
-0.00296567
-0.061268
-0.00226468
-0.061791
-0.00165861
-0.0621361
-0.00107146
-0.062319
-0.000610105
-0.0623785
-0.000241253
-2.78686e-05
-0.0695288
-0.00502814
0.0696213
-0.0698877
-0.0039533
-0.0702653
-0.0032042
-0.0707459
-0.00248507
-0.0711273
-0.00188322
-0.0714492
-0.00133674
-0.0716441
-0.000876594
-0.0717484
-0.000505823
-0.0717702
-0.000219384
-3.083e-05
-0.083413
-0.00508302
0.0834679
-0.0836302
-0.00373603
-0.0838348
-0.00299967
-0.0841369
-0.00218296
-0.0843552
-0.0016649
-0.0845632
-0.00112879
-0.0846742
-0.000765601
-0.0847449
-0.00043504
-0.0847533
-0.000210988
-2.86948e-05
-0.0999657
-0.00491895
0.0998016
-0.100213
-0.00348902
-0.10041
-0.00280216
-0.100659
-0.00193463
-0.100827
-0.00149653
-0.100997
-0.000958329
-0.101088
-0.000675501
-0.101164
-0.000358749
-0.101186
-0.000189224
-1.479e-05
-0.118114
-0.00444495
0.11764
-0.118507
-0.00309547
-0.11882
-0.00248919
-0.119101
-0.00165416
-0.119303
-0.00129399
-0.119483
-0.000778778
-0.119596
-0.000562352
-0.119699
-0.000256028
-0.119748
-0.000140151
7.53486e-06
-0.135834
-0.00364252
0.135032
-0.136419
-0.00251043
-0.136892
-0.00201583
-0.137241
-0.00130554
-0.137511
-0.00102419
-0.137711
-0.000578677
-0.137858
-0.000415051
-0.137972
-0.000142706
-0.138037
-7.47616e-05
2.83104e-05
-0.150814
-0.00257237
0.149744
-0.151567
-0.00175733
-0.152176
-0.00140701
-0.152585
-0.000896162
-0.152909
-0.000701094
-0.153114
-0.000373323
-0.15327
-0.00025877
-0.153359
-5.35184e-05
-0.153413
-2.15008e-05
3.43148e-05
-0.161362
-0.0013287
0.160119
-0.162221
-0.000898514
-0.16291
-0.000718713
-0.163353
-0.000452657
-0.1637
-0.000353915
-0.163893
-0.000180295
-0.164031
-0.000120658
-0.164076
-9.32137e-06
-0.164097
-1.98655e-07
2.30244e-05
-0.16674
0.165412
-0.167639
-0.168358
-0.16881
-0.169164
-0.169344
-0.169465
-0.169474
-0.169475
-0.0113063
0.0500692
0.0103036
-0.0120355
0.0590214
-0.0126281
0.070214
-0.0129439
0.0837836
-0.0127612
0.099619
-0.011823
0.116702
-0.00996756
0.133176
-0.00722285
0.146999
-0.00379738
0.156693
0.161614
-0.0107297
0.0508291
0.00996978
-0.0114096
0.0597013
-0.0119326
0.0707371
-0.0121626
0.0840136
-0.0119065
0.099363
-0.0109477
0.115743
-0.00916511
0.131394
-0.00660437
0.144439
-0.00345925
0.153548
0.158155
-0.0101802
0.0515315
0.00947789
-0.0107949
0.0603159
-0.0112395
0.0711816
-0.0113939
0.0841679
-0.0110877
0.0990568
-0.0101368
0.114792
-0.00844621
0.129703
-0.00606554
0.142058
-0.00317043
0.150653
0.154985
-0.00953822
0.0522094
0.00886026
-0.0100919
0.0608696
-0.010455
0.0715447
-0.010536
0.084249
-0.0101889
0.0987096
-0.00926057
0.113864
-0.00767894
0.128121
-0.00549525
0.139874
-0.00286617
0.148024
0.152118
-0.00878809
0.0528543
0.00814322
-0.00928318
0.0613647
-0.00957291
0.0718345
-0.0095926
0.0842687
-0.00922042
0.0983374
-0.00833234
0.112976
-0.00687598
0.126665
-0.0049028
0.137901
-0.00255118
0.145672
0.149567
-0.00794869
0.053456
0.007347
-0.00837866
0.0617947
-0.00859876
0.0720546
-0.00856803
0.0842379
-0.00818676
0.0979562
-0.00735708
0.112146
-0.00604263
0.125351
-0.00429294
0.136151
-0.00222831
0.143608
0.147339
-0.00703778
0.0540059
0.00648789
-0.00739791
0.0621548
-0.00754993
0.0722066
-0.00747678
0.0841648
-0.00709925
0.0975786
-0.00634321
0.11139
-0.00518488
0.124192
-0.00366975
0.134636
-0.00189973
0.141838
0.145439
-0.0060699
0.0544936
0.00558224
-0.00635925
0.0624441
-0.00644577
0.0722931
-0.00633731
0.0840563
-0.00597381
0.0972151
-0.00530304
0.110719
-0.00431126
0.1232
-0.00303842
0.133363
-0.00156793
0.140367
0.143871
-0.0050613
0.0549074
0.00464751
-0.00528104
0.0626639
-0.00530512
0.0723172
-0.00516801
0.0839192
-0.00482681
0.0968739
-0.00424989
0.110142
-0.00343142
0.122382
-0.00240497
0.132337
-0.0012358
0.139198
0.142636
-0.00402948
0.0552348
0.003702
-0.00418318
0.0628176
-0.00414678
0.0722808
-0.00398684
0.0837593
-0.0036739
0.096561
-0.00319652
0.109665
-0.00255485
0.12174
-0.00177556
0.131558
-0.000906438
0.138329
0.141729
-0.0030024
0.0554686
0.0027686
-0.00309032
0.0629055
-0.0029942
0.0721847
-0.00281525
0.0835803
-0.00253337
0.0962791
-0.00215784
0.109289
-0.00169284
0.121275
-0.00115752
0.131022
-0.000583537
0.137755
0.141146
-0.00200009
0.055611
0.0018577
-0.00201707
0.0629225
-0.00186716
0.0720348
-0.0016694
0.0833826
-0.00141947
0.0960292
-0.00114375
0.109014
-0.000851799
0.120983
-0.000556207
0.130727
-0.000269487
0.137468
0.140876
-0.00105358
0.0556766
0.000988027
-0.000989116
0.062858
-0.000797171
0.0718428
-0.000579928
0.0831653
-0.000364581
0.0958138
-0.000186052
0.108835
-6.19258e-05
0.120859
9.21822e-07
0.130664
2.33013e-05
0.137446
0.140899
-0.000197775
0.05571
0.00016434
-4.17188e-05
0.0627019
0.000194234
0.0716069
0.000451506
0.0829081
0.000649102
0.0956162
0.000745566
0.108739
0.000717457
0.120887
0.00056586
0.130815
0.000314955
0.137697
0.141214
0.00064822
0.0556598
-0.000597991
0.000886638
0.0624635
0.00116779
0.0713257
0.00143639
0.0826395
0.00160739
0.0954452
0.00161972
0.108726
0.00144335
0.121064
0.00108454
0.131174
0.000584829
0.138196
0.141799
0.0014189
0.0555448
-0.00130394
0.00172259
0.0621598
0.00204327
0.071005
0.00233256
0.0823502
0.00248448
0.0952933
0.00242382
0.108787
0.00211295
0.121375
0.00156351
0.131724
0.000833194
0.138927
0.142632
0.00210272
0.0553964
-0.00195429
0.0024718
0.0617907
0.00282746
0.0706494
0.00313798
0.0820397
0.00327722
0.0951541
0.00315503
0.108909
0.00272451
0.121805
0.00200171
0.132447
0.00105965
0.139869
0.143692
0.00270885
0.0552456
-0.00255804
0.00313275
0.0613668
0.00351656
0.0702656
0.00384391
0.0817123
0.0039729
0.0950251
0.00379842
0.109084
0.00326364
0.12234
0.00238782
0.133322
0.00125793
0.140999
0.14495
0.00325324
0.0551239
-0.00313155
0.00371534
0.0609047
0.00412651
0.0698544
0.00447135
0.0813675
0.00459703
0.0948994
0.00438065
0.1093
0.00375361
0.122967
0.00273826
0.134338
0.00143656
0.1423
0.146386
0.00365645
0.0551371
-0.00366962
0.00411538
0.0604458
0.00455155
0.0694182
0.00490472
0.0810143
0.00502736
0.0947768
0.00478473
0.109543
0.00409635
0.123655
0.00298362
0.13545
0.00155839
0.143726
0.147945
-0.0364299
0.0508047
0.0407622
-0.0330761
0.057092
-0.0308555
0.0671977
-0.0285061
0.0786649
-0.0256794
0.0919501
-0.0220554
0.105919
-0.0175156
0.119116
-0.01216
0.130095
-0.00622224
0.137788
0.141723
-0.044622
0.0470305
0.0483962
-0.0415445
0.0540146
-0.0387525
0.0644056
-0.0355533
0.0754657
-0.0318207
0.0882175
-0.0271498
0.101248
-0.021455
0.113421
-0.0148587
0.123498
-0.00762512
0.130554
0.134098
-0.0538693
0.043455
0.0574448
-0.0507268
0.0508721
-0.0472874
0.0609662
-0.0432288
0.0714072
-0.0384164
0.0834051
-0.0324623
0.0952935
-0.0254262
0.106385
-0.017466
0.115538
-0.00885217
0.121941
0.125245
-0.0649962
0.0400285
0.0684227
-0.0613655
0.0472414
-0.0571101
0.0567108
-0.052074
0.0663711
-0.046013
0.0773441
-0.0385994
0.0878799
-0.0300459
0.0978311
-0.0205609
0.106053
-0.0104805
0.11186
0.114765
-0.0774314
0.0360546
0.0814054
-0.0729843
0.0427942
-0.0676586
0.0513851
-0.0612526
0.0599651
-0.0535126
0.0696041
-0.0443121
0.0786794
-0.0340298
0.0875488
-0.0229011
0.0949246
-0.0113672
0.100326
0.103398
-0.0917062
0.0320712
0.0956895
-0.0861424
0.0372304
-0.0795451
0.0447878
-0.0715494
0.0519693
-0.0620484
0.0601032
-0.0511113
0.0677422
-0.0390633
0.0755009
-0.026207
0.0820682
-0.0132592
0.0873784
0.0901385
-0.105299
0.0262258
0.111144
-0.0985306
0.0304623
-0.0903689
0.0366261
-0.0803198
0.0419203
-0.0687078
0.0484911
-0.055548
0.0545824
-0.041195
0.0611479
-0.0261655
0.0670387
-0.0117041
0.072917
0.0784344
-0.119717
0.0205009
0.125442
-0.111816
0.0225613
-0.102291
0.0271018
-0.0909148
0.0305436
-0.0780412
0.0356176
-0.0634866
0.0400277
-0.0477758
0.0454371
-0.031463
0.0507259
-0.016595
0.0580491
0.0618394
-0.133961
0.00997222
0.14449
-0.122759
0.0113593
-0.109478
0.0138213
-0.0945864
0.0156516
-0.0775145
0.0185456
-0.058608
0.0211212
-0.0378057
0.0246347
-0.0160386
0.0289588
0.00415055
0.0378599
0.06599
-0.237943
0.247915
-0.226583
-0.212762
-0.19711
-0.178565
-0.157443
-0.132809
-0.10385
-0.06599
0.00195384
0.0422008
-0.00339241
0.000667356
0.0496827
-0.000316243
0.0584284
-0.000981635
0.0690881
-0.00138649
0.0818102
-0.00153297
0.095836
-0.00130777
0.110919
-0.000978594
0.125112
-0.00169023
0.145201
0.246225
0.00229855
0.0435975
-0.00369521
0.00104131
0.0509399
2.57892e-05
0.0594439
-0.00065735
0.0697713
-0.0011027
0.0822556
-0.00128066
0.0960139
-0.00113295
0.110771
-0.000855214
0.124835
-0.0014907
0.145837
0.244734
0.00271364
0.0448938
-0.00400998
0.00149529
0.0521583
0.000528716
0.0604105
-0.000211969
0.070512
-0.000668523
0.0827121
-0.000887927
0.0962334
-0.000805172
0.110689
-0.000634945
0.124664
-0.00128981
0.146492
0.243444
0.00313156
0.0460909
-0.00432871
0.00195848
0.0533314
0.00102425
0.0613447
0.000290062
0.0712461
-0.000177836
0.08318
-0.000439645
0.0964952
-0.000400569
0.11065
-0.000362879
0.124627
-0.00103195
0.147161
0.242412
0.00354369
0.0471856
-0.00463834
0.00243432
0.0544407
0.00154193
0.0622371
0.000844007
0.0719441
0.000369426
0.0836546
3.6782e-05
0.0968278
6.25719e-05
0.110624
-5.77488e-05
0.124747
-0.000728564
0.147831
0.241684
0.00396337
0.0481506
-0.00492838
0.00293975
0.0554644
0.00209735
0.0630795
0.00143563
0.0726058
0.000970962
0.0841193
0.000651887
0.0971469
0.000548474
0.110727
0.000368663
0.124927
-0.00038441
0.148584
0.241299
0.00438976
0.0489524
-0.00519158
0.00347294
0.0563812
0.00269008
0.0638623
0.00207002
0.0732258
0.00161626
0.084573
0.00128236
0.0974808
0.00109494
0.110915
0.00082176
0.1252
9.76455e-06
0.149396
0.241309
0.0048174
0.0495565
-0.0054215
0.00402452
0.0571741
0.0033113
0.0645756
0.00273947
0.0737977
0.0023002
0.0850123
0.00195015
0.0978308
0.00168347
0.111181
0.00130469
0.125579
0.000379217
0.150322
0.241688
0.00523774
0.0499297
-0.00561089
0.00458384
0.057828
0.00395048
0.0652089
0.00343336
0.0743148
0.00301473
0.085431
0.00264932
0.0981962
0.00230503
0.111526
0.00181782
0.126066
0.000793177
0.151347
0.242481
0.0056383
0.050043
-0.00575165
0.00513898
0.0583273
0.00459654
0.0657514
0.0041405
0.0747708
0.00374989
0.0858216
0.00336973
0.0985764
0.00295134
0.111944
0.00235568
0.126662
0.00122818
0.152474
0.243709
0.00600131
0.0498749
-0.00583318
0.00567283
0.0586557
0.00523416
0.06619
0.00484479
0.0751602
0.00448849
0.0861779
0.00409718
0.0989677
0.00361023
0.112431
0.00290849
0.127363
0.00167477
0.153708
0.245384
0.00631888
0.0494139
-0.00585788
0.00617807
0.0587966
0.00585518
0.0665129
0.00553874
0.0754766
0.00522267
0.0864939
0.00482585
0.0993645
0.0042762
0.112981
0.003472
0.128168
0.00212992
0.15505
0.247514
0.00657366
0.048663
-0.00582277
0.00663661
0.0587336
0.00643973
0.0667098
0.00620317
0.0757132
0.00593383
0.0867633
0.00553957
0.0997588
0.00493519
0.113585
0.0040355
0.129067
0.00258651
0.156499
0.250101
0.00675454
0.0476412
-0.00573274
0.00703381
0.0584543
0.0069723
0.0667713
0.00682246
0.075863
0.00660692
0.0869788
0.00622473
0.100141
0.00557558
0.114234
0.00459021
0.130053
0.00303807
0.158051
0.253139
0.00685394
0.0463851
-0.00559788
0.00735712
0.0579512
0.00743866
0.0666898
0.00738173
0.07592
0.00722764
0.0871329
0.00686788
0.100501
0.0061862
0.114916
0.00512763
0.131111
0.00347862
0.1597
0.256617
0.00687002
0.044949
-0.00543383
0.00759699
0.0572242
0.0078263
0.0664605
0.00786745
0.0758788
0.00778272
0.0872176
0.00745563
0.100828
0.00675549
0.115616
0.0056389
0.132228
0.00389989
0.161439
0.260517
0.00680963
0.043399
-0.00525971
0.00774795
0.0562859
0.00812533
0.0660831
0.0082689
0.0757352
0.00826058
0.087226
0.00797789
0.101111
0.00727554
0.116318
0.00611844
0.133385
0.00429752
0.16326
0.264815
0.00668816
0.0418007
-0.00508985
0.00780829
0.0551657
0.00832972
0.0655617
0.00857569
0.0754893
0.00864692
0.0871547
0.00841806
0.101339
0.00772937
0.117007
0.00655355
0.134561
0.00465823
0.165155
0.269473
0.00650626
0.0401981
-0.0049036
0.00777565
0.0538963
0.00844537
0.0648919
0.00879781
0.0751368
0.00895455
0.086998
0.00879111
0.101503
0.00813004
0.117668
0.00695453
0.135736
0.00498794
0.167122
0.274461
0.00623347
0.0385445
-0.00457994
0.00757111
0.0525587
0.00838376
0.0640793
0.00883872
0.0746819
0.00908667
0.08675
0.00899963
0.10159
0.00840069
0.118267
0.00724838
0.136889
0.00528112
0.169089
0.279742
-0.0172006
0.0384569
0.0172883
-0.0153233
0.0506814
-0.0127266
0.0614825
-0.00977094
0.0717262
-0.00672082
0.0836999
-0.00345864
0.0983277
-8.19121e-05
0.11489
0.00239442
0.134412
0.00181699
0.169667
0.281559
-0.0302288
0.0370378
0.0316479
-0.027486
0.0479386
-0.0236329
0.0576295
-0.0192678
0.0673611
-0.0146746
0.0791067
-0.00968764
0.0933407
-0.00454932
0.109752
-0.000420847
0.130284
0.000515062
0.168731
0.282074
-0.0444522
0.0347754
0.0467146
-0.0405793
0.0440657
-0.0353491
0.0523992
-0.0296034
0.0616154
-0.0234524
0.0729557
-0.0166052
0.0864935
-0.00943172
0.102578
-0.00332558
0.124178
-0.000772702
0.166178
0.281301
-0.0599186
0.0316268
0.0630672
-0.0546388
0.0387859
-0.0482314
0.0459918
-0.041224
0.0546079
-0.0333807
0.0651124
-0.0244799
0.0775927
-0.0151436
0.0932421
-0.00694521
0.115979
-0.00241008
0.161643
0.278891
-0.0768563
0.0270906
0.0813926
-0.0703721
0.0323017
-0.0631464
0.0387661
-0.054765
0.0462266
-0.0450486
0.055396
-0.0340462
0.0665903
-0.022503
0.081699
-0.0119636
0.10544
-0.00479115
0.15447
0.2741
-0.0959301
0.0219794
0.101041
-0.0885791
0.0249507
-0.0803788
0.0305658
-0.0704008
0.0362486
-0.0589293
0.0439245
-0.0460157
0.0536767
-0.0324956
0.0681789
-0.0195635
0.0925078
-0.00913071
0.144037
0.26497
-0.117899
0.0151856
0.124693
-0.110094
0.0171458
-0.101116
0.0215877
-0.0902231
0.0253553
-0.0779397
0.0316412
-0.0638852
0.0396222
-0.0488837
0.0531774
-0.0334402
0.0770643
-0.0180608
0.128658
0.246909
-0.148664
0.00819461
0.155655
-0.140425
0.00890626
-0.130749
0.0119123
-0.119529
0.0141352
-0.10678
0.0188917
-0.0923057
0.0251481
-0.0763566
0.0372283
-0.0587198
0.0594274
-0.0361302
0.106068
0.210779
-0.205639
0.00208333
0.21175
-0.199292
0.00255912
-0.191268
0.00388807
-0.182419
0.00528601
-0.171599
0.00807161
-0.158777
0.0123262
-0.141984
0.0204356
-0.117699
0.0351423
-0.0761827
0.0645523
0.134596
-0.286857
0.28894
-0.284298
-0.28041
-0.275124
-0.267052
-0.254726
-0.23429
-0.199148
-0.134596
0.0021505
0.018119
-0.00298124
0.000609083
0.0331893
-0.000979835
0.0483035
-0.00240201
0.0644894
-0.00355646
0.082547
-0.0045116
0.101997
-0.00512374
0.125305
-0.00558203
0.156114
-0.00459751
0.210766
0.284343
0.00189094
0.0186176
-0.00238956
0.000648059
0.0344322
-0.000798358
0.0497499
-0.00216525
0.0658563
-0.00331151
0.0836933
-0.00425365
0.102939
-0.00488008
0.125932
-0.00535601
0.15659
-0.00428069
0.209691
0.280062
0.00173113
0.0188541
-0.0019676
0.000775035
0.0353883
-0.000495239
0.0510202
-0.00174985
0.0671109
-0.00284242
0.0847858
-0.00375504
0.103851
-0.00440844
0.126585
-0.00485624
0.157037
-0.00391347
0.208748
0.276149
0.00165364
0.0188685
-0.00166804
0.000970569
0.0360713
-0.000125874
0.0521166
-0.00124569
0.0682307
-0.00226284
0.085803
-0.00315079
0.104739
-0.00382128
0.127256
-0.00428433
0.1575
-0.00349328
0.207957
0.272655
0.00165306
0.0186734
-0.00145792
0.00124469
0.0364797
0.000362272
0.0529991
-0.000657198
0.0692502
-0.00159665
0.0867424
-0.00245856
0.105601
-0.0031501
0.127947
-0.00364791
0.157998
-0.0030269
0.207336
0.269629
0.00172539
0.0182694
-0.00132144
0.00160042
0.0366047
0.00094014
0.0536593
-9.6871e-07
0.0701913
-0.000831275
0.0875727
-0.0016751
0.106445
-0.00239313
0.128665
-0.0029461
0.158551
-0.00252145
0.206911
0.267107
0.00186311
0.0176571
-0.00125078
0.00203105
0.0364367
0.00160153
0.0540889
0.000853242
0.0709396
3.42004e-05
0.0883918
-0.000805787
0.107285
-0.00154554
0.129405
-0.00218269
0.159188
-0.00198319
0.206712
0.265124
0.00205598
0.0168435
-0.00124235
0.00252528
0.0359674
0.00233549
0.0542787
0.0017441
0.071531
0.000995157
0.0891407
0.000133093
0.108147
-0.000605577
0.130144
-0.00136939
0.159952
-0.00141671
0.206759
0.263707
0.00229257
0.0158471
-0.00129621
0.00306779
0.0351922
0.00312742
0.054219
0.00269771
0.0719607
0.00202371
0.0898147
0.0012145
0.108956
0.000390663
0.130967
-0.00052645
0.160869
-0.000824071
0.207056
0.262883
0.00256188
-0.00141647
0.00363988
0.0039624
0.00370184
0.00310713
0.00230978
0.00140106
0.000373884
-0.000200097
0.000174483
-0.00134952
0.000507023
-0.0031234
0.000930322
-0.00430604
0.00140666
-0.00505001
0.0019158
-0.00546823
0.00244856
-0.00564669
0.0030029
-0.00565143
0.00358242
-0.00553286
0.00419813
-0.00533007
-0.00507763
0.000177804
-0.00152733
0.000503968
-0.00344957
0.000906759
-0.00470883
0.00134761
-0.00549086
0.0018074
-0.00592801
0.00227883
-0.00611812
0.0027618
-0.00613439
0.00326067
-0.00603174
0.0037829
-0.0058523
-0.00563171
0.000172782
-0.00170011
0.000475373
-0.00375216
0.000834681
-0.00506814
0.0012135
-0.00586969
0.00159545
-0.00630996
0.00197649
-0.00649916
0.00235958
-0.00651749
0.00275131
-0.00642347
0.00315928
-0.00626027
-0.00606188
0.000158584
-0.00185869
0.000419906
-0.00401348
0.000713317
-0.00536155
0.00100543
-0.0061618
0.00128418
-0.00658871
0.00154967
-0.00676464
0.00180839
-0.0067762
0.00206958
-0.00668467
0.00234276
-0.00653345
-0.0063554
0.000134858
-0.00199355
0.000337795
-0.00421642
0.00054496
-0.00556871
0.000729328
-0.00634617
0.000884476
-0.00674386
0.00101512
-0.00689528
0.00113121
-0.0068923
0.00124429
-0.00679775
0.00136528
-0.00665443
-0.00649585
0.000101787
-0.00209534
0.000230851
-0.00434548
0.000334763
-0.00567263
0.000395233
-0.00640664
0.000412435
-0.00676106
0.000395715
-0.00687856
0.000357961
-0.00685454
0.000312406
-0.00675219
0.000270484
-0.00661251
-0.00646262
6.01281e-05
-0.00215547
0.000102346
-0.0043877
9.02734e-05
-0.00566055
1.62606e-05
-0.00633263
-0.000112443
-0.00663236
-0.000282252
-0.00670876
-0.00047817
-0.00665862
-0.000686566
-0.0065438
-0.000896387
-0.00640269
-0.00626171
1.10907e-05
-0.00216656
-4.31102e-05
-0.0043335
-0.000179207
-0.00552446
-0.000392594
-0.00611924
-0.00066908
-0.00635587
-0.000991616
-0.00638622
-0.00134414
-0.0063061
-0.00171346
-0.00617448
-0.00208958
-0.00602657
-0.00588553
-4.37246e-05
-0.00212283
-0.000200282
-0.00417694
-0.000463409
-0.00526133
-0.000815702
-0.00576695
-0.00123644
-0.00593513
-0.00170606
-0.0059166
-0.00220838
-0.00580378