/*--------------------------------*- C++ -*----------------------------------*\
  =========                 |
  \\      /  F ield         | OpenFOAM: The Open Source CFD Toolbox
   \\    /   O peration     | Website:  https://openfoam.org
    \\  /    A nd           | Version:  7
     \\/     M anipulation  |
\*---------------------------------------------------------------------------*/
FoamFile
{
    version     2.0;
    format      ascii;
    class       volVectorField;
    location    "87";
    object      U;
}
// * * * * * * * * * * * * * * * * * * * * * * * * * * * * * * * * * * * * * //

dimensions      [0 1 -1 0 0 0 0];

internalField   nonuniform List<vector> 
2000
(
(-0.000122541 -0.00503704 -2.13915e-22)
(-5.73785e-06 -0.0119136 0)
(0.000494919 -0.0158471 0)
(0.00132783 -0.0172728 -1.09513e-21)
(0.00244199 -0.0164671 3.55898e-22)
(0.00381236 -0.0136133 1.40135e-23)
(0.00543628 -0.00884298 -6.12667e-22)
(0.00731566 -0.00227489 0)
(0.00944414 0.0059554 0)
(0.0117017 0.0156778 0)
(0.000358269 -0.00487693 0)
(0.0013477 -0.0119367 -8.35507e-22)
(0.00261415 -0.0161106 7.70505e-22)
(0.00397142 -0.017806 1.46301e-21)
(0.00537778 -0.0173072 0)
(0.00682003 -0.0148152 1.33708e-21)
(0.00831273 -0.0104707 -1.24339e-21)
(0.00988245 -0.00438103 0)
(0.0115629 0.00335684 2.28528e-21)
(0.0132472 0.0126312 -4.3999e-21)
(0.000880831 -0.00480025 0)
(0.00290006 -0.0120579 6.66967e-21)
(0.00511932 -0.0164209 0)
(0.00717816 -0.0183188 5.96083e-21)
(0.00904365 -0.0180559 0)
(0.0107145 -0.0158616 -5.37625e-21)
(0.0122219 -0.011895 0)
(0.0136153 -0.0062608 4.87993e-21)
(0.0149696 0.000977393 -4.57036e-21)
(0.016188 0.00975737 -4.4809e-21)
(0.00147801 -0.00483085 -1.73421e-21)
(0.00469518 -0.012303 -3.33093e-21)
(0.00803885 -0.0167906 -1.55932e-21)
(0.0109558 -0.0188063 -2.92842e-21)
(0.0134266 -0.0186879 -2.80093e-21)
(0.0154671 -0.0167023 2.64579e-21)
(0.0171282 -0.0130357 2.5389e-21)
(0.0184819 -0.00779929 -2.63575e-23)
(0.0196427 -0.00103152 4.61199e-21)
(0.0205249 0.00724183 4.47881e-21)
(0.00218675 -0.00498303 -1.70384e-21)
(0.00677637 -0.0126822 -3.3958e-21)
(0.0113895 -0.0172193 -6.44659e-21)
(0.0152852 -0.0192584 2.96632e-21)
(0.0184695 -0.0191842 0)
(0.0209858 -0.0173078 0)
(0.022912 -0.0138481 -5.21231e-21)
(0.0243456 -0.00893079 -4.9452e-21)
(0.0254384 -0.00257667 4.66815e-21)
(0.0261196 0.00521137 1.34739e-20)
(0.00304514 -0.00525722 1.73164e-21)
(0.00917976 -0.0131833 1.76309e-21)
(0.0151683 -0.0176893 -9.55859e-21)
(0.0201133 -0.0196585 1.51841e-20)
(0.0240648 -0.0195336 -2.831e-21)
(0.0271089 -0.0176737 0)
(0.0293623 -0.0143334 0)
(0.0309547 -0.00965644 2.46179e-20)
(0.0320733 -0.00365036 -2.32977e-20)
(0.0326658 0.0036943 4.42626e-21)
(0.00408744 -0.00563723 1.34924e-20)
(0.0119269 -0.0137704 0)
(0.0193458 -0.0181653 1.27762e-20)
(0.0253483 -0.0199824 -1.21196e-20)
(0.0300533 -0.0197315 0)
(0.0336086 -0.0178207 5.50811e-21)
(0.0361843 -0.0145396 -1.54438e-20)
(0.0379529 -0.0100505 -1.96614e-20)
(0.0391367 -0.00434745 9.22578e-21)
(0.0397017 0.0025937 8.9547e-21)
(0.00533878 -0.00609043 -2.69768e-20)
(0.0150171 -0.0143861 -3.43667e-21)
(0.0238606 -0.0185963 -6.4723e-21)
(0.0308596 -0.0202003 -1.52211e-20)
(0.0362311 -0.0197794 -5.82577e-21)
(0.0402058 -0.0177893 -5.49716e-21)
(0.0430232 -0.0145519 4.95755e-23)
(0.0449116 -0.0102477 0)
(0.046135 -0.00485461 0)
(0.046673 0.00168979 4.25193e-23)
(0.00681027 -0.00657002 1.34847e-20)
(0.0184208 -0.014955 -1.36944e-20)
(0.0286164 -0.0189204 9.62606e-21)
(0.0364807 -0.0202797 2.14228e-20)
(0.0423616 -0.0196851 -5.71413e-21)
(0.0465945 -0.0176328 5.49946e-21)
(0.0495017 -0.0144729 5.18219e-21)
(0.0513793 -0.0104065 0)
(0.0525486 -0.00539892 0)
(0.0530147 0.000679201 -2.1356e-22)
(0.00849546 -0.00701973 -1.69621e-21)
(0.0220749 -0.0153923 1.71824e-20)
(0.033482 -0.0190732 -3.21428e-21)
(0.0420171 -0.020193 0)
(0.0481948 -0.0194647 0)
(0.0524756 -0.0174122 1.08724e-20)
(0.0552741 -0.0144033 0)
(0.056956 -0.010662 -9.53674e-21)
(0.0579078 -0.00616898 1.65184e-23)
(0.0582026 -0.000755687 8.53598e-21)
(0.0163105 0.0402281 1.67793e-22)
(0.0282065 0.0956222 -1.69681e-22)
(0.0365553 0.153203 -1.90454e-22)
(0.0381519 0.206449 -2.14652e-22)
(0.034199 0.258969 -2.61604e-22)
(0.0303514 0.314617 -9.43162e-24)
(0.0193715 0.378033 1.37071e-22)
(0.0164512 0.464023 4.90889e-22)
(-0.00241334 0.594383 0)
(0.00482255 0.750611 -3.5829e-22)
(0.0159936 0.036376 6.49334e-22)
(0.025565 0.0909366 -7.28228e-22)
(0.0340621 0.150486 1.29954e-21)
(0.0361114 0.205639 2.15005e-22)
(0.0325941 0.259387 4.63726e-22)
(0.0290745 0.315838 7.96585e-22)
(0.0185853 0.37979 -2.96673e-22)
(0.0157638 0.466139 -3.29449e-22)
(-0.00229871 0.595902 6.37873e-22)
(0.00441948 0.750559 3.57444e-22)
(0.0171476 0.0324839 0)
(0.0236373 0.0854565 -7.08481e-22)
(0.0319399 0.146652 -3.76056e-22)
(0.0343403 0.203803 0)
(0.0312035 0.258906 -1.42802e-21)
(0.0279884 0.316248 4.46817e-22)
(0.0179329 0.380768 4.9981e-22)
(0.0151682 0.467436 1.77759e-21)
(-0.00215404 0.596947 -6.35807e-22)
(0.00406042 0.750331 1.29118e-21)
(0.0198746 0.0287722 0)
(0.0225671 0.0794119 7.14419e-22)
(0.0302065 0.141741 0)
(0.032828 0.200928 1.67093e-21)
(0.0300126 0.257518 -1.67961e-21)
(0.0270767 0.315848 -1.01375e-21)
(0.0174001 0.38095 -5.93037e-23)
(0.0146723 0.467891 -1.74192e-21)
(-0.0019819 0.597311 -2.84125e-22)
(0.00372537 0.749751 -1.58753e-21)
(0.0241292 0.0254256 3.66955e-23)
(0.0225167 0.0730868 -2.04541e-21)
(0.0288933 0.135841 5.80717e-23)
(0.0315656 0.197019 -1.50779e-21)
(0.0290056 0.255222 0)
(0.0263212 0.314663 -9.69915e-22)
(0.0169703 0.380414 -8.07494e-23)
(0.0142593 0.467705 2.18755e-21)
(-0.00180367 0.597337 2.88056e-22)
(0.00341584 0.749121 -2.89113e-22)
(0.0296577 0.0225517 -5.52738e-21)
(0.0236141 0.0667851 3.50102e-21)
(0.0280494 0.129098 1.48049e-21)
(0.030548 0.192103 -1.47978e-21)
(0.0281696 0.252018 -7.99101e-22)
(0.0257108 0.312663 0)
(0.0166432 0.379064 -1.94049e-21)
(0.0139406 0.466598 9.73454e-22)
(-0.00160898 0.596439 1.05665e-21)
(0.00311155 0.748027 1.10317e-21)
(0.0359758 0.0201652 -6.6396e-22)
(0.0258668 0.0607952 0)
(0.0277333 0.12172 0)
(0.0297743 0.186235 0)
(0.0274861 0.247953 -8.49928e-22)
(0.0252234 0.310004 1.64651e-21)
(0.0163916 0.377243 1.89271e-21)
(0.0136684 0.465268 -2.95091e-21)
(-0.00143917 0.595715 5.19948e-22)
(0.00283378 0.747168 -1.60755e-21)
(0.0423939 0.0181665 4.15668e-21)
(0.0290634 0.0552496 2.85719e-21)
(0.0279744 0.113947 -2.83112e-21)
(0.0292479 0.179512 2.99064e-21)
(0.0269533 0.242917 -3.71213e-21)
(0.0248626 0.306318 0)
(0.0162442 0.374241 -8.53373e-22)
(0.0135104 0.462417 4.21416e-23)
(-0.00123491 0.593334 -9.36915e-22)
(0.00254259 0.745514 -9.93843e-22)
(0.0480408 0.016163 -3.52449e-21)
(0.032707 0.0497667 0)
(0.0287324 0.105605 -3.18581e-21)
(0.0289368 0.172024 5.72419e-21)
(0.0265314 0.237536 -2.12839e-21)
(0.0245796 0.302838 -3.88659e-22)
(0.0161134 0.371933 8.51524e-22)
(0.0133057 0.460885 1.05818e-23)
(-0.0011271 0.592624 1.3552e-21)
(0.00228889 0.744697 1.44246e-21)
(0.0518381 0.0140076 -2.86094e-21)
(0.0360517 0.0443287 2.7981e-21)
(0.0299242 0.0963262 3.54736e-22)
(0.0289449 0.162125 0)
(0.0262339 0.228877 0)
(0.0244482 0.295789 3.82762e-22)
(0.0161941 0.365766 1.61448e-21)
(0.013386 0.454929 -1.56844e-21)
(-0.000872784 0.587838 -4.22401e-22)
(0.00199286 0.74227 4.08497e-22)
(0.0536502 0.01523 0)
(0.0404343 0.0424524 0)
(0.032152 0.0900728 0)
(0.0297049 0.156627 0)
(0.0262668 0.226505 0)
(0.0236656 0.296185 0)
(0.0155287 0.367848 0)
(0.012385 0.458324 0)
(-0.00110433 0.590424 0)
(0.00144333 0.741632 0)
(0.0550973 0.0301063 0)
(0.0438797 0.0604568 0)
(0.0334277 0.102377 0)
(0.0289574 0.16277 0)
(0.0253642 0.230935 0)
(0.0224603 0.301135 0)
(0.0148304 0.374336 0)
(0.0113124 0.466145 0)
(-0.000988925 0.596638 0)
(0.000972289 0.741923 0)
(0.052126 0.0342855 0)
(0.0448382 0.0691827 0)
(0.0348415 0.111037 0)
(0.0287003 0.168963 0)
(0.0243969 0.236203 0)
(0.0211216 0.306386 0)
(0.0140091 0.380166 0)
(0.0102934 0.47223 0)
(-0.000902748 0.601111 0)
(0.000636463 0.741613 0)
(0.0471935 0.0367192 0)
(0.0431051 0.0757401 0)
(0.0349782 0.118181 0)
(0.0284917 0.174462 0)
(0.0236949 0.241312 0)
(0.0200404 0.312274 0)
(0.013328 0.387488 0)
(0.00950462 0.480477 0)
(-0.000610238 0.607518 0)
(0.000455978 0.742073 0)
(0.0417461 0.0373829 0)
(0.0399014 0.0806453 0)
(0.0337761 0.124586 0)
(0.0277926 0.179615 0)
(0.022942 0.245491 0)
(0.019092 0.316442 0)
(0.0127008 0.392172 0)
(0.00876416 0.48532 0)
(-0.000546887 0.610969 0)
(0.000241965 0.741618 0)
(0.0360011 0.0364766 0)
(0.0359555 0.0837099 0)
(0.0315697 0.129857 0)
(0.0264437 0.184735 0)
(0.0219818 0.250366 0)
(0.0182329 0.322015 0)
(0.0122545 0.399173 0)
(0.00827013 0.49329 0)
(-0.000221119 0.617039 0)
(0.000160828 0.741976 0)
(0.0302049 0.034178 0)
(0.0318509 0.0852325 0)
(0.0291737 0.134029 0)
(0.0249234 0.188965 0)
(0.0208533 0.253837 0)
(0.0172929 0.325159 0)
(0.0117141 0.402468 0)
(0.00774523 0.496532 0)
(-0.000199844 0.619234 0)
(2.05155e-05 0.741419 0)
(0.0243487 0.0303 0)
(0.0274638 0.0846266 0)
(0.0262716 0.136466 0)
(0.0231677 0.193007 0)
(0.0197669 0.258664 0)
(0.0165017 0.331041 0)
(0.01137 0.409841 0)
(0.00742177 0.504826 0)
(0.000188277 0.625402 0)
(2.69166e-05 0.741814 0)
(0.0194796 0.0268065 0)
(0.0245011 0.0843969 0)
(0.0245357 0.138633 0)
(0.0219656 0.195421 0)
(0.0188681 0.26064 0)
(0.0157961 0.332753 0)
(0.0109472 0.411615 0)
(0.00707624 0.506444 0)
(0.000176976 0.626469 0)
(-4.78276e-05 0.741405 0)
(0.0131168 0.0152414 0)
(0.0192372 0.0771123 0)
(0.0219038 0.137532 0)
(0.0209814 0.198489 0)
(0.0185084 0.265681 0)
(0.0155732 0.33939 0)
(0.0109855 0.419949 0)
(0.00698686 0.515746 0)
(0.000697627 0.633224 0)
(3.3775e-05 0.741945 0)
(0.0605292 0.00477363 2.49156e-21)
(0.0587517 0.0111613 -2.44892e-21)
(0.0532814 0.0119352 2.11911e-22)
(0.0470883 0.0113097 0)
(0.0406791 0.00936508 0)
(0.0340433 0.00640103 6.41062e-23)
(0.0274309 0.00251609 -8.14283e-23)
(0.0209106 -0.00254516 8.00179e-23)
(0.01497 -0.00714349 -1.13955e-23)
(0.00799096 -0.0173945 1.11949e-23)
(0.0615504 0.000479035 -3.29619e-21)
(0.0580284 0.00323025 0)
(0.0518616 0.00232727 1.19452e-21)
(0.0454687 0.000431903 -2.37652e-21)
(0.0389976 -0.00249046 1.18127e-21)
(0.0323381 -0.00616788 -6.26638e-23)
(0.0257041 -0.0105777 5.94405e-23)
(0.0192073 -0.0159776 2.06391e-23)
(0.0130356 -0.0209259 -1.91173e-23)
(0.00650375 -0.0303139 -2.12703e-23)
(0.0617601 -0.00391756 3.71501e-21)
(0.0568548 -0.00436943 -1.72231e-21)
(0.0503077 -0.00693766 1.70576e-21)
(0.0437912 -0.0101462 -9.45242e-22)
(0.0372676 -0.0140735 7.41079e-22)
(0.030582 -0.0184675 0)
(0.0239335 -0.0233635 -5.95764e-23)
(0.0174721 -0.0289732 1.30643e-24)
(0.0112131 -0.0340685 4.17288e-24)
(0.00521505 -0.0422971 3.149e-23)
(0.0612548 -0.00900527 -5.65175e-22)
(0.055238 -0.0121838 0)
(0.0485465 -0.0161952 0)
(0.0419974 -0.0205733 0)
(0.0354696 -0.0253864 4.86357e-22)
(0.0287945 -0.0303882 -2.99991e-22)
(0.0221623 -0.0356543 2.1654e-23)
(0.0157585 -0.0413178 1.69196e-24)
(0.00955377 -0.0463396 5.86538e-24)
(0.00408029 -0.0532964 1.35432e-23)
(0.0599708 -0.0148818 -3.89927e-22)
(0.0531095 -0.0203054 -1.51212e-21)
(0.0464644 -0.025514 -6.13381e-22)
(0.039963 -0.0308469 6.12945e-22)
(0.0335032 -0.0363648 -1.84042e-22)
(0.0269077 -0.041813 0)
(0.0203635 -0.0472931 -6.04356e-23)
(0.0140849 -0.0528475 3.19731e-23)
(0.00807096 -0.0575995 -1.20066e-23)
(0.00313814 -0.0632969 -1.96181e-23)
(0.0579961 -0.021452 -4.18243e-21)
(0.0505758 -0.0286305 6.93681e-22)
(0.044131 -0.0348139 1.75622e-22)
(0.0377343 -0.0408702 6.04176e-22)
(0.0314107 -0.0469002 0)
(0.0249573 -0.0526167 0)
(0.0185705 -0.0581478 0)
(0.0124907 -0.0634469 2.94001e-23)
(0.00677587 -0.0677842 0)
(0.00238629 -0.0723151 0)
(0.0554039 -0.0285542 0)
(0.0477453 -0.0369808 1.19667e-21)
(0.0416153 -0.0439555 -7.7132e-22)
(0.0353844 -0.0505089 -4.43956e-22)
(0.029253 -0.0568689 4.46237e-22)
(0.0229984 -0.0626842 9.61939e-23)
(0.0168299 -0.0681192 -1.19218e-22)
(0.0110139 -0.073051 -1.27478e-22)
(0.00567071 -0.0768889 1.02774e-23)
(0.00180031 -0.0803944 4.91249e-24)
(0.0522866 -0.0359585 0)
(0.0447122 -0.0451766 -4.2564e-22)
(0.0389792 -0.0527863 -1.72539e-22)
(0.0329715 -0.0596292 0)
(0.0270824 -0.0661593 6.17059e-23)
(0.0210784 -0.0719283 -2.25209e-22)
(0.0151797 -0.0771505 1.03e-22)
(0.009679 -0.0816448 6.44806e-24)
(0.00474646 -0.0849553 -8.96797e-24)
(0.00135226 -0.0875985 -4.42399e-24)
(0.0487689 -0.0434625 5.66273e-22)
(0.0415537 -0.0530604 3.86643e-22)
(0.0362783 -0.0611712 -1.30427e-22)
(0.0305488 -0.0681219 6.77305e-23)
(0.0249446 -0.0746909 9.65791e-23)
(0.0192367 -0.0803008 1.00291e-22)
(0.013647 -0.0852293 -2.20846e-23)
(0.00849707 -0.0892581 -1.22569e-23)
(0.00398563 -0.0920578 8.9973e-24)
(0.00101515 -0.094003 8.08904e-25)
(0.0449736 -0.0508992 -1.19386e-22)
(0.0383378 -0.0605147 1.20468e-22)
(0.0335628 -0.0690101 -8.7387e-23)
(0.0281648 -0.0759167 -6.76278e-23)
(0.0228779 -0.0824222 4.32091e-23)
(0.0175033 -0.0877954 -7.8286e-23)
(0.012248 -0.0923847 3.11114e-23)
(0.00746739 -0.0959556 3.16823e-24)
(0.00336595 -0.0982913 0)
(0.000764145 -0.0996903 -8.10639e-25)
(0.0410383 -0.0581427 1.22253e-22)
(0.0351394 -0.0674693 -1.23317e-22)
(0.0308877 -0.0762449 -9.20185e-23)
(0.0258691 -0.0829884 -7.20699e-23)
(0.0209169 -0.0893534 -4.54171e-23)
(0.0159011 -0.0944457 6.76535e-24)
(0.0109903 -0.0986796 1.61904e-23)
(0.00658158 -0.101827 2.58834e-23)
(0.00286412 -0.103761 0)
(0.000577825 -0.104745 -2.27732e-24)
(0.0371041 -0.0651189 0)
(0.03204 -0.0739006 -4.14177e-22)
(0.0283079 -0.0828576 6.99774e-22)
(0.0237083 -0.0893534 7.21762e-23)
(0.0190904 -0.0955199 1.14146e-22)
(0.0144456 -0.100317 1.21965e-22)
(0.009875 -0.104201 -2.6151e-23)
(0.00582674 -0.106974 -1.58055e-23)
(0.00245847 -0.108573 1.87544e-23)
(0.000439157 -0.109251 2.27194e-24)
(0.0332822 -0.0718026 0)
(0.029104 -0.079829 -4.78338e-22)
(0.0258606 -0.0888639 -1.90793e-22)
(0.0217126 -0.0950638 0)
(0.0174143 -0.100986 -3.15976e-22)
(0.013141 -0.105496 1.20132e-22)
(0.00889568 -0.109048 7.40079e-23)
(0.00518701 -0.111505 1.25202e-22)
(0.00212987 -0.112831 -1.86932e-23)
(0.000335086 -0.113291 1.35738e-23)
(0.02965 -0.0782046 0)
(0.0263747 -0.0853155 4.82304e-22)
(0.0235652 -0.0943069 0)
(0.0198944 -0.1002 5.62668e-22)
(0.0158924 -0.105835 -5.65586e-22)
(0.0119816 -0.110086 -1.52954e-22)
(0.00804098 -0.113329 3.22844e-23)
(0.00464538 -0.115527 -1.29902e-22)
(0.00186209 -0.116634 -2.39376e-23)
(0.000255678 -0.116945 -2.08127e-23)
(0.0262614 -0.084357 4.93542e-21)
(0.0238862 -0.0904575 -1.85138e-21)
(0.0214348 -0.0992495 -1.77324e-22)
(0.0182571 -0.104863 -7.53342e-22)
(0.014524 -0.110165 0)
(0.0109573 -0.114193 -1.62559e-22)
(0.00729811 -0.117151 5.2486e-23)
(0.00418595 -0.119143 1.94485e-22)
(0.00164228 -0.120076 8.04863e-24)
(0.000193713 -0.120289 -8.04407e-24)
(0.0231448 -0.0902938 4.1886e-22)
(0.0216665 -0.095382 2.88285e-21)
(0.0194834 -0.103768 7.86661e-22)
(0.0167989 -0.10916 -7.86176e-22)
(0.0133078 -0.11408 -2.7618e-22)
(0.0100571 -0.117924 0)
(0.00665557 -0.120617 -2.65062e-22)
(0.00379545 -0.12245 1.41985e-22)
(0.00146092 -0.123243 7.27892e-23)
(0.000144197 -0.123398 1.83303e-23)
(0.0203154 -0.0960263 -6.90201e-22)
(0.0197506 -0.10024 0)
(0.01774 -0.107946 0)
(0.0155219 -0.113203 0)
(0.0122483 -0.117684 -2.19624e-22)
(0.00927416 -0.121382 4.95245e-22)
(0.00610558 -0.123826 2.72193e-22)
(0.0034644 -0.125537 -3.24019e-22)
(0.00131169 -0.126216 1.87173e-23)
(0.00010378 -0.126345 -3.6685e-23)
(0.0177666 -0.10152 -1.5872e-21)
(0.0181502 -0.105194 2.13914e-21)
(0.0162265 -0.111873 -2.11894e-21)
(0.0144142 -0.117092 1.36985e-21)
(0.0113427 -0.121079 -1.66215e-21)
(0.00859713 -0.124662 0)
(0.00563886 -0.126867 -1.63838e-22)
(0.00318388 -0.128487 -6.60134e-24)
(0.00118952 -0.129072 -6.14448e-23)
(6.98282e-05 -0.1292 -2.05699e-23)
(0.0152815 -0.106647 -7.47538e-22)
(0.016647 -0.110399 0)
(0.0148358 -0.115646 -2.09196e-21)
(0.0133649 -0.120921 3.25533e-21)
(0.0105225 -0.124365 -1.11993e-21)
(0.00797287 -0.127853 -1.20727e-22)
(0.00522184 -0.129825 1.63464e-22)
(0.00293298 -0.131376 2.05325e-23)
(0.00108526 -0.131881 1.2614e-22)
(4.12003e-05 -0.132031 4.09418e-23)
(0.0128563 -0.111066 -3.01853e-21)
(0.0151498 -0.115994 2.95225e-21)
(0.013581 -0.119398 2.6961e-22)
(0.012366 -0.124789 0)
(0.00977776 -0.127646 0)
(0.00739872 -0.131046 1.24277e-22)
(0.0048507 -0.132783 3.02857e-22)
(0.00271162 -0.134279 -2.97231e-22)
(0.0010004 -0.134716 -2.25366e-23)
(2.88767e-05 -0.134908 2.20625e-23)
(0.0123535 -0.118104 0)
(0.0153172 -0.129413 0)
(0.0133023 -0.128207 0)
(0.0118679 -0.134082 0)
(0.00930905 -0.13563 0)
(0.00692987 -0.138912 0)
(0.00453337 -0.140114 0)
(0.00252698 -0.141495 0)
(0.000965727 -0.141742 0)
(6.17242e-05 -0.141992 0)
(0.0121303 -0.140295 0)
(0.011142 -0.153014 0)
(0.00939805 -0.148449 0)
(0.00802211 -0.154416 0)
(0.00617709 -0.153923 0)
(0.00459035 -0.156904 0)
(0.00296783 -0.157036 0)
(0.00168599 -0.158219 0)
(0.000652683 -0.158046 0)
(6.66775e-05 -0.158349 0)
(0.0126754 -0.168029 0)
(0.0104254 -0.181851 0)
(0.00851273 -0.174723 0)
(0.00681015 -0.181097 0)
(0.00515806 -0.178863 0)
(0.00372504 -0.181933 0)
(0.00241632 -0.181123 0)
(0.00139657 -0.182364 0)
(0.000581927 -0.181771 0)
(7.93431e-05 -0.182201 0)
(0.0128589 -0.202703 0)
(0.00974345 -0.217588 0)
(0.00785961 -0.208719 0)
(0.00589323 -0.215828 0)
(0.00447649 -0.212181 0)
(0.00311357 -0.215687 0)
(0.00207671 -0.214035 0)
(0.00120229 -0.215558 0)
(0.000550018 -0.214521 0)
(8.00678e-05 -0.215178 0)
(0.0126975 -0.244727 0)
(0.00916375 -0.259826 0)
(0.00736362 -0.250465 0)
(0.00520435 -0.258174 0)
(0.00400536 -0.253705 0)
(0.00264502 -0.257748 0)
(0.00183914 -0.255474 0)
(0.00102054 -0.257393 0)
(0.000513193 -0.255959 0)
(5.80779e-05 -0.256929 0)
(0.0118904 -0.291768 0)
(0.00835612 -0.305506 0)
(0.00671924 -0.29732 0)
(0.00453065 -0.304877 0)
(0.00353743 -0.300522 0)
(0.00219395 -0.304763 0)
(0.0015793 -0.302311 0)
(0.000781026 -0.304483 0)
(0.000419632 -0.30285 0)
(7.43857e-06 -0.30408 0)
(0.0102435 -0.338522 0)
(0.00710534 -0.349458 0)
(0.00570995 -0.343881 0)
(0.00372659 -0.350285 0)
(0.00292733 -0.347015 0)
(0.00169593 -0.350795 0)
(0.00122824 -0.348732 0)
(0.000484526 -0.350757 0)
(0.000263638 -0.34926 0)
(-5.14819e-05 -0.350508 0)
(0.00783336 -0.37852 0)
(0.00538948 -0.386137 0)
(0.00431869 -0.383697 0)
(0.00275809 -0.38832 0)
(0.00215986 -0.386652 0)
(0.00116813 -0.389421 0)
(0.000822324 -0.388139 0)
(0.000212875 -0.389617 0)
(0.000106667 -0.388542 0)
(-8.44026e-05 -0.389502 0)
(0.00488833 -0.406826 0)
(0.00333886 -0.411709 0)
(0.00267064 -0.41188 0)
(0.00168116 -0.414825 0)
(0.00131006 -0.414612 0)
(0.000666615 -0.4163 0)
(0.000447291 -0.415812 0)
(4.61289e-05 -0.416632 0)
(1.05399e-05 -0.416042 0)
(-7.50626e-05 -0.416577 0)
(0.00166063 -0.42122 0)
(0.00112365 -0.424632 0)
(0.000902431 -0.426227 0)
(0.000561713 -0.428199 0)
(0.00043858 -0.428811 0)
(0.000214098 -0.429833 0)
(0.000138951 -0.429823 0)
(-2.68345e-06 -0.43022 0)
(-8.53169e-06 -0.429949 0)
(-2.98582e-05 -0.430195 0)
(0.0123933 -0.126772 3.49333e-21)
(0.0135154 -0.15051 -3.4262e-21)
(0.0146016 -0.179819 4.39118e-22)
(0.0149508 -0.215263 0)
(0.0147401 -0.256695 0)
(0.0137037 -0.301492 5.07927e-22)
(0.0117552 -0.344761 -2.1824e-21)
(0.00899952 -0.381047 2.15156e-21)
(0.00564231 -0.406422 5.84087e-22)
(0.00191896 -0.419254 -5.74877e-22)
(0.0126813 -0.131397 -4.1448e-21)
(0.0143121 -0.155108 0)
(0.015523 -0.184501 3.00007e-21)
(0.0158996 -0.219856 -6.924e-21)
(0.0156391 -0.260813 4.44442e-21)
(0.0144948 -0.304647 -4.72026e-22)
(0.0124186 -0.346614 1.05197e-21)
(0.00951641 -0.381597 2.22084e-21)
(0.00597911 -0.405983 6.24829e-22)
(0.0020312 -0.418296 6.06683e-22)
(0.0132255 -0.136187 4.8328e-21)
(0.0153965 -0.159933 -3.30752e-21)
(0.0166571 -0.189218 3.27614e-21)
(0.0170225 -0.224296 -3.66402e-21)
(0.0166747 -0.264632 2.71007e-21)
(0.0153887 -0.307418 0)
(0.0131488 -0.348083 -1.05451e-21)
(0.010064 -0.381831 5.3589e-23)
(0.00632106 -0.40532 -1.16566e-21)
(0.00213839 -0.417177 -1.19025e-21)
(0.0140668 -0.140501 -7.79924e-22)
(0.0167137 -0.164362 0)
(0.0179814 -0.193583 0)
(0.0183126 -0.228405 0)
(0.0178533 -0.268143 3.01761e-21)
(0.0164044 -0.309923 -2.01869e-21)
(0.0139724 -0.349345 -1.44767e-23)
(0.0106698 -0.381908 -1.24474e-21)
(0.00668994 -0.404525 -6.39033e-22)
(0.00225057 -0.415926 -6.84266e-22)
(0.0152717 -0.144441 6.60251e-23)
(0.0182522 -0.168252 -2.34693e-21)
(0.0194798 -0.197364 -1.78495e-21)
(0.0197543 -0.231939 1.78382e-21)
(0.0191642 -0.271126 -9.8529e-22)
(0.01754 -0.312 0)
(0.0148983 -0.350303 -1.15904e-21)
(0.0113518 -0.38179 2.53904e-21)
(0.00710541 -0.4036 -1.29944e-21)
(0.00237813 -0.414569 1.33886e-21)
(0.0168742 -0.148062 -6.22888e-21)
(0.0200327 -0.171646 6.78064e-22)
(0.0211691 -0.200534 -1.29992e-22)
(0.0213542 -0.234818 1.83141e-21)
(0.0206093 -0.273469 0)
(0.0187945 -0.313523 0)
(0.0159264 -0.350848 0)
(0.0121138 -0.381403 1.3605e-21)
(0.00757374 -0.402514 0)
(0.00252569 -0.413107 0)
(0.0188853 -0.151273 0)
(0.0220698 -0.174517 2.56074e-21)
(0.0230724 -0.203089 -1.73076e-21)
(0.0231298 -0.237039 -2.05746e-21)
(0.0222033 -0.275161 2.06816e-21)
(0.0201763 -0.31447 1.23774e-21)
(0.0170594 -0.350943 -1.2274e-21)
(0.0129557 -0.38071 -4.85975e-21)
(0.00809412 -0.401241 3.45978e-22)
(0.00269401 -0.411528 -1.18486e-21)
(0.0213143 -0.153964 0)
(0.0243696 -0.176793 -8.3192e-22)
(0.0252051 -0.204989 -4.69095e-22)
(0.0250955 -0.23859 0)
(0.0239611 -0.276209 6.03133e-22)
(0.0216977 -0.314853 -1.81837e-21)
(0.018305 -0.350597 2.02946e-21)
(0.0138803 -0.37971 7.24762e-22)
(0.00866612 -0.399773 -7.93039e-22)
(0.00288334 -0.409821 1.57194e-21)
(0.0241726 -0.15605 7.47248e-22)
(0.0269371 -0.178415 9.01059e-22)
(0.027577 -0.206187 -1.99561e-22)
(0.02726 -0.239449 2.68572e-22)
(0.0258941 -0.276607 5.72669e-22)
(0.023369 -0.314684 9.63644e-22)
(0.0196716 -0.349825 -3.62992e-22)
(0.0148929 -0.378411 -3.92566e-22)
(0.00929163 -0.398109 7.9565e-22)
(0.00309465 -0.407979 4.31264e-22)
(0.0274699 -0.157461 -2.078e-22)
(0.0297777 -0.179354 2.09779e-22)
(0.0301968 -0.206654 -2.41214e-22)
(0.0296295 -0.239596 -2.68219e-22)
(0.0280103 -0.276347 3.19707e-22)
(0.0251984 -0.313962 -6.53194e-22)
(0.0211673 -0.348633 5.55533e-22)
(0.0159999 -0.376819 1.98868e-22)
(0.00997439 -0.396251 0)
(0.00332949 -0.406 -4.3223e-22)
(0.0312136 -0.158149 2.1265e-22)
(0.0328941 -0.179604 -2.14739e-22)
(0.0330722 -0.206378 -2.58507e-22)
(0.0322092 -0.239032 -2.89632e-22)
(0.0303171 -0.27543 -3.33601e-22)
(0.027192 -0.312693 -2.38706e-23)
(0.022798 -0.347023 1.95634e-22)
(0.0172062 -0.374936 6.32492e-22)
(0.0107173 -0.394197 0)
(0.0035891 -0.403878 -4.71801e-22)
(0.0354084 -0.1581 0)
(0.0362864 -0.17916 -9.88151e-22)
(0.0362081 -0.205367 1.79158e-21)
(0.0350022 -0.237763 2.90115e-22)
(0.0328208 -0.273859 6.75824e-22)
(0.029356 -0.310877 1.11301e-21)
(0.0245712 -0.344995 -3.96627e-22)
(0.018519 -0.372757 -4.29152e-22)
(0.011525 -0.391943 9.49666e-22)
(0.00387469 -0.40161 4.70704e-22)
(0.0400562 -0.157348 0)
(0.0399547 -0.178019 -9.72589e-22)
(0.0396042 -0.20366 -5.38611e-22)
(0.0380115 -0.235812 0)
(0.0355261 -0.271664 -2.1311e-21)
(0.0316944 -0.308536 7.11384e-22)
(0.0264902 -0.342564 8.51169e-22)
(0.0199393 -0.370295 2.75262e-21)
(0.0123975 -0.389481 -9.46581e-22)
(0.00418609 -0.399183 2.04406e-21)
(0.0451519 -0.156007 0)
(0.0439004 -0.17618 9.80854e-22)
(0.0432511 -0.201314 0)
(0.04124 -0.233186 2.71465e-21)
(0.0384363 -0.268857 -2.72859e-21)
(0.034214 -0.305668 -1.67849e-21)
(0.0285624 -0.339722 -3.92055e-23)
(0.0214803 -0.367537 -2.83328e-21)
(0.0133447 -0.386798 -4.7228e-22)
(0.00452338 -0.396587 -2.54251e-21)
(0.0506519 -0.15412 7.06289e-21)
(0.0481442 -0.173647 -2.71123e-21)
(0.0471399 -0.19835 2.99286e-22)
(0.0446943 -0.229907 -2.52328e-21)
(0.0415491 -0.265461 0)
(0.0369176 -0.3023 -1.7505e-21)
(0.030789 -0.336493 -1.49459e-22)
(0.0231403 -0.3645 3.84764e-21)
(0.0143648 -0.383924 5.27982e-22)
(0.00488549 -0.393834 -5.30031e-22)
(0.056521 -0.151671 -7.36824e-22)
(0.0526868 -0.170498 5.07433e-21)
(0.0512488 -0.194825 2.62423e-21)
(0.0483709 -0.226054 -2.62247e-21)
(0.0448642 -0.261513 -1.59073e-21)
(0.0398096 -0.29844 0)
(0.0331791 -0.332864 -3.92786e-21)
(0.0249297 -0.361162 1.97003e-21)
(0.0154671 -0.38084 2.10625e-21)
(0.00527585 -0.390907 2.26265e-21)
(0.0626902 -0.148743 -9.71895e-22)
(0.0575195 -0.166812 0)
(0.0555586 -0.190805 0)
(0.0522618 -0.221703 0)
(0.0483773 -0.257108 -1.84273e-21)
(0.0428827 -0.294202 3.42752e-21)
(0.0357184 -0.32895 4.00157e-21)
(0.0268282 -0.357614 -6.30604e-21)
(0.0166345 -0.37759 1.12969e-21)
(0.00568572 -0.38783 -3.36061e-21)
(0.0690498 -0.145476 -1.44496e-21)
(0.0626336 -0.162627 5.00942e-21)
(0.0600477 -0.186311 -4.96168e-21)
(0.0563582 -0.216807 6.42202e-21)
(0.052096 -0.25211 -8.08036e-21)
(0.0461665 -0.289368 0)
(0.0384592 -0.324511 -2.09198e-21)
(0.0288989 -0.353667 -8.67723e-23)
(0.0179182 -0.374064 -2.34852e-21)
(0.00613444 -0.38453 -2.39392e-21)
(0.0754511 -0.142139 -1.03169e-21)
(0.0680179 -0.158181 0)
(0.06467 -0.181678 -6.64426e-21)
(0.0605959 -0.211881 1.25505e-20)
(0.0559338 -0.247229 -4.86554e-21)
(0.0495371 -0.284759 -9.87892e-22)
(0.0412421 -0.320303 2.08741e-21)
(0.0309768 -0.349846 -1.06693e-22)
(0.0191953 -0.370532 3.4273e-21)
(0.00656938 -0.381152 3.54275e-21)
(0.0820725 -0.137444 -4.66309e-21)
(0.0743334 -0.152108 4.57233e-21)
(0.0699137 -0.175213 7.09139e-22)
(0.0653771 -0.204907 0)
(0.0602944 -0.240161 0)
(0.053453 -0.27808 9.75284e-22)
(0.0445695 -0.314439 4.48415e-21)
(0.0335306 -0.344939 -4.38934e-21)
(0.0207976 -0.366389 -1.20345e-21)
(0.00712157 -0.377341 1.18342e-21)
(0.092319 -0.137365 0)
(0.0885141 -0.149498 0)
(0.0812452 -0.173167 0)
(0.0754246 -0.202367 0)
(0.06904 -0.236797 0)
(0.0608054 -0.273461 0)
(0.0504267 -0.308376 0)
(0.0377976 -0.337575 0)
(0.0233879 -0.358238 0)
(0.00790464 -0.369029 0)
(0.110131 -0.125523 0)
(0.112182 -0.142154 0)
(0.101194 -0.168344 0)
(0.0943777 -0.197046 0)
(0.0856259 -0.230239 0)
(0.0748513 -0.264697 0)
(0.0616919 -0.296992 0)
(0.046053 -0.323571 0)
(0.0284739 -0.341835 0)
(0.00980917 -0.350632 0)
(0.132741 -0.114174 0)
(0.137339 -0.133135 0)
(0.122821 -0.159585 0)
(0.11543 -0.18692 0)
(0.103663 -0.218327 0)
(0.0899121 -0.250017 0)
(0.0734388 -0.279602 0)
(0.0543932 -0.304226 0)
(0.0333814 -0.321905 0)
(0.0110702 -0.331668 0)
(0.160819 -0.106132 0)
(0.166186 -0.125574 0)
(0.147832 -0.150948 0)
(0.139894 -0.176844 0)
(0.124305 -0.20646 0)
(0.107355 -0.235265 0)
(0.087073 -0.262068 0)
(0.0641567 -0.283926 0)
(0.0393408 -0.298688 0)
(0.0136795 -0.305009 0)
(0.193718 -0.0964134 0)
(0.197491 -0.11431 0)
(0.175151 -0.137233 0)
(0.165846 -0.160548 0)
(0.145004 -0.186749 0)
(0.124219 -0.21151 0)
(0.0992515 -0.235186 0)
(0.0721867 -0.25512 0)
(0.0435824 -0.270398 0)
(0.0137824 -0.280638 0)
(0.231176 -0.0886424 0)
(0.232327 -0.104355 0)
(0.206288 -0.125444 0)
(0.1949 -0.14603 0)
(0.168079 -0.169019 0)
(0.143958 -0.190594 0)
(0.114079 -0.212005 0)
(0.0826849 -0.229506 0)
(0.0500637 -0.241514 0)
(0.0184207 -0.244088 0)
(0.270213 -0.0735012 0)
(0.264943 -0.085695 0)
(0.236022 -0.102944 0)
(0.220177 -0.118513 0)
(0.186817 -0.136537 0)
(0.158698 -0.153358 0)
(0.121764 -0.170582 0)
(0.0854808 -0.185606 0)
(0.0488208 -0.200821 0)
(0.0115837 -0.21914 0)
(0.307959 -0.0639573 0)
(0.298238 -0.0721692 0)
(0.268577 -0.0865077 0)
(0.248159 -0.0982018 0)
(0.212001 -0.114031 0)
(0.180824 -0.128586 0)
(0.1396 -0.14534 0)
(0.0998952 -0.160979 0)
(0.0586819 -0.176367 0)
(0.0298664 -0.171871 0)
(0.345826 -0.0356987 0)
(0.332812 -0.0393011 0)
(0.29002 -0.047911 0)
(0.263341 -0.0534795 0)
(0.214997 -0.0628412 0)
(0.175199 -0.0699339 0)
(0.120101 -0.0790772 0)
(0.0678421 -0.0879423 0)
(0.0179218 -0.106749 0)
(-0.0404603 -0.158296 0)
(0.614057 -0.0187551 0)
(0.594215 -0.0217124 0)
(0.554766 -0.0260558 0)
(0.523648 -0.0302303 0)
(0.474781 -0.0363688 0)
(0.430012 -0.0432272 0)
(0.367136 -0.0535862 0)
(0.299153 -0.0691418 0)
(0.209573 -0.0986274 0)
(0.150823 -0.157137 0)
(0.11022 -0.123789 4.77948e-21)
(0.130169 -0.111538 -4.7066e-21)
(0.152936 -0.100488 7.80135e-22)
(0.180569 -0.0926367 0)
(0.213399 -0.0835816 0)
(0.24936 -0.0766138 1.20236e-21)
(0.287847 -0.0632336 -5.74084e-21)
(0.323622 -0.055718 5.65991e-21)
(0.372126 -0.030824 1.61388e-21)
(0.63486 -0.0164413 -1.63858e-21)
(0.116394 -0.117881 -4.4352e-21)
(0.136159 -0.105489 0)
(0.158571 -0.0948299 5.60652e-21)
(0.185886 -0.0871952 -1.35824e-20)
(0.218745 -0.0784666 9.17851e-21)
(0.254638 -0.0718848 -1.12706e-21)
(0.293159 -0.0591611 2.44659e-21)
(0.329092 -0.0524651 5.53857e-21)
(0.381859 -0.0289233 1.49425e-21)
(0.64304 -0.0154567 1.51764e-21)
(0.1218 -0.111357 5.11623e-21)
(0.141278 -0.0991612 -5.22031e-21)
(0.163245 -0.0890553 5.17089e-21)
(0.190201 -0.0817159 -7.22649e-21)
(0.2229 -0.0734184 5.23556e-21)
(0.258865 -0.0673001 0)
(0.297349 -0.0552901 -2.45246e-21)
(0.33398 -0.0494179 -5.731e-23)
(0.390466 -0.0271994 -2.83362e-21)
(0.650805 -0.0145097 -3.01593e-21)
(0.127049 -0.104379 -8.78857e-22)
(0.146613 -0.0926623 0)
(0.168201 -0.0832091 0)
(0.194957 -0.07621 0)
(0.227354 -0.068413 5.94434e-21)
(0.263307 -0.0628273 -4.05221e-21)
(0.301597 -0.0515914 -1.67238e-22)
(0.33892 -0.0465047 -2.81745e-21)
(0.398491 -0.0256377 -1.42978e-21)
(0.658334 -0.0136424 -1.47207e-21)
(0.131781 -0.0970601 9.06286e-22)
(0.151636 -0.0860818 -2.79516e-21)
(0.172939 -0.0773523 -2.9472e-21)
(0.199594 -0.0707344 2.94536e-21)
(0.231768 -0.0634718 -1.86523e-21)
(0.267769 -0.0584605 0)
(0.305757 -0.0480384 -2.38017e-21)
(0.343857 -0.043677 5.33851e-21)
(0.406055 -0.0242028 -2.67969e-21)
(0.665544 -0.0128605 2.92987e-21)
(0.135828 -0.0894244 -6.59272e-21)
(0.156031 -0.0794417 3.03405e-22)
(0.177105 -0.0714951 -4.80475e-22)
(0.203635 -0.0653195 2.87743e-21)
(0.235672 -0.0586392 0)
(0.271791 -0.0541991 0)
(0.309495 -0.0446373 0)
(0.348475 -0.04095 2.54457e-21)
(0.413067 -0.0228669 0)
(0.67234 -0.0121653 0)
(0.139112 -0.0814933 0)
(0.15975 -0.0727368 3.35261e-21)
(0.180657 -0.0656225 -2.33007e-21)
(0.207015 -0.0599596 -3.29733e-21)
(0.23893 -0.0539111 3.31445e-21)
(0.275147 -0.0500469 2.15272e-21)
(0.312754 -0.0413794 -2.027e-21)
(0.352526 -0.038335 -8.75311e-21)
(0.419389 -0.0216221 6.18635e-22)
(0.678621 -0.0115437 -2.08021e-21)
(0.141533 -0.0733002 0)
(0.162757 -0.0659613 -1.02593e-21)