/*--------------------------------*- C++ -*----------------------------------*\
  =========                 |
  \\      /  F ield         | OpenFOAM: The Open Source CFD Toolbox
   \\    /   O peration     | Website:  https://openfoam.org
    \\  /    A nd           | Version:  7
     \\/     M anipulation  |
\*---------------------------------------------------------------------------*/
FoamFile
{
    version     2.0;
    format      ascii;
    class       volScalarField;
    location    "0.05";
    object      p;
}
// * * * * * * * * * * * * * * * * * * * * * * * * * * * * * * * * * * * * * //

dimensions      [0 2 -2 0 0 0 0];

internalField   nonuniform List<scalar> 
400
(
3.92545e-08
-0.00527197
-0.0114708
-0.0159861
-0.0173043
-0.0147501
-0.00829953
0.00161959
0.0142739
0.0287192
0.04387
0.058562
0.0716239
0.0819692
0.0887162
0.0913404
0.0898656
0.0850733
0.0786425
0.0733546
0.00518028
-0.000244446
-0.0050364
-0.00805012
-0.00854246
-0.00603727
-0.000491429
0.00778771
0.0182428
0.0301336
0.0425935
0.0546869
0.0654769
0.074106
0.0798944
0.0824541
0.0818255
0.0785692
0.0735831
0.0681566
0.0117634
0.00422889
-0.000983071
-0.00376253
-0.00409864
-0.00173198
0.00331613
0.0107515
0.0200878
0.0306893
0.0418083
0.0526312
0.0623356
0.0701596
0.0754828
0.0779174
0.0774293
0.0743612
0.0688971
0.0613223
0.0175922
0.00717651
0.000655235
-0.00256765
-0.00309081
-0.000850586
0.00403308
0.0112212
0.0202341
0.0304739
0.0412432
0.0517761
0.0612824
0.0690061
0.0742929
0.0766727
0.0759891
0.0723912
0.0654901
0.0549303
0.0212376
0.00772812
-0.000380354
-0.00424659
-0.00499959
-0.00274855
0.00228051
0.00968084
0.0189487
0.0294898
0.0406194
0.0515773
0.0615591
0.0697623
0.0754447
0.0780041
0.0771334
0.0728011
0.064125
0.0502671
0.0216114
0.00487463
-0.0049274
-0.00944943
-0.0103165
-0.00779985
-0.00223753
0.00588055
0.0160064
0.027526
0.0397416
0.0518694
0.0630551
0.072408
0.07905
0.0821986
0.0813589
0.0763087
0.065692
0.0482598
0.0177357
-0.00240475
-0.0139231
-0.0189739
-0.0196988
-0.0165422
-0.00996668
-0.000559262
0.0110748
0.0242901
0.0383624
0.0524679
0.0656797
0.0769852
0.0853245
0.089678
0.0893056
0.0837473
0.0711181
0.0497438
0.00853607
-0.0152469
-0.0284265
-0.0337314
-0.0339031
-0.0295971
-0.0214249
-0.0100847
0.00375619
0.0194218
0.0361653
0.0531239
0.0692911
0.0835113
0.0944994
0.100931
0.101734
0.0961143
0.0815102
0.0557164
-0.00731695
-0.0350365
-0.0497173
-0.0548139
-0.0538251
-0.0476902
-0.0372081
-0.0232031
-0.00639999
0.0125115
0.0327854
0.0535438
0.0737166
0.092002
0.106854
0.116565
0.119612
0.114704
0.0983367
0.0675598
-0.0315497
-0.0635309
-0.0793686
-0.0835094
-0.0804695
-0.0715905
-0.0579128
-0.0404005
-0.0198191
0.00316559
0.0278574
0.0534167
0.0787578
0.10246
0.122703
0.137315
0.144166
0.141226
0.123621
0.0872719
-0.0664736
-0.103025
-0.119327
-0.121291
-0.114871
-0.101989
-0.0839934
-0.0619949
-0.0367617
-0.00887122
0.0211122
0.0524794
0.0842218
0.114876
0.142377
0.164032
0.176928
0.177951
0.160195
0.117781
-0.115319
-0.156604
-0.172007
-0.169765
-0.157947
-0.139297
-0.115542
-0.0879158
-0.0571167
-0.0235306
0.0125325
0.0506331
0.0899918
0.129252
0.166214
0.197674
0.219778
0.22789
0.212067
0.163457
-0.18291
-0.228569
-0.240391
-0.23054
-0.210238
-0.18334
-0.151974
-0.117409
-0.080135
-0.0401889
0.00254599
0.048092
0.0961203
0.145628
0.194523
0.239247
0.274952
0.294995
0.284982
0.231034
-0.277142
-0.32513
-0.328061
-0.304901
-0.27145
-0.232892
-0.191615
-0.148693
-0.104154
-0.0574485
-0.00780632
0.0455
0.102881
0.164052
0.227456
0.289609
0.344887
0.384306
0.387261
0.331456
-0.412165
-0.455491
-0.438882
-0.393014
-0.339626
-0.284982
-0.231203
-0.178636
-0.126411
-0.0730525
-0.016856
0.043882
0.110644
0.184332
0.264593
0.348867
0.431592
0.501731
0.530999
0.48352
-0.614183
-0.633146
-0.576123
-0.492619
-0.410023
-0.334161
-0.265527
-0.202692
-0.143176
-0.0841326
-0.0226187
0.044293
0.119469
0.205531
0.304233
0.415408
0.535496
0.653221
0.733165
0.719587
-0.931914
-0.876134
-0.740929
-0.598151
-0.47477
-0.372657
-0.287993
-0.215695
-0.150632
-0.088066
-0.0235978
0.0470954
0.128484
0.225374
0.342758
0.485108
0.654296
0.842928
1.01523
1.09492
-1.47886
-1.20159
-0.921888
-0.694309
-0.519704
-0.389303
-0.290794
-0.212674
-0.145968
-0.0837226
-0.0200865
0.0504992
0.134048
0.237805
0.371105
0.54594
0.774535
1.0614
1.39842
1.73287
-2.57162
-1.60305
-1.04587
-0.718197
-0.50149
-0.356647
-0.257703
-0.184928
-0.125529
-0.0710817
-0.0151652
0.0480009
0.125064
0.224796
0.36055
0.553469
0.83244
1.23673
1.88183
2.95885
-4.44612
-2.01938
-0.973492
-0.569406
-0.362736
-0.244418
-0.173565
-0.125683
-0.0873946
-0.0513629
-0.0126954
0.0330109
0.09071
0.167872
0.277917
0.446868
0.723143
1.22453
2.38578
4.93006
)
;

boundaryField
{
    movingWall
    {
        type            zeroGradient;
    }
    fixedWalls
    {
        type            zeroGradient;
    }
    frontAndBack
    {
        type            empty;
    }
}


// ************************************************************************* //
