/*--------------------------------*- C++ -*----------------------------------*\
  =========                 |
  \\      /  F ield         | OpenFOAM: The Open Source CFD Toolbox
   \\    /   O peration     | Website:  https://openfoam.org
    \\  /    A nd           | Version:  7
     \\/     M anipulation  |
\*---------------------------------------------------------------------------*/
FoamFile
{
    version     2.0;
    format      ascii;
    class       surfaceScalarField;
    location    "0.05";
    object      phi;
}
// * * * * * * * * * * * * * * * * * * * * * * * * * * * * * * * * * * * * * //

dimensions      [0 3 -1 0 0 0 0];

internalField   nonuniform List<scalar> 
760
(
1.17404e-08
-1.17406e-08
-2.24749e-08
3.42151e-08
-1.05773e-07
8.32977e-08
-2.23305e-07
1.17532e-07
-3.5735e-07
1.34045e-07
-4.91352e-07
1.34002e-07
-6.11257e-07
1.19905e-07
-7.05945e-07
9.46884e-08
-7.67252e-07
6.13064e-08
-7.89927e-07
2.26748e-08
-7.71693e-07
-1.82334e-08
-7.13438e-07
-5.82554e-08
-6.19492e-07
-9.39452e-08
-4.97912e-07
-1.2158e-07
-3.60593e-07
-1.3732e-07
-2.23e-07
-1.37592e-07
-1.03196e-07
-1.19805e-07
-1.97531e-08
-8.34429e-08
1.30151e-08
-3.27683e-08
1.30152e-08
-3.19642e-08
2.02238e-08
-1.64163e-07
1.66414e-07
-3.91421e-07
3.10557e-07
-6.85583e-07
4.11694e-07
-1.0114e-06
4.59859e-07
-1.33357e-06
4.56175e-07
-1.62061e-06
4.06944e-07
-1.84672e-06
3.20803e-07
-1.99264e-06
2.07227e-07
-2.046e-06
7.60291e-08
-2.00164e-06
-6.25944e-08
-1.86205e-06
-1.97842e-07
-1.63783e-06
-3.18163e-07
-1.34798e-06
-4.11437e-07
-1.01964e-06
-4.65655e-07
-6.86905e-07
-4.70328e-07
-3.87865e-07
-4.18844e-07
-1.59512e-07
-3.11796e-07
-2.95897e-08
-1.6269e-07
-1.65744e-08
-8.30348e-08
1.03259e-07
-3.20536e-07
4.03914e-07
-6.84481e-07
6.74502e-07
-1.13264e-06
8.59854e-07
-1.61665e-06
9.43865e-07
-2.08871e-06
9.28241e-07
-2.50603e-06
8.24261e-07
-2.83329e-06
6.48065e-07
-3.04398e-06
4.17915e-07
-3.12103e-06
1.53083e-07
-3.05737e-06
-1.2626e-07
-2.85643e-06
-3.98778e-07
-2.53277e-06
-6.41824e-07
-2.11233e-06
-8.31877e-07
-1.63204e-06
-9.45944e-07
-1.13807e-06
-9.64306e-07
-6.82085e-07
-8.74825e-07
-3.15258e-07
-6.78623e-07
-7.98323e-08
-3.98116e-07
-9.64065e-08
-1.30067e-07
2.33326e-07
-4.7091e-07
7.44757e-07
-9.68535e-07
1.17213e-06
-1.56274e-06
1.45406e-06
-2.19172e-06
1.57284e-06
-2.79712e-06
1.53365e-06
-3.3278e-06
1.35493e-06
-3.74197e-06
1.06224e-06
-4.00838e-06
6.84331e-07
-4.10688e-06
2.51578e-07
-4.02887e-06
-2.04269e-07
-3.77799e-06
-6.49661e-07
-3.37081e-06
-1.049e-06
-2.83744e-06
-1.36524e-06
-2.22137e-06
-1.56201e-06
-1.57797e-06
-1.6077e-06
-9.70975e-07
-1.48182e-06
-4.66661e-07
-1.18294e-06
-1.26406e-07
-7.3837e-07
-2.22813e-07
-1.74081e-07
4.07407e-07
-6.17087e-07
1.18776e-06
-1.24838e-06
1.80342e-06
-1.98731e-06
2.19299e-06
-2.75736e-06
2.34289e-06
-3.48996e-06
2.26624e-06
-4.12701e-06
1.99198e-06
-4.62215e-06
1.55738e-06
-4.94106e-06
1.00324e-06
-5.06152e-06
3.72039e-07
-4.9736e-06
-2.92186e-07
-4.6803e-06
-9.42967e-07
-4.19856e-06
-1.53073e-06
-3.56052e-06
-2.00329e-06
-2.81417e-06
-2.30837e-06
-2.02286e-06
-2.39902e-06
-1.26267e-06
-2.24201e-06
-6.17294e-07
-1.82831e-06
-1.70801e-07
-1.18486e-06
-3.93614e-07
-2.17995e-07
6.25403e-07
-7.65345e-07
1.73511e-06
-1.53372e-06
2.57179e-06
-2.41995e-06
3.07922e-06
-3.33149e-06
3.25443e-06
-4.18951e-06
3.12426e-06
-4.93003e-06
2.73251e-06
-5.50362e-06
2.13096e-06
-5.87433e-06
1.37395e-06
-6.01879e-06
5.165e-07
-5.92578e-06
-3.85199e-07
-5.59677e-06
-1.27198e-06
-5.04743e-06
-2.08007e-06
-4.30981e-06
-2.74091e-06
-3.43451e-06
-3.18367e-06
-2.4919e-06
-3.34162e-06
-1.57114e-06
-3.16277e-06
-7.75923e-07
-2.62353e-06
-2.16756e-07
-1.74403e-06
-6.1037e-07
-2.64633e-07
8.90035e-07
-9.2227e-07
2.39275e-06
-1.83399e-06
3.48352e-06
-2.87158e-06
4.11681e-06
-3.92533e-06
4.30818e-06
-4.90656e-06
4.10549e-06
-5.74685e-06
3.5728e-06
-6.39561e-06
2.77971e-06
-6.81706e-06
1.79541e-06
-6.98782e-06
6.87253e-07
-6.89552e-06
-4.77492e-07
-6.53922e-06
-1.62828e-06
-5.93134e-06
-2.68795e-06
-5.10123e-06
-3.57101e-06
-4.0995e-06
-4.1854e-06
-3.00183e-06
-4.43929e-06
-1.91059e-06
-4.25402e-06
-9.52097e-07
-3.58202e-06
-2.6813e-07
-2.428e-06
-8.78499e-07
-3.16437e-07
1.20647e-06
-1.0935e-06
3.16981e-06
-2.15613e-06
4.54615e-06
-3.3477e-06
5.30838e-06
-4.54054e-06
5.50103e-06
-5.63742e-06
5.20237e-06
-6.5681e-06
4.50348e-06
-7.28381e-06
3.49542e-06
-7.75157e-06
2.26317e-06
-7.9497e-06
8.85387e-07
-7.86526e-06
-5.61939e-07
-7.49389e-06
-1.99965e-06
-6.84243e-06
-3.33941e-06
-5.93398e-06
-4.47946e-06
-4.81506e-06
-5.30433e-06
-3.56321e-06
-5.69114e-06
-2.29269e-06
-5.52454e-06
-1.15468e-06
-4.72002e-06
-3.28582e-07
-3.2541e-06
-1.20708e-06
-3.75626e-07
1.5821e-06
-1.28354e-06
4.07773e-06
-2.50371e-06
5.76632e-06
-3.84655e-06
6.65122e-06
-5.16642e-06
6.8209e-06
-6.36053e-06
6.39648e-06
-7.36122e-06
5.50417e-06
-8.12613e-06
4.26033e-06
-8.62901e-06
2.76605e-06
-8.85255e-06
1.10893e-06
-8.78427e-06
-6.30218e-07
-8.41568e-06
-2.36824e-06
-7.74519e-06
-4.0099e-06
-6.78491e-06
-5.43974e-06
-5.57113e-06
-6.51811e-06
-4.17705e-06
-7.08521e-06
-2.7248e-06
-6.97679e-06
-1.39137e-06
-6.05345e-06
-4.01691e-07
-4.24378e-06
-1.60877e-06
-4.44754e-07
2.02685e-06
-1.4965e-06
5.12948e-06
-2.87678e-06
7.14659e-06
-4.35765e-06
8.13209e-06
-5.77706e-06
8.24031e-06
-7.03234e-06
7.65176e-06
-8.06547e-06
6.53729e-06
-8.84722e-06
5.04208e-06
-9.36344e-06
3.28228e-06
-9.60502e-06
1.3505e-06
-9.56176e-06
-6.73478e-07
-9.22065e-06
-2.70934e-06
-8.56873e-06
-4.66182e-06
-7.60125e-06
-6.40722e-06
-6.33565e-06
-7.78371e-06
-4.83081e-06
-8.59005e-06
-3.2083e-06
-8.5993e-06
-1.66874e-06
-7.59302e-06
-4.91435e-07
-5.42109e-06
-2.10021e-06
-5.27782e-07
2.55463e-06
-1.73737e-06
6.33907e-06
-3.27195e-06
8.68117e-06
-4.85966e-06
9.71979e-06
-6.32715e-06
9.70781e-06
-7.58178e-06
8.90639e-06
-8.58572e-06
7.54123e-06
-9.33189e-06
5.78825e-06
-9.82517e-06
3.77556e-06
-1.00693e-05
1.59464e-06
-1.00591e-05
-6.83684e-07
-9.77742e-06
-2.99102e-06
-9.1974e-06
-5.24184e-06
-8.29106e-06
-7.31356e-06
-7.04618e-06
-9.02859e-06
-5.49257e-06
-1.01437e-05
-3.73609e-06
-1.03558e-05
-1.99248e-06
-9.33662e-06
-6.03076e-07
-6.81049e-06
-2.70328e-06
-6.31943e-07
3.18658e-06
-2.0139e-06
7.72102e-06
-3.68154e-06
1.03488e-05
-5.31605e-06
1.13543e-05
-6.74494e-06
1.11367e-05
-7.90197e-06
1.00634e-05
-8.78421e-06
8.42347e-06
-9.41778e-06
6.42182e-06
-9.8341e-06
4.19187e-06
-1.00548e-05
1.81533e-06
-1.00828e-05
-6.55624e-07
-9.89859e-06
-3.17528e-06
-9.46026e-06
-5.68017e-06
-8.71133e-06
-8.06249e-06
-7.59803e-06
-1.01419e-05
-6.10165e-06
-1.164e-05
-4.28784e-06
-1.21696e-05
-2.3673e-06
-1.12572e-05
-7.44684e-07
-8.43311e-06
-3.44797e-06
-7.70888e-07
3.95746e-06
-2.338e-06
9.28813e-06
-4.08911e-06
1.20999e-05
-5.6649e-06
1.29301e-05
-6.91894e-06
1.23907e-05
-7.83694e-06
1.09814e-05
-8.46949e-06
9.05602e-06
-8.88724e-06
6.83958e-06
-9.15435e-06
4.45898e-06
-9.31395e-06
1.97493e-06
-9.38027e-06
-5.89305e-07
-9.33402e-06
-3.22153e-06
-9.12058e-06
-5.89361e-06
-8.65325e-06
-8.52983e-06
-7.82711e-06
-1.0968e-05
-6.55277e-06
-1.29144e-05
-4.82007e-06
-1.39023e-05
-2.79512e-06
-1.32821e-05
-9.29609e-07
-1.02986e-05
-4.37758e-06
-9.69492e-07
4.92696e-06
-2.72382e-06
1.10425e-05
-4.45503e-06
1.38311e-05
-5.79548e-06
1.42705e-05
-6.67251e-06
1.32678e-05
-7.15972e-06
1.14686e-05
-7.38101e-06
9.27731e-06
-7.45902e-06
6.91759e-06
-7.49176e-06
4.49172e-06
-7.5435e-06
2.02667e-06
-7.64085e-06
-4.91953e-07
-7.76917e-06
-3.09321e-06
-7.86771e-06
-5.79507e-06
-7.82556e-06
-8.57197e-06
-7.48537e-06
-1.13082e-05
-6.66865e-06
-1.37311e-05
-5.24489e-06
-1.53261e-05
-3.26765e-06
-1.52594e-05
-1.17974e-06
-1.23865e-05
-5.55731e-06
-1.26823e-06
6.19518e-06
-3.17185e-06
1.29461e-05
-4.67655e-06
1.53358e-05
-5.49783e-06
1.50918e-05
-5.71699e-06
1.34869e-05
-5.53758e-06
1.12892e-05
-5.16892e-06
8.90865e-06
-4.78144e-06
6.53012e-06
-4.49739e-06
4.20766e-06
-4.39407e-06
1.92335e-06
-4.50778e-06
-3.78246e-07
-4.83316e-06
-2.76783e-06
-5.31573e-06
-5.3125e-06
-5.83831e-06
-8.04939e-06
-6.20706e-06
-1.09395e-05
-6.15309e-06
-1.37851e-05
-5.38424e-06
-1.60949e-05
-3.74136e-06
-1.69022e-05
-1.52565e-06
-1.46022e-05
-7.08296e-06
-1.71296e-06
7.90814e-06
-3.60628e-06
1.48394e-05
-4.48789e-06
1.62175e-05
-4.3615e-06
1.49654e-05
-3.57294e-06
1.26984e-05
-2.48321e-06
1.01995e-05
-1.37293e-06
7.79836e-06
-4.32716e-07
5.5899e-06
2.17289e-07
3.55766e-06
5.05515e-07
1.63512e-06
3.94318e-07
-2.67049e-07
-1.23519e-07
-2.24999e-06
-1.01676e-06
-4.41925e-06
-2.19382e-06
-6.87233e-06
-3.46701e-06
-9.66628e-06
-4.51412e-06
-1.2738e-05
-4.87435e-06
-1.57347e-05
-4.06268e-06
-1.77139e-05
-1.98556e-06
-1.66794e-05
-9.06852e-06
-2.29152e-06
1.01997e-05
-3.68128e-06
1.62292e-05
-3.23214e-06
1.57683e-05
-1.59204e-06
1.33253e-05
5.4406e-07
1.05623e-05
2.69739e-06
8.04616e-06
4.58548e-06
5.91028e-06
6.05919e-06
4.11619e-06
7.04463e-06
2.57222e-06
7.50336e-06
1.17639e-06
7.41027e-06
-1.73959e-07
6.7458e-06
-1.58552e-06
5.50124e-06
-3.1747e-06
3.70267e-06
-5.07376e-06
1.46047e-06
-7.42408e-06
-9.48063e-07
-1.03294e-05
-2.9785e-06
-1.37043e-05
-3.77604e-06
-1.69164e-05
-2.48511e-06
-1.79703e-05
-1.15536e-05
-2.70807e-06
1.29077e-05
-2.25449e-06
1.57756e-05
6.06762e-07
1.29071e-05
4.27724e-06
9.65483e-06
7.84864e-06
6.99088e-06
1.09234e-05
4.97136e-06
1.33651e-05
3.46861e-06
1.51542e-05
2.32714e-06
1.63103e-05
1.41613e-06
1.68527e-05
6.33996e-07
1.67815e-05
-1.028e-07
1.60701e-05
-8.74103e-07
1.46648e-05
-1.76946e-06
1.24976e-05
-2.90655e-06
9.5241e-06
-4.45055e-06
5.81664e-06
-6.62196e-06
1.75301e-06
-9.64062e-06
-1.66823e-06
-1.34951e-05
-2.61522e-06
-1.70233e-05
-1.41689e-05
-5.79787e-07
1.34875e-05
4.10239e-06
1.10934e-05
1.02446e-05
6.76488e-06
1.56779e-05
4.22147e-06
1.99734e-05
2.69547e-06
2.32034e-05
1.74133e-06
2.55422e-05
1.12983e-06
2.71511e-05
7.18167e-07
2.81489e-05
4.18334e-07
2.86065e-05
1.76454e-07
2.85486e-05
-4.49531e-08
2.79507e-05
-2.76183e-07
2.67359e-05
-5.54713e-07
2.4764e-05
-9.34636e-07
2.18242e-05
-1.51068e-06
1.76557e-05
-2.45354e-06
1.20808e-05
-4.06572e-06
5.47704e-06
-6.89132e-06
8.43276e-08
-1.16306e-05
-1.40845e-05
1.34875e-05
2.45809e-05
3.13458e-05
3.55673e-05
3.82627e-05
4.00041e-05
4.11339e-05
4.18521e-05
4.22704e-05
4.24469e-05
4.24019e-05
4.21257e-05
4.1571e-05
4.06364e-05
3.91257e-05
3.66722e-05
3.26064e-05
2.57151e-05
1.40845e-05
)
;

boundaryField
{
    movingWall
    {
        type            calculated;
        value           uniform 0;
    }
    fixedWalls
    {
        type            calculated;
        value           uniform 0;
    }
    frontAndBack
    {
        type            empty;
        value           nonuniform 0();
    }
}


// ************************************************************************* //
