/*--------------------------------*- C++ -*----------------------------------*\
  =========                 |
  \\      /  F ield         | OpenFOAM: The Open Source CFD Toolbox
   \\    /   O peration     | Website:  https://openfoam.org
    \\  /    A nd           | Version:  7
     \\/     M anipulation  |
\*---------------------------------------------------------------------------*/
FoamFile
{
    version     2.0;
    format      ascii;
    class       volScalarField;
    location    "89.6";
    object      p;
}
// * * * * * * * * * * * * * * * * * * * * * * * * * * * * * * * * * * * * * //

dimensions      [0 2 -2 0 0 0 0];

internalField   nonuniform List<scalar> 
2000
(
0.00830478
0.00838737
0.00854588
0.00874401
0.00895484
0.00916151
0.00935235
0.00952169
0.00966855
0.00977938
0.00832823
0.00845323
0.00862856
0.00884355
0.00907096
0.00929332
0.00949801
0.00967831
0.00983303
0.00994025
0.00832734
0.00850421
0.00869674
0.00892715
0.00916818
0.00940242
0.00961703
0.00980496
0.00996576
0.0100684
0.00830691
0.00854259
0.0087525
0.00899594
0.00924635
0.00948709
0.00970584
0.00989586
0.0100584
0.010154
0.00827362
0.00857307
0.00879911
0.00905195
0.00930622
0.00954664
0.00976205
0.00994666
0.0101042
0.0101884
0.00823618
0.00860093
0.00884054
0.00909804
0.00934961
0.00958175
0.00978515
0.00995543
0.0100991
0.0101654
0.0082046
0.00863197
0.00888134
0.00913779
0.00937939
0.0095948
0.00977701
0.00992351
0.0100434
0.0100841
0.00818976
0.00867252
0.00892659
0.00917555
0.00939969
0.00959008
0.00974247
0.00985654
0.00994389
0.00995152
0.00820292
0.00872921
0.00898181
0.00921638
0.00941581
0.00957391
0.00968967
0.00976577
0.00981723
0.00978834
0.00825513
0.00880876
0.00905295
0.00926608
0.00943403
0.00955378
0.00962825
0.00966467
0.00968469
0.00963342
0.00991803
0.0106998
0.0115499
0.0129742
0.0145028
0.0163299
0.0175725
0.0194029
0.0193611
0.0206722
0.01
0.0107112
0.0113421
0.0125702
0.0139344
0.0156231
0.0167688
0.0184622
0.0185327
0.019659
0.0100344
0.0107093
0.0111403
0.0121788
0.0133871
0.0149468
0.0160025
0.0175968
0.0177188
0.0187234
0.0100144
0.0106799
0.0109423
0.0118008
0.0128616
0.0143007
0.015277
0.0167883
0.0169274
0.0178701
0.00993741
0.0106084
0.0107435
0.011436
0.012359
0.0136853
0.0145921
0.0160296
0.0161817
0.0170978
0.00980576
0.0104835
0.0105366
0.011083
0.0118794
0.0130994
0.0139419
0.0153078
0.0154741
0.0163884
0.00962861
0.0103002
0.0103132
0.0107389
0.0114234
0.0125461
0.0133332
0.014637
0.0148268
0.0157478
0.00941445
0.0100501
0.0100611
0.0104003
0.0109873
0.0120131
0.0127441
0.0139775
0.0141923
0.0151516
0.00915471
0.00971999
0.00975507
0.0100576
0.0105886
0.0115384
0.0122305
0.0134022
0.0136448
0.0146269
0.00895102
0.00944691
0.00947824
0.00970737
0.0101539
0.0110087
0.0116544
0.0127407
0.0130435
0.0141128
0.00947811
0.00996682
0.0102152
0.0103497
0.0104888
0.0109018
0.011326
0.01208
0.0123263
0.0131002
0.0075472
0.00799861
0.00839015
0.00874856
0.00910125
0.00956397
0.00999341
0.0105926
0.0107865
0.0112415
0.00607291
0.00648974
0.00685486
0.00717851
0.00750822
0.00796048
0.00838954
0.00893677
0.00910976
0.00941357
0.00458411
0.0050052
0.00542507
0.00578167
0.0060999
0.00649894
0.00687678
0.00735572
0.00750528
0.00774219
0.00318895
0.00358061
0.00404318
0.00446522
0.00482767
0.00520546
0.00553435
0.00593577
0.00605893
0.00626238
0.00197917
0.00232587
0.00278856
0.00324593
0.00365429
0.00404275
0.00435499
0.00469861
0.00479709
0.00496087
0.00100546
0.0013021
0.00173543
0.00218127
0.00258918
0.00296782
0.00326315
0.00356509
0.00364868
0.00378117
0.000293826
0.000532548
0.000913413
0.00131481
0.00168187
0.00201768
0.00227648
0.00253318
0.00259208
0.00268087
-8.57583e-05
5.5903e-05
0.000351838
0.000656124
0.000920568
0.00115904
0.00133568
0.00152676
0.00155645
0.00161135
-0.000606544
-0.000288482
-2.46848e-05
0.000171654
0.000307983
0.000422092
0.000487158
0.000579288
0.000559105
0.00055636
0.00890037
0.00727517
0.00586137
0.00442152
0.00308542
0.00192086
0.000984456
0.000275679
-5.92631e-05
-0.000600095
0.00857288
0.00701855
0.00562502
0.00422692
0.00294484
0.00183146
0.000940457
0.000265006
-4.66737e-05
-0.000519193
0.00825257
0.006788
0.00541493
0.00405951
0.00282592
0.00176083
0.000912079
0.000272501
-2.45703e-05
-0.000417948
0.00800409
0.00662815
0.00527263
0.00395467
0.00276311
0.0017354
0.000918417
0.000305323
1.18218e-05
-0.000322638
0.00783011
0.00652206
0.00518147
0.00389724
0.00274048
0.00174416
0.000952074
0.000358225
6.00012e-05
-0.00023537
0.00773382
0.00646673
0.00513834
0.0038804
0.00275242
0.00178136
0.00100785
0.000426698
0.000116936
-0.000156092
0.00772274
0.00645878
0.00514111
0.00390184
0.00279623
0.00184392
0.0010825
0.000507343
0.000180054
-8.54284e-05
0.00778254
0.00649514
0.00518586
0.00395765
0.00286806
0.00192818
0.00117261
0.000596972
0.000247092
-2.34365e-05
0.0079026
0.00657156
0.00526764
0.00404331
0.00296361
0.00203022
0.00127467
0.000692672
0.000316143
3.05339e-05
0.00807057
0.00668259
0.00538072
0.00415403
0.00307847
0.00214623
0.00138542
0.000791968
0.000385711
7.74801e-05
0.00827152
0.00682011
0.00551769
0.00428417
0.0032078
0.00227235
0.00150181
0.000892791
0.000454658
0.000118405
0.00849457
0.00697783
0.00567299
0.00442973
0.00334806
0.00240579
0.00162164
0.000993746
0.000522303
0.000154234
0.00873303
0.00715287
0.00584327
0.00458865
0.00349713
0.00254487
0.00174361
0.00109409
0.00058838
0.00018589
0.00898043
0.00734263
0.00602502
0.00475886
0.00365311
0.00268818
0.00186674
0.00119339
0.000652836
0.000214144
0.00923143
0.00754568
0.00621538
0.0049387
0.00381459
0.00283466
0.00199044
0.00129148
0.000715761
0.000239623
0.00948124
0.00776127
0.00641181
0.00512656
0.00398044
0.00298345
0.00211432
0.00138831
0.000777327
0.000262838
0.00972266
0.00798699
0.00661127
0.00532022
0.00414948
0.00313368
0.00223807
0.00148389
0.000837748
0.000284238
0.00995105
0.00822642
0.00681649
0.00552156
0.00432353
0.00328658
0.00236265
0.00157896
0.000897556
0.000304293
0.0101869
0.00851014
0.00704769
0.00574402
0.00451235
0.00344842
0.00249202
0.0016758
0.000957855
0.000323147
0.0103574
0.00878697
0.0072728
0.00595932
0.00469854
0.00360577
0.00261814
0.00176938
0.0010163
0.000339326
0.00991102
0.00886857
0.00750288
0.00624335
0.00500271
0.00388306
0.00286036
0.0019558
0.00113841
0.00037898
0.0098575
0.00881978
0.00750069
0.00631771
0.00511884
0.00403197
0.00301207
0.0020923
0.00123504
0.000417984
0.0100831
0.00902188
0.00769024
0.00652384
0.00531919
0.00422568
0.00318063
0.00223091
0.0013319
0.000461574
0.010547
0.00935838
0.00796809
0.00677503
0.00554097
0.00442469
0.00334583
0.00236554
0.00143014
0.000512348
0.0112415
0.00985012
0.00835989
0.00709325
0.00580404
0.00464292
0.00352002
0.00250588
0.00153653
0.000571698
0.01211
0.0104807
0.00886203
0.00747965
0.00611326
0.00488553
0.00370997
0.00265502
0.00164911
0.000632362
0.0130492
0.0111841
0.00942699
0.00790675
0.00645219
0.00514472
0.00391239
0.00280661
0.00175235
0.000674801
0.0139313
0.0118568
0.00996894
0.0083158
0.00677808
0.00539394
0.00410749
0.0029421
0.00182593
0.000684958
0.0146231
0.0123843
0.0103924
0.00863694
0.00703618
0.00559366
0.00426377
0.00304208
0.00186445
0.000670589
0.0150059
0.0126719
0.0106222
0.00881196
0.00717864
0.00570582
0.00435225
0.00309501
0.00187698
0.000653154
0.0108693
0.0108254
0.0111155
0.0116582
0.0124363
0.0133863
0.0144226
0.0154208
0.0162286
0.0166868
0.0110236
0.0111242
0.011509
0.0121394
0.0129958
0.0140091
0.0150958
0.0161305
0.0169611
0.0174326
0.01104
0.0113078
0.011827
0.0125864
0.0135595
0.0146746
0.0158404
0.0169205
0.0177645
0.0182368
0.0111062
0.0115035
0.0121335
0.0130065
0.014086
0.0153036
0.0165615
0.0177109
0.0185945
0.0190868
0.0112179
0.0117498
0.0124825
0.0134568
0.014629
0.0159371
0.0172819
0.0185067
0.0194452
0.019971
0.0113433
0.0120233
0.0128728
0.0139535
0.0152201
0.0166157
0.018041
0.0193361
0.0203282
0.0208877
0.01148
0.0123104
0.0132907
0.0144873
0.0158573
0.0173466
0.0188532
0.0202144
0.0212536
0.0218406
0.011636
0.0126131
0.0137326
0.01505
0.016531
0.0181213
0.019714
0.021142
0.0222247
0.0228336
0.0118156
0.0129341
0.0141999
0.0156394
0.0172361
0.0189325
0.0206163
0.0221142
0.0232406
0.0238686
0.0120205
0.0132721
0.0146921
0.0162537
0.0179706
0.0197767
0.021556
0.0231277
0.0243002
0.0249461
0.0122523
0.0136226
0.0152065
0.0168894
0.0187319
0.0206516
0.0225313
0.0241811
0.0254028
0.0260665
0.0125091
0.0139804
0.0157379
0.0175403
0.0195153
0.0215532
0.0235397
0.0252732
0.0265484
0.0272305
0.0127823
0.0143419
0.0162774
0.0182006
0.0203148
0.022478
0.0245791
0.0264031
0.0277384
0.0284402
0.0130554
0.0147079
0.0168122
0.0188645
0.0211227
0.0234207
0.0256454
0.0275702
0.028976
0.0297001
0.0132892
0.0150775
0.0173372
0.0195305
0.0219351
0.0243783
0.0267367
0.028771
0.030254
0.0310065
0.0134927
0.0154399
0.0178345
0.0201801
0.0227394
0.0253396
0.0278448
0.03
0.031569
0.0323578
0.0136534
0.0157795
0.0182961
0.0208031
0.0235272
0.0262988
0.028966
0.031256
0.0329218
0.0337559
0.0137454
0.0160877
0.0187139
0.0213884
0.0242845
0.0272408
0.0300864
0.0325295
0.0343079
0.0352001
0.013745
0.0163586
0.0190882
0.0219424
0.0250246
0.0281822
0.0312208
0.0338299
0.0357326
0.0366958
0.0135883
0.0165311
0.0193535
0.0223745
0.0256398
0.0290136
0.032279
0.0350993
0.0371677
0.0382312
0.0142151
0.0179715
0.0211287
0.0245035
0.0280899
0.0317865
0.0353716
0.0385024
0.0408325
0.0420753
0.0178656
0.0215053
0.0248822
0.028803
0.0329667
0.037256
0.0413798
0.0449452
0.0475721
0.0489529
0.0219091
0.025727
0.0294909
0.0340089
0.0387657
0.0436658
0.0483001
0.0522384
0.0550989
0.0566052
0.0261959
0.0304235
0.0347993
0.0400017
0.0453976
0.0509256
0.0560256
0.060263
0.0632628
0.0647767
0.0307558
0.0355083
0.0405929
0.0465211
0.0525877
0.0587394
0.0642502
0.0687172
0.0717837
0.0733519
0.0356804
0.0409746
0.0468255
0.0534951
0.0602517
0.0670202
0.0729037
0.0775235
0.0804595
0.0816675
0.0405044
0.0464475
0.053011
0.0603426
0.0677506
0.07507
0.0812919
0.0860128
0.088685
0.0898099
0.0453714
0.0517047
0.0589569
0.0669716
0.0750698
0.0829637
0.0896518
0.0946374
0.0968321
0.0958452
0.0479956
0.0551574
0.0630438
0.0716223
0.0802564
0.0885615
0.0955122
0.100508
0.101561
0.10312
0.0515048
0.0587813
0.0671193
0.076192
0.0855325
0.0945816
0.10288
0.109892
0.112305
0.0956271
0.0130699
0.0166018
0.0202508
0.0242142
0.0282976
0.0330225
0.0371651
0.0421479
0.0440981
0.0475505
0.0126724
0.0163717
0.0199574
0.0238565
0.027778
0.0323558
0.0362179
0.0410771
0.0427124
0.0461171
0.0124898
0.0163771
0.0199408
0.0238143
0.0276378
0.0320357
0.0356763
0.0402329
0.041685
0.0448538
0.0122676
0.0162298
0.0197594
0.0235719
0.0273401
0.0315688
0.0350588
0.0393261
0.0407719
0.0435896
0.0120242
0.0159825
0.0194683
0.0231987
0.0268937
0.0309658
0.0343513
0.0383458
0.0398765
0.0423423
0.011781
0.0157068
0.0191603
0.0228182
0.0264312
0.030341
0.0336611
0.0373666
0.0390264
0.041173
0.011536
0.0154151
0.0188531
0.022458
0.0260019
0.0297713
0.0330213
0.0364892
0.0382223
0.0401148
0.0112897
0.0151102
0.018544
0.0221113
0.025603
0.0292654
0.0324403
0.0357308
0.0374904
0.0391738
0.0110488
0.0148003
0.0182378
0.0217795
0.0252317
0.0288157
0.0319225
0.0350765
0.0368375
0.0383718
0.0108203
0.0144947
0.0179437
0.021472
0.0248955
0.0284231
0.031475
0.0345172
0.0362722
0.0377087
0.0106104
0.0142015
0.0176703
0.0211978
0.0246049
0.0280933
0.0311056
0.0340546
0.0358034
0.0371747
0.0104162
0.0139212
0.0174206
0.0209599
0.0243653
0.0278313
0.0308201
0.0336932
0.0354367
0.0367607
0.0102281
0.0136519
0.0171939
0.0207582
0.0241786
0.02764
0.030622
0.0334363
0.0351747
0.036464
0.0100374
0.0133963
0.0169901
0.0205932
0.0240457
0.0275212
0.030513
0.0332851
0.0350157
0.0362843
0.00983332
0.013157
0.0168079
0.0204646
0.0239665
0.0274755
0.0304938
0.0332405
0.0349586
0.0362274
0.00960133
0.0129328
0.0166428
0.0203697
0.0239387
0.0275007
0.0305628
0.033301
0.0349933
0.0362965
0.00932558
0.0127185
0.0164876
0.0203032
0.0239591
0.0275949
0.0307209
0.0334701
0.0351227
0.0365068
0.00899149
0.012505
0.0163329
0.020256
0.0240179
0.0277462
0.030957
0.0337373
0.0353134
0.0368622
0.0085526
0.0122668
0.0161735
0.0202301
0.0241237
0.0279699
0.0312906
0.0341275
0.03561
0.03739
0.00802081
0.0119394
0.015939
0.0201428
0.0241834
0.0281658
0.0316286
0.0345624
0.0358898
0.0380687
0.00902103
0.013038
0.0169298
0.0212202
0.0254889
0.0296527
0.0332946
0.0363912
0.0375584
0.0401346
0.0113447
0.0156123
0.0197608
0.0244548
0.0291565
0.0337691
0.0378506
0.0412968
0.0428137
0.0450852
0.0146311
0.0192204
0.023781
0.0290238
0.0342851
0.0395191
0.0441901
0.0480404
0.050268
0.0521931
0.0185573
0.0235594
0.0286567
0.03461
0.0406525
0.0467819
0.0523402
0.0570043
0.0602922
0.0625969
0.0226912
0.0281899
0.0339722
0.0408026
0.0478518
0.0551853
0.0620587
0.068206
0.0732463
0.0773424
0.0269966
0.0329762
0.0396012
0.0474409
0.0557233
0.0646035
0.073394
0.0822213
0.0910354
0.099716
0.0304465
0.0371405
0.0446794
0.0535728
0.0633187
0.0741684
0.085706
0.0989757
0.114793
0.133786
0.0342407
0.0414979
0.0499541
0.0599704
0.071359
0.084644
0.100091
0.120648
0.150084
0.19068
0.0352352
0.0426596
0.0514854
0.0621853
0.0752028
0.091684
0.113616
0.146104
0.198412
0.278527
0.0376819
0.0464367
0.0568242
0.0697593
0.086449
0.108784
0.140491
0.19003
0.27539
0.40707
0.00891143
0.0110481
0.0137454
0.0170143
0.0202941
0.0241866
0.0268945
0.0305388
0.0313692
0.0331733
0.00876973
0.0109183
0.013521
0.0166367
0.0196739
0.0233529
0.025774
0.0292855
0.0299522
0.0319202
0.00878466
0.0108831
0.0134051
0.0164121
0.0193115
0.0227634
0.0249772
0.0282481
0.0286908
0.0310396
0.00887575
0.0108337
0.0132008
0.0160527
0.0187954
0.0220364
0.0240875
0.0271413
0.0273842
0.0298436
0.0090031
0.0107804
0.0129477
0.0156211
0.0181664
0.02119
0.0230736
0.0259546
0.0260246
0.0283394
0.00915427
0.0107369
0.0126954
0.0151755
0.0175292
0.0203279
0.0220338
0.0247667
0.024683
0.0267655
0.00931955
0.0107056
0.0124533
0.0147106
0.016925
0.0194919
0.0210345
0.0236287
0.0234173
0.0253024
0.00948874
0.0106868
0.0122178
0.0142565
0.0163144
0.0186751
0.020098
0.0225416
0.0222489
0.0240011
0.00965171
0.010681
0.0119881
0.0138172
0.0156984
0.0178559
0.0192344
0.0214779
0.0211827
0.0228298
0.00979824
0.0106868
0.0117651
0.0133899
0.0150916
0.0170719
0.0183989
0.0204207
0.0202237
0.0217329
0.00835795
0.00891849
0.00914674
0.00933133
0.00946148
0.00953737
0.00956576
0.00955753
0.00953986
0.00948266
0.00852768
0.00906784
0.00927071
0.00941934
0.00950589
0.00953321
0.00951065
0.00945047
0.00937861
0.00926749
0.00876897
0.00926124
0.00943042
0.00953688
0.00957551
0.00955143
0.00947601
0.00936286
0.00923827
0.0090763
0.00908643
0.00950345
0.00963142
0.0096904
0.00967799
0.00960126
0.00947311
0.00930834
0.00913326
0.00892427
0.00948263
0.00979804
0.00987786
0.00988487
0.00981924
0.00968971
0.0095102
0.00929612
0.00907277
0.00882107
0.00995619
0.010146
0.0101715
0.0101228
0.0100025
0.00982082
0.009592
0.00933147
0.00906267
0.00877872
0.0105014
0.0105449
0.010511
0.0104036
0.0102279
0.00999511
0.00971938
0.00941642
0.00910651
0.00877211
0.0111082
0.0109889
0.0108917
0.0107232
0.010492
0.0102096
0.00988989
0.00954792
0.00919987
0.00882758
0.0117605
0.0114692
0.0113051
0.0110741
0.0107878
0.010458
0.0100974
0.00971991
0.00933774
0.00893678
0.0124334
0.0119696
0.0117382
0.0114451
0.0111053
0.0107307
0.0103327
0.0099236
0.00951207
0.00908932
0.013091
0.0124677
0.012174
0.0118221
0.0114321
0.0110164
0.0105851
0.0101485
0.00971276
0.00927443
0.0137419
0.012958
0.0126015
0.0121924
0.0117554
0.0113026
0.0108425
0.010383
0.00992872
0.00948104
0.0143539
0.0134173
0.0130016
0.0125401
0.0120614
0.011577
0.0110934
0.0106163
0.0101493
0.00969873
0.0148982
0.013824
0.0133565
0.0128499
0.0123366
0.0118276
0.0113268
0.0108379
0.0103643
0.00991771
0.015351
0.0141591
0.0136496
0.0131077
0.012569
0.0120434
0.0115328
0.0110385
0.0105648
0.0101293
0.0156913
0.0144054
0.0138663
0.0133011
0.0127479
0.0122153
0.0117031
0.0112104
0.010743
0.0103257
0.0159018
0.0145484
0.0139944
0.0134204
0.0128652
0.0123363
0.0118317
0.011348
0.0108926
0.0104998
0.0159694
0.0145774
0.0140253
0.0134586
0.0129154
0.0124022
0.0119152
0.0114483
0.0110085
0.0106417
0.0158862
0.0144856
0.0139536
0.0134119
0.0128961
0.0124112
0.0119521
0.0115082
0.0110803
0.0107328
0.0156498
0.014271
0.0137776
0.0132796
0.012808
0.0123659
0.0119465
0.0115323
0.0111143
0.0107799
0.0152617
0.0139348
0.0134986
0.0130634
0.0126541
0.0122738
0.0119188
0.0115812
0.0112736
0.0110894
0.0147213
0.0134802
0.0131197
0.0127649
0.0124332
0.0121266
0.0118434
0.0115816
0.0113567
0.0112251
0.0140448
0.0129185
0.0126489
0.0123889
0.0121463
0.0119214
0.0117131
0.0115226
0.011362
0.0112562
0.0132511
0.0122643
0.0120968
0.0119428
0.0117993
0.0116636
0.0115361
0.0114204
0.0113261
0.0112625
0.0123615
0.0115343
0.0114768
0.0114374
0.0114009
0.0113618
0.0113215
0.0112858
0.0112628
0.0112553
0.0114003
0.0107478
0.0108045
0.0108853
0.0109618
0.0110253
0.0110779
0.0111272
0.0111801
0.011237
0.010394
0.00992581
0.010097
0.0103003
0.0104937
0.0106643
0.0108145
0.0109529
0.0110865
0.0112152
0.0093688
0.00908906
0.00937188
0.0096968
0.0100084
0.0102887
0.0105399
0.010771
0.0109896
0.0111967
0.0083508
0.00825734
0.00864594
0.00908855
0.00951715
0.00990798
0.0102619
0.0105882
0.0108949
0.0111859
0.00737431
0.00745318
0.00793664
0.00848918
0.00903045
0.0095302
0.00998712
0.0104097
0.0108063
0.0111852
0.00648844
0.00670937
0.00726619
0.00791486
0.00855982
0.00916368
0.00972139
0.0102395
0.0107261
0.0111951
0.00564526
0.00600945
0.00663183
0.00736893
0.00810931
0.00881189
0.00946706
0.010079
0.0106538
0.0112123
0.00487219
0.00537024
0.00604945
0.00685844
0.00768495
0.00847891
0.00922606
0.00992828
0.0105883
0.0112295
0.00418787
0.00480417
0.00552608
0.00639286
0.00729215
0.00816688
0.00899891
0.00978637
0.0105291
0.0112353
0.00359926
0.00431669
0.00506691
0.00597602
0.0069335
0.0078777
0.00878568
0.00964976
0.0104625
0.0112522
0.00310895
0.00390974
0.00467488
0.00561043
0.00661088
0.00761195
0.00858597
0.00951948
0.0103959
0.0112479
0.00271687
0.00358307
0.00435094
0.0052974
0.00632524
0.0073697
0.00839903
0.00939382
0.0103253
0.0112221
0.00242032
0.00333438
0.00409416
0.00503694
0.00607665
0.00715065
0.00822434
0.00927311
0.0102532
0.0111778
0.00221442
0.00315975
0.00390214
0.00482785
0.00586433
0.00695397
0.00806132
0.00915957
0.0101908
0.0111311
0.00209301
0.00305412
0.0037713
0.00466794
0.00568663
0.00677766
0.00790648
0.00904812
0.010147
0.0111221
0.00204739
0.00301066
0.00369625
0.00455335
0.00554049
0.00661924
0.00776045
0.00895433
0.0102262
0.011508
0.00205971
0.00301828
0.00367
0.00447999
0.00542192
0.00646837
0.00759255
0.00877721
0.0100454
0.011313
0.00213015
0.00307459
0.00368948
0.00444568
0.00532977
0.00632416
0.00740457
0.00854628
0.00975883
0.0109666
0.00225267
0.00317383
0.00375004
0.00444838
0.00526621
0.00619575
0.0072184
0.00831015
0.00947386
0.0106331
0.00241863
0.00330912
0.0038465
0.00448582
0.00523326
0.00609078
0.00704728
0.00808281
0.00919671
0.0103125
0.00261987
0.00347406
0.00397371
0.00455515
0.00523125
0.00601293
0.00689708
0.00786869
0.00892542
0.00999675
0.00284897
0.00366277
0.00412659
0.00465293
0.00525916
0.00596387
0.0067718
0.00767353
0.00866625
0.00968949
0.00309911
0.00386968
0.00430007
0.0047752
0.00531491
0.00594386
0.00667412
0.00750211
0.00842543
0.00939605
0.00336431
0.00408969
0.00448912
0.00491757
0.00539544
0.00595172
0.00660487
0.00735711
0.00820698
0.00912069
0.00364099
0.00432012
0.00469066
0.00507676
0.00549787
0.0059856
0.00656365
0.00723961
0.00801325
0.00886634
0.00392785
0.00456166
0.00490531
0.00525298
0.0056222
0.00604574
0.00655128
0.00715125
0.00784646
0.00863495
0.00421147
0.00480117
0.0051205
0.00543456
0.00575815
0.00612369
0.00656148
0.00708798
0.00770435
0.008424
0.00449227
0.00503944
0.00533628
0.00562056
0.00590393
0.00621724
0.00659209
0.00704802
0.00758561
0.00823126
0.00476979
0.0052758
0.00555144
0.00580902
0.00605686
0.00632337
0.00664018
0.00702885
0.00748826
0.00805447
0.00504308
0.00550887
0.0057642
0.00599755
0.006214
0.00643884
0.00670261
0.00702773
0.00741008
0.00789106
0.00531182
0.00573787
0.00597341
0.00618449
0.00637311
0.00656104
0.00677679
0.00704249
0.00734937
0.00773863
0.00557627
0.00596257
0.00617869
0.00636906
0.0065329
0.00668835
0.00686119
0.00707232
0.00730649
0.00759668
0.00583698
0.00618316
0.00638025
0.00655141
0.00669331
0.00682043
0.00695552
0.00711791
0.00728409
0.00746638
0.00609442
0.00639998
0.00657883
0.00673276
0.00685608
0.00695974
0.00706282
0.00718223
0.00728449
0.0073417
0.00634854
0.00661325
0.0067754
0.00691514
0.00702524
0.00711437
0.00719891
0.00729486
0.00736902
0.00733019
0.0065991
0.00682304
0.00697049
0.00709983
0.00720353
0.0072912
0.00738371
0.00751857
0.00776497
0.00816839
0.00684698
0.00702926
0.00716386
0.00728627
0.00738796
0.00747754
0.00757459
0.00771324
0.00795657
0.00831446
0.00708786
0.00723025
0.00735446
0.00747325
0.00757615
0.00766892
0.0077671
0.00789695
0.0081017
0.00837682
0.00731788
0.007424
0.00754076
0.00765931
0.00776691
0.00786589
0.00796769
0.00809275
0.00827112
0.00849343
0.0075341
0.00760748
0.00772077
0.0078425
0.00795819
0.00806661
0.00817487
0.00829806
0.00845679
0.00864265
0.00773094
0.0077796
0.00789204
0.00802041
0.00814721
0.00826787
0.00838524
0.00850906
0.00865326
0.00881288
0.00790472
0.00793744
0.00805249
0.00819025
0.00833094
0.00846628
0.00859521
0.00872304
0.00885859
0.00899987
0.00805205
0.00807876
0.00819974
0.00834963
0.00850632
0.00865835
0.00880117
0.00893631
0.00906882
0.00919763
0.00817014
0.00820202
0.008332
0.00849618
0.00867036
0.00884044
0.00899887
0.00914408
0.0092783
0.00939882
0.00825579
0.00830561
0.00844783
0.00862807
0.00882051
0.00900909
0.00918391
0.00934099
0.0094805
0.00959549
)
;

boundaryField
{
    inlet
    {
        type            zeroGradient;
    }
    outlet
    {
        type            fixedValue;
        value           uniform 0;
    }
    cylinder
    {
        type            zeroGradient;
    }
    top
    {
        type            symmetryPlane;
    }
    bottom
    {
        type            symmetryPlane;
    }
    defaultFaces
    {
        type            empty;
    }
}


// ************************************************************************* //
