-0.362837 	0.362837 	0.5 	0.0200899 	0.0187882 	2.55449e-23
-0.380512 	0.380512 	0.5 	0.0552996 	0.0483173 	7.92698e-21
-0.398188 	0.398188 	0.5 	0.0875102 	0.070458 	-4.03922e-21
-0.415863 	0.415863 	0.5 	0.116472 	0.0870133 	3.25705e-20
-0.433538 	0.433538 	0.5 	0.142594 	0.0988811 	0
-0.451213 	0.451213 	0.5 	0.166117 	0.106915 	2.50826e-20
-0.468888 	0.468888 	0.5 	0.187286 	0.111799 	4.2359e-20
-0.486563 	0.486563 	0.5 	0.206328 	0.114101 	2.56432e-20
-0.504238 	0.504238 	0.5 	0.223452 	0.114294 	-1.72109e-20
-0.521913 	0.521913 	0.5 	0.238853 	0.112774 	-4.35525e-20
-0.539588 	0.539588 	0.5 	0.252709 	0.109874 	0
-0.557263 	0.557263 	0.5 	0.265185 	0.105872 	3.52593e-20
-0.574938 	0.574938 	0.5 	0.276431 	0.101003 	1.77441e-20
-0.592613 	0.592613 	0.5 	0.286582 	0.0954633 	-9.78625e-23
-0.610288 	0.610288 	0.5 	0.295765 	0.0894171 	3.68779e-23
-0.627963 	0.627963 	0.5 	0.30409 	0.0830014 	7.15224e-20
-0.645638 	0.645638 	0.5 	0.311658 	0.0763295 	-1.79372e-20
-0.663313 	0.663313 	0.5 	0.31856 	0.0694949 	5.36453e-20
-0.680988 	0.680988 	0.5 	0.324875 	0.0625739 	-1.79231e-20
-0.698663 	0.698663 	0.5 	0.330676 	0.0556283 	5.35248e-20
-0.716338 	0.716338 	0.5 	0.336026 	0.0487073 	-3.5677e-20
-0.734013 	0.734013 	0.5 	0.34098 	0.0418499 	5.33e-20
-0.751688 	0.751688 	0.5 	0.345588 	0.0350862 	1.77096e-20
-0.769363 	0.769363 	0.5 	0.349893 	0.0284391 	-5.29158e-20
-0.787038 	0.787038 	0.5 	0.353934 	0.021925 	0
-0.804713 	0.804713 	0.5 	0.357742 	0.0155554 	-3.49132e-20
-0.822388 	0.822388 	0.5 	0.361347 	0.00933764 	0
-0.840063 	0.840063 	0.5 	0.364774 	0.00327557 	-3.45333e-20
-0.857738 	0.857738 	0.5 	0.368046 	-0.00262977 	0
-0.875413 	0.875413 	0.5 	0.371182 	-0.00837958 	3.41064e-20
-0.893088 	0.893088 	0.5 	0.374199 	-0.013977 	0
-0.910763 	0.910763 	0.5 	0.377112 	-0.0194265 	3.36404e-20
-0.928438 	0.928438 	0.5 	0.379937 	-0.0247343 	-3.33946e-20
-0.946113 	0.946113 	0.5 	0.382688 	-0.0299081 	0
-0.963788 	0.963788 	0.5 	0.38538 	-0.0349571 	-3.288e-20
-0.981463 	0.981463 	0.5 	0.388031 	-0.0398901 	3.2612e-20
-0.999138 	0.999138 	0.5 	0.390666 	-0.0447194 	0
-1.01681 	1.01681 	0.5 	0.393362 	-0.0494933 	0
-1.03449 	1.03449 	0.5 	0.396311 	-0.0542522 	-3.17493e-20
-1.05216 	1.05216 	0.5 	0.399735 	-0.0585537 	-3.69871e-20
-1.061 	1.061 	0.5 	0.412172 	-0.0669593 	3.04537e-20
-1.12274 	1.12274 	0.5 	0.401648 	-0.0704415 	0
-1.18448 	1.18448 	0.5 	0.399291 	-0.0893583 	0
-1.24621 	1.24621 	0.5 	0.417688 	-0.100292 	0
-1.30795 	1.30795 	0.5 	0.435314 	-0.106812 	0
-1.36969 	1.36969 	0.5 	0.429296 	-0.123593 	0
-1.43142 	1.43142 	0.5 	0.446094 	-0.128924 	0
-1.49316 	1.49316 	0.5 	0.440706 	-0.145465 	0
-1.5549 	1.5549 	0.5 	0.435892 	-0.161997 	0
-1.61664 	1.61664 	0.5 	0.452127 	-0.166723 	0
-1.67838 	1.67838 	0.5 	0.447519 	-0.182861 	0
