1.11936e-18 	0.5125 	0.5 	0.566843
1.11936e-18 	0.5375 	0.5 	0.571958
1.11936e-18 	0.5625 	0.5 	0.574448
1.11936e-18 	0.5875 	0.5 	0.577081
1.11936e-18 	0.6125 	0.5 	0.579463
1.11936e-18 	0.6375 	0.5 	0.581695
1.11936e-18 	0.6625 	0.5 	0.583801
1.11936e-18 	0.6875 	0.5 	0.585814
1.11936e-18 	0.7125 	0.5 	0.587776
1.11936e-18 	0.7375 	0.5 	0.589698
1.11936e-18 	0.7625 	0.5 	0.591551
1.11936e-18 	0.7875 	0.5 	0.593302
1.11936e-18 	0.8125 	0.5 	0.594949
1.11936e-18 	0.8375 	0.5 	0.5965
1.11936e-18 	0.8625 	0.5 	0.59795
1.11936e-18 	0.8875 	0.5 	0.599269
1.11936e-18 	0.9125 	0.5 	0.60044
1.11936e-18 	0.9375 	0.5 	0.601461
1.11936e-18 	0.9625 	0.5 	0.602342
1.11936e-18 	0.9875 	0.5 	0.603081
1.11936e-18 	1.0125 	0.5 	0.60368
1.11936e-18 	1.0375 	0.5 	0.604143
1.11936e-18 	1.0625 	0.5 	0.604474
1.11936e-18 	1.0875 	0.5 	0.604669
1.11936e-18 	1.1125 	0.5 	0.604723
1.11936e-18 	1.1375 	0.5 	0.604644
1.11936e-18 	1.1625 	0.5 	0.60445
1.11936e-18 	1.1875 	0.5 	0.604153
1.11936e-18 	1.2125 	0.5 	0.603752
1.11936e-18 	1.2375 	0.5 	0.603246
1.11936e-18 	1.2625 	0.5 	0.60264
1.11936e-18 	1.2875 	0.5 	0.601947
1.11936e-18 	1.3125 	0.5 	0.601173
1.11936e-18 	1.3375 	0.5 	0.600321
1.11936e-18 	1.3625 	0.5 	0.599395
1.11936e-18 	1.3875 	0.5 	0.598398
1.11936e-18 	1.4125 	0.5 	0.597335
1.11936e-18 	1.4375 	0.5 	0.596203
1.11936e-18 	1.4625 	0.5 	0.595001
1.11936e-18 	1.4875 	0.5 	0.59377
1.11936e-18 	1.55625 	0.5 	0.590426
1.11936e-18 	1.66875 	0.5 	0.583568
1.11936e-18 	1.78125 	0.5 	0.576093
1.11936e-18 	1.89375 	0.5 	0.567512
1.11936e-18 	2.00625 	0.5 	0.558371
1.11936e-18 	2.11875 	0.5 	0.548464
1.11936e-18 	2.23125 	0.5 	0.537979
1.11936e-18 	2.34375 	0.5 	0.526883
