0.362837 	0.362837 	0.5 	0.00408241 	-0.00375663 	-1.88203e-23
0.380512 	0.380512 	0.5 	0.0144675 	-0.0111549 	6.30201e-21
0.398188 	0.398188 	0.5 	0.0272288 	-0.0175641 	-3.24514e-21
0.415863 	0.415863 	0.5 	0.0414536 	-0.0234231 	2.68821e-20
0.433538 	0.433538 	0.5 	0.0568048 	-0.0287003 	0
0.451213 	0.451213 	0.5 	0.0729313 	-0.0334594 	2.11918e-20
0.468888 	0.468888 	0.5 	0.0895619 	-0.0377455 	3.60732e-20
0.486563 	0.486563 	0.5 	0.106476 	-0.0415971 	2.20758e-20
0.504238 	0.504238 	0.5 	0.123492 	-0.0450474 	-1.50005e-20
0.521913 	0.521913 	0.5 	0.140459 	-0.0481233 	-3.7996e-20
0.539588 	0.539588 	0.5 	0.157252 	-0.0508471 	0
0.557263 	0.557263 	0.5 	0.173765 	-0.0532362 	3.12056e-20
0.574938 	0.574938 	0.5 	0.189911 	-0.055305 	1.57732e-20
0.592613 	0.592613 	0.5 	0.205615 	-0.0570648 	4.42868e-23
0.610288 	0.610288 	0.5 	0.220819 	-0.0585246 	-4.95916e-23
0.627963 	0.627963 	0.5 	0.235471 	-0.0596919 	6.45406e-20
0.645638 	0.645638 	0.5 	0.249534 	-0.0605729 	-1.61937e-20
0.663313 	0.663313 	0.5 	0.262976 	-0.061173 	4.89399e-20
0.680988 	0.680988 	0.5 	0.275774 	-0.0614976 	-1.63334e-20
0.698663 	0.698663 	0.5 	0.287915 	-0.0615516 	4.92648e-20
0.716338 	0.716338 	0.5 	0.299388 	-0.0613406 	-3.28704e-20
0.734013 	0.734013 	0.5 	0.310192 	-0.0608701 	4.94032e-20
0.751688 	0.751688 	0.5 	0.320329 	-0.0601461 	1.64843e-20
0.769363 	0.769363 	0.5 	0.329806 	-0.0591756 	-4.9442e-20
0.787038 	0.787038 	0.5 	0.338636 	-0.0579659 	0
0.804713 	0.804713 	0.5 	0.346833 	-0.0565252 	-3.29318e-20
0.822388 	0.822388 	0.5 	0.354417 	-0.0548623 	0
0.840063 	0.840063 	0.5 	0.36141 	-0.0529863 	-3.281e-20
0.857738 	0.857738 	0.5 	0.367835 	-0.0509072 	0
0.875413 	0.875413 	0.5 	0.373719 	-0.0486353 	3.26314e-20
0.893088 	0.893088 	0.5 	0.379089 	-0.046181 	0
0.910763 	0.910763 	0.5 	0.383975 	-0.0435551 	3.24058e-20
0.928438 	0.928438 	0.5 	0.388406 	-0.040768 	-3.22788e-20
0.946113 	0.946113 	0.5 	0.392413 	-0.03783 	0
0.963788 	0.963788 	0.5 	0.396024 	-0.0347509 	-3.20059e-20
0.981463 	0.981463 	0.5 	0.399268 	-0.0315427 	3.18647e-20
0.999138 	0.999138 	0.5 	0.402161 	-0.0282246 	0
1.01681 	1.01681 	0.5 	0.404727 	-0.0247809 	0
1.03449 	1.03449 	0.5 	0.407102 	-0.0210449 	-3.15324e-20
1.05216 	1.05216 	0.5 	0.409215 	-0.017133 	3.6565e-20
1.061 	1.061 	0.5 	0.406813 	-0.00883689 	-0.000957482
1.12274 	1.12274 	0.5 	0.420067 	-0.00606697 	-0.00185749
1.19698 	1.19698 	0.5 	0.437205 	0.0157243 	-0.00185702
1.25871 	1.25871 	0.5 	0.421835 	0.0308514 	-0.00192969
1.33295 	1.33295 	0.5 	0.436136 	0.0429731 	-0.00190067
1.39469 	1.39469 	0.5 	0.422048 	0.0586518 	-0.00192715
1.46893 	1.46893 	0.5 	0.434894 	0.0688067 	-0.00189959
1.53066 	1.53066 	0.5 	0.422384 	0.0844842 	-0.00192307
1.6049 	1.6049 	0.5 	0.43486 	0.0934736 	-0.00189461
1.66664 	1.66664 	0.5 	0.42394 	0.108744 	-0.00191263
