0.362837 	0.362837 	0.5 	0.00708538 	-0.00683625 	-1.89594e-23
0.380512 	0.380512 	0.5 	0.023178 	-0.0200432 	5.27329e-21
0.398188 	0.398188 	0.5 	0.0413604 	-0.0319426 	-2.71816e-21
0.415863 	0.415863 	0.5 	0.060643 	-0.0429549 	2.25684e-20
0.433538 	0.433538 	0.5 	0.0806499 	-0.0530282 	0
0.451213 	0.451213 	0.5 	0.101005 	-0.0622151 	1.78344e-20
0.468888 	0.468888 	0.5 	0.121422 	-0.0705532 	3.03961e-20
0.486563 	0.486563 	0.5 	0.141677 	-0.0780787 	1.86246e-20
0.504238 	0.504238 	0.5 	0.16159 	-0.0848257 	-1.26757e-20
0.521913 	0.521913 	0.5 	0.181019 	-0.0908263 	-3.21433e-20
0.539588 	0.539588 	0.5 	0.199852 	-0.096111 	0
0.557263 	0.557263 	0.5 	0.218002 	-0.100709 	2.6482e-20
0.574938 	0.574938 	0.5 	0.235403 	-0.104649 	1.34157e-20
0.592613 	0.592613 	0.5 	0.252005 	-0.107959 	4.02055e-23
0.610288 	0.610288 	0.5 	0.267775 	-0.110665 	-6.38767e-23
0.627963 	0.627963 	0.5 	0.282692 	-0.112795 	5.51137e-20
0.645638 	0.645638 	0.5 	0.296746 	-0.114377 	-1.38387e-20
0.663313 	0.663313 	0.5 	0.309936 	-0.115438 	4.19323e-20
0.680988 	0.680988 	0.5 	0.322269 	-0.116005 	-1.4001e-20
0.698663 	0.698663 	0.5 	0.33376 	-0.116106 	4.23332e-20
0.716338 	0.716338 	0.5 	0.344429 	-0.115768 	-2.82765e-20
0.734013 	0.734013 	0.5 	0.354301 	-0.115018 	4.25469e-20
0.751688 	0.751688 	0.5 	0.363406 	-0.113885 	1.42254e-20
0.769363 	0.769363 	0.5 	0.371776 	-0.112396 	-4.26844e-20
0.787038 	0.787038 	0.5 	0.379445 	-0.110577 	0
0.804713 	0.804713 	0.5 	0.386452 	-0.108455 	-2.84975e-20
0.822388 	0.822388 	0.5 	0.392833 	-0.106056 	0
0.840063 	0.840063 	0.5 	0.398629 	-0.103405 	-2.84447e-20
0.857738 	0.857738 	0.5 	0.403879 	-0.100527 	0
0.875413 	0.875413 	0.5 	0.408623 	-0.0974441 	2.83339e-20
0.893088 	0.893088 	0.5 	0.412899 	-0.0941798 	0
0.910763 	0.910763 	0.5 	0.416747 	-0.0907548 	2.81746e-20
0.928438 	0.928438 	0.5 	0.420203 	-0.0871887 	-2.80801e-20
0.946113 	0.946113 	0.5 	0.423303 	-0.0834994 	0
0.963788 	0.963788 	0.5 	0.426083 	-0.0797026 	-2.787e-20
0.981463 	0.981463 	0.5 	0.428571 	-0.0758149 	2.77589e-20
0.999138 	0.999138 	0.5 	0.430785 	-0.0718581 	0
1.01681 	1.01681 	0.5 	0.432751 	-0.0678165 	0
1.03449 	1.03449 	0.5 	0.434603 	-0.0635188 	-2.75149e-20
1.05216 	1.05216 	0.5 	0.436245 	-0.059053 	3.20711e-20
1.061 	1.061 	0.5 	0.431862 	-0.0476847 	-1.22685e-22
1.12274 	1.12274 	0.5 	0.444396 	-0.0455067 	0
1.20948 	1.20948 	0.5 	0.461214 	-0.023352 	0
1.27121 	1.27121 	0.5 	0.444615 	-0.00320423 	0
1.35795 	1.35795 	0.5 	0.459497 	0.0079371 	0
1.41969 	1.41969 	0.5 	0.445402 	0.0270021 	0
1.49316 	1.49316 	0.5 	0.459118 	0.0361227 	0
1.56816 	1.56816 	0.5 	0.471864 	0.0450348 	0
1.6299 	1.6299 	0.5 	0.460102 	0.0626611 	0
1.71664 	1.71664 	0.5 	0.472809 	0.0703563 	0
