/*--------------------------------*- C++ -*----------------------------------*\
  =========                 |
  \\      /  F ield         | OpenFOAM: The Open Source CFD Toolbox
   \\    /   O peration     | Website:  https://openfoam.org
    \\  /    A nd           | Version:  7
     \\/     M anipulation  |
\*---------------------------------------------------------------------------*/
FoamFile
{
    version     2.0;
    format      ascii;
    class       volScalarField;
    location    "2.8";
    object      p;
}
// * * * * * * * * * * * * * * * * * * * * * * * * * * * * * * * * * * * * * //

dimensions      [0 2 -2 0 0 0 0];

internalField   nonuniform List<scalar> 
18000
(
1.62569
1.62457
1.62518
1.62621
1.62761
1.6292
1.63096
1.6329
1.63504
1.63742
1.64007
1.64301
1.64628
1.64986
1.65375
1.65792
1.66231
1.66687
1.67156
1.67632
1.68112
1.68589
1.69058
1.69515
1.69958
1.70384
1.70794
1.71188
1.71567
1.71912
1.61952
1.6187
1.61939
1.62046
1.62183
1.62332
1.62491
1.62662
1.62848
1.63054
1.63283
1.63541
1.63829
1.64151
1.64505
1.64891
1.65303
1.65736
1.66186
1.66647
1.67115
1.67584
1.68049
1.68503
1.68943
1.69369
1.69778
1.70171
1.70549
1.70895
1.61315
1.61267
1.61344
1.61456
1.61591
1.61731
1.61874
1.62023
1.62181
1.62354
1.62547
1.62766
1.63016
1.633
1.6362
1.63973
1.64357
1.64767
1.65197
1.65643
1.661
1.66561
1.6702
1.67471
1.67911
1.68335
1.68744
1.69138
1.69516
1.69862
1.60669
1.6065
1.60736
1.60854
1.60988
1.6112
1.61249
1.61376
1.61506
1.61645
1.61801
1.61982
1.62193
1.62439
1.62723
1.63043
1.63399
1.63784
1.64195
1.64626
1.65071
1.65524
1.65977
1.66426
1.66864
1.67288
1.67697
1.6809
1.68469
1.68816
1.60015
1.60027
1.60122
1.60245
1.60378
1.60504
1.60618
1.60723
1.60825
1.60931
1.61051
1.61194
1.61366
1.61573
1.6182
1.62108
1.62434
1.62795
1.63186
1.63601
1.64034
1.64478
1.64926
1.65371
1.65807
1.66231
1.6664
1.67033
1.6741
1.67758
1.59355
1.59397
1.59501
1.5963
1.59764
1.59883
1.59984
1.60068
1.60142
1.60217
1.60301
1.60406
1.60538
1.60707
1.60918
1.61172
1.6147
1.61806
1.62176
1.62574
1.62993
1.63428
1.6387
1.64311
1.64746
1.65168
1.65576
1.65967
1.66343
1.66691
1.58692
1.58765
1.58877
1.59013
1.59148
1.59262
1.5935
1.59414
1.59463
1.59506
1.59556
1.59622
1.59716
1.59847
1.60021
1.60243
1.60511
1.60821
1.6117
1.6155
1.61956
1.62381
1.62816
1.63252
1.63683
1.64103
1.64509
1.64897
1.65271
1.65617
1.5803
1.58132
1.58253
1.58396
1.58532
1.58641
1.58718
1.58764
1.58789
1.58803
1.58819
1.58848
1.58904
1.58997
1.59136
1.59325
1.59563
1.59847
1.60174
1.60536
1.60928
1.61342
1.61768
1.62198
1.62624
1.6304
1.63441
1.63826
1.64195
1.64538
1.57372
1.57501
1.5763
1.57781
1.57918
1.58024
1.58091
1.58121
1.58124
1.5811
1.58093
1.58087
1.58105
1.58162
1.58267
1.58423
1.58632
1.58889
1.59193
1.59536
1.59913
1.60314
1.60731
1.61153
1.61573
1.61982
1.62378
1.62756
1.6312
1.63459
1.56718
1.56873
1.5701
1.57167
1.57308
1.57411
1.57471
1.57487
1.57469
1.5743
1.57381
1.57341
1.57325
1.57347
1.57418
1.57542
1.5772
1.57951
1.58231
1.58555
1.58915
1.59303
1.59709
1.60121
1.60532
1.60933
1.61321
1.61691
1.62047
1.6238
1.56071
1.56249
1.56394
1.56558
1.56702
1.56805
1.56859
1.56863
1.56827
1.56763
1.56686
1.56614
1.56564
1.56553
1.56591
1.56684
1.56833
1.57037
1.57293
1.57596
1.57939
1.58312
1.58704
1.59105
1.59504
1.59895
1.60273
1.60633
1.60979
1.61304
1.55433
1.55631
1.55783
1.55954
1.56102
1.56206
1.56255
1.56251
1.56199
1.56113
1.56009
1.55907
1.55826
1.55783
1.55789
1.55851
1.55971
1.56148
1.5638
1.56662
1.56986
1.57342
1.5772
1.58106
1.58492
1.5887
1.59236
1.59584
1.59918
1.60232
1.54804
1.55019
1.55177
1.55355
1.55508
1.55614
1.55662
1.55649
1.55583
1.55478
1.55349
1.5522
1.5511
1.55037
1.55012
1.55044
1.55135
1.55286
1.55494
1.55754
1.56058
1.56396
1.56756
1.57127
1.57497
1.57861
1.58211
1.58545
1.58864
1.59165
1.54185
1.54414
1.54577
1.54762
1.54921
1.55031
1.55078
1.55059
1.54981
1.54858
1.54708
1.54553
1.54415
1.54313
1.5426
1.54263
1.54327
1.54452
1.54635
1.54872
1.55155
1.55474
1.55815
1.56167
1.5652
1.56866
1.572
1.57516
1.57818
1.58104
1.53576
1.53814
1.53983
1.54175
1.54341
1.54454
1.54502
1.54478
1.54391
1.54252
1.54082
1.53904
1.53741
1.53611
1.5353
1.53506
1.53544
1.53643
1.53802
1.54016
1.54277
1.54574
1.54895
1.55227
1.5556
1.55887
1.56201
1.56499
1.56781
1.5705
1.52976
1.53221
1.53395
1.53593
1.53765
1.53884
1.53933
1.53907
1.5381
1.53658
1.5347
1.53271
1.53084
1.52929
1.52822
1.52772
1.52784
1.52858
1.52993
1.53184
1.53423
1.53697
1.53996
1.54306
1.54617
1.54923
1.55216
1.55492
1.55754
1.56004
1.52384
1.52632
1.52811
1.53016
1.53195
1.53319
1.5337
1.53341
1.53237
1.53073
1.52869
1.5265
1.52441
1.52263
1.52131
1.52057
1.52045
1.52095
1.52206
1.52374
1.52589
1.52841
1.53116
1.53402
1.5369
1.53973
1.54243
1.54498
1.54737
1.54966
1.51798
1.52048
1.52231
1.52442
1.52627
1.52757
1.5281
1.52779
1.52668
1.52493
1.52274
1.52038
1.51809
1.51609
1.51455
1.51358
1.51322
1.51349
1.51438
1.51583
1.51775
1.52002
1.52252
1.52514
1.52778
1.53036
1.53283
1.53514
1.5373
1.53938
1.51219
1.51467
1.51653
1.5187
1.52062
1.52196
1.52251
1.52218
1.52101
1.51915
1.51683
1.5143
1.51183
1.50964
1.50789
1.50671
1.50613
1.50619
1.50686
1.50808
1.50976
1.51178
1.51403
1.51639
1.51878
1.52111
1.52334
1.52542
1.52734
1.52921
1.50643
1.50888
1.51077
1.51299
1.51496
1.51634
1.5169
1.51655
1.51531
1.51335
1.5109
1.50823
1.5056
1.50323
1.5013
1.49992
1.49915
1.499
1.49945
1.50045
1.50189
1.50366
1.50565
1.50775
1.50988
1.51197
1.51395
1.5158
1.5175
1.51915
1.50069
1.5031
1.50501
1.50727
1.50929
1.51069
1.51125
1.51086
1.50956
1.5075
1.50494
1.50214
1.49936
1.49684
1.49474
1.49318
1.49222
1.49188
1.49214
1.49292
1.49412
1.49563
1.49735
1.49919
1.50107
1.50291
1.50466
1.50629
1.50777
1.50922
1.49494
1.4973
1.49924
1.50153
1.50358
1.505
1.50554
1.50509
1.50372
1.50157
1.49891
1.49599
1.49308
1.49042
1.48817
1.48646
1.48533
1.48482
1.48488
1.48544
1.4864
1.48765
1.48912
1.49069
1.49232
1.49392
1.49545
1.49687
1.49815
1.49943
1.48917
1.49148
1.49343
1.49575
1.49781
1.49922
1.49973
1.49923
1.49777
1.49554
1.49277
1.48974
1.48672
1.48394
1.48158
1.47972
1.47845
1.47777
1.47763
1.47798
1.4787
1.47971
1.4809
1.48222
1.4836
1.48497
1.4863
1.48754
1.48866
1.48979
1.48335
1.48561
1.48758
1.48992
1.49198
1.49336
1.49381
1.49324
1.4917
1.48937
1.4865
1.48338
1.48027
1.4774
1.47493
1.47295
1.47155
1.4707
1.47039
1.47052
1.471
1.47175
1.47269
1.47376
1.47489
1.47605
1.47719
1.47827
1.47926
1.4803
1.47746
1.47969
1.48167
1.48401
1.48605
1.48739
1.48777
1.48711
1.48548
1.48306
1.4801
1.4769
1.47371
1.47076
1.4682
1.46613
1.4646
1.46361
1.46311
1.46303
1.46327
1.46377
1.46445
1.46526
1.46616
1.46711
1.46808
1.46903
1.46994
1.47094
1.4715
1.4737
1.47568
1.47801
1.48002
1.48129
1.48158
1.48082
1.4791
1.47659
1.47355
1.47028
1.46704
1.46403
1.46141
1.45925
1.4576
1.45646
1.45579
1.45549
1.4555
1.45574
1.45615
1.4567
1.45736
1.45811
1.45892
1.45976
1.46063
1.46166
1.46543
1.46762
1.46961
1.47192
1.47387
1.47505
1.47524
1.47438
1.47256
1.46996
1.46686
1.46353
1.46025
1.4572
1.45452
1.45229
1.45054
1.44926
1.4484
1.44789
1.44765
1.44763
1.44777
1.44806
1.44847
1.449
1.44965
1.4504
1.45126
1.45243
1.45924
1.46145
1.46344
1.46572
1.46759
1.46867
1.46875
1.46778
1.46586
1.46319
1.46002
1.45666
1.45335
1.45028
1.44756
1.44526
1.44341
1.442
1.44096
1.44023
1.43974
1.43944
1.4393
1.43929
1.43942
1.4397
1.44016
1.44081
1.44171
1.44309
1.45292
1.45517
1.45716
1.4594
1.46119
1.46215
1.4621
1.46102
1.45901
1.45626
1.45305
1.44967
1.44635
1.44326
1.44051
1.43816
1.43622
1.43467
1.43345
1.43249
1.43175
1.43116
1.43071
1.43039
1.43019
1.43015
1.43031
1.43078
1.43174
1.43352
1.44648
1.44877
1.45077
1.45296
1.45466
1.45549
1.45531
1.45411
1.45201
1.44921
1.44597
1.44258
1.43927
1.43618
1.43341
1.431
1.42897
1.42728
1.42588
1.4247
1.42369
1.42282
1.42205
1.42137
1.42079
1.42031
1.41996
1.41984
1.42016
1.42216
1.72925
1.74383
1.75315
1.76148
1.76762
1.77238
1.77577
1.77805
1.77938
1.77986
1.77959
1.77868
1.77729
1.7755
1.77337
1.77095
1.76829
1.7655
1.76249
1.75943
1.75606
1.75269
1.74897
1.74545
1.74158
1.73829
1.73457
1.73252
1.72986
1.73139
1.71903
1.73446
1.7443
1.75305
1.75944
1.76441
1.76802
1.77048
1.77192
1.77249
1.77234
1.77156
1.77025
1.76852
1.76646
1.76412
1.76153
1.75881
1.75586
1.75284
1.74951
1.74622
1.74258
1.73914
1.73536
1.73218
1.72858
1.72663
1.72406
1.72566
1.70861
1.72496
1.73534
1.74453
1.75121
1.75641
1.76022
1.76287
1.76442
1.7651
1.76506
1.76441
1.76319
1.76153
1.75954
1.75729
1.75476
1.75211
1.74923
1.74627
1.743
1.73978
1.73623
1.73289
1.72922
1.72614
1.72266
1.72082
1.71834
1.72001
1.69806
1.71535
1.72627
1.73593
1.74293
1.74837
1.75238
1.75519
1.75689
1.7577
1.75778
1.75722
1.7561
1.75453
1.75263
1.75045
1.748
1.74541
1.7426
1.73971
1.73651
1.73338
1.72993
1.7267
1.72314
1.72019
1.71682
1.71509
1.71269
1.71444
1.68736
1.70563
1.7171
1.72726
1.73461
1.74031
1.74451
1.74749
1.74934
1.75029
1.75048
1.75002
1.749
1.74754
1.74571
1.74361
1.74123
1.73871
1.73598
1.73317
1.73007
1.72702
1.72367
1.72057
1.71712
1.71431
1.71107
1.70944
1.70712
1.70894
1.67652
1.69582
1.70787
1.71853
1.72625
1.7322
1.73661
1.73976
1.74178
1.74286
1.74316
1.7428
1.74189
1.74053
1.73878
1.73677
1.73448
1.73203
1.72938
1.72665
1.72364
1.7207
1.71747
1.71449
1.71117
1.7085
1.70538
1.70387
1.70163
1.70352
1.66556
1.68591
1.69857
1.70975
1.71785
1.72407
1.7287
1.73202
1.73419
1.73542
1.73584
1.73558
1.73477
1.73352
1.73186
1.72993
1.72772
1.72536
1.72279
1.72015
1.71725
1.71442
1.71131
1.70847
1.70529
1.70276
1.69977
1.69837
1.69621
1.69817
1.65451
1.67572
1.68921
1.70094
1.70942
1.71592
1.72077
1.72427
1.7266
1.72797
1.72851
1.72836
1.72765
1.7265
1.72493
1.72309
1.72098
1.7187
1.71622
1.71368
1.71089
1.70818
1.7052
1.70251
1.69947
1.69709
1.69424
1.69295
1.69087
1.6929
1.64341
1.66564
1.67982
1.6921
1.70097
1.70775
1.71283
1.71652
1.71901
1.72052
1.72117
1.72114
1.72053
1.71949
1.71801
1.71627
1.71425
1.71206
1.70967
1.70724
1.70456
1.70198
1.69914
1.6966
1.69372
1.69148
1.68877
1.68761
1.68561
1.68771
1.63226
1.65554
1.67041
1.68323
1.69251
1.69958
1.70489
1.70876
1.71142
1.71306
1.71384
1.71392
1.71342
1.71247
1.7111
1.70945
1.70753
1.70544
1.70314
1.70083
1.69827
1.69582
1.69312
1.69075
1.68802
1.68595
1.68338
1.68235
1.68043
1.68259
1.62109
1.64543
1.66099
1.67436
1.68404
1.69141
1.69695
1.70101
1.70383
1.70561
1.70652
1.70671
1.70631
1.70547
1.7042
1.70264
1.70082
1.69884
1.69664
1.69444
1.69201
1.6897
1.68715
1.68494
1.68239
1.68047
1.67807
1.67717
1.67534
1.67756
1.60993
1.63533
1.65157
1.6655
1.67559
1.68324
1.68903
1.69328
1.69626
1.69818
1.69921
1.69952
1.69922
1.69848
1.69732
1.69585
1.69412
1.69226
1.69016
1.68808
1.68578
1.68361
1.68122
1.67918
1.67681
1.67507
1.67283
1.67207
1.67033
1.67261
1.59878
1.62525
1.64218
1.65664
1.66714
1.6751
1.68112
1.68556
1.6887
1.69076
1.69192
1.69234
1.69215
1.69151
1.69044
1.68907
1.68745
1.68569
1.6837
1.68175
1.67958
1.67757
1.67534
1.67348
1.67128
1.66972
1.66766
1.66705
1.66542
1.66776
1.58767
1.61519
1.63281
1.64782
1.65873
1.66698
1.67323
1.67786
1.68116
1.68336
1.68465
1.68519
1.6851
1.68456
1.68359
1.68232
1.68079
1.67915
1.67727
1.67544
1.67341
1.67155
1.66949
1.66781
1.66581
1.66445
1.66257
1.66212
1.66059
1.663
1.57661
1.60517
1.62349
1.63903
1.65034
1.65889
1.66538
1.6702
1.67366
1.676
1.6774
1.67806
1.67808
1.67763
1.67676
1.67559
1.67415
1.67263
1.67085
1.66915
1.66727
1.66557
1.66368
1.66219
1.66039
1.65923
1.65756
1.65729
1.65587
1.65835
1.56562
1.5952
1.61423
1.63028
1.642
1.65084
1.65756
1.66257
1.66618
1.66866
1.67019
1.67096
1.67108
1.67072
1.66995
1.66887
1.66754
1.66613
1.66446
1.66288
1.66115
1.65962
1.6579
1.6566
1.65502
1.65408
1.65263
1.65254
1.65125
1.65381
1.55471
1.58526
1.60503
1.62159
1.6337
1.64284
1.6498
1.65499
1.65876
1.66137
1.66301
1.66389
1.66411
1.66385
1.66316
1.66219
1.66095
1.65964
1.6581
1.65664
1.65506
1.65369
1.65216
1.65106
1.6497
1.64899
1.64776
1.64789
1.64674
1.64937
1.54391
1.57537
1.59591
1.61296
1.62546
1.6349
1.64209
1.64746
1.65138
1.65412
1.65588
1.65686
1.65717
1.657
1.6564
1.65553
1.65439
1.65318
1.65175
1.65042
1.64899
1.64779
1.64645
1.64554
1.64442
1.64395
1.64298
1.64334
1.64234
1.64506
1.53324
1.56551
1.58689
1.60441
1.61729
1.62703
1.63444
1.63999
1.64406
1.64692
1.64879
1.64987
1.65027
1.65018
1.64968
1.6489
1.64785
1.64674
1.64543
1.64423
1.64294
1.64191
1.64076
1.64006
1.63918
1.63897
1.63826
1.63888
1.63806
1.64089
1.52271
1.55534
1.57798
1.59594
1.60919
1.61923
1.62686
1.63259
1.6368
1.63979
1.64176
1.64293
1.64342
1.64341
1.64299
1.6423
1.64134
1.64032
1.63913
1.63805
1.63691
1.63605
1.63509
1.63461
1.63398
1.63405
1.63361
1.63452
1.63392
1.63685
1.51239
1.54569
1.56919
1.58757
1.60118
1.61153
1.61936
1.62527
1.62962
1.63271
1.63479
1.63603
1.6366
1.63668
1.63633
1.63573
1.63485
1.63392
1.63286
1.6319
1.6309
1.63021
1.62944
1.62917
1.6288
1.62916
1.62903
1.63025
1.6299
1.63297
1.50233
1.53642
1.56054
1.57931
1.59328
1.60392
1.61196
1.61803
1.62251
1.62571
1.62787
1.62919
1.62984
1.62998
1.6297
1.62918
1.62839
1.62755
1.6266
1.62576
1.6249
1.62438
1.6238
1.62376
1.62364
1.62431
1.6245
1.62609
1.62604
1.62927
1.49258
1.52735
1.55205
1.57118
1.5855
1.59642
1.60467
1.61089
1.6155
1.61878
1.62102
1.62241
1.62312
1.62333
1.62312
1.62266
1.62195
1.62119
1.62035
1.61964
1.61891
1.61856
1.61817
1.61835
1.6185
1.61949
1.62003
1.62201
1.62232
1.62575
1.48316
1.51853
1.54375
1.5632
1.57786
1.58905
1.5975
1.60386
1.60858
1.61194
1.61424
1.61569
1.61646
1.61672
1.61656
1.61617
1.61554
1.61486
1.61412
1.61352
1.61294
1.61274
1.61254
1.61295
1.61336
1.61469
1.61561
1.61803
1.61877
1.62245
1.4741
1.50998
1.53564
1.55538
1.57036
1.58182
1.59046
1.59695
1.60176
1.60519
1.60755
1.60904
1.60985
1.61016
1.61005
1.60971
1.60915
1.60855
1.6079
1.60742
1.60696
1.60693
1.60691
1.60755
1.60823
1.6099
1.61123
1.61413
1.61538
1.61939
1.46535
1.50173
1.52776
1.54776
1.56305
1.57476
1.58357
1.59017
1.59506
1.59854
1.60093
1.60246
1.6033
1.60364
1.60358
1.60329
1.60279
1.60225
1.6017
1.60134
1.60099
1.60111
1.60128
1.60214
1.60309
1.60511
1.60688
1.61031
1.61216
1.61662
1.45728
1.49381
1.52012
1.54037
1.55594
1.56787
1.57683
1.58353
1.58848
1.592
1.59441
1.59596
1.59682
1.59718
1.59715
1.5969
1.59645
1.59598
1.59551
1.59525
1.59503
1.59529
1.59563
1.59672
1.59793
1.6003
1.60254
1.60655
1.60912
1.61417
1.44978
1.48611
1.51261
1.53309
1.54894
1.56109
1.57019
1.57697
1.58196
1.58551
1.58793
1.58948
1.59036
1.59074
1.59072
1.5905
1.5901
1.5897
1.58931
1.58915
1.58904
1.58944
1.58996
1.59126
1.59274
1.59546
1.59818
1.60283
1.60625
1.61213
1.44254
1.4782
1.50487
1.52563
1.54178
1.55415
1.56342
1.5703
1.57535
1.57893
1.58137
1.58293
1.58382
1.58421
1.58422
1.58403
1.58368
1.58335
1.58304
1.58299
1.58299
1.58353
1.58422
1.58573
1.58748
1.59055
1.59378
1.59911
1.60354
1.61055
1.43583
1.4705
1.49729
1.51826
1.53463
1.54719
1.5566
1.56358
1.56868
1.5723
1.57476
1.57635
1.57725
1.57766
1.5777
1.57755
1.57725
1.57699
1.57675
1.57679
1.57692
1.57758
1.57844
1.58013
1.58215
1.58554
1.58928
1.59529
1.60088
1.60945
1.4172
1.45173
1.47865
1.49981
1.51631
1.52893
1.53837
1.54532
1.55037
1.55396
1.55638
1.55792
1.55878
1.55916
1.55919
1.55905
1.55881
1.55866
1.55857
1.55879
1.55918
1.56012
1.56138
1.56354
1.56622
1.57041
1.5755
1.58334
1.59244
1.60657
1.37776
1.41163
1.43807
1.45883
1.47533
1.48826
1.49811
1.50551
1.51101
1.51502
1.51788
1.51985
1.52115
1.52199
1.5225
1.52287
1.52315
1.52354
1.52402
1.52484
1.52586
1.52747
1.52946
1.53241
1.53601
1.54129
1.54779
1.5574
1.56893
1.58579
1.33915
1.3714
1.39689
1.41719
1.43362
1.44675
1.45692
1.46471
1.47063
1.47508
1.47839
1.48083
1.48263
1.48397
1.48503
1.48595
1.48681
1.48779
1.48888
1.49032
1.49199
1.49428
1.49696
1.50065
1.50502
1.51111
1.51843
1.5289
1.54133
1.55921
1.3002
1.3308
1.35525
1.37503
1.39131
1.40452
1.41494
1.42307
1.42939
1.43426
1.43802
1.44094
1.44324
1.44511
1.44671
1.44819
1.44963
1.45121
1.4529
1.45496
1.45726
1.46019
1.4635
1.46783
1.47281
1.47948
1.48728
1.49815
1.51088
1.52916
1.26062
1.28972
1.31316
1.33238
1.34845
1.36168
1.37229
1.38072
1.3874
1.3927
1.39693
1.40034
1.40316
1.40558
1.40773
1.40978
1.4118
1.41397
1.41625
1.4189
1.42179
1.42529
1.42916
1.43401
1.43945
1.44651
1.45457
1.46559
1.47834
1.49671
1.22013
1.24794
1.27045
1.28911
1.3049
1.31811
1.32887
1.33756
1.34459
1.35032
1.35502
1.35895
1.3623
1.36528
1.368
1.37063
1.37323
1.37598
1.37883
1.38205
1.38547
1.38949
1.39383
1.39909
1.40488
1.41218
1.42037
1.4314
1.44402
1.46233
1.17857
1.20529
1.22695
1.24506
1.26059
1.27377
1.28464
1.29358
1.30097
1.30711
1.31228
1.31672
1.32062
1.32415
1.32744
1.33065
1.33383
1.33714
1.34054
1.34428
1.3482
1.35268
1.35743
1.36304
1.36909
1.37655
1.38477
1.39573
1.40814
1.42629
1.13583
1.16162
1.18254
1.20017
1.21546
1.2286
1.23959
1.24876
1.25649
1.26304
1.26867
1.27362
1.27805
1.28214
1.286
1.28977
1.29351
1.29737
1.3013
1.30554
1.30992
1.31481
1.31993
1.32583
1.3321
1.33966
1.34788
1.3587
1.37083
1.38873
1.09186
1.11686
1.13717
1.15437
1.16943
1.18254
1.19364
1.20304
1.21109
1.21804
1.22414
1.22958
1.23455
1.23919
1.2436
1.24793
1.25221
1.2566
1.26104
1.26575
1.27057
1.27584
1.28129
1.28745
1.2939
1.30155
1.30973
1.32038
1.33217
1.34974
1.04664
1.07097
1.09075
1.10758
1.12245
1.13553
1.14675
1.15637
1.16474
1.17208
1.17862
1.18456
1.19005
1.19522
1.20018
1.20506
1.20987
1.21477
1.21969
1.22486
1.23009
1.23573
1.24149
1.24788
1.2545
1.26222
1.27035
1.28081
1.29221
1.30939
1.00017
1.02392
1.04324
1.05975
1.07445
1.08752
1.09886
1.10871
1.11738
1.12511
1.13209
1.1385
1.1445
1.1502
1.15569
1.16109
1.16642
1.17182
1.17721
1.18281
1.18844
1.19443
1.20048
1.20711
1.21388
1.22165
1.22973
1.23999
1.25098
1.26771
0.952446
0.975668
0.994601
1.01083
1.02539
1.03848
1.04994
1.06
1.06897
1.07707
1.08447
1.09136
1.09785
1.10406
1.11007
1.11598
1.12181
1.12769
1.13353
1.13955
1.14556
1.15189
1.15823
1.16508
1.172
1.17983
1.18786
1.19792
1.20849
1.22473
0.903474
0.926218
0.944815
0.960808
0.975238
0.988344
0.999932
1.0102
1.01947
1.02793
1.03574
1.04308
1.05005
1.05676
1.06327
1.06968
1.07599
1.08232
1.0886
1.09502
1.1014
1.10806
1.11468
1.12174
1.12882
1.13671
1.1447
1.15456
1.16471
1.18044
0.85327
0.875562
0.893856
0.90964
0.923961
0.93709
0.948807
0.959286
0.968833
0.97764
0.985856
0.993629
1.00106
1.00824
1.01523
1.02211
1.02888
1.03566
1.04236
1.04917
1.05591
1.06288
1.06977
1.07704
1.08428
1.09223
1.10019
1.10987
1.11963
1.13482
0.801844
0.823693
0.841708
0.857308
0.871529
0.884683
0.89653
0.90721
0.917029
0.92617
0.934767
0.942956
0.950825
0.958462
0.965905
0.973235
0.980444
0.987641
0.994739
1.00192
1.009
1.01627
1.02343
1.03091
1.0383
1.04631
1.05425
1.06375
1.07313
1.08778
0.749222
0.770617
0.788364
0.803794
0.817918
0.831094
0.843069
0.853944
0.86402
0.873478
0.882437
0.891017
0.8993
0.907366
0.915239
0.922991
0.930611
0.938203
0.945676
0.953205
0.960607
0.968163
0.975569
0.983257
0.990797
0.998885
1.00682
1.01618
1.02521
1.03931
0.695423
0.716344
0.73382
0.749082
0.763109
0.776302
0.7884
0.799458
0.809773
0.819527
0.828825
0.837771
0.846442
0.854906
0.863175
0.871319
0.879317
0.887273
0.895089
0.902938
0.910633
0.918451
0.926087
0.933955
0.941625
0.949758
0.957667
0.966866
0.975602
0.989153
0.64047
0.660877
0.678066
0.693161
0.707088
0.720289
0.732498
0.743724
0.754259
0.764287
0.773896
0.783178
0.792204
0.801029
0.809659
0.818156
0.826495
0.834772
0.842891
0.851022
0.858979
0.867032
0.874883
0.882928
0.890746
0.898965
0.906904
0.915982
0.92441
0.937403
0.584377
0.604213
0.621095
0.636022
0.649843
0.663038
0.675345
0.686722
0.697453
0.707726
0.717615
0.727199
0.736541
0.745685
0.754633
0.763438
0.772067
0.780615
0.788986
0.797348
0.805516
0.813751
0.821757
0.829906
0.837784
0.845987
0.853865
0.862791
0.871061
0.883525
0.527155
0.546357
0.56291
0.577663
0.591369
0.60454
0.616927
0.628436
0.639334
0.649821
0.659955
0.669802
0.679413
0.688828
0.698041
0.707097
0.715956
0.724711
0.733273
0.741808
0.75014
0.758529
0.766691
0.774982
0.782998
0.791275
0.799159
0.807897
0.815792
0.827713
0.46882
0.487313
0.503524
0.518091
0.531665
0.544789
0.557235
0.568855
0.579894
0.590558
0.600897
0.61096
0.620786
0.630414
0.639829
0.649066
0.65808
0.666963
0.675628
0.684237
0.692619
0.701024
0.709178
0.717421
0.725377
0.733573
0.741413
0.75007
0.757954
0.76918
0.409413
0.427113
0.442972
0.457334
0.470744
0.483792
0.496274
0.507983
0.519131
0.529931
0.540425
0.550645
0.560623
0.570397
0.579938
0.589272
0.598352
0.607276
0.615964
0.624585
0.63299
0.64143
0.649642
0.65792
0.66586
0.673887
0.681416
0.689606
0.697144
0.708115
0.349134
0.365917
0.381376
0.395461
0.408648
0.421578
0.434068
0.445837
0.457056
0.467938
0.478526
0.48884
0.498901
0.508741
0.518317
0.527646
0.536677
0.5455
0.554033
0.562445
0.570606
0.578778
0.586758
0.594867
0.602803
0.610962
0.618737
0.626904
0.633839
0.643023
0.288599
0.304214
0.319056
0.332665
0.345501
0.358241
0.370679
0.382454
0.393684
0.404586
0.415201
0.425529
0.435584
0.44539
0.454897
0.464119
0.473005
0.48165
0.489988
0.498194
0.506142
0.514059
0.521705
0.529333
0.536617
0.543964
0.550936
0.558515
0.565873
0.575443
0.229231
0.24316
0.256779
0.269432
0.281642
0.294015
0.306261
0.317937
0.329099
0.339944
0.350498
0.360747
0.370694
0.380353
0.389653
0.398587
0.407087
0.415245
0.423017
0.430617
0.438013
0.4455
0.452966
0.460641
0.468149
0.475577
0.482209
0.488625
0.493779
0.500805
0.173442
0.18479
0.196098
0.206927
0.217944
0.22952
0.241223
0.252558
0.26348
0.274111
0.28445
0.294471
0.304174
0.313561
0.322556
0.331149
0.339252
0.346928
0.354099
0.360931
0.367363
0.373693
0.379894
0.386339
0.392915
0.399861
0.406633
0.413397
0.41913
0.42519
0.123685
0.131497
0.139317
0.147299
0.156259
0.166244
0.1767
0.187141
0.197419
0.20753
0.217409
0.226993
0.23623
0.245076
0.253424
0.261251
0.268509
0.275323
0.281718
0.287902
0.293844
0.299711
0.305316
0.310772
0.315842
0.320826
0.325512
0.330385
0.334734
0.339209
0.081188
0.0851302
0.0890114
0.0935158
0.0995641
0.106879
0.114938
0.123405
0.132076
0.140831
0.149588
0.158294
0.166831
0.175048
0.182704
0.189656
0.195767
0.20113
0.205812
0.21014
0.214284
0.218609
0.223216
0.228275
0.233515
0.238739
0.243262
0.246908
0.248648
0.249685
0.0454397
0.0461814
0.0466771
0.0479776
0.0510926
0.0551836
0.0599762
0.0653483
0.0711135
0.0771368
0.0833786
0.0898438
0.0964789
0.103168
0.109657
0.115719
0.121057
0.125514
0.128935
0.131461
0.133233
0.134761
0.136488
0.138989
0.142375
0.146503
0.150591
0.154029
0.155034
0.153152
0.0143939
0.0131997
0.0100753
0.00912714
0.0105438
0.0118284
0.0132602
0.0150201
0.0170497
0.0192976
0.0217704
0.0244932
0.0274666
0.0306776
0.0340016
0.0373399
0.0404776
0.0432887
0.045563
0.0472805
0.0483597
0.0490153
0.0494112
0.0499271
0.0507169
0.0519355
0.053354
0.054902
0.0554573
0.0529086
1.38855
1.34906
1.31133
1.273
1.23417
1.19426
1.15318
1.11088
1.06734
1.02255
0.976491
0.929215
0.880706
0.830976
0.780076
0.728031
0.674868
0.620631
0.565351
0.509062
0.451858
0.393878
0.335434
0.277246
0.220576
0.167531
0.120145
0.0795314
0.0449912
0.0149625
1.37855
1.33934
1.30201
1.26398
1.22545
1.18581
1.14496
1.10287
1.05953
1.01493
0.969068
0.921985
0.87367
0.824134
0.773439
0.721608
0.668673
0.61468
0.559667
0.503664
0.446781
0.389164
0.331134
0.273445
0.217374
0.16504
0.118439
0.0786186
0.044672
0.0150428
1.36851
1.32996
1.29299
1.25526
1.21701
1.17763
1.13702
1.09514
1.052
1.0076
0.961941
0.91505
0.866933
0.817596
0.767113
0.7155
0.662794
0.609046
0.5543
0.49858
0.44201
0.384747
0.327118
0.269897
0.214369
0.162639
0.116691
0.0775835
0.0442598
0.0150434
1.35847
1.32076
1.28417
1.24672
1.20874
1.16961
1.12922
1.08754
1.0446
1.00039
0.954925
0.908221
0.860298
0.811158
0.760883
0.709484
0.657005
0.603499
0.549015
0.493575
0.437312
0.380394
0.323156
0.266392
0.211406
0.160302
0.115038
0.0766245
0.0438795
0.0150212
1.34855
1.31177
1.27559
1.2384
1.20067
1.16177
1.12159
1.0801
1.03735
0.993326
0.948041
0.901516
0.853784
0.804837
0.754763
0.703575
0.651318
0.598047
0.543818
0.488654
0.43269
0.37611
0.319256
0.262949
0.208507
0.158033
0.113465
0.0757399
0.0435426
0.0149862
1.33878
1.30297
1.26723
1.23031
1.1928
1.15411
1.11413
1.07282
1.03025
0.9864
0.94129
0.894938
0.84739
0.798631
0.748751
0.697772
0.645732
0.592689
0.538707
0.483815
0.428142
0.371889
0.315411
0.259557
0.205662
0.155829
0.111964
0.074916
0.0432418
0.0149389
1.3292
1.29435
1.25907
1.22243
1.18512
1.14663
1.10685
1.06571
1.0233
0.979617
0.934674
0.88849
0.841117
0.792542
0.742853
0.692077
0.640249
0.587428
0.533684
0.479059
0.423671
0.367736
0.311628
0.256225
0.202882
0.153696
0.110536
0.0741512
0.0429737
0.0148815
1.31983
1.2859
1.25109
1.21475
1.17764
1.13934
1.09974
1.05877
1.01651
0.972981
0.928199
0.882174
0.834968
0.786575
0.73707
0.686492
0.634869
0.582265
0.528754
0.47439
0.419279
0.363657
0.307917
0.252965
0.200179
0.151643
0.109183
0.0734455
0.0427369
0.0148161
1.31067
1.27764
1.24331
1.20727
1.17036
1.13223
1.09279
1.05199
1.00988
0.966498
0.921866
0.875993
0.828948
0.780731
0.731405
0.681017
0.629591
0.577201
0.523918
0.469808
0.414969
0.359657
0.304287
0.249785
0.19756
0.149674
0.107907
0.0727972
0.0425294
0.0147439
1.30175
1.26956
1.2357
1.19997
1.16327
1.12531
1.08603
1.04537
1.00341
0.96017
0.915679
0.869953
0.823062
0.775014
0.725859
0.675652
0.624419
0.572238
0.519176
0.46531
0.410737
0.355733
0.300735
0.246686
0.195025
0.147787
0.106705
0.0722022
0.042348
0.0146657
1.29309
1.26167
1.22828
1.19287
1.15637
1.11857
1.07944
1.03893
0.997103
0.954
0.909643
0.864059
0.817316
0.769428
0.720434
0.6704
0.619355
0.567375
0.514527
0.460894
0.406581
0.35188
0.297255
0.243661
0.192568
0.145979
0.105574
0.071656
0.0421896
0.0145825
1.28469
1.25399
1.22105
1.18596
1.14966
1.11202
1.07303
1.03266
0.990964
0.947988
0.903761
0.858314
0.811712
0.763974
0.715134
0.665266
0.614401
0.562614
0.50997
0.456559
0.402498
0.348094
0.29384
0.240706
0.190184
0.144245
0.104509
0.0711548
0.0420517
0.0144958
1.27656
1.24651
1.21401
1.17924
1.14313
1.10565
1.0668
1.02656
0.98499
0.942134
0.898035
0.852721
0.806252
0.758654
0.709961
0.660253
0.609562
0.557956
0.505506
0.452307
0.398492
0.344378
0.290491
0.23782
0.187874
0.142587
0.103509
0.0706965
0.041935
0.0144072
1.2687
1.23925
1.20717
1.1727
1.1368
1.09946
1.06074
1.02064
0.979181
0.936441
0.892466
0.847278
0.800936
0.753471
0.704921
0.655364
0.604839
0.553405
0.501141
0.448146
0.39457
0.34074
0.287217
0.235013
0.185645
0.141006
0.102574
0.0702799
0.0418349
0.0143183
1.26113
1.23222
1.20052
1.16636
1.13065
1.09347
1.05487
1.01488
0.973541
0.93091
0.887054
0.841986
0.795764
0.748428
0.700017
0.650603
0.600234
0.548965
0.49688
0.444083
0.39074
0.33719
0.284027
0.232292
0.183501
0.139505
0.101704
0.0699034
0.0417473
0.0142301
1.25384
1.22542
1.19409
1.16021
1.12471
1.08766
1.04918
1.0093
0.968073
0.925546
0.8818
0.836845
0.79074
0.743527
0.695249
0.64597
0.595748
0.544638
0.492726
0.440122
0.387007
0.333732
0.280928
0.22966
0.181446
0.138083
0.100896
0.0695653
0.0416726
0.0141437
1.24685
1.21886
1.18788
1.15427
1.11896
1.08204
1.04368
1.0039
0.96278
0.92035
0.876706
0.831859
0.785865
0.738769
0.690617
0.641464
0.591379
0.540423
0.488677
0.43626
0.383367
0.330365
0.277918
0.227117
0.179476
0.136737
0.100149
0.0692626
0.0416088
0.0140598
1.24015
1.21256
1.18189
1.14854
1.11341
1.07662
1.03838
0.998688
0.957666
0.915325
0.871776
0.827029
0.78114
0.734152
0.686118
0.637082
0.587126
0.536316
0.484727
0.43249
0.379814
0.327083
0.274991
0.224655
0.177585
0.135465
0.0994566
0.0689926
0.0415541
0.0139794
1.23376
1.20651
1.17613
1.14302
1.10807
1.0714
1.03327
0.993665
0.952734
0.910476
0.867013
0.822358
0.776567
0.729676
0.681749
0.632823
0.582987
0.532314
0.480873
0.428807
0.376342
0.323879
0.272143
0.222271
0.175768
0.134262
0.0988175
0.068753
0.0415077
0.0139034
1.22767
1.20073
1.17061
1.13772
1.10294
1.06639
1.02836
0.988835
0.947986
0.905805
0.862421
0.817849
0.772144
0.725341
0.67751
0.628687
0.578961
0.528414
0.477111
0.425208
0.37295
0.320752
0.269371
0.219963
0.174025
0.133128
0.0982299
0.0685427
0.0414692
0.0138328
1.22189
1.19522
1.16533
1.13264
1.09802
1.06158
1.02365
0.9842
0.943427
0.901316
0.858003
0.813504
0.767875
0.721149
0.673406
0.624679
0.575054
0.524621
0.473447
0.421699
0.369642
0.317706
0.266678
0.217736
0.172358
0.132062
0.0976936
0.0683611
0.0414386
0.0137684
1.21643
1.18999
1.16031
1.12779
1.09332
1.05699
1.01914
0.979762
0.939058
0.897012
0.853761
0.809324
0.763761
0.717104
0.669439
0.620803
0.57127
0.520942
0.469889
0.418288
0.366428
0.314748
0.264071
0.215595
0.170769
0.131066
0.0972083
0.0682074
0.0414156
0.0137105
1.21129
1.18504
1.15554
1.12318
1.08885
1.0526
1.01484
0.975524
0.934882
0.892895
0.849696
0.805312
0.759805
0.713211
0.665617
0.617063
0.567615
0.517383
0.466445
0.414985
0.363314
0.311885
0.261555
0.213538
0.169266
0.13014
0.096773
0.0680801
0.0413993
0.0136592
1.20648
1.18038
1.15104
1.11881
1.0846
1.04844
1.01074
0.971487
0.930899
0.888963
0.845809
0.801468
0.75601
0.709473
0.661943
0.613463
0.564093
0.513949
0.463121
0.411795
0.360304
0.309121
0.259132
0.211571
0.167846
0.129283
0.0963853
0.0679761
0.0413882
0.013614
1.202
1.17602
1.1468
1.11468
1.08057
1.04448
1.00686
0.967652
0.927109
0.885215
0.842098
0.797793
0.752379
0.705891
0.658416
0.610001
0.560704
0.510642
0.459917
0.408717
0.357397
0.306454
0.256802
0.209691
0.166504
0.12849
0.0960412
0.0678923
0.0413805
0.0135745
1.19786
1.17196
1.14284
1.1108
1.07679
1.04076
1.00318
0.96402
0.923512
0.881651
0.838564
0.794288
0.748911
0.702465
0.655037
0.606677
0.557445
0.507458
0.456829
0.405745
0.354587
0.303879
0.254561
0.207892
0.165236
0.127755
0.0957364
0.0678362
0.0413747
0.0135407
1.19405
1.1682
1.13915
1.10718
1.07323
1.03725
0.999723
0.960592
0.92011
0.878272
0.835208
0.790954
0.745606
0.699193
0.651802
0.603488
0.554315
0.504394
0.453849
0.402874
0.351867
0.301391
0.252404
0.20617
0.164038
0.127076
0.0954665
0.0677842
0.0413698
0.0135137
1.19059
1.16474
1.13574
1.10381
1.06992
1.03397
0.996478
0.957369
0.916904
0.875079
0.832032
0.787793
0.742466
0.696075
0.648713
0.600434
0.551311
0.501447
0.450974
0.400097
0.349235
0.298985
0.250324
0.204523
0.162905
0.126446
0.0952285
0.0677456
0.0413657
0.0134912
1.18747
1.16159
1.13262
1.10069
1.06685
1.03092
0.993452
0.954354
0.913898
0.872078
0.82904
0.784806
0.73949
0.693112
0.645771