/*--------------------------------*- C++ -*----------------------------------*\
  =========                 |
  \\      /  F ield         | OpenFOAM: The Open Source CFD Toolbox
   \\    /   O peration     | Website:  https://openfoam.org
    \\  /    A nd           | Version:  7
     \\/     M anipulation  |
\*---------------------------------------------------------------------------*/
FoamFile
{
    version     2.0;
    format      ascii;
    class       surfaceScalarField;
    location    "2.8";
    object      phi;
}
// * * * * * * * * * * * * * * * * * * * * * * * * * * * * * * * * * * * * * //

dimensions      [0 3 -1 0 0 0 0];

internalField   nonuniform List<scalar> 
35640
(
-4.84438e-05
0.00156366
-0.00151521
-0.000158855
0.00386459
-0.00375417
-0.00031346
0.00562553
-0.00547093
-0.000494917
0.0068983
-0.00671685
-0.000686947
0.00776937
-0.00757734
-0.000874779
0.00832292
-0.00813508
-0.00104577
0.00862779
-0.0084568
-0.00118948
0.00873531
-0.0085916
-0.00129746
0.00868279
-0.00857481
-0.00136307
0.00849768
-0.00843206
-0.00138131
0.00820149
-0.00818324
-0.00134851
0.00781268
-0.00784549
-0.00126218
0.00734833
-0.00743465
-0.00112108
0.00682512
-0.00696622
-0.000925049
0.00625937
-0.00645541
-0.000675026
0.00566717
-0.0059172
-0.000372953
0.00506386
-0.00536593
-2.17221e-05
0.00446374
-0.00481497
0.000374907
0.00387981
-0.00427644
0.000812471
0.00332335
-0.00376092
0.001286
0.00280365
-0.00327719
0.00179016
0.00232802
-0.00283218
0.00231941
0.00190163
-0.00243088
0.00286824
0.00152767
-0.0020765
0.0034313
0.00120761
-0.00177067
0.00400351
0.000941403
-0.00151362
0.00458013
0.000728149
-0.00130477
0.00515662
0.000566829
-0.00114331
0.00572847
0.000460599
-0.00103245
0.000423
0.00628966
-0.000984182
-3.97561e-05
0.00160342
-0.000132691
0.00395752
-0.000265291
0.00575813
-0.000422919
0.00705593
-0.000590904
0.00793736
-0.000755384
0.0084874
-0.000904008
0.00877641
-0.00102636
0.00885767
-0.00111399
0.00877042
-0.00116019
0.00854387
-0.00115983
0.00820113
-0.00110913
0.00776198
-0.00100559
0.00724479
-0.000847914
0.00666744
-0.000635914
0.00604737
-0.000370508
0.00540177
-5.3691e-05
0.00474704
0.000311536
0.00409851
0.000721358
0.00346999
0.00117124
0.00287347
0.00165609
0.0023188
0.00217046
0.00181365
0.00270873
0.00136336
0.00326531
0.000971086
0.00383483
0.000638083
0.0044122
0.000364037
0.00499277
0.000147582
0.00557229
-1.26947e-05
0.00614665
-0.00011376
-0.000140778
0.00671043
-3.06265e-05
0.00163404
-0.000104786
0.00403168
-0.0002134
0.00586675
-0.000344668
0.0071872
-0.000485699
0.00807839
-0.000623569
0.00862527
-0.000746361
0.00889921
-0.00084386
0.00895517
-0.00090762
0.00883418
-0.000930896
0.00856715
-0.000908522
0.00817875
-0.000836709
0.00769017
-0.000712948
0.00712103
-0.000535936
0.00649043
-0.000305558
0.00581699
-2.27995e-05
0.00511901
0.000310279
0.00441396
0.000690626
0.00371816
0.00111432
0.0030463
0.0015767
0.00241108
0.0020726
0.0018229
0.00259649
0.00128976
0.00314271
0.000817135
0.00370564
0.000408154
0.0042799
6.38272e-05
0.0048605
-0.000216563
0.00544294
-0.000434864
0.00602321
-0.000592962
0.00659768
-0.000688223
-0.000704874
0.00716177
-2.12476e-05
0.00165529
-7.57871e-05
0.00408622
-0.000158785
0.00594974
-0.000261495
0.00728991
-0.000372835
0.00818973
-0.000481019
0.00873346
-0.000574724
0.00899291
-0.000643933
0.00902438
-0.000680331
0.00887058
-0.000677259
0.00856408
-0.000629538
0.00813103
-0.00053342
0.00759405
-0.000386485
0.00697409
-0.000187506
0.00629145
6.35459e-05
0.00556594
0.00036559
0.00481696
0.000716452
0.0040631
0.00111296
0.00332165
0.00155108
0.00260818
0.0020261
0.00193607
0.00253273
0.00131627
0.00306541
0.000757075
0.00361846
0.000264088
0.00418627
-0.000159662
0.00476354
-0.000513439
0.00534539
-0.000798417
0.00592751
-0.00101698
0.0065062
-0.00117165
0.00707839
-0.00126041
-0.00126693
0.00764044
-1.17792e-05
0.00166707
-4.61146e-05
0.00412055
-0.000102254
0.00600588
-0.000174538
0.0073622
-0.000253848
0.00826904
-0.000329577
0.00880919
-0.000391111
0.00905445
-0.000428831
0.0090621
-0.000434621
0.00887637
-0.000401911
0.00853137
-0.000325637
0.00805476
-0.000202188
0.0074706
-2.92565e-05
0.00680116
0.000194247
0.00606794
0.000468213
0.00529197
0.000791385
0.00449379
0.00116144
0.00369304
0.0015751
0.00290799
0.00202822
0.00215506
0.00251594
0.00144835
0.00303294
0.000799264
0.00357363
0.000216381
0.00413235
-0.000294636
0.00470357
-0.000730883
0.0052821
-0.00109196
0.00586323
-0.00137954
0.00644287
-0.00159663
0.00701767
-0.00174645
0.00758508
-0.00182781
-0.00182426
0.0081424
-2.47329e-06
0.00166955
-1.62688e-05
0.00413435
-4.47907e-05
0.00603441
-8.52629e-05
0.00740267
-0.000130563
0.00831434
-0.00017141
0.00885003
-0.000198041
0.00908108
-0.000201325
0.00906538
-0.000173428
0.00884847
-0.000108001
0.00846594
-1.82504e-07
0.00794694
0.000153469
0.00731695
0.000355078
0.00659955
0.000605515
0.0058175
0.000904463
0.00499302
0.00125048
0.00414777
0.00164108
0.00330244
0.0020728
0.00247628
0.00254134
0.00168652
0.00304179
0.000947901
0.00356876
0.000272292
0.00411667
-0.000331525
0.00467991
-0.000857877
0.00525307
-0.00130405
0.00583114
-0.00167003
0.00640963
-0.00195803
0.00698474
-0.00217174
0.00755347
-0.00231518
0.00811381
-0.00238815
-0.00237455
0.0086641
6.70976e-06
0.00166284
1.31723e-05
0.00412788
1.26087e-05
0.00603497
4.92031e-06
0.00741036
-4.85944e-06
0.00832412
-8.83604e-06
0.00885401
1.82139e-06
0.00907042
3.55945e-05
0.00903161
9.99103e-05
0.00878416
0.000200826
0.00836503
0.000342933
0.00780483
0.000529411
0.00713048
0.00076212
0.00636684
0.00104168
0.00553794
0.00136752
0.00466718
0.00173796
0.00377733
0.00215029
0.00289011
0.00260085
0.00202572
0.00308521
0.00120215
0.00359835
0.000434762
0.00413486
-0.000264215
0.00468917
-0.000885837
0.00525578
-0.00142449
0.00582945
-0.00187773
0.00640541
-0.00224599
0.00697944
-0.00253206
0.00754808
-0.00274037
0.00810872
-0.00287582
0.0086599
-0.00293934
-0.0029157
0.00920105
1.53373e-05
0.0016475
4.1674e-05
0.00410155
6.89523e-05
0.00600769
9.44731e-05
0.00738484
0.000121253
0.00829734
0.000155691
0.00881957
0.000205546
0.00902057
0.000278566
0.00895859
0.00038167
0.00868105
0.000520496
0.0082262
0.000699281
0.00762605
0.000920887
0.00690887
0.00118685
0.00610088
0.00149748
0.00522732
0.00185189
0.00431276
0.00224814
0.00338108
0.00268323
0.00245501
0.00315331
0.00155564
0.00365378
0.000701687
0.00417952
-9.09782e-05
0.00472509
-0.00080979
0.00528499
-0.00144574
0.00585385
-0.00199335
0.00642668
-0.00245055
0.00699895
-0.00281826
0.00756682
-0.00309994
0.0081272
-0.00330075
0.00867791
-0.00342653
0.00921806
-0.00347949
-0.00344575
0.00974811
2.33542e-05
0.00162414
6.87019e-05
0.0040562
0.000123234
0.00595316
0.000181885
0.00732619
0.000245708
0.00823352
0.000319559
0.00874572
0.000410032
0.00893009
0.000524025
0.0088446
0.000667819
0.00853726
0.000846553
0.00804747
0.00106403
0.00740857
0.00132271
0.00665019
0.00162375
0.00579983
0.0019671
0.00488398
0.00235152
0.00392834
0.00277473
0.00295787
0.00323346
0.00199629
0.0037236
0.0010655
0.00424037
0.000184916
0.00477855
-0.000629158
0.00533269
-0.00136393
0.00589736
-0.00201041
0.0064674
-0.00256338
0.00703805
-0.00302121
0.00760518
-0.00338539
0.00816532
-0.00366008
0.00871583
-0.00385126
0.00925501
-0.00396571
0.00978249
-0.00400697
-0.00396302
0.0102998
3.06054e-05
0.00159354
9.37733e-05
0.00399303
0.0001745
0.00587243
0.000265661
0.00723503
0.000366446
0.00813273
0.00048014
0.00863203
0.000612094
0.00879814
0.000768255
0.00868844
0.000954154
0.00835136
0.00117433
0.0078273
0.00143206
0.00715084
0.00172937
0.00635288
0.00206696
0.00546224
0.00244436
0.00450658
0.00285996
0.00351275
0.00331108
0.00250674
0.00379413
0.00151324
0.00430471
0.000554918
0.00483787
-0.00034824
0.00538826
-0.00117955
0.00595042
-0.0019261
0.00651906
-0.00257904
0.0070892
-0.00313353
0.00765645
-0.00358846
0.00821707
-0.00394601
0.00876808
-0.00421109
0.00930733
-0.00439051
0.00983361
-0.00449199
0.0103471
-0.00452047
-0.00446617
0.0108503
3.69657e-05
0.00155657
0.000116459
0.00391354
0.000221884
0.00576701
0.000344399
0.00711251
0.000481486
0.00799565
0.000634867
0.00847865
0.000808589
0.00862442
0.00100754
0.00848948
0.00123642
0.00812248
0.00149907
0.00756465
0.0017982
0.00685171
0.00213526
0.00601582
0.00251051
0.005087
0.00292299
0.00409409
0.00337064
0.00306509
0.00385038
0.002027
0.00435824
0.00100539
0.00488952
2.36421e-05
0.00543902
-0.000897743
0.00600129
-0.00174182
0.00657089
-0.0024957
0.00714263
-0.00315079
0.00771185
-0.00370275
0.00827453
-0.00415113
0.00882739
-0.00449888
0.00936801
-0.0047517
0.00989479
-0.00491729
0.0104071
-0.00500427
0.0109056
-0.00501898
-0.00495419
0.0113936
4.23397e-05
0.00151423
0.000136401
0.00381948
0.00026463
0.00563878
0.000416852
0.00696029
0.000589021
0.00782348
0.000781338
0.00828633
0.000996516
0.00840924
0.00123832
0.00824768
0.00151052
0.00785029
0.00181617
0.00725899
0.00215734
0.00651055
0.0025349
0.00563826
0.00294855
0.00467335
0.00339682
0.00364582
0.00387716
0.00258475
0.00438601
0.00151815
0.00491897
0.000472424
0.00547101
-0.000528398
0.00603668
-0.00146341
0.00661038
-0.00231553
0.00718672
-0.00307203
0.0077607
-0.00372477
0.00832796
-0.00427001
0.00888493
-0.0047081
0.0094289
-0.00504284
0.00995803
-0.00528083
0.0104713
-0.00543061
0.0109688
-0.0055017
0.0114516
-0.00550178
-0.00542643
0.0119238
4.66599e-05
0.00146757
0.000153329
0.00371281
0.000302139
0.00548997
0.000481976
0.00678045
0.000687484
0.00761797
0.000917428
0.00805639
0.00117318
0.00815349
0.00145734
0.00796352
0.00177265
0.00753498
0.00212136
0.00691028
0.0025048
0.00612711
0.0029232
0.00521985
0.00337567
0.00422088
0.00386016
0.00316133
0.00437356
0.00207135
0.00491177
0.000979936
0.00546994
-8.57392e-05
0.00604262
-0.00110108
0.00662408
-0.00204488
0.00720864
-0.00290009
0.00779093
-0.00365432
0.00836617
-0.00430001
0.0089304
-0.00483425
0.00948057
-0.00525827
0.0100146
-0.00557686
0.0105313
-0.00579752
0.0110303
-0.00592966
0.0115123
-0.00598365
0.0119789
-0.00596842
-0.0058825
0.012435
4.98916e-05
0.00141768
0.000167073
0.00359563
0.000333985
0.00532306
0.000538983
0.00657546
0.000775635
0.00738132
0.00104139
0.00779063
0.00133632
0.00785856
0.0016618
0.00763804
0.00201955
0.00717723
0.00241093
0.0065189
0.00283649
0.00570155
0.00329575
0.00476059
0.00378716
0.00372947
0.00430804
0.00264045
0.00485462
0.00152477
0.00542224
0.000412323
0.00600547
-0.000668971
0.00659845
-0.00169406
0.00719514
-0.00264158
0.00778975
-0.0034947
0.00837701
-0.00424158
0.00895244
-0.00487544
0.00951253
-0.00539433
0.0100548
-0.00580055
0.0105779
-0.00609992
0.0110813
-0.00630093
0.0115654
-0.00641382
0.0120315
-0.00644974
0.0124819
-0.00641874
-0.00632237
0.0129217
5.20336e-05
0.00136565
0.000177573
0.00347009
0.000359948
0.00514068
0.000587382
0.00634802
0.00085263
0.00711607
0.00115198
0.00749129
0.00148423
0.00752631
0.00184959
0.00727269
0.0022487
0.00677811
0.00268199
0.00608561
0.00314918
0.00523437
0.00364904
0.00426073
0.00417927
0.00319924
0.00473646
0.00208326
0.00531613
0.00094509
0.00591293
-0.000184473
0.00652083
-0.00127687
0.00713347
-0.0023067
0.00774454
-0.00325265
0.00834816
-0.00409832
0.00893921
-0.00483263
0.00951358
-0.00544981
0.0100683
-0.00594905
0.0106016
-0.00633385
0.0111128
-0.00661113
0.0116023
-0.00679039
0.0120711
-0.00688266
0.0125212
-0.0068998
0.0129553
-0.00685284
-0.00674627
0.0133792
5.31204e-05
0.00131253
0.000184879
0.00333833
0.000380022
0.00494554
0.000627017
0.00610103
0.000918078
0.00682501
0.00124849
0.00716087
0.00161591
0.00715889
0.00201936
0.00686924
0.00245844
0.00633903
0.00293261
0.00561144
0.00344072
0.00472627
0.00398069
0.00372075
0.0045494
0.00263052
0.0051426
0.00149006
0.00575501
0.000332686
0.00638047
-0.000809933
0.0070123
-0.0019087
0.00764363
-0.00293803
0.00826787
-0.00387689
0.00887913
-0.00470958
0.00947252
-0.00542602
0.0100444
-0.00602169
0.0105924
-0.00649709
0.0111156
-0.00685703
0.0116141
-0.00710962
0.012089
-0.00726532
0.0125423
-0.00733593
0.0129764
-0.00733389
0.0133946
-0.00727105
-0.00715473
0.0138031
5.32222e-05
0.00125931
0.00018916
0.00320239
0.000394426
0.00474028
0.00065809
0.00583736
0.00097208
0.00651102
0.00133088
0.00680207
0.0017311
0.00675867
0.00217068
0.00642966
0.00264816
0.00586154
0.00316201
0.00509759
0.00371015
0.00417813
0.00428958
0.00314132
0.00489623
0.00202387
0.0055249
0.000861385
0.00616936
-0.000311772
0.0068226
-0.00146317
0.00747719
-0.00256329
0.00812579
-0.00358662
0.00876157
-0.00451268
0.00937872
-0.00532673
0.00997271
-0.00602001
0.0105405
-0.00658944
0.0110804
-0.00703703
0.0115924
-0.00736898
0.0120773
-0.00759461
0.0125373
-0.00772531
0.012975
-0.00777356
0.0133933
-0.00775226
0.0137962
-0.00767392
-0.00754845
0.0141899
5.2443e-05
0.00120686
0.000190695
0.00306414
0.000403605
0.00452737
0.000681155
0.00555981
0.00101524
0.00617693
0.00139975
0.00641757
0.00183038
0.00632804
0.00230406
0.00595598
0.0028183
0.0053473
0.00337057
0.00454532
0.00395776
0.00359094
0.00457586
0.00252323
0.0052197
0.00138003
0.00588298
0.000198097
0.00655842
-0.000987211
0.00723806
-0.00214281
0.00791375
-0.00323898
0.00857767
-0.00425054
0.00922288
-0.0051579
0.00984378
-0.00594763
0.0104363
-0.00661253
0.0109981
-0.00715124
0.0115284
-0.00756738
0.0120281
-0.0078686
0.0124989
-0.00806543
0.0129437
-0.0081701
0.0133658
-0.00819568
0.0137689
-0.0081554
0.0141572
-0.0080622
-0.00792836
0.0145371
5.09171e-05
0.00115595
0.000189864
0.0029252
0.000408209
0.00430902
0.000697112
0.00527091
0.00104867
0.00582537
0.00145636
0.00600988
0.00191512
0.00586928
0.00242096
0.00545014
0.00297039
0.00479786
0.00355982
0.00395589
0.00418503
0.00296573
0.00484083
0.00186743
0.00552083
0.000700032
0.00621748
-0.000498555
0.00692232
-0.00169206
0.00762643
-0.00284691
0.00832092
-0.00393347
0.00899763
-0.00492725
0.00964965
-0.00580992
0.0102717
-0.0065697
0.0108605
-0.00720127
0.0114143
-0.00770511
0.0119336
-0.00808661
0.0124198
-0.00835487
0.012876
-0.00852155
0.0133055
-0.00859964
0.0137125
-0.00860265
0.0141011
-0.00854399
0.0144757
-0.00843687
-0.00829566
0.014843
4.88051e-05
0.00110714
0.000187135
0.00278687
0.000409072
0.00408708
0.000707161
0.00497282
0.0010739
0.00545863
0.00150255
0.00558123
0.00198743
0.0053844
0.00252371
0.00491386
0.0031069
0.00421468
0.00373227
0.00333052
0.0043944
0.0023036
0.00508674
0.0011751
0.0058015
-1.47282e-05
0.00652975
-0.00122681
0.00726181
-0.00242411
0.00798774
-0.00357284
0.00869808
-0.0046438
0.00938445
-0.00561362
0.0100402
-0.00646563
0.0106605
-0.00719006
0.0112429
-0.00778368
0.0117868
-0.00824903
0.0122935
-0.00859326
0.0127655
-0.00882691
0.0132066
-0.00896264
0.0136211
-0.0090141
0.0140135
-0.00899504
0.0143884
-0.00891894
0.0147506
-0.00879909
-0.00865168
0.0151067
4.62887e-05
0.00106085
0.000183047
0.00265011
0.000407174
0.00386296
0.000712754
0.00466724
0.00109285
0.00507854
0.00154067
0.00513341
0.00205004
0.00487504
0.00261533
0.00434857
0.00323102
0.00359899
0.00389119
0.00267035
0.00458901
0.00160578
0.00531641
0.000447691
0.00606405
-0.000762366
0.00682151
-0.00198427
0.00757785
-0.00318045
0.00832225
-0.00431724
0.00904478
-0.00536633
0.00973709
-0.00630594
0.0103929
-0.00712148
0.0110084
-0.00780552
0.0115819
-0.00835714
0.0121138
-0.00878101
0.0126066
-0.00908603
0.0130638
-0.00928407
0.0134898
-0.00938865
0.0138896
-0.00941389
0.0142682
-0.00937365
0.0146305
-0.00928131
0.0149815
-0.00915009
-0.00899776
0.0153276
4.35635e-05
0.00101729
0.000178184
0.00251549
0.0004036
0.00363754
0.00071552
0.00435532
0.0011077
0.00468635
0.00157341
0.00466769
0.00210607
0.00434238
0.00269927
0.00375537
0.00334641
0.00295185
0.00404021
0.00197654
0.00477228
0.00087371
0.00553285
-0.000312876
0.00631086
-0.00154038
0.0070944
-0.00276781
0.00787131
-0.00395736
0.00863006
-0.00507598
0.00936049
-0.00609676
0.0100546
-0.00700001
0.0107067
-0.00777364
0.011314
-0.0084128
0.0118759
-0.00891908
0.0123942
-0.00929924
0.012872
-0.00956387
0.0133139
-0.00972599
0.0137251
-0.00979982
0.0141109
-0.00979971
0.0144768
-0.0097395
0.0148278
-0.00963229
0.0151688
-0.00949114
-0.00933517
0.0155062
4.08303e-05
0.000976461
0.00017315
0.00238317
0.000399481
0.00341121
0.000717175
0.00403763
0.00112076
0.00428277
0.00160363
0.00418482
0.00215884
0.00378717
0.00277917
0.00313504
0.00345682
0.0022742
0.00418299
0.00125037
0.00494752
0.000109179
0.00573879
-0.00110414
0.00654396
-0.00234556
0.00734964
-0.00357348
0.00814264
-0.00475036
0.00891092
-0.00584427
0.00964446
-0.00683029
0.0103358
-0.00769133
0.0109803
-0.00841814
0.0115762
-0.0090087
0.0121242
-0.00946711
0.0126272
-0.00980221
0.0130894
-0.0100261
0.0135161
-0.0101527
0.013913
-0.0101967
0.0142859
-0.0101726
0.0146402
-0.0100939
0.0149812
-0.0099733
0.0153138
-0.00982368
-0.00966511
0.0156437
3.82859e-05
0.000938175
0.000168542
0.00225291
0.000395938
0.00318381
0.000719429
0.00371414
0.00113432
0.00386788
0.00163417
0.00368497
0.00221161
0.00320973
0.00285853
0.00248813
0.00356576
0.00156697
0.0043228
0.000493334
0.00511752
-0.000685546
0.00593634
-0.00192296
0.00676468
-0.00317389
0.00758776
-0.00439656
0.00839164
-0.00555424
0.00916412
-0.00661675
0.0098956
-0.00756178
0.0105795
-0.00837526
0.0112125
-0.0090511
0.011794
-0.00959023
0.0123261
-0.00999922
0.0128127
-0.0102888
0.0132591
-0.0104724
0.013671
-0.0105646
0.0140546
-0.0105803
0.0144158
-0.0105338
0.0147601
-0.0104382
0.0150926
-0.0103058
0.015418
-0.0101491
-0.00998957
0.0157425
3.6114e-05
0.000902061
0.000164918
0.00212411
0.000394024
0.0029547
0.000723883
0.00338428
0.00115054
0.00344123
0.00166764
0.00316787
0.00226732
0.00261004
0.0029404
0.00181506
0.00367616
0.000831207
0.00446216
-0.00029267
0.00528421
-0.00150759
0.00612671
-0.00276546
0.00697341
-0.0040206
0.00780846
-0.00523161
0.00861746
-0.00636323
0.00938845
-0.00738774
0.0101126
-0.00828596
0.0107846
-0.00904727
0.0114025
-0.00966892
0.011967
-0.0101548
0.0124816
-0.0105138
0.0129513
-0.0107585
0.0133819
-0.0109031
0.01378
-0.0109626
0.0141516
-0.010952
0.0145028
-0.0108849
0.0148387
-0.0107741
0.0151641
-0.0106311
0.0154833
-0.0104683
-0.0103082
0.0158019
3.44775e-05
0.000867583
0.000162774
0.00199581
0.000394669
0.00272281
0.000731946
0.003047
0.00117127
0.00300191
0.00170625
0.00263288
0.00232837
0.00198792
0.00302714
0.00111629
0.00379008
6.82666e-05
0.00460264
-0.00110523
0.00544846
-0.00235341
0.00631
-0.00362701
0.0071696
-0.00488019
0.00801062
-0.00607264
0.00881864
-0.00717125
0.00958235
-0.00815145
0.0102941
-0.00899771
0.01095
-0.00970314
0.0115495
-0.0102684
0.012095
-0.0107003
0.0125911
-0.0110099
0.0130437
-0.0112111
0.0134594
-0.0113187
0.0138448
-0.011348
0.0142062
-0.0113134
0.0145493
-0.011228
0.0148788
-0.0111036
0.0151988
-0.0109511
0.015513
-0.0107825
-0.010622
0.0158268
3.35114e-05
0.000834071
0.000162516
0.0018668
0.000398635
0.00248669
0.000744759
0.00270088
0.00119798
0.00254869
0.0017517
0.00207917
0.00239645
0.00134317
0.00312024
0.000392498
0.00390858
-0.000720077
0.00474469
-0.00194134
0.00561003
-0.00321875
0.00648531
-0.00450229
0.00735177
-0.00574665
0.00819243
-0.0069133
0.00899329
-0.00797211
0.00974409
-0.00890225
0.0104386
-0.00969226
0.0110747
-0.0103392
0.0116533
-0.0108471
0.0121783
-0.0112254
0.0126554
-0.0114871
0.0130913
-0.011647
0.0134931
-0.0117205
0.0138676
-0.0117225
0.014221
-0.0116668
0.0145583
-0.0115654
0.0148838
-0.0114291
0.0152005
-0.0112678
0.015511
-0.011093
-0.0109297
0.0158187
3.33172e-05
0.000800754
0.000164449
0.00173567
0.000406485
0.00224465
0.00076314
0.00234422
0.00123169
0.00208014
0.00180501
0.00150585
0.00247246
0.000675712
0.00322025
-0.000355287
0.00403168
-0.00153151
0.00488766
-0.00279732
0.00576762
-0.00409871
0.0066508
-0.00538549
0.00751776
-0.0066136
0.00835164
-0.00774718
0.00913933
-0.0087598
0.00987199
-0.00963491
0.0105451
-0.0103654
0.0111582
-0.0109522
0.011714
-0.0114028
0.0122176
-0.011729
0.0126757
-0.0119452
0.0130957
-0.012067
0.0134851
-0.0121099
0.0138507
-0.0120882
0.0141986
-0.0120146
0.0145333
-0.0119001
0.0148578
-0.0117537
0.0151739
-0.0115839
0.0154822
-0.0114013
-0.0112298
0.0157823
3.39613e-05
0.000766793
0.000168765
0.00160087
0.000418567
0.00199485
0.000787558
0.00197523
0.00127287
0.00159482
0.00186656
0.000912158
0.00255648
-1.42019e-05
0.00332675
-0.00112556
0.00415836
-0.00236311
0.00502992
-0.00366888
0.00591907
-0.00498786
0.00680397
-0.00627039
0.00766496
-0.00747458
0.00848583
-0.00856806
0.00925477
-0.00952874
0.00996466
-0.0103448
0.0106129
-0.0110136
0.0112006
-0.01154
0.0117322
-0.0119344
0.012214
-0.0122107
0.0126535
-0.0123847
0.0130586
-0.0124722
0.0134372
-0.0124885
0.0137962
-0.0124472
0.0141416
-0.01236
0.0144776
-0.0122361
0.0148061
-0.0120823
0.0151257
-0.0119034
0.0154291
-0.0117047
-0.0115202
0.0157194
3.54734e-05
0.000731319
0.000175553
0.00146079
0.000435014
0.00173539
0.000818132
0.00159211
0.00132154
0.00109141
0.00193609
0.000297608
0.0026478
-0.000725909
0.00343851
-0.00191628
0.00428678
-0.00321138
0.00516911
-0.00455122
0.00606165
-0.0058804
0.00694195
-0.0071507
0.00779067
-0.0083233
0.00859272
-0.0093701
0.00933793
-0.010274
0.0100211
-0.011028
0.0106416
-0.0116341
0.0112024
-0.0121008
0.0117091
-0.0124411
0.012169
-0.0126707
0.0125905
-0.0128061
0.0129818
-0.0128635
0.0133509
-0.0128576
0.0137052
-0.0128014
0.0140508
-0.0127056
0.0143931
-0.0125784
0.0147359
-0.012425
0.0150797
-0.0122473
0.0154162
-0.0120412
0.0156845
-0.0117885
0.00799029
0.00408796
-0.00578859
0.00909708
0.0068668
-0.00797359
0.00974395
0.010967
-0.0116139
0.0100926
0.0149746
-0.0153232
0.0102351
0.0184482
-0.0185907
0.0102382
0.0211939
-0.021197
0.0101473
0.0233664
-0.0232755
0.00999157
0.0252163
-0.0250606
0.00978982
0.0269313
-0.0267296
0.00955296
0.0285986
-0.0283618
0.00928762
0.0302276
-0.0299622
0.00899844
0.0318005
-0.0315113
0.00868932
0.0333
-0.0329908
0.00836239
0.0347156
-0.0343887
0.00802099
0.0360438
-0.0357024
0.0076664
0.0372795
-0.0369249
0.00730078
0.0384263
-0.0380607
0.00692578
0.0394786
-0.0391036
0.00654231
0.040441
-0.0400575
0.00615211
0.0413105
-0.0409203
0.00575565
0.042078
-0.0416816
0.00535393
0.0427628
-0.0423611
0.00494654
0.0433324
-0.0429251
0.00453404
0.0438232
-0.0434107
0.00411414
0.0441934
-0.0437735
0.00368786
0.0444818
-0.0440555
0.00324953
0.0446764
-0.0442381
0.0028017
0.0447449
-0.0442971
0.00233998
0.0448223
-0.0443606
0.044906
-0.0444403
0.00832906
0.00246935
0.0093752
0.00582068
0.0099845
0.0103577
0.0103098
0.0146493
0.0104378
0.0183202
0.0104322
0.0211996
0.0103355
0.0234631
0.0101756
0.0253762
0.0099699
0.027137
0.00972893
0.0288396
0.00945969
0.0304968
0.00916611
0.0320941
0.00885186
0.0336142
0.00851925
0.0350482
0.00817165
0.0363914
0.00781006
0.0376411
0.00743698
0.0387994
0.00705352
0.039862
0.00666143
0.0408331
0.00626186
0.0417101
0.00585512
0.0424848
0.00544299
0.043175
0.00502464
0.0437508
0.00460073
0.0442471
0.00416927
0.0446248
0.00373122
0.0449199
0.00328111
0.0451265
0.00282188
0.0452042
0.00234881
0.0452954
0.0453831
0.00867941
0.000951718
0.00965632
0.00484377
0.0102242
0.00978982
0.0105246
0.0143489
0.0106381
0.0182067
0.0106238
0.021214
0.0105214
0.0235655
0.0103575
0.0255401
0.0101483
0.0273462
0.00990366
0.0290842
0.00963064
0.0307698
0.00933284
0.0323919
0.00901378
0.0339332
0.00867578
0.0353862
0.00832209
0.0367451
0.00795368
0.0380095
0.00757333
0.0391798
0.00718152
0.0402539
0.00678091
0.0412337
0.00637194
0.0421191
0.00595509
0.0429016
0.00553257
0.0435975
0.00510329
0.0441801
0.0046681
0.0446823
0.00422513
0.0450678
0.00377537
0.0453696
0.00331355
0.0455883
0.00284287
0.0456748
0.00235831
0.0457799
0.0458716
0.00903911
-0.000446949
0.00993908
0.00394379
0.0104624
0.00926652
0.0107367
0.0140746
0.0108354
0.018108
0.0108125
0.0212369
0.0107047
0.0236732
0.0105373
0.0257076
0.0103248
0.0275587
0.0100768
0.0293322
0.00980027
0.0310464
0.00949858
0.0326935
0.009175
0.0342568
0.00883181
0.0357294
0.00847218
0.0371047
0.00809725
0.0383844
0.00770968
0.0395673
0.00730975
0.0406538
0.00690066
0.0416428
0.00648233
0.0425374
0.00605567
0.0433283
0.00562271
0.0440304
0.00518253
0.0446203
0.00473618
0.0451287
0.00428164
0.0455223
0.00382035
0.0458309
0.00334681
0.0460619
0.00286466
0.046157
0.00236852
0.0462761
0.0463718
0.00940662
-0.00171116
0.0102226
0.00312783
0.0106981
0.00879097
0.0109452
0.0138275
0.0110293
0.0180239
0.0109981
0.0212681
0.0108854
0.0237859
0.0107144
0.0258785
0.010499
0.0277741
0.0102484
0.0295829
0.00996851
0.0313263
0.00966306
0.032999
0.00933525
0.0345846
0.00898722
0.0360774
0.00862185
0.0374701
0.00824061
0.0387657
0.00784592
0.039962
0.00743818
0.0410615
0.00702058
0.0420604
0.00659291
0.0429651
0.00615673
0.0437645
0.00571329
0.0444739
0.0052623
0.0450713
0.00480488
0.0455861
0.00433876
0.0459885
0.0038661
0.0463036
0.00338091
0.046547
0.0028872
0.0466507
0.00237944
0.0467838
0.046884
0.00977978
-0.00282684
0.0105053
0.00240229
0.0109306
0.00836572
0.0111499
0.0136081
0.0112194
0.0179544
0.0111803
0.0213072
0.011063
0.0239033
0.010889
0.0260525
0.0106709
0.0279921
0.0104179
0.0298359
0.0101351
0.0316091
0.00982623
0.0333079
0.00949443
0.0349164
0.00914182
0.03643
0.00877099
0.0378409
0.0083836
0.039153
0.007982
0.0403636
0.00756661
0.0414769
0.00714064
0.0424864
0.00670381
0.0434019
0.0062581
0.0442102
0.0058043
0.0449277
0.00534259
0.045533
0.0048742
0.0460545
0.00439657
0.0464661
0.00391259
0.0467876
0.00341581
0.0470438
0.00291051
0.047156
0.00239107
0.0473033
0.0474084
0.0101569
-0.00378272
0.0107856
0.0017736
0.011159
0.00799231
0.0113504
0.0134168
0.0114055
0.0178993
0.0113589
0.0213538
0.0112373
0.0240249
0.0110606
0.0262292
0.0108404
0.0282123
0.0105852
0.030091
0.0102999
0.0318944
0.0099879
0.0336199
0.00965239
0.0352519
0.00929546
0.0367869
0.00891944
0.038217
0.00852611
0.0395464
0.00811784
0.0407719
0.00769497
0.0418998
0.00726074
0.0429206
0.00681496
0.0438477
0.00635971
0.0446654
0.00589573
0.0453917
0.00542335
0.0460054
0.00494407
0.0465338
0.00445506
0.0469551
0.00395976
0.0472829
0.0034515
0.0475521
0.00293461
0.0476729
0.00240339
0.0478345
0.047945
0.0105359
-0.00457052
0.0110625
0.00124704
0.0113829
0.00767183
0.0115461
0.0132536
0.0115872
0.0178582
0.0115335
0.0214075
0.0114082
0.0241503
0.0112291
0.0264082
0.0110071
0.0284343
0.0107501
0.030348
0.0104626
0.032182
0.0101479
0.0339346
0.00980895
0.0355909
0.00944798
0.0371479
0.00906707
0.0385979
0.00866804
0.0399454
0.00825329
0.0411866
0.00782318
0.0423299
0.00738079
0.043363
0.00692626
0.0443022
0.00646155
0.0451301
0.00598753
0.0458657
0.00550453
0.0464884
0.00501445
0.0470238
0.00451419
0.0474554
0.00400759
0.0477895
0.00348792
0.0480717
0.00295946
0.0482014
0.00241639
0.0483776
0.0484942
0.0109127
-0.00518351
0.0113366
0.000823216
0.0116019
0.00740652
0.0117371
0.0131184
0.0117645
0.0178307
0.0117042
0.0214678
0.0115755
0.0242789
0.0113945
0.0265893
0.011171
0.0286578
0.0109124
0.0306065
0.0106231
0.0324713
0.010306
0.0342517
0.00996397
0.0359329
0.00959923
0.0375126
0.00921373
0.0389834
0.00880926
0.0403499
0.00838823
0.0416077
0.00795113
0.042767
0.00750074
0.0438134
0.00703763
0.0447653
0.00656356
0.0456042
0.00607963
0.0463496
0.0055861
0.0469819
0.00508528
0.0475246
0.00457392
0.0479667
0.00405604
0.0483073
0.00352503
0.0486028
0.00298503
0.0487414
0.0024301
0.0489325
0.049056
0.0112861
-0.00561932
0.0116059
0.000503382
0.0118155
0.00719695
0.0119229
0.0130109
0.0119374
0.0178163
0.0118709
0.0215343
0.0117393
0.0244106
0.0115564
0.0267721
0.0113318
0.0288825
0.011072
0.0308663
0.0107812
0.0327622
0.010462
0.0345708
0.0101173
0.0362776
0.00974908
0.0378808
0.00935929
0.0393732
0.00894966
0.0407595
0.00852256
0.0420348
0.00807871
0.0432109
0.0076205
0.0442716
0.00714897
0.0452368
0.00666568
0.0460875
0.00617197
0.0468433
0.00566803
0.0474858
0.00515651
0.0480362
0.00463419
0.048489
0.00410508
0.0488364
0.0035628
0.049145
0.0030113
0.0492929
0.00244452
0.0494993
0.0496306
0.0116539
-0.00587963
0.0118688
0.000288553
0.0120233
0.00704244
0.0121037
0.0129305
0.0121057
0.0178142
0.0120335
0.0216065
0.0118993
0.0245448
0.011715
0.0269564
0.0114895
0.029108
0.0112287
0.0311271
0.0109367
0.0330542
0.0106158
0.0348917
0.0102687
0.0366248
0.00989736
0.0382522
0.00950358
0.0397669
0.00908909
0.041174
0.00865615
0.0424677
0.00820581
0.0436612
0.00773999
0.0447374
0.00726023
0.0457166
0.00676785
0.0465799
0.00626448
0.0473467
0.00575027
0.048
0.00522809
0.0485584
0.00469492
0.0490222
0.00415465
0.0493767
0.0036012
0.0496985
0.00303825
0.0498558
0.00245961
0.0500779
0.0502183
0.0120133
-0.00596916
0.0121242
0.00017764
0.0122249
0.00694177
0.0122791
0.0128763
0.0122695
0.0178239
0.0121922
0.0216838
0.0120556
0.0246814
0.01187
0.027142
0.0116438
0.0293342
0.0113824
0.0313885
0.0110895
0.0333471
0.0107673
0.0352139
0.0104181
0.036974
0.0100439
0.0386264
0.00964647
0.0401644
0.00922743
0.041593
0.00878891
0.0429062
0.00833231
0.0441178
0.00785912
0.0452106
0.00737129
0.0462044
0.00687
0.0470812
0.00635707
0.0478596
0.00583276
0.0485243
0.00529999
0.0490911
0.00475605
0.0495661
0.00420469
0.0499281
0.00364019
0.050263
0.00306586
0.0504301
0.00247538
0.0506684
0.050819
0.0123612
-0.00589539
0.0123719
0.000166983
0.0124202
0.00689347
0.0124494
0.0128471
0.0124289
0.0178444
0.0123468
0.0217659
0.0122082
0.02482
0.0120215
0.0273287
0.0117948
0.0295609
0.011533
0.0316504
0.0112394
0.0336406
0.0109162
0.0355371
0.0105653
0.0373249
0.0101886
0.0390031
0.00978779
0.0405652
0.00936452
0.0420163
0.00892072
0.04335
0.0084581
0.0445804
0.00797779
0.0456909
0.00748207
0.0467001
0.00697207
0.0475912
0.0064497
0.048382
0.00591541
0.0490586
0.00537214
0.0496344
0.00481753
0.0501207
0.00425515
0.0504904
0.00367973
0.0508384
0.00309412
0.0510158
0.0024918
0.0512707
0.0514328
0.0126951
-0.00566878
0.0126106
0.000251494
0.0126087
0.00689537
0.0126142
0.0128416
0.0125836
0.0178749
0.0124974
0.0218521
0.012357
0.0249605
0.0121694
0.0275162
0.0119423
0.029788
0.0116803
0.0319124
0.0113863
0.0339345
0.0110624
0.035861
0.0107101
0.0376772
0.0103312
0.0393819
0.00992741
0.040969
0.00950024
0.0424435
0.00905144
0.0437988
0.00858308
0.0450488
0.00809591
0.0461781
0.00759248
0.0472036
0.00707397
0.0481097
0.0065423
0.0489137
0.00599817
0.0496028
0.00544447
0.0501881
0.0048793
0.0506859
0.00430599
0.0510638
0.00371976
0.0514246
0.003123
0.0516125
0.00250887
0.0518849
0.05206