/*--------------------------------*- C++ -*----------------------------------*\
  =========                 |
  \\      /  F ield         | OpenFOAM: The Open Source CFD Toolbox
   \\    /   O peration     | Website:  https://openfoam.org
    \\  /    A nd           | Version:  7
     \\/     M anipulation  |
\*---------------------------------------------------------------------------*/
FoamFile
{
    version     2.0;
    format      ascii;
    class       volVectorField;
    location    "2.8";
    object      U;
}
// * * * * * * * * * * * * * * * * * * * * * * * * * * * * * * * * * * * * * //

dimensions      [0 1 -1 0 0 0 0];

internalField   nonuniform List<vector> 
18000
(
(-0.00184076 0.0461983 1.85926e-20)
(-0.00795988 0.114269 0)
(-0.0175447 0.166353 0)
(-0.0279102 0.204015 0)
(-0.0381825 0.229856 -6.13346e-21)
(-0.0474872 0.246398 3.10092e-20)
(-0.0552399 0.255686 -6.28026e-21)
(-0.0610745 0.259234 6.32356e-21)
(-0.0647883 0.258135 0)
(-0.0662958 0.253187 -1.91167e-20)
(-0.0656032 0.245011 -6.40316e-21)
(-0.0627768 0.23414 0)
(-0.0579268 0.221067 1.27564e-20)
(-0.0511951 0.206273 1.28055e-20)
(-0.0427495 0.190227 -2.55225e-20)
(-0.0327818 0.173394 -2.54506e-20)
(-0.0214961 0.156216 0)
(-0.00910379 0.139104 -3.79356e-20)
(0.00417639 0.122433 1.25857e-20)
(0.0181248 0.106528 -3.75548e-20)
(0.0325271 0.0916567 1.24463e-20)
(0.0471777 0.0780301 0)
(0.0618862 0.0657982 -1.22123e-20)
(0.0764814 0.0550549 -1.21976e-20)
(0.0908114 0.045845 0)
(0.104747 0.0381693 0)
(0.118176 0.0320062 -2.37802e-20)
(0.131022 0.0273268 -2.35763e-20)
(0.143262 0.0242259 -2.34608e-20)
(0.154568 0.0230863 2.53376e-20)
(-0.00287128 0.0474882 2.63852e-20)
(-0.00995261 0.117178 4.59735e-20)
(-0.0196215 0.170288 -4.70585e-20)
(-0.0296786 0.208485 -4.79871e-20)
(-0.0394072 0.234403 -1.22198e-20)
(-0.0480501 0.250616 3.6983e-20)
(-0.0550884 0.25924 -4.99203e-20)
(-0.0601847 0.26186 -5.0315e-20)
(-0.0631457 0.259631 5.06049e-20)
(-0.0638949 0.253409 5.08379e-20)
(-0.0624393 0.243863 -2.54194e-20)
(-0.0588446 0.231565 -5.09633e-20)
(-0.0532264 0.217042 -2.55996e-20)
(-0.0457326 0.200806 5.08804e-20)
(-0.0365374 0.183358 -5.07302e-20)
(-0.0258403 0.165187 5.0797e-20)
(-0.0138553 0.146764 -1.01071e-19)
(-0.000806139 0.128523 7.55466e-20)
(0.0130787 0.110859 -4.99685e-20)
(0.0275724 0.0941111 2.49983e-20)
(0.0424518 0.0785581 -4.94074e-20)
(0.0575041 0.0644162 0)
(0.0725351 0.0518362 2.47453e-20)
(0.0873714 0.0409068 -4.84962e-20)
(0.101862 0.0316629 4.8047e-20)
(0.115881 0.0240952 0)
(0.129317 0.0181651 -2.34929e-20)
(0.142102 0.0138338 2.33805e-20)
(0.154228 0.0111964 9.29968e-20)
(0.165379 0.0106673 5.01448e-20)
(-0.00394161 0.0484619 -4.23301e-20)
(-0.0119979 0.119421 -4.59724e-20)
(-0.0216956 0.173473 7.05506e-20)
(-0.0313426 0.212213 1.19662e-19)
(-0.0403944 0.238267 0)
(-0.0482172 0.254236 -4.94068e-20)
(-0.0543613 0.262285 4.99183e-20)
(-0.0585327 0.264062 1.5054e-19)
(-0.0605569 0.260787 -5.06027e-20)
(-0.0603622 0.253367 -5.07997e-20)
(-0.0579618 0.242522 1.52283e-19)
(-0.0534303 0.228861 5.09609e-20)
(-0.0468863 0.212948 0)
(-0.038486 0.195329 -1.01673e-19)
(-0.0284143 0.176534 1.5164e-19)
(-0.0168818 0.157082 -5.0241e-20)
(-0.00411493 0.137466 5.04276e-20)
(0.00965438 0.118148 5.01284e-20)
(0.0241873 0.0995417 2.14289e-22)
(0.0392449 0.0820012 0)
(0.0545981 0.0658155 1.4805e-19)
(0.0700308 0.0512067 -9.77486e-20)
(0.0853445 0.0383252 4.87609e-20)
(0.100366 0.0272537 0)
(0.114948 0.018017 -4.80449e-20)
(0.128967 0.0105919 1.89892e-19)
(0.142322 0.00492329 -1.40826e-19)
(0.154954 0.000960092 -4.68656e-20)
(0.166863 -0.00121131 4.58836e-20)
(0.177758 -0.00114959 4.9795e-20)
(-0.00504295 0.0491569 0)
(-0.0140871 0.121132 2.2861e-20)
(-0.023768 0.175991 1.48312e-23)
(-0.032924 0.215237 -1.19465e-19)
(-0.0411719 0.241455 0)
(-0.0480215 0.257245 -9.80666e-20)
(-0.0531057 0.264798 0)
(-0.0561732 0.265818 -1.50254e-19)
(-0.0570744 0.261581 5.02658e-20)
(-0.0557534 0.253049 -1.0071e-19)
(-0.0522334 0.240984 -1.01363e-19)
(-0.046597 0.22604 -5.06254e-20)
(-0.0389718 0.208816 5.05266e-20)
(-0.029526 0.189889 5.01627e-20)
(-0.0184575 0.16982 -5.06698e-20)
(-0.00598806 0.149155 -9.99021e-20)
(0.00764435 0.128417 9.98651e-20)
(0.022194 0.108091 0)
(0.0374106 0.0886066 0)
(0.0530474 0.0703358 0)
(0.0688697 0.053579 0)
(0.0846574 0.0385611 0)
(0.10021 0.0254312 0)
(0.115358 0.0142665 -9.56141e-20)
(0.129958 0.00508014 -9.53144e-20)
(0.143896 -0.00216627 -4.15935e-22)
(0.157078 -0.00754411 -9.35894e-20)
(0.169457 -0.0111246 -4.26132e-22)
(0.18105 -0.0128339 -9.27283e-20)
(0.191592 -0.0122098 1.97434e-19)
(-0.00614805 0.0495163 0)
(-0.0161817 0.122178 2.0454e-19)
(-0.0258156 0.177701 1.5867e-23)
(-0.0344093 0.21743 -7.13141e-20)
(-0.041749 0.243853 2.41153e-19)
(-0.0474937 0.259538 1.47018e-19)
(-0.0513618 0.266694 1.47926e-19)
(-0.0531574 0.267059 0)
(-0.0527639 0.261963 0)
(-0.0501438 0.252418 1.50966e-19)
(-0.0453343 0.239233 4.10569e-23)
(-0.0384325 0.223102 -3.51945e-19)
(-0.0295783 0.204659 3.01225e-19)
(-0.0189537 0.184514 -1.00677e-19)
(-0.00677085 0.163261 9.94856e-20)
(0.00673406 0.141473 9.98851e-20)
(0.0213085 0.119699 -9.88891e-20)
(0.0366932 0.0984458 9.90367e-20)
(0.0526271 0.0781646 1.96456e-19)
(0.0688554 0.0592409 -9.7737e-20)
(0.0851373 0.0419847 -1.93931e-19)
(0.10125 0.0266246 1.92685e-19)
(0.116996 0.0133069 -1.91374e-19)
(0.132208 0.00210253 9.56096e-20)
(0.146752 -0.00698687 0)
(0.160523 -0.014017 0)
(0.173442 -0.0190776 8.12677e-22)
(0.185472 -0.0222602 -3.68294e-19)
(0.196649 -0.0235099 1.82345e-19)
(0.206738 -0.0223572 -1.95996e-19)
(-0.00724386 0.049584 0)
(-0.0182606 0.122605 -1.81764e-19)
(-0.0278256 0.178634 1.85359e-19)
(-0.0358102 0.218793 0)
(-0.0421562 0.24544 -3.84975e-19)
(-0.0466756 0.261087 -4.87618e-20)
(-0.0491894 0.267932 -9.88647e-20)
(-0.0495602 0.267743 -4.95885e-20)
(-0.0477073 0.261895 0)
(-0.0436231 0.251446 -1.00058e-19)
(-0.0373653 0.237248 1.00156e-19)
(-0.0290462 0.220036 2.00872e-19)
(-0.0188216 0.200482 -2.0067e-19)
(-0.00689134 0.179227 0)
(0.00651523 0.156895 -1.99696e-19)
(0.0211461 0.134088 1.97837e-19)
(0.0367332 0.11138 1.98157e-19)
(0.0530029 0.089298 2.94449e-19)
(0.069682 0.0683138 -2.93887e-19)
(0.0865079 0.0488267 3.88605e-19)
(0.103236 0.031154 1.93556e-19)
(0.119642 0.0155271 -1.92675e-19)
(0.13553 0.00208977 3.81501e-19)
(0.150743 -0.0090956 0)
(0.165156 -0.0180403 1.87348e-19)
(0.178677 -0.024816 3.72572e-19)
(0.191243 -0.0295335 -1.83522e-19)
(0.20283 -0.0323057 1.83954e-19)
(0.213498 -0.0331015 -3.93874e-22)
(0.223044 -0.0314536 -1.94583e-19)
(-0.00831084 0.0493482 -2.07785e-20)
(-0.0202984 0.122394 0)
(-0.029786 0.17875 -2.31623e-19)
(-0.0371243 0.21927 4.71476e-20)
(-0.04241 0.246154 1.44159e-19)
(-0.0456098 0.261821 4.85378e-20)
(-0.0466472 0.268444 1.95766e-19)
(-0.0454528 0.267809 0)
(-0.0419941 0.261323 9.93002e-20)
(-0.0362973 0.250086 9.91585e-20)
(-0.0284431 0.234995 -9.97323e-20)
(-0.0185652 0.216824 2.98582e-19)
(-0.00684109 0.196279 0)
(0.00651036 0.174036 0)
(0.0212414 0.150746 2.96545e-19)
(0.0370811 0.127039 -4.93074e-19)
(0.0537431 0.103511 1.95802e-19)
(0.0709393 0.0807138 -1.96014e-19)
(0.0883861 0.0591343 -1.93768e-19)
(0.105812 0.0391847 -5.79994e-19)
(0.122967 0.0211894 -8.57008e-22)
(0.13963 0.00538014 1.90207e-19)
(0.15561 -0.00810301 -3.7903e-19)
(0.170758 -0.0192066 1.87544e-19)
(0.184964 -0.0279565 -1.21005e-21)
(0.198153 -0.0344404 -1.85862e-19)
(0.21028 -0.0387903 1.84336e-19)
(0.221337 -0.0411422 0)
(0.231407 -0.0414928 1.79988e-19)
(0.240331 -0.0393886 3.3702e-22)
(-0.00933432 0.0488252 -4.13832e-20)
(-0.0222713 0.121555 4.50071e-20)
(-0.0316814 0.178048 -2.76033e-19)
(-0.0383569 0.218844 -1.40608e-19)
(-0.0425361 0.245956 1.90623e-19)
(-0.0443388 0.261689 -2.89835e-19)
(-0.0437981 0.268176 -9.80977e-20)
(-0.0409203 0.267198 -1.96376e-19)
(-0.0357262 0.260189 1.97311e-19)
(-0.0282823 0.248289 -3.96566e-19)
(-0.0186994 0.232434 -1.98038e-19)
(-0.00713751 0.213434 -9.5915e-22)
(0.00620306 0.192032 9.90762e-20)
(0.0210808 0.168934 -2.95823e-19)
(0.0372251 0.14482 -3.9383e-19)
(0.0543448 0.120344 4.19069e-22)
(0.0721358 0.0961272 -7.26182e-22)
(0.0902937 0.0727394 1.9364e-19)
(0.108522 0.0506847 1.93757e-19)
(0.126543 0.0303849 3.73219e-22)
(0.144103 0.0121698 -4.77687e-22)
(0.160982 -0.00372927 1.88128e-19)
(0.177 -0.017178 1.88894e-19)
(0.192018 -0.0281341 -3.62946e-22)
(0.205943 -0.0366367 -5.57143e-19)
(0.21872 -0.042792 3.67272e-19)
(0.230326 -0.0467514 3.65508e-19)
(0.240772 -0.0486762 -3.61543e-19)
(0.250165 -0.0485926 -1.79981e-19)
(0.258396 -0.0460741 -1.90015e-19)
(-0.0102999 0.0480337 -3.70208e-19)
(-0.0241579 0.120111 -4.48282e-20)
(-0.0335005 0.176533 2.29761e-19)
(-0.0395109 0.217499 1.87566e-19)
(-0.0425574 0.244813 -1.90618e-19)
(-0.0429084 0.260648 1.93076e-19)
(-0.0407098 0.26707 -9.73048e-20)
(-0.0360501 0.265849 2.94343e-19)
(-0.0290109 0.258436 -1.97303e-19)
(-0.0197049 0.246001 1.97838e-19)
(-0.00827834 0.229515 9.9243e-20)
(0.00507822 0.209826 -9.91996e-20)
(0.0201369 0.18771 -5.90328e-19)
(0.0366311 0.163901 3.93548e-19)
(0.0542656 0.139107 1.96361e-19)
(0.0727261 0.114006 0)
(0.0916892 0.0892408 0)
(0.110835 0.0653996 -1.90519e-21)
(0.129853 0.0430001 -1.90987e-19)
(0.148457 0.0224722 0)
(0.166393 0.00414896 0)
(0.183446 -0.0117403 -1.88973e-19)
(0.199445 -0.0250694 0)
(0.214268 -0.0358084 -3.70237e-19)
(0.227839 -0.0440112 0)
(0.240128 -0.0498012 -1.83447e-19)
(0.251136 -0.0533496 3.6311e-19)
(0.260897 -0.0548427 -3.59171e-19)
(0.269542 -0.0543387 0)
(0.277021 -0.051448 0)
(-0.0111965 0.0469972 3.28995e-19)
(-0.0259387 0.118092 0)
(-0.0352317 0.174223 -4.5725e-20)
(-0.0405895 0.215233 4.6594e-20)
(-0.042496 0.242704 -2.83502e-19)
(-0.0413626 0.258655 4.98226e-23)
(-0.037449 0.265075 -9.68922e-20)
(-0.0309314 0.263704 0)
(-0.021958 0.256001 0)
(-0.0106949 0.243158 -9.82585e-20)
(0.00267099 0.226181 9.83532e-20)
(0.0179152 0.205948 -1.96501e-19)
(0.0347787 0.183268 1.98036e-19)
(0.0529648 0.158901 0)
(0.0721517 0.13358 0)
(0.0920023 0.108007 0)
(0.112171 0.0828444 1.91708e-19)
(0.13232 0.0586968 -1.11153e-21)
(0.152126 0.0360918 1.92121e-19)
(0.171295 0.0154665 -3.78121e-19)
(0.189573 -0.00284516 1.88655e-19)
(0.206752 -0.0186192 -9.34936e-19)
(0.222674 -0.0317397 6.94987e-22)
(0.237234 -0.0421897 3.70219e-19)
(0.250381 -0.0500389 -1.62805e-21)
(0.262111 -0.055428 3.6286e-19)
(0.272452 -0.0585477 -3.59142e-19)
(0.281462 -0.0596077 -3.57616e-19)
(0.289298 -0.0586994 7.7626e-22)
(0.295978 -0.0554787 -3.72129e-19)
(-0.0120155 0.0457431 -4.08692e-20)
(-0.0275977 0.115539 0)
(-0.0368636 0.17115 9.10921e-20)
(-0.0415935 0.212058 -9.2823e-20)
(-0.0423711 0.239618 8.49526e-19)
(-0.0397414 0.255682 4.78442e-23)
(-0.0340776 0.262145 -9.65143e-20)
(-0.0256485 0.260708 9.7187e-20)
(-0.014675 0.252823 -4.87375e-19)
(-0.00138042 0.239699 0)
(0.0140023 0.222369 0)
(0.0312089 0.201741 -1.9474e-19)
(0.0499456 0.17865 1.96064e-19)
(0.0698846 0.153882 -1.94536e-19)
(0.0906742 0.128195 1.93705e-19)
(0.111951 0.102311 0)
(0.133347 0.0769108 -7.67383e-19)
(0.154504 0.0526111 3.80468e-19)
(0.175087 0.0299489 1.89832e-19)
(0.194795 0.00936463 5.65642e-19)
(0.213375 -0.00881014 0)
(0.230627 -0.0243593 3.73158e-19)
(0.246408 -0.0371787 3.68938e-19)
(0.260639 -0.0472661 3.66206e-19)
(0.273294 -0.0547083 -2.32627e-21)
(0.284397 -0.0596628 -3.59799e-19)
(0.294008 -0.0623392 3.59128e-19)
(0.302211 -0.0629684 0)
(0.309191 -0.0616749 8.13533e-22)
(0.315038 -0.0581662 7.40489e-19)
(-0.0127514 0.0443022 -3.24957e-19)
(-0.0291216 0.1125 0)
(-0.0383857 0.167357 -3.62047e-19)
(-0.0425219 0.208001 -4.61895e-19)
(-0.0421958 0.235558 -2.82841e-19)
(-0.0380769 0.251711 9.52491e-20)
(-0.0306495 0.258246 1.39073e-23)
(-0.0202774 0.256811 -9.68168e-20)
(-0.00725844 0.248843 1.54885e-21)
(0.00812126 0.23556 1.94822e-19)
(0.0255779 0.218015 1.94054e-19)
(0.0448041 0.197139 -1.9291e-19)
(0.0654674 0.173792 1.94268e-19)
(0.0872051 0.148786 -5.79712e-19)
(0.109634 0.122897 5.77213e-19)
(0.132361 0.0968691 3.82594e-19)
(0.154994 0.071396 9.54007e-19)
(0.177153 0.0471056 -1.91702e-19)
(0.198491 0.0245403 -3.76011e-19)
(0.218701 0.00414098 -2.20314e-21)
(0.237533 -0.0137668 -3.72659e-19)
(0.254798 -0.0289776 1.108e-18)
(0.270375 -0.0414016 -7.36414e-19)
(0.284208 -0.0510529 7.27127e-19)
(0.296303 -0.0580357 -3.62691e-19)
(0.306717 -0.0625249 7.17273e-19)
(0.315543 -0.0647469 1.53183e-21)
(0.322894 -0.0649518 -7.05065e-19)
(0.32898 -0.0632952 6.97261e-19)
(0.333972 -0.0595404 3.65115e-19)
(-0.0134014 0.0427075 3.24956e-19)
(-0.0305009 0.109033 0)
(-0.0397872 0.162897 8.13071e-19)
(-0.043369 0.203098 2.77232e-19)
(-0.0419764 0.230542 0)
(-0.036391 0.246736 0)
(-0.0272051 0.253352 0)
(-0.0148786 0.251973 0)
(0.00021074 0.24401 1.94528e-19)
(0.0177103 0.230681 1.94153e-19)
(0.0372805 0.213051 -3.89047e-19)
(0.0585668 0.192073 3.88526e-19)
(0.0811946 0.168626 5.79036e-19)
(0.104763 0.143544 1.9349e-19)
(0.128854 0.117622 1.89882e-19)
(0.153042 0.0916201 -5.73346e-19)
(0.176908 0.066244 -7.59e-19)
(0.200051 0.0421287 -3.78301e-19)
(0.222109 0.0198194 3.75991e-19)
(0.242773 -0.000246911 -7.46465e-19)
(0.261797 -0.0177545 3.69657e-19)
(0.279008 -0.0325119 -7.36445e-19)
(0.294309 -0.044446 3.63698e-19)
(0.307676 -0.0535889 -1.38054e-21)
(0.319147 -0.0600626 -3.58828e-19)
(0.328814 -0.0640594 -7.14202e-19)
(0.336806 -0.0658204 7.07403e-19)
(0.343268 -0.0656117 0)
(0.348437 -0.063617 -8.2404e-22)
(0.352563 -0.0596575 -7.26752e-19)
(-0.0139657 0.0409935 4.03751e-20)
(-0.0317292 0.1052 0)
(-0.0410575 0.157835 -3.60639e-19)
(-0.044125 0.197401 9.18506e-20)
(-0.041709 0.224601 -9.32626e-20)
(-0.0346918 0.240769 0)
(-0.0237677 0.247454 -9.54223e-20)
(-0.00949183 0.246166 9.60776e-20)
(0.00767583 0.238282 1.92865e-19)
(0.027313 0.225009 -5.7924e-19)
(0.0490209 0.207419 -1.93206e-19)
(0.0723933 0.186479 1.82708e-22)
(0.0970101 0.163085 -8.42544e-22)
(0.122428 0.138089 -3.83432e-19)
(0.148191 0.112303 -1.91713e-19)
(0.173838 0.0864989 0)
(0.198919 0.0613923 8.36894e-22)
(0.223011 0.0376217 3.7626e-19)
(0.24574 0.0157305 -3.72612e-19)
(0.266795 -0.00385262 0)
(0.285939 -0.0208259 0)
(0.303019 -0.0350156 0)
(0.317968 -0.046367 0)
(0.330795 -0.0549324 -2.18866e-21)
(0.341577 -0.0608523 0)
(0.350445 -0.0643345 0)
(0.357564 -0.0656326 3.4994e-19)
(0.363113 -0.065025 3.46827e-19)
(0.367351 -0.0627207 3.4509e-19)
(0.370613 -0.0585976 -8.72426e-22)
(-0.0144473 0.0391946 4.02155e-20)
(-0.0328029 0.101064 -8.75669e-20)
(-0.0421848 0.15224 5.37157e-19)
(-0.0447739 0.190974 -9.13977e-20)
(-0.041379 0.217784 9.29944e-20)
(-0.0329705 0.233837 4.9277e-23)
(-0.0203384 0.24056 2.84531e-19)
(-0.00413041 0.239381 -3.82132e-19)
(0.0151106 0.231633 5.75795e-19)
(0.03689 0.218506 7.74374e-22)
(0.0607472 0.20107 -1.91643e-19)
(0.08622 0.180301 3.83562e-19)
(0.112838 0.157108 -3.82368e-19)
(0.140113 0.132358 3.80794e-19)
(0.167543 0.106876 0)
(0.194629 0.0814436 3.76859e-19)
(0.22089 0.0567807 0)
(0.245878 0.0335258 1.9353e-21)
(0.269211 0.0122156 -3.69833e-19)
(0.290577 -0.00673472 -3.67323e-19)
(0.309754 -0.0230415 3.64751e-19)
(0.326615 -0.036552 -3.62114e-19)
(0.341128 -0.0472333 -3.59403e-19)
(0.353341 -0.0551582 -7.15366e-19)
(0.363372 -0.0604853 -3.53733e-19)
(0.371394 -0.0634366 3.52207e-19)
(0.377609 -0.0642754 -6.98391e-19)
(0.382229 -0.0632889 -3.46816e-19)
(0.385537 -0.0607067 0)
(0.387949 -0.0564609 -3.57644e-19)
(-0.0148513 0.0373443 0)
(-0.0337211 0.0966933 3.48058e-19)
(-0.0431562 0.146192 -2.68519e-19)
(-0.0452931 0.183891 -4.54805e-19)
(-0.0409587 0.210151 0)
(-0.0311994 0.225985 0)
(-0.0168931 0.232696 -5.6901e-19)
(0.00122324 0.231626 7.62917e-19)
(0.0225248 0.224056 -5.74371e-19)
(0.046443 0.21115 0)
(0.072452 0.193972 1.92632e-19)
(0.10003 0.173499 -1.92045e-19)
(0.128651 0.150651 1.61998e-21)
(0.157775 0.126304 -1.91575e-19)
(0.186852 0.101292 -1.881e-19)
(0.215341 0.0764034 -1.78323e-21)
(0.242724 0.0523578 3.72776e-19)
(0.268535 0.0297887 3.72258e-19)
(0.292381 0.00922046 7.4608e-22)
(0.313958 -0.00895059 7.33392e-19)
(0.333065 -0.0244641 -7.28785e-19)
(0.349607 -0.0371911 7.22846e-19)
(0.363592 -0.0471224 3.5939e-19)
(0.375114 -0.0543518 3.56599e-19)
(0.384335 -0.0590553 2.13217e-21)
(0.391469 -0.0614668 0)
(0.396759 -0.0618564 3.46912e-19)
(0.400447 -0.0605158 -1.03065e-18)
(0.402838 -0.0576909 3.38024e-19)
(0.404424 -0.0533637 3.53974e-19)
(-0.0151849 0.0354743 -2.38809e-19)
(-0.0344843 0.0921522 -7.81684e-19)
(-0.0439568 0.13977 -1.11552e-22)
(-0.0456525 0.176237 1.25212e-21)
(-0.0404067 0.201781 -2.7618e-19)
(-0.0293299 0.217278 0)
(-0.0133802 0.223909 -1.88076e-19)
(0.00662096 0.222932 -1.13999e-18)
(0.0299681 0.215566 5.73051e-19)
(0.0560181 0.202944 -3.81403e-19)
(0.0841763 0.186116 5.72084e-19)
(0.113856 0.166057 -1.90736e-19)
(0.144471 0.14369 3.80722e-19)
(0.175422 0.119898 -9.45592e-19)
(0.206107 0.0955197 5.65415e-19)
(0.235937 0.071345 -8.95025e-22)
(0.264361 0.0480881 -1.11561e-18)
(0.290893 0.0263716 3.6957e-19)
(0.315137 0.00670073 -3.66796e-19)
(0.336803 -0.0105525 0)
(0.355719 -0.0251549 3.6077e-19)
(0.37183 -0.0370043 0)
(0.38519 -0.0461165 -3.56616e-19)
(0.395943 -0.0526063 3.53113e-19)
(0.404298 -0.0566654 3.51579e-19)
(0.410512 -0.0585369 3.46457e-19)
(0.414863 -0.058494 0)
(0.417628 -0.0568292 0)
(0.419126 -0.0537996 -6.78756e-19)
(0.41992 -0.0494316 1.05187e-18)
(-0.0154564 0.0336134 2.39052e-19)
(-0.0350939 0.0875036 4.33173e-19)
(-0.0445689 0.133057 -3.53809e-19)
(-0.0458144 0.168101 7.23422e-19)
(-0.0396671 0.192763 9.33318e-20)
(-0.027292 0.207796 9.31976e-20)
(-0.00971926 0.214271 1.39102e-21)
(0.0121499 0.213354 -3.77174e-19)
(0.0375316 0.206205 -1.89271e-19)
(0.065707 0.193917 1.44516e-21)
(0.096009 0.177521 -1.48183e-21)
(0.127781 0.157984 -5.68586e-19)
(0.160367 0.136229 -1.88244e-19)
(0.193105 0.113139 1.61353e-21)
(0.225334 0.0895547 3.73811e-19)
(0.256416 0.0662595 3.71587e-19)
(0.285768 0.0439572 1.75016e-21)
(0.312889 0.0232523 -3.66725e-19)
(0.337388 0.00462481 3.65241e-19)
(0.358998 -0.0115836 -3.62285e-19)
(0.377585 -0.0251703 -7.19604e-19)
(0.393142 -0.0360622 -3.57356e-19)
(0.405776 -0.0443005 7.07249e-19)
(0.415684 -0.0500199 0)
(0.423123 -0.0534253 -3.47405e-19)
(0.428392 -0.0547657 -6.90797e-19)
(0.431806 -0.054314 -6.85058e-19)
(0.433667 -0.0523591 3.39637e-19)
(0.434308 -0.0491646 -1.00901e-18)
(0.434356 -0.0447949 3.48243e-19)
(-0.0156745 0.0317865 -3.95454e-19)
(-0.0355508 0.0828057 8.61148e-20)
(-0.0449713 0.126136 3.53812e-19)
(-0.0457324 0.15958 -2.70889e-19)
(-0.0386701 0.183196 9.22474e-20)
(-0.024995 0.197638 -1.15962e-22)
(-0.0058026 0.203869 9.3681e-19)
(0.0179311 0.202973 3.77917e-19)
(0.0453451 0.196042 3.79384e-19)
(0.0756436 0.184129 5.69414e-19)
(0.108082 0.168238 -5.6938e-19)
(0.141926 0.149324 3.78892e-19)
(0.176446 0.128305 7.5404e-19)
(0.210907 0.106059 3.74746e-19)
(0.244585 0.0834221 -9.69204e-22)
(0.276796 0.0611649 -7.42453e-19)
(0.306927 0.039974 7.37539e-19)
(0.334472 0.0204281 8.93912e-22)
(0.359055 0.00297525 -3.63388e-19)
(0.380442 -0.0120778 3.60448e-19)
(0.398547 -0.0245618 3.58836e-19)
(0.413422 -0.034434 -3.54165e-19)
(0.425229 -0.0417604 -7.05821e-19)
(0.434221 -0.0466938 -5.47096e-22)
(0.440703 -0.0494487 3.48139e-19)
(0.445015 -0.0502766 3.44342e-19)
(0.447502 -0.0494461 6.80756e-19)
(0.448492 -0.0472389 -6.71249e-19)
(0.448325 -0.0439202 0)
(0.447682 -0.0395862 3.45998e-19)
(-0.0158479 0.0300139 1.20471e-21)
(-0.0358548 0.0781099 0)
(-0.0451387 0.119084 -2.63118e-19)
(-0.0453525 0.150769 -8.96849e-20)
(-0.0373326 0.173189 -3.64309e-19)
(-0.0223293 0.186913 0)
(-0.00149784 0.192815 -5.60707e-19)
(0.024115 0.191893 1.87935e-19)
(0.0535715 0.185177 0)
(0.0859959 0.173671 -3.77044e-19)
(0.12056 0.158351 0)
(0.156445 0.140155 -5.63993e-19)
(0.192838 0.119989 5.62197e-19)
(0.228927 0.0987225 -3.7421e-19)
(0.263924 0.0771775 -3.70525e-19)
(0.297101 0.0561064 0)
(0.327826 0.0361699 0)
(0.355597 0.0179134 3.64125e-19)
(0.380064 0.00174695 1.74976e-22)
(0.401043 -0.012061 3.58153e-19)
(0.418506 -0.0233769 -3.55844e-19)
(0.432566 -0.032188 7.07594e-19)
(0.44345 -0.0385836 -3.50091e-19)
(0.451464 -0.0427312 0)
(0.456961 -0.0448514 1.0345e-18)
(0.460316 -0.0451941 -1.7051e-18)
(0.461903 -0.0440205 3.38639e-19)
(0.462065 -0.0416012 3.35857e-19)
(0.46115 -0.0381993 3.30421e-19)
(0.45988 -0.033937 6.8479e-19)
(-0.0159839 0.0283107 -3.12587e-19)
(-0.0360032 0.0734603 6.8292e-19)
(-0.0450418 0.111973 3.51137e-19)
(-0.0446136 0.141766 8.03417e-19)
(-0.0355609 0.162854 9.9935e-19)
(-0.0191702 0.175747 1.84231e-19)
(0.00334652 0.181236 -9.28484e-19)
(0.0308742 0.180243 0)
(0.0623968 0.173733 -7.50192e-19)
(0.0969538 0.162663 -3.74101e-19)
(0.133626 0.147975 0)
(0.171503 0.130586 -3.72787e-19)
(0.209679 0.111384 -1.09018e-21)
(0.247263 0.0912238 -1.11418e-18)
(0.283408 0.0709047 3.70517e-19)
(0.317347 0.0511525 3.67267e-19)
(0.34844 0.0325946 -7.283e-19)
(0.376206 0.015736 -7.24741e-19)
(0.400339 0.000943669 -1.23974e-22)
(0.420713 -0.0115548 -9.94349e-22)
(0.437369 -0.0216616 0)
(0.450489 -0.0293931 -3.51513e-19)
(0.460364 -0.0348586 -3.46672e-19)
(0.467352 -0.0382365 0)
(0.471851 -0.0397495 0)
(0.474265 -0.0396421 1.01896e-18)
(0.474989 -0.0381645 -1.00442e-18)
(0.474379 -0.0355742 0)
(0.472782 -0.0321285 9.8522e-19)
(0.470956 -0.0279728 -6.79268e-19)
(-0.0160884 0.0266871 2.47439e-21)
(-0.03599 0.0688925 -6.82809e-19)
(-0.0446467 0.10487 -8.72249e-20)
(-0.0434487 0.132662 -8.92224e-19)
(-0.033253 0.152306 -5.44888e-19)
(-0.015383 0.164268 1.83537e-19)
(0.00889371 0.169272 3.72034e-19)
(0.038393 0.168168 9.31045e-19)
(0.0720168 0.161858 7.50192e-19)
(0.108713 0.151252 7.51139e-19)
(0.147463 0.137255 0)
(0.187255 0.120756 3.09668e-21)
(0.227089 0.102623 0)
(0.265994 0.0836834 7.4203e-19)
(0.303067 0.0647085 0)
(0.337522 0.0463888 -3.65586e-19)
(0.368725 0.02931 3.66727e-19)
(0.396232 0.0139309 0)
(0.419797 0.000572161 0)
(0.439365 -0.0105804 -1.06381e-18)
(0.455056 -0.0194638 3.52216e-19)
(0.467123 -0.0261204 0)
(0.475919 -0.0306758 6.92575e-19)
(0.481852 -0.0333148 6.88819e-19)
(0.485357 -0.0342578 -1.36129e-18)
(0.486862 -0.0337404 1.34858e-18)
(0.486774 -0.0319998 2.40057e-21)
(0.485456 -0.0292772 6.59157e-19)
(0.483251 -0.0258239 -6.56609e-19)
(0.480938 -0.0218036 0)
(-0.0161647 0.025148 7.81241e-19)
(-0.0358056 0.0644337 -8.48053e-20)
(-0.0439158 0.0978303 -6.94201e-19)
(-0.0417867 0.123544 0)
(-0.0303031 0.141656 -7.20345e-19)
(-0.0108289 0.152609 0)
(0.0153097 0.157071 -9.21363e-19)
(0.0468557 0.155826 -5.58728e-19)
(0.0826223 0.149717 -7.44266e-19)
(0.121457 0.139604 0)
(0.162233 0.126355 1.86298e-19)
(0.20383 0.110827 1.88573e-19)
(0.245152 0.0938558 -3.70864e-19)
(0.285156 0.0762381 -7.35584e-19)
(0.322897 0.0587063 -3.65021e-19)
(0.357582 0.0419082 -1.45465e-18)
(0.388607 0.0263809 7.24988e-19)
(0.415585 0.0125325 9.93282e-23)
(0.438345 0.000635954 -2.53954e-23)
(0.456916 -0.00916381 1.06186e-18)
(0.471498 -0.0168361 0)
(0.482419 -0.0224449 0)
(0.490088 -0.0261276 -1.60481e-21)
(0.494959 -0.0280707 2.25668e-21)
(0.497493 -0.0284882 -6.74683e-19)
(0.498136 -0.0276039 -6.70558e-19)
(0.497301 -0.0256396 1.73709e-21)
(0.495347 -0.0228203 -6.59157e-19)
(0.492611 -0.0193891 -6.50607e-19)
(0.489886 -0.0155242 1.87904e-21)
(-0.0162133 0.0236933 0)
(-0.0354365 0.0601018 6.74969e-19)
(-0.042808 0.0909023 6.07541e-19)
(-0.0395547 0.11449 8.83183e-20)
(-0.0266054 0.131013 1.43788e-18)
(-0.00537243 0.140904 -1.82117e-19)
(0.022753 0.144785 1.47073e-18)
(0.0564329 0.143383 7.38721e-19)
(0.0943826 0.137484 1.1156e-18)
(0.135338 0.1279 5.5595e-19)
(0.178057 0.115455 1.85509e-19)
(0.221309 0.10097 9.26981e-19)
(0.263904 0.0852436 -7.45658e-22)
(0.304737 0.0690304 3.68242e-19)
(0.342842 0.053017 7.31223e-19)
(0.377443 0.0378013 7.26448e-19)
(0.407987 0.0238666 0)
(0.434164 0.0115675 0)
(0.45589 0.00113022 0)
(0.473289 -0.00733899 0)
(0.486643 -0.0138373 6.95521e-19)
(0.496349 -0.0184459 0)
(0.502869 -0.0213082 -2.1641e-21)
(0.506693 -0.0226077 1.3559e-18)
(0.508301 -0.0225483 6.72429e-19)
(0.508146 -0.0213398 6.6597e-19)
(0.506635 -0.0191875 1.31933e-18)
(0.504123 -0.0163008 0)
(0.500937 -0.0129153 -1.2907e-18)
(0.497885 -0.00922161 1.33446e-18)
(-0.0162315 0.0223185 6.17846e-19)
(-0.0348647 0.0559062 -6.74984e-19)
(-0.0412797 0.0841227 0)
(-0.0366808 0.105568 -7.02894e-19)
(-0.0220592 0.120475 -1.81988e-19)
(0.00111143 0.129278 -5.42688e-19)
(0.0313643 0.132563 -1.64784e-18)
(0.067269 0.131004 -2.93456e-21)
(0.107431 0.125337 -5.53057e-19)
(0.150465 0.11632 -1.29587e-18)
(0.195006 0.104735 -1.85088e-19)
(0.239714 0.0913589 -7.35887e-19)
(0.283317 0.0769445 -7.32812e-19)
(0.324669 0.0621974 0)
(0.362803 0.0477511 -7.24567e-19)
(0.396986 0.0341479 -1.08025e-18)
(0.426742 0.0218136 3.58328e-19)
(0.451853 0.0110499 -7.09166e-19)
(0.472339 0.00203805 -7.03565e-19)
(0.488418 -0.00514995 0)
(0.500454 -0.0105341 -1.38737e-18)
(0.508909 -0.0142069 0)
(0.514288 -0.0163124 -1.36501e-18)
(0.517105 -0.0170266 -6.75314e-19)
(0.51785 -0.01654 -1.33742e-18)
(0.516972 -0.0150463 6.62418e-19)
(0.514867 -0.0127344 -1.96657e-18)
(0.511876 -0.00979944 6.46879e-19)
(0.508305 -0.00647568 4.07038e-21)
(0.50498 -0.00297313 -6.62546e-19)
(-0.0162133 0.0210147 -6.1786e-19)
(-0.034068 0.0518483 8.39215e-20)
(-0.0392863 0.0775184 6.00068e-19)
(-0.0330962 0.0968372 7.02909e-19)
(-0.0165735 0.110132 -7.14668e-19)
(0.00873002 0.117848 3.00836e-21)
(0.0412573 0.120545 7.30895e-19)
(0.0794705 0.11885 -1.4679e-18)
(0.121852 0.113446 -1.80752e-19)
(0.166885 0.105041 1.65879e-18)
(0.213083 0.0943694 -1.10242e-18)
(0.259001 0.0821568 1.83596e-18)
(0.303304 0.0691044 1.82746e-18)
(0.344827 0.0558608 -3.64026e-19)
(0.382635 0.0430015 7.24564e-19)
(0.416064 0.0310089 1.07854e-18)
(0.444736 0.0202504 3.54499e-19)
(0.468541 0.0109768 3.48406e-21)
(0.48761 0.0033286 3.52701e-19)
(0.502255 -0.0026514 3.48029e-19)
(0.51292 -0.00699987 -3.41328e-19)
(0.520119 -0.00981446 3.41906e-19)
(0.524393 -0.0112349 -6.75646e-19)
(0.526267 -0.0114248 6.73174e-19)
(0.526232 -0.0105586 4.03423e-21)
(0.524721 -0.0088119 6.56088e-19)
(0.522111 -0.00635748 4.11554e-21)
(0.518718 -0.00337775 -6.44627e-19)
(0.514828 -0.000111424 2.22266e-21)
(0.51129 0.0032124 0)
(-0.0161496 0.0197703 0)
(-0.0330214 0.0479229 0)
(-0.0367832 0.0711075 -7.71577e-19)
(-0.0287385 0.0883435 8.72571e-20)
(-0.0100714 0.10006 0)
(0.0175671 0.10672 7.20986e-19)
(0.0525111 0.108861 1.81513e-19)
(0.0930981 0.107067 5.49632e-19)
(0.137674 0.10197 7.34869e-19)
(0.184586 0.0942253 -7.35535e-19)
(0.232224 0.0845147 7.34664e-19)
(0.27906 0.0735084 -7.32548e-19)
(0.323718 0.0618478 -7.29453e-19)
(0.365045 0.0501198 0)
(0.402165 0.0388378 0)
(0.434514 0.0284226 0)
(0.461829 0.0191847 -7.1113e-19)
(0.484123 0.0113279 1.05755e-18)
(0.501636 0.0049575 -3.49227e-19)
(0.514775 9.29723e-05 0)
(0.524052 -0.00331255 1.0313e-18)
(0.530025 -0.00535626 -3.40037e-19)
(0.533257 -0.00616827 6.75654e-19)
(0.534276 -0.00589574 -1.33253e-18)
(0.533559 -0.0046932 1.32326e-18)
(0.531516 -0.00271672 -1.91055e-21)
(0.528494 -0.00012121 2.21598e-21)
(0.524777 0.00292005 6.40471e-19)
(0.520621 0.00615119 -4.42274e-22)
(0.516888 0.00932115 6.54546e-19)
(-0.0160281 0.0185714 7.64951e-20)
(-0.0316967 0.0441198 -8.31094e-20)
(-0.0337279 0.0648998 1.7055e-19)
(-0.0235536 0.0801235 -1.042e-18)
(-0.0024933 0.0903245 1.767e-19)
(0.0276785 0.0959856 0)
(0.0651654 0.0976249 7.2144e-19)
(0.108162 0.0957855 -7.25847e-19)
(0.154867 0.0910475 0)
(0.203487 0.0840129 9.11203e-19)
(0.252306 0.0753049 -1.82593e-19)
(0.299728 0.0655324 0)
(0.344368 0.0552722 -3.61782e-19)
(0.385121 0.0450457 7.20518e-19)
(0.421203 0.0353026 -3.58356e-19)
(0.45217 0.0264026 3.5535e-19)
(0.477893 0.0186034 -7.05978e-19)
(0.498511 0.0120672 2.98505e-22)
(0.514375 0.00686938 2.13712e-22)
(0.525977 0.00301339 -3.42414e-19)
(0.533885 0.000447851 -6.82479e-19)
(0.538693 -0.000918836 1.03632e-22)
(0.54097 -0.00120233 2.02975e-21)
(0.541242 -0.000529422 6.65218e-19)
(0.53996 0.000969631 -6.56612e-19)
(0.537501 0.00316314 6.5205e-19)
(0.53417 0.00591947 -1.28636e-18)
(0.530199 0.00907047 -2.26279e-21)
(0.525813 0.0123424 -1.25788e-18)
(0.52187 0.0154386 6.50855e-19)
(-0.0158331 0.0174023 0)
(-0.0300633 0.040425 -6.61087e-19)
(-0.0300796 0.0588979 0)
(-0.0174969 0.0722033 3.02674e-21)
(0.00620138 0.0809765 1.76104e-19)
(0.03909 0.0857199 5.63002e-23)
(0.079219 0.0869323 -1.43966e-18)
(0.124622 0.0851151 5.44743e-19)
(0.173342 0.080796 0)
(0.223454 0.0745192 -9.10342e-19)
(0.273148 0.0668457 1.81727e-19)
(0.320794 0.0583178 0)
(0.365033 0.0494445 -3.60038e-19)
(0.404842 0.0406803 3.58881e-19)
(0.439558 0.0324113 3.5481e-19)
(0.468881 0.0249397 7.0772e-19)
(0.49282 0.0184754 -3.51446e-19)
(0.511646 0.0131453 0)
(0.525812 0.00900171 0)
(0.535882 0.00603793 6.86865e-19)
(0.542475 0.004203 -6.78637e-19)
(0.546202 0.00341548 6.72493e-19)
(0.547635 0.00357696 6.67787e-19)
(0.547284 0.00458491 6.59065e-19)
(0.545575 0.00633777 -6.52397e-19)
(0.542844 0.00873888 6.47712e-19)
(0.539339 0.0116922 6.38875e-19)
(0.535191 0.0150602 -6.31959e-19)
(0.530492 0.0186136 1.79046e-21)
(0.525926 0.0219371 1.29521e-18)
(-0.015551 0.0162515 7.58544e-20)
(-0.0280928 0.036826 5.78865e-19)
(-0.0258041 0.0531024 0)
(-0.0105368 0.0646026 6.91326e-19)
(0.0160316 0.0720578 0)
(0.0517961 0.0759849 0)
(0.0946298 0.0768616 5.39183e-19)
(0.142391 0.075145 2.03873e-22)
(0.192964 0.0713078 1.8091e-19)
(0.244303 0.0658328 1.80702e-19)
(0.294531 0.0592142 -5.41762e-19)
(0.342021 0.0519246 3.60665e-19)
(0.385478 0.0444032 0)
(0.423993 0.0370388 0)
(0.457054 0.0301568 -7.10856e-19)
(0.484513 0.0240066 0)
(0.50653 0.0187572 -3.49254e-19)
(0.523495 0.0145067 3.46867e-19)
(0.535955 0.0112908 3.43583e-19)
(0.544538 0.00909799 -2.61497e-22)
(0.549893 0.00788164 -3.37616e-19)
(0.552642 0.00757297 0)
(0.553351 0.0080913 -6.61629e-19)
(0.55251 0.00935928 6.55136e-19)
(0.550527 0.0113072 0)
(0.547714 0.0138797 0)
(0.544291 0.0170444 0)
(0.540344 0.0207751 0)
(0.535693 0.0249368 -6.20921e-19)
(0.531034 0.0298625 1.28675e-18)
(0.187664 0.0267069 -0.0192208)
(0.219527 0.0402686 -0.0197294)
(0.242322 0.061412 -0.0198405)
(0.253893 0.0824813 -0.0199131)
(0.260072 0.10088 -0.0199194)
(0.261783 0.115478 -0.0198921)
(0.260694 0.127077 -0.0198282)
(0.257634 0.137 -0.0197401)
(0.253179 0.146234 -0.0196301)
(0.247679 0.155232 -0.0195005)
(0.241334 0.16404 -0.0193572)