/*--------------------------------*- C++ -*----------------------------------*\
  =========                 |
  \\      /  F ield         | OpenFOAM: The Open Source CFD Toolbox
   \\    /   O peration     | Website:  https://openfoam.org
    \\  /    A nd           | Version:  7
     \\/     M anipulation  |
\*---------------------------------------------------------------------------*/
FoamFile
{
    version     2.0;
    format      ascii;
    class       surfaceScalarField;
    location    "94.6";
    object      phi;
}
// * * * * * * * * * * * * * * * * * * * * * * * * * * * * * * * * * * * * * //

dimensions      [0 3 -1 0 0 0 0];

internalField   nonuniform List<scalar> 
3880
(
-1.58453e-05
-0.000466309
0.000482154
-1.4916e-05
-0.00112474
0.00112381
1.17116e-05
-0.00151822
0.00149159
6.81521e-05
-0.00168802
0.00163158
0.000158443
-0.00166188
0.00157159
0.000287589
-0.00145871
0.00132956
0.000461332
-0.00109177
0.000918024
0.000684663
-0.000571504
0.000348174
0.000959848
9.23407e-05
-0.000367526
0.000889688
0.00128414
-0.00121398
-4.93104e-06
-0.000461378
1.78917e-05
-0.00114756
7.27629e-05
-0.00157309
0.000160805
-0.00177606
0.000283866
-0.00178494
0.000445605
-0.00162045
0.000651075
-0.00129724
0.000905347
-0.000825776
0.00121163
-0.000213941
0.000532473
0.00156884
9.55434e-06
-0.000470932
6.06352e-05
-0.00119864
0.000152069
-0.00166452
0.000281305
-0.0019053
0.000447628
-0.00195127
0.000652863
-0.00182568
0.000900926
-0.0015453
0.00119656
-0.00112141
0.00154361
-0.000560992
0.000133379
0.00194271
2.69036e-05
-0.000497836
0.000111636
-0.00128338
0.000246412
-0.0017993
0.000424755
-0.00208364
0.000643222
-0.00216973
0.000901639
-0.0020841
0.00120256
-0.00184623
0.00155009
-0.00146894
0.00194827
-0.000959172
-0.00031754
0.00239919
4.65312e-05
-0.000544367
0.000168466
-0.00140531
0.000350953
-0.00198178
0.000583423
-0.00231611
0.000859751
-0.00244606
0.00117788
-0.00240222
0.00153908
-0.00220743
0.00194674
-0.0018766
0.00240474
-0.00141718
-0.000828732
0.00291594
6.74133e-05
-0.00061178
0.000227947
-0.00156584
0.000459336
-0.00221317
0.000746909
-0.00260368
0.00108206
-0.00278121
0.00146114
-0.00278131
0.00188452
-0.00263081
0.00235516
-0.00234724
0.00287673
-0.00193875
-0.00140386
0.00345186
8.83765e-05
-0.000700157
0.000286338
-0.00176381
0.000564035
-0.00249087
0.000902777
-0.00294243
0.0012917
-0.00317013
0.00172594
-0.00321556
0.00220544
-0.00311031
0.00273345
-0.00287524
0.00331405
-0.00251935
-0.00203861
0.0039488
0.000108143
-0.0008083
0.00033957
-0.00199523
0.00065691
-0.00280821
0.0010376
-0.00332311
0.00146872
-0.00360125
0.00194445
-0.00369128
0.00246465
-0.00363051
0.00303372
-0.00344431
0.00365793
-0.00314356
-0.0027188
0.00433812
0.000125403
-0.000933703
0.000383528
-0.00225336
0.000729853
-0.00315454
0.00113825
-0.00373151
0.00159396
-0.00405697
0.00209024
-0.00418756
0.00262674
-0.00416701
0.00320912
-0.00402669
0.00384828
-0.00378272
-0.00342229
0.00455176
0.000138877
-0.00107258
0.000414316
-0.0025288
0.000775459
-0.00351568
0.00119322
-0.00414927
0.00165148
-0.00451522
0.0021426
-0.00467868
0.00266541
-0.00468982
0.00322499
-0.00458628
0.00383627
-0.004394
0.0045406
-0.00412661
0.00229979
0.0107338
-0.0117494
0.00355765
0.027905
-0.0291628
0.00420596
0.0472009
-0.0478492
0.00420392
0.0653962
-0.0653941
0.00376801
0.0830308
-0.0825949
0.00304307
0.101491
-0.100766
0.0021381
0.122933
-0.122028
0.00109236
0.153468
-0.152422
0.000266436
0.20036
-0.199534
0.256095
-0.255828
0.00259756
0.00970508
0.00405475
0.0264478
0.00497106
0.0462845
0.00515891
0.0652083
0.00481705
0.0833726
0.00410714
0.102201
0.00315379
0.123886
0.00199827
0.154623
0.00083909
0.201519
0.256934
0.00292969
0.0087181
0.00452853
0.024849
0.00571055
0.0451025
0.00610288
0.064816
0.00586593
0.0836096
0.00517526
0.102892
0.00417233
0.124889
0.00289772
0.155898
0.00142083
0.202996
0.258355
0.00329925
0.00781804
0.00496917
0.023179
0.00640292
0.0436688
0.00701368
0.0642052
0.00689566
0.0837276
0.00623053
0.103557
0.0051809
0.125939
0.00378711
0.157292
0.00199604
0.204787
0.260351
0.00370425
0.00702972
0.00537182
0.0215115
0.00702918
0.0420114
0.00786986
0.0633645
0.00788721
0.0837102
0.00725751
0.104187
0.00616718
0.127029
0.00465703
0.158802
0.00255901
0.206885
0.26291
0.00413143
0.00635016
0.00573451
0.0199084
0.00757434
0.0401716
0.00865152
0.0622874
0.00882244
0.0835393
0.00824135
0.104768
0.00711853
0.128152
0.00549691
0.160424
0.00310245
0.20928
0.266012
0.00455125
0.0057477
0.00605301
0.0184066
0.00802806
0.0381965
0.00934128
0.0609741
0.009685
0.0831956
0.00916905
0.105284
0.00802541
0.129296
0.00630098
0.162148
0.00362624
0.211954
0.269638
0.00491242
0.0051734
0.00631309
0.017006
0.00838147
0.0361282
0.00992459
0.059431
0.010458
0.0826623
0.0100228
0.105719
0.00887022
0.130448
0.00705361
0.163965
0.00411738
0.214891
0.273756
0.00514303
0.00458213
0.00648495
0.0156641
0.00862035
0.0339927
0.0103895
0.0576619
0.0111398
0.0819119
0.0108104
0.106048
0.00966627
0.131593
0.00776744
0.165864
0.00458731
0.218071
0.278343
0.00521927
0.00390346
0.00660524
0.0142781
0.00877707
0.0318209
0.0107214
0.0557176
0.011677
0.0809562
0.0114687
0.106256
0.0103689
0.132692
0.00838836
0.167844
0.00503383
0.221425
0.283377
0.0171295
0.00757766
-0.0208037
0.0131748
0.0182328
0.0109979
0.0339978
0.00996786
0.0567477
0.0087611
0.082163
0.00701006
0.108007
0.00461421
0.135088
0.00176955
0.170689
-0.000335354
0.22353
0.283041
0.0179665
0.010109
-0.0204978
0.014183
0.0220163
0.011248
0.0369327
0.00971783
0.0582778
0.00842829
0.0834526
0.00669943
0.109736
0.00433456
0.137453
0.00161511
0.173408
-0.000351479
0.225497
0.28269
0.0175882
0.0113081
-0.0187873
0.0147197
0.0248847
0.0116766
0.0399759
0.00964748
0.060307
0.00809393
0.0850061
0.00633606
0.111494
0.00405033
0.139739
0.00145382
0.176005
-0.000374106
0.227325
0.282316
0.0163493
0.0116534
-0.0166946
0.0144038
0.0268302
0.0117828
0.0425969
0.00961687
0.0624729
0.00786774
0.0867552
0.00605387
0.113308
0.00382897
0.141964
0.00138179
0.178452
-0.000327597
0.229034
0.281988
0.0147625
0.0113925
-0.0145015
0.0135704
0.0280223
0.0114775
0.0446898
0.00944833
0.0645021
0.00767216
0.0885314
0.0058331
0.115147
0.00363952
0.144157
0.00127601
0.180815
-0.000339365
0.23065
0.281649
0.012997
0.0106281
-0.0122326
0.0124383
0.028581
0.0108519
0.0462761
0.00906169
0.0662924
0.00739007
0.090203
0.00562656
0.116911
0.00352189
0.146262
0.00127803
0.183059
-0.000260088
0.232188
0.281389
0.0111746
0.00940984
-0.00995637
0.0112149
0.0285407
0.0101543
0.0473367
0.00863946
0.0678072
0.00708161
0.0917609
0.00539166
0.118601
0.00336872
0.148285
0.00120046
0.185228
-0.00026745
0.233656
0.281121
0.00931911
0.00776185
-0.00767112
0.00985597
0.0280038
0.00927449
0.0479182
0.00811523
0.0689664
0.00675999
0.0931161
0.00520049
0.12016
0.00328488
0.1502
0.00124283
0.18727
-0.000163331
0.235062
0.280958
0.00782634
0.00551549
-0.00557998
0.00891079
0.0269194
0.00873674
0.0480922
0.00778699
0.0699162
0.00651424
0.0943889
0.00501494
0.121659
0.00316152
0.152054
0.00117863
0.189252
-0.000174191
0.236415
0.280784
0.00556347
-0.00312689
0.00738584
0.00796408
0.00748557
0.00643353
0.00498991
0.00321689
0.0012725
-2.94416e-05
0.00436157
-0.0209639
-0.00420133
0.00393381
-0.02007
0.00322751
-0.018081
0.00244918
-0.0159162
0.00164994
-0.0137023
0.000850342
-0.011433
5.62996e-05
-0.00916233
-0.000705405
-0.00690941
-0.00152203
-0.00476336
-0.00245766
0.00353219
-0.0208066
-0.00368951
0.0028939
-0.0194318
0.00208497
-0.0172721
0.001248
-0.0150793
0.000409314
-0.0128636
-0.000414656
-0.010609
-0.00122298
-0.008354
-0.00199519
-0.0061372
-0.0027789
-0.00397965
-0.00185565
0.00258108
-0.0203819
-0.00300572
0.00176414
-0.0186148
0.000874878
-0.0163828
-1.3609e-05
-0.0141908
-0.000869482
-0.0120077
-0.00170195
-0.00977656
-0.00250184
-0.00755412
-0.00325366
-0.00538537
-0.00396723
-0.00326608
-0.00134112
0.00150682
-0.0197396
-0.00214912
0.000560522
-0.0176685
-0.000380627
-0.0154416
-0.00128939
-0.013282
-0.00215838
-0.0111387
-0.00297928
-0.00895566
-0.00374898
-0.00678442
-0.0044531
-0.00468125
-0.00507553
-0.00264365
-0.000925305
0.00032408
-0.0189209
-0.00114283
-0.000702909
-0.0166415
-0.00166767
-0.0144769
-0.00258026
-0.0123694
-0.00343299
-0.010286
-0.00422108
-0.00816757
-0.00493981
-0.00606569
-0.0055741
-0.00404697
-0.00609326
-0.00212449
-0.000609418
-0.000931283
-0.0179839
-5.67142e-06
-0.00199875
-0.0155741
-0.00296058
-0.0135151
-0.00385204
-0.011478
-0.0046677
-0.00947035
-0.00540364
-0.00743163
-0.00605408
-0.00541525
-0.00660317
-0.00349788
-0.00701559
-0.00171207
-0.000388078
-0.00221852
-0.0169237
0.00115827
-0.00328977
-0.0145028
-0.0042253
-0.0125795
-0.00507551
-0.0106278
-0.00583677
-0.00870909
-0.00650555
-0.00676285
-0.00707598
-0.00484483
-0.00753235
-0.0030415
-0.00784198
-0.00140244
-0.000251318
-0.00349121
-0.0157997
0.00236721
-0.00453817
-0.0134559
-0.00542987
-0.0116878
-0.00622324
-0.00983439
-0.00691785
-0.00801447
-0.00751001
-0.00617068
-0.00799514
-0.00435971
-0.00835881
-0.00267782
-0.0085753
-0.00118596
-0.000186336
-0.00470768
-0.0146476
0.00355562
-0.00571024
-0.0124533
-0.00654619
-0.0108519
-0.00727245
-0.00910813
-0.00789386
-0.00739306
-0.00840592
-0.00565861
-0.00880676
-0.00395887
-0.0090841
-0.00240048
-0.00922099
-0.00104907
-0.000178907
-0.00583322
-0.0134984
0.00468401
-0.00677837
-0.0115081
-0.00755227
-0.010078
-0.00820656
-0.00845385
-0.00875383
-0.00684579
-0.00918799
-0.00522445
-0.00951101
-0.00363585
-0.00971317
-0.00219831
-0.00978626
-0.000975978
-0.00021438
-0.00684164
-0.0123763
0.00571954
-0.00772219
-0.0106276
-0.0084331
-0.00936706
-0.00901554
-0.0078714
-0.00949282
-0.00636851
-0.00985614
-0.00486113
-0.0101121
-0.00337993
-0.0102533
-0.00205704
-0.0102793
-0.000950005
-0.000278281
-0.00771955
-0.0112989
0.00664209
-0.00853118
-0.00981596
-0.00918206
-0.00871619
-0.0096968
-0.00735666
-0.0101119
-0.00595344
-0.0104149
-0.00455807
-0.0106171
-0.00317774
-0.0107134
-0.0019608
-0.0107088
-0.000954587
-0.000356635
-0.00845846
-0.0102773
0.00743686
-0.00920015
-0.00907427
-0.0097973
-0.00811904
-0.0102521
-0.0069019
-0.0106155
-0.00558996
-0.0108715
-0.00430211
-0.011035
-0.00301429
-0.0111026
-0.00189314
-0.0110834
-0.000973781
-0.000436095
-0.00905784
-0.009316
0.00809657
-0.00973078
-0.00840132
-0.0102825
-0.00756729
-0.0106877
-0.00649676
-0.0110117
-0.0052659
-0.0112352
-0.00407866
-0.0113754
-0.00287409
-0.0114306
-0.00183789
-0.0114119
-0.000992571
-0.00050397
-0.00952243
-0.00841201
0.00861844
-0.0101296
-0.00779412
-0.0106449
-0.00705198
-0.0110128
-0.00612894
-0.0113101
-0.00496858
-0.0115161
-0.00387261
-0.0116484
-0.00274185
-0.0117067
-0.00177953
-0.0117024
-0.000996932
-0.000548147
-0.00986019
-0.00755377
0.00900195
-0.0104071
-0.00724726
-0.010894
-0.00656503
-0.0112381
-0.00578483
-0.0115212
-0.00468553
-0.0117248
-0.00366899
-0.0118637
-0.00260293
-0.0119397
-0.00170348
-0.0119629
-0.000973738
-0.000556993
-0.0100797
-0.00672091
0.0092468
-0.0105757
-0.00675118
-0.0110401
-0.00610069
-0.0113748
-0.00545015
-0.0116554
-0.00440488
-0.0118709
-0.00345345
-0.0120304
-0.00244349
-0.0121379
-0.00159599
-0.012201
-0.000910586
-0.000519225
-0.0101829
-0.00589076
0.00935276
-0.0106454
-0.00628867
-0.0110915
-0.00565461
-0.0114319
-0.00510973
-0.011722
-0.00411475
-0.0119634
-0.00321212
-0.0121566
-0.00225023
-0.0123086
-0.00144399
-0.0124237
-0.0007955
-0.000423757
-0.0101666
-0.00505109
0.00932696
-0.0106255
-0.00582982
-0.0110573
-0.00522277
-0.0114184
-0.00474864
-0.0117299
-0.00380331
-0.0120101
-0.00293186
-0.0122499
-0.00201047
-0.0124589
-0.00123496
-0.0126376
-0.00061678
-0.0002595
-0.0100711
-0.00418795
0.00920798
-0.0105543
-0.00534663
-0.0109624
-0.00481472
-0.0113463
-0.00436467
-0.0116881
-0.00346151
-0.0120172
-0.00260279
-0.0123161
-0.00171161
-0.0125945
-0.000956498
-0.0128497
-0.00036156
-1.57696e-05
-0.0454985
-0.0041239
0.0454344
-0.0465053
-0.00433985
-0.0476291
-0.00369088
-0.0487521
-0.00324167
-0.0496955
-0.00251809
-0.0504278
-0.00187048
-0.0509266
-0.00121282
-0.0512071
-0.000676045
-0.0513131
-0.000255557
-1.90297e-05
-0.0542101
-0.00423757
0.0543238
-0.0548253
-0.00372472
-0.0554404
-0.00307572
-0.0561313
-0.00255076
-0.0567083
-0.00194115
-0.0571584
-0.00142034
-0.057458
-0.00091325
-0.0576162
-0.000517853
-0.057669
-0.000202716
-2.30321e-05
-0.0650602
-0.0044271
0.0652497
-0.0653271
-0.00345775
-0.0656171
-0.00278574
-0.0660132
-0.00215471
-0.0663297
-0.00162461
-0.0666
-0.00115002
-0.0667652
-0.000748059
-0.0668544
-0.000428628
-0.0668744
-0.000182758
-2.53833e-05
-0.0783573
-0.00454072
0.0784709
-0.0785039
-0.00331115
-0.0786447
-0.00264489
-0.0788864
-0.00191307
-0.07906
-0.00145098
-0.0792315
-0.000978563
-0.0793229
-0.000656605
-0.0793822
-0.000369319
-0.0793898
-0.000175217
-2.35654e-05
-0.0939668
-0.00443443
0.0938605
-0.0941556
-0.00312232
-0.094303
-0.00249751
-0.0945033
-0.00171277
-0.0946367
-0.00131758
-0.0947769
-0.000838324
-0.0948494
-0.000584181
-0.0949119
-0.000306839
-0.0949287
-0.000158353
-1.24925e-05
-0.110839
-0.00402982
0.110435
-0.111171
-0.00279082
-0.111432
-0.00223643
-0.111667
-0.00147793
-0.111834
-0.00115007
-0.111983
-0.000689034
-0.112075
-0.000492673
-0.112158
-0.000224201
-0.112195
-0.000120603
5.30788e-06
-0.127155
-0.00331622
0.126441
-0.127668
-0.00227772
-0.12808
-0.00182391
-0.128381
-0.00117685
-0.128612
-0.000919226
-0.128782
-0.000519783
-0.128903
-0.000371386
-0.128994
-0.000132521
-0.129046
-6.9269e-05
2.18389e-05
-0.140912
-0.00234997
0.139946
-0.141586
-0.00160341
-0.142129
-0.00128123
-0.142491
-0.000814449
-0.142775
-0.000635237
-0.142954
-0.000341156
-0.143087
-0.000238054
-0.143162
-5.77572e-05
-0.143206
-2.51249e-05
2.69965e-05
-0.150631
-0.00121638
0.149498
-0.151411
-0.000823442
-0.152035
-0.000657876
-0.152435
-0.000414086
-0.152747
-0.000323029
-0.152921
-0.000167115
-0.153046
-0.000113756
-0.153087
-1.59671e-05
-0.153108
-4.26162e-06
1.83178e-05
-0.155608
0.154392
-0.156432
-0.157089
-0.157504
-0.157827
-0.157994
-0.158107
-0.158123
-0.158128
-0.0103983
0.046437
0.00939578
-0.0111561
0.0550815
-0.0117661
0.0658597
-0.0120891
0.0787939
-0.0119156
0.093687
-0.0110205
0.109539
-0.00927375
0.124694
-0.00671168
0.137384
-0.00352644
0.146313
0.150865
-0.0098839
0.0472208
0.00910008
-0.0105877
0.0557853
-0.0111255
0.0663976
-0.0113651
0.0790334
-0.0111243
0.0934462
-0.0102143
0.108629
-0.00853895
0.123019
-0.00614771
0.134993
-0.00321881
0.143384
0.147647
-0.00938264
0.0479474
0.00865607
-0.010019
0.0564216
-0.0104776
0.0668562
-0.0106422
0.079198
-0.0103536
0.0931576
-0.00945292
0.107729
-0.00786568
0.121432
-0.00564394
0.132771
-0.002949
0.140689
0.144698
-0.00879072
0.0486453
0.00809279
-0.0093638
0.0569947
-0.00974187
0.0672342
-0.00983531
0.0792915
-0.0095087
0.092831
-0.00863133
0.106851
-0.0071481
0.119949
-0.00511144
0.130734
-0.00266508
0.138242
0.142032
-0.00809494
0.049306
0.00743422
-0.00860686
0.0575066
-0.00891218
0.0675396
-0.00894644
0.0793257
-0.00859749
0.0924821
-0.00776046
0.106014
-0.00639679
0.118585
-0.00455808
0.128895
-0.00237111
0.136055
0.139661
-0.00731328
0.0499205
0.00669884
-0.00775861
0.057952
-0.00799507
0.067776
-0.00798077
0.0793114
-0.00762474
0.092126
-0.0068452
0.105235
-0.00561667
0.117356
-0.00398816
0.127267
-0.00206961
0.134137
0.137592
-0.00646219
0.0504808
0.00590181
-0.00683747
0.0583273
-0.0070073
0.0679459
-0.00695252
0.0792566
-0.00660177
0.0917753
-0.00589392
0.104527
-0.00481367
0.116276
-0.00340564
0.125859
-0.00176268
0.132494
0.135829
-0.00555551
0.0509779
0.00505851
-0.00586055
0.0586323
-0.00596694
0.0680522
-0.00587898
0.0791687
-0.00554349
0.0914398
-0.00491827
0.103902
-0.0039959
0.115354
-0.00281552
0.124679
-0.00145269
0.131131
0.134376
-0.00460885
0.0514013
0.0041854
-0.00484525
0.0588687
-0.00489168
0.0680987
-0.00477724
0.0790543
-0.00446509
0.0911277
-0.00393055
0.103367
-0.0031723
0.114595
-0.00222346
0.12373
-0.00114239
0.13005
0.133234
-0.00363921
0.0517407
0.00329981
-0.00381044
0.0590399
-0.00379939
0.0680876
-0.00366415
0.078919
-0.00338114
0.0908446
-0.00294259
0.102929
-0.00235165
0.114005
-0.00163519
0.123013
-0.000834618
0.129249
0.132399
-0.0026727
0.0519902
0.00242325
-0.00277943
0.0591467
-0.00271223
0.0680204
-0.00255993
0.0787667
-0.00230889
0.0905936
-0.00196845
0.102588
-0.00154446
0.113581
-0.00105772
0.122526
-0.000532829
0.128725
0.131867
-0.00172725
0.0521518
0.00156556
-0.00176535
0.0591848
-0.00164754
0.0679026
-0.00147883
0.078598
-0.00126066
0.0903754
-0.00101674
0.102344
-0.000756694
0.11332
-0.000495319
0.122265
-0.000239294
0.128469
0.131627
-0.000832704
0.0522403
0.00074427
-0.000792265
0.0591443
-0.000635181
0.0677455
-0.000449825
0.0784126
-0.000267146
0.0901927
-0.000117754
0.102195
-1.90791e-05
0.113222
3.31637e-05
0.122213
3.60897e-05
0.128466
0.131663
-3.47904e-05
0.0523165
-4.14563e-05
0.000115507
0.058994
0.000315885
0.0675451
0.00053095
0.0781976
0.000692394
0.0900313
0.000760936
0.102126
0.00071565
0.113267
0.000556614
0.122372
0.00030785
0.128714
0.131971
0.000792773
0.0522845
-0.000760703
0.00099074
0.0587961
0.00123248
0.0673034
0.00146038
0.0779697
0.00159498
0.0898967
0.00158219
0.102139
0.0013959
0.113453
0.00104255
0.122725
0.000560326
0.129197
0.132532
0.00152144
0.0521956
-0.00143264
0.00178365
0.0585339
0.00206324
0.0670238
0.00230903
0.0777239
0.00242312
0.0897826
0.00233901
0.102223
0.00202459
0.113768
0.00149176
0.123258
0.000793119
0.129895
0.133325
0.00217258
0.052074
-0.00205095
0.00249588
0.0582105
0.00280907
0.0667106
0.00307309
0.0774599
0.00317248
0.0896832
0.00302752
0.102368
0.00259878
0.114197
0.00190246
0.123954
0.00100526
0.130792
0.13433
0.00275255
0.0519462
-0.00262472
0.00312609
0.057837
0.00346678
0.0663699
0.00374564
0.077181
0.00383317
0.0895957
0.00363621
0.102565
0.00310727
0.114725
0.00226593
0.124796
0.00119188
0.131866
0.135522
0.00327091
0.0518422
-0.00316691
0.00367831
0.0574296
0.00404576
0.0660025
0.00434042
0.0768863
0.0044227
0.0895134
0.00418382
0.102804
0.00356661
0.115343
0.0025939
0.125768
0.00135896
0.133101
0.136881
0.0036668
0.0518408
-0.0036654
0.00407008
0.0570263
0.00446247
0.0656101
0.00476528
0.0765835
0.00484289
0.0894358
0.00457579
0.103071
0.00389717
0.116021
0.00282984
0.126836
0.00147647
0.134455
0.138357
-0.033354
0.0479883
0.0372065
-0.0304132
0.0540856
-0.0284366
0.0636335
-0.0263086
0.0744555
-0.0237001
0.0868274
-0.0203402
0.0997113
-0.0161416
0.111823
-0.011203
0.121897
-0.00573422
0.128986
0.132623
-0.0411097
0.0445666
0.0445314
-0.0383372
0.051313
-0.0357838
0.0610801
-0.0328401
0.0715118
-0.0293629
0.0833502
-0.0250182
0.0953666
-0.0197447
0.106549
-0.0136601
0.115813
-0.0070024
0.122328
0.125621
-0.0497727
0.0413118
0.0530275
-0.0469099
0.0484502
-0.0437363
0.0579065
-0.0399589
0.0677344
-0.0354503
0.0788416
-0.0299067
0.089823
-0.0233896
0.100032
-0.0160527
0.108476
-0.00813768
0.114413
0.117483
-0.0601379
0.0381917
0.063258
-0.0567979
0.0451102
-0.0528359
0.0539445
-0.0481113
0.0630097
-0.0424235
0.0731537
-0.0355252
0.0829247
-0.0276022
0.0921091
-0.0188586
0.0997322
-0.00959342
0.105148
0.107889
-0.0717181
0.0345298
0.0753801
-0.0675658
0.040958
-0.0625609
0.0489395
-0.0565358
0.0569847
-0.0492911
0.065909
-0.0407398
0.0743735
-0.0312167
0.082586
-0.0209738
0.0894893
-0.0104028
0.094577
0.0974867
-0.0848919
0.0308524
0.0885692
-0.0796699
0.0357361
-0.0734573
0.0427269
-0.0659668
0.0494942
-0.0571024
0.0570445
-0.0469429
0.064214
-0.0357879
0.0714309
-0.0239491
0.0776505
-0.0120868
0.0827147
0.0853999
-0.0974607
0.0253579
0.102955
-0.0910773
0.0293527
-0.0834134
0.0350631
-0.0740001
0.0400808
-0.063139
0.0461835
-0.0508738
0.0519488
-0.0375762
0.0581334
-0.0237474
0.0638217
-0.010533
0.0695003
0.0748669
-0.110672
0.0200149
0.116015
-0.103251
0.0219321
-0.094346
0.0261577
-0.0837144
0.0294493
-0.0717273
0.0341963
-0.0582458
0.0384673
-0.0437561
0.0436438
-0.0287318
0.0487973
-0.0151784
0.0559469
0.0596885
-0.125272
0.00976301
0.135524
-0.114433
0.0110929
-0.101695
0.0134196
-0.0874535
0.0152082
-0.0712084
0.0179512
-0.0532577
0.0205165
-0.0335549
0.023941
-0.0130451
0.0282876
0.00574132
0.0371604
0.0654298
-0.233007
0.24277
-0.221914
-0.208495
-0.193287
-0.175335
-0.154819
-0.130878
-0.10259
-0.0654298
0.00207793
0.0385022
-0.00337363
0.000902095
0.0457072
-5.94833e-05
0.0539891
-0.00065492
0.0638534
-0.00102476
0.0757499
-0.00116733
0.0887117
-0.000952111
0.10274
-0.00071085
0.115774
-0.0015816
0.136395
0.241189
0.00238817
0.0397449
-0.00363091
0.0012395
0.0468559
0.00032952
0.054899
-0.00034228
0.0645252
-0.000746289
0.076154
-0.000921061
0.0888865
-0.000775305
0.102594
-0.000593412
0.115592
-0.0013881
0.137189
0.239801
0.0027602
0.0408846
-0.0038999
0.00165321
0.0479629
0.000767264
0.055785
6.47593e-05
0.0652277
-0.000342955
0.0765617
-0.00055924
0.0891028
-0.000467161
0.102502
-0.00039549
0.11552
-0.00119084
0.137985
0.23861
0.00313493
0.0419208
-0.00417112
0.0020777
0.0490201
0.0012232
0.0566395
0.000554265
0.0658966
0.000110203
0.0770057
-0.000154708
0.0893677
-8.65328e-05
0.102434
-0.000153475
0.115587
-0.000938452
0.13877
0.237671
0.00350369
0.0428487
-0.0044316
0.00251422
0.0500096
0.00170054
0.0574532
0.00106001
0.0665372
0.000625595
0.0774401
0.000336724
0.0896566
0.000318829
0.102452
0.000164499
0.115741
-0.000641087
0.139575
0.23703
0.00387743
0.0436433
-0.00467198
0.00297658
0.0509104
0.00221226
0.0582175
0.00160564
0.0671438
0.0011784
0.0778674
0.000882317
0.0899527
0.000776504
0.102558
0.000553903
0.115964
-0.000304326
0.140433
0.236726
0.0042558
0.0442737
-0.00488628
0.0034629
0.0517034
0.00275775
0.0589226
0.00219119
0.0677104
0.00177387
0.0782847
0.00146404
0.0902625
0.00128136
0.10274
0.000971721
0.116274
6.72571e-05
0.141338
0.236793
0.00463425
0.0447089
-0.00506945
0.00396479
0.0523728
0.00332889
0.0595585
0.00280869
0.0682305
0.002406
0.0786874
0.00208191
0.0905866
0.00182546
0.102997
0.00142299
0.116676
0.000438006
0.142323
0.237231
0.00500389
0.0449209
-0.00521583
0.00447243
0.0529043
0.00391589
0.0601151
0.0034484
0.068698
0.00306648
0.0790693
0.00272861
0.0909244
0.00240135
0.103324
0.00190455
0.117173
0.000843928
0.143383
0.238075
0.00535354
0.0448867
-0.00531934
0.00497465
0.0532831
0.00450829
0.0605814
0.00409981
0.0691065
0.00374535
0.0794238
0.00339482
0.091275
0.00300081
0.103718
0.00241026
0.117763
0.00127003
0.144524
0.239345
0.00566728
0.0445914
-0.00537196
0.00545557
0.0534949
0.00509166
0.0609453
0.00474771
0.0694505
0.00442673
0.0797448
0.0040674
0.0916343
0.00361216
0.104173
0.00293077
0.118445
0.00170763
0.145747
0.241053
0.00593836
0.04403
-0.00537702
0.00590873
0.0535245
0.00565823
0.0611958
0.005385
0.0697237
0.0051033
0.0800265
0.00474076
0.0919968
0.00423018
0.104684
0.00346197
0.119213
0.00215373
0.147055
0.243207
0.00615151
0.0432115
-0.00533298
0.0063173
0.0533587
0.00618957
0.0613236
0.00599386
0.0699194
0.0057578
0.0802625
0.00539978
0.0923549
0.00484181
0.105242
0.00399361
0.120061
0.00260122
0.148447
0.245808
0.00629736
0.0421594
-0.00524528
0.00666773
0.0529883
0.0066712
0.0613201
0.00655985
0.0700308
0.00637622
0.0804461
0.00603182
0.0926993
0.00543621
0.105837
0.00451732
0.12098
0.00304385
0.149921
0.248852
0.00637026
0.0409129
-0.00512377
0.00694864
0.05241
0.00708989
0.0611788
0.00706919
0.0700515
0.00694519
0.0805702
0.00662436
0.0930201
0.0060028
0.106459
0.00502486
0.121958
0.00347549
0.15147
0.252327
0.00637036
0.0395249
-0.00498236
0.00715159
0.0516287
0.00743442
0.060896
0.00750945
0.0699764
0.00745242
0.0806272
0.00716522
0.0933073
0.00653108
0.107093
0.00550818
0.122981
0.00388838
0.15309
0.256215
0.0063057
0.0380551
-0.00483591
0.00727216
0.0506623
0.00769604
0.0604721
0.00787044
0.069802
0.00788722
0.0806104
0.0076443
0.0935502
0.00701281
0.107725
0.00596131
0.124033
0.00427749
0.154774
0.260493
0.00618877
0.0365569
-0.00469059
0.00730953
0.0495415
0.00786991
0.0599118
0.00814392
0.069528
0.00823788
0.0805164
0.00804833
0.0937398
0.00743451
0.108338
0.00637395
0.125093
0.00463085
0.156517
0.265124
0.0060104
0.0350599
-0.00451338
0.00725421
0.0482977
0.00795463
0.0592113
0.00833259
0.0691501
0.00851001
0.080339
0.00838533
0.0938644
0.00780389
0.10892
0.00675279
0.126144
0.00495257
0.158317
0.270076
0.00575351
0.0334869
-0.00418045
0.00705997
0.0469912
0.00789148
0.0583798
0.00836653
0.068675
0.00863075
0.0800748
0.00857917
0.093916
0.00805857
0.109441
0.00703629
0.127166
0.00524087
0.160113
0.275317
-0.0143449
0.0338674
0.0139644
-0.0130079
0.0456542
-0.0107889
0.0561609
-0.00809083
0.0659769
-0.00522159
0.0772055
-0.00213399
0.0908284
0.000996775
0.10631
0.00325227
0.124911
0.00220942
0.161155
0.277527
-0.0264918
0.0329786
0.0273807
-0.0242705
0.0434328
-0.0208513
0.0527417
-0.0168233
0.0619489
-0.0124916
0.0728739
-0.00776537
0.0861022
-0.00294056
0.101485
0.000698528
0.121272
0.000992995
0.160861
0.27852
-0.0398765
0.0311945
0.0416607
-0.0365215
0.0400778
-0.0317401
0.0479602
-0.0263529
0.0565618
-0.0205233
0.0670442
-0.0140608
0.0796397
-0.00738228
0.0948064
-0.00196684
0.115856
-8.37446e-05
0.158978
0.278436
-0.0543954
0.028481
0.0571088
-0.0496352
0.0353177
-0.0436531
0.0419781
-0.0370257
0.0499344
-0.0295989
0.0596173
-0.0212416
0.0712824
-0.0125809
0.0861457
-0.00523823
0.108514
-0.00165496
0.155395
0.276781
-0.0701543
0.0243846
0.0742508
-0.0641395
0.0293028
-0.0573237
0.0351623
-0.0494225
0.0420332
-0.0402936
0.0504884
-0.0300332
0.0610221
-0.0193831
0.0754956
-0.00996018
0.0990908
-0.00394144
0.149376
0.272839
-0.0877064
0.0196458
0.0924452
-0.0808602
0.0224566
-0.0731845
0.0274866
-0.0638856
0.0327343
-0.0532033
0.0398062
-0.0412074
0.0490262
-0.0288191
0.0631073
-0.0172596
0.0875313
-0.00817881
0.140295
0.264661
-0.108384
0.0133781
0.114651
-0.101094
0.0151672
-0.0927649
0.0191574
-0.0827189
0.0226883
-0.0714163
0.0285035
-0.0585755
0.0361854
-0.0449776
0.0495094
-0.0311324
0.0736861
-0.0172299
0.126393
0.247431
-0.139196
0.00682162
0.145753
-0.131516
0.00748687
-0.122561
0.0102029
-0.112204
0.0123314
-0.100497
0.016796
-0.0873254
0.0230138
-0.0728749
0.0350589
-0.0568093
0.0576205
-0.0355887
0.105172
0.211842
-0.197966
0.00144383
0.203344
-0.192361
0.00188167
-0.185224
0.00306581
-0.177312
0.00441967
-0.167611
0.00709497
-0.155987
0.0113893
-0.140457
0.0195289
-0.117332
0.0344953
-0.0765434
0.064384
0.135299
-0.281558
0.283002
-0.279677
-0.276611
-0.272191
-0.265096
-0.253707
-0.234178
-0.199683
-0.135299
0.00192522
0.0146886
-0.00264946
0.000552717
0.0287532
-0.000919629
0.043133
-0.00226239
0.0584515
-0.00335429
0.0753427
-0.00428044
0.0933713
-0.00497492
0.115346
-0.0055389
0.146317
-0.00484475
0.20265
0.278157
0.00165243
0.0151049
-0.0020687
0.000557617
0.029848
-0.000769503
0.0444601
-0.00204966
0.0597317
-0.0031261
0.0764191
-0.00403976
0.094285
-0.00472978
0.116036
-0.0053207
0.146908
-0.00433383
0.201663
0.273823
0.0014645
0.0152951
-0.00165473
0.000637069
0.0306754
-0.000515175
0.0456124
-0.00168323
0.0608997
-0.00270411
0.07744
-0.00358706
0.0951679
-0.00429376
0.116743
-0.00484554
0.147459
-0.0039631
0.200781
0.26986
0.00135799
0.0152948
-0.00135767
0.000783345
0.0312501
-0.000192392
0.0465881
-0.00123337
0.0619407
-0.00218115
0.0783878
-0.00303691
0.0960237
-0.00375197
0.117458
-0.00429868
0.148006
-0.00354493
0.200027
0.266315
0.00132488
0.0151153
-0.00114539
0.00100397
0.031571
0.000227191
0.0473649
-0.000701089
0.062869
-0.00157462
0.0792613
-0.00240171
0.0968508
-0.00312737
0.118183
-0.00368688
0.148566
-0.00308425
0.199424
0.263231
0.00135955
0.0147595
-0.00100374
0.00130018
0.0316304
0.000739939
0.0479251
-9.07693e-05
0.0636997
-0.000874713
0.0800452
-0.00167899
0.0976551
-0.00241899
0.118923
-0.00301074
0.149157
-0.00258711
0.199001
0.260644
0.00145595
0.0142303
-0.000926766
0.00166537
0.0314209
0.00132753
0.048263
0.000664417
0.0643628
-8.00405e-05
0.0807897
-0.000874423
0.0984495
-0.00162465
0.119674
-0.00227494
0.149808
-0.00205924
0.198785
0.258585
0.00160622
0.013537
-0.000912892
0.00208923
0.0309379
0.00198255
0.0483696
0.00147632
0.0648691
0.000796044
0.08147
-2.75439e-05
0.099273
-0.000745299
0.120391
-0.00149119
0.150553
-0.00150525
0.198799
0.25708
0.00180185
0.0126992
-0.000964052
0.00255784
0.0301819
0.00269183
0.0482357
0.00234569
0.0652152
0.00174262
0.0820731
0.000987051
0.100029
0.000206406
0.121172
-0.000676957
0.151437
-0.000927421
0.199049
0.256152
0.00203514
-0.00108541
0.00305423
0.00344072
0.0032618
0.00273998
0.00200241
0.00114616
0.000160832
-0.000323961
0.000147943
-0.00122052
0.000428945
-0.0028098
0.000787382
-0.00387412
0.00119253
-0.00455442
0.00162794
-0.00495064
0.00208607
-0.0051368
0.00256519
-0.00516895
0.00306846
-0.00508955
0.00360573
-0.00493127
-0.00472221
0.000148849
-0.00136937
0.000421209
-0.00308216
0.000758472
-0.00421138
0.00112942
-0.00492537
0.00151844
-0.00533966
0.00191936
-0.00553772
0.00233183
-0.00558142
0.00275947
-0.00551719
0.00320903
-0.00538084
-0.00520269
0.000142607
-0.00151198
0.000391721
-0.00333127
0.000688423
-0.00450808
0.00100284
-0.00523979
0.0013216
-0.00565841
0.00164107
-0.00585719
0.00196338
-0.00590373
0.00229391
-0.00584771
0.0026394
-0.00572633
-0.00556901
0.000128619
-0.0016406
0.000339613
-0.00354227
0.000576951
-0.00474542
0.000814134
-0.00547697
0.00104129
-0.00588557
0.00125812
-0.00607402
0.00146957
-0.00611518
0.00168311
-0.00606126
0.00190706
-0.00595027
-0.00581107
0.000106686
-0.00174728
0.000265278
-0.00370086
0.000426222
-0.00490636
0.000568455
-0.0056192
0.000686717
-0.00600383
0.000784411
-0.00617171
0.000869247
-0.00620001
0.000950419
-0.00614243
0.00103691
-0.00603676
-0.005917
7.70526e-05
-0.00182434
0.000170381
-0.00379418
0.000240688
-0.00497667
0.000274287
-0.0056528
0.000271341
-0.00600089
0.000239047
-0.00613942
0.000187535
-0.0061485
0.000127664
-0.00608256
6.85899e-05
-0.00597768
-0.00585408
4.04476e-05
-0.00186478
5.77368e-05
-0.00381147
2.67218e-05
-0.00494566
-5.73941e-05
-0.00556869
-0.000188546
-0.00586973
-0.000355896
-0.00597207
-0.000547353
-0.00595704
-0.000751784
-0.00587813
-0.000959999
-0.00576947
-0.0056558
-2.77047e-06
-0.00186201
-6.88029e-05
-0.00374544
-0.000207873
-0.00480659
-0.000414061
-0.0053625
-0.000675327
-0.00560847
-0.000977752
-0.00566964
-0.00130812
-0.00562667
-0.00165534
-0.00553091
-0.00201047
-0.00541433