/*--------------------------------*- C++ -*----------------------------------*\
  =========                 |
  \\      /  F ield         | OpenFOAM: The Open Source CFD Toolbox
   \\    /   O peration     | Website:  https://openfoam.org
    \\  /    A nd           | Version:  7
     \\/     M anipulation  |
\*---------------------------------------------------------------------------*/
FoamFile
{
    version     2.0;
    format      ascii;
    class       volScalarField;
    location    "0.475";
    object      p;
}
// * * * * * * * * * * * * * * * * * * * * * * * * * * * * * * * * * * * * * //

dimensions      [0 2 -2 0 0 0 0];

internalField   nonuniform List<scalar> 
400
(
2.73093e-06
-0.00590161
-0.0130519
-0.0184968
-0.0205192
-0.018327
-0.0118567
-0.00155475
0.0117825
0.0271134
0.0432288
0.0588269
0.0725995
0.0833419
0.0900926
0.0923059
0.0900616
0.0842889
0.0768966
0.0710239
0.00582676
-0.000244916
-0.00577882
-0.00949157
-0.0105397
-0.00837267
-0.00291716
0.00551199
0.0163199
0.028704
0.0417157
0.0543264
0.0655046
0.0743118
0.080014
0.0822102
0.0809813
0.0769862
0.0712557
0.0652396
0.0133936
0.00496114
-0.00101232
-0.00442884
-0.00528158
-0.00327355
0.00159153
0.00901429
0.0184854
0.0293286
0.0407404
0.0518402
0.0617351
0.0696
0.0747692
0.0768395
0.075801
0.0720574
0.0658317
0.0574346
0.0202042
0.00859184
0.00120105
-0.0026804
-0.00373965
-0.0019042
0.00271206
0.00976451
0.0187592
0.0290727
0.0399683
0.0506289
0.0602062
0.0678879
0.0729745
0.0749715
0.0737308
0.0694351
0.0616619
0.0499966
0.0245907
0.00964469
0.000568547
-0.00399017
-0.00531234
-0.00351906
0.00116215
0.00831992
0.0174446
0.0279286
0.0390611
0.0500426
0.060018
0.0681313
0.073591
0.0757604
0.0743251
0.0692655
0.059612
0.0444079
0.0252958
0.00699694
-0.00382063
-0.00905357
-0.0105174
-0.00850737
-0.00336538
0.00441825
0.0142987
0.0256605
0.037791
0.0498759
0.0610161
0.070267
0.076696
0.0794749
0.0780875
0.0723067
0.0606551
0.0417304
0.0212439
-0.000439831
-0.012949
-0.0186974
-0.0200293
-0.0174165
-0.0113225
-0.00232697
0.00897917
0.0219604
0.0358888
0.049918
0.0630799
0.0743075
0.08248
0.0865222
0.08566
0.0794159
0.0657676
0.0428759
0.0113314
-0.0138193
-0.0278822
-0.0338308
-0.0345947
-0.0308531
-0.0232108
-0.012347
0.0010983
0.0164721
0.0330347
0.049909
0.0660513
0.0802502
0.0911547
0.0973754
0.0977965
0.0915965
0.0760767
0.0488748
-0.00573108
-0.0344905
-0.0498655
-0.0555098
-0.0550703
-0.0495012
-0.0395837
-0.0261084
-0.00975772
0.00881639
0.0288875
0.049572
0.0697666
0.0881134
0.102997
0.112637
0.115459
0.110138
0.0930493
0.0611082
-0.0315586
-0.0641222
-0.0803949
-0.0849483
-0.0823867
-0.0740544
-0.0609622
-0.044024
-0.0239452
-0.00133711
0.0231379
0.0486443
0.0740676
0.097931
0.118341
0.13305
0.139873
0.136741
0.11869
0.0815443
-0.0682824
-0.104869
-0.121297
-0.123506
-0.117466
-0.105091
-0.0876903
-0.0663049
-0.0416233
-0.0141485
0.0156052
0.0469433
0.0788331
0.109754
0.137566
0.159498
0.17258
0.173667
0.1558
0.113056
-0.118894
-0.159637
-0.174832
-0.172642
-0.161082
-0.142883
-0.119723
-0.0927494
-0.0625568
-0.029433
0.00638118
0.0444725
0.0840409
0.12367
0.161079
0.192987
0.215486
0.223918
0.208348
0.159935
-0.187947
-0.232523
-0.24381
-0.233802
-0.213615
-0.187101
-0.156331
-0.122469
-0.0858722
-0.0464507
-0.00399733
0.041549
0.0898405
0.139808
0.189269
0.234586
0.270858
0.291443
0.282028
0.228816
-0.283065
-0.329542
-0.331643
-0.308112
-0.274628
-0.236389
-0.195726
-0.15358
-0.109813
-0.0637192
-0.014412
0.0388872
0.0965708
0.158277
0.222346
0.285198
0.341162
0.381277
0.385108
0.330523
-0.418188
-0.459748
-0.442073
-0.395628
-0.342073
-0.28771
-0.234595
-0.182911
-0.131589
-0.0789587
-0.0231806
0.0375154
0.104596
0.178875
0.259878
0.344929
0.428403
0.499307
0.529617
0.483714
-0.619427
-0.636582
-0.578334
-0.494083
-0.411228
-0.335655
-0.267778
-0.20597
-0.147525
-0.0893579
-0.0283873
0.0384027
0.113874
0.200548
0.300046
0.41206
0.532932
0.651422
0.732441
0.720594
-0.9356
-0.87818
-0.741682
-0.598056
-0.47439
-0.372626
-0.288845
-0.217739
-0.153926
-0.0924296
-0.0286775
0.0417508
0.123334
0.2208
0.339
0.482242
0.652263
0.841648
1.01495
1.09628
-1.4806
-1.20196
-0.921
-0.692546
-0.517676
-0.387701
-0.290194
-0.213425
-0.148162
-0.0872101
-0.0245288
0.0455581
0.1291
0.233297
0.367361
0.543121
0.772629
1.06029
1.39818
1.73407
-2.57157
-1.60192
-1.04347
-0.714829
-0.497798
-0.353386
-0.255529
-0.184283
-0.126596
-0.0737841
-0.0192103
0.043064
0.119761
0.21965
0.356003
0.549821
0.829811
1.23507
1.8811
2.95926
-4.44511
-2.01727
-0.969796
-0.564338
-0.357045
-0.239034
-0.169356
-0.123296
-0.0871845
-0.0533696
-0.0166779
0.0275128
0.0842973
0.161192
0.271577
0.441361
0.718803
1.2215
2.38402
4.92939
)
;

boundaryField
{
    movingWall
    {
        type            zeroGradient;
    }
    fixedWalls
    {
        type            zeroGradient;
    }
    frontAndBack
    {
        type            empty;
    }
}


// ************************************************************************* //
