/*--------------------------------*- C++ -*----------------------------------*\
  =========                 |
  \\      /  F ield         | OpenFOAM: The Open Source CFD Toolbox
   \\    /   O peration     | Website:  https://openfoam.org
    \\  /    A nd           | Version:  7
     \\/     M anipulation  |
\*---------------------------------------------------------------------------*/
FoamFile
{
    version     2.0;
    format      ascii;
    class       volVectorField;
    location    "0.9";
    object      U;
}
// * * * * * * * * * * * * * * * * * * * * * * * * * * * * * * * * * * * * * //

dimensions      [0 1 -1 0 0 0 0];

internalField   nonuniform List<vector> 
8000
(
(-0.000248748 0.0124087 7.69677e-22)
(0.00365047 0.0311652 -4.06153e-24)
(0.0116891 0.0461006 5.45591e-24)
(0.0215307 0.0581783 9.52817e-22)
(0.0327796 0.0680762 5.84296e-21)
(0.044924 0.0762884 0)
(0.0574134 0.0831546 2.05723e-21)
(0.0697948 0.0889468 -2.08134e-21)
(0.0817664 0.0938847 2.12176e-21)
(0.0931353 0.098149 -2.13176e-21)
(0.103763 0.101896 8.60169e-21)
(0.113563 0.105258 0)
(0.122496 0.108349 0)
(0.13055 0.111269 0)
(0.137742 0.114098 0)
(0.144107 0.116903 0)
(0.149692 0.119747 0)
(0.154548 0.122684 -4.23847e-21)
(0.158734 0.125763 4.19491e-21)
(0.162293 0.129014 0)
(-0.000644216 0.0113905 0)
(0.00276371 0.028244 0)
(0.0105506 0.0415513 1.42314e-20)
(0.020326 0.0522803 0)
(0.0316487 0.0611031 7.7472e-21)
(0.0439606 0.0685166 0)
(0.0566811 0.0748398 1.63687e-20)
(0.0693536 0.0803258 -1.6661e-20)
(0.0816583 0.0851562 1.68902e-20)
(0.0933714 0.0894846 -1.70609e-20)
(0.104344 0.0934422 1.71889e-20)
(0.114499 0.097129 -8.60921e-21)
(0.123785 0.100636 -8.61054e-21)
(0.132176 0.104036 -8.65636e-21)
(0.139686 0.107387 1.72226e-20)
(0.146352 0.110742 -1.71432e-20)
(0.152219 0.114148 5.10491e-20)
(0.157333 0.117647 -3.3761e-20)
(0.16175 0.121285 -1.67424e-20)
(0.165509 0.125089 -3.75154e-20)
(-0.000972678 0.0103212 0)
(0.00209761 0.0252054 0)
(0.00981559 0.0368516 -4.97723e-20)
(0.0196733 0.0461765 3.71537e-20)
(0.0311749 0.0538886 -1.55214e-20)
(0.0437482 0.0604762 -3.19423e-20)
(0.0567893 0.0662398 -1.63684e-20)
(0.0698048 0.071402 1.66607e-20)
(0.0824548 0.0761136 -1.68899e-20)
(0.0945298 0.0804993 -1.70066e-20)
(0.105866 0.0846656 -1.71763e-20)
(0.116364 0.0886822 0)
(0.125979 0.0926082 -1.72065e-20)
(0.134685 0.0964924 -1.72473e-20)
(0.14249 0.100374 1.71944e-20)
(0.14943 0.104289 -1.71111e-20)
(0.155548 0.10827 -1.70044e-20)
(0.160889 0.112348 1.68802e-20)
(0.165509 0.116562 -1.66641e-20)
(0.169438 0.120938 -1.87085e-20)
(-0.00120048 0.00920927 3.06383e-21)
(0.0017222 0.0220766 6.79669e-21)
(0.00951298 0.0320147 2.13017e-20)
(0.019589 0.0398947 -2.9755e-20)
(0.0314076 0.0464731 0)
(0.044342 0.0522183 1.59299e-20)
(0.0577608 0.0574066 3.26469e-20)
(0.0711693 0.0622259 -1.65693e-20)
(0.0842128 0.0668135 0)
(0.0966622 0.0712615 6.80749e-20)
(0.108352 0.075633 0)
(0.119187 0.0799765 0)
(0.129115 0.0843248 6.88785e-20)
(0.138109 0.0886987 -3.44463e-20)
(0.146179 0.0931169 6.85684e-20)
(0.153362 0.0975996 -3.40768e-20)
(0.1597 0.102165 6.77885e-20)
(0.165233 0.106833 -3.36113e-20)
(0.170024 0.111635 6.67999e-20)
(0.174089 0.1166 -3.72671e-20)
(-0.00134479 0.00808238 1.21875e-20)
(0.00160782 0.0188663 2.70745e-20)
(0.00965795 0.0270504 -1.40482e-20)
(0.0201092 0.0334739 -7.35977e-21)
(0.0323622 0.0388995 0)
(0.0457585 0.0437837 -3.1814e-20)
(0.0596408 0.0483888 0)
(0.0734938 0.0528714 -1.66379e-20)
(0.0869544 0.0573306 1.67706e-20)
(0.0997929 0.0618322 -3.40079e-20)
(0.11184 0.0664123 0)
(0.122997 0.0710854 0)
(0.133214 0.0758547 -3.44078e-20)
(0.142468 0.0807185 -3.43747e-20)
(0.150772 0.0856767 -4.52437e-24)
(0.158164 0.0907316 0)
(0.164684 0.0958864 -3.38572e-20)
(0.170374 0.10115 6.71907e-20)
(0.175299 0.106551 -6.65006e-20)
(0.179465 0.112117 -3.71282e-20)
(-0.00138766 0.00690973 -1.82919e-20)
(0.00178806 0.0155794 2.01164e-20)
(0.0102698 0.0219932 -2.10175e-20)
(0.0212505 0.0269405 0)
(0.0340732 0.0312074 -1.54801e-20)
(0.0480344 0.0352357 4.76222e-20)
(0.0624516 0.0392564 0)
(0.0768004 0.0433968 -9.93716e-20)
(0.0907115 0.047731 6.71375e-20)
(0.10395 0.0522919 -3.38213e-20)
(0.116349 0.0570793 0)
(0.12781 0.0620788 6.84699e-20)
(0.138291 0.0672683 0)
(0.147775 0.0726222 0)
(0.156278 0.0781195 1.02517e-19)
(0.163841 0.0837451 -1.35824e-19)
(0.170503 0.0894889 6.74062e-20)
(0.17631 0.0953503 0)
(0.181334 0.101357 0)
(0.185562 0.107533 1.11237e-19)
(-0.00132928 0.0057114 -6.03828e-21)
(0.00226967 0.0122282 -8.74389e-20)
(0.0113694 0.0168578 2.80971e-20)
(0.0230386 0.0203347 -4.42453e-20)
(0.03656 0.0234492 1.54418e-20)
(0.0511886 0.0266237 -7.90961e-20)
(0.0662179 0.0300676 0)
(0.0811131 0.0338775 3.30198e-20)
(0.0955019 0.0380934 -3.35277e-20)
(0.109149 0.0427152 -6.76141e-20)
(0.12189 0.0477106 -3.41437e-20)
(0.133636 0.0530361 -3.43418e-20)
(0.144352 0.0586433 6.83804e-20)
(0.15403 0.0644827 0)
(0.162694 0.0705129 -6.81749e-20)
(0.170387 0.0767029 1.35338e-19)
(0.177151 0.0830305 0)
(0.183036 0.0894876 -6.66801e-20)
(0.188118 0.0961002 6.6097e-20)
(0.192369 0.102889 7.38526e-20)
(-0.00116256 0.00448613 6.03348e-21)
(0.00306536 0.00882945 5.37366e-20)
(0.0129711 0.0116755 1.41076e-20)
(0.0254913 0.0136904 4.42895e-20)
(0.0398428 0.0156684 0)
(0.0552402 0.0180084 3.15838e-20)
(0.0709559 0.0208932 3.22539e-20)
(0.0864454 0.0243867 0)
(0.101336 0.0284944 6.69318e-20)
(0.115394 0.0331832 6.76135e-20)
(0.128466 0.0383891 0)
(0.140473 0.0440395 1.95697e-22)
(0.151393 0.0500591 -1.36741e-19)
(0.161226 0.0563749 1.36197e-19)
(0.170008 0.0629268 6.80004e-20)
(0.177787 0.0696692 -2.02791e-19)
(0.184611 0.0765694 2.01239e-19)
(0.190531 0.0836132 1.47102e-22)
(0.195633 0.0908272 -1.98011e-19)
(0.199866 0.0982255 2.84571e-24)
(-0.000881887 0.00323855 -4.79491e-20)
(0.00418823 0.00539547 5.33486e-20)
(0.0150899 0.00647196 0)
(0.0286239 0.00704738 5.85228e-20)
(0.0439371 0.00791655 0)
(0.0602029 0.00945152 -3.16591e-20)
(0.0766758 0.0118028 6.45701e-20)
(0.0928032 0.0150005 -6.57689e-20)
(0.108215 0.0190152 6.66936e-20)
(0.122685 0.0237805 3.37053e-20)
(0.136072 0.0292006 6.79771e-20)
(0.148311 0.0351733 -6.79749e-20)
(0.159396 0.0415971 6.78462e-20)
(0.169343 0.0483764 -6.81019e-20)
(0.178196 0.0554331 0)
(0.186017 0.0627092 0)
(0.192856 0.0701632 -1.9655e-22)
(0.198769 0.0777772 0)
(0.203849 0.0855807 6.58904e-20)
(0.208023 0.0935797 -7.33572e-20)
(-0.000482051 0.00197321 4.79491e-20)
(0.00565034 0.00194075 -1.06491e-19)
(0.0177403 0.00127432 -6.95675e-20)
(0.0324494 0.000447536 -1.31793e-19)
(0.0488541 0.000247795 -3.05994e-20)
(0.0660846 0.00101659 0)
(0.0833806 0.00286845 -6.43284e-20)
(0.100185 0.00579769 3.2906e-20)
(0.116131 0.00973941 -9.96242e-20)
(0.131008 0.0145937 -2.01828e-19)
(0.144688 0.0202325 6.75139e-20)
(0.157127 0.0265242 -6.80193e-20)
(0.168336 0.0333412 -1.36103e-19)
(0.178348 0.0405662 5.61867e-24)
(0.187226 0.0481049 6.76281e-20)
(0.195039 0.0558883 -6.71368e-20)
(0.201846 0.0638688 -6.68197e-20)
(0.207709 0.0720275 -6.60573e-20)
(0.212727 0.0804004 0)
(0.216801 0.0889838 -7.31834e-20)
(4.22759e-05 0.000694647 -3.56008e-20)
(0.00746272 -0.0015179 -1.30679e-20)
(0.0209346 -0.00388759 4.15822e-20)
(0.0369781 -0.00606567 7.27801e-20)
(0.0545999 -0.00728219 3.02994e-20)
(0.0728866 -0.00723081 3.1183e-20)
(0.0910658 -0.00583618 6.43285e-20)
(0.108579 -0.0031416 0)
(0.12507 0.000751997 -9.62789e-23)
(0.140342 0.00571041 1.34005e-19)
(0.154289 0.0115734 0)
(0.16689 0.0181799 -6.78367e-20)
(0.178175 0.0253766 6.78511e-20)
(0.188202 0.0330254 6.77393e-20)
(0.19705 0.0410167 0)
(0.204804 0.0492727 -6.68869e-20)
(0.211533 0.0577423 -1.33079e-19)
(0.217302 0.0664098 1.04436e-22)
(0.222217 0.0753218 -5.57242e-23)
(0.22615 0.084465 2.02298e-22)
(0.00069683 -0.00059249 -4.69727e-20)
(0.00963577 -0.00496205 5.29277e-20)
(0.0246832 -0.00898164 0)
(0.0422167 -0.012447 0)
(0.0611757 -0.0146163 3.04372e-20)
(0.0806035 -0.0152239 3.03476e-22)
(0.0997188 -0.0142364 -6.40292e-20)
(0.117967 -0.0117365 9.79728e-20)
(0.135005 -0.00786197 -6.59809e-20)
(0.150655 -0.00278174 0)
(0.164837 0.00331179 1.34432e-19)
(0.177555 0.0102283 1.34883e-19)
(0.188866 0.0177891 2.02626e-19)
(0.198852 0.0258357 0)
(0.207614 0.0342442 0)
(0.215255 0.0429295 6.68866e-20)
(0.221855 0.0518401 0)
(0.227486 0.060968 6.58284e-20)
(0.232257 0.0703762 -1.29908e-19)
(0.236009 0.0800442 1.44672e-19)
(0.00148752 -0.00188282 8.26893e-20)
(0.012179 -0.00837175 1.31561e-20)
(0.0289936 -0.0139738 0)
(0.0481676 -0.0186495 0)
(0.0685761 -0.0216964 1.50775e-19)
(0.0892221 -0.0228952 9.34366e-20)
(0.109318 -0.0222574 0)
(0.128319 -0.0199068 0)
(0.145898 -0.0160188 6.61787e-20)
(0.161904 -0.0107969 1.33489e-19)
(0.176283 -0.0044656 -4.02668e-19)
(0.18907 0.00275604 -6.76703e-20)
(0.200351 0.0106641 -1.34953e-19)
(0.210237 0.0190795 -1.34274e-19)
(0.218853 0.0278647 1.33714e-19)
(0.226324 0.0369283 2.78924e-22)
(0.232744 0.0462207 -2.63942e-19)
(0.238193 0.0557465 0)
(0.242779 0.0655924 2.59302e-19)
(0.246314 0.0757363 -1.43994e-19)
(0.00242025 -0.00317016 0)
(0.0151006 -0.0117255 1.31141e-20)
(0.03387 -0.0188285 -1.36719e-20)
(0.054828 -0.0246254 0)
(0.0767895 -0.0284637 -1.20441e-19)
(0.0987211 -0.0301775 -1.55601e-19)
(0.119834 -0.0298256 3.16862e-20)
(0.139596 -0.0275746 0)
(0.157705 -0.0236376 -1.31375e-19)
(0.174036 -0.0182528 -1.3315e-19)
(0.188571 -0.0116756 1.3403e-19)
(0.201374 -0.00415361 -6.72355e-20)
(0.212567 0.00408421 6.70626e-20)
(0.22229 0.0128385 1.34274e-19)
(0.230698 0.0219573 -1.33714e-19)
(0.237939 0.0313427 1.32903e-19)
(0.244124 0.0409477 4.67929e-22)
(0.249347 0.0507937 -2.60672e-19)
(0.25371 0.0609999 -2.71011e-22)
(0.256996 0.0715532 2.87382e-19)
(0.00350078 -0.0044475 1.16414e-20)
(0.0184071 -0.0150002 -1.30172e-20)
(0.0393131 -0.0235085 1.08917e-19)
(0.0621898 -0.0303254 0)
(0.085797 -0.0348595 1.19534e-19)
(0.109071 -0.0370045 1.23528e-19)
(0.131225 -0.0368699 -6.36615e-20)
(0.151749 -0.0346654 6.44085e-20)
(0.170368 -0.0306424 1.31376e-19)
(0.186988 -0.0250725 6.64109e-20)
(0.201631 -0.0182412 -6.6539e-20)
(0.214397 -0.0104233 6.70181e-20)
(0.225441 -0.00187228 1.80076e-22)
(0.234939 0.00719203 -2.00466e-19)
(0.243075 0.0166023 2.66061e-19)
(0.250024 0.0262515 -2.64149e-19)
(0.25592 0.0360937 4.64877e-22)
(0.260872 0.0461686 1.30208e-19)
(0.264977 0.0566364 1.42905e-22)
(0.267993 0.0675095 -1.43232e-19)
(0.00473442 -0.00570689 1.28568e-23)
(0.0221031 -0.0181713 -3.89346e-20)
(0.0453195 -0.0279752 -8.18247e-20)
(0.0702389 -0.0357 -2.88006e-20)
(0.0955719 -0.0408256 2.91082e-20)
(0.120232 -0.0433121 -1.2353e-19)
(0.143442 -0.0433223 6.27355e-20)
(0.164717 -0.04111 6.41818e-20)
(0.183817 -0.0369636 -6.55382e-20)
(0.200687 -0.0311871 6.58478e-20)
(0.215388 -0.024094 0)
(0.228061 -0.0159847 0)
(0.238898 -0.00713548 6.68007e-20)
(0.248109 0.00221379 -6.65086e-20)
(0.255913 0.0118787 0)
(0.26251 0.0217389 1.31996e-19)
(0.268062 0.0317435 2.25525e-22)
(0.272699 0.0419474 2.14105e-22)
(0.276519 0.0525569 2.56411e-19)
(0.279259 0.063633 -5.49251e-22)
(0.00612599 -0.00693942 1.14908e-20)
(0.0261904 -0.0212123 -2.58685e-20)
(0.0518812 -0.0321889 5.42472e-20)
(0.0789546 -0.0406993 -2.82121e-20)
(0.10608 -0.0463051 -1.19064e-19)
(0.132156 -0.0490392 -3.08442e-20)
(0.156424 -0.04912 -9.48344e-20)
(0.17843 -0.0468454 0)
(0.197975 -0.0425398 -6.47028e-20)
(0.215049 -0.0365376 -6.56148e-20)
(0.229756 -0.0291774 -1.98604e-19)
(0.242282 -0.020782 -2.29672e-22)
(0.252857 -0.0116481 1.99532e-19)
(0.261728 -0.00203353 -1.32558e-19)
(0.269145 0.00785902 -1.3191e-19)
(0.275337 0.0178903 1.31348e-19)
(0.280494 0.0279947 -3.9058e-19)
(0.284777 0.0382286 1.2947e-19)
(0.288297 0.0488419 -1.27539e-19)
(0.290782 0.0599737 -1.41735e-19)
(0.00767936 -0.00813497 0)
(0.0306679 -0.0240952 0)
(0.0589854 -0.0361088 2.71623e-20)
(0.0883095 -0.0452736 8.501e-20)
(0.117278 -0.0512429 0)
(0.144785 -0.0541282 -1.2209e-19)
(0.170098 -0.0542056 1.25212e-19)
(0.192805 -0.0518164 1.27656e-19)
(0.212752 -0.0473196 1.9508e-19)
(0.229979 -0.0410768 1.31222e-19)
(0.244641 -0.0334486 6.63974e-20)
(0.256969 -0.024776 -1.98535e-19)
(0.267235 -0.015371 3.311e-19)
(0.275723 -0.00550575 -8.48225e-23)
(0.282712 0.00460007 1.31911e-19)
(0.28846 0.0147849 0)
(0.293182 0.0249555 4.22693e-22)
(0.297073 0.0351431 1.28673e-19)
(0.300298 0.0456254 2.54893e-19)
(0.302601 0.0566574 0)
(0.00939756 -0.00928211 0)
(0.0355313 -0.02679 1.01911e-19)
(0.0666137 -0.0396931 -2.7048e-20)
(0.0982687 -0.0493739 5.59547e-20)
(0.129114 -0.0555865 -1.17191e-19)
(0.158053 -0.0585264 9.18206e-20)
(0.184386 -0.0585283 -1.25216e-19)
(0.20775 -0.0559767 -4.90569e-22)
(0.228048 -0.0512621 0)
(0.245374 -0.0447709 6.49859e-20)
(0.259939 -0.0368811 2.8599e-22)
(0.272023 -0.0279465 6.63559e-20)
(0.281943 -0.0182887 -4.8772e-22)
(0.290022 -0.00818684 -4.86168e-22)
(0.296565 0.00212865 1.31291e-19)
(0.301854 0.0124781 -1.30631e-19)
(0.306122 0.022736 1.29531e-19)
(0.309582 0.0328843 -2.27268e-22)
(0.312491 0.0432227 0)
(0.314682 0.0540439 -5.69604e-22)
(0.0112852 -0.01037 0)
(0.0407753 -0.0292668 -1.01943e-19)
(0.0747433 -0.0429007 0)
(0.10879 -0.052953 -1.41002e-19)
(0.141528 -0.0592871 1.17214e-19)
(0.171881 -0.0621862 3.01552e-20)
(0.199195 -0.0620449 -6.24886e-20)
(0.223164 -0.0592887 -6.39631e-20)
(0.243754 -0.0543379 0)
(0.26112 -0.0475995 -6.51696e-20)
(0.275535 -0.0394648 -6.53599e-20)
(0.287335 -0.030295 -6.5843e-20)
(0.296884 -0.0204142 -1.97824e-19)
(0.304546 -0.0101007 -4.00774e-22)
(0.310661 0.000416023 1.30809e-19)
(0.315535 0.0109539 -2.60038e-19)
(0.319421 0.0213758 1.29061e-19)
(0.322535 0.0316428 -1.27844e-19)
(0.325171 0.0420484 0)
(0.327344 0.0527786 3.77309e-22)
(0.168731 0.136603 -5.95378e-21)
(0.173801 0.147013 2.02598e-21)
(0.175825 0.157903 -2.05193e-21)
(0.174267 0.168609 2.06732e-21)
(0.170449 0.17907 0)
(0.164677 0.189181 0)
(0.157569 0.198882 -2.12788e-21)
(0.149387 0.208174 2.12632e-21)
(0.14038 0.21698 0)
(0.130708 0.22528 4.32603e-21)
(0.120432 0.233009 -2.16581e-21)
(0.109782 0.240136 1.09288e-21)
(0.0985186 0.246614 1.09367e-21)
(0.0873373 0.252412 -1.09341e-21)
(0.0750947 0.257517 -1.09806e-21)
(0.0638186 0.262041 0)
(0.0502634 0.266346 -5.51897e-22)
(0.038744 0.271408 -1.65413e-21)
(0.0228061 0.277766 -2.20442e-21)
(0.00921438 0.283803 -2.22479e-21)
(0.172235 0.13391 1.77805e-20)
(0.177209 0.145574 -6.0691e-21)
(0.179298 0.157685 1.02815e-20)
(0.177687 0.169329 -1.99988e-21)
(0.173808 0.180519 -8.28551e-21)
(0.16794 0.191167 -8.42147e-21)
(0.16071 0.201271 1.69005e-20)
(0.152382 0.210872 -8.47876e-21)
(0.143207 0.219925 0)
(0.133352 0.228425 -6.46073e-21)
(0.122878 0.236315 0)
(0.112019 0.243581 8.70113e-21)
(0.100532 0.250164 -6.53851e-21)
(0.0891151 0.256062 2.19131e-21)
(0.0766187 0.261244 0)
(0.0650683 0.265868 0)
(0.0512199 0.270308 -4.39181e-21)
(0.039383 0.275607 3.30528e-21)
(0.0231604 0.282348 -3.29326e-21)
(0.00931491 0.288676 2.22343e-21)
(0.176347 0.131033 3.1517e-20)
(0.181029 0.143972 -1.61685e-20)
(0.183079 0.157332 0)
(0.181337 0.169928 0)
(0.177348 0.181868 -2.49412e-20)
(0.171353 0.193073 8.25095e-21)
(0.163981 0.203603 8.38709e-21)
(0.155493 0.213531 0)
(0.146141 0.222847 8.56669e-21)
(0.136094 0.23156 -4.25939e-21)
(0.125413 0.239631 0)
(0.114334 0.247042 -1.30233e-20)
(0.102614 0.253752 4.31959e-21)
(0.0909532 0.259751 4.35223e-21)
(0.0781954 0.265034 -4.37658e-21)
(0.0663695 0.269758 4.37211e-21)
(0.0522233 0.274347 4.38654e-21)
(0.0400791 0.27988 0)
(0.0235554 0.286997 4.39106e-21)
(0.00944395 0.293623 0)
(0.181071 0.128004 7.82814e-21)
(0.185263 0.14222 -8.08674e-21)
(0.187175 0.156843 0)
(0.185222 0.170409 0)
(0.181076 0.183117 8.27704e-21)
(0.174922 0.194898 -8.31806e-21)
(0.167387 0.205872 0)
(0.158726 0.216143 8.525e-21)
(0.149186 0.225741 8.61165e-21)
(0.138938 0.234682 -2.56255e-20)
(0.128041 0.242948 -8.62925e-21)
(0.116734 0.250517 1.72252e-20)
(0.104771 0.257366 0)
(0.0928601 0.263479 -2.36706e-23)
(0.0798333 0.268872 -1.36459e-24)
(0.0677309 0.273708 0)
(0.0532846 0.278454 4.36899e-21)
(0.0408404 0.284226 -2.1785e-21)
(0.024001 0.291717 -2.18349e-21)
(0.00960665 0.298644 0)
(0.186406 0.124851 2.35916e-20)
(0.189913 0.140337 -5.64401e-20)
(0.191583 0.15623 3.23619e-20)
(0.189342 0.170767 0)
(0.18499 0.184256 0)
(0.178648 0.196632 1.65962e-20)
(0.170931 0.20807 -1.67852e-20)
(0.162085 0.218705 2.51927e-20)
(0.152347 0.228601 -8.47944e-21)
(0.14189 0.237788 -1.70777e-20)
(0.130768 0.246261 3.41646e-20)
(0.119225 0.254007 7.25609e-24)
(0.10701 0.261003 3.73952e-23)
(0.0948404 0.267249 -8.62399e-21)
(0.0815379 0.272755 8.69829e-21)
(0.0691585 0.277719 -8.66503e-21)
(0.0544081 0.28262 0)
(0.0416728 0.288639 -2.17561e-21)
(0.0244972 0.296506 2.17331e-21)
(0.00980215 0.303738 0)
(0.192347 0.121607 -3.11215e-20)
(0.194979 0.138337 1.60668e-20)
(0.1963 0.155492 -3.24887e-20)
(0.193693 0.171002 4.87053e-20)
(0.189089 0.185283 1.6383e-20)
(0.18253 0.198271 -8.27595e-21)
(0.174614 0.210191 1.66243e-20)
(0.16557 0.22121 0)
(0.155627 0.231421 1.68326e-20)
(0.144951 0.240871 1.69205e-20)
(0.133596 0.249566 -2.55179e-20)
(0.121808 0.257502 1.7126e-20)
(0.109333 0.26466 1.44626e-23)
(0.0968975 0.271049 0)
(0.0833123 0.276681 -2.58305e-20)
(0.0706556 0.28178 8.61771e-21)
(0.0555981 0.286843 1.7256e-20)
(0.0425807 0.293116 0)
(0.0250492 0.301369 -1.72827e-20)
(0.0100329 0.308927 0)
(0.198882 0.118301 -3.10168e-20)
(0.200454 0.13624 -1.6064e-20)
(0.201316 0.154637 0)
(0.198267 0.171113 -3.24503e-20)
(0.193366 0.186192 1.49116e-22)
(0.186563 0.199808 -6.58259e-20)
(0.178433 0.212229 -1.4189e-22)
(0.169181 0.22365 1.6653e-20)
(0.159023 0.234194 3.26324e-23)
(0.148122 0.243924 -1.68437e-20)
(0.136526 0.252858 4.70317e-23)
(0.124485 0.261 -1.70271e-20)
(0.11174 0.268332 3.40331e-20)
(0.0990319 0.274877 -3.41214e-20)
(0.0851573 0.280642 4.4735e-23)
(0.0722226 0.285888 0)
(0.0568557 0.291114 -3.00475e-20)
(0.0435662 0.297653 -4.29469e-21)
(0.0256593 0.306304 1.72212e-20)
(0.0103009 0.314216 0)
(0.205992 0.114959 -1.54673e-22)
(0.206328 0.134062 3.17481e-20)
(0.20662 0.15367 0)
(0.203055 0.171098 1.61823e-20)
(0.197812 0.186978 -1.6395e-20)
(0.190741 0.201236 3.26151e-20)
(0.182381 0.214176 1.65125e-20)
(0.172913 0.226018 -1.66111e-20)
(0.162534 0.236913 0)
(0.151401 0.246942 -1.67769e-20)
(0.139556 0.256133 3.37098e-20)
(0.127253 0.264497 -1.68364e-20)
(0.11423 0.272016 -1.69527e-20)
(0.101241 0.27873 1.70013e-20)
(0.0870705 0.284636 1.70297e-20)
(0.0738571 0.290037 0)
(0.0581792 0.295427 2.5624e-20)
(0.044629 0.302245 -8.53306e-21)
(0.0263284 0.311313 0)
(0.010608 0.319617 0)
(0.213653 0.111604 1.23448e-19)
(0.212589 0.131821 -7.9097e-20)
(0.212197 0.152596 0)
(0.208044 0.170955 1.60589e-20)
(0.202415 0.187634 -3.254e-20)
(0.195053 0.202548 3.2455e-20)
(0.186453 0.216024 0)
(0.176761 0.228307 0)
(0.166154 0.239573 0)
(0.154782 0.249919 0)
(0.14268 0.259383 1.67534e-20)
(0.130109 0.267986 -1.67202e-20)
(0.116798 0.275707 0)
(0.10352 0.282603 0)
(0.0890467 0.288657 1.68615e-20)
(0.075553 0.294223 -8.47115e-21)
(0.0595635 0.299775 8.46031e-21)
(0.0457659 0.306889 -2.1193e-20)
(0.0270553 0.316395 4.2405e-21)
(0.0109557 0.325137 0)
(0.22183 0.108258 6.15943e-20)
(0.21922 0.129534 -4.70384e-20)
(0.218029 0.15142 0)
(0.21322 0.170684 -1.60369e-20)
(0.207164 0.188158 0)
(0.19949 0.203738 0)
(0.190638 0.217767 0)
(0.180715 0.230509 -1.63743e-20)
(0.169875 0.242165 0)
(0.158257 0.252848 3.31614e-20)
(0.145892 0.262603 -1.63789e-20)
(0.133043 0.271462 -4.98683e-20)
(0.119436 0.2794 1.6643e-20)
(0.105861 0.286492 5.16293e-23)
(0.0910769 0.292701 -5.02846e-20)
(0.0773004 0.298441 1.67596e-20)
(0.0609996 0.30415 -8.41586e-21)
(0.0469703 0.311579 2.10534e-20)
(0.0278367 0.321549 -1.05072e-20)
(0.0113449 0.330787 -2.12376e-21)
(0.230482 0.104931 -1.53838e-20)
(0.226201 0.127215 6.2607e-20)
(0.224101 0.150146 -1.57933e-20)
(0.218572 0.170287 -6.40701e-20)
(0.212047 0.188547 9.60602e-20)
(0.204043 0.204801 -1.60007e-20)
(0.194928 0.219397 0)
(0.184767 0.232617 1.6315e-20)
(0.173688 0.244682 3.28144e-20)
(0.161818 0.255721 -1.63315e-20)
(0.149182 0.265787 1.6484e-20)
(0.136046 0.274922 -1.64808e-20)
(0.122134 0.283091 0)
(0.108251 0.290394 1.65568e-20)
(0.093149 0.296762 1.6583e-20)
(0.0790856 0.302685 0)
(0.0624747 0.308545 -2.49896e-20)
(0.0482314 0.316308 1.6691e-20)
(0.0286661 0.326773 8.37767e-21)
(0.0117758 0.336576 0)
(0.23956 0.10163 2.80398e-22)
(0.233514 0.124871 -6.22864e-20)
(0.230402 0.148777 1.57775e-20)
(0.224097 0.169768 6.37798e-20)
(0.217061 0.1888 -1.27642e-19)
(0.208705 0.205733 4.78043e-20)
(0.199316 0.220909 0)
(0.18891 0.234624 1.63165e-20)
(0.177584 0.247116 -3.23546e-20)
(0.165454 0.258532 -4.89596e-20)
(0.152539 0.26893 -1.6478e-20)
(0.139106 0.278359 8.1832e-20)
(0.124879 0.286775 -3.27189e-20)
(0.110676 0.294305 5.28864e-24)
(0.0952476 0.300838 5.66271e-24)
(0.0808909 0.306951 0)
(0.0639716 0.312951 3.30324e-20)
(0.0495339 0.32107 -2.48106e-20)
(0.0295332 0.332062 1.2417e-20)
(0.0122472 0.342509 -2.08729e-20)
(0.249012 0.0983452 3.00868e-20)
(0.241144 0.122503 -6.28021e-20)
(0.236929 0.147319 6.24572e-20)
(0.229801 0.169133 0)
(0.222212 0.18892 6.38135e-20)
(0.21348 0.206532 -4.757e-20)
(0.203801 0.222296 -1.59881e-20)
(0.193138 0.236521 1.60853e-20)
(0.181556 0.249461 0)
(0.169156 0.261274 4.84919e-20)
(0.155951 0.272024 -3.22096e-20)
(0.14221 0.281769 0)
(0.127657 0.290449 -3.2566e-20)
(0.11312 0.298222 3.24831e-20)
(0.097356 0.304926 -3.2666e-20)
(0.0826961 0.311236 1.63088e-20)
(0.0654699 0.317361 -3.2718e-20)
(0.0508578 0.325857 8.21304e-21)
(0.0304232 0.337408 2.04787e-20)
(0.0127565 0.348591 2.07216e-20)
(0.258784 0.0950572 -2.97619e-20)
(0.24908 0.120105 -1.24197e-19)
(0.243694 0.145776 6.216e-20)
(0.235704 0.168393 -1.56957e-20)
(0.227516 0.188914 0)
(0.21838 0.207195 4.77995e-20)
(0.208389 0.223551 -4.74127e-20)
(0.197454 0.238302 0)
(0.1856 0.251708 0)
(0.172918 0.263941 -1.60218e-20)
(0.159411 0.275065 1.60497e-20)
(0.145348 0.285147 3.21878e-20)
(0.130456 0.29411 1.57684e-22)
(0.11557 0.302142 -3.21532e-20)
(0.0994572 0.309021 -1.61734e-20)
(0.0844799 0.315537 3.22964e-20)
(0.0669475 0.321766 1.62161e-20)
(0.0521796 0.330659 1.621e-20)
(0.031317 0.342803 4.02279e-21)
(0.0132989 0.354823 1.2284e-20)
(0.268825 0.0917329 7.5163e-20)
(0.257323 0.117666 -1.08189e-19)
(0.250721 0.144156 6.18825e-20)
(0.241841 0.167562 1.56624e-20)
(0.233006 0.188786 -7.87935e-20)
(0.223427 0.207722 4.6982e-20)
(0.213096 0.224671 -1.57501e-20)
(0.201865 0.239959 4.74744e-20)
(0.189721 0.253852 -1.55881e-20)
(0.176738 0.266527 -7.91689e-20)
(0.162913 0.278048 4.76118e-20)
(0.148512 0.288489 -1.58256e-20)
(0.133266 0.297754 0)
(0.118011 0.306064 1.60309e-20)
(0.101537 0.313124 -3.187e-20)
(0.0862221 0.319853 -1.60263e-20)
(0.0683827 0.326162 4.94799e-23)
(0.0534732 0.33547 -3.21167e-20)
(0.0321915 0.348233 -1.2077e-20)
(0.0138674 0.361203 -2.03119e-20)
(0.279089 0.0883389 -5.98396e-20)
(0.265878 0.115191 -7.76202e-20)
(0.258041 0.142484 6.16322e-20)
(0.248255 0.166665 6.26061e-20)
(0.238721 0.188556 3.18188e-20)
(0.228656 0.208122 -4.6611e-20)
(0.217947 0.225659 1.56745e-20)
(0.206387 0.241496 -9.41423e-20)
(0.193927 0.255894 9.37874e-20)
(0.180621 0.269033 3.13553e-20)
(0.166459 0.280972 -1.57566e-20)
(0.151699 0.291796 6.27949e-20)
(0.136083 0.301381 -3.1389e-20)
(0.120436 0.309988 3.15286e-20)
(0.103584 0.317235 0)
(0.087906 0.324182 -1.57997e-20)
(0.0697571 0.330542 1.58656e-20)
(0.0547121 0.340282 -1.58622e-20)
(0.0330202 0.353686 -1.58842e-20)
(0.0144528 0.367723 0)
(0.289534 0.0848827 1.19538e-19)
(0.274754 0.112738 1.12934e-21)
(0.265684 0.140811 -6.14069e-20)
(0.254985 0.165738 0)
(0.244705 0.188243 -1.5536e-20)
(0.234103 0.208405 -1.5483e-20)
(0.222969 0.226521 0)
(0.211041 0.242915 6.19606e-23)
(0.198231 0.257836 -1.5533e-20)
(0.184573 0.271458 -3.10143e-20)
(0.17005 0.283837 0)
(0.154909 0.295066 -3.10653e-20)
(0.138902 0.30499 0)
(0.122839 0.313914 -3.11552e-20)
(0.105594 0.321354 0)
(0.0895192 0.328527 4.69301e-20)
(0.0710573 0.334905 -1.56358e-20)
(0.0558714 0.345089 3.14019e-20)
(0.0337751 0.359144 1.57475e-20)
(0.0150434 0.374369 1.58618e-20)
(0.300109 0.0812887 0)
(0.283941 0.110203 0)
(0.273654 0.139016 6.9553e-20)
(0.262047 0.164667 -6.89423e-20)
(0.250983 0.187754 0)
(0.239795 0.208495 1.54122e-20)
(0.228184 0.227194 6.16531e-20)
(0.215842 0.244163 -1.07364e-19)
(0.20264 0.25963 1.22654e-19)
(0.188597 0.273763 -4.57584e-20)
(0.173685 0.286609 7.65088e-21)
(0.158137 0.29827 7.71392e-21)
(0.141721 0.308558 0)
(0.125215 0.317824 2.30884e-20)
(0.107563 0.32547 -2.31312e-20)
(0.0910525 0.33288 -1.55245e-20)
(0.0722753 0.339241 3.0939e-20)
(0.0569287 0.349885 -3.87825e-20)
(0.0344272 0.364585 3.87533e-21)
(0.0156257 0.381119 -1.17988e-20)
(0.310685 0.0776406 -5.95925e-20)
(0.29344 0.107437 -3.82681e-21)
(0.281957 0.136876 -6.92066e-20)
(0.269448 0.163214 6.85189e-20)
(0.257569 0.186874 0)
(0.24575 0.208209 3.80077e-21)
(0.233606 0.227526 6.48012e-20)
(0.220793 0.245113 4.24749e-22)
(0.207154 0.26117 -5.66169e-20)
(0.192687 0.275858 -3.03805e-20)
(0.177358 0.289212 -3.99768e-21)
(0.161376 0.301348 4.15682e-20)
(0.144533 0.312037 0)
(0.127557 0.32168 -3.81449e-21)
(0.109489 0.329556 1.14106e-20)
(0.092498 0.337222 -1.52672e-20)
(0.0734075 0.343532 1.52467e-20)
(0.0578646 0.354654 7.66666e-21)
(0.0349489 0.369975 -7.66892e-21)
(0.0161854 0.387939 0)
(0.320591 0.0745212 7.04175e-20)
(0.302946 0.104746 -6.82484e-20)
(0.290419 0.134713 1.44379e-19)
(0.277084 0.16176 -7.16551e-20)
(0.26442 0.186037 7.20787e-20)
(0.251952 0.207985 -7.57836e-20)
(0.239228 0.227927 -4.46966e-21)
(0.225885 0.246134 0)
(0.211755 0.262785 -7.57886e-20)
(0.19682 0.278028 7.07612e-20)
(0.18104 0.291892 3.11416e-20)
(0.164595 0.304499 -3.97835e-20)
(0.14731 0.315592 3.5548e-20)
(0.129841 0.325607 -3.97991e-20)
(0.111354 0.33372 -4.43952e-21)
(0.0938365 0.34162 -1.77738e-20)
(0.0744452 0.347854 1.77173e-20)
(0.0586582 0.359439 0)
(0.0353176 0.375352 4.43508e-21)
(0.01671 0.394838 -4.45773e-21)
(0.338669 0.074602 0)
(0.322151 0.10398 0)
(0.308318 0.134744 0)
(0.293729 0.163265 0)
(0.279758 0.188686 0)
(0.266083 0.211632 0)
(0.252151 0.232578 0)
(0.237631 0.251818 0)
(0.22237 0.269486 0)
(0.206335 0.285699 0)
(0.189496 0.300471 0)
(0.171952 0.313897 0)
(0.153631 0.32571 0)
(0.134972 0.336304 0)
(0.115521 0.344811 0)
(0.0966559 0.352932 0)
(0.0766165 0.358925 0)
(0.0601177 0.371369 0)
(0.0357723 0.388577 0)
(0.0178238 0.411569 0)
(0.364523 0.106173 0)
(0.34933 0.130802 0)
(0.335093 0.156948 0)
(0.319995 0.182643 0)
(0.305076 0.206753 0)
(0.29022 0.229167 0)
(0.274978 0.250067 0)
(0.259097 0.269551 0)
(0.242463 0.287634 0)
(0.225033 0.304333 0)
(0.20678 0.319635 0)
(0.187735 0.333521 0)
(0.167906 0.34582 0)
(0.147533 0.356606 0)
(0.126475 0.365405 0)
(0.105331 0.373052 0)
(0.0838124 0.379228 0)
(0.0646039 0.391488 0)
(0.0373783 0.411255 0)
(0.0190243 0.438218 0)
(0.388344 0.124812 0)
(0.373806 0.148304 0)
(0.359482 0.173303 0)
(0.344219 0.198383 0)
(0.328799 0.222445 0)
(0.313211 0.245145 0)
(0.297112 0.26653 0)
(0.280289 0.286639 0)
(0.262653 0.305453 0)
(0.24416 0.322937 0)
(0.224783 0.339042 0)
(0.204533 0.353687 0)
(0.183433 0.366727 0)
(0.161626 0.378071 0)
(0.139059 0.387437 0)
(0.115894 0.395203 0)
(0.0925446 0.40208 0)
(0.0702333 0.414473 0)
(0.0396302 0.436885 0)
(0.0198333 0.466421 0)
(0.410569 0.140973 0)
(0.396971 0.163827 0)
(0.382915 0.188422 0)
(0.367542 0.213495 0)
(0.351674 0.237907 0)
(0.335427 0.261184 0)
(0.318549 0.283275 0)
(0.300849 0.304185 0)
(0.282252 0.323872 0)
(0.26272 0.342276 0)
(0.242228 0.359312 0)
(0.220774 0.374863 0)
(0.198374 0.388777 0)
(0.175119 0.400902 0)
(0.150963 0.411035 0)
(0.125844 0.419416 0)
(0.100508 0.427277 0)
(0.0754035 0.440439 0)
(0.0419201 0.46509 0)
(0.0205348 0.496479 0)
(0.43332 0.156236 0)
(0.420379 0.179117 0)
(0.406579 0.203734 0)
(0.391072 0.229112 0)
(0.374758 0.254096 0)
(0.357852 0.278113 0)
(0.340171 0.301036 0)
(0.321545 0.322846 0)
(0.301915 0.34349 0)
(0.28125 0.36289 0)
(0.259522 0.380934 0)
(0.236719 0.397481 0)
(0.212851 0.412363 0)
(0.187975 0.425411 0)
(0.162042 0.436459 0)
(0.134899 0.445726 0)
(0.107494 0.454695 0)
(0.0799185 0.468877 0)
(0.044152 0.495159 0)
(0.0212842 0.527785 0)
(0.457177 0.170808 0)
(0.444627 0.194108 0)
(0.430984 0.219098 0)
(0.415312 0.245071 0)
(0.398575 0.270849 0)
(0.381046 0.295773 0)
(0.362582 0.319666 0)
(0.343027 0.342498 0)
(0.322332 0.364216 0)
(0.300475 0.38473 0)
(0.27742 0.403908 0)
(0.25315 0.421588 0)
(0.227666 0.437587 0)
(0.201012 0.451726 0)
(0.173143 0.463854 0)
(0.143893 0.474192 0)
(0.114348 0.484325 0)
(0.0844384 0.499561 0)
(0.0466223 0.527063 0)
(0.0221698 0.560545 0)
(0.482221 0.184889 0)
(0.469871 0.208881 0)
(0.456291 0.234513 0)
(0.440444 0.261318 0)
(0.423328 0.288092 0)
(0.405241 0.314098 0)
(0.386056 0.339116 0)
(0.36562 0.363116 0)
(0.343886 0.386052 0)
(0.320834 0.407826 0)
(0.296424 0.42829 0)
(0.270628 0.447264 0)
(0.243446 0.464552 0)
(0.214914 0.479955 0)
(0.185002 0.493321 0)
(0.153569 0.504857 0)
(0.1218 0.516165 0)
(0.0895446 0.532421 0)
(0.0496246 0.560943 0)
(0.023266 0.595191 0)
(0.508449 0.198673 0)
(0.49617 0.223555 0)
(0.482595 0.250024 0)
(0.466585 0.277835 0)
(0.449146 0.305775 0)
(0.430578 0.333031 0)
(0.410749 0.359342 0)
(0.389504 0.384677 0)
(0.366787 0.408999 0)
(0.342573 0.432203 0)
(0.316815 0.454131 0)
(0.289476 0.474583 0)
(0.260551 0.493341 0)
(0.230075 0.510186 0)
(0.198032 0.524945 0)
(0.164325 0.537791 0)
(0.130206 0.550291 0)
(0.0954768 0.567541 0)
(0.0532478 0.597017 0)
(0.0245888 0.632086 0)
(0.535888 0.212263 0)
(0.5236 0.238187 0)
(0.509997 0.265636 0)
(0.493856 0.29458 0)
(0.476159 0.323824 0)
(0.457193 0.352484 0)
(0.436808 0.380255 0)
(0.414839 0.407103 0)
(0.39121 0.432996 0)
(0.365883 0.457827 0)
(0.338803 0.481422 0)
(0.309919 0.503563 0)
(0.279221 0.524005 0)
(0.246741 0.542494 0)
(0.212476 0.558826 0)
(0.176368 0.573119 0)
(0.139721 0.586877 0)
(0.102298 0.605146 0)
(0.057473 0.635608 0)
(0.0261198 0.671619 0)
(0.564573 0.225712 0)
(0.552238 0.252797 0)
(0.538602 0.281331 0)
(0.522376 0.3115 0)
(0.5045 0.342158 0)
(0.48523 0.372362 0)
(0.464391 0.40176 0)
(0.441794 0.430304 0)
(0.417338 0.457969 0)
(0.390965 0.484643 0)
(0.362604 0.510137 0)
(0.332188 0.534211 0)
(0.29969 0.556584 0)
(0.26514 0.576961 0)
(0.228543 0.595089 0)
(0.18987 0.611017 0)