/*--------------------------------*- C++ -*----------------------------------*\
  =========                 |
  \\      /  F ield         | OpenFOAM: The Open Source CFD Toolbox
   \\    /   O peration     | Website:  https://openfoam.org
    \\  /    A nd           | Version:  7
     \\/     M anipulation  |
\*---------------------------------------------------------------------------*/
FoamFile
{
    version     2.0;
    format      ascii;
    class       volScalarField;
    location    "14";
    object      p;
}
// * * * * * * * * * * * * * * * * * * * * * * * * * * * * * * * * * * * * * //

dimensions      [0 2 -2 0 0 0 0];

internalField   nonuniform List<scalar> 
2000
(
0.0130668
0.0168877
0.0190909
0.0219514
0.0261417
0.0319042
0.038986
0.0468421
0.0548723
0.0628037
0.0151455
0.0184334
0.0201896
0.0222846
0.025392
0.0299333
0.0358827
0.0428592
0.050312
0.0579279
0.0171135
0.0198813
0.021276
0.0227918
0.0250399
0.0285176
0.0333695
0.0393882
0.0461267
0.0532601
0.018994
0.0212457
0.0223398
0.0234306
0.0250387
0.0276545
0.031519
0.0365696
0.0424912
0.0489669
0.0208143
0.0225493
0.0233904
0.0241827
0.0253514
0.0273275
0.0303769
0.0345284
0.0395937
0.0452492
0.0226
0.0238212
0.0244556
0.0250568
0.0259624
0.027519
0.0299641
0.0333602
0.0376074
0.0423074
0.0243629
0.025085
0.0255676
0.0260771
0.0268744
0.0282158
0.0302811
0.0331228
0.0366692
0.0403157
0.0260899
0.0263451
0.0267445
0.0272618
0.0280908
0.0294004
0.0313045
0.0338307
0.0368681
0.0394523
0.0277286
0.0275802
0.0279729
0.0285986
0.0295868
0.0310277
0.0329708
0.0354324
0.0382217
0.0398355
0.0291975
0.0287317
0.0291948
0.0300241
0.0312856
0.0330012
0.0351587
0.0377794
0.0406599
0.0419659
0.0784946
0.0960729
0.107644
0.115472
0.12095
0.124989
0.127586
0.129588
0.130328
0.131395
0.0737458
0.0922444
0.104064
0.111974
0.117554
0.121695
0.124356
0.126416
0.12722
0.128313
0.0689949
0.0884771
0.100469
0.108484
0.114182
0.118426
0.121173
0.123295
0.12421
0.125196
0.0644214
0.0848189
0.0968703
0.10503
0.110855
0.115195
0.118044
0.120227
0.121225
0.122152
0.0603158
0.0813688
0.0933169
0.101657
0.107596
0.112025
0.114977
0.117212
0.118277
0.119173
0.0569248
0.0780801
0.0898004
0.0983762
0.104406
0.108925
0.111979
0.114261
0.115385
0.116258
0.0545677
0.0750449
0.0864563
0.0952451
0.101312
0.10592
0.109066
0.111376
0.112535
0.113381
0.0530994
0.0719143
0.083211
0.0922048
0.0982878
0.102993
0.106235
0.108574
0.109766
0.110585
0.0529317
0.06915
0.0803764
0.0893446
0.0954101
0.100195
0.103505
0.105826
0.107003
0.107762
0.0518738
0.0657031
0.0774023
0.0864107
0.0925428
0.0974214
0.100848
0.103197
0.104405
0.105127
0.0600634
0.0632104
0.0724551
0.0804184
0.0865097
0.0912674
0.0945417
0.0965278
0.0974636
0.0979083
0.067825
0.0653798
0.0702474
0.0744187
0.078319
0.0818046
0.0847051
0.0870422
0.0886317
0.0895827
0.0686636
0.0673067
0.0685672
0.0699245
0.0721643
0.074395
0.0761601
0.0778667
0.0794251
0.0804185
0.0634375
0.0641804
0.0641949
0.0643133
0.0656117
0.0672598
0.0687675
0.0699687
0.0709101
0.0714187
0.054453
0.0565034
0.0573446
0.0578747
0.0588007
0.0596851
0.060679
0.0615945
0.0622256
0.0625252
0.0446406
0.0471294
0.0482244
0.0492871
0.0507472
0.0520221
0.05279
0.0533289
0.0538278
0.054241
0.0347709
0.0374115
0.039044
0.0405631
0.0420529
0.0433046
0.0440756
0.0444225
0.0446775
0.0449693
0.0247906
0.0271609
0.0288416
0.0306261
0.0324438
0.0338178
0.0346264
0.0349835
0.0351232
0.0351884
0.014665
0.0166153
0.0181622
0.0197194
0.0213561
0.0225718
0.023148
0.0233145
0.0233379
0.0233375
0.00245839
0.00485058
0.00628428
0.00719993
0.00817081
0.00908567
0.00959077
0.00970756
0.00965823
0.00963384
0.0556112
0.0673739
0.0663963
0.0587417
0.0493177
0.0398911
0.0313772
0.02218
0.0134309
0.000516272
0.0584742
0.0690138
0.0649516
0.0559674
0.0465294
0.0375499
0.0296506
0.0208412
0.0129075
-1.94818e-05
0.0623976
0.0682116
0.0621025
0.0525433
0.0435689
0.035233
0.0279639
0.019615
0.0123734
-0.000432401
0.0635192
0.0658852
0.0584278
0.0488971
0.0405615
0.0329167
0.0262433
0.0184066
0.0117895
-0.0007744
0.0631125
0.0624383
0.0541727
0.0451021
0.0375247
0.0306042
0.0245052
0.0172312
0.0111747
-0.00110247
0.0606361
0.0581191
0.0495616
0.0412459
0.0344927
0.0283029
0.0227611
0.0160882
0.0105497
-0.0013614
0.0564598
0.0531316
0.0448262
0.0374156
0.0314946
0.0260271
0.0210327
0.0149822
0.00995773
-0.00115373
0.0513049
0.0477338
0.0401443
0.0336917
0.0285691
0.023805
0.0193497
0.013916
0.00939635
-0.000500614
0.0458678
0.0422653
0.0356497
0.0301463
0.0257652
0.0216764
0.0177496
0.0129028
0.00876979
0.000227196
0.0406892
0.037072
0.0314511
0.0268397
0.023137
0.019685
0.0162713
0.0119826
0.00814807
0.000813466
0.0361236
0.0324214
0.0276362
0.0238214
0.0207328
0.0178697
0.014945
0.0111738
0.00757604
0.00122313
0.0323403
0.0284738
0.024281
0.0211385
0.0185933
0.0162669
0.0137864
0.0104668
0.00707542
0.00148608
0.0293955
0.0252995
0.0214512
0.0188311
0.0167547
0.0149209
0.0127998
0.00985079
0.00664595
0.00163871
0.0272752
0.0228992
0.0191651
0.0169236
0.0152546
0.0138146
0.0119901
0.00931781
0.00628673
0.00171788
0.0259114
0.0212204
0.0174119
0.015443
0.014065
0.0129459
0.0113468
0.00903609
0.00599456
0.00175286
0.0251809
0.020179
0.0162045
0.0143295
0.0131737
0.0123018
0.0110003
0.00867147
0.00572953
0.00176134
0.0249649
0.0197356
0.0154549
0.0135704
0.0125612
0.0118472
0.0106192
0.0084046
0.0055224
0.00175487
0.0252961
0.0198425
0.0151379
0.0131241
0.0121813
0.011616
0.0103682
0.00820727
0.00535164
0.0017401
0.0260269
0.0204725
0.0152091
0.0129319
0.0119754
0.011442
0.0102321
0.00806966
0.00521608
0.00172056
0.0260496
0.0212189
0.0158112
0.0131563
0.0119942
0.0114114
0.0101742
0.00798769
0.00511393
0.00169756
0.0229067
0.0226875
0.0192182
0.0156772
0.0132834
0.011514
0.00986699
0.00762522
0.00480279
0.0016288
0.0271604
0.0200643
0.0163197
0.0142146
0.0124853
0.0112313
0.00952909
0.00719382
0.00444084
0.00149415
0.0325709
0.026773
0.0214727
0.0177856
0.0144366
0.0121092
0.00983391
0.00725837
0.00445858
0.00155015
0.0330139
0.0270611
0.0220077
0.018353
0.015101
0.0127395
0.010039
0.0073649
0.00461526
0.00175128
0.0361439
0.0299132
0.024516
0.0202239
0.016559
0.0135886
0.0104253
0.007675
0.00498448
0.00213839
0.0378696
0.0316712
0.0262328
0.0217567
0.0177812
0.0142556
0.0108824
0.00814548
0.00546949
0.00254565
0.040268
0.0335633
0.0277301
0.0231431
0.0188548
0.0148858
0.011394
0.00854723
0.00599741
0.0030282
0.0421023
0.0351369
0.029361
0.0244328
0.019717
0.0155071
0.0118347
0.00899397
0.00681788
0.00380338
0.0434303
0.0370398
0.0309372
0.0255435
0.0205413
0.0160254
0.0122811
0.00966759
0.00743167
0.00390177
0.0447193
0.0376379
0.0315109
0.0260199
0.0209348
0.0163391
0.0126595
0.0100173
0.00728341
0.00328664
0.0341866
0.0382927
0.0382554
0.0382342
0.0410142
0.0424671
0.04496
0.047506
0.0478939
0.0501502
0.0377615
0.0417622
0.0405965
0.0406547
0.0433715
0.0446878
0.0474231
0.0500936
0.0510606
0.0530558
0.0403424
0.0429908
0.0420703
0.0429278
0.0457585
0.0472051
0.0503738
0.0531679
0.0554734
0.0571507
0.0428034
0.0439105
0.0432813
0.0449481
0.0478858
0.0496721
0.0532108
0.0561932
0.0594641
0.0612509
0.045142
0.0453227
0.0448371
0.0469874
0.0499366
0.0521
0.0558967
0.0590443
0.0627376
0.0648531
0.0472758
0.0469247
0.046754
0.0492021
0.0521136
0.0546235
0.0585984
0.0618598
0.0656333
0.0680281
0.0492644
0.0484022
0.0487891
0.0515397
0.0544722
0.0573176
0.061438
0.064807
0.0685538
0.0710935
0.0511722
0.0497314
0.0508108
0.0539105
0.0569827
0.0601775
0.0644421
0.067963
0.0717216
0.0743283
0.0530418
0.0509771
0.0528327
0.0562936
0.0596187
0.063171
0.0675925
0.0713252
0.0751848
0.0778603
0.0549182
0.0521653
0.0548994
0.0587178
0.0623803
0.0662718
0.0708715
0.0748567
0.0788997
0.0816856
0.0568567
0.0533034
0.0570294
0.0612121
0.0652773
0.0694641
0.0742795
0.0785332
0.0828199
0.0857509
0.0589137
0.0544554
0.0592209
0.0637751
0.0683087
0.0727376
0.0778161
0.0823459
0.0869147
0.0900038
0.0611508
0.0557552
0.0614688
0.0663631
0.0714571
0.0761117
0.0814766
0.0863354
0.0911916
0.0944312
0.0635742
0.0573435
0.0637467
0.0689361
0.0746971
0.0795942
0.0852791
0.0905128
0.0956445
0.0990372
0.0661313
0.059307
0.0660266
0.0714796
0.0779898
0.083272
0.0892239
0.0948647
0.1003
0.10385
0.0690642
0.0616588
0.068304
0.0739772
0.0814443
0.0870216
0.0932663
0.0993171
0.105127
0.108868
0.0729418
0.0643905
0.070599
0.0766006
0.0849599
0.0908048
0.0974124
0.103911
0.110173
0.114126
0.0769983
0.0674027
0.0728684
0.0794155
0.0883926
0.0945156
0.101529
0.108542
0.115353
0.119597
0.0817665
0.0705607
0.0753047
0.0825132
0.0917561
0.0982415
0.105731
0.11333
0.120746
0.125338
0.0867207
0.0740804
0.0776089
0.0852161
0.0945813
0.101535
0.109505
0.117843
0.126093
0.131269
0.0957111
0.0892079
0.0877904
0.0943544
0.102989
0.111249
0.120454
0.130339
0.140201
0.146544
0.109069
0.102477
0.104443
0.111835
0.121101
0.131095
0.14248
0.155037
0.167854
0.175963
0.129126
0.12558
0.125812
0.132668
0.1427
0.154687
0.16865
0.184374
0.200136
0.2105
0.148603
0.148534
0.150421
0.157553
0.168617
0.182821
0.200008
0.219713
0.23853
0.250486
0.167131
0.17049
0.175468
0.18473
0.197992
0.215126
0.236039
0.259954
0.281953
0.295601
0.183123
0.189759
0.198873
0.211352
0.228205
0.249394
0.274381
0.301982
0.326485
0.34062
0.195319
0.20436
0.216544
0.232856
0.253816
0.27953
0.308675
0.339327
0.365673
0.380963
0.204894
0.216136
0.230586
0.249489
0.273395
0.302592
0.335302
0.368482
0.395932
0.409619
0.208099
0.220622
0.237155
0.258311
0.284427
0.316137
0.35139
0.386159
0.413674
0.428408
0.212983
0.226146
0.243319
0.265341
0.292753
0.325456
0.362224
0.400531
0.431653
0.431577
0.105634
0.116822
0.132756
0.148962
0.16543
0.179855
0.190836
0.199587
0.202602
0.206838
0.110334
0.122473
0.137284
0.151824
0.166827
0.179949
0.189928
0.197965
0.200628
0.204747
0.114592
0.128369
0.142808
0.156382
0.169874
0.181353
0.189964
0.196918
0.199088
0.202956
0.11789
0.132052
0.146078
0.159252
0.171796
0.182152
0.189763
0.195853
0.197718
0.201114
0.120874
0.134673
0.147994
0.160751
0.172613
0.182231
0.189195
0.194684
0.196403
0.199266
0.123644
0.137129
0.149736
0.161917
0.173082
0.182056
0.188516
0.193526
0.195154
0.197541
0.126017
0.139391
0.151504
0.163113
0.173568
0.181915
0.187901
0.192471
0.194009
0.19601
0.127946
0.141288
0.153103
0.164238
0.174059
0.181834
0.187376
0.191538
0.192987
0.194672
0.129502
0.14283
0.154446
0.165187
0.174474
0.181763
0.186912
0.190711
0.192086
0.193494
0.130778
0.144107
0.155575
0.165966
0.174801
0.181681
0.186493
0.189971
0.191298
0.192445
0.131848
0.145187
0.156549
0.16662
0.175065
0.181597
0.186121
0.189313
0.190609
0.191513
0.132725
0.146062
0.15738
0.16717
0.175286
0.181523
0.185803
0.18874
0.189991
0.190697
0.133372
0.146695
0.15806
0.167617
0.17547
0.181464
0.185538
0.188253
0.189439
0.189988
0.13378
0.1471
0.158596
0.16797
0.175624
0.18142
0.185322
0.187844
0.18896
0.189378
0.133962
0.147326
0.159003
0.168244
0.175756
0.181393
0.185153
0.187504
0.188557
0.188868
0.133898
0.147409
0.159281
0.168452
0.175869
0.181384
0.18503
0.187225
0.188211
0.188455
0.133585
0.147402
0.159427
0.168609
0.175965
0.181397
0.184952
0.187005
0.187917
0.188159
0.13284
0.147268
0.159404
0.168706
0.176043
0.181424
0.184914
0.186836
0.187628
0.187982
0.131767
0.147122
0.159275
0.168771
0.176118
0.18147
0.18492
0.186732
0.187397
0.187969
0.12946
0.146469
0.158798
0.168612
0.176068
0.181472
0.184926
0.186636
0.187054
0.188089
0.125809
0.14564
0.1583
0.168655
0.176308
0.181788
0.185331
0.18714
0.187357
0.188796
0.137578
0.15291
0.163089
0.172347
0.178857
0.183642
0.18672
0.188431
0.188839
0.189751
0.147329
0.159855
0.168654
0.176452
0.181744
0.185769
0.188304
0.189891
0.190515
0.191145
0.153842
0.16449
0.172651
0.179154
0.183723
0.187255
0.189592
0.191407
0.192713
0.193917
0.158202
0.167505
0.174872
0.180229
0.184323
0.187623
0.190277
0.192957
0.195854
0.1992
0.161181
0.169199
0.175419
0.17967
0.183398
0.186869
0.190579
0.195282
0.20192
0.210844
0.162604
0.169258
0.173787
0.176643
0.180023
0.18423
0.19014
0.198909
0.21318
0.23423
0.163455
0.16861
0.171536
0.173593
0.176999
0.182342
0.191789
0.208505
0.238203
0.285207
0.161569
0.164077
0.164583
0.1663
0.170331
0.179332
0.195336
0.225625
0.282253
0.376407
0.16691
0.170479
0.170677
0.173123
0.18217
0.198347
0.226217
0.276389
0.370349
0.521202
0.114706
0.126841
0.13676
0.144433
0.149891
0.154189
0.15628
0.158102
0.157269
0.161432
0.111625
0.124151
0.133914
0.141592
0.14709
0.151565
0.153722
0.155759
0.155154
0.158846
0.110086
0.122993
0.132783
0.140058
0.145176
0.14936
0.151373
0.153383
0.152984
0.156103
0.107504
0.120831
0.130732
0.138069
0.142978
0.146951
0.14889
0.150855
0.150689
0.153256
0.104169
0.117815
0.127802
0.135332
0.14029
0.144198
0.146165
0.148123
0.148174
0.15029
0.100513
0.114527
0.124627
0.13217
0.137355
0.141222
0.143256
0.14522
0.145443
0.147209
0.0965728
0.11111
0.121417
0.128943
0.134233
0.138126
0.140241
0.142201
0.142559
0.144055
0.0923308
0.107525
0.118119
0.125692
0.130984
0.13493
0.137172
0.139108
0.139576
0.14087
0.0878422
0.103777
0.114702
0.122363
0.127679
0.131639
0.134034
0.135962
0.136527
0.137686
0.0831994
0.0999317
0.111195
0.118946
0.124332
0.128306
0.130831
0.132779
0.133438
0.134523
0.0303892
0.0297142
0.0303123
0.0314193
0.0330514
0.035154
0.037682
0.0406703
0.0442692
0.0480377
0.0311918
0.0304301
0.0312027
0.0326241
0.0346655
0.0372139
0.0401589
0.0434237
0.0469888
0.0506303
0.0315023
0.0307942
0.0317543
0.0334831
0.0359233
0.038922
0.0422583
0.0457752
0.0491915
0.0522776
0.0312683
0.0307637
0.0319057
0.0338974
0.0366661
0.0400234
0.0436851
0.0474045
0.0507051
0.0531963
0.0304976
0.0303513
0.0316662
0.0338627
0.0368542
0.0404515
0.0442746
0.048026
0.05122
0.0533075
0.0292517
0.0296185
0.0311103
0.0334655
0.0365881
0.0402328
0.0440312
0.0476251
0.0506345
0.0524735
0.0276221
0.0286496
0.0303439
0.0328225
0.0359744
0.0395235
0.0431021
0.0463535
0.0490143
0.0506658
0.0256996
0.0275215
0.0294452
0.0320242
0.0351213
0.0384432
0.0416411
0.0444065
0.046555
0.0479432
0.0235714
0.0262678
0.0284473
0.0311048
0.0340776
0.0370694
0.0397762
0.0419653
0.0435275
0.0445111
0.0212822
0.0248952
0.0273362
0.0300528
0.0328581
0.0354663
0.0376409
0.0392333
0.0402271
0.0407141
0.0188561
0.0233725
0.026071
0.0288484
0.0314905
0.033728
0.0354032
0.0364536
0.0369484
0.0369483
0.0163443
0.0217279
0.0246821
0.0275485
0.0300757
0.0320078
0.0332658
0.0338717
0.0339531
0.0335477
0.0138081
0.0199744
0.0232102
0.0262402
0.0287456
0.030474
0.0314203
0.0316864
0.0314343
0.0307256
0.0113439
0.0181734
0.0217683
0.0250759
0.0276704
0.0293
0.0300309
0.0300391
0.0295113
0.0285836
0.00908529
0.0164373
0.020525
0.0242367
0.0270168
0.0286278
0.0292106
0.0290103
0.0282405
0.0271469
0.00718684
0.0149232
0.0196725
0.0238969
0.0269224
0.028555
0.0290184
0.0286254
0.0276249
0.0263783
0.00580771
0.0138228
0.0193951
0.0242003
0.0274872
0.0291418
0.0294742
0.0288623
0.0275865
0.026105
0.00509903
0.0133394
0.0198445
0.0252467
0.0287793
0.0304388
0.0306112
0.029711
0.0280036
0.0259986
0.00519511
0.0136559
0.0211228
0.0270827
0.030831
0.032502
0.0325346
0.031306
0.0290069
0.0264354
0.00620763
0.0149076
0.0232738
0.0296905
0.0336068
0.0353304
0.0353568
0.0339749
0.0312257
0.0281217
0.00824059
0.0171779
0.0262845
0.0329896
0.0369771
0.038749
0.0389089
0.0378199
0.0357288
0.033903
0.011441
0.0205104
0.0300988
0.0368651
0.0407627
0.0424574
0.0426265
0.0417128
0.0401674
0.0389473
0.0158015
0.0248498
0.0346289
0.0411953
0.0448139
0.0462855
0.0463154
0.0453814
0.0439451
0.042662
0.0212993
0.0301031
0.0397966
0.0458708
0.0490145
0.0501072
0.0498661
0.0487718
0.0472399
0.0457653
0.0278777
0.0361781
0.0455046
0.0507987
0.0532777
0.0538534
0.0532274
0.051863
0.0501303
0.0484538
0.0354625
0.0431349
0.0514863
0.0558771
0.0575516
0.0574992
0.0564028
0.0546987
0.0527178
0.0508424
0.0439795
0.0506394
0.0577787
0.06106
0.0618152
0.0610521
0.0594238
0.0573348
0.0550811
0.0530195
0.0532552
0.0585638
0.0642972
0.0663172
0.0660718
0.0645437
0.0623445
0.0598421
0.0572993
0.0550589
0.0630697
0.0668097
0.070964
0.0716303
0.0703407
0.0680222
0.0652349
0.0623064
0.0594649
0.0570437
0.0731637
0.0752289
0.0777075
0.0769868
0.0746491
0.0715445
0.0681743
0.0648242
0.0616873
0.0590796
0.0832096
0.0836498
0.0844559
0.0823726
0.0790221
0.0751663
0.0712428
0.0674967
0.0640847
0.0612836
0.0932485
0.0919765
0.0911265
0.0877467
0.0834567
0.0789155
0.0744946
0.0704018
0.0667569
0.063761
0.103028
0.100051
0.0976419
0.0930804
0.0879566
0.0828208
0.0779788
0.0736062
0.0697851
0.0665961
0.112302
0.107713
0.103902
0.0983147
0.0924917
0.0868754
0.0817076
0.077137
0.0732067
0.0698278
0.120835
0.114798
0.109794
0.10337
0.0970062
0.0910427
0.085661
0.080986
0.0770136
0.0734366
0.128393
0.121136
0.115191
0.108147
0.101421
0.0952588
0.0897917
0.0851244
0.0811884
0.0774451
0.134749
0.126556
0.119962
0.112535
0.105637
0.0994337
0.0940176
0.0894926
0.0857363
0.081953
0.139691
0.130896
0.123973
0.116417
0.109544
0.103464
0.0982374
0.0939856
0.0905502
0.0867972
0.143033
0.134009
0.127097
0.119676
0.11303
0.107234
0.102321
0.0984438
0.0954796
0.0919582
0.144625
0.135768
0.129222
0.122204
0.115987
0.110631
0.106138
0.102676
0.100361
0.0977038
0.144352
0.136071
0.130249
0.123911
0.11835
0.113667
0.109879
0.107123
0.105739
0.105623
0.142128
0.134837
0.130075
0.124655
0.119897
0.11595
0.112814
0.110482
0.109212
0.109317
0.137962
0.132042
0.128638
0.124338
0.120508
0.117363
0.114925
0.113109
0.112023
0.112159
0.131945
0.127728
0.125941
0.122945
0.120168
0.117917
0.116271
0.115142
0.114537
0.114882
0.124248
0.122003
0.122057
0.120532
0.118932
0.117665
0.116881
0.116531
0.116584
0.11734
0.11512
0.11504
0.117115
0.11721
0.116898
0.116699
0.116831
0.117302
0.118078
0.11936
0.104869
0.107061
0.111285
0.113122
0.114194
0.115131
0.116224
0.117536
0.119054
0.120894
0.0938414
0.0983238
0.104761
0.108426
0.110952
0.113077
0.115157
0.117319
0.119575
0.12198
0.0824038
0.0890967
0.0977378
0.103276
0.1073
0.110638
0.113718
0.116723
0.119705
0.122678
0.0709468
0.0796332
0.0904003
0.0978155
0.10335
0.107908
0.111983
0.115815
0.119502
0.123046
0.0599242
0.0702056
0.0829249
0.0921646
0.0991931
0.104959
0.110011
0.114646
0.11901
0.123123
0.0492513
0.0609234
0.0754585
0.0864352
0.094914
0.101853
0.107853
0.113259
0.118263
0.12293
0.0393213
0.051949
0.0681299
0.0807101
0.0905726
0.0986349
0.105542
0.111681
0.117282
0.122472
0.0303251
0.0435757
0.0610211
0.0750454
0.0862053
0.0953256
0.10309
0.109921
0.116073
0.121751
0.0223591
0.0360148
0.0541824
0.0694952
0.0818364
0.091932
0.100497
0.107977
0.114638
0.120764
0.015503
0.029233
0.0477909
0.0641111
0.0774779
0.0884531
0.097751
0.105838
0.112966
0.119477
0.00980167
0.0233018
0.0418936
0.0589188
0.0731256
0.084879
0.0948248
0.103467
0.111041
0.117826
0.00525702
0.0182966
0.0365218
0.0539352
0.0687853
0.0811842
0.0916926
0.100815
0.10883
0.115734
0.00183504
0.014252
0.0317156
0.0491809
0.0644596
0.0773579
0.0883197
0.097808
0.106066
0.113338
-0.000522796
0.0111656
0.0275139
0.0446847
0.0601563
0.0733994
0.0847083
0.0945277
0.103049
0.11033
-0.00189972
0.00900448
0.0239473
0.0404829
0.0558948
0.0693149
0.0808273
0.0908025
0.0994799
0.106352
-0.00244715
0.00768505
0.0210297
0.0366161
0.0517055
0.065127
0.0767223
0.0867119
0.095385
0.10251
-0.00221748
0.00713886
0.0187722
0.0331314
0.0476373
0.0608918
0.0725096
0.0825594
0.091334
0.0988831
-0.00131635
0.00726132
0.0171661
0.030077
0.0437514
0.05667
0.0682481
0.0783962
0.0873218
0.0951382
0.000121138
0.00792626
0.0161825
0.0274947
0.0401064
0.0525017
0.0639268
0.0741191
0.0831543
0.0911346
0.00195654
0.00900513
0.0157671
0.0254103
0.0367561
0.0484239
0.0595419
0.0696764
0.0787572
0.0868641
0.00405757
0.0103771
0.0158407
0.0238298
0.0337552
0.0444932
0.0551321
0.0650933
0.0741535
0.082349
0.00630425
0.011933
0.0163069
0.0227381
0.0311575
0.0407873
0.0507697
0.0604288
0.0693909
0.0776233
0.00859613
0.0135774
0.0170618
0.0220979
0.0290084
0.0373964
0.04655
0.0557619
0.0645315
0.0727405
0.0108632
0.0152399
0.0180096
0.0218514
0.0273302
0.0344053
0.0425791
0.0511898
0.0596554
0.0677717
)
;

boundaryField
{
    inlet
    {
        type            zeroGradient;
    }
    outlet
    {
        type            fixedValue;
        value           uniform 0;
    }
    cylinder
    {
        type            zeroGradient;
    }
    top
    {
        type            symmetryPlane;
    }
    bottom
    {
        type            symmetryPlane;
    }
    defaultFaces
    {
        type            empty;
    }
}


// ************************************************************************* //
