/*--------------------------------*- C++ -*----------------------------------*\
  =========                 |
  \\      /  F ield         | OpenFOAM: The Open Source CFD Toolbox
   \\    /   O peration     | Website:  https://openfoam.org
    \\  /    A nd           | Version:  7
     \\/     M anipulation  |
\*---------------------------------------------------------------------------*/
FoamFile
{
    version     2.0;
    format      ascii;
    class       volVectorField;
    location    "5.7";
    object      U;
}
// * * * * * * * * * * * * * * * * * * * * * * * * * * * * * * * * * * * * * //

dimensions      [0 1 -1 0 0 0 0];

internalField   nonuniform List<vector> 
32000
(
(-5.84329e-05 0.000322721 -4.25213e-22)
(-0.000496594 0.00525987 0)
(-0.00131246 0.0136574 -3.7935e-21)
(-0.00228203 0.0243095 0)
(-0.00331218 0.0364624 3.94795e-21)
(-0.00430644 0.04962 0)
(-0.00519396 0.0634301 4.07741e-21)
(-0.00592065 0.0776384 -3.09987e-21)
(-0.00644495 0.0920595 8.36689e-25)
(-0.00673689 0.106558 1.09145e-24)
(-0.00677881 0.121025 -1.06769e-21)
(-0.00656493 0.135376 4.31107e-21)
(-0.00609645 0.149534 0)
(-0.00537776 0.163433 -1.0959e-21)
(-0.00441628 0.177007 1.10046e-21)
(-0.00322253 0.190196 0)
(-0.00180916 0.202941 5.57088e-21)
(-0.000190689 0.215187 -1.11753e-21)
(0.00161716 0.226881 0)
(0.00359879 0.237977 2.26099e-21)
(0.00573897 0.248432 2.26661e-21)
(0.00802257 0.258208 0)
(0.0104351 0.267277 0)
(0.0129629 0.275615 0)
(0.0155923 0.283204 0)
(0.01831 0.290034 0)
(0.0211036 0.296103 0)
(0.0239616 0.301411 0)
(0.0268733 0.305967 -4.58764e-21)
(0.029829 0.309782 0)
(0.0328194 0.312874 4.58758e-21)
(0.0358358 0.31526 0)
(0.0388702 0.316963 0)
(0.0419149 0.318007 0)
(0.044962 0.318414 -4.56937e-21)
(0.0480031 0.31821 -2.28922e-21)
(0.0510297 0.317417 6.84423e-21)
(0.0540421 0.316054 4.7569e-25)
(0.0570272 0.314188 4.54569e-21)
(0.0598394 0.311909 -1.44155e-24)
(-8.9137e-05 0.000447765 0)
(-0.000721386 0.0055578 7.40766e-21)
(-0.00185833 0.0140596 1.89641e-21)
(-0.00321609 0.0247685 2.31119e-25)
(-0.00468169 0.0369327 -1.97355e-21)
(-0.00614078 0.0500595 0)
(-0.00750925 0.063802 4.07539e-21)
(-0.00872523 0.0779128 -4.13172e-21)
(-0.00974176 0.0922102 0)
(-0.0105245 0.106564 -8.4588e-21)
(-0.0110527 0.120872 0)
(-0.0113172 0.13505 -1.29294e-20)
(-0.0113168 0.149028 0)
(-0.0110535 0.16274 0)
(-0.0105329 0.176126 4.41067e-21)
(-0.00976418 0.189127 -4.42492e-21)
(-0.00875849 0.201686 -4.45466e-21)
(-0.00752854 0.213749 0)
(-0.00608861 0.225265 1.34832e-20)
(-0.00445329 0.236187 -4.50126e-21)
(-0.00263701 0.246475 6.87345e-24)
(-0.000653968 0.256092 -1.35976e-20)
(0.0014821 0.265008 -9.09137e-21)
(0.00375756 0.273201 -4.56775e-21)
(0.00615911 0.280654 1.36808e-20)
(0.00867401 0.287356 -1.37196e-20)
(0.0112899 0.293305 1.3742e-20)
(0.0139949 0.298501 -1.82922e-20)
(0.0167778 0.302953 -4.56743e-21)
(0.0196281 0.306673 3.15287e-23)
(0.022536 0.309676 -1.36979e-20)
(0.0254921 0.311983 -9.13739e-21)
(0.0284869 0.313614 1.83049e-20)
(0.0315111 0.314594 -1.82421e-20)
(0.0345553 0.314947 -4.53928e-21)
(0.0376093 0.314698 -1.82152e-20)
(0.0406624 0.313873 -1.20656e-24)
(0.0437124 0.312491 4.54024e-21)
(0.0467353 0.310626 -1.80441e-20)
(0.0495914 0.30837 -2.61127e-20)
(-0.000122236 0.000566917 -1.70016e-21)
(-0.000946516 0.0058405 -3.70361e-21)
(-0.00239912 0.0144631 -1.70628e-20)
(-0.00413664 0.0252393 0)
(-0.00602312 0.0374209 1.97316e-21)
(-0.00792798 0.0505218 -2.00674e-21)
(-0.00975731 0.0642001 -2.44531e-20)
(-0.0114426 0.0782137 8.26455e-21)
(-0.0129297 0.0923874 -4.18471e-21)
(-0.0141795 0.106595 2.53692e-20)
(-0.0151704 0.120739 8.54235e-21)
(-0.0158903 0.134741 4.31305e-21)
(-0.0163351 0.148532 -1.73734e-20)
(-0.0165052 0.162053 0)
(-0.0164047 0.175243 0)
(-0.0160404 0.188047 8.86983e-21)
(-0.015422 0.200411 2.54189e-23)
(-0.0145612 0.212281 -8.93013e-21)
(-0.0134713 0.223609 -8.98252e-21)
(-0.0121656 0.234348 -1.80176e-20)
(-0.0106575 0.244458 2.71308e-20)
(-0.00896053 0.253905 2.18888e-23)
(-0.00708801 0.262658 -1.33989e-23)
(-0.00505281 0.270696 9.08522e-21)
(-0.00286788 0.278001 -1.82627e-20)
(-0.000546004 0.284564 3.64915e-20)
(0.00190049 0.290382 0)
(0.00445959 0.295456 9.15201e-21)
(0.00711979 0.299794 9.15494e-21)
(0.00987027 0.303408 1.83185e-20)
(0.0127005 0.306314 3.15131e-23)
(0.0155998 0.308532 0)
(0.0185577 0.310084 9.14643e-21)
(0.0215635 0.310994 -9.05788e-21)
(0.0246063 0.311288 -9.04796e-21)
(0.0276736 0.310992 2.72743e-20)
(0.0307527 0.310133 -2.70757e-20)
(0.0338391 0.308735 1.80906e-20)
(0.0368974 0.306873 -2.69224e-20)
(0.0397929 0.304646 1.035e-20)
(-0.000159251 0.000727912 1.3604e-20)
(-0.00117988 0.00621018 -1.48132e-20)
(-0.00294688 0.0149632 3.03313e-20)
(-0.00505424 0.0258093 0)
(-0.00734791 0.0380067 1.18349e-20)
(-0.00968231 0.0510765 2.00639e-20)
(-0.0119526 0.0646832 4.07827e-21)
(-0.014083 0.0785914 2.45644e-24)
(-0.0160158 0.0926338 1.25472e-20)
(-0.0177089 0.106687 -4.23295e-21)
(-0.0191369 0.120658 2.13472e-20)
(-0.0202861 0.134473 -2.58557e-20)
(-0.0211506 0.148068 2.60514e-20)
(-0.021729 0.161386 -8.75811e-21)
(-0.0220231 0.174371 8.79462e-21)
(-0.022039 0.186968 -1.77066e-20)
(-0.0217853 0.199126 -2.67075e-20)
(-0.021272 0.210794 8.92608e-21)
(-0.0205112 0.221922 -8.98936e-21)
(-0.0195155 0.232467 2.7008e-20)
(-0.0182973 0.24239 -1.80732e-20)
(-0.0168693 0.251656 -1.81045e-20)
(-0.0152442 0.260237 0)
(-0.0134349 0.268109 0)
(-0.0114538 0.275257 -1.81981e-20)
(-0.00931324 0.281672 -1.82445e-20)
(-0.00702542 0.287349 -1.82267e-20)
(-0.00460251 0.292291 0)
(-0.00205632 0.296506 0)
(0.000601889 0.300006 -3.65051e-20)
(0.00336092 0.302807 -7.47393e-23)
(0.00620938 0.304929 1.82394e-20)
(0.0091356 0.306395 -1.81548e-20)
(0.0121277 0.307229 -1.81959e-20)
(0.0151727 0.30746 1.8153e-20)
(0.0182563 0.307114 0)
(0.0213638 0.30622 1.8073e-20)
(0.0244874 0.304808 -3.59702e-20)
(0.027582 0.302954 3.58715e-20)
(0.0305165 0.300762 -4.14868e-20)
(-0.000202682 0.000895697 -6.80275e-21)
(-0.0014218 0.00659543 1.11089e-20)
(-0.00349703 0.0154895 -1.51646e-20)
(-0.00596464 0.0264101 0)
(-0.00864996 0.0386242 -1.97254e-20)
(-0.0113941 0.0516625 -1.20387e-20)
(-0.0140836 0.0651969 1.62987e-20)
(-0.0166357 0.0789985 0)
(-0.0189891 0.0929057 -2.50948e-20)
(-0.0210988 0.1068 -8.46019e-21)
(-0.0229376 0.120595 -8.53411e-21)
(-0.0244897 0.13422 1.72451e-20)
(-0.0257473 0.147614 -1.73695e-20)
(-0.0267074 0.160724 8.7378e-21)
(-0.0273707 0.173497 0)
(-0.0277421 0.185881 2.65698e-20)
(-0.0278286 0.197827 8.91089e-21)
(-0.0276395 0.209284 -1.78971e-20)
(-0.0271858 0.220206 3.58796e-20)
(-0.026479 0.23055 -3.60002e-20)
(-0.0255305 0.240278 3.60659e-20)
(-0.0243527 0.249355 1.81045e-20)
(-0.022958 0.257754 0)
(-0.0213583 0.265453 1.81978e-20)
(-0.0195658 0.272436 4.77843e-23)
(-0.0175925 0.278693 0)
(-0.0154506 0.284222 1.82267e-20)
(-0.0131522 0.289024 -1.82501e-20)
(-0.0107093 0.293108 1.81742e-20)
(-0.0081334 0.296486 3.646e-20)
(-0.00543635 0.299174 -3.63711e-20)
(-0.00263033 0.301193 3.63189e-20)
(0.000272159 0.302566 0)
(0.0032578 0.30332 0)
(0.00631196 0.303483 3.61289e-20)
(0.00941802 0.303085 0)
(0.0125592 0.302158 0)
(0.0157248 0.300733 -3.58159e-20)
(0.0188599 0.298892 3.56582e-20)
(0.0218364 0.296741 2.07131e-20)
(-0.000252773 0.00108427 3.40086e-21)
(-0.00167492 0.00702561 0)
(-0.00405398 0.016069 3.03211e-20)
(-0.00687026 0.0270671 3.8703e-21)
(-0.00993153 0.0392976 3.94452e-21)
(-0.0130661 0.0523015 2.40695e-20)
(-0.016152 0.0657603 3.25886e-20)
(-0.0191009 0.0794514 0)
(-0.0218486 0.093219 8.36601e-21)
(-0.024348 0.106951 2.53661e-20)
(-0.0265696 0.120564 3.41514e-20)
(-0.0284962 0.133992 -8.62137e-21)
(-0.0301187 0.14718 -2.60541e-20)
(-0.0314327 0.160076 0)
(-0.0324376 0.172631 3.51975e-20)
(-0.0331373 0.184795 0)
(-0.033538 0.196521 5.33767e-20)
(-0.033648 0.207761 -1.7838e-20)
(-0.0334769 0.218469 0)
(-0.0330354 0.228605 -1.80177e-20)
(-0.0323347 0.238131 -3.63558e-23)
(-0.0313864 0.247013 -1.80334e-20)
(-0.030202 0.255223 -1.80825e-20)
(-0.0287932 0.262742 1.81744e-20)
(-0.0271718 0.269552 -1.8127e-20)
(-0.0253495 0.275645 0)
(-0.0233381 0.281018 -1.82131e-20)
(-0.0211499 0.285673 1.81436e-20)
(-0.0187968 0.289618 0)
(-0.0162907 0.292867 0)
(-0.0136437 0.295435 0)
(-0.0108687 0.297345 -3.62917e-20)
(-0.00797896 0.29862 3.61e-20)
(-0.00498925 0.299288 0)
(-0.00191601 0.29938 -1.80335e-20)
(0.00122223 0.298929 0)
(0.00440634 0.297968 3.5857e-20)
(0.00762234 0.296534 -1.77526e-20)
(0.0108064 0.29471 -3.56095e-20)
(0.0138317 0.292607 4.11191e-20)
(-0.000311121 0.00128597 2.38034e-20)
(-0.00194087 0.00748371 -3.33175e-20)
(-0.00461752 0.0166837 -5.68465e-20)
(-0.00777081 0.0277607 -3.09563e-20)
(-0.0111909 0.0400061 -7.88762e-21)
(-0.0146944 0.0529738 -1.60464e-20)
(-0.0181529 0.0663545 -7.33175e-20)
(-0.0214728 0.0799318 -2.47736e-20)
(-0.0245871 0.0935568 -4.18033e-20)
(-0.0274472 0.107122 -4.22752e-20)
(-0.0300224 0.12055 -5.97672e-20)
(-0.0322941 0.133779 -3.4452e-20)
(-0.0342518 0.146756 3.42811e-24)
(-0.0358899 0.159434 -3.4972e-20)
(-0.0372073 0.171766 -3.51973e-20)
(-0.0382068 0.183706 -5.3102e-20)
(-0.0388939 0.195207 3.55525e-20)
(-0.0392756 0.206224 -1.7832e-20)
(-0.0393609 0.216715 0)
(-0.0391598 0.226637 3.5946e-20)
(-0.0386827 0.235955 0)
(-0.0379407 0.244636 7.22613e-20)
(-0.0369448 0.252653 0)
(-0.0357062 0.259986 -1.81516e-20)
(-0.0342361 0.266618 1.81923e-20)
(-0.0325459 0.272542 -3.62255e-20)
(-0.0306474 0.277753 0)
(-0.0285526 0.282255 -3.63506e-20)
(-0.0262733 0.286056 3.61996e-20)
(-0.0238216 0.289169 0)
(-0.02121 0.291611 0)
(-0.0184516 0.293406 0)
(-0.0155608 0.294578 -3.59997e-20)
(-0.0125533 0.295156 0)
(-0.00944746 0.295174 -3.59341e-20)
(-0.00626384 0.294667 7.15497e-20)
(-0.00302392 0.293673 -7.13224e-20)
(0.000254933 0.292231 3.53667e-20)
(0.00350062 0.29043 7.08096e-20)
(0.00658587 0.288385 -4.09541e-20)
(-0.000378239 0.00149912 -3.0604e-20)
(-0.00222103 0.00796703 4.56154e-24)
(-0.00518873 0.017328 3.03159e-20)
(-0.00866581 0.0284844 6.19067e-20)
(-0.0124265 0.040744 -7.88636e-21)
(-0.0162769 0.053673 -3.20851e-20)
(-0.0200827 0.0669723 3.258e-20)
(-0.0237461 0.0804336 4.95532e-20)
(-0.027198 0.0939135 1.67222e-20)
(-0.030389 0.10731 4.22612e-20)
(-0.0332869 0.12055 3.41485e-20)
(-0.0358723 0.133576 5.1662e-20)
(-0.0381338 0.14634 1.04175e-19)
(-0.040065 0.158796 5.24715e-20)
(-0.0416641 0.170902 0)
(-0.0429331 0.182614 1.76731e-20)
(-0.0438767 0.193888 1.77452e-20)
(-0.0445011 0.204679 1.78196e-20)
(-0.0448146 0.214948 3.58283e-20)
(-0.0448266 0.224653 -1.79606e-20)
(-0.0445471 0.23376 0)
(-0.0439862 0.242236 -2.85874e-23)
(-0.0431545 0.250056 -3.6141e-20)
(-0.0420627 0.257198 3.61784e-20)
(-0.0407217 0.263649 7.24482e-20)
(-0.0391425 0.269398 7.25033e-20)
(-0.0373366 0.274444 3.03588e-23)
(-0.0353157 0.278788 3.61812e-20)
(-0.0330916 0.28244 3.61481e-20)
(-0.0306762 0.285412 -3.6102e-20)
(-0.0280822 0.287724 3.60432e-20)
(-0.0253231 0.289398 3.59721e-20)
(-0.0224139 0.290462 7.18888e-20)
(-0.0193718 0.290947 -1.11671e-22)
(-0.0162163 0.290888 1.07194e-19)
(-0.0129704 0.290323 -1.74846e-23)
(-0.00965791 0.289296 -3.54486e-20)
(-0.00629966 0.28785 -3.54645e-20)
(-0.00297524 0.286076 3.51698e-20)
(0.000185291 0.284096 4.07308e-20)
(-0.000454555 0.00172184 2.71966e-20)
(-0.00251585 0.00846945 3.70114e-20)
(-0.00576774 0.0179949 2.27266e-20)
(-0.00955479 0.0292303 -2.32138e-20)
(-0.0136368 0.0415017 -3.94191e-20)
(-0.0178109 0.0543894 3.20825e-20)
(-0.0219375 0.0676051 0)
(-0.0259159 0.0809479 3.30286e-20)
(-0.0296753 0.0942806 0)
(-0.0331655 0.107507 -6.76213e-20)
(-0.0363539 0.120557 1.70847e-20)
(-0.0392203 0.133379 -8.61099e-20)
(-0.0417526 0.145928 -3.47229e-20)
(-0.0439442 0.158161 1.74981e-20)
(-0.0457923 0.17004 3.72508e-23)
(-0.0472987 0.181521 -1.76681e-20)
(-0.0484671 0.192565 -3.5547e-20)
(-0.0493033 0.203129 -7.13763e-20)
(-0.0498148 0.213173 0)
(-0.0500107 0.222659 4.30652e-23)
(-0.0499002 0.231552 -3.59519e-20)
(-0.0494929 0.239821 -3.6087e-20)
(-0.0487988 0.247442 3.61409e-20)
(-0.0478281 0.254392 -3.62545e-20)
(-0.0465913 0.260658 3.61532e-20)
(-0.0450992 0.266231 -7.23308e-20)
(-0.0433629 0.271108 2.62489e-23)
(-0.0413938 0.275291 -7.22702e-20)
(-0.0392031 0.27879 -3.6148e-20)
(-0.0368029 0.281619 -1.16527e-23)
(-0.0342057 0.283796 -1.01579e-22)
(-0.0314254 0.285346 -3.5972e-20)
(-0.0284776 0.286297 -3.58891e-20)
(-0.0253803 0.286684 -1.1922e-22)
(-0.0221547 0.286544 -3.56897e-20)
(-0.0188256 0.285921 -1.35704e-22)
(-0.0154199 0.28486 -3.53887e-20)
(-0.0119617 0.283411 1.05556e-19)
(-0.00853695 0.281671 -3.51697e-20)
(-0.00528145 0.279766 -4.07348e-20)
(-0.000540274 0.00195163 -2.71936e-20)
(-0.00282549 0.00898545 7.40345e-21)
(-0.00635419 0.0186764 -2.27304e-20)
(-0.0104369 0.0299891 -7.73659e-21)
(-0.0148204 0.0422695 3.15342e-20)
(-0.0192939 0.0551134 -8.0205e-21)
(-0.0237139 0.0682429 8.14145e-21)
(-0.0279776 0.0814653 -4.9548e-20)
(-0.0320129 0.0946494 1.67122e-20)
(-0.0357697 0.107704 3.38095e-20)
(-0.0392148 0.120565 0)
(-0.042328 0.133182 6.88947e-20)
(-0.0450969 0.145515 0)
(-0.0475142 0.157525 -6.99277e-20)
(-0.049577 0.169175 -3.51781e-20)
(-0.0512867 0.180426 0)
(-0.0526464 0.191239 0)
(-0.0536613 0.201575 7.13553e-20)
(-0.0543386 0.211395 3.58471e-20)
(-0.0546869 0.220661 -7.18021e-20)
(-0.0547146 0.22934 3.59322e-20)
(-0.0544309 0.237402 0)
(-0.0538451 0.244822 -3.61429e-20)
(-0.0529673 0.25158 7.21973e-20)
(-0.0518074 0.257661 -3.60768e-20)
(-0.0503757 0.263056 -3.618e-20)
(-0.0486831 0.267763 3.60555e-20)
(-0.0467404 0.271784 0)
(-0.0445585 0.275128 7.2077e-20)
(-0.0421492 0.27781 -3.5922e-20)
(-0.0395249 0.279849 -3.59505e-20)
(-0.0366997 0.281271 -9.54914e-23)
(-0.0336895 0.282107 1.42878e-19)
(-0.0305132 0.282392 -1.06817e-19)
(-0.0271934 0.282169 0)
(-0.0237568 0.281483 -3.54382e-20)
(-0.0202332 0.280389 -7.05392e-20)
(-0.0166503 0.278939 3.49354e-20)
(-0.0130994 0.277237 3.48491e-20)
(-0.00972505 0.275417 0)
(-0.000635234 0.00218619 -5.43711e-20)
(-0.00314958 0.0095094 -7.4017e-21)
(-0.00694763 0.0193647 6.05803e-20)
(-0.011311 0.0307516 -6.18616e-20)
(-0.0159751 0.043038 0)
(-0.0207231 0.0558349 0)
(-0.0254085 0.0688756 -1.62894e-20)
(-0.0299267 0.081976 -1.19121e-23)
(-0.0342054 0.0950109 1.67105e-20)
(-0.0381947 0.107894 0)
(-0.0418617 0.120565 0)
(-0.0451861 0.132979 -1.72097e-20)
(-0.0481554 0.145097 2.96604e-23)
(-0.0507624 0.156884 1.74976e-20)
(-0.0530041 0.168307 3.51779e-20)
(-0.0548812 0.179328 0)
(-0.0563966 0.189912 3.55696e-20)
(-0.0575552 0.200021 -3.55857e-20)
(-0.058364 0.209617 -7.15738e-20)
(-0.0588308 0.218664 7.17685e-20)
(-0.0589635 0.22713 9.61376e-23)
(-0.0587708 0.234986 -3.597e-20)
(-0.0582617 0.242207 3.61069e-20)
(-0.0574456 0.248774 -7.21281e-20)
(-0.0563323 0.254671 0)
(-0.0549316 0.259889 3.6123e-20)
(-0.0532536 0.264426 -7.20959e-20)
(-0.051309 0.268285 3.59596e-20)
(-0.0491081 0.271474 -3.59935e-20)
(-0.0466623 0.274008 -3.59334e-20)
(-0.0439838 0.275907 -3.59413e-20)
(-0.0410867 0.277199 1.42858e-19)
(-0.0379872 0.277916 -1.06804e-19)
(-0.0347047 0.278096 -7.10687e-20)
(-0.031263 0.277786 7.0662e-20)
(-0.0276909 0.277036 0)
(-0.0240213 0.275906 7.02391e-20)
(-0.0202852 0.274456 -6.97994e-20)
(-0.0165783 0.272798 -3.4849e-20)
(-0.0130572 0.271073 0)
(-0.000739352 0.00242324 1.15512e-19)
(-0.00348766 0.0100354 5.17627e-20)
(-0.00754705 0.020052 -6.05799e-20)
(-0.0121757 0.0315091 5.41295e-20)
(-0.0170994 0.043797 -7.88161e-21)
(-0.0220963 0.0565432 1.60295e-20)
(-0.027018 0.0694928 0)
(-0.0317593 0.0824698 -1.65161e-20)
(-0.036248 0.0953551 1.67086e-20)
(-0.0404347 0.108067 1.69123e-20)
(-0.0442873 0.12055 -1.70604e-20)
(-0.047786 0.132761 -1.72365e-20)
(-0.0509185 0.144667 1.73447e-20)
(-0.0536776 0.156234 0)
(-0.0560602 0.167432 0)
(-0.0580672 0.178226 -3.53981e-20)
(-0.0597008 0.188583 3.54819e-20)
(-0.0609661 0.198467 -3.57015e-20)
(-0.0618697 0.207842 3.57308e-20)
(-0.062419 0.216673 3.59129e-20)
(-0.0626212 0.22493 -7.18806e-20)
(-0.0624844 0.232583 7.19848e-20)
(-0.0620174 0.239608 9.22001e-23)
(-0.0612294 0.245985 -3.59942e-20)
(-0.0601294 0.251701 0)
(-0.0587269 0.256745 3.60665e-20)
(-0.0570317 0.261115 9.04716e-23)
(-0.0550536 0.264813 -3.58955e-20)
(-0.0528028 0.267848 0)
(-0.0502898 0.270234 7.16869e-20)
(-0.0475268 0.271994 -7.13455e-20)
(-0.0445275 0.273155 0)
(-0.0413085 0.273751 7.10709e-20)
(-0.0378895 0.273824 -7.06792e-20)
(-0.0342952 0.273423 0)
(-0.0305563 0.272606 0)
(-0.026709 0.271438 0)
(-0.022788 0.269988 -6.96066e-20)
(-0.0188917 0.268378 6.91604e-20)
(-0.0151925 0.266758 8.00901e-20)
(-0.000852211 0.00266024 -5.43514e-20)
(-0.0038388 0.0105581 -5.9162e-20)
(-0.00815135 0.0207306 -7.5682e-21)
(-0.0130295 0.0322521 2.31898e-20)
(-0.0181911 0.0445364 -3.15128e-20)
(-0.0234111 0.057228 3.20585e-20)
(-0.0285397 0.0700837 -3.25589e-20)
(-0.0334718 0.0829361 -4.95215e-20)
(-0.0381361 0.0956719 0)
(-0.0424843 0.108214 -1.69113e-20)
(-0.0464855 0.120511 1.70594e-20)
(-0.0501203 0.132523 0)
(-0.0533772 0.144218 3.4747e-20)
(-0.0562493 0.155569 -3.49272e-20)
(-0.0587337 0.166545 -1.05544e-19)
(-0.0608309 0.177117 -7.33016e-23)
(-0.0625436 0.187251 7.10308e-20)
(-0.0638766 0.196915 -3.56099e-20)
(-0.0648363 0.206073 0)
(-0.0654295 0.214692 0)
(-0.065663 0.222743 7.18199e-20)
(-0.0655446 0.230198 3.60096e-20)
(-0.0650827 0.237032 -3.59506e-20)
(-0.064286 0.243226 -3.60451e-20)
(-0.0631633 0.248764 7.19872e-20)
(-0.0617234 0.253639 -3.59265e-20)
(-0.0599757 0.257845 7.19377e-20)
(-0.0579296 0.261386 -1.43487e-19)
(-0.0555945 0.26427 1.43204e-19)
(-0.0529805 0.266512 -1.42866e-19)
(-0.0500994 0.268133 1.42475e-19)
(-0.0469648 0.269163 -1.42035e-19)
(-0.043593 0.269637 7.07099e-20)
(-0.0400041 0.269601 7.05686e-20)
(-0.0362236 0.269107 1.12474e-22)
(-0.0322839 0.268219 1.04055e-22)
(-0.0282245 0.26701 -6.95389e-20)
(-0.0240839 0.26556 1.96651e-22)
(-0.0199619 0.264 -6.88436e-20)
(-0.0160505 0.262494 0)
(-0.000973411 0.00289499 6.79017e-21)
(-0.00420201 0.0110718 -7.39028e-21)
(-0.00875915 0.021393 2.26988e-20)
(-0.013871 0.0329719 -3.09106e-20)
(-0.0192487 0.0452463 1.57505e-20)
(-0.0246654 0.0578786 0)
(-0.0299709 0.0706375 0)
(-0.0350612 0.0833641 6.60223e-20)
(-0.0398662 0.0959507 8.35629e-20)
(-0.0443393 0.108325 -1.68904e-20)
(-0.0484509 0.120438 8.53559e-20)
(-0.0521828 0.132254 -1.7209e-20)
(-0.0555241 0.143744 0)
(-0.0584686 0.154883 0)
(-0.0610139 0.165643 7.03377e-20)
(-0.0631605 0.175997 0)
(-0.0649111 0.185914 3.54643e-20)
(-0.0662709 0.195363 -3.56726e-20)
(-0.0672458 0.20431 0)
(-0.0678423 0.212724 -7.16585e-20)
(-0.0680667 0.220576 -3.58795e-20)
(-0.0679266 0.227838 -1.07758e-19)
(-0.06743 0.234488 -3.60022e-20)
(-0.0665852 0.240504 3.5925e-20)
(-0.0654007 0.245872 7.18554e-20)
(-0.0638849 0.250583 0)
(-0.0620465 0.254632 7.16788e-20)
(-0.0598944 0.258022 1.43221e-19)
(-0.0574376 0.26076 1.36439e-22)
(-0.0546858 0.262862 -7.1198e-20)
(-0.0516502 0.264348 -7.11118e-20)
(-0.0483439 0.265249 7.07539e-20)
(-0.0447833 0.265602 7.06059e-20)
(-0.0409886 0.265455 -1.40535e-19)
(-0.0369857 0.264867 1.39926e-19)
(-0.0328087 0.263905 -6.97729e-20)
(-0.0285007 0.262652 6.92556e-20)
(-0.0241039 0.261198 1.37873e-19)
(-0.0197179 0.259691 6.83982e-20)
(-0.015558 0.258308 7.88734e-20)
(-0.00110236 0.00312519 -5.42806e-20)
(-0.00457605 0.0115716 5.17067e-20)
(-0.00936898 0.0220322 -4.53657e-20)
(-0.0146983 0.0336597 4.63341e-20)
(-0.0202703 0.045917 7.87208e-20)
(-0.0258572 0.0584846 -6.40734e-20)
(-0.0313097 0.0711433 8.13584e-20)
(-0.0365251 0.0837426 4.95032e-20)
(-0.0414354 0.0961803 -1.16955e-19)
(-0.0459961 0.108388 3.37902e-20)
(-0.0501793 0.120321 1.70521e-20)
(-0.0539682 0.131945 3.44695e-20)
(-0.0573531 0.143235 3.47407e-20)
(-0.0603285 0.154168 -6.99072e-20)
(-0.0628923 0.164718 7.03267e-20)
(-0.0650457 0.174861 1.06072e-19)
(-0.0667918 0.184568 -1.06477e-19)
(-0.0681355 0.193809 1.42534e-19)
(-0.0690828 0.202553 7.14679e-20)
(-0.0696397 0.210769 1.07518e-19)
(-0.0698124 0.21843 3.58986e-20)
(-0.0696081 0.225508 7.18571e-20)
(-0.0690344 0.231981 -7.18328e-20)
(-0.0680996 0.237828 0)
(-0.0668114 0.243034 -2.15503e-19)
(-0.0651781 0.24759 1.43461e-19)
(-0.0632079 0.25149 -7.15467e-20)
(-0.0609092 0.254737 -7.14165e-20)
(-0.0582905 0.257337 -1.42231e-23)
(-0.0553609 0.259304 0)
(-0.0521314 0.260661 0)
(-0.0486147 0.261438 7.0508e-20)
(-0.0448269 0.261673 -7.03742e-20)
(-0.0407882 0.261417 6.99863e-20)
(-0.0365248 0.260732 -6.97427e-20)
(-0.0320724 0.259693 -6.94011e-20)
(-0.0274776 0.258391 0)
(-0.0227867 0.25693 -6.8604e-20)
(-0.0180972 0.255477 -6.83548e-20)
(-0.0136516 0.254224 -2.35911e-19)
(-0.00123838 0.00334873 5.42858e-20)
(-0.00495953 0.0120526 -5.17025e-20)
(-0.00997925 0.0226411 6.0494e-20)
(-0.0155101 0.034307 -1.08098e-19)
(-0.0212543 0.0465389 -7.8715e-20)
(-0.026985 0.0590355 6.40732e-20)
(-0.0325542 0.0715901 -1.30143e-19)
(-0.0378616 0.0840601 -6.59978e-20)
(-0.0428416 0.0963492 8.35478e-20)
(-0.0474524 0.108393 -1.52051e-19)
(-0.0516679 0.120149 -1.02428e-19)
(-0.0554732 0.131586 -3.44631e-20)
(-0.0588597 0.142682 -1.04169e-19)
(-0.0618233 0.153416 1.04829e-19)
(-0.0643624 0.163764 -7.03264e-20)
(-0.0664789 0.173704 -7.06892e-20)
(-0.0681762 0.183209 0)
(-0.0694595 0.19225 -7.12583e-20)
(-0.0703345 0.200799 -1.07232e-19)
(-0.0708072 0.208827 3.57694e-20)
(-0.0708834 0.216305 -7.17397e-20)
(-0.0705701 0.223209 0)
(-0.0698748 0.229515 7.18323e-20)
(-0.0688053 0.235203 7.18464e-20)
(-0.0673692 0.240258 -7.15725e-20)
(-0.0655743 0.244669 0)
(-0.0634285 0.248431 0)
(-0.0609398 0.251544 0)
(-0.0581161 0.254015 -1.49903e-22)
(-0.0549665 0.255858 0)
(-0.0515013 0.257094 -1.41307e-19)
(-0.0477332 0.257753 -1.42991e-22)
(-0.0436777 0.257875 -1.40144e-19)
(-0.039355 0.257513 1.39578e-19)
(-0.0347918 0.256732 -6.94215e-20)
(-0.0300248 0.255615 6.92281e-20)
(-0.0251045 0.25426 0)
(-0.0200812 0.252788 1.36809e-19)
(-0.0150487 0.251385 -6.78979e-20)
(-0.0102798 0.250268 0)
(-0.00138075 0.00356369 6.77986e-21)
(-0.005351 0.0125103 0)
(-0.0105883 0.0232133 -7.55482e-20)
(-0.0163045 0.034906 9.26338e-20)
(-0.0221993 0.0471028 4.71953e-20)
(-0.0280475 0.0595213 -6.40319e-20)
(-0.0337034 0.0719669 6.50625e-20)
(-0.0390698 0.0843054 -6.59659e-20)
(-0.0440839 0.0964457 0)
(-0.0487069 0.108327 6.7578e-20)
(-0.0529151 0.11991 -6.82546e-20)
(-0.0566956 0.131166 6.26276e-24)
(-0.0600414 0.142075 0)
(-0.0629496 0.152616 6.98965e-20)
(-0.0654199 0.162771 -3.51222e-20)
(-0.0674546 0.172516 7.07392e-20)
(-0.0690578 0.181828 3.55189e-20)
(-0.0702349 0.19068 -7.12243e-20)
(-0.0709915 0.199045 0)
(-0.0713334 0.206894 1.0739e-19)
(-0.0712667 0.214202 3.58539e-20)
(-0.0707979 0.220942 0)
(-0.0699344 0.227093 0)
(-0.0686836 0.232633 0)
(-0.0670531 0.237548 7.16802e-20)
(-0.0650503 0.241827 0)
(-0.0626828 0.245463 -7.14323e-20)
(-0.0599583 0.248455 1.42411e-19)
(-0.0568846 0.25081 -1.42027e-19)
(-0.0534704 0.25254 0)
(-0.0497259 0.253666 7.05861e-20)
(-0.0456635 0.254217 -7.01044e-20)
(-0.0412984 0.254234 6.99995e-20)
(-0.0366509 0.25377 0)
(-0.0317475 0.252896 0)
(-0.0266266 0.2517 6.88332e-20)
(-0.0213421 0.250289 -6.84135e-20)
(-0.0159488 0.2488 1.36048e-19)
(-0.0105348 0.247447 -1.35176e-19)
(-0.00540619 0.246469 0)
(-0.00152867 0.00376834 4.74159e-20)
(-0.00574895 0.0129406 1.47578e-20)
(-0.0111946 0.023743 6.04355e-20)
(-0.0170802 0.035449 6.17014e-20)
(-0.023104 0.0476 -6.29288e-20)
(-0.0290436 0.059932 6.40318e-20)
(-0.0347566 0.072263 6.5021e-20)
(-0.0401491 0.084467 6.59658e-20)
(-0.0451619 0.096458 0)
(-0.0497594 0.108179 6.75542e-20)
(-0.0539207 0.119593 6.82544e-20)
(-0.0576349 0.130673 6.88701e-20)
(-0.0608972 0.141401 0)
(-0.0637062 0.151759 -6.9066e-24)
(-0.0660627 0.161728 7.03131e-20)
(-0.06797 0.171289 -3.53047e-20)
(-0.0694329 0.180419 -3.54635e-20)
(-0.0704569 0.189092 1.06865e-19)
(-0.0710478 0.197284 6.65853e-23)
(-0.0712115 0.204966 -3.57734e-20)
(-0.0709538 0.212115 -7.16595e-20)
(-0.0702814 0.218704 0)
(-0.0692015 0.224712 0)
(-0.0677214 0.230119 0)
(-0.0658483 0.234908 0)
(-0.0635895 0.239068 0)
(-0.0609526 0.242591 0)
(-0.0579449 0.245478 7.11102e-20)
(-0.0545744 0.247731 -7.08146e-20)
(-0.0508498 0.249363 0)
(-0.046781 0.250392 0)
(-0.0423803 0.250848 7.01035e-20)
(-0.037663 0.25077 0)
(-0.0326492 0.250215 6.93313e-20)
(-0.0273657 0.249253 -6.89345e-20)
(-0.0218519 0.247979 0)
(-0.0161656 0.246511 1.36285e-19)
(-0.0103661 0.245 -1.35432e-19)
(-0.00453433 0.24369 0)
(0.000988581 0.242853 0)
(-0.00168135 0.00396124 -5.41868e-20)
(-0.00615182 0.01334 -1.4743e-20)
(-0.0117965 0.0242249 1.50964e-20)
(-0.0178357 0.0359295 -6.17014e-20)
(-0.0239673 0.0480224 0)
(-0.0299727 0.0602584 0)
(-0.0357135 0.072468 -4.87609e-20)
(-0.0410997 0.0845335 -1.64762e-20)
(-0.0460762 0.0963739 -3.34122e-20)
(-0.0506108 0.107936 -3.38028e-20)
(-0.0546856 0.119183 -3.41461e-20)
(-0.0582924 0.130094 3.44011e-20)
(-0.0614284 0.140648 3.46677e-20)
(-0.064094 0.150831 -3.49767e-20)
(-0.0662917 0.160625 0)
(-0.0680256 0.170012 0)
(-0.0693013 0.17897 -7.0961e-20)
(-0.0701247 0.187476 0)
(-0.0705018 0.195507 0)
(-0.0704387 0.203036 7.15429e-20)
(-0.0699413 0.210039 1.14848e-22)
(-0.0690163 0.216491 3.1002e-23)
(-0.0676708 0.22237 -7.16677e-20)
(-0.0659121 0.227657 7.1514e-20)
(-0.0637472 0.232335 7.14231e-20)
(-0.0611834 0.236391 -7.12792e-20)
(-0.0582282 0.23982 0)
(-0.0548893 0.242616 7.09711e-20)
(-0.0511745 0.244784 4.87136e-23)
(-0.0470927 0.246334 -7.04085e-20)
(-0.0426541 0.247283 0)
(-0.037871 0.247659 0)
(-0.0327589 0.247503 6.9465e-20)
(-0.0273378 0.246867 -6.90821e-20)
(-0.0216351 0.245827 -6.86969e-20)
(-0.0156908 0.244481 6.82903e-20)
(-0.00956692 0.242955 0)
(-0.00332751 0.241417 0)
(0.002955 0.240147 0)
(0.00890388 0.239449 -7.62265e-20)
(-0.00183803 0.00414123 6.76358e-20)
(-0.00655814 0.0137055 -2.94712e-20)
(-0.0123926 0.0246543 1.50866e-20)
(-0.0185696 0.0363413 0)
(-0.0247884 0.0483626 7.85583e-20)
(-0.0308345 0.0604919 1.15117e-23)
(-0.0365744 0.0725722 6.49843e-20)
(-0.0419226 0.084494 -4.94464e-20)
(-0.0468283 0.0961816 6.67639e-20)
(-0.051263 0.107584 -3.37421e-20)
(-0.0552123 0.11867 0)
(-0.0586707 0.129415 3.44515e-20)
(-0.0616379 0.139802 -1.04068e-19)
(-0.0641164 0.149818 0)
(-0.0661101 0.159447 1.05462e-19)
(-0.0676246 0.16867 -7.05746e-20)
(-0.0686661 0.177469 -7.09383e-20)
(-0.0692412 0.185821 3.55563e-20)
(-0.0693563 0.193704 0)
(-0.0690175 0.201093 -7.14996e-20)
(-0.0682313 0.207963 -7.16081e-20)
(-0.0670043 0.214293 -7.64384e-23)
(-0.0653438 0.220058 7.15281e-20)
(-0.0632568 0.225241 7.15286e-20)
(-0.0607506 0.229824 -1.42764e-19)
(-0.0578325 0.233795 7.12784e-20)
(-0.0545103 0.237144 0)
(-0.0507918 0.239869 -7.07523e-20)
(-0.0466853 0.241971 7.04868e-20)
(-0.0422 0.243457 7.01908e-20)
(-0.0373466 0.244346 -6.9867e-20)
(-0.0321377 0.244662 6.95176e-20)
(-0.0265891 0.244443 0)
(-0.0207213 0.243744 6.88551e-20)
(-0.0145619 0.242638 1.36765e-19)
(-0.00815213 0.241228 -1.3608e-19)
(-0.0015576 0.239648 1.35145e-19)
(0.00515198 0.238081 -6.12905e-23)
(0.0119142 0.236844 -6.68489e-20)
(0.018317 0.236283 1.51688e-19)
(-0.00199797 0.00430746 -4.05898e-20)
(-0.00696645 0.0140347 -8.83174e-20)
(-0.0129813 0.0250275 6.02828e-20)
(-0.019281 0.0366793 -4.61923e-20)
(-0.0255665 0.048614 -1.57466e-20)
(-0.0316289 0.0606242 1.59783e-20)
(-0.0373398 0.072566 -3.24748e-20)
(-0.042619 0.0843379 -3.29268e-20)
(-0.0474202 0.0958694 3.33931e-20)
(-0.0517189 0.107113 -6.75137e-20)
(-0.0555044 0.118038 -5.46507e-23)
(-0.0587743 0.128622 3.4387e-20)
(-0.0615309 0.13885 0)
(-0.0637788 0.148707 -3.49627e-20)
(-0.065524 0.15818 -3.51765e-20)
(-0.0667735 0.167251 7.06376e-20)
(-0.0675343 0.175902 0)
(-0.0678137 0.184113 0)
(-0.0676186 0.191861 7.13839e-20)
(-0.0669558 0.199123 -7.13932e-20)
(-0.065832 0.205877 0)
(-0.064254 0.212098 7.15722e-20)
(-0.0622292 0.217766 -7.14478e-20)
(-0.059765 0.222861 -1.42831e-19)
(-0.0568686 0.227366 -5.83731e-23)
(-0.0535477 0.231269 7.11736e-20)
(-0.0498104 0.234558 -1.41779e-19)
(-0.0456651 0.237231 7.07513e-20)
(-0.0411207 0.239286 -7.04858e-20)
(-0.0361871 0.240731 -7.76022e-23)
(-0.0308754 0.241579 8.78463e-23)
(-0.0251991 0.241856 -6.95165e-20)
(-0.0191747 0.241597 -6.89403e-20)
(-0.0128231 0.240853 -6.85303e-20)
(-0.00617255 0.2397 -2.34084e-22)
(0.000734699 0.238239 0)
(0.00782915 0.236611 -6.71912e-20)
(0.0150351 0.235016 1.33662e-19)
(0.0223009 0.233808 -1.99331e-19)
(0.0291812 0.23338 -1.94417e-22)
(-0.0021605 0.00445931 -1.35104e-20)
(-0.00737542 0.0143258 1.17689e-19)
(-0.0135614 0.0253412 -6.02854e-20)
(-0.0199687 0.0369389 4.61967e-20)
(-0.0263012 0.0487707 -1.25579e-19)
(-0.032356 0.0606484 1.59693e-20)
(-0.0380108 0.072441 -6.49075e-20)
(-0.0431907 0.0840553 0)
(-0.0478546 0.0954261 0)
(-0.0519822 0.106509 -6.74781e-20)
(-0.0555667 0.117274 3.41234e-20)
(-0.0586088 0.127701 -1.01279e-23)
(-0.0611139 0.137775 3.46534e-20)
(-0.063089 0.147482 0)
(-0.064542 0.156808 -1.05421e-19)
(-0.0654817 0.165738 3.52768e-20)
(-0.0659161 0.174253 -7.08934e-20)
(-0.0658534 0.182335 0)
(-0.0653012 0.189963 0)
(-0.0642668 0.197113 6.56184e-23)
(-0.0627575 0.203764 -7.14237e-20)
(-0.0607807 0.209894 7.14524e-20)
(-0.0583438 0.21548 -7.14675e-20)
(-0.0554546 0.220504 7.13141e-20)
(-0.0521207 0.224949 6.13058e-23)
(-0.0483502 0.228801 6.80878e-23)
(-0.0441519 0.23205 7.08716e-20)
(-0.0395349 0.23469 -7.05013e-20)
(-0.0345088 0.23672 0)
(-0.0290843 0.238145 -6.99485e-20)
(-0.0232739 0.238977 6.96151e-20)
(-0.0170918 0.239238 0)
(-0.0105555 0.238961 6.89391e-20)
(-0.00368673 0.238196 -6.82676e-20)
(0.00348548 0.237016 6.79137e-20)
(0.0109178 0.235522 0)
(0.0185369 0.233858 2.0125e-19)
(0.0262605 0.232239 -1.3322e-19)
(0.0340484 0.231057 0)
(0.0414246 0.230759 7.48688e-20)
(-0.00232502 0.00459643 1.07939e-19)
(-0.00778381 0.0145775 -5.88211e-20)
(-0.0141316 0.0255933 -1.50571e-20)
(-0.0206319 0.0371168 1.538e-20)
(-0.026992 0.048828 6.27653e-20)
(-0.0330161 0.0605581 0)
(-0.0385883 0.0721895 6.49076e-20)
(-0.0436399 0.0836372 9.86904e-20)
(-0.0481347 0.0948412 3.33213e-20)
(-0.0520573 0.10576 3.37176e-20)
(-0.0554045 0.116366 3.4056e-20)
(-0.0581811 0.126638 -1.03233e-19)
(-0.0603951 0.136563 3.46443e-20)
(-0.0620564 0.146127 1.3965e-19)
(-0.0631751 0.155315 3.51023e-20)
(-0.0637616 0.164113 3.52684e-20)
(-0.0638255 0.172505 7.0893e-20)
(-0.0633757 0.180471 0)
(-0.0624209 0.187991 0)
(-0.0609692 0.195044 1.42813e-19)
(-0.0590285 0.201607 -2.85657e-19)