/*--------------------------------*- C++ -*----------------------------------*\
  =========                 |
  \\      /  F ield         | OpenFOAM: The Open Source CFD Toolbox
   \\    /   O peration     | Website:  https://openfoam.org
    \\  /    A nd           | Version:  7
     \\/     M anipulation  |
\*---------------------------------------------------------------------------*/
FoamFile
{
    version     2.0;
    format      ascii;
    class       volVectorField;
    location    "79.3";
    object      U;
}
// * * * * * * * * * * * * * * * * * * * * * * * * * * * * * * * * * * * * * //

dimensions      [0 1 -1 0 0 0 0];

internalField   nonuniform List<vector> 
2000
(
(-0.000144624 -0.00568894 -2.46989e-22)
(-3.58666e-06 -0.0131702 0)
(0.00062112 -0.0172215 0)
(0.00168121 -0.0183551 -1.26625e-21)
(0.00312435 -0.0168881 4.11032e-22)
(0.00492241 -0.013027 1.56913e-23)
(0.00706725 -0.00692696 -7.07343e-22)
(0.00954614 0.00125865 0)
(0.0123193 0.0113388 0)
(0.0152353 0.0230618 0)
(0.000375006 -0.00550132 0)
(0.00142471 -0.0132108 -9.65886e-22)
(0.00280741 -0.0175747 8.90739e-22)
(0.00434152 -0.0190713 1.69141e-21)
(0.00598917 -0.0180239 0)
(0.00774182 -0.0146564 1.54464e-21)
(0.00961865 -0.00912696 -1.4364e-21)
(0.0116435 -0.00156472 0)
(0.0138276 0.00789631 2.63141e-21)
(0.0160371 0.0190865 -5.06463e-21)
(0.000938152 -0.00538997 0)
(0.00307778 -0.0133323 7.71531e-21)
(0.00543776 -0.0179456 0)
(0.00765304 -0.0197252 6.89807e-21)
(0.00969752 -0.0190172 0)
(0.01158 -0.016077 -6.21918e-21)
(0.0133446 -0.0110789 0)
(0.0150486 -0.00413897 5.62792e-21)
(0.0167566 0.00466066 -5.27088e-21)
(0.0183482 0.0152287 -5.15578e-21)
(0.0015806 -0.00538471 -2.00787e-21)
(0.00500665 -0.0135676 -3.85091e-21)
(0.00855149 -0.018349 -1.80429e-21)
(0.0116392 -0.0203067 -3.3881e-21)
(0.014258 -0.0198267 -3.24203e-21)
(0.0164378 -0.0172088 3.06079e-21)
(0.0182486 -0.0126567 2.9368e-21)
(0.0197794 -0.0062878 -2.36264e-23)
(0.0211478 0.00185771 5.32262e-21)
(0.0222474 0.0117542 5.15362e-21)
(0.00234344 -0.00550635 -1.97529e-21)
(0.00726295 -0.0139354 -3.9302e-21)
(0.0121758 -0.0187883 -7.46276e-21)
(0.0162929 -0.0208037 3.43389e-21)
(0.0196285 -0.0204225 0)
(0.0222435 -0.0179987 0)
(0.0242405 -0.0137761 -6.02816e-21)
(0.0257411 -0.00788675 -5.71345e-21)
(0.0269142 -0.000341738 5.39035e-21)
(0.0276731 0.00888062 1.5522e-20)
(0.00327107 -0.00576222 2.0061e-21)
(0.009892 -0.0144303 2.03901e-21)
(0.0163158 -0.019251 -1.10645e-20)
(0.0215667 -0.0212012 1.75849e-20)
(0.0257054 -0.02079 -3.27888e-21)
(0.0288403 -0.0184312 0)
(0.0311183 -0.0144142 0)
(0.0326997 -0.00889573 2.8473e-20)
(0.0338024 -0.00186901 -2.69114e-20)
(0.0343685 0.00671698 5.10484e-21)
(0.00440548 -0.00614109 1.56381e-20)
(0.0129245 -0.0150219 0)
(0.0209462 -0.0197068 1.4789e-20)
(0.0273663 -0.0214806 -1.40355e-20)
(0.0323201 -0.0209303 0)
(0.0359852 -0.0185304 6.38176e-21)
(0.0385688 -0.0146173 -1.78938e-20)
(0.0402806 -0.00937623 -2.27503e-20)
(0.0413876 -0.00278991 1.06741e-20)
(0.0418665 0.00521521 1.03308e-20)
(0.00578011 -0.00661256 -3.12538e-20)
(0.0163675 -0.0156545 -3.97656e-21)
(0.0260047 -0.0201083 -7.48813e-21)
(0.0335491 -0.0216194 -1.76257e-20)
(0.0392447 -0.0208579 -6.75145e-21)
(0.0433633 -0.0183558 -6.37227e-21)
(0.0461909 -0.0144922 5.4751e-23)
(0.0480005 -0.00948291 0)
(0.0491129 -0.00330285 0)
(0.0495421 0.0041585 6.42156e-23)
(0.00741384 -0.00712869 1.5616e-20)
(0.0201957 -0.0162506 -1.58299e-20)
(0.0313876 -0.0203949 1.1138e-20)
(0.0399266 -0.021594 2.48087e-20)
(0.0462057 -0.0205995 -6.61886e-21)
(0.0506169 -0.0179915 6.37521e-21)
(0.0535409 -0.0141837 6.00513e-21)
(0.0553255 -0.00942214 0)
(0.0563576 -0.00367975 0)
(0.0567041 0.003209 -2.53566e-22)
(0.00930626 -0.00762866 -1.96046e-21)
(0.0243455 -0.0167187 1.98622e-20)
(0.0369484 -0.0205012 -3.71594e-21)
(0.0462738 -0.0213856 0)
(0.0529069 -0.0201942 0)
(0.0573866 -0.0175379 1.26002e-20)
(0.0602 -0.0138491 0)
(0.0617723 -0.00939799 -1.10417e-20)
(0.0625544 -0.0041802 2.26419e-23)
(0.0626962 0.00198284 9.87409e-21)
(0.0214955 0.0522054 1.94355e-22)
(0.0352324 0.114268 -1.96574e-22)
(0.0425658 0.174379 -2.23291e-22)
(0.0430198 0.229297 -2.53351e-22)
(0.0380801 0.284479 -3.10416e-22)
(0.0337416 0.343672 -1.09751e-23)
(0.0221062 0.410242 1.63237e-22)
(0.0190082 0.49609 5.83152e-22)
(-0.000892273 0.622864 0)
(0.00575019 0.775185 -4.2666e-22)
(0.0201558 0.0473994 7.47836e-22)
(0.0320717 0.109294 -8.46808e-22)
(0.0398413 0.171906 1.51448e-21)
(0.0408011 0.228753 2.53772e-22)
(0.0363058 0.285067 5.4832e-22)
(0.0323115 0.345 9.43612e-22)
(0.0211883 0.412105 -3.53034e-22)
(0.0182163 0.498357 -3.91177e-22)
(-0.000838295 0.624638 7.62563e-22)
(0.00532854 0.775499 4.25651e-22)
(0.0202957 0.0424046 0)
(0.0295416 0.10327 -8.15237e-22)
(0.037487 0.168221 -4.38801e-22)
(0.0388662 0.22714 0)
(0.0347606 0.284712 -1.68815e-21)
(0.0310848 0.345478 5.27142e-22)
(0.0204132 0.41317 5.93167e-22)
(0.0175248 0.499826 2.10771e-21)
(-0.000747879 0.625958 -7.60093e-22)
(0.00495136 0.775627 1.53509e-21)
(0.0221153 0.0375046 0)
(0.0277643 0.0964036 8.22082e-22)
(0.0355078 0.163334 0)
(0.0371995 0.224439 1.96185e-21)
(0.0334286 0.283409 -1.97203e-21)
(0.0300442 0.3451 -1.19974e-21)
(0.0197673 0.413401 -7.37289e-23)
(0.0169423 0.500428 -2.06106e-21)
(-0.000622856 0.626565 -3.37193e-22)
(0.00459762 0.775381 -1.88789e-21)
(0.0256967 0.0329707 3.63176e-23)
(0.0269072 0.0889872 -2.35034e-21)
(0.0339165 0.157297 8.01026e-23)
(0.0357868 0.220642 -1.74823e-21)
(0.0322922 0.281162 0)
(0.0291689 0.34391 -1.146e-21)
(0.019231 0.412913 -9.77134e-23)
(0.0164468 0.500424 2.58966e-21)
(-0.000489287 0.626866 3.42506e-22)
(0.00427016 0.775087 -3.43756e-22)
(0.030903 0.0290041 -6.36333e-21)
(0.0271491 0.0813774 4.02383e-21)
(0.0327416 0.150214 1.70999e-21)
(0.0346175 0.215766 -1.70916e-21)
(0.0313378 0.277959 -9.35007e-22)
(0.0284488 0.34184 0)
(0.0188059 0.411537 -2.29345e-21)
(0.0160546 0.499424 1.14593e-21)
(-0.000329431 0.626181 1.25305e-21)
(0.00394874 0.774307 1.3062e-21)
(0.0373057 0.0256998 -7.64253e-22)
(0.0286 0.073956 0)
(0.0320284 0.142259 0)
(0.033682 0.209849 0)
(0.0305428 0.273887 -9.96735e-22)
(0.0278577 0.339141 1.92877e-21)
(0.0184576 0.409759 2.23558e-21)
(0.0157059 0.498302 -3.48417e-21)
(-0.00019692 0.625742 6.16405e-22)
(0.00365564 0.773768 -1.90415e-21)
(0.044173 0.0230076 4.79528e-21)
(0.031173 0.0669747 3.27172e-21)
(0.0318135 0.133682 -3.24201e-21)
(0.0329834 0.202932 3.46773e-21)
(0.0299053 0.268705 -4.30745e-21)
(0.027404 0.335233 0)
(0.018226 0.406594 -1.00523e-21)
(0.0154874 0.495479 5.09558e-23)
(-1.15047e-05 0.623543 -1.1112e-21)
(0.00335126 0.772416 -1.17163e-21)
(0.0504795 0.0205326 -4.07034e-21)
(0.0344547 0.0600991 0)
(0.0320814 0.124369 -3.65181e-21)
(0.0324742 0.195307 6.59485e-21)
(0.0293884 0.263406 -2.4576e-21)
(0.0270261 0.331816 -4.53965e-22)
(0.0179975 0.404413 1.00306e-21)
(0.0152027 0.494201 9.92151e-24)
(6.20494e-05 0.623111 1.60562e-21)
(0.00308624 0.771891 1.70148e-21)
(0.054873 0.0180939 -3.28361e-21)
(0.0376711 0.0532538 3.20988e-21)
(0.0328468 0.113564 4.03708e-22)
(0.032244 0.184574 0)
(0.02898 0.254202 0)
(0.0268375 0.324255 4.45254e-22)
(0.0180202 0.397893 1.89116e-21)
(0.015241 0.488236 -1.83721e-21)
(0.000319431 0.618535 -4.96139e-22)
(0.00278282 0.769783 4.80061e-22)
(0.0569855 0.0197533 0)
(0.041744 0.0503269 0)
(0.0345402 0.10631 0)
(0.0326438 0.179355 0)
(0.0286154 0.25247 0)
(0.0256641 0.325139 0)
(0.0170467 0.400235 0)
(0.0140171 0.491842 0)
(-7.80859e-07 0.621429 0)
(0.00222023 0.769682 0)
(0.0586588 0.0374245 0)
(0.0449339 0.069682 0)
(0.034738 0.117817 0)
(0.0312251 0.184983 0)
(0.0273665 0.257044 0)
(0.0241893 0.330417 0)
(0.0161317 0.40698 0)
(0.0127363 0.500011 0)
(-2.25842e-06 0.628338 0)
(0.00171301 0.77097 0)
(0.0558989 0.0433955 0)
(0.0461879 0.0799903 0)
(0.0354767 0.12657 0)
(0.0301978 0.191021 0)
(0.0258925 0.262448 0)
(0.0224542 0.335781 0)
(0.0150305 0.412745 0)
(0.0115084 0.506024 0)
(-7.02134e-05 0.633024 0)
(0.00130368 0.771173 0)
(0.0509803 0.047178 0)
(0.0449088 0.088047 0)
(0.0353934 0.133988 0)
(0.0293953 0.196292 0)
(0.024838 0.267678 0)
(0.0211879 0.341919 0)
(0.0142425 0.420217 0)
(0.0106115 0.514467 0)
(0.000132022 0.639948 0)
(0.00105939 0.772505 0)
(0.0454314 0.0488966 0)
(0.0421123 0.0945061 0)
(0.0343129 0.141064 0)
(0.0283194 0.201286 0)
(0.0236472 0.271729 0)
(0.0198822 0.346031 0)
(0.0133785 0.424751 0)
(0.00971175 0.51915 0)
(9.00837e-05 0.643462 0)
(0.000790361 0.772403 0)
(0.0394675 0.0486919 0)
(0.0384307 0.0989659 0)
(0.0322739 0.147103 0)
(0.0268619 0.206366 0)
(0.0226385 0.276604 0)
(0.0190021 0.351742 0)
(0.012904 0.431853 0)
(0.00914856 0.527288 0)
(0.000364034 0.64999 0)
(0.00066014 0.773548 0)
(0.0333876 0.0467272 0)
(0.0345963 0.101859 0)
(0.0302429 0.152485 0)
(0.0252227 0.210708 0)
(0.0212154 0.279762 0)
(0.0178382 0.35463 0)
(0.0122291 0.434909 0)
(0.00852969 0.530332 0)
(0.000326878 0.652175 0)
(0.000488322 0.773192 0)
(0.0271506 0.0426654 0)
(0.0301989 0.10186 0)
(0.0276875 0.155862 0)
(0.0238151 0.215327 0)
(0.0203643 0.284845 0)
(0.0171738 0.360657 0)
(0.0119501 0.442347 0)
(0.00819483 0.538761 0)
(0.000695811 0.658768 0)
(0.000452061 0.774336 0)
(0.022258 0.0390602 0)
(0.0275965 0.1027 0)
(0.0263443 0.159184 0)
(0.0225949 0.217901 0)
(0.0192919 0.286528 0)
(0.016356 0.362127 0)
(0.0114753 0.443935 0)
(0.00781708 0.540226 0)
(0.000662683 0.659803 0)
(0.000363282 0.774003 0)
(0.0151834 0.0257566 0)
(0.0224082 0.0949648 0)
(0.0246002 0.159387 0)
(0.0225209 0.222417 0)
(0.0194185 0.292224 0)
(0.0163433 0.36898 0)
(0.0116184 0.452319 0)
(0.0077423 0.549642 0)
(0.00117808 0.666986 0)
(0.000399351 0.775332 0)
(0.0654796 0.00900168 2.86501e-21)
(0.0635518 0.0171898 -2.81672e-21)
(0.0578594 0.018968 2.41379e-22)
(0.0513806 0.0190338 0)
(0.0446472 0.0175226 0)
(0.0375501 0.0147292 6.98282e-23)
(0.0304085 0.0107428 -8.12147e-23)
(0.0233239 0.00521109 7.98143e-23)
(0.0170807 0.000167109 -1.44246e-23)
(0.00935203 -0.0117787 1.4174e-23)
(0.0668014 0.00457446 -3.80022e-21)
(0.0629916 0.00866336 0)
(0.0565155 0.00840711 1.35446e-21)
(0.0497803 0.00692698 -2.68534e-21)
(0.0429326 0.00418793 1.32466e-21)
(0.035756 0.000472113 -6.82919e-23)
(0.0285312 -0.00420573 6.02896e-23)
(0.0214424 -0.0101761 1.12965e-23)
(0.014851 -0.0156869 -2.29139e-23)
(0.00762997 -0.0266931 -2.53328e-23)
(0.0672268 -0.00013126 4.27859e-21)
(0.0619213 0.000326296 -1.96477e-21)
(0.0550035 -0.00189899 1.94588e-21)
(0.0480958 -0.00494273 -1.05788e-21)
(0.0411396 -0.00892156 8.30817e-22)
(0.0338911 -0.0135498 0)
(0.026595 -0.0188687 -6.04274e-23)
(0.0195201 -0.0251282 9.1844e-25)
(0.0127508 -0.0308663 9.54359e-24)
(0.0061181 -0.0405633 3.88013e-23)
(0.0668784 -0.00578387 -6.50057e-22)
(0.0603492 -0.00844276 0)
(0.0532361 -0.0123567 0)
(0.0462416 -0.0167757 0)
(0.0392342 -0.0218377 5.32276e-22)
(0.0319571 -0.0272309 -3.26872e-22)
(0.0246411 -0.0330382 2.4047e-23)
(0.0176013 -0.039397 9.04757e-24)
(0.010836 -0.0450958 8.84669e-24)
(0.00477799 -0.053323 1.64164e-23)
(0.0656629 -0.0124711 -4.58377e-22)
(0.058189 -0.0177171 -1.7324e-21)
(0.0510949 -0.023027 -6.91594e-22)
(0.0440939 -0.0285655 6.91099e-22)
(0.0371198 -0.034487 -2.02857e-22)
(0.0298858 -0.0404355 0)
(0.0226415 -0.046531 -6.01077e-23)
(0.0157153 -0.0527866 2.17955e-23)
(0.00912255 -0.0582027 -6.87665e-24)
(0.00366141 -0.0649506 -2.55281e-23)
(0.0636735 -0.0200565 -4.79361e-21)
(0.055558 -0.0273431 8.00102e-22)
(0.0486525 -0.0337922 2.05604e-22)
(0.0417153 -0.0401794 6.80516e-22)
(0.0348472 -0.0467271 0)
(0.027731 -0.0530067 0)
(0.0206408 -0.0591839 0)
(0.0139152 -0.0651531 2.54857e-23)
(0.00762679 -0.0701021 0)
(0.00276947 -0.0754646 0)
(0.0609933 -0.0283213 0)
(0.0525818 -0.037083 1.36143e-21)
(0.0459845 -0.0444636 -8.76433e-22)
(0.0391844 -0.0514373 -4.93139e-22)
(0.032489 -0.0583919 4.95671e-22)
(0.0255605 -0.0647924 1.00626e-22)
(0.018697 -0.0708672 -1.26412e-22)
(0.0122489 -0.0764086 -1.17458e-22)
(0.00635433 -0.0807792 9.34224e-24)
(0.00207572 -0.0849157 7.11276e-24)
(0.0577115 -0.0369963 0)
(0.0493654 -0.0466987 -4.85314e-22)
(0.0431663 -0.0548362 -1.95589e-22)
(0.0365686 -0.0621557 0)
(0.0301082 -0.0693266 6.58776e-23)
(0.0234319 -0.0756704 -2.4446e-22)
(0.0168569 -0.0814982 1.04363e-22)
(0.0107477 -0.0865233 3.61915e-24)
(0.00529611 -0.0902748 -7.62002e-24)
(0.00154788 -0.0933769 -7.60751e-24)
(0.0539584 -0.0458212 6.5196e-22)
(0.0459913 -0.0559813 4.40275e-22)
(0.0402606 -0.0647273 -1.49656e-22)
(0.0339304 -0.0721802 7.61148e-23)
(0.0277595 -0.0794122 1.06599e-22)
(0.0213927 -0.0855632 1.08114e-22)
(0.0151533 -0.0910459 -2.31771e-23)
(0.00942543 -0.0955195 -1.22112e-23)
(0.00443171 -0.0986685 7.64495e-24)
(0.0011537 -0.100933 4.11867e-25)
(0.0498714 -0.0545765 -1.36996e-22)
(0.0425354 -0.0647693 1.38223e-22)
(0.0373245 -0.0739961 -9.92514e-23)
(0.0313266 -0.0814037 -7.59992e-23)
(0.0254882 -0.0885777 4.75704e-23)
(0.0194782 -0.0944443 -8.55705e-23)
(0.0136049 -0.0995288 3.25667e-23)
(0.00828133 -0.103461 2.75678e-24)
(0.0037342 -0.106063 0)
(0.000863039 -0.107675 -4.12741e-25)
(0.0456084 -0.063091 1.40612e-22)
(0.0390834 -0.072959 -1.41812e-22)
(0.0344217 -0.0825532 -1.05073e-22)
(0.0288157 -0.0897748 -8.15284e-23)
(0.0233345 -0.0968027 -5.03046e-23)
(0.0177148 -0.102336 7.78354e-24)
(0.0122198 -0.107006 1.76431e-23)
(0.00730457 -0.110442 2.72282e-23)
(0.00317494 -0.112572 0)
(0.000649672 -0.11369 -2.20787e-24)
(0.0413334 -0.0712557 0)
(0.0357294 -0.080504 -4.75073e-22)
(0.0316167 -0.0903585 8.01873e-22)
(0.0264529 -0.0972946 8.16485e-23)
(0.021331 -0.104112 1.28372e-22)
(0.0161194 -0.1093 1.34873e-22)
(0.0109973 -0.113566 -2.81838e-23)
(0.00647857 -0.116569 -1.65633e-23)
(0.00272714 -0.118309 1.96041e-23)
(0.00049263 -0.119067 2.20261e-24)
(0.0371756 -0.0790216 0)
(0.032547 -0.0874127 -5.5221e-22)
(0.0289525 -0.0974146 -2.18531e-22)
(0.0242732 -0.104011 0)
(0.0194948 -0.110567 -3.54644e-22)
(0.0146952 -0.115428 1.35727e-22)
(0.00992865 -0.119315 8.21074e-23)
(0.00578342 -0.121959 1.35829e-22)
(0.00236738 -0.123384 -1.95402e-23)
(0.000375948 -0.123887 1.43776e-23)
(0.0332253 -0.0863865 0)
(0.0295846 -0.0937455 5.56787e-22)
(0.026451 -0.103759 0)
(0.0222907 -0.110008 6.40311e-22)
(0.0178289 -0.116254 -6.43633e-22)
(0.0134341 -0.120828 -1.70429e-22)
(0.00899911 -0.124367 3.75844e-23)
(0.00519828 -0.126724 -1.41747e-22)
(0.00207622 -0.127901 -2.6047e-23)
(0.000287692 -0.128232 -2.21599e-23)
(0.0295469 -0.0933788 5.75037e-21)
(0.0268805 -0.0996087 -2.15443e-21)
(0.0241265 -0.109457 -2.09753e-22)
(0.0205086 -0.115397 -8.66838e-22)
(0.016331 -0.12128 0)
(0.0123226 -0.12562 -1.82398e-22)
(0.0081931 -0.128838 6.02198e-23)
(0.00470403 -0.130977 2.14744e-22)
(0.00183856 -0.131956 8.78725e-24)
(0.000219314 -0.13218 -8.78006e-24)
(0.0261756 -0.100035 5.04128e-22)
(0.0244666 -0.105147 3.35468e-21)
(0.0219943 -0.114589 9.08038e-22)
(0.0189243 -0.120305 -9.07481e-22)
(0.0149993 -0.12576 -3.163e-22)
(0.0113471 -0.129922 0)
(0.00749694 -0.132843 -2.97718e-22)
(0.00428494 -0.134822 1.59381e-22)
(0.00164344 -0.135644 8.07725e-23)
(0.000164962 -0.135808 2.04091e-23)
(0.0231319 -0.106371 -8.0834e-22)
(0.0223846 -0.110538 0)
(0.0200868 -0.11925 0)
(0.0175395 -0.124858 0)
(0.0138388 -0.129815 -2.5077e-22)
(0.0104986 -0.133852 5.66435e-22)
(0.0069016 -0.136491 3.0666e-22)
(0.00392986 -0.138358 -3.6402e-22)
(0.00148371 -0.139052 2.08905e-23)
(0.000120701 -0.139194 -4.08899e-23)
(0.0204119 -0.112352 -1.87244e-21)
(0.0206522 -0.115973 2.49284e-21)
(0.0184289 -0.123541 -2.46931e-21)
(0.0163395 -0.129178 1.58175e-21)
(0.012847 -0.133562 -1.91886e-21)
(0.00976354 -0.137519 0)
(0.00639661 -0.139885 -1.86591e-22)
(0.00362848 -0.141677 -8.19264e-24)
(0.00135371 -0.142263 -6.93025e-23)
(8.33549e-05 -0.142413 -2.33194e-23)
(0.0177567 -0.117838 -8.77527e-22)
(0.0190194 -0.121634 0)
(0.0168937 -0.127576 -2.43586e-21)
(0.0151928 -0.133374 3.7806e-21)
(0.0119436 -0.137118 -1.29858e-21)
(0.00907954 -0.141024 -1.38904e-22)
(0.00594354 -0.143121 1.86166e-22)
(0.00335704 -0.144865 2.31036e-23)
(0.00124311 -0.145359 1.42699e-22)
(5.12071e-05 -0.145543 4.63991e-23)
(0.0151355 -0.122447 -3.54978e-21)
(0.0173709 -0.127688 3.47048e-21)
(0.0154936 -0.131514 3.14996e-22)
(0.014085 -0.137561 0)
(0.0111163 -0.140612 0)
(0.00844261 -0.144478 1.43013e-22)
(0.00553739 -0.1463 3.46557e-22)
(0.00311496 -0.148009 -3.40104e-22)
(0.00115277 -0.14842 -2.56952e-23)
(3.60351e-05 -0.148662 2.5147e-23)
(0.0149572 -0.129446 0)
(0.0176877 -0.142183 0)
(0.0152796 -0.140662 0)
(0.0136106 -0.147534 0)
(0.0106527 -0.14902 0)
(0.00795255 -0.15288 0)
(0.00520905 -0.154061 0)
(0.00291733 -0.155697 0)
(0.00111983 -0.155873 0)
(7.03754e-05 -0.156208 0)
(0.0139983 -0.152815 0)
(0.0127432 -0.166866 0)
(0.0108389 -0.161696 0)
(0.00922639 -0.168681 0)
(0.00715001 -0.167872 0)
(0.00532206 -0.171475 0)
(0.00347179 -0.171423 0)
(0.00198601 -0.172895 0)
(0.000784507 -0.172561 0)
(8.15016e-05 -0.172985 0)
(0.0144614 -0.181485 0)
(0.0119116 -0.196653 0)
(0.00977608 -0.188745 0)
(0.00782574 -0.196175 0)
(0.00596567 -0.193453 0)
(0.00431676 -0.197198 0)
(0.0028336 -0.196071 0)
(0.00164827 -0.197644 0)
(0.000704509 -0.196797 0)
(9.51245e-05 -0.197394 0)
(0.014455 -0.217549 0)
(0.0110337 -0.233934 0)
(0.00894365 -0.224071 0)
(0.00674142 -0.23233 0)
(0.00515359 -0.22802 0)
(0.00360412 -0.232284 0)
(0.00243665 -0.23018 0)
(0.00142463 -0.232103 0)
(0.000670118 -0.230711 0)
(9.65121e-05 -0.231602 0)
(0.0141233 -0.261981 0)
(0.010285 -0.278751 0)
(0.00829449 -0.268219 0)
(0.00591101 -0.277187 0)
(0.00457557 -0.271915 0)
(0.00305094 -0.276817 0)
(0.00215059 -0.273975 0)
(0.00121093 -0.276383 0)
(0.00062365 -0.274503 0)
(7.03219e-05 -0.275796 0)
(0.0131449 -0.312669 0)
(0.00930282 -0.328055 0)
(0.00750532 -0.318736 0)
(0.00510013 -0.327551 0)
(0.00400535 -0.322387 0)
(0.00250895 -0.327521 0)
(0.00182828 -0.324467 0)
(0.000915491 -0.327182 0)
(0.000500433 -0.325065 0)
(7.18524e-06 -0.326691 0)
(0.0112707 -0.363793 0)
(0.00785287 -0.376082 0)
(0.00632937 -0.369675 0)
(0.00415294 -0.377137 0)
(0.0032795 -0.373237 0)
(0.00190867 -0.377793 0)
(0.00139213 -0.375221 0)
(0.000542708 -0.377738 0)
(0.000297113 -0.375811 0)
(-6.69586e-05 -0.377452 0)
(0.0085793 -0.407781 0)
(0.00591566 -0.416314 0)
(0.00475028 -0.413472 0)
(0.00304189 -0.418814 0)
(0.00238973 -0.416798 0)
(0.00128445 -0.420092 0)
(0.0008989 -0.418479 0)
(0.00020448 -0.420289 0)
(9.73682e-05 -0.418914 0)
(-0.000107442 -0.420163 0)
(0.00533088 -0.438832 0)
(0.00364008 -0.444258 0)
(0.00291561 -0.444386 0)
(0.00183596 -0.447728 0)
(0.00143213 -0.447414 0)
(0.000714309 -0.449366 0)
(0.000467713 -0.448722 0)
(1.2819e-05 -0.449692 0)
(-1.35468e-05 -0.448941 0)
(-9.44526e-05 -0.449624 0)
(0.00180558 -0.454532 0)
(0.00121828 -0.458304 0)
(0.000980186 -0.460041 0)
(0.000609157 -0.462229 0)
(0.000476174 -0.462869 0)
(0.000225452 -0.464001 0)
(0.000141218 -0.463932 0)
(-1.88578e-05 -0.464368 0)
(-1.9518e-05 -0.464018 0)
(-3.7392e-05 -0.464318 0)
(0.0147032 -0.138674 4.14861e-21)
(0.0154334 -0.163529 -4.06789e-21)
(0.0165085 -0.193936 5.23526e-22)
(0.0166796 -0.230995 0)
(0.0163215 -0.27499 0)
(0.0151053 -0.323389 6.05726e-22)
(0.0129145 -0.370741 -2.60283e-21)
(0.0098607 -0.410622 2.56725e-21)
(0.00617193 -0.438415 6.97695e-22)
(0.00209782 -0.452386 -6.86745e-22)
(0.0149234 -0.143472 -4.91102e-21)
(0.0162714 -0.168236 0)
(0.0174831 -0.198758 3.56966e-21)
(0.0176879 -0.235798 -8.23733e-21)
(0.0172893 -0.279375 5.28749e-21)
(0.0159615 -0.326801 -5.61021e-22)
(0.0136377 -0.372759 1.25048e-21)
(0.0104303 -0.411219 2.63934e-21)
(0.00654826 -0.437935 7.43163e-22)
(0.00222489 -0.451353 7.21361e-22)
(0.0154523 -0.148465 5.73556e-21)
(0.0174355 -0.173208 -3.94026e-21)
(0.0186927 -0.203617 3.90291e-21)
(0.0188887 -0.24041 -4.36523e-21)
(0.0184064 -0.283399 3.22983e-21)
(0.0169286 -0.329753 0)
(0.0144311 -0.374321 -1.25352e-21)
(0.0110284 -0.411442 6.45548e-23)
(0.0069234 -0.437195 -1.38564e-21)
(0.00234282 -0.450137 -1.41514e-21)
(0.0163208 -0.152952 -9.27257e-22)
(0.0188629 -0.177797 0)
(0.0201159 -0.208148 0)
(0.0202776 -0.244711 0)
(0.0196812 -0.287123 3.59728e-21)
(0.0180287 -0.332438 -2.4058e-21)
(0.015325 -0.375669 -1.66529e-23)
(0.011686 -0.411499 -1.48021e-21)
(0.0073227 -0.436307 -7.59814e-22)
(0.00246332 -0.448763 -8.13508e-22)
(0.0175963 -0.157029 8.7161e-23)
(0.0205343 -0.181819 -2.79832e-21)
(0.0217309 -0.212076 -2.13265e-21)
(0.0218347 -0.248424 2.13131e-21)
(0.0211011 -0.290307 -1.17527e-21)
(0.0192596 -0.334683 0)
(0.0163304 -0.376709 -1.37972e-21)
(0.0124263 -0.41136 3.02072e-21)
(0.00777186 -0.435283 -1.54592e-21)
(0.0025999 -0.447267 1.59184e-21)
(0.019316 -0.160767 -7.43851e-21)
(0.0224707 -0.185312 8.0833e-22)
(0.0235531 -0.215353 -1.54744e-22)
(0.023564 -0.251441 2.18997e-21)
(0.0226658 -0.292808 0)
(0.020619 -0.336334 0)
(0.017447 -0.377306 0)
(0.0132547 -0.410936 1.61885e-21)
(0.00828011 -0.434089 0)
(0.00275895 -0.445657 0)
(0.0214911 -0.164075 0)
(0.0246889 -0.188254 3.06765e-21)
(0.0256084 -0.217976 -2.07289e-21)
(0.0254837 -0.253751 -2.45862e-21)
(0.0243901 -0.2946 2.4714e-21)
(0.0221152 -0.337353 1.47453e-21)
(0.0186771 -0.377409 -1.46282e-21)
(0.0141707 -0.410177 -5.78292e-21)
(0.00884652 -0.432693 4.11726e-22)
(0.00294146 -0.443924 -1.4091e-21)
(0.0241302 -0.166829 0)
(0.0271953 -0.190569 -9.97109e-22)
(0.0279144 -0.219904 -5.62584e-22)
(0.0276098 -0.255346 0)
(0.0262911 -0.295693 7.18944e-22)
(0.0237618 -0.337753 -2.16923e-21)
(0.0200288 -0.377024 2.41618e-21)
(0.0151765 -0.409079 8.62093e-22)
(0.00946968 -0.431083 -9.433e-22)
(0.00314724 -0.442054 1.86949e-21)
(0.027244 -0.168938 8.96843e-22)
(0.0299949 -0.192193 1.08158e-21)
(0.0304818 -0.221088 -2.40034e-22)
(0.0299518 -0.2562 3.21645e-22)
(0.0283816 -0.296084 6.84137e-22)
(0.0255708 -0.337549 1.14902e-21)
(0.0215115 -0.376171 -4.32259e-22)
(0.0162775 -0.407652 -4.67104e-22)
(0.0101509 -0.429259 9.46408e-22)
(0.00337693 -0.440039 5.1286e-22)
(0.0308425 -0.170322 -2.49877e-22)
(0.033093 -0.193094 2.52219e-22)
(0.0333197 -0.221491 -2.89531e-22)
(0.032516 -0.256294 -3.21226e-22)
(0.0306706 -0.295761 3.81646e-22)
(0.0275511 -0.336743 -7.79324e-22)
(0.023134 -0.374857 6.61453e-22)
(0.0174811 -0.405904 2.36539e-22)
(0.0108942 -0.427223 0)
(0.00363215 -0.437874 -5.14008e-22)
(0.0349328 -0.170924 2.56032e-22)
(0.0364922 -0.193264 -2.58515e-22)
(0.0364368 -0.221098 -3.10758e-22)
(0.035307 -0.255626 -3.47099e-22)
(0.0331662 -0.294726 -3.98274e-22)
(0.0297093 -0.335339 -2.8032e-23)
(0.0249031 -0.373088 2.33065e-22)
(0.0187925 -0.40384 7.52623e-22)
(0.0117025 -0.424974 0)
(0.00391396 -0.435556 -5.60963e-22)
(0.0395197 -0.170729 0)
(0.0401924 -0.192702 -1.18933e-21)
(0.0398385 -0.219918 2.15564e-21)
(0.0383276 -0.254204 3.47682e-22)
(0.0358755 -0.29298 8.07966e-22)
(0.0320519 -0.333339 1.32734e-21)
(0.0268267 -0.37086 -4.72313e-22)
(0.0202196 -0.401453 -5.10589e-22)
(0.0125814 -0.422508 1.12934e-21)
(0.00422407 -0.43308 5.59658e-22)
(0.0446045 -0.169777 0)
(0.0441936 -0.191401 -1.17302e-21)
(0.0435259 -0.21799 -6.4795e-22)
(0.0415812 -0.252049 0)
(0.0388035 -0.290557 -2.54558e-21)
(0.0345827 -0.330766 8.50468e-22)
(0.0289079 -0.368192 1.01395e-21)
(0.0217633 -0.398758 3.27484e-21)
(0.01353 -0.41982 -1.12567e-21)
(0.00456123 -0.430433 2.4297e-21)
(0.050182 -0.168177 0)
(0.0484977 -0.189358 1.183e-21)
(0.0474883 -0.215416 0)
(0.0450691 -0.249162 3.25028e-21)
(0.0419545 -0.287471 -3.26696e-21)
(0.0373097 -0.327614 -2.00002e-21)
(0.0311555 -0.365071 -4.52386e-23)
(0.0234368 -0.395735 -3.37038e-21)
(0.01456 -0.416896 -5.61826e-22)
(0.00492846 -0.4276 -3.02221e-21)
(0.0562208 -0.166005 8.55001e-21)
(0.053114 -0.186565 -3.28302e-21)
(0.0517224 -0.212198 3.51267e-22)
(0.0488105 -0.245558 -3.03242e-21)
(0.0453224 -0.283748 0)
(0.040235 -0.323919 -2.08576e-21)
(0.0335688 -0.361533 -1.751e-22)
(0.0252366 -0.392413 4.57741e-21)
(0.0156673 -0.413762 6.27525e-22)
(0.00532276 -0.424599 -6.29947e-22)
(0.062676 -0.163253 -8.77315e-22)
(0.0580584 -0.183096 6.13628e-21)
(0.0561997 -0.208356 3.15474e-21)
(0.0527966 -0.241345 -3.15261e-21)
(0.0489089 -0.279422 -1.90247e-21)
(0.0433656 -0.319675 0)
(0.0361613 -0.357543 -4.67453e-21)
(0.0271798 -0.388754 2.3445e-21)
(0.0168664 -0.410391 2.5039e-21)
(0.00574907 -0.421409 2.68817e-21)
(0.0694771 -0.159983 -1.17919e-21)
(0.0633261 -0.179057 0)
(0.0608963 -0.20399 0)
(0.0570152 -0.236622 0)
(0.0527083 -0.274624 -2.19762e-21)
(0.046688 -0.315048 4.09299e-21)
(0.0389082 -0.353272 4.76194e-21)
(0.0292334 -0.384887 -7.49918e-21)
(0.0181295 -0.406853 1.34221e-21)
(0.00619331 -0.418065 -3.99263e-21)
(0.0765093 -0.156323 -1.76262e-21)
(0.0689089 -0.17446 6.04825e-21)
(0.0657927 -0.199097 -5.99054e-21)
(0.0614636 -0.231281 7.69408e-21)
(0.056739 -0.269138 -9.6773e-21)
(0.05025 -0.309717 0)
(0.0418878 -0.348375 -2.48953e-21)
(0.0314889 -0.380549 -1.02624e-22)
(0.01953 -0.402995 -2.78979e-21)
(0.00668496 -0.414467 -2.84289e-21)
(0.0836073 -0.152666 -1.2531e-21)
(0.0747672 -0.16967 0)
(0.0708135 -0.194169 -7.99676e-21)
(0.0660479 -0.226029 1.50678e-20)
(0.0608776 -0.263912 -5.83382e-21)
(0.0538796 -0.304764 -1.17767e-21)
(0.0448824 -0.34384 2.48412e-21)
(0.0337232 -0.37642 -1.2565e-22)
(0.0209021 -0.39917 4.07215e-21)
(0.00715121 -0.410807 4.20719e-21)
(0.0910049 -0.147439 -5.64704e-21)
(0.081675 -0.162979 5.53686e-21)
(0.0765401 -0.187134 8.53642e-22)
(0.0712599 -0.218421 0)
(0.0656226 -0.256156 0)
(0.0581454 -0.297395 1.1594e-21)
(0.0485148 -0.337368 5.31415e-21)
(0.0365173 -0.371026 -5.20012e-21)
(0.0226588 -0.394639 -1.42372e-21)
(0.00776229 -0.406646 1.39996e-21)
(0.101543 -0.147684 0)
(0.0969633 -0.160262 0)
(0.0887608 -0.185162 0)
(0.0821077 -0.215895 0)
(0.0750879 -0.252726 0)
(0.0661177 -0.292565 0)
(0.0548752 -0.330912 0)
(0.0411515 -0.363093 0)
(0.0254643 -0.385811 0)
(0.00858996 -0.397647 0)
(0.120142 -0.134458 0)
(0.122607 -0.151895 0)
(0.110174 -0.179746 0)
(0.102662 -0.210044 0)
(0.0931441 -0.245705 0)
(0.0814675 -0.283205 0)
(0.0672361 -0.318661 0)
(0.0502448 -0.347905 0)
(0.0310997 -0.367939 0)
(0.0107444 -0.377545 0)
(0.144538 -0.121784 0)
(0.149917 -0.141686 0)
(0.133362 -0.169845 0)
(0.125523 -0.198778 0)
(0.112752 -0.232716 0)
(0.0979169 -0.267279 0)
(0.0801138 -0.299782 0)
(0.059409 -0.326855 0)
(0.0364768 -0.346205 0)
(0.0120705 -0.35685 0)
(0.174871 -0.112897 0)
(0.181279 -0.133224 0)
(0.160325 -0.160282 0)
(0.15233 -0.187834 0)
(0.135342 -0.219987 0)
(0.117119 -0.251351 0)
(0.0951778 -0.28073 0)
(0.0702409 -0.304665 0)
(0.0431441 -0.320778 0)
(0.0150517 -0.327688 0)
(0.210565 -0.102053 0)
(0.215311 -0.120791 0)
(0.189994 -0.14541 0)
(0.180981 -0.170402 0)
(0.15804 -0.198895 0)
(0.135791 -0.225759 0)
(0.108703 -0.251686 0)
(0.0792251 -0.273396 0)
(0.0478845 -0.289886 0)
(0.0151203 -0.300769 0)
(0.251637 -0.0936017 0)
(0.253395 -0.110069 0)
(0.224263 -0.132878 0)
(0.213162 -0.154866 0)
(0.183375 -0.179736 0)
(0.157769 -0.202976 0)
(0.125194 -0.226269 0)
(0.0909688 -0.245042 0)
(0.0552435 -0.257917 0)
(0.0203573 -0.260891 0)
(0.294287 -0.0772425 0)
(0.289129 -0.0900725 0)
(0.257071 -0.108873 0)
(0.241095 -0.125442 0)
(0.204101 -0.145086 0)
(0.174638 -0.163256 0)
(0.134111 -0.181961 0)
(0.0947487 -0.197855 0)
(0.0544025 -0.213837 0)
(0.0132412 -0.232264 0)
(0.336361 -0.0664139 0)
(0.325717 -0.0752318 0)
(0.293335 -0.0907766 0)
(0.271875 -0.103076 0)
(0.231985 -0.120156 0)
(0.198987 -0.135404 0)
(0.153309 -0.152993 0)
(0.110383 -0.169063 0)
(0.0652013 -0.184953 0)
(0.0323093 -0.181167 0)
(0.374158 -0.0367344 0)
(0.359545 -0.0406487 0)
(0.315058 -0.0499863 0)
(0.286906 -0.0558148 0)
(0.235443 -0.0660023 0)
(0.193825 -0.0732719 0)
(0.134364 -0.083034 0)
(0.0797515 -0.0921933 0)
(0.0250968 -0.111518 0)
(-0.0371664 -0.162632 0)
(0.630578 -0.0191091 0)
(0.609731 -0.0220933 0)
(0.569267 -0.0265748 0)
(0.536737 -0.030757 0)
(0.486056 -0.0370392 0)
(0.439567 -0.0437877 0)
(0.374196 -0.0541647 0)
(0.304459 -0.0694261 0)
(0.212187 -0.098745 0)
(0.152053 -0.156925 0)
(0.121645 -0.133045 5.78501e-21)
(0.142588 -0.119268 -5.69761e-21)
(0.167142 -0.106933 9.37806e-22)
(0.197013 -0.0982864 0)
(0.232575 -0.0882771 0)
(0.271929 -0.0806131 1.43322e-21)
(0.313673 -0.0661432 -6.83179e-21)
(0.353303 -0.0574973 6.73892e-21)
(0.40062 -0.03144 1.91942e-21)
(0.651592 -0.0167235 -1.94565e-21)
(0.1284 -0.126716 -5.3757e-21)
(0.149113 -0.112738 0)
(0.173183 -0.10082 6.71315e-21)
(0.202834 -0.0924232 -1.62394e-20)
(0.238448 -0.0827945 1.09567e-20)
(0.277708 -0.075495 -1.33897e-21)
(0.319463 -0.0617328 2.91217e-21)
(0.359094 -0.0539736 6.56777e-21)
(0.410401 -0.0293663 1.78012e-21)
(0.659818 -0.0157059 1.78779e-21)
(0.134337 -0.119689 6.20855e-21)
(0.154624 -0.105881 -6.28499e-21)
(0.178118 -0.0945723 6.22553e-21)
(0.207409 -0.0865245 -8.63675e-21)
(0.242904 -0.0773711 6.26141e-21)
(0.282199 -0.0705263 0)
(0.323958 -0.0575398 -2.91918e-21)
(0.36414 -0.0506937 -6.3097e-23)
(0.419012 -0.0274951 -3.37237e-21)
(0.667568 -0.0147274 -3.5636e-21)
(0.140188 -0.112153 -1.06882e-21)
(0.160448 -0.0988223 0)
(0.183508 -0.0882236 0)
(0.212549 -0.0805845 0)
(0.2477 -0.0719821 7.09769e-21)
(0.286967 -0.0656682 -4.83534e-21)
(0.328568 -0.0535297 -1.916e-22)
(0.369248 -0.047577 -3.33926e-21)
(0.427044 -0.0258046 -1.69734e-21)
(0.675045 -0.0138261 -1.74026e-21)
(0.145512 -0.104242 1.09344e-21)
(0.165967 -0.0916685 -3.3907e-21)
(0.188702 -0.0818616 -3.53905e-21)
(0.217656 -0.0746498 3.53685e-21)
(0.252478 -0.0666431 -2.2303e-21)
(0.291787 -0.0609352 0)
(0.333163 -0.0496701 -2.83957e-21)
(0.374357 -0.0445616 6.34924e-21)
(0.434642 -0.024249 -3.18965e-21)
(0.682193 -0.0130072 3.4708e-21)
(0.150115 -0.0959796 -7.99238e-21)
(0.170808 -0.0844403 3.86827e-22)
(0.193249 -0.0754972 -5.66923e-22)
(0.222088 -0.0687681 3.45719e-21)
(0.256763 -0.0613968 0)
(0.296149 -0.0563267 0)
(0.337315 -0.0459644 0)
(0.379176 -0.0416477 3.03321e-21)
(0.441692 -0.0227962 0)
(0.688912 -0.0122653 0)
(0.15392 -0.0873813 0)
(0.174918 -0.0771267 4.04869e-21)
(0.197111 -0.0691056 -2.81179e-21)
(0.225761 -0.0629403 -3.95516e-21)
(0.260351 -0.0562542 3.97572e-21)
(0.299823 -0.0518348 2.57357e-21)
(0.340881 -0.0424141 -2.42769e-21)
(0.383445 -0.0388487 -1.04425e-20)
(0.448027 -0.0214333 7.38914e-22)
(0.695116 -0.0115952 -2.47689e-21)
(0.156821 -0.0784779 0)
(0.178263 -0.069719 -1.241e-21)
(0.200301 -0.0626699 -7.49399e-22)
(0.228735 -0.0571477 0)