/*--------------------------------*- C++ -*----------------------------------*\
  =========                 |
  \\      /  F ield         | OpenFOAM: The Open Source CFD Toolbox
   \\    /   O peration     | Website:  https://openfoam.org
    \\  /    A nd           | Version:  7
     \\/     M anipulation  |
\*---------------------------------------------------------------------------*/
FoamFile
{
    version     2.0;
    format      ascii;
    class       volScalarField;
    location    "4.3";
    object      p;
}
// * * * * * * * * * * * * * * * * * * * * * * * * * * * * * * * * * * * * * //

dimensions      [0 2 -2 0 0 0 0];

internalField   nonuniform List<scalar> 
2000
(
0.361728
0.363291
0.36694
0.371993
0.37755
0.382859
0.387478
0.391258
0.394254
0.396634
0.361813
0.363174
0.366743
0.371559
0.376806
0.381777
0.386056
0.389505
0.392169
0.39419
0.361657
0.362928
0.366382
0.370989
0.375916
0.380544
0.384497
0.387646
0.39002
0.391716
0.361192
0.362458
0.365808
0.37017
0.374727
0.378978
0.382598
0.385471
0.387614
0.389065
0.360353
0.36171
0.364943
0.368984
0.373094
0.376902
0.380154
0.382761
0.384733
0.38607
0.359093
0.360648
0.363742
0.367341
0.370918
0.374195
0.377023
0.379356
0.381193
0.382575
0.357395
0.359262
0.362165
0.365253
0.36819
0.370847
0.37319
0.375229
0.376934
0.378474
0.355266
0.357586
0.360251
0.362773
0.364992
0.36696
0.368765
0.370486
0.372049
0.373768
0.352748
0.35565
0.358071
0.359995
0.361456
0.362688
0.363883
0.365191
0.366568
0.368498
0.349915
0.353476
0.35568
0.357008
0.357709
0.358174
0.358638
0.359225
0.359933
0.361668
0.400707
0.405706
0.408692
0.412947
0.414172
0.41833
0.418299
0.421442
0.420992
0.422447
0.397666
0.402718
0.405531
0.409775
0.411026
0.41522
0.415315
0.418467
0.418159
0.419615
0.394533
0.39974
0.402349
0.406566
0.407808
0.412064
0.41226
0.415444
0.415259
0.416716
0.391223
0.396732
0.399139
0.403303
0.404527
0.408862
0.409137
0.412368
0.412288
0.413747
0.387624
0.393656
0.395887
0.399972
0.4012
0.405611
0.40595
0.409238
0.409244
0.410706
0.383618
0.390463
0.392576
0.396565
0.397845
0.402304
0.402708
0.40605
0.406129
0.407591
0.379118
0.38708
0.38918
0.393082
0.394472
0.398933
0.399429
0.402801
0.402945
0.404388
0.37414
0.383424
0.385665
0.389508
0.391067
0.395467
0.396123
0.399475
0.399699
0.401126
0.368878
0.379422
0.382041
0.385882
0.387677
0.391934
0.392828
0.396064
0.396388
0.397684
0.363992
0.374981
0.378205
0.382106
0.384206
0.388259
0.389511
0.392536
0.393045
0.394353
0.355197
0.36636
0.37027
0.373837
0.376536
0.379597
0.381651
0.383758
0.384593
0.384105
0.329251
0.342038
0.348127
0.353999
0.358617
0.362708
0.365372
0.367725
0.369876
0.372544
0.301111
0.315851
0.323697
0.331271
0.337837
0.343585
0.347748
0.350283
0.350011
0.348414
0.270215
0.286623
0.295425
0.304105
0.311397
0.318228
0.322652
0.325866
0.330984
0.335518
0.236592
0.254172
0.264541
0.274628
0.284065
0.292788
0.299292
0.302614
0.297888
0.299603
0.199169
0.218349
0.229211
0.239311
0.248577
0.256654
0.263333
0.26691
0.273105
0.284284
0.158503
0.177221
0.189437
0.20176
0.212473
0.220603
0.224355
0.225526
0.230044
0.237934
0.115099
0.133789
0.144618
0.154582
0.163977
0.172093
0.17872
0.183773
0.185688
0.189029
0.0643185
0.0817931
0.0943355
0.10353
0.109155
0.113431
0.118186
0.12274
0.126638
0.130721
0.013729
0.0261769
0.033913
0.0395322
0.042571
0.0457077
0.0470745
0.0487063
0.0508454
0.0534724
0.34064
0.312324
0.283041
0.251162
0.217324
0.178788
0.140239
0.0966658
0.0510342
0.00383404
0.333634
0.304312
0.274695
0.242725
0.208926
0.170267
0.132503
0.0886645
0.0454414
-0.000195562
0.325999
0.297194
0.267213
0.235175
0.20139
0.162731
0.125449
0.0815006
0.0405764
-0.00384881
0.318299
0.290398
0.260037
0.227847
0.194073
0.155529
0.118514
0.0746316
0.0359398
-0.0074908
0.310872
0.284024
0.253397
0.220899
0.187082
0.148704
0.111706
0.0682081
0.031476
-0.011528
0.304163
0.278029
0.247249
0.214287
0.180356
0.142165
0.105036
0.0622529
0.0271324
-0.0161924
0.298523
0.272527
0.241717
0.208187
0.174014
0.135988
0.098641
0.0568726
0.0231286
-0.0203566
0.294233
0.267699
0.236901
0.202757
0.168159
0.130214
0.0926316
0.0520512
0.0198042
-0.0212601
0.291425
0.263815
0.232934
0.198179
0.162947
0.124941
0.087118
0.0477817
0.017445
-0.0194205
0.290034
0.261046
0.229835
0.19447
0.158444
0.120206
0.0821296
0.0439827
0.0158048
-0.0168479
0.289837
0.259332
0.227483
0.191497
0.154608
0.115974
0.0776364
0.0405044
0.0138136
-0.0133862
0.290752
0.258608
0.225876
0.189224
0.151424
0.112222
0.0736019
0.0372925
0.0118476
-0.0100997
0.292922
0.258933
0.225181
0.187736
0.148898
0.108912
0.0699811
0.0343538
0.0101183
-0.00718268
0.296491
0.260341
0.225435
0.186861
0.146784
0.105832
0.0666581
0.0317715
0.00867783
-0.00467862
0.301301
0.262612
0.226203
0.186012
0.144637
0.102721
0.0635313
0.0294911
0.00761075
-0.00259197
0.306614
0.265588
0.22662
0.184977
0.142558
0.0998198
0.0607854
0.0275819
0.00689497
-0.000905676
0.312164
0.269291
0.228287
0.185604
0.142325
0.0985339
0.0591922
0.0262656
0.00648899
0.000413549
0.319625
0.27739
0.235199
0.191538
0.146785
0.100923
0.0598279
0.0258638
0.00633771
0.00145774
0.330962
0.291831
0.248139
0.202543
0.155288
0.106418
0.0623392
0.0263257
0.00638893
0.00216985
0.337999
0.29947
0.252883
0.204847
0.155949
0.10625
0.0618751
0.0262248
0.00673976
0.00267346
0.337117
0.291765
0.239982
0.188183
0.138038
0.0908379
0.0516043
0.0235977
0.00947154
0.00350857
0.33464
0.281995
0.224194
0.168448
0.117834
0.0742849
0.0397152
0.0175722
0.0101777
0.00358521
0.330704
0.274755
0.210468
0.152199
0.103576
0.0667579
0.0423818
0.0283914
0.0172889
0.00455388
0.328592
0.266397
0.198412
0.140393
0.0955587
0.0638071
0.0436673
0.0328356
0.0214122
0.00644337
0.331517
0.261433
0.190975
0.136022
0.0970004
0.0706151
0.05329
0.0406079
0.0248562
0.0084163
0.33511
0.258158
0.189351
0.14058
0.106504
0.0818234
0.0634826
0.0461364
0.027248
0.00939098
0.342708
0.265326
0.201048
0.156134
0.121495
0.0937454
0.0709098
0.0499563
0.0288951
0.00897224
0.365784
0.287892
0.223318
0.175157
0.133768
0.102196
0.0774168
0.0541052
0.0304676
0.00839259
0.395662
0.312861
0.245779
0.189891
0.143068
0.110909
0.0837583
0.0572484
0.0323259
0.0100731
0.412399
0.32994
0.262234
0.201426
0.149538
0.116296
0.0887604
0.0601239
0.0338594
0.0103768
0.367442
0.370169
0.366519
0.367935
0.373439
0.383731
0.394033
0.414409
0.452881
0.474264
0.379622
0.382518
0.381216
0.384763
0.391436
0.40381
0.415959
0.435997
0.478012
0.50074
0.391264
0.394148
0.39447
0.400435
0.408803
0.42288
0.437614
0.458512
0.502015
0.524002
0.403149
0.40593
0.407253
0.414775
0.424634
0.440082
0.456976
0.478884
0.522394
0.544554
0.413023
0.417356
0.419641
0.428323
0.439237
0.455723
0.474094
0.496502
0.540061
0.563638
0.423892
0.428192
0.43143
0.441151
0.452849
0.470095
0.489525
0.511632
0.555435
0.580392
0.433988
0.43824
0.44238
0.452993
0.46534
0.483133
0.503462
0.524662
0.568142
0.593061
0.443139
0.447411
0.452361
0.463659
0.476511
0.494622
0.515709
0.535727
0.577803
0.601053
0.4513
0.455693
0.461351
0.473118
0.486312
0.504461
0.526047
0.544764
0.584393
0.605022
0.458461
0.463083
0.469359
0.481418
0.494816
0.51272
0.534477
0.551798
0.588282
0.605994
0.464632
0.469594
0.476402
0.488621
0.502136
0.519557
0.541192
0.557055
0.590102
0.604941
0.469851
0.475223
0.482502
0.494761
0.508347
0.525125
0.546433
0.560863
0.590509
0.602684
0.474182
0.479974
0.487692
0.499874
0.513511
0.52956
0.550419
0.563524
0.590017
0.59983
0.477687
0.483897
0.492026
0.504051
0.51772
0.533008
0.553343
0.565274
0.588967
0.596766
0.480431
0.487062
0.495567
0.507395
0.521074
0.535619
0.555379
0.566301
0.587575
0.593716
0.48249
0.489547
0.498384
0.51001
0.523667
0.537527
0.556678
0.566758
0.585972
0.590796
0.483937
0.491434
0.500553
0.511998
0.525594
0.538854
0.557373
0.566772
0.584229
0.588049
0.484837
0.492798
0.502154
0.513453
0.526944
0.539704
0.557573
0.566444
0.582382
0.585481
0.485238
0.493702
0.503263
0.514473
0.527818
0.540192
0.557389
0.565866
0.580454
0.583077
0.485077
0.494138
0.503878
0.515026
0.528196
0.540275
0.556814
0.565056
0.578437
0.580811
0.486006
0.496051
0.506003
0.517396
0.529517
0.541026
0.555498
0.56305
0.5736
0.575864
0.493393
0.502331
0.511188
0.521435
0.531958
0.541187
0.553586
0.558617
0.567354
0.56861
0.499212
0.507582
0.515702
0.524659
0.533726
0.540694
0.551325
0.554139
0.561618
0.56207
0.502654
0.510372
0.517989
0.526053
0.534243
0.53968
0.548893
0.550312
0.556481
0.556451
0.505538
0.512351
0.519189
0.526309
0.533685
0.537929
0.546065
0.546684
0.55172
0.551399
0.507318
0.513594
0.519821
0.526138
0.532817
0.536086
0.54323
0.543268
0.547273
0.546638
0.508277
0.514089
0.519851
0.525584
0.531749
0.534335
0.540617
0.540267
0.543269
0.542533
0.508538
0.514078
0.519462
0.524772
0.530532
0.532684
0.538228
0.537652
0.539791
0.537098
0.508215
0.513669
0.518701
0.523768
0.529111
0.530426
0.535802
0.534548
0.53371
0.535179
0.508737
0.513898
0.518981
0.524131
0.528427
0.531797
0.535849
0.535414
0.538834
0.517735
0.480079
0.488062
0.49409
0.497993
0.501649
0.503617
0.504979
0.505467
0.5057
0.505669
0.478602
0.486915
0.492663
0.496583
0.500319
0.502242
0.503685
0.504191
0.504674
0.504325
0.477874
0.486508
0.491822
0.495625
0.499213
0.501002
0.50244
0.502895
0.50354
0.502871
0.476747
0.485551
0.490711
0.494529
0.498029
0.499747
0.501191
0.501597
0.502328
0.501411
0.47545
0.484193
0.489391
0.493298
0.496777
0.498477
0.499942
0.500312
0.501093
0.500018
0.474161
0.482702
0.488056
0.492042
0.495519
0.497223
0.498705
0.499047
0.499849
0.4987
0.472855
0.481134
0.48675
0.490795
0.494275
0.495998
0.497486
0.49781
0.498597
0.497449
0.471514
0.479522
0.485456
0.489553
0.493045
0.494804
0.49629
0.496614
0.497316
0.496257
0.470152
0.477928
0.484172
0.488319
0.491838
0.493648
0.495121
0.49546
0.496041
0.495069
0.468768
0.476374
0.482909
0.487102
0.490666
0.492535
0.49399
0.494354
0.494789
0.493887
0.467344
0.474841
0.481668
0.485908
0.489536
0.491473
0.492914
0.493292
0.493563
0.492735
0.465714
0.473383
0.480431
0.48474
0.488448
0.490466
0.491897
0.49228
0.492372
0.491632
0.463901
0.47191
0.479115
0.48365
0.487375
0.489512
0.490943
0.491329
0.491226
0.490595
0.461885
0.470366
0.477777
0.482569
0.486342
0.488617
0.490054
0.490451
0.490136
0.489642
0.459672
0.468752
0.476406
0.4815
0.485352
0.48778
0.489234
0.489652
0.48911
0.488795
0.457282
0.46708
0.474989
0.48044
0.484398
0.486998
0.488488
0.488937
0.488159
0.488065
0.45474
0.465363
0.473523
0.479381
0.483475
0.486268
0.487818
0.488311
0.487292
0.487472
0.452034
0.463569
0.472003
0.478309
0.482581
0.485584
0.487222
0.487774
0.48652
0.48702
0.449298
0.461741
0.470454
0.477217
0.481709
0.484935
0.486696
0.487323
0.485844
0.486742
0.446033
0.459609
0.468757
0.476045
0.480838
0.484312
0.486243
0.486963
0.485284
0.486583
0.440174
0.455243
0.465528
0.473496
0.479069
0.483038
0.485432
0.486499
0.485369
0.486738
0.443864
0.455215
0.464799
0.472724
0.478256
0.482587
0.485273
0.486682
0.486769
0.487362
0.446268
0.455409
0.464903
0.472601
0.478062
0.482733
0.485682
0.487431
0.488138
0.488026
0.449007
0.456882
0.466063
0.473707
0.479276
0.484328
0.487536
0.489371
0.489933
0.489843
0.449014
0.456789
0.465866
0.473502
0.479213
0.484619
0.488292
0.490707
0.491802
0.491693
0.452595
0.460021
0.468709
0.476477
0.482613
0.488532
0.492644
0.494969
0.495278
0.495408
0.451599
0.459463
0.467999
0.475861
0.48218
0.488397
0.493193
0.496688
0.49771
0.501358
0.454645
0.462585
0.471061
0.479292
0.486732
0.494379
0.500437
0.504438
0.506171
0.516124
0.453948
0.462187
0.470326
0.478534
0.485844
0.49367
0.501487
0.507458
0.509631
0.54296
0.455312
0.463609
0.471916
0.480567
0.489211
0.498944
0.50994
0.521749
0.54032
0.602064
0.430689
0.43518
0.436873
0.441271
0.440694
0.445892
0.444219
0.448299
0.44711
0.448805
0.427415
0.431888
0.433596
0.438218
0.437674
0.443076
0.441335
0.445624
0.444279
0.446019
0.424945
0.429433
0.431549
0.43594
0.435615
0.440671
0.439024
0.443153
0.441734
0.443406
0.422151
0.426837
0.429357
0.433647
0.433571
0.438312
0.436855
0.440718
0.439327
0.440892
0.419127
0.423976
0.426751
0.431038
0.431206
0.435766
0.434533
0.438184
0.436879
0.438366
0.416047
0.420995
0.42393
0.428207
0.428614
0.433045
0.432038
0.435539
0.434344
0.435796
0.412945
0.417957
0.42101
0.425267
0.425908
0.430225
0.429439
0.432821
0.431753
0.433195
0.40984
0.414884
0.418015
0.422261
0.423116
0.427342
0.426771
0.430053
0.429129
0.430573
0.40676
0.411802
0.41495
0.419197
0.420229
0.424398
0.42403
0.427237
0.426469
0.427917
0.403721
0.408735
0.411835
0.416089
0.417243
0.421392
0.421206
0.424366
0.42376
0.425212
0.346775
0.351094
0.353095
0.353857
0.353837
0.353542
0.353199
0.352789
0.351916
0.349715
0.343322
0.348484
0.350293
0.35054
0.349882
0.348887
0.347753
0.346418
0.344464
0.341788
0.339573
0.345602
0.347226
0.347047
0.345887
0.344311
0.342497
0.34042
0.337751
0.334741
0.335543
0.342413
0.343873
0.343405
0.341919
0.339917
0.33756
0.334883
0.331625
0.328257
0.331277
0.338918
0.340278
0.339705
0.338089
0.335817
0.333053
0.329884
0.326125
0.322353
0.326883
0.335179
0.336572
0.336109
0.334544
0.332144
0.329091
0.325523
0.321341
0.317117
0.322545
0.331329
0.332971
0.332829
0.331461
0.329043
0.325804
0.321917
0.317392
0.3127
0.318507
0.327585
0.329746
0.330102
0.329026
0.326669
0.323318
0.319191
0.314393
0.309268
0.31504
0.324237
0.327183
0.328158
0.327419
0.325164
0.32175
0.317443
0.31243
0.306953
0.312369
0.321603
0.325544
0.327199
0.326796
0.324649
0.321192
0.316742
0.311554
0.30582
0.310634
0.31998
0.325056
0.327388
0.327281
0.325218
0.321715
0.317142
0.311804
0.305873
0.310291
0.319792
0.325957
0.328863
0.328968
0.32694
0.323373
0.318685
0.313219
0.307121
0.311516
0.32124
0.328353
0.331687
0.3319
0.329845
0.326184
0.321382
0.315824
0.309629
0.314505
0.324481
0.332321
0.33589
0.336092
0.333934
0.330133
0.325203
0.319602
0.313421
0.319425
0.329586
0.337875
0.341458
0.341519
0.33918
0.335186
0.330133
0.324508
0.318314
0.326363
0.336535
0.344974
0.348335
0.348111
0.345513
0.341317
0.336125
0.330408
0.324017
0.335299
0.345247
0.353507
0.356413
0.355791
0.352869
0.348437
0.34306
0.337114
0.330332
0.346122
0.355598
0.363268
0.365553
0.364442
0.361162
0.356464
0.350784
0.344353
0.337107
0.358675
0.367253
0.374034
0.375567
0.373934
0.370321
0.365372
0.359264
0.352134
0.344755
0.372647
0.379831
0.385546
0.386233
0.384085
0.380234
0.375179
0.368829
0.361382
0.3542
0.38756
0.393068
0.397515
0.39729
0.394637
0.390618
0.385635
0.379464
0.372452
0.367824
0.403042
0.406616
0.409634
0.408465
0.40531
0.401102
0.396127
0.390221
0.38412
0.380837
0.418527
0.420061
0.421583
0.419487
0.415873
0.411524
0.406644
0.401138
0.395807
0.393025
0.4335
0.433008
0.43305
0.430081
0.426059
0.421614
0.416896
0.41185
0.407181
0.404741
0.447494
0.445088
0.443749
0.440005
0.435649
0.43117
0.426663
0.422059
0.417903
0.415604
0.460101
0.455988
0.453434
0.449048
0.444457
0.440017
0.435778
0.431646
0.428001
0.425959
0.470993
0.465456
0.461909
0.457043
0.452327
0.448005
0.444086
0.44046
0.437361
0.435608
0.479932
0.473315
0.469032
0.463868
0.459149
0.455025
0.451473
0.448379
0.44585
0.444408
0.486775
0.479457
0.474723
0.469452
0.464854
0.461006
0.457864
0.455313
0.453357
0.452241
0.491473
0.483845
0.478951
0.473771
0.469417
0.46592
0.463221
0.461213
0.45982
0.459042
0.494066
0.486507
0.481742
0.476841
0.472852
0.469777
0.46755
0.466075
0.465225
0.464804
0.494698
0.487527
0.483157
0.478719
0.475207
0.472618
0.470885
0.46993
0.469599
0.469552
0.493515
0.487027
0.483299
0.479491
0.476557
0.474511
0.473293
0.472841
0.472997
0.473336
0.490708
0.485155
0.482291
0.479263
0.476999
0.475544
0.474855
0.474887
0.475496
0.476221
0.486494
0.482079
0.480267
0.478151
0.476635
0.475812
0.475664
0.476164
0.477187
0.478287
0.481105
0.477974
0.477366
0.476272
0.47557
0.475411
0.475813
0.476766
0.47817
0.479625
0.47477
0.473016
0.473725
0.473742
0.473906
0.474436
0.475393
0.476788
0.478541
0.480324
0.467715
0.467375
0.469476
0.470667
0.471738
0.472972
0.474485
0.476314
0.47839
0.480471
0.460152
0.461213
0.464742
0.467146
0.469148
0.471093
0.473157
0.475414
0.477796
0.480141
0.452274
0.454681
0.459634
0.463267
0.466211
0.468867
0.471468
0.474157
0.47687
0.479377
0.444246
0.447913
0.454254
0.459106
0.462992
0.46635
0.46946
0.472558
0.475679
0.478059
0.436162
0.441021
0.448694
0.454733
0.459544
0.463592
0.467191
0.470625
0.474042
0.476683
0.428211
0.434135
0.443042
0.450211
0.45592
0.460642
0.464727
0.468487
0.472139
0.475077
0.42053
0.427353
0.437376
0.445601
0.452172
0.457546
0.462115
0.466211
0.470087
0.473254
0.413253
0.420735
0.431765
0.440955
0.448344
0.454341
0.459376
0.463804
0.467899
0.471282
0.40643
0.414402
0.426249
0.436319
0.444476
0.451061
0.456534
0.461273
0.465567
0.469168
0.400102
0.408494
0.420815
0.431734
0.440604
0.447738
0.453623
0.458652
0.463125
0.466931
0.394299
0.402935
0.415626
0.42724
0.436763
0.44441
0.450687
0.455998
0.460642
0.464638
0.38904
0.39775
0.41069
0.422871
0.432981
0.441109
0.447766
0.453365
0.458188
0.462365
0.384357
0.392975
0.406007
0.418637
0.429257
0.437856
0.44488
0.450773
0.455796
0.460134
0.380336
0.388673
0.401611
0.414549
0.425603
0.434627
0.442017
0.4482
0.453435
0.457891
0.376704
0.384757
0.397497
0.410618
0.422024
0.431423
0.43915
0.445602
0.451026
0.455645
0.373491
0.381237
0.393672
0.406847
0.418512
0.428226
0.436248
0.442938
0.448525
0.453266
0.370708
0.378111
0.390133
0.403233
0.415053
0.425011
0.433277
0.440169
0.445892
0.450724
0.368327
0.375362
0.386879
0.399777
0.411644
0.421765
0.430217
0.43727
0.443109
0.448023
0.366312
0.372968
0.383906
0.396487
0.408292
0.418488
0.427061
0.434233
0.440167
0.445163
0.364633
0.370909
0.381212
0.393372
0.405009
0.415188
0.423809
0.431051
0.437057
0.442136
0.363262
0.36916
0.378791
0.390443
0.401809
0.411878
0.420469
0.42772
0.433753
0.438897
0.362172
0.367698
0.376638
0.387712
0.398715
0.408578
0.417051
0.424235
0.43022
0.435363
0.361338
0.366499
0.374747
0.385191
0.395753
0.405324
0.413589
0.420626
0.42648
0.431314
0.360733
0.365537
0.373108
0.382894
0.392958
0.402165
0.41012
0.416849
0.422431
0.426521
0.360301
0.364773
0.371706
0.380832
0.390367
0.399173
0.406789
0.413181
0.418484
0.422596
0.360051
0.364196
0.370533
0.379017
0.388019
0.396422
0.403736
0.409888
0.415046
0.41926
0.35997
0.363783
0.369575
0.37745
0.385932
0.393945
0.400979
0.406934
0.411957
0.416139
0.360033
0.363509
0.368812
0.376124
0.384106
0.391728
0.398475
0.404212
0.40906
0.413125
0.360213
0.363347
0.368223
0.375023
0.382525
0.389752
0.396186
0.40167
0.406299
0.410195
0.36048
0.363272
0.367784
0.374127
0.381175
0.388002
0.394095
0.399287
0.403651
0.407324
0.3608
0.363258
0.367468
0.373412
0.380037
0.386464
0.392193
0.397055
0.40111
0.404508
0.361136
0.363275
0.367245
0.372848
0.379085
0.38512
0.390473
0.394977
0.398689
0.401772
0.361453
0.363293
0.367079
0.372391
0.378275
0.383938
0.388917
0.393053
0.396407
0.399146
)
;

boundaryField
{
    inlet
    {
        type            zeroGradient;
    }
    outlet
    {
        type            fixedValue;
        value           uniform 0;
    }
    cylinder
    {
        type            zeroGradient;
    }
    top
    {
        type            symmetryPlane;
    }
    bottom
    {
        type            symmetryPlane;
    }
    defaultFaces
    {
        type            empty;
    }
}


// ************************************************************************* //
