/*--------------------------------*- C++ -*----------------------------------*\
  =========                 |
  \\      /  F ield         | OpenFOAM: The Open Source CFD Toolbox
   \\    /   O peration     | Website:  https://openfoam.org
    \\  /    A nd           | Version:  7
     \\/     M anipulation  |
\*---------------------------------------------------------------------------*/
FoamFile
{
    version     2.0;
    format      ascii;
    class       volVectorField;
    location    "88";
    object      U;
}
// * * * * * * * * * * * * * * * * * * * * * * * * * * * * * * * * * * * * * //

dimensions      [0 1 -1 0 0 0 0];

internalField   nonuniform List<vector> 
2000
(
(-0.000117945 -0.00498023 -2.0926e-22)
(-1.4242e-06 -0.0117925 0)
(0.000487377 -0.0157052 0)
(0.00129727 -0.0171501 -1.07133e-21)
(0.00237787 -0.0164022 3.48206e-22)
(0.00370456 -0.0136435 1.37659e-23)
(0.00527505 -0.0090041 -5.99442e-22)
(0.00709215 -0.00260024 0)
(0.0091521 0.00543725 0)
(0.0113384 0.0149458 0)
(0.000358834 -0.00482379 0)
(0.00134135 -0.0118142 -8.17356e-22)
(0.0025923 -0.0159597 7.53766e-22)
(0.00392746 -0.0176651 1.43121e-21)
(0.00530567 -0.0172129 0)
(0.00671368 -0.0148028 1.30826e-21)
(0.00816554 -0.0105744 -1.21659e-21)
(0.00968755 -0.00463333 0)
(0.0113148 0.00292634 2.23686e-21)
(0.0129434 0.0119974 -4.30688e-21)
(0.00087689 -0.00475052 0)
(0.00287926 -0.0119342 6.52533e-21)
(0.00507513 -0.0162625 0)
(0.0071088 -0.0181628 5.83195e-21)
(0.00894807 -0.0179371 0)
(0.0105914 -0.0158127 -5.2604e-21)
(0.0120686 -0.0119474 0)
(0.0134279 -0.00644504 4.77602e-21)
(0.0147443 0.000631984 -4.47304e-21)
(0.0159233 0.0092232 -4.38679e-21)
(0.00146856 -0.00478353 -1.6966e-21)
(0.00465514 -0.0121774 -3.25886e-21)
(0.00796306 -0.016626 -1.52564e-21)
(0.0108476 -0.0186388 -2.86499e-21)
(0.0132903 -0.0185508 -2.74048e-21)
(0.0153065 -0.0166255 2.58863e-21)
(0.0169453 -0.0130473 2.48433e-21)
(0.0182766 -0.00792653 -2.61215e-23)
(0.0194135 -0.00130192 4.51391e-21)
(0.0202719 0.00680007 4.38474e-21)
(0.00217012 -0.00493643 -1.66682e-21)
(0.00671118 -0.0125533 -3.32273e-21)
(0.0112718 -0.0170492 -6.30822e-21)
(0.0151239 -0.0190832 2.9025e-21)
(0.0182745 -0.0190359 0)
(0.0207663 -0.0172137 0)
(0.0226748 -0.0138326 -5.10091e-21)
(0.0240948 -0.00901712 -4.84005e-21)
(0.025175 -0.00278888 4.56939e-21)
(0.0258455 0.00484629 1.31915e-20)
(0.00301879 -0.00520906 1.69436e-21)
(0.00908242 -0.013049 1.72551e-21)
(0.0149977 -0.017514 -9.35483e-21)
(0.0198844 -0.0194791 1.48591e-20)
(0.0237937 -0.0193812 -2.7703e-21)
(0.0268101 -0.0175735 0)
(0.0290475 -0.0143061 0)
(0.0306318 -0.00972068 2.40948e-20)
(0.0317458 -0.00382576 -2.28051e-20)
(0.0323367 0.00338396 4.33312e-21)
(0.00404787 -0.00558493 1.32035e-20)
(0.0117894 -0.0136286 0)
(0.0191111 -0.0179852 1.25033e-20)
(0.0250386 -0.0198021 -1.18603e-20)
(0.029691 -0.0195815 0)
(0.0332137 -0.0177246 5.39058e-21)
(0.0357728 -0.0145148 -1.5115e-20)
(0.0375362 -0.0101111 -1.92443e-20)
(0.0387205 -0.004508 9.03052e-21)
(0.039289 0.0023141 8.7673e-21)
(0.00528156 -0.00603149 -2.64019e-20)
(0.0148307 -0.0142348 -3.36388e-21)
(0.0235512 -0.0184117 -6.33602e-21)
(0.0304579 -0.0200217 -1.48986e-20)
(0.0357664 -0.0196373 -5.70186e-21)
(0.0397034 -0.0177054 -5.38088e-21)
(0.042503 -0.0145409 4.74601e-23)
(0.0443882 -0.0103196 0)
(0.0456154 -0.0050189 0)
(0.0461594 0.00141954 4.13631e-23)
(0.00673018 -0.00650244 1.31987e-20)
(0.0181766 -0.0147933 -1.34079e-20)
(0.0282233 -0.0187322 9.42258e-21)
(0.035979 -0.0201053 2.09696e-20)
(0.0417882 -0.0195543 -5.59333e-21)
(0.04598 -0.0175659 5.38187e-21)
(0.0488696 -0.0144823 5.07231e-21)
(0.0507464 -0.010499 0)
(0.0519233 -0.00557935 0)
(0.052398 0.000402839 -2.0814e-22)
(0.0083868 -0.00694235 -1.66087e-21)
(0.0217646 -0.0152205 1.6823e-20)
(0.0329981 -0.0188828 -3.14717e-21)
(0.0414115 -0.0200246 0)
(0.0475123 -0.0193469 0)
(0.0517518 -0.0173633 1.06432e-20)
(0.0545353 -0.0144339 0)
(0.0562204 -0.0107767 -9.33865e-21)
(0.0571851 -0.00636995 1.52692e-23)
(0.0574938 -0.00104577 8.36021e-21)
(0.0157762 0.0389915 1.64159e-22)
(0.0274212 0.0935664 -1.66004e-22)
(0.0358326 0.150744 -1.86155e-22)
(0.0375376 0.20372 -2.09702e-22)
(0.0336923 0.255868 -2.55484e-22)
(0.0299031 0.311053 -9.25325e-24)
(0.019008 0.374097 1.33807e-22)
(0.0161163 0.460173 4.79494e-22)
(-0.00260815 0.59104 0)
(0.0047116 0.747749 -3.49927e-22)
(0.0155567 0.0352464 6.35576e-22)
(0.0248421 0.088932 -7.12326e-22)
(0.0333679 0.148012 1.27094e-21)
(0.0355198 0.202884 2.10046e-22)
(0.0321089 0.256268 4.53012e-22)
(0.0286448 0.31226 7.78164e-22)
(0.0182375 0.375838 -2.89676e-22)
(0.0154415 0.462266 -3.2183e-22)
(-0.00248696 0.592523 6.22513e-22)
(0.00430971 0.747652 3.49101e-22)
(0.0167965 0.0314718 0)
(0.0229827 0.0835299 -6.93681e-22)
(0.0312731 0.144175 -3.6776e-22)
(0.0337691 0.20103 0)
(0.0307376 0.255775 -1.39515e-21)
(0.0275757 0.312663 4.36599e-22)
(0.0175995 0.376803 4.88106e-22)
(0.0148572 0.463539 1.73666e-21)
(-0.00233634 0.59353 -6.20496e-22)
(0.00395208 0.74738 1.26115e-21)
(0.0195869 0.0278809 0)
(0.0219873 0.0775904 6.99494e-22)
(0.0295674 0.139276 0)
(0.0322749 0.198144 1.63346e-21)
(0.0295637 0.25438 -1.64194e-21)
(0.0266795 0.31226 -9.90424e-22)
(0.01708 0.376976 -5.76323e-23)
(0.0143715 0.463971 -1.70231e-21)
(-0.00215894 0.593859 -2.77537e-22)
(0.00361871 0.746757 -1.55052e-21)
(0.0238714 0.0246491 3.65062e-23)
(0.0220153 0.0713939 -2.0029e-21)
(0.0282842 0.133409 5.60289e-23)
(0.0310292 0.194231 -1.47571e-21)
(0.028572 0.252083 0)
(0.0259381 0.311076 -9.47771e-22)
(0.0166625 0.376432 -7.88251e-23)
(0.013968 0.463759 2.13753e-21)
(-0.00197577 0.593848 2.81321e-22)
(0.00331084 0.746083 -2.82353e-22)
(0.0293891 0.0218755 -5.41235e-21)
(0.023187 0.0652365 3.42867e-21)
(0.0274745 0.12672 1.44958e-21)
(0.0300274 0.189321 -1.44889e-21)
(0.0277494 0.248884 -7.81542e-22)
(0.0253404 0.309086 0)
(0.0163466 0.375082 -1.89627e-21)
(0.0136578 0.462633 9.51834e-22)
(-0.00177716 0.592919 1.03226e-21)
(0.00300828 0.744949 1.07795e-21)
(0.0356562 0.019569 -6.50245e-22)
(0.0254991 0.0593963 0)
(0.0271971 0.119423 0)
(0.0292694 0.18347 0)
(0.027078 0.244827 -8.31205e-22)
(0.0248649 0.306434 1.61029e-21)
(0.0161059 0.373254 1.84972e-21)
(0.0133941 0.461273 -2.88437e-21)
(-0.00160323 0.592155 5.07962e-22)
(0.00273204 0.74405 -1.57069e-21)
(0.0419936 0.0176278 4.07036e-21)
(0.0287299 0.0539947 2.79977e-21)
(0.02748 0.111751 -2.77421e-21)
(0.0287589 0.17678 2.92764e-21)
(0.0265557 0.239814 -3.63369e-21)
(0.0245144 0.302776 0)
(0.015968 0.370268 -8.34193e-22)
(0.0132427 0.458413 4.10655e-23)
(-0.00139675 0.589748 -9.15304e-22)
(0.0024426 0.742356 -9.7155e-22)
(0.0475504 0.0156626 -3.45147e-21)
(0.0323799 0.0486483 0)
(0.0282791 0.103526 -3.12191e-21)
(0.0284656 0.169322 5.60694e-21)
(0.026143 0.234433 -2.08445e-21)
(0.0242415 0.299292 -3.80271e-22)
(0.0158479 0.367942 8.32383e-22)
(0.0130468 0.456843 1.05943e-23)
(-0.00128508 0.588998 1.32416e-21)
(0.00219002 0.741502 1.41002e-21)
(0.0512785 0.0135321 -2.80354e-21)
(0.0357135 0.0433468 2.74209e-21)
(0.0295016 0.0944174 3.47866e-22)
(0.0284934 0.15953 0)
(0.0258559 0.225848 0)
(0.0241161 0.29231 3.7469e-22)
(0.015935 0.361816 1.57945e-21)
(0.0131309 0.450882 -1.5344e-21)
(-0.00103069 0.584181 -4.13125e-22)
(0.00189612 0.739034 3.995e-22)
(0.0530735 0.0147006 0)
(0.0401038 0.0415528 0)
(0.0317659 0.0882676 0)
(0.0292791 0.154007 0)
(0.0259251 0.223405 0)
(0.0233741 0.292646 0)
(0.0153019 0.363863 0)
(0.0121549 0.454243 0)
(-0.00125226 0.586713 0)
(0.00134658 0.738324 0)
(0.0545324 0.0292971 0)
(0.0435742 0.0593747 0)
(0.0331422 0.100608 0)
(0.0285947 0.160181 0)
(0.0250532 0.227804 0)
(0.0221974 0.29755 0)
(0.0146279 0.370316 0)
(0.0111004 0.462017 0)
(-0.00111297 0.592833 0)
(0.000895197 0.738483 0)
(0.0515802 0.0333054 0)
(0.0445263 0.0679274 0)
(0.0346296 0.109223 0)
(0.0284229 0.166359 0)
(0.0241403 0.233033 0)
(0.0208996 0.302772 0)
(0.0138351 0.376143 0)
(0.0101027 0.4681 0)
(-0.00101135 0.597271 0)
(0.000564756 0.738085 0)
(0.0466871 0.0356155 0)
(0.0427842 0.0743381 0)
(0.0348048 0.116323 0)
(0.0282846 0.171857 0)
(0.0234843 0.238102 0)
(0.0198483 0.308614 0)
(0.0131742 0.383438 0)
(0.00932958 0.476316 0)
(-0.000707011 0.603604 0)
(0.000393414 0.738428 0)
(0.0412849 0.0361806 0)
(0.0395797 0.0790949 0)
(0.0336194 0.122659 0)
(0.0276415 0.177015 0)
(0.022785 0.242275 0)
(0.0189419 0.312769 0)
(0.012576 0.388126 0)
(0.00860929 0.481164 0)
(-0.000635534 0.607031 0)
(0.000183221 0.73791 0)
(0.0355921 0.0352048 0)
(0.0356449 0.0820249 0)
(0.0314277 0.127851 0)
(0.0263271 0.182129 0)
(0.0218494 0.247138 0)
(0.018101 0.318317 0)
(0.0121451 0.395109 0)
(0.00813108 0.489107 0)
(-0.000301268 0.613036 0)
(0.000109008 0.73816 0)
(0.0298467 0.032869 0)
(0.0315449 0.0834161 0)
(0.0290299 0.131916 0)
(0.024843 0.186353 0)
(0.0207632 0.250633 0)
(0.0171905 0.321476 0)
(0.0116235 0.398421 0)
(0.00762126 0.492362 0)
(-0.000275526 0.615222 0)
(-3.09376e-05 0.737562 0)
(0.0240439 0.0289985 0)
(0.0271797 0.0827407 0)
(0.0261231 0.134258 0)
(0.0230838 0.190342 0)
(0.01968 0.25544 0)
(0.0164062 0.327346 0)
(0.0112866 0.40579 0)
(0.00731191 0.500639 0)
(0.000115618 0.621332 0)
(-2.37897e-05 0.737856 0)
(0.0191803 0.025511 0)
(0.0241921 0.0824018 0)
(0.0243713 0.136327 0)
(0.0219022 0.192753 0)
(0.0188085 0.257444 0)
(0.0157175 0.329077 0)
(0.0108725 0.40758 0)
(0.00697453 0.502269 0)
(0.000105278 0.622393 0)
(-0.000101799 0.737433 0)
(0.0129043 0.0141087 0)
(0.0189261 0.0751273 0)
(0.0216685 0.135077 0)
(0.0208601 0.195694 0)
(0.0184309 0.262446 0)
(0.0154953 0.335712 0)
(0.010914 0.415923 0)
(0.00689348 0.511565 0)
(0.000634348 0.629095 0)
(-1.2758e-05 0.737876 0)
(0.059791 0.00433957 2.44384e-21)
(0.0580703 0.0105636 -2.40192e-21)
(0.0526595 0.011247 2.08254e-22)
(0.0465344 0.0105622 0)
(0.0401902 0.00858008 0)
(0.033628 0.00559882 6.34428e-23)
(0.0270901 0.00172045 -8.19537e-23)
(0.0206363 -0.00329629 8.05335e-23)
(0.0147412 -0.00784918 -1.0994e-23)
(0.00785566 -0.0179367 1.08002e-23)
(0.0607949 8.44343e-05 -3.23101e-21)
(0.0573448 0.00272512 0)
(0.0512432 0.00176836 1.17486e-21)
(0.0449215 -0.0001589 -2.33888e-21)
(0.0385172 -0.0030937 1.16407e-21)
(0.0319345 -0.00676783 -6.20117e-23)
(0.0253776 -0.0111537 5.95334e-23)
(0.0189493 -0.0164965 2.20048e-23)
(0.0128374 -0.0213857 -1.86556e-23)
(0.00639233 -0.0306152 -2.08434e-23)
(0.0609946 -0.00425659 3.64235e-21)
(0.0561724 -0.00477189 -1.69172e-21)
(0.0496936 -0.00736289 1.67547e-21)
(0.043251 -0.0105774 -9.31522e-22)
(0.0367975 -0.0144929 7.30087e-22)
(0.0301919 -0.0188633 0)
(0.0236232 -0.0237185 -5.96695e-23)
(0.0172336 -0.0292618 1.30097e-24)
(0.0110428 -0.0342881 3.41247e-24)
(0.00512546 -0.0423715 3.06478e-23)
(0.0604855 -0.00926241 -5.54315e-22)
(0.054562 -0.0124636 0)
(0.0479421 -0.0164735 0)
(0.0414669 -0.0208362 0)
(0.0350135 -0.0256169 4.8061e-22)
(0.0284204 -0.0305786 -2.96628e-22)
(0.0218711 -0.0357907 2.13404e-23)
(0.0155418 -0.0413823 7.83311e-25)
(0.00940939 -0.0463304 5.50497e-24)
(0.00401079 -0.0531607 1.32447e-23)
(0.0592071 -0.0150325 -3.80776e-22)
(0.0524464 -0.0204449 -1.48382e-21)
(0.0458749 -0.025632 -6.0349e-22)
(0.0394476 -0.0309331 6.03062e-22)
(0.0330648 -0.0364032 -1.81686e-22)
(0.0265532 -0.0417993 0)
(0.0200933 -0.0472168 -6.04899e-23)
(0.0138908 -0.0526977 3.32076e-23)
(0.00795043 -0.0573769 -1.26254e-23)
(0.00308579 -0.0629692 -1.89531e-23)
(0.0572468 -0.021477 -4.10339e-21)
(0.0499314 -0.0286175 6.79839e-22)
(0.0435589 -0.034763 1.71735e-22)
(0.037239 -0.0407752 5.94426e-22)
(0.0309932 -0.0467464 0)
(0.0246246 -0.0524037 0)
(0.0183222 -0.057868 0)
(0.0123187 -0.0630962 2.97999e-23)
(0.00667636 -0.0673659 0)
(0.00234774 -0.0718132 0)
(0.0546759 -0.028442 0)
(0.0471239 -0.0368094 1.1754e-21)
(0.0410639 -0.0437324 -7.57769e-22)
(0.0349118 -0.0502334 -4.37546e-22)
(0.0288582 -0.0565271 4.39794e-22)
(0.0226883 -0.0622805 9.55042e-23)
(0.0166032 -0.0676487 -1.18158e-22)
(0.0108624 -0.0725151 -1.28373e-22)
(0.00558894 -0.0762937 1.03686e-23)
(0.0017724 -0.0797355 4.68031e-24)
(0.0515867 -0.0357015 0)
(0.0441168 -0.0448474 -4.17923e-22)
(0.0384511 -0.0523933 -1.69557e-22)
(0.0325233 -0.0591789 0)
(0.0267111 -0.0656383 6.1102e-23)
(0.0207908 -0.071346 -2.22535e-22)
(0.0149734 -0.0765042 1.02623e-22)
(0.0095458 -0.0809408 6.75612e-24)
(0.00467912 -0.0842015 -9.0979e-24)
(0.00133226 -0.0867981 -4.08381e-24)
(0.0481036 -0.043059 5.55172e-22)
(0.0409867 -0.0525794 3.79693e-22)
(0.0357753 -0.0606154 -1.27931e-22)
(0.0301258 -0.0675068 6.66317e-23)
(0.0245967 -0.074003 9.52371e-23)
(0.0189705 -0.0795546 9.91675e-23)
(0.0134593 -0.0844238 -2.19032e-23)
(0.00837955 -0.0884033 -1.22263e-23)
(0.00392967 -0.0911628 9.12766e-24)
(0.00100084 -0.0930754 8.46621e-25)
(0.0443481 -0.0503533 -1.17106e-22)
(0.037801 -0.0598919 1.1817e-22)
(0.0330864 -0.0683026 -8.58493e-23)
(0.0277672 -0.0751504 -6.65307e-23)
(0.0225526 -0.0815825 4.26121e-23)
(0.0172569 -0.0869018 -7.72719e-23)
(0.0120768 -0.0914372 3.08638e-23)
(0.00736292 -0.0949671 3.20436e-24)
(0.00331876 -0.0972713 0)
(0.00075383 -0.0986483 -8.48439e-25)
(0.0404555 -0.0574625 1.19882e-22)
(0.0346338 -0.0667179 -1.20928e-22)
(0.0304381 -0.0753994 -9.033e-23)
(0.025496 -0.0820866 -7.08321e-23)
(0.0206131 -0.0883783 -4.47527e-23)
(0.0156725 -0.0934216 6.63797e-24)
(0.0108336 -0.097607 1.59826e-23)
(0.00648775 -0.10072 2.56556e-23)
(0.00282362 -0.10263 0)
(0.000570264 -0.1036 -2.27621e-24)
(0.0365643 -0.0643159 0)
(0.031565 -0.0730357 -4.06316e-22)
(0.0278847 -0.0818896 6.86593e-22)
(0.0233582 -0.0883328 7.09366e-23)
(0.0188065 -0.0944267 1.12262e-22)
(0.0142327 -0.0991791 1.20192e-22)
(0.0097306 -0.103019 -2.58493e-23)
(0.00574149 -0.105765 -1.56728e-23)
(0.00242306 -0.107345 1.86027e-23)
(0.000433493 -0.108015 2.27084e-24)
(0.0327839 -0.07089 0)
(0.0286583 -0.0788659 -4.6885e-22)
(0.0254628 -0.0877897 -1.87215e-22)
(0.0213834 -0.0939412 0)
(0.0171485 -0.0997913 -3.10828e-22)
(0.0129417 -0.104261 1.18079e-22)
(0.00876182 -0.107774 7.28975e-23)
(0.00510866 -0.110207 1.23646e-22)
(0.00209836 -0.111519 -1.8542e-23)
(0.000330742 -0.111974 1.34424e-23)
(0.0291906 -0.0771962 0)
(0.0259568 -0.0842695 4.72737e-22)
(0.0231915 -0.0931429 0)
(0.0195842 -0.0989916 5.52553e-22)
(0.0156431 -0.104556 -5.55418e-22)
(0.0117942 -0.108768 -1.50583e-22)
(0.00791614 -0.111976 3.16139e-23)
(0.00457263 -0.114152 -1.28198e-22)
(0.00183363 -0.115249 -2.36316e-23)
(0.000252273 -0.115557 -2.05992e-23)
(0.0258372 -0.0832665 4.83183e-21)
(0.0234942 -0.089342 -1.81284e-21)
(0.0210839 -0.0980116 -1.73239e-22)
(0.0179637 -0.103582 -7.38769e-22)
(0.0142896 -0.108816 0)
(0.0107802 -0.112805 -1.59902e-22)
(0.00718107 -0.115732 5.1491e-23)
(0.00411783 -0.117704 1.91668e-22)
(0.00161624 -0.118629 7.94317e-24)
(0.000190994 -0.11884 -7.93892e-24)
(0.0227515 -0.0891338 4.08189e-22)
(0.0212981 -0.0942084 2.8229e-21)
(0.0191541 -0.102471 7.71137e-22)
(0.0165204 -0.10782 -7.7066e-22)
(0.013087 -0.112675 -2.70999e-22)
(0.00988915 -0.11648 0)
(0.0065453 -0.119144 -2.60695e-22)
(0.00373124 -0.120956 1.39654e-22)
(0.00143681 -0.121743 7.16936e-23)
(0.000141998 -0.121897 1.80513e-23)
(0.0199483 -0.0948088 -6.75326e-22)
(0.0194026 -0.0990166 0)
(0.0174304 -0.106603 0)
(0.0152564 -0.111813 0)
(0.0120396 -0.116236 -2.15581e-22)
(0.00911431 -0.119891 4.8603e-22)
(0.00600115 -0.122309 2.67612e-22)
(0.00340354 -0.123999 -3.18672e-22)
(0.00128911 -0.124673 1.84245e-23)
(0.000101993 -0.124801 -3.61194e-23)
(0.0174205 -0.100257 -1.55124e-21)
(0.0178188 -0.103926 2.09433e-21)
(0.0159345 -0.110497 -2.07455e-21)
(0.0141601 -0.115661 1.34279e-21)
(0.0111445 -0.119598 -1.62935e-21)
(0.00844458 -0.123134 0)
(0.00553948 -0.125316 -1.60872e-22)
(0.00312596 -0.126913 -6.4128e-24)
(0.00116816 -0.127494 -6.04059e-23)
(6.84049e-05 -0.12762 -2.02143e-23)
(0.0149564 -0.105351 -7.31211e-22)
(0.0163324 -0.109087 0)
(0.0145618 -0.114248 -2.04844e-21)
(0.0131231 -0.119456 3.18869e-21)
(0.0103346 -0.122858 -1.09724e-21)
(0.00782791 -0.126294 -1.18396e-22)
(0.0051273 -0.128247 1.60505e-22)
(0.00287797 -0.129773 2.01884e-23)
(0.00106493 -0.130277 1.2396e-22)
(4.01517e-05 -0.130423 4.02323e-23)
(0.0125561 -0.109753 -2.95184e-21)
(0.0148549 -0.114639 2.88716e-21)
(0.0133253 -0.117984 2.63884e-22)
(0.0121379 -0.123293 0)
(0.00960036 -0.12612 0)
(0.00726177 -0.129463 1.21876e-22)
(0.00476094 -0.131185 2.97211e-22)
(0.00265951 -0.132654 -2.9169e-22)
(0.000981002 -0.13309 -2.21285e-23)
(2.81046e-05 -0.133277 2.16637e-23)
(0.0120157 -0.116803 0)
(0.0150035 -0.12795 0)
(0.0130391 -0.126764 0)
(0.0116373 -0.132522 0)
(0.00913192 -0.134066 0)
(0.00679619 -0.137279 0)
(0.00444591 -0.138475 0)
(0.00247698 -0.139826 0)
(0.000946481 -0.140078 0)
(6.06428e-05 -0.140319 0)
(0.0118859 -0.138869 0)
(0.0109297 -0.151427 0)
(0.00920957 -0.14692 0)
(0.00786376 -0.152767 0)
(0.00605158 -0.152301 0)
(0.00449599 -0.155209 0)
(0.00290457 -0.155355 0)
(0.00164857 -0.156505 0)
(0.000637095 -0.156348 0)
(6.48806e-05 -0.156638 0)
(0.0124451 -0.166487 0)
(0.0102335 -0.18014 0)
(0.00834995 -0.173098 0)
(0.00667914 -0.179346 0)
(0.0050555 -0.177162 0)
(0.00364997 -0.180153 0)
(0.002365 -0.179375 0)
(0.0013657 -0.180578 0)
(0.000567745 -0.180012 0)
(7.73518e-05 -0.180424 0)
(0.012655 -0.200975 0)
(0.00957933 -0.215673 0)
(0.0077215 -0.20692 0)
(0.00578572 -0.213891 0)
(0.00439153 -0.210318 0)
(0.00305249 -0.213736 0)
(0.00203308 -0.212133 0)
(0.00117554 -0.21361 0)
(0.000536282 -0.212611 0)
(7.80205e-05 -0.213243 0)
(0.0125168 -0.242688 0)
(0.00902252 -0.257583 0)
(0.00724591 -0.248359 0)
(0.00511591 -0.255918 0)
(0.00393434 -0.251541 0)
(0.00259531 -0.255484 0)
(0.0018017 -0.253273 0)
(0.000998097 -0.255136 0)
(0.000500556 -0.253751 0)
(5.66144e-05 -0.254686 0)
(0.0117323 -0.289278 0)
(0.0082372 -0.302819 0)
(0.00662026 -0.294763 0)
(0.00445963 -0.302174 0)
(0.0034793 -0.29791 0)
(0.00215559 -0.302048 0)
(0.00154936 -0.299664 0)
(0.000765303 -0.301774 0)
(0.000410276 -0.300194 0)
(7.48395e-06 -0.301381 0)
(0.0101141 -0.335511 0)
(0.00701106 -0.346287 0)
(0.00563176 -0.340805 0)
(0.00367304 -0.347085 0)
(0.0028833 -0.343886 0)
(0.00166968 -0.347577 0)
(0.00120813 -0.345571 0)
(0.00047745 -0.347541 0)
(0.000259481 -0.346091 0)
(-4.97015e-05 -0.347297 0)
(0.00773907 -0.375042 0)
(0.00532267 -0.382552 0)
(0.00426376 -0.380155 0)
(0.00272198 -0.384695 0)
(0.00213063 -0.383065 0)
(0.00115318 -0.385774 0)
(0.000812199 -0.384529 0)
(0.000213148 -0.38597 0)
(0.000107081 -0.384928 0)
(-8.1776e-05 -0.385856 0)
(0.00483199 -0.403031 0)
(0.00330008 -0.407848 0)
(0.00263899 -0.408021 0)
(0.00166105 -0.41092 0)
(0.00129414 -0.410716 0)
(0.000659963 -0.412374 0)
(0.000443924 -0.411903 0)
(4.94679e-05 -0.412705 0)
(1.30531e-05 -0.412133 0)
(-7.2839e-05 -0.412652 0)
(0.00164203 -0.417273 0)
(0.00111119 -0.420642 0)
(0.000892211 -0.422218 0)
(0.000555396 -0.424163 0)
(0.000433588 -0.42477 0)
(0.000212348 -0.425779 0)
(0.000138348 -0.425774 0)
(-8.86715e-07 -0.426167 0)
(-7.09508e-06 -0.425904 0)
(-2.89942e-05 -0.426144 0)
(0.0120939 -0.12542 3.41191e-21)
(0.0132662 -0.149032 -3.34645e-21)
(0.0143578 -0.178198 4.28763e-22)
(0.0147311 -0.213427 0)
(0.0145405 -0.25453 0)
(0.0135275 -0.298885 4.96174e-22)
(0.0116096 -0.341669 -2.13221e-21)
(0.00889134 -0.377535 2.10197e-21)
(0.0055758 -0.402631 5.70631e-22)
(0.00189652 -0.415331 -5.61629e-22)
(0.0123911 -0.130027 -4.04878e-21)
(0.0140582 -0.153617 0)
(0.015273 -0.182862 2.93031e-21)
(0.0156728 -0.217994 -6.76366e-21)
(0.0154312 -0.258616 4.34196e-21)
(0.0143107 -0.30201 -4.61289e-22)
(0.0122658 -0.343503 1.02817e-21)
(0.00940192 -0.378081 2.17088e-21)
(0.005908 -0.402197 6.10801e-22)
(0.00200708 -0.414383 5.93069e-22)
(0.0129381 -0.134794 4.71969e-21)
(0.0151335 -0.158424 -3.22951e-21)
(0.0163983 -0.18756 3.19886e-21)
(0.0167862 -0.222411 -3.57895e-21)
(0.0164569 -0.262408 2.64697e-21)
(0.0151955 -0.304759 0)
(0.0129883 -0.344962 -1.03066e-21)
(0.00994344 -0.378317 5.23266e-23)
(0.00624596 -0.401544 -1.13947e-21)
(0.00211299 -0.413276 -1.16352e-21)
(0.0137771 -0.139089 -7.61497e-22)
(0.016438 -0.162833 0)
(0.0177109 -0.191903 0)
(0.0180645 -0.226494 0)
(0.0176238 -0.265892 2.9478e-21)
(0.016201 -0.307242 -1.97211e-21)
(0.0138033 -0.346213 -1.42464e-23)
(0.0105428 -0.378396 -1.21673e-21)
(0.00661107 -0.40076 -6.24686e-22)
(0.00222412 -0.412041 -6.68946e-22)
(0.0149744 -0.143013 6.41145e-23)
(0.0179611 -0.166707 -2.29069e-21)
(0.0191956 -0.195665 -1.7426e-21)
(0.0194924 -0.230005 1.74149e-21)
(0.0189215 -0.268851 -9.62383e-22)
(0.017325 -0.309299 0)
(0.0147195 -0.347163 -1.13268e-21)
(0.0112177 -0.378282 2.48176e-21)
(0.00702235 -0.399848 -1.27016e-21)
(0.00235052 -0.410701 1.30884e-21)
(0.0165635 -0.146621 -6.0779e-21)
(0.0197233 -0.170089 6.61313e-22)
(0.0208691 -0.198821 -1.2736e-22)
(0.0210767 -0.232867 1.78779e-21)
(0.0203522 -0.271175 0)
(0.0185667 -0.310808 0)
(0.0157368 -0.347702 0)
(0.0119716 -0.377901 1.3298e-21)
(0.00748579 -0.398776 0)
(0.00249664 -0.409257 0)
(0.0185556 -0.149821 0)
(0.021739 -0.172951 2.49848e-21)
(0.0227544 -0.201367 -1.68881e-21)
(0.022835 -0.235076 -2.0091e-21)
(0.0219303 -0.272855 2.01954e-21)
(0.0199346 -0.311746 1.20948e-21)
(0.0168579 -0.347797 -1.19927e-21)
(0.0128046 -0.377216 -4.75009e-21)
(0.00800059 -0.397518 3.38165e-22)
(0.00266321 -0.407697 -1.15835e-21)
(0.02096 -0.152504 0)
(0.0240143 -0.175222 -8.11569e-22)
(0.0248663 -0.203263 -4.57715e-22)
(0.0247814 -0.236622 0)
(0.0236708 -0.273897 5.8929e-22)
(0.0214406 -0.312128 -1.77641e-21)
(0.0180905 -0.347457 1.98345e-21)
(0.0137193 -0.376229 7.08477e-22)
(0.00856642 -0.396068 -7.75273e-22)
(0.00285053 -0.40601 1.53676e-21)
(0.0237881 -0.154586 7.28448e-22)
(0.0265543 -0.176843 8.78987e-22)
(0.0272148 -0.204463 -1.94528e-22)
(0.0269244 -0.23748 2.62176e-22)
(0.0255846 -0.274296 5.593e-22)
(0.0230951 -0.311963 9.41524e-22)
(0.019443 -0.346696 -3.54763e-22)
(0.0147212 -0.374946 -3.83734e-22)
(0.00918524 -0.394424 7.77826e-22)
(0.00305957 -0.40419 4.21636e-22)
(0.0270498 -0.156 -2.02596e-22)
(0.0293643 -0.177786 2.04529e-22)
(0.0298084 -0.204937 -2.35341e-22)
(0.0292705 -0.237634 -2.6183e-22)
(0.0276799 -0.274044 3.12311e-22)
(0.0249061 -0.311252 -6.38144e-22)
(0.020923 -0.345518 5.42958e-22)
(0.0158165 -0.373374 1.94407e-22)
(0.00986076 -0.392587 0)
(0.00329188 -0.402234 -4.22581e-22)
(0.0307523 -0.156697 2.07291e-22)
(0.0324471 -0.178045 -2.0933e-22)
(0.0326547 -0.204675 -2.52173e-22)
(0.0318247 -0.237082 -2.82725e-22)
(0.0299636 -0.273141 -3.25888e-22)
(0.0268795 -0.309999 -2.33965e-23)
(0.0225368 -0.343928 1.91196e-22)
(0.0170103 -0.371513 6.1827e-22)
(0.0105959 -0.390557 0)
(0.00354867 -0.400136 -4.61299e-22)
(0.0349005 -0.156663 0)
(0.0358027 -0.177615 -9.63651e-22)
(0.0357585 -0.203685 1.74735e-21)
(0.0345903 -0.235832 2.83196e-22)
(0.0324424 -0.271591 6.6006e-22)
(0.0290218 -0.308206 1.08754e-21)
(0.0242915 -0.341924 -3.87658e-22)
(0.0183094 -0.369361 -4.19515e-22)
(0.0113952 -0.388329 9.28542e-22)
(0.0038311 -0.397894 4.60227e-22)
(0.0394965 -0.155933 0)
(0.0394313 -0.176492 -9.48083e-22)
(0.0391196 -0.202005 -5.25372e-22)
(0.0375702 -0.233905 0)
(0.0351206 -0.269424 -2.08175e-21)
(0.0313367 -0.305893 6.94813e-22)
(0.0261903 -0.339522 8.31932e-22)
(0.019715 -0.366927 2.69092e-21)
(0.0122589 -0.385895 -9.25526e-22)
(0.00413897 -0.395495 1.99871e-21)
(0.0445358 -0.15462 0)
(0.0433341 -0.174679 9.56138e-22)
(0.0427283 -0.199687 0)
(0.0407675 -0.231312 2.65068e-21)
(0.0380016 -0.266651 -2.66429e-21)
(0.0338311 -0.30306 -1.64043e-21)
(0.0282413 -0.336714 -3.85406e-23)
(0.0212398 -0.364198 -2.76988e-21)
(0.0131959 -0.383244 -4.61716e-22)
(0.00447271 -0.392928 -2.48611e-21)
(0.0499708 -0.152766 6.8776e-21)
(0.0475341 -0.172177 -2.64013e-21)
(0.0465759 -0.196752 2.93626e-22)
(0.0441871 -0.228072 -2.46212e-21)
(0.0410834 -0.263295 0)
(0.0365077 -0.299731 -1.71086e-21)
(0.0304454 -0.333523 -1.46555e-22)
(0.0228825 -0.361195 3.76162e-21)
(0.0142051 -0.380402 5.16288e-22)
(0.00483112 -0.390205 -5.18293e-22)
(0.0557689 -0.150349 -7.216e-22)
(0.0520295 -0.169066 4.94362e-21)
(0.050641 -0.193266 2.56057e-21)
(0.0478262 -0.224263 -2.55885e-21)
(0.0443655 -0.259393 -1.55371e-21)
(0.0393707 -0.295917 0)
(0.0328111 -0.329936 -3.83988e-21)
(0.0246529 -0.357897 1.9259e-21)
(0.0152954 -0.377352 2.05951e-21)
(0.00521732 -0.387311 2.21274e-21)
(0.0618616 -0.147458 -9.46034e-22)
(0.056811 -0.165422 0)
(0.0549048 -0.18929 0)
(0.0516775 -0.219958 0)
(0.0478438 -0.255035 -1.8008e-21)
(0.0424133 -0.291726 3.34869e-21)
(0.0353251 -0.326065 3.91202e-21)
(0.0265324 -0.354388 -6.16575e-21)
(0.0164511 -0.374137 1.10477e-21)
(0.00562307 -0.384267 -3.28649e-21)
(0.0681396 -0.144232 -1.40386e-21)
(0.0618698 -0.161284 4.88343e-21)
(0.0593458 -0.184844 -4.83689e-21)
(0.0557317 -0.215116 6.27071e-21)
(0.0515249 -0.250096 -7.89053e-21)
(0.0456634 -0.286951 0)
(0.0380372 -0.321681 -2.0452e-21)
(0.0285808 -0.350488 -8.49524e-23)
(0.0177206 -0.370651 -2.29683e-21)
(0.00606673 -0.381004 -2.34136e-21)
(0.074456 -0.140928 -1.00401e-21)
(0.0671975 -0.15688 0)
(0.0639208 -0.180249 -6.48213e-21)
(0.0599275 -0.210233 1.22502e-20)
(0.0553261 -0.245258 -4.75032e-21)
(0.0490024 -0.282385 -9.65498e-22)
(0.0407942 -0.317513 2.04074e-21)
(0.0306394 -0.346705 -1.04542e-22)
(0.0189859 -0.367155 3.3517e-21)
(0.00649782 -0.377661 3.46496e-21)
(0.0809856 -0.136286 -4.54081e-21)
(0.0734432 -0.150876 4.45244e-21)
(0.069108 -0.173851 6.91685e-22)
(0.0646576 -0.203336 0)
(0.0596405 -0.238274 0)
(0.0528761 -0.275788 9.53491e-22)
(0.0440848 -0.311722 4.38638e-21)
(0.0331643 -0.341857 -4.29379e-21)
(0.0205696 -0.36306 -1.17759e-21)
(0.0070431 -0.373892 1.15799e-21)
(0.0912016 -0.136173 0)
(0.0874907 -0.148285 0)
(0.0803345 -0.171801 0)
(0.0746092 -0.200799 0)
(0.0682997 -0.234921 0)
(0.0601538 -0.271197 0)
(0.0498814 -0.305708 0)
(0.0373868 -0.334563 0)
(0.0231338 -0.354992 0)
(0.00782042 -0.365665 0)
(0.10892 -0.124509 0)
(0.110929 -0.141066 0)
(0.100111 -0.167046 0)
(0.093372 -0.195539 0)
(0.0847114 -0.22842 0)
(0.0740452 -0.262509 0)
(0.0610172 -0.294433 0)
(0.0455434 -0.320705 0)
(0.0281553 -0.338768 0)
(0.00969627 -0.347476 0)
(0.131337 -0.11332 0)
(0.13584 -0.132186 0)
(0.121553 -0.158416 0)
(0.11421 -0.185542 0)
(0.102562 -0.216635 0)
(0.0889418 -0.247979 0)
(0.072631 -0.277224 0)
(0.053787 -0.301567 0)
(0.0330076 -0.319057 0)
(0.010949 -0.328721 0)
(0.15914 -0.105379 0)
(0.164392 -0.124723 0)
(0.146331 -0.149879 0)
(0.138399 -0.175566 0)
(0.122977 -0.20487 0)
(0.106179 -0.233371 0)
(0.0860996 -0.259875 0)
(0.063427 -0.281497 0)
(0.0388853 -0.296106 0)
(0.0135159 -0.302363 0)
(0.191725 -0.0957927 0)
(0.19538 -0.113588 0)
(0.173375 -0.136296 0)
(0.164041 -0.159405 0)
(0.143444 -0.185327 0)
(0.122836 -0.209838 0)
(0.0981239 -0.233254 0)
(0.0713483 -0.252986 0)
(0.0430706 -0.268128 0)
(0.0136231 -0.278296 0)
(0.228769 -0.0880955 0)
(0.229841 -0.103714 0)
(0.204152 -0.124591 0)
(0.192737 -0.145006 0)
(0.166259 -0.167765 0)
(0.142322 -0.189147 0)
(0.112764 -0.210343 0)
(0.0817052 -0.2277 0)
(0.0494515 -0.239612 0)
(0.0181916 -0.242142 0)
(0.267388 -0.0730886 0)
(0.262105 -0.0852033 0)
(0.233541 -0.102266 0)
(0.217717 -0.117713 0)
(0.184776 -0.135544 0)
(0.156827 -0.15221 0)
(0.120311 -0.169264 0)
(0.0843927 -0.184188 0)
(0.0481669 -0.199317 0)
(0.0113909 -0.217624 0)
(0.304645 -0.0636903 0)
(0.295029 -0.0718274 0)
(0.265677 -0.0860234 0)
(0.245385 -0.0976439 0)
(0.209656 -0.113326 0)
(0.178703 -0.127802 0)
(0.137991 -0.144457 0)
(0.0986742 -0.160048 0)
(0.0579232 -0.175384 0)
(0.029581 -0.170801 0)
(0.342565 -0.0355891 0)
(0.329731 -0.0391541 0)
(0.28713 -0.0476791 0)
(0.260615 -0.0532167 0)
(0.212634 -0.0624825 0)
(0.173045 -0.0695552 0)
(0.11845 -0.0786273 0)
(0.0664677 -0.0874603 0)
(0.0170907 -0.106208 0)
(-0.0408402 -0.157799 0)
(0.612194 -0.0187134 0)
(0.592463 -0.0216681 0)
(0.553129 -0.0259959 0)
(0.522169 -0.03017 0)
(0.47351 -0.0362928 0)
(0.428934 -0.043165 0)
(0.366343 -0.0535235 0)
(0.298555 -0.0691141 0)
(0.209279 -0.0986185 0)
(0.150684 -0.157167 0)
(0.108832 -0.122697 4.65289e-21)
(0.128668 -0.110657 -4.58186e-21)
(0.15126 -0.0997598 7.60562e-22)
(0.178606 -0.0920069 0)
(0.211139 -0.0830762 0)
(0.246719 -0.0761757 1.17451e-21)
(0.284821 -0.0629151 -5.61112e-21)
(0.320167 -0.0555316 5.5317e-21)
(0.368856 -0.0307624 1.57785e-21)
(0.632976 -0.0164072 -1.6023e-21)
(0.11493 -0.116827 -4.31402e-21)
(0.134593 -0.10466 0)
(0.156833 -0.0941497 5.46969e-21)
(0.183874 -0.0866118 -1.32553e-20)
(0.216424 -0.0780074 8.96072e-21)
(0.251943 -0.0714901 -1.10139e-21)
(0.290077 -0.0588803 2.3908e-21)
(0.325602 -0.0523109 5.41574e-21)
(0.378586 -0.0288815 1.46038e-21)
(0.641152 -0.0154263 1.48555e-21)
(0.120265 -0.110352 4.97519e-21)
(0.139663 -0.0983867 -5.08741e-21)
(0.161457 -0.0884268 5.03925e-21)
(0.188175 -0.0811813 -7.05308e-21)
(0.220544 -0.0730031 5.10916e-21)
(0.256143 -0.0669469 0)
(0.294229 -0.0550449 -2.39654e-21)
(0.330476 -0.0492916 -5.67075e-23)
(0.387194 -0.0271743 -2.76952e-21)
(0.648919 -0.014483 -2.95088e-21)
(0.125433 -0.103428 -8.54448e-22)
(0.144936 -0.0919438 0)
(0.16636 -0.0826363 0)
(0.192889 -0.0757261 0)
(0.224957 -0.0680413 5.80355e-21)
(0.260553 -0.0625148 -3.95671e-21)
(0.298431 -0.05138 -1.64364e-22)
(0.3354 -0.0464033 -2.75492e-21)
(0.39522 -0.0256276 -1.39788e-21)
(0.656456 -0.0136199 -1.44002e-21)
(0.130086 -0.0961685 8.84325e-22)
(0.149893 -0.0854215 -2.71893e-21)
(0.171046 -0.0768352 -2.87348e-21)
(0.19747 -0.0703022 2.87169e-21)
(0.229326 -0.0631457 -1.82057e-21)
(0.264964 -0.0581868 0)
(0.302548 -0.0478606 -2.32509e-21)
(0.340322 -0.0435996 5.21739e-21)
(0.402782 -0.0242064 -2.61863e-21)
(0.663675 -0.0128428 2.8653e-21)
(0.134058 -0.0885963 -6.41154e-21)
(0.154228 -0.0788415 2.91506e-22)
(0.175166 -0.0710337 -4.70296e-22)
(0.201462 -0.064939 2.80503e-21)
(0.233187 -0.0583568 0)
(0.268933 -0.0539648 0)
(0.306262 -0.0444944 0)
(0.344918 -0.0408928 2.48573e-21)
(0.409786 -0.0228841 0)
(0.670479 -0.0121539 0)
(0.137271 -0.0807341 0)
(0.157892 -0.0721993 3.26435e-21)
(0.178677 -0.0652174 -2.26914e-21)
(0.204803 -0.0596306 -3.21597e-21)
(0.23641 -0.0536707 3.23267e-21)
(0.272248 -0.0498534 2.10155e-21)
(0.309493 -0.0412711 -1.978e-21)
(0.348945 -0.0382948 -8.54934e-21)
(0.416112 -0.0216531 6.04165e-22)
(0.676771 -0.0115394 -2.03262e-21)
(0.139625 -0.0726164 0)
(0.16085 -0.0654894 -9.98518e-22)