/*--------------------------------*- C++ -*----------------------------------*\
  =========                 |
  \\      /  F ield         | OpenFOAM: The Open Source CFD Toolbox
   \\    /   O peration     | Website:  https://openfoam.org
    \\  /    A nd           | Version:  7
     \\/     M anipulation  |
\*---------------------------------------------------------------------------*/
FoamFile
{
    version     2.0;
    format      ascii;
    class       surfaceScalarField;
    location    "2.2";
    object      phi;
}
// * * * * * * * * * * * * * * * * * * * * * * * * * * * * * * * * * * * * * //

dimensions      [0 3 -1 0 0 0 0];

internalField   nonuniform List<scalar> 
63520
(
-1.7691e-05
0.0010643
-0.00104661
-5.96272e-05
0.00270424
-0.0026623
-0.000120402
0.00398038
-0.00391961
-0.000194212
0.00491602
-0.00484221
-0.000274988
0.00555589
-0.00547512
-0.000356647
0.00594934
-0.00586769
-0.000433438
0.00614257
-0.00606578
-0.000500162
0.00617547
-0.00610875
-0.000552313
0.00608132
-0.00602917
-0.000586125
0.00588711
-0.0058533
-0.000598575
0.00561473
-0.00560229
-0.000587366
0.00528217
-0.00529338
-0.000550865
0.00490443
-0.00494093
-0.000488064
0.00449438
-0.00455718
-0.000398533
0.00406329
-0.00415282
-0.000282369
0.0036212
-0.00373736
-0.000140163
0.00317708
-0.00331929
2.7066e-05
0.00273891
-0.00290613
0.00021792
0.00231368
-0.00250453
0.000430676
0.00190744
-0.00212019
0.000663353
0.00152517
-0.00175785
0.000913792
0.00117085
-0.00142129
0.00117969
0.000847437
-0.00111334
0.0014587
0.000556941
-0.000835945
0.00174846
0.000300424
-0.000590189
0.00204671
7.81291e-05
-0.000376377
0.00235126
-0.000110426
-0.000194127
0.00266008
-0.000266338
-4.24808e-05
0.0029713
-0.000391191
7.99685e-05
0.00328327
-0.000486954
0.000174992
0.00359451
-0.000555865
0.000244626
0.00390375
-0.000600326
0.000291077
0.00420995
-0.000622821
0.000316629
0.0045122
-0.00062583
0.000323572
0.00480982
-0.000611767
0.000314152
0.00510223
-0.000582914
0.000290507
0.00538897
-0.000541365
0.000254621
0.00566965
-0.000489063
0.000208381
0.0059439
-0.000425323
0.000151073
-0.000344744
0.00621109
7.75512e-05
-1.43295e-05
0.00107863
-4.92149e-05
0.00273912
-0.000100533
0.0040317
-0.000163553
0.00497904
-0.000232929
0.00562527
-0.000303078
0.00601949
-0.000368547
0.00620804
-0.000424312
0.00623124
-0.000465941
0.00612295
-0.000489714
0.00591089
-0.000492635
0.00561765
-0.000472401
0.00526193
-0.000427355
0.00485938
-0.000356465
0.00442349
-0.000259288
0.00396611
-0.000135909
0.00349782
1.30977e-05
0.00302807
0.000186706
0.0025653
0.000383504
0.00211688
0.000601768
0.00168918
0.000839506
0.00128744
0.00109452
0.00091583
0.00136451
0.000577447
0.00164712
0.000274333
0.00193999
7.55218e-06
0.00224084
-0.000222717
0.00254749
-0.000417075
0.00285793
-0.000576774
0.00317031
-0.000703578
0.00348301
-0.000799652
0.00379459
-0.000867445
0.00410383
-0.000909568
0.00440972
-0.000928708
0.00471142
-0.000927535
0.00500829
-0.000908634
0.00529982
-0.00087444
0.00558561
-0.000827158
0.00586534
-0.000768799
0.00613873
-0.000698717
-0.000611341
0.00640533
-1.09653e-05
0.0010896
-3.85834e-05
0.00276674
-8.01091e-05
0.00407323
-0.000131855
0.00503079
-0.00018922
0.00568263
-0.000247141
0.00607741
-0.000300483
0.00626138
-0.00034445
0.0062752
-0.00037472
0.00615322
-0.000387635
0.0059238
-0.000380211
0.00561023
-0.00035014
0.00523186
-0.000295774
0.00480502
-0.000216079
0.00434379
-0.000110596
0.00386063
2.0586e-05
0.00336664
0.000176884
0.00287178
0.000357272
0.00238491
0.000560335
0.00191382
0.000784324
0.00146519
0.00102723
0.00104453
0.00128685
0.000656208
0.00156086
0.000303433
0.0018469
-1.17e-05
0.0021426
-0.000288149
0.0024457
-0.000525816
0.00275404
-0.000725419
0.00306563
-0.000888363
0.00337866
-0.00101661
0.00369154
-0.00111253
0.00400288
-0.00117879
0.00431153
-0.00121822
0.00461652
-0.0012337
0.00491709
-0.0012281
0.00521264
-0.00120418
0.00550272
-0.00116453
0.00578703
-0.00111146
0.00606531
-0.00104708
0.00633737
-0.000970779
-0.000876869
0.0066029
-7.61199e-06
0.00109721
-2.78829e-05
0.00278701
-5.9381e-05
0.00410472
-9.94636e-05
0.00507087
-0.000144283
0.00572745
-0.000189322
0.00612245
-0.000229819
0.00630188
-0.000261201
0.00630658
-0.000279284
0.0061713
-0.00028049
0.00592501
-0.000261889
0.00559163
-0.000221193
0.00519116
-0.000156754
0.00474058
-6.75446e-05
0.00425458
4.68807e-05
0.0037462
0.00018643
0.00322709
0.000350518
0.00270769
0.000538093
0.00219734
0.000747716
0.0017042
0.000977631
0.00123527
0.00122581
0.000796356
0.00149002
0.000391997
0.00176793
2.55181e-05
0.00205719
-0.000300955
0.00235544
-0.000586401
0.00266043
-0.000830803
0.00297002
-0.00103501
0.00328226
-0.00120061
0.0035954
-0.00132974
0.00390789
-0.00142502
0.00421841
-0.00148931
0.00452586
-0.00152567
0.00482936
-0.00153719
0.00512819
-0.00152693
0.00542184
-0.00149783
0.00570993
-0.00145261
0.00599221
-0.00139374
0.00626851
-0.00132339
0.00653876
-0.00124102
-0.00114088
0.00680276
-4.31751e-06
0.00110153
-1.7196e-05
0.00279989
-3.85172e-05
0.00412604
-6.66338e-05
0.00509899
-9.848e-05
0.00575929
-0.000130087
0.00615406
-0.00015708
0.00632887
-0.000175143
0.00632465
-0.000180282
0.00617644
-0.00016901
0.00591373
-0.000138448
0.00556107
-8.63502e-05
0.00513907
-1.10989e-05
0.00466533
8.83177e-05
0.00415517
0.000212331
0.00362219
0.000360822
0.00307859
0.000533174
0.00253534
0.000728321
0.00200219
0.000944804
0.00148772
0.00118083
0.000999247
0.00143435
0.000542838
0.00170312
0.000123223
0.00198482
-0.000256179
0.00227708
-0.000593209
0.00257756
-0.000886884
0.00288404
-0.00113728
0.00319443
-0.0013454
0.00350682
-0.001513
0.00381952
-0.00164244
0.00413104
-0.00173654
0.00444014
-0.00179842
0.0047458
-0.00183133
0.0050472
-0.00183859
0.00534371
-0.00182345
0.00563488
-0.00178901
0.00592042
-0.00173815
0.00620014
-0.00167347
0.00647397
-0.00159721
0.0067419
-0.00150896
-0.00140289
0.00700392
-1.0905e-06
0.00110262
-6.59742e-06
0.0028054
-1.76845e-05
0.00413713
-3.366e-05
0.00511496
-5.21967e-05
0.00577783
-6.98997e-05
0.00617176
-8.28195e-05
0.00634179
-8.69174e-05
0.00632874
-7.83937e-05
0.00616792
-5.38898e-05
0.00588923
-1.06153e-05
0.00551779
5.36243e-05
0.00507482
0.000140412
0.00457854
0.000250715
0.00404486
0.000384925
0.00348798
0.000542895
0.00292062
0.000723976
0.00235426
0.000927066
0.0017991
0.00115067
0.00126411
0.00139297
0.00075695
0.00165188
0.000283922
0.00192517
-0.000150065
0.0022105
-0.000541503
0.0025055
-0.000888215
0.00280789
-0.00118927
0.00311546
-0.00144486
0.00342618
-0.00165612
0.0037382
-0.00182502
0.00404989
-0.00195413
0.00435987
-0.00204652
0.00466697
-0.00210551
0.00497023
-0.0021346
0.00526895
-0.0021373
0.00556257
-0.00211706
0.00585071
-0.00207715
0.00613317
-0.00202061
0.00640983
-0.00195013
0.00668069
-0.00186807
0.00694585
-0.00177412
-0.0016625
0.00720546
2.05753e-06
0.00110056
3.79816e-06
0.00280366
2.9254e-06
0.004138
-7.97557e-07
0.00511868
-5.79027e-06
0.00578282
-9.22615e-06
0.0061752
-7.58107e-06
0.00634015
2.86932e-06
0.00631829
2.56968e-05
0.00614509
6.41105e-05
0.00585082
0.000120804
0.0054611
0.00019789
0.00499774
0.000296885
0.00447954
0.000418705
0.00392304
0.000563696
0.00334299
0.00073166
0.00275266
0.000921897
0.00216402
0.00113326
0.00158773
0.00136423
0.00103315
0.00161294
0.000508244
0.00187728
1.95784e-05
0.00215501
-0.000427792
0.00244379
-0.000830282
0.00274128
-0.00118571
0.00304523
-0.00149322
0.00335348
-0.0017531
0.00366405
-0.00196669
0.00397519
-0.00213615
0.00428534
-0.00226429
0.00459321
-0.00235439
0.00489771
-0.00241002
0.00519802
-0.00243491
0.00549349
-0.00243277
0.00578366
-0.00240724
0.00606826
-0.00236175
0.00634713
-0.00229948
0.00662025
-0.00222325
0.0068877
-0.00213552
0.00714968
-0.0020361
-0.00191928
0.00740646
5.0566e-06
0.0010955
1.39003e-05
0.00279481
2.31407e-05
0.00412876
3.16688e-05
0.00511016
4.03606e-05
0.00577413
5.14747e-05
0.00616408
6.80761e-05
0.00632354
9.35598e-05
0.00629281
0.000131259
0.00610739
0.000184203
0.00579787
0.000254953
0.00539035
0.000345526
0.00490716
0.000457355
0.00436772
0.000591286
0.00378911
0.000747598
0.00318668
0.000926026
0.00257423
0.00112582
0.00196423
0.00134577
0.00136777
0.00158431
0.000794608
0.00183953
0.000253024
0.00210931
-0.0002502
0.00239139
-0.00070987
0.00268344
-0.00112233
0.00298316
-0.00148543
0.00328832
-0.00179837
0.00359683
-0.00206161
0.00390679
-0.00227666
0.00421654
-0.00244589
0.00452461
-0.00257236
0.00482982
-0.00265959
0.00513119
-0.00271139
0.00542799
-0.0027317
0.00571968
-0.00272445
0.0060059
-0.00269345
0.00628645
-0.0026423
0.00656127
-0.0025743
0.00683042
-0.0024924
0.00709405
-0.00239915
0.00735244
-0.0022945
-0.00217288
0.00760604
7.89929e-06
0.0010876
2.36174e-05
0.00277909
4.2783e-05
0.0041096
6.34762e-05
0.00508946
8.58914e-05
0.00575171
0.000111723
0.00613825
0.000143577
0.00629169
0.000184496
0.00625189
0.000237547
0.00605434
0.000305556
0.00572986
0.000390936
0.00530497
0.000495577
0.00480252
0.000620809
0.00424248
0.000767392
0.00364253
0.000935516
0.00301855
0.00112484
0.0023849
0.00133455
0.00175452
0.00156336
0.00113896
0.00180965
0.000548318
0.00207147
-8.79506e-06
0.00234668
-0.000525404
0.002633
-0.000996192
0.00292813
-0.00141746
0.00322979
-0.00178709
0.00353581
-0.00210439
0.00384418
-0.00236998
0.00415308
-0.00258556
0.00446095
-0.00275376
0.00476644
-0.00287786
0.00506847
-0.00296162
0.00536619
-0.00300911
0.00565897
-0.00302449
0.00594638
-0.00301187
0.00622818
-0.00297524
0.00650424
-0.00291836
0.00677459
-0.00284465
0.00703938
-0.00275718
0.00729881
-0.00265859
0.00755328
-0.00254897
-0.00242293
0.00780333
1.05616e-05
0.00107704
3.28688e-05
0.00275679
6.1688e-05
0.00408078
9.43612e-05
0.00505679
0.000130436
0.00571564
0.000171051
0.00609763
0.000218351
0.00624439
0.000275008
0.00619523
0.000343801
0.00598555
0.000427332
0.00564633
0.000527835
0.00520447
0.000647054
0.0046833
0.000786198
0.00410334
0.000945915
0.00348282
0.0011263
0.00283817
0.00132691
0.00218429
0.00154685
0.00153459
0.00178476
0.000901038
0.00203895
0.000294127
0.00230743
-0.000277274
0.00258803
-0.000806002
0.00287848
-0.00128664
0.00317648
-0.00171547
0.0034798
-0.00209041
0.00378634
-0.00241093
0.00409416
-0.0026778
0.00440156
-0.00289297
0.00470708
-0.00305928
0.00500951
-0.00318028
0.00530788
-0.00325999
0.00560147
-0.0033027
0.00588977
-0.00331279
0.00617247
-0.00329457
0.00644942
-0.00325219
0.0067206
-0.00318954
0.00698612
-0.00311018
0.0072462
-0.00301725
0.00750112
-0.00291351
0.00775135
-0.0027992
-0.00266916
0.00799757
1.30212e-05
0.00106402
4.15798e-05
0.00272823
7.97041e-05
0.00404265
0.000124078
0.00501241
0.000173646
0.00566607
0.000229007
0.00604227
0.000291842
0.00618156
0.000364439
0.00612264
0.00044927
0.00590072
0.00054869
0.00554691
0.000664728
0.00508843
0.000798963
0.00454907
0.000952458
0.00394984
0.00112573
0.00330954
0.00131876
0.00264515
0.001531
0.00197205
0.00176144
0.00130414
0.00200866
0.000653822
0.00227087
3.1917e-05
0.00254604
-0.000552446
0.00283198
-0.00109194
0.00312642
-0.00158107
0.00342708
-0.00201613
0.00373178
-0.00239512
0.0040385
-0.00271764
0.00434539
-0.0029847
0.00465087
-0.00319845
0.00495361
-0.00336202
0.00525253
-0.0034792
0.00554679
-0.00355426
0.00583582
-0.00359173
0.00611923
-0.0035962
0.00639682
-0.00357216
0.00666856
-0.00352393
0.00693452
-0.00345551
0.00719491
-0.00337056
0.00744999
-0.00327234
0.00770014
-0.00316366
0.00794589
-0.00304494
-0.00291131
0.00818803
1.5264e-05
0.00104876
4.96859e-05
0.00269381
9.66937e-05
0.00399564
0.000152402
0.00495671
0.000215198
0.00560327
0.000285162
0.00597231
0.000363516
0.0061032
0.000452154
0.006034
0.000553224
0.00579965
0.000668806
0.00543133
0.000800707
0.00495653
0.000950317
0.00439946
0.00111854
0.00378163
0.00130573
0.00312235
0.00151173
0.00243914
0.00173589
0.00174789
0.00197707
0.00106296
0.00223375
0.000397145
0.00250407
-0.000238399
0.00278594
-0.000834321
0.00307715
-0.00138315
0.00337542
-0.00187935
0.00367852
-0.00231922
0.00398432
-0.00270092
0.00429088
-0.0030242
0.00459647
-0.00329029
0.00489964
-0.00350162
0.00519919
-0.00366156
0.00549418
-0.00377419
0.00578394
-0.00384403
0.00606803
-0.00387582
0.00634619
-0.00387436
0.00661835
-0.00384432
0.00688457
-0.00379015
0.00714505
-0.00371598
0.00740006
-0.00362556
0.00764993
-0.00352222
0.00789511
-0.00340884
0.00813618
-0.00328601
-0.00314918
0.00837406
1.72753e-05
0.00103148
5.71322e-05
0.00265395
0.000112541
0.00394024
0.000179136
0.00489011
0.000254801
0.00552761
0.000339125
0.00588798
0.00043288
0.00600945
0.000537559
0.00592932
0.000654966
0.00568224
0.000786892
0.0052994
0.000934899
0.00480852
0.00110017
0.00423419
0.0012834
0.00359839
0.00148481
0.00292094
0.00170407
0.00221988
0.00194038
0.00151159
0.00219248
0.000810856
0.00245874
0.000130887
0.00273721
-0.000516874
0.00302577
-0.00112288
0.00332215
-0.00167954
0.00362409
-0.00218129
0.0039294
-0.00262452
0.00423601
-0.00300753
0.00454208
-0.00333027
0.00484602
-0.00359423
0.0051465
-0.0038021
0.00544248
-0.00395754
0.00573319
-0.0040649
0.0060181
-0.00412894
0.00629691
-0.00415463
0.00656952
-0.00414697
0.00683598
-0.00411078
0.00709647
-0.00405064
0.00735126
-0.00397078
0.00760071
-0.00387501
0.00784523
-0.00376674
0.00808531
-0.00364892
0.00832158
-0.00352228
-0.00338267
0.00855507
1.90461e-05
0.00101243
6.38779e-05
0.00260912
0.00012715
0.00387696
0.00020411
0.00481315
0.000292199
0.00543952
0.000390548
0.00578963
0.000499488
0.00590051
0.000620108
0.0058087
0.000753855
0.00554849
0.000902216
0.00515104
0.00106648
0.00464425
0.00124761
0.00405307
0.00144609
0.00339991
0.00166194
0.00270509
0.00189467
0.00198715
0.00214331
0.00126294
0.00240647
0.000547695
0.00268239
-0.00014503
0.00296904
-0.000803521
0.00326421
-0.00141805
0.00356565
-0.00198097
0.00387107
-0.00248671
0.00417833
-0.00293179
0.00448547
-0.00331466
0.00479073
-0.00363554
0.00509268
-0.00389618
0.00539013
-0.00409956
0.00568221
-0.00424962
0.00596831
-0.004351
0.00624806
-0.00440869
0.00652133
-0.0044279
0.00678816
-0.00441379
0.00704871
-0.00437133
0.00730329
-0.00430522
0.00755226
-0.00421975
0.00779605
-0.00411881
0.00803515
-0.00400584
0.00827007
-0.00388384
0.0085015
-0.00375372
-0.00361171
0.00873055
2.05706e-05
0.000991863
6.98941e-05
0.00255979
0.000140448
0.00380641
0.000227191
0.00472641
0.000327186
0.00533952
0.000439138
0.00567768
0.000562955
0.00577669
0.000699321
0.00567233
0.000849321
0.00539849
0.00101412
0.00498624
0.00119472
0.00446365
0.00139183
0.00385596
0.00160571
0.00318602
0.00183617
0.00247463
0.00208252
0.0017408
0.00234362
0.00100184
0.00261792
0.000273396
0.00290353
-0.000430637
0.00319832
-0.00109831
0.00350003
-0.00171976
0.00380635
-0.00228729
0.00411504
-0.0027954
0.00442401
-0.00324075
0.00473137
-0.00362202
0.00503552
-0.00393969
0.00533514
-0.0041958
0.00562924
-0.00439365
0.00591711
-0.00453749
0.00619832
-0.0046322
0.00647267
-0.00468305
0.00674019
-0.00469542
0.00700106
-0.00467465
0.00725557
-0.00462585
0.00750415
-0.00455379
0.00774724
-0.00446284
0.00798535
-0.00435692
0.008219
-0.00423949
0.00844878
-0.00411362
0.00867539
-0.00398033
-0.00383633
0.00890001
2.18478e-05
0.000970015
7.51646e-05
0.00250648
0.000152389
0.00372918
0.000248284
0.00463051
0.000359601
0.00522821
0.000484661
0.00555262
0.000622965
0.00563838
0.000774799
0.0055205
0.000940877
0.00523242
0.00112203
0.00480509
0.00131896
0.00426672
0.0015321
0.00364282
0.00176146
0.00295666
0.00200663
0.00222947
0.0022667
0.00148073
0.00254033
0.000728205
0.0028258
-1.20736e-05
0.00312108
-0.000725915
0.00342394
-0.00140117
0.00373204
-0.00202787
0.00404306
-0.00259832
0.00435478
-0.00310712
0.00466517
-0.00355114
0.00497246
-0.00392931
0.00527517
-0.0042424
0.00557217
-0.0044928
0.00586262
-0.00468411
0.00614601
-0.00482088
0.00642209
-0.00490828
0.00669084
-0.00495181
0.00695246
-0.00495703
0.00720725
-0.00492945
0.00745567
-0.00487427
0.00769821
-0.00479633
0.00793543
-0.00470006
0.00816789
-0.00458938
0.00839617
-0.00446778
0.00862088
-0.00433833
0.00884277
-0.00420222
-0.00405661
0.00906305
2.2881e-05
0.000947134
7.96876e-05
0.00244967
0.000162951
0.00364592
0.000267333
0.00452613
0.00038934
0.0051062
0.00052695
0.00541501
0.000679281
0.00548605
0.00084623
0.00535355
0.00102813
0.00505051
0.00122548
0.00460775
0.00143866
0.00405353
0.00166781
0.00341367
0.00191268
0.00271179
0.00217259
0.00196956
0.00244641
0.00120692
0.00273258
0.000442034
0.00302919
-0.000308686
0.00333406
-0.00103079
0.00364486
-0.00171196
0.00395917
-0.00234218
0.00427466
-0.0029138
0.00458914
-0.0034216
0.00490065
-0.00386266
0.00520755
-0.0042362
0.00550851
-0.00454337
0.00580257
-0.00478686
0.0060891
-0.00497064
0.00636778
-0.00509956
0.00663854
-0.00517904
0.00690155
-0.00521482
0.00715716
-0.00521264
0.00740584
-0.00517813
0.00764815
-0.00511658
0.0078847
-0.00503289
0.00811612
-0.00493148
0.00834304
-0.0048163
0.00856609
-0.00469082
0.00878588
-0.00455812
0.00900319
-0.00441953
-0.00427269
0.00921928
2.36775e-05
0.000923457
8.34748e-05
0.00238987
0.000172139
0.00355726
0.000284324
0.00441394
0.000416355
0.00497417
0.000565912
0.00526545
0.000731753
0.00532021
0.000913399
0.0051719
0.00111081
0.0048531
0.00132413
0.00439443
0.00155342
0.00382425
0.0017985
0.00316859
0.00205883
0.00245146
0.00233345
0.00169494
0.00262098
0.000919388
0.00291963
0.00014338
0.00322729
-0.00061635
0.00354163
-0.00134512
0.00386017
-0.00203051
0.00418046
-0.00266247
0.00450013
-0.00323348
0.00481705
-0.00373852
0.00512935
-0.00417496
0.00543553
-0.00454238
0.00573443
-0.00484227
0.00602527
-0.00507771
0.00630763
-0.005253
0.00658139
-0.00537331
0.00684668
-0.00544433
0.00710385
-0.00547199
0.00735341
-0.00546221
0.00759599
-0.0054207
0.00783225
-0.00535285
0.00806292
-0.00526355
0.00828868
-0.00515725
0.00851024
-0.00503786
0.00872823
-0.00490881
0.00894332
-0.00477321
0.00915628
-0.00463249
-0.0044848
0.00936839
2.42489e-05
0.000899208
8.65514e-05
0.00232757
0.000179987
0.00346382
0.000299286
0.00429464
0.000440657
0.0048328
0.000601525
0.00510459
0.00078032
0.00514142
0.000976198
0.00497603
0.00118876
0.00464054
0.00141777
0.00416542
0.00166296
0.00357906
0.00192382
0.00290773
0.0021995
0.00217578
0.00248874
0.0014057
0.00278989
0.000618243
0.0031009
-0.000167634
0.00341946
-0.000934906
0.00374304
-0.00166871
0.00406907
-0.00235654
0.00439503
-0.00298842
0.00471856
-0.003557
0.00503756
-0.00405752
0.0053503
-0.0044877
0.0056554
-0.00484748
0.00595191
-0.00513878
0.00623926
-0.00536505
0.00651722
-0.00553096
0.00678589
-0.00564198
0.0070456
-0.00570404
0.00729688
-0.00572327
0.00754041
-0.00570574
0.00777695
-0.00565724
0.00800729
-0.00558319
0.00823223
-0.00548849
0.00845254
-0.00537756
0.00866895
-0.00525427
0.00888215
-0.00512201
0.0090928
-0.00498386
0.00930168
-0.00484137
-0.00469321
0.00951009
2.46101e-05
0.000874597
8.89555e-05
0.00226323
0.000186551
0.00336622
0.000312287
0.00416891
0.000462313
0.00468277
0.000633844
0.00493305
0.000825011
0.00495025
0.00103462
0.00476641
0.00126192
0.00441324
0.0015063
0.00392103
0.00176715
0.00331821
0.00204359
0.00263129
0.00233446
0.00188492
0.00263816
0.00110199
0.00295276
0.000303649
0.00327594
-0.000490813
0.00360515
-0.00126412
0.0039377
-0.00200126
0.00427089
-0.00268973
0.00460215
-0.00331968
0.00492913
-0.00388398
0.00524982
-0.00437821
0.00556259
-0.00480047
0.00586626
-0.00515115
0.00616006
-0.00543258
0.00644364
-0.00564863
0.00671699
-0.00580432
0.00698043
-0.00590541
0.00723449
-0.0059581
0.00747988
-0.00596867
0.00771745
-0.00594331
0.00794807
-0.00588787
0.00817266
-0.00580777
0.00839209
-0.00570792
0.00860719
-0.00559266
0.00881873
-0.00546581
0.00902743
-0.00533071
0.00923396
-0.00519039
0.00943909
-0.0050465
-0.00489824
0.00964411
2.47799e-05
0.000849818
9.07372e-05
0.00219727
0.000191917
0.00326504
0.000323439
0.00403739
0.000481449
0.00452476
0.000663
0.0047515
0.00086595
0.0047473
0.00108878
0.00454358
0.00133038
0.00417165
0.00158978
0.00366163
0.00186598
0.00304201
0.00215777
0.0023395
0.0024636
0.00157909
0.00278155
0.000784037
0.00310935
-2.41552e-05
0.00344442
-0.000825883
0.00378397
-0.00160366
0.00412512
-0.00234241
0.00446506
-0.00302968
0.00480118
-0.0036558
0.00513116
-0.00421396
0.00545307
-0.00470013
0.00576545
-0.00511285
0.00606729
-0.00545299
0.00635805
-0.00572334
0.0066376
-0.00592818
0.00690616
-0.00607288
0.00716425
-0.00616351
0.00741263
-0.00620647
0.00765218
-0.00620822
0.00788389
-0.00617502
0.00810877
-0.00611275
0.00832782
-0.00602682
0.008542
-0.00592209
0.00875218
-0.00580285
0.00895918
-0.00567281
0.00916372
-0.00553525
0.00936648
-0.00539315
0.00956821
-0.00524823
-0.00510024
0.00977022
2.47801e-05
0.000825038
9.1958e-05
0.00213009
0.00019619
0.00316081
0.000332889
0.00390069
0.000498246
0.0043594
0.000689191
0.00456056
0.000903346
0.00453315
0.00113888
0.00430804
0.00139434
0.0039162
0.00166837
0.00338759
0.00195961
0.00275077
0.00226645
0.00203267
0.00258696
0.00125858
0.00291887
0.000452125
0.00325957
-0.000364852
0.00360617
-0.00117248
0.00395564
-0.00195313
0.00430493
-0.0026917
0.00465112
-0.00337587
0.00499157
-0.00399625
0.00532402
-0.00454641
0.00564666
-0.00502276
0.00595818
-0.00542437
0.00625779
-0.0057526
0.00654517
-0.00601072
0.00682043
-0.00620344
0.00708403
-0.00633648
0.00733671
-0.00641619
0.00757941
-0.00644918
0.0078132
-0.00644201
0.00803921
-0.00640102
0.00825855
-0.00633209
0.00847233
-0.0062406
0.00868155
-0.00613131
0.00888715
-0.00600844
0.00908995
-0.00587562
0.0092907
-0.005736
0.00949007
-0.00559252
0.0096888
-0.00544696
-0.00529961
0.00988816
2.4635e-05
0.000800403
9.26895e-05
0.00206204
0.000199498
0.003054
0.000340817
0.00375937
0.000512931
0.00418729
0.000712684
0.00436081
0.00093749
0.00430834
0.00118523
0.0040603
0.00145409
0.00364733
0.00174238
0.00309931
0.0020483
0.00244485
0.00236985
0.00171112
0.00270471
0.000923718
0.00305022
0.000106616
0.0034034
-0.000718039
0.00376108
-0.00153016
0.00411996
-0.00231201
0.00447683
-0.00304857
0.00482869
-0.00372773
0.00517288
-0.00434044
0.00550721
-0.00488074
0.00583001
-0.00534557
0.00614017
-0.00573453
0.00643712
-0.00604955
0.00672079
-0.00629439
0.00699152
-0.00647417
0.00725002
-0.00659498
0.00749724
-0.00666341
0.00773431
-0.00668625
0.00796247
-0.00667017
0.00818296
-0.00662151
0.00839701
-0.00654615
0.00860581
-0.00644939
0.00881041
-0.00633591
0.00901177
-0.00620981
0.00921076
-0.00607461
0.00940811
-0.00593335
0.00960447
-0.00578889
0.00980059
-0.00564308
-0.00549674
0.00999773
2.43703e-05
0.000776032
9.30116e-05
0.00199339
0.000201985
0.00294503
0.000347434
0.00361392
0.000525775
0.00400895
0.000733802
0.00415278
0.000968745
0.0040734
0.00122821
0.00380084
0.00151005
0.00336549
0.00181218
0.00279718
0.0021324
0.00212463
0.00246829
0.00137523
0.0028171
0.000574906
0.00317577
-0.000252053
0.00354096
-0.00108322
0.00390915
-0.00189835
0.00427684
-0.0026797
0.00464063
-0.00341237
0.00499746
-0.00408456
0.00534471
-0.00468768
0.00568026
-0.00521629
0.00600263
-0.00566793
0.0063109
-0.00604281
0.00660476
-0.00634341
0.00688439
-0.00657401
0.00715037
-0.00674016
0.00740365
-0.00684826
0.00764539
-0.00690515
0.00787691
-0.00691777
0.00809958
-0.00689284
0.00831478
-0.00683671
0.00852383
-0.00675521
0.00872797
-0.00665352
0.00892829
-0.00653624
0.00912581
-0.00640733
0.00932136
-0.00627016
0.00951569
-0.00612768
0.00970946
-0.00598266
0.00990338
-0.00583699
-0.00569203
0.0100987
2.40135e-05
0.000752019
9.30101e-05
0.0019244
0.000203809
0.00283423
0.000352973
0.00346475
0.000537084
0.00382484
0.000752913
0.00393695
0.00099753
0.00382878
0.00126828
0.00353008
0.00156268
0.0030711
0.00187825
0.00248161
0.00221238
0.0017905
0.00256218
0.00102542
0.00292449
0.000212605
0.00329579
-0.00062336
0.00367238
-0.00145982
0.00405044
-0.00227641
0.00442621
-0.00305546
0.00479616
-0.00378233
0.0051572
-0.0044456
0.00550674
-0.00503722
0.0058428
-0.00555236
0.00616409
-0.00598922
0.00646993
-0.00634865
0.00676026
-0.00663374
0.00703552
-0.00684926
0.00729655
-0.00700119
0.00754452
-0.00709623
0.0077808
-0.00714144
0.00800687
-0.00714384
0.00822425
-0.00711022
0.00843442
-0.00704688
0.00863877
-0.00695956
0.00883859
-0.00685334
0.00903501
-0.00673267
0.00922904
-0.00660136
0.00942155
-0.00646266
0.00961326
-0.00631939
0.00980482
-0.00617422
0.00999692
-0.00602909
-0.00588588
0.0101908
2.35931e-05
0.000728426
9.27746e-05
0.00185522
0.000205136
0.00272187
0.000357684
0.00331221
0.000547188
0.00363534
0.000770422
0.00371372
0.00102431
0.00357489
0.00130595
0.00324845
0.00161251
0.00276453
0.00194112
0.002153
0.00228873
0.0014429
0.00265198
0.000662167
0.00302724
-0.000162652
0.00341057
-0.00100669
0.00379788
-0.00184712
0.00418502
-0.00266356
0.00456804
-0.00343848
0.0049433
-0.00415759
0.00530769
-0.00480998
0.00565869
-0.00538822
0.0059945
-0.00588818
0.00631404
-0.00630876
0.00661689
-0.0066515
0.00690325
-0.0069201
0.00717382
-0.00711984
0.00742972
-0.00725709
0.00767232
-0.00733883
0.00790319
-0.00737231
0.00812397
-0.00736462
0.00833628
-0.00732253
0.00854169
-0.0072523
0.00874167
-0.00715953
0.00893752
-0.00704919
0.00913041
-0.00692556
0.00932135
-0.0067923
0.00951119
-0.0066525
0.00970066
-0.00650885
0.00989038
-0.00636394
0.010081
-0.00621975
-0.00607866
0.0102738
2.31385e-05
0.000705287
9.23964e-05
0.00178596
0.000206138
0.00260813
0.000361826
0.00315652
0.000556435
0.00344073
0.000786753
0.0034834
0.00104957
0.00331207
0.00134175
0.00295628
0.0016601
0.00244617
0.00200135
0.00181175
0.00236198
0.00108228
0.00273815
0.000285991
0.00312575
-0.000550253
0.00352041
-0.00140135
0.00391763
-0.00224434
0.00431299
-0.00305892
0.00470233
-0.00382782
0.00508194
-0.0045372
0.00544873
-0.00517677
0.00580031
-0.0057398
0.00613507
-0.00622294
0.00645216
-0.00662585
0.00675145
-0.00695079
0.00703342
-0.00720207
0.00729904
-0.00738546
0.00754965
-0.0075077
0.00778686
-0.00757604
0.0080124
-0.00759785
0.00822805
-0.00758026
0.00843553
-0.00753002
0.0086365
-0.00745326
0.00883244
-0.00735547
0.00902469
-0.00724144
0.00921442
-0.0071153
0.00940264
-0.00698052
0.00959018
-0.00684004
0.00977776
-0.00669643
0.00996599
-0.00655217
0.0101555
-0.00640929
-0.00627068
0.0103476
2.26791e-05
0.000682608
9.1967e-05
0.00171667
0.000206988
0.00249311
0.000365664
0.00299784
0.000565177
0.00324121
0.000802339
0.00324624
0.00107382
0.00304059
0.00137622
0.00265387
0.00170602
0.00211637
0.0020595
0.00145827
0.00243266
0.00070912
0.00282117
-0.000102522
0.00322042
-0.000949503
0.00362559
-0.00180651
0.00403182
-0.00265057
0.0044344
-0.00346151
0.00482903
-0.00422245
0.00521196
-0.00492012
0.00558014
-0.00554496
0.00593137
-0.00609103
0.00626425
-0.00655582
0.0065782
-0.0069398
0.00687338
-0.00724597
0.00715055
-0.00747924
0.00741095
-0.00764586
0.00765617
-0.00775292
0.00788799
-0.00780787
0.00810832
-0.00781818
0.00831904
-0.00779099
0.00852198
-0.00773295
0.00871881
-0.00765009
0.00891106
-0.00754772
0.00910008
-0.00743046
0.00928703
-0.00730224
0.00947288
-0.00716637
0.00965846
-0.00702563
0.00984447
-0.00688244
0.0100315
-0.00673922
0.0102202
-0.00659802
-0.00646226
0.0104118
2.22438e-05
0.000660364
9.15755e-05
0.00164734
0.000207857
0.00237683
0.000369455
0.00283624
0.000573758
0.00303691
0.000817605
0.00300239
0.00109754
0.00276065
0.00140991
0.00234151
0.00175082
0.00177546
0.00211611
0.00109298
0.00250127
0.000323959
0.00290147
-0.000502718
0.00331158
-0.00135962
0.00372635
-0.00222129
0.00414057
-0.00306479
0.0045493
-0.00387023
0.0049481
-0.00462125
0.00533322
-0.00530525
0.00570175
-0.00591349
0.00605166
-0.00644094
0.00638182
-0.00688598
0.00669195
-0.00724993
0.00698248
-0.00753651
0.00725448
-0.00775124
0.00750945
-0.00790083
0.00774919
-0.00799265
0.00797568
-0.00803436
0.00819094
-0.00803344
0.00839697
-0.00799702
0.00859564
-0.00793162
0.00878867
-0.00784312
0.0089776
-0.00773665
0.00916375
-0.00761661
0.00934826
-0.00748676
0.00953209
-0.0073502
0.00971603
-0.00720957
0.00990076
-0.00706716
0.0100869
-0.00692533
0.010275
-0.00678617
-0.00665361
0.0104664
2.18595e-05
0.000638504
9.1307e-05
0.00157789
0.000208907
0.00225923
0.000373445
0.00267171
0.000582509
0.00282785
0.000832958
0.00275194
0.0011212
0.0024724
0.00144331
0.0020194
0.001795
0.00142377
0.00217165
0.000716334
0.00256824
-7.26275e-05
0.0029794
-0.000913872
0.0033995
-0.00177973
0.00382287
-0.00264466
0.00424397
-0.00348588
0.00465765
-0.00428392
0.00505942
-0.00502302
0.00544558
-0.00569141
0.00581337
-0.00628127
0.00616099
-0.00678856
0.00648759
-0.00721259
0.00679322
-0.00755555
0.00707862
-0.00782191
0.00734512
-0.00801775
0.00759448
-0.00815018
0.0078287
-0.00822688
0.00804993
-0.00825559
0.00826031
-0.00824382
0.0084619
-0.00819861
0.00865662
-0.00812635
0.0088462
-0.0080327
0.00903216
-0.0079226
0.0092158
-0.00780025
0.00939822
-0.00766918
0.00958035
-0.00753232
0.00976293
-0.00739215
0.00994661
-0.00725084
0.010132
-0.0071107
0.0103197
-0.0069739
-0.00684488
0.010511
2.15509e-05
0.000616952
9.12401e-05
0.0015082
0.000210285
0.00214018
0.000377861
0.00250413
0.000591734
0.00261398
0.000848769
0.0024949
0.00114522
0.00217595
0.00147687
0.00168776
0.00183902
0.00106162
0.00222656
0.000328792
0.00263394
-0.000480004
0.00305524
-0.00133518
0.00348437
-0.00220885
0.00391523
-0.00307552
0.004342
-0.00391265
0.00475939
-0.00470131
0.00516287
-0.00542651
0.00554886
-0.0060774
0.00591479
-0.00664721
0.00625915
-0.00713291
0.0065814
-0.00753484
0.0068819
-0.00785605
0.0071617
-0.00810171
0.00742242
-0.00827846
0.00766603
-0.0083938
0.00789475
-0.0084556
0.00811084
-0.00847168
0.00831655
-0.00844952
0.00851398
-0.00839604
0.00870508
-0.00831744
0.00889156
-0.00821918
0.00907491
-0.00810596
0.0092564
-0.00798174
0.00943708
-0.00784986
0.0096178
-0.00771305
0.00979927
-0.00757362
0.0099821
-0.00743367
0.0101669
-0.00729547
0.0103543
-0.00716128
-0.00703611
0.0105455
2.13402e-05
0.000595612
9.14453e-05
0.00143809
0.000212127
0.0020195
0.000382907
0.00233335
0.000601706
0.00239518
0.000865367
0.00223124
0.00116997
0.00187135
0.00151096
0.00134677
0.00188323
0.000689347
0.00228115
-6.91256e-05
0.00269861
-0.000897468
0.00312918
-0.00176575
0.00356628
-0.00264595
0.00400344
-0.00351268
0.00443459
-0.00434381
0.00485436
-0.00512108
0.00525826
-0.00583041
0.00564286
-0.006462
0.00600584
-0.00701019
0.00634599
-0.00747307
0.00666312
-0.00785197
0.0069579
-0.00815083
0.0072317
-0.00837551
0.0074864