/*--------------------------------*- C++ -*----------------------------------*\
  =========                 |
  \\      /  F ield         | OpenFOAM: The Open Source CFD Toolbox
   \\    /   O peration     | Website:  https://openfoam.org
    \\  /    A nd           | Version:  7
     \\/     M anipulation  |
\*---------------------------------------------------------------------------*/
FoamFile
{
    version     2.0;
    format      ascii;
    class       surfaceScalarField;
    location    "3.8";
    object      phi;
}
// * * * * * * * * * * * * * * * * * * * * * * * * * * * * * * * * * * * * * //

dimensions      [0 3 -1 0 0 0 0];

internalField   nonuniform List<scalar> 
63520
(
-1.74879e-05
0.00039393
-0.000376442
-5.86169e-05
0.00112166
-0.00108053
-0.000117539
0.00180327
-0.00174435
-0.000189446
0.00242028
-0.00234837
-0.000270309
0.00296935
-0.00288849
-0.000356632
0.00345381
-0.00336749
-0.000445359
0.00387944
-0.00379071
-0.000533814
0.00425253
-0.00416408
-0.00061967
0.00457911
-0.00449325
-0.000700923
0.00486424
-0.00478298
-0.00077586
0.00511196
-0.00503702
-0.000843045
0.00532532
-0.00525813
-0.000901273
0.0055065
-0.00544827
-0.000949534
0.00565705
-0.00560879
-0.000986991
0.00577814
-0.00574068
-0.00101295
0.00587071
-0.00584475
-0.00102682
0.00593566
-0.00592178
-0.00102814
0.00597393
-0.00597261
-0.00101651
0.00598659
-0.00599821
-0.000991624
0.00597484
-0.00599973
-0.000953225
0.00594006
-0.00597846
-0.000901123
0.00588379
-0.00593589
-0.000835194
0.00580771
-0.00587364
-0.000755371
0.00571365
-0.00579348
-0.000661635
0.00560351
-0.00569725
-0.000554021
0.00547927
-0.00558689
-0.00043263
0.00534293
-0.00546432
-0.000297633
0.00519651
-0.00533151
-0.000149269
0.00504205
-0.00519041
1.21482e-05
0.00488152
-0.00504294
0.000186218
0.00471688
-0.00489095
0.000372439
0.00455002
-0.00473625
0.000570201
0.0043828
-0.00458056
0.00077876
0.004217
-0.00442556
0.00099722
0.00405436
-0.00427282
0.00122449
0.00389658
-0.00412385
0.00145924
0.00374534
-0.00398009
0.00169986
0.00360215
-0.00384277
0.00194438
0.00347038
-0.0037149
0.00335469
0.00219035
-0.00360066
-1.67873e-05
0.000410718
-5.62464e-05
0.00116112
-0.000112832
0.00185986
-0.000182047
0.00248949
-0.000260093
0.00304739
-0.000343646
0.00353737
-0.000429765
0.00396556
-0.000515843
0.00433861
-0.000599574
0.00466284
-0.000678965
0.00494363
-0.000752315
0.00518531
-0.000818175
0.00539118
-0.000875318
0.00556364
-0.000922712
0.00570444
-0.000959497
0.00581492
-0.000984946
0.00589615
-0.000998447
0.00594916
-0.000999493
0.00597498
-0.000987656
0.00597475
-0.000962575
0.00594976
-0.000923959
0.00590145
-0.000871581
0.00583141
-0.000805263
0.00574139
-0.000724883
0.00563327
-0.000630377
0.00550901
-0.000521748
0.00537064
-0.000399058
0.00522024
-0.000262439
0.0050599
-0.0001121
0.00489171
5.16674e-05
0.00471775
0.00022848
0.00454006
0.000417853
0.00436065
0.000619188
0.00418147
0.00083175
0.00400444
0.00105465
0.00383146
0.00128679
0.00366444
0.00152683
0.0035053
0.00177311
0.00335587
0.00202358
0.00321991
0.0031026
0.00227567
-1.59202e-05
0.000426638
-5.33367e-05
0.00119854
-0.00010709
0.00191361
-0.000173001
0.0025554
-0.00024753
0.00312192
-0.000327547
0.00361738
-0.00041023
0.00404824
-0.000493068
0.00442145
-0.000573802
0.00474357
-0.000650458
0.00502028
-0.00072133
0.00525618
-0.000784954
0.0054548
-0.000840091
0.00561878
-0.000885693
0.00575005
-0.000920874
0.0058501
-0.000944883
0.00592016
-0.000957082
0.00596136
-0.000956926
0.00597482
-0.000943951
0.00596177
-0.000917764
0.00592357
-0.000878033
0.00586171
-0.000824486
0.00577786
-0.000756911
0.00567382
-0.000675151
0.00555151
-0.000579104
0.00541296
-0.000468728
0.00526027
-0.000344055
0.00509557
-0.000205195
0.00492104
-5.23374e-05
0.00473885
0.000114246
0.00455117
0.00029419
0.00436012
0.000487024
0.00416782
0.000692161
0.00397633
0.000908882
0.00378772
0.00113631
0.00360403
0.00137335
0.0034274
0.00161868
0.00325998
0.0018706
0.00310394
0.00212704
0.00296347
0.00284436
0.00238528
-1.48867e-05
0.000441525
-4.99573e-05
0.00123361
-0.000100425
0.00196408
-0.000162466
0.00261744
-0.00023281
0.00319227
-0.000308543
0.00369312
-0.000386992
0.00412669
-0.000465736
0.00450019
-0.000542573
0.00482041
-0.000615555
0.00509327
-0.000682991
0.00532361
-0.000743412
0.00551522
-0.000795562
0.00567093
-0.000838378
0.00579286
-0.000870953
0.00588268
-0.00089251
0.00594172
-0.000902384
0.00597123
-0.000900007
0.00597245
-0.000884885
0.00594665
-0.000856586
0.00589527
-0.000814749
0.00581988
-0.000759075
0.00572219
-0.000689316
0.00560406
-0.000605277
0.00546747
-0.000506827
0.00531451
-0.000393903
0.00514734
-0.000266517
0.00496818
-0.000124757
0.00477927
3.12066e-05
0.00458289
0.000201113
0.00438126
0.000384606
0.00417663
0.000581226
0.0039712
0.000790401
0.00376716
0.00101143
0.00356669
0.00124345
0.00337202
0.0014854
0.00318545
0.00173596
0.00300941
0.00199348
0.00284643
0.00225582
0.00270113
0.00258001
0.00252017
-1.37225e-05
0.000455247
-4.61267e-05
0.00126601
-9.2856e-05
0.0020108
-0.000150456
0.00267504
-0.000215958
0.00325777
-0.000286665
0.00376382
-0.000360065
0.00420009
-0.000433842
0.00457397
-0.000505874
0.00489244
-0.000574248
0.00516164
-0.000637277
0.00538664
-0.000693497
0.00557144
-0.000741645
0.00571907
-0.00078064
0.00583186
-0.000809553
0.00591159
-0.000827593
0.00595976
-0.000834075
0.00597772
-0.000828402
0.00596677
-0.000810051
0.0059283
-0.000778574
0.0058638
-0.000733582
0.00577489
-0.000674746
0.00566335
-0.000601792
0.00553111
-0.000514508
0.00538019
-0.000412743
0.00521275
-0.000296415
0.00503101
-0.000165522
0.00483729
-2.0141e-05
0.00463389
0.000139563
0.00442318
0.000313336
0.00420749
0.000500828
0.00398914
0.000701587
0.00377044
0.00091505
0.00355369
0.00114053
0.00334121
0.0013772
0.00313535
0.00162404
0.00293861
0.00187977
0.00275368
0.00214275
0.00258345
0.00241087
0.00243301
0.00230964
0.00268123
-1.24241e-05
0.000467671
-4.18668e-05
0.00129546
-8.44407e-05
0.00205338
-0.000137076
0.00272768
-0.000197104
0.0033178
-0.000262068
0.00382878
-0.000329632
0.00426765
-0.000397596
0.00464193
-0.000463914
0.00495876
-0.000526721
0.00522445
-0.000584355
0.00544428
-0.000635352
0.00562244
-0.000678441
0.00576216
-0.000712532
0.00586595
-0.000736687
0.00593574
-0.000750093
0.00597317
-0.000752048
0.00597967
-0.000741936
0.00595666
-0.00071922
0.00590559
-0.000683428
0.005828
-0.000634156
0.00572561
-0.000571058
0.00560025
-0.000493845
0.00545389
-0.00040229
0.00528863
-0.000296232
0.00510669
-0.000175584
0.00491037
-4.03384e-05
0.00470204
0.000109428
0.00448413
0.000273552
0.00425906
0.000451778
0.00402926
0.000643752
0.00379716
0.000849026
0.00356517
0.00106705
0.00333567
0.00129715
0.00311111
0.00153852
0.00289397
0.0017902
0.00268693
0.00205097
0.00249292
0.00231925
0.00231517
0.00259295
0.00215931
0.00203344
0.00286915
-1.102e-05
0.000478691
-3.72359e-05
0.00132167
-7.52588e-05
0.0020914
-0.00012242
0.00277484
-0.000176374
0.00337175
-0.000234902
0.00388731
-0.000295854
0.0043286
-0.000357157
0.00470323
-0.000416858
0.00501846
-0.000473144
0.00528073
-0.000524376
0.00549551
-0.000569103
0.00566716
-0.000606057
0.00579912
-0.00063414
0.00589403
-0.000652399
0.005954
-0.000660014
0.00598078
-0.000656271
0.00597593
-0.000640539
0.00594093
-0.000612268
0.00587731
-0.000570979
0.00578671
-0.000516259
0.00567089
-0.000447752
0.00553175
-0.000365163
0.0053713
-0.000268263
0.00519173
-0.000156891
0.00499532
-3.09648e-05
0.00478444
0.000109519
0.00456156
0.000264477
0.00432917
0.000433737
0.0040898
0.000617033
0.00384597
0.000814004
0.00360019
0.0010242
0.00335497
0.00124707
0.0031128
0.00148196
0.00287622
0.0017281
0.00264783
0.00198457
0.00243046
0.00225023
0.00222726
0.00252359
0.00204181
0.00280263
0.00188027
0.00175166
0.00308441
-9.5309e-06
0.000488222
-3.22812e-05
0.00134442
-6.53937e-05
0.00212451
-0.000106617
0.00281606
-0.000153924
0.00341906
-0.00020535
0.00393874
-0.00025894
0.00438219
-0.000312758
0.00475705
-0.000364945
0.00507064
-0.000413752
0.00532954
-0.000457576
0.00553933
-0.000494983
0.00570457
-0.00052471
0.00582884
-0.000545655
0.00591498
-0.000556863
0.00596521
-0.000557507
0.00598143
-0.000546864
0.00596528
-0.000524297
0.00591836
-0.000489252
0.00584227
-0.000441252
0.00573871
-0.000379882
0.00560952
-0.000304785
0.00545665
-0.000215671
0.00528219
-0.000112319
0.00508838
5.42011e-06
0.00487758
0.000137617
0.00465224
0.000284258
0.00441492
0.000445246
0.00416818
0.000620388
0.00391466
0.000809403
0.00365695
0.00101192
0.00339768
0.00122747
0.00313942
0.0014555
0.00288477
0.00169537
0.00263634
0.00194635
0.00239685
0.00220756
0.00216924
0.00247796
0.00195686
0.00275614
0.00176363
0.00304021
0.0015962
0.00146459
0.00332727
-7.97231e-06
0.000496194
-2.70585e-05
0.00136351
-5.49463e-05
0.0021524
-8.98067e-05
0.00285092
-0.000129942
0.00345919
-0.000173641
0.00398244
-0.00021915
0.0044277
-0.000264683
0.00480258
-0.000308481
0.00511444
-0.000348869
0.00536993
-0.000384285
0.00557475
-0.000413323
0.00573361
-0.000434728
0.00585025
-0.000447403
0.00592765
-0.000450395
0.0059682
-0.000442873
0.00597391
-0.000424113
0.00594652
-0.000393481
0.00588773
-0.00035043
0.00579922
-0.000294487
0.00568277
-0.000225244
0.00554028
-0.000142357
0.00537376
-4.55502e-05
0.00518538
6.53787e-05
0.00497745
0.000190558
0.0047524
0.000330035
0.00451277
0.000483773
0.00426118
0.000651647
0.00400031
0.000833442
0.00373286
0.00102885
0.00346154
0.00123747
0.00318905
0.00145883
0.00291806
0.00169237
0.00265124
0.00193744
0.00239127
0.00219334
0.00214095
0.00245926
0.00190333
0.00273422
0.00168191
0.00301695
0.0014809
0.0033057
0.00130745
0.00117262
0.00359767
-6.36193e-06
0.000502556
-2.16251e-05
0.00137877
-4.4025e-05
0.0021748
-7.2153e-05
0.00287905
-0.00010464
0.00349168
-0.000140037
0.00401783
-0.000176792
0.00446446
-0.000213275
0.00483907
-0.000247842
0.00514901
-0.000278894
0.00540098
-0.000304924
0.00560078
-0.000324556
0.00575324
-0.000336557
0.00586225
-0.000339838
0.00593093
-0.000333451
0.00596182
-0.000316572
0.00595703
-0.000288482
0.00591843
-0.000248558
0.00584781
-0.000196266
0.00574693
-0.000131147
0.00561765
-5.28102e-05
0.00546194
3.90681e-05
0.00528188
0.000144737
0.00507971
0.000264369
0.00485782
0.000398064
0.0046187
0.000545837
0.00436499
0.000707616
0.0040994
0.000883241
0.00382468
0.00107247
0.00354364
0.00127495
0.00325906
0.00149027
0.00297373
0.00171792
0.00269041
0.00195732
0.00241184
0.00220783
0.00214076
0.00246876
0.00188002
0.00273935
0.00163274
0.00301871
0.00140254
0.00330572
0.00119389
0.00359877
0.00101439
0.000876164
0.00389523
-4.71855e-06
0.000507274
-1.60424e-05
0.00139009
-3.27463e-05
0.0021915
-5.38334e-05
0.00290014
-7.82598e-05
0.00351611
-0.000104835
0.00404441
-0.000132217
0.00449184
-0.000158936
0.00486579
-0.000183471
0.00517354
-0.000204308
0.00542181
-0.000220006
0.00561648
-0.000229228
0.00576246
-0.000230766
0.00586379
-0.000223549
0.00592372
-0.000206645
0.00594491
-0.000179237
0.00592962
-0.000140623
0.00587982
-9.01974e-05
0.00579738
-2.74481e-05
0.00568418
4.8062e-05
0.00554214
0.000136698
0.00537331
0.00023875
0.00517983
0.00035443
0.00496403
0.000483878
0.00472837
0.00062715
0.00447543
0.000784218
0.00420793
0.000954969
0.00392865
0.00113921
0.00364045
0.00133664
0.00334621
0.00154688
0.00304881
0.00176948
0.00275113
0.0020039
0.00245599
0.00224954
0.0021662
0.00250575
0.00188455
0.00277184
0.00161393
0.00304709
0.00135749
0.00333071
0.00111893
0.0036217
0.000902904
0.00391866
0.000717433
0.000575667
0.00421916
-3.05976e-06
0.000510334
-1.03741e-05
0.00139741
-2.12344e-05
0.00220236
-3.50385e-05
0.00291394
-5.10589e-05
0.00353213
-6.83631e-05
0.00406171
-8.58169e-05
0.00450929
-0.000102119
0.00488209
-0.000115875
0.0051873
-0.000125672
0.00543161
-0.000130139
0.00562094
-0.000127988
0.00576031
-0.000118046
0.00585385
-9.9269e-05
0.00590494
-7.07427e-05
0.00591639
-3.16731e-05
0.00589055
1.86237e-05
0.00582952
8.07223e-05
0.00573528
0.000155108
0.00560979
0.000242187
0.00545506
0.000342288
0.00527321
0.000455657
0.00506646
0.000582465
0.00483723
0.000722802
0.00458803
0.000876674
0.00432156
0.00104401
0.00404059
0.00122464
0.00374802
0.00141831
0.00344677
0.0016247
0.00313982
0.00184338
0.00283014
0.00207384
0.00252067
0.00231551
0.00221432
0.00256776
0.00191395
0.00282993
0.00162238
0.00310133
0.00134253
0.00338125
0.00107756
0.003669
0.000831187
0.00396369
0.000608209
0.00426416
0.000416966
0.000271615
0.00456821
-1.40602e-06
0.00051174
-4.68656e-06
0.00140069
-9.61738e-06
0.0022073
-1.59686e-05
0.00292029
-2.33155e-05
0.00353947
-3.09758e-05
0.00406937
-3.80213e-05
0.00451634
-4.33236e-05
0.00488739
-4.56257e-05
0.0051896
-4.36215e-05
0.00542961
-3.60192e-05
0.00561334
-2.15913e-05
0.00574588
7.90786e-07
0.00583146
3.21367e-05
0.00587359
7.3333e-05
0.00587519
0.000125146
0.00583874
0.000188225
0.00576644
0.000263111
0.00566039
0.000350256
0.00552265
0.000450024
0.0053553
0.000562696
0.00516053
0.000688469
0.00494069
0.00082746
0.00469823
0.000979703
0.00443579
0.00114515
0.00415612
0.00132366
0.00386208
0.00151502
0.00355665
0.00171893
0.00324286
0.00193499
0.00292376
0.00216273
0.0026024
0.0024016
0.0022818
0.00265099
0.00196494
0.00291022
0.00165471
0.00317861
0.00135399
0.00345546
0.00106568
0.0037401
0.000792924
0.00403185
0.000539434
0.00432999
0.000310062
0.00463357
0.000113392
-3.54994e-05
0.00494068
2.24877e-07
0.000511515
9.53652e-07
0.00139996
1.97282e-06
0.00220628
3.16735e-06
0.0029191
4.67995e-06
0.00353796
6.95264e-06
0.0040671
1.07099e-05
0.00451258
1.69053e-05
0.00488119
2.66521e-05
0.00517985
4.11411e-05
0.00541512
6.15735e-05
0.00559291
8.91075e-05
0.00571835
0.000124817
0.00579575
0.000169669
0.00582874
0.000224511
0.00582035
0.000290071
0.00577318
0.000366958
0.00568956
0.000455674
0.00557168
0.000556623
0.0054217
0.00067012
0.0052418
0.000796392
0.00503426
0.000935576
0.0048015
0.00108773
0.00454608
0.00125282
0.0042707
0.00143073
0.0039782
0.00162127
0.00367154
0.00182416
0.00335377
0.00203902
0.003028
0.00226541
0.00269736
0.0025028
0.002365
0.00275059
0.00203401
0.00300812
0.00170741
0.00327468
0.00138815
0.00354954
0.00107912
0.003832
0.000783225
0.00412137
0.00050355
0.00441705
0.000243759
0.00471841
8.70037e-06
0.00502471
-0.000192908
-0.000345182
0.00533439
1.80934e-06
0.000509706
6.47903e-06
0.00139529
1.3403e-05
0.00219935
2.21575e-05
0.00291034
3.26284e-05
0.00352749
4.50314e-05
0.0040547
5.98924e-05
0.00449772
7.79896e-05
0.0048631
0.000100287
0.00515755
0.000127851
0.00538755
0.000161784
0.00555898
0.000203164
0.00567697
0.000253001
0.00574592
0.000312205
0.00576954
0.000381577
0.00575098
0.000461797
0.00569296
0.000553427
0.00559793
0.000656917
0.00546819
0.000772619
0.005306
0.00090079
0.00511363
0.00104159
0.00489346
0.0011951
0.004648
0.00136129
0.00437989
0.00154008
0.00409192
0.00173127
0.00378701
0.00193459
0.00346821
0.0021497
0.00313866
0.00237617
0.00280153
0.00261348
0.00246006
0.00286104
0.00211744
0.0031182
0.00177685
0.00338425
0.00144136
0.00365845
0.00111396
0.00394002
0.000797555
0.00422822
0.000495022
0.00452238
0.000209395
0.00482189
-5.57597e-05
0.00512626
-0.000295664
0.00543493
-0.000501575
-0.000656948
0.00574669
3.32893e-06
0.000506376
1.18232e-05
0.0013868
2.45409e-05
0.00218663
4.07895e-05
0.00289409
6.02275e-05
0.00350805
8.28615e-05
0.00403206
0.000109026
0.00447156
0.000139325
0.0048328
0.00017457
0.00512231
0.000215696
0.00534643
0.000263696
0.00551098
0.000319558
0.00562111
0.000384214
0.00568126
0.000458512
0.00569524
0.000543192
0.0056663
0.000638878
0.00559727
0.000746073
0.00549073
0.000865171
0.00534909
0.000996462
0.0051747
0.00114014
0.00496995
0.00129628
0.00473731
0.0014649
0.00447938
0.00164591
0.00419888
0.00183912
0.0038987
0.00204429
0.00358185
0.00226105
0.00325145
0.002489
0.00291071
0.00272763
0.0025629
0.00297636
0.00221133
0.00323454
0.00185926
0.00350146
0.00150993
0.00377637
0.00116646
0.00405845
0.000831874
0.00434692
0.000509089
0.00464099
0.000200954
0.00493996
-8.95735e-05
0.00524325
-0.000359053
0.00555043
-0.00060284
0.00586113
-0.000812277
-0.000970332
0.00617451
4.76399e-06
0.000501612
1.69222e-05
0.00137464
3.52579e-05
0.0021683
5.88552e-05
0.0028705
8.71776e-05
0.00347973
0.000120043
0.0039992
0.000157603
0.004434
0.000200293
0.00479011
0.000248768
0.00507384
0.000303826
0.00529137
0.000366342
0.00544846
0.000437203
0.00555025
0.000517255
0.00560121
0.000607267
0.00560523
0.000707911
0.00556565
0.000819743
0.00548544
0.000943202
0.00536727
0.00107861
0.00521368
0.0012262
0.00502712
0.00138608
0.00481008
0.00155826
0.00456513
0.00174266
0.00429497
0.00193912
0.00400242
0.00214738
0.00369044
0.0023671
0.00336213
0.00259785
0.00302069
0.00283914
0.00266942
0.00309039
0.00231165
0.00335095
0.00195076
0.00362012
0.00159009
0.00389711
0.00123293
0.00418113
0.000882444
0.00447131
0.000541688
0.00476682
0.000213579
0.00506684
-9.90638e-05
0.00537064
-0.000393371
0.00567764
-0.000666053
0.00598745
-0.000912651
0.00629987
-0.0011247
-0.0012849
0.00661444
6.09612e-06
0.000495516
2.17156e-05
0.00135902
4.5432e-05
0.00214458
7.61549e-05
0.00283977
0.000113188
0.0034427
0.000156181
0.0039562
0.00020512
0.00438506
0.000260273
0.00473496
0.000322138
0.00501197
0.000391374
0.00522213
0.000468728
0.00537111
0.000554977
0.005464
0.000650867
0.00550532
0.000757081
0.00549901
0.000874209
0.00544852
0.00100273
0.00535692
0.00114302
0.00522699
0.00129531
0.00506138
0.00145976
0.00486267
0.0016364
0.00463344
0.00182516
0.00437638
0.00202587
0.00409425
0.0022383
0.00379
0.00246209
0.00346665
0.00269681
0.00312741
0.00294198
0.00277553
0.003197
0.0024144
0.00346123
0.00204742
0.00373395
0.00167804
0.00401437
0.00130967
0.00430168
0.000945625
0.00459499
0.000589131
0.00489341
0.000243263
0.00519606
-8.90655e-05
0.00550207
-0.000405072
0.00581068
-0.000701982
0.0061213
-0.000976674
0.00643357
-0.00122492
0.00674744
-0.00143857
-0.00160022
0.00706276
7.30864e-06
0.000488207
2.61482e-05
0.00134018
5.49502e-05
0.00211578
9.25019e-05
0.00280222
0.000137982
0.00339722
0.0001909
0.00390328
0.000251087
0.00432487
0.000318654
0.00466739
0.000393945
0.00493668
0.000477472
0.00513861
0.000569851
0.00527873
0.000671737
0.00536211
0.000783767
0.00539329
0.000906528
0.00537625
0.00104052
0.00531453
0.00118613
0.0052113
0.00134365
0.00506947
0.00151325
0.00489178
0.00169498
0.00468094
0.00188879
0.00443963
0.00209454
0.00417063
0.00231196
0.00387683
0.00254072
0.00356123
0.0027804
0.00322698
0.00303047
0.00287733
0.00329035
0.00251564
0.00355939
0.00214536
0.00383685
0.00176996
0.00412194
0.00139295
0.00441382
0.0010178
0.00471158
0.000647863
0.0050143
0.000286408
0.00532104
-6.34742e-05
0.00563085
-0.000398877
0.00594284
-0.000717061
0.00625621
-0.00101535
0.00657034
-0.00129081
0.0068849
-0.00153948
0.00719992
-0.00175359
-0.0019159
0.00751559
8.38714e-06
0.00047982
3.01712e-05
0.00131839
6.37117e-05
0.00208224
0.000107726
0.00275821
0.000161306
0.00334364
0.000223847
0.00384074
0.000295042
0.00425367
0.000374855
0.00458757
0.000463477
0.00484806
0.000561275
0.00504081
0.000668725
0.00517128
0.000786353
0.00524448
0.000914681
0.00526496
0.00105418
0.00523675
0.00120526
0.00516346
0.00136821
0.00504835
0.00154323
0.00489445
0.0017304
0.00470462
0.00192969
0.00448165
0.00214094
0.00422837
0.00236393
0.00394764
0.00259831
0.00364245
0.00284366
0.00331589
0.00309944
0.0029712
0.00336507
0.0026117
0.00363987
0.00224084
0.00392311
0.00186213
0.00421395
0.00147911
0.00451154
0.00109536
0.00481496
0.000714376
0.00512325
0.000339575
0.00543542
-2.57581e-05
0.00575046
-0.000378519
0.0060674
-0.000715814
0.00638529
-0.00103495
0.0067033
-0.00133336
0.0070208
-0.0016083
0.00733743
-0.00185611
0.00765332
-0.00206948
-0.00223153
0.00796896
9.31991e-06
0.0004705
3.37436e-05
0.00129397
7.16302e-05
0.00204435
0.000121681
0.00270816
0.000182936
0.00328238
0.000254704
0.00376898
0.000336561
0.00417182
0.000428334
0.0044958
0.000530067
0.00474632
0.000641981
0.0049289
0.000764408
0.00504885
0.00089774
0.00511115
0.00104237
0.00512033
0.00119866
0.00508046
0.0013669
0.00499522
0.00154729
0.00486796
0.00173993
0.00470181
0.00194479
0.00449976
0.00216175
0.00426469
0.00239058
0.00399954
0.00263094
0.00370728
0.0028824
0.00339099
0.00314444
0.00305385
0.00341645
0.00269919
0.00369774
0.00233041
0.00398755
0.00195103
0.00428504
0.00156463
0.00458933
0.00117482
0.00489947
0.00078523
0.00521444
0.000399398
0.00553324
2.07804e-05
0.0058548
-0.000347317
0.00617807
-0.000701788
0.00650201
-0.00103976
0.00682565
-0.00135859
0.00714812
-0.00165584
0.00746876
-0.00192894
0.00778721
-0.00217456
0.00810366
-0.00238593
-0.00254672
0.00841885
1.00983e-05
0.000460402
3.68337e-05
0.00126723
7.86367e-05
0.00200255
0.000134243
0.00265255
0.000202681
0.00321394
0.000283199
0.00368846
0.000375275
0.00407974
0.000478612
0.00439247
0.000593115
0.00463182
0.000718859
0.00480315
0.000856033
0.00491168
0.00100489
0.0049623
0.00116569
0.00495953
0.00133866
0.00490748
0.001524
0.00480988
0.00172177
0.00467018
0.00193199
0.0044916
0.00215452
0.00427722
0.00238915
0.00403006
0.00263555
0.00375314
0.00289329
0.00344955
0.00316183
0.00312244
0.00344057
0.00277511
0.00372881
0.00241095
0.00402576
0.00203346
0.00433057
0.00164622
0.00464233
0.00125288
0.00496003
0.000857121
0.00528265
0.000462609
0.00560911
7.29361e-05
0.00593831
-0.000308416
0.00626912
-0.000678129
0.00660043
-0.0010331
0.00693117
-0.00137049
0.00726032
-0.00168774
0.00758698
-0.00198249
0.00791045
-0.00225242
0.0082304
-0.00249451
0.00854703
-0.00270256
-0.00286102
0.00886133
1.07168e-05
0.000449685
3.94201e-05
0.00123853
8.4682e-05
0.00195729
0.000145323
0.00259191
0.000220394
0.00313887
0.000309112
0.00359974
0.000410878
0.00397798
0.000525283
0.00427806
0.000652104
0.004505
0.000791272
0.00466398
0.000942834
0.00476012
0.0011069
0.00479824
0.00128359
0.00478284
0.00147302
0.00471805
0.00167524
0.00460766
0.00189022
0.0044552
0.00211786
0.00426397
0.00235792
0.00403716
0.00261009
0.00377789
0.00287394
0.00348929
0.00314894
0.00317454
0.00343448
0.00283691
0.00372983
0.00247976
0.00403421
0.00210657
0.00434674
0.00172093
0.00466647
0.00132649
0.00499237
0.000926973
0.00532337
0.000526119
0.00565834
0.000127637
0.00599612
-0.000264841
0.00633552
-0.000647812
0.00667534
-0.00101795
0.00701442
-0.00137219
0.00735164
-0.00170771
0.00768594
-0.00202204
0.00801641
-0.00231296
0.00834233
-0.00257834
0.00866336
-0.00281553
0.00897974
-0.00301894
-0.00317394
0.00929266
1.11733e-05
0.000438511
4.14924e-05
0.00120821
8.97377e-05
0.00190904
0.000154862
0.00252678
0.000235974
0.00305776
0.000332286
0.00350343
0.000443141
0.00386712
0.000568034
0.00415317
0.000706624
0.00436641
0.000858706
0.0045119
0.00102418
0.00459464
0.00120302
0.0046194
0.00139522
0.00459065
0.00160074
0.00451253
0.00181952
0.00438889
0.00205141
0.0042233
0.00229619
0.00401918
0.00255354
0.00377981
0.00282302
0.00350841
0.00310411
0.0032082
0.00339619
0.00288246
0.00369853
0.00253456
0.00401033
0.00216796
0.00433069
0.00178621
0.00465864
0.00139299
0.00499311
0.000992017
0.00533299
0.000587097
0.00567708
0.000182022
0.00602417
-0.000219453
0.006373
-0.000613666
0.00672228
-0.000997098
0.00707077
-0.00136644
0.00741722
-0.00171864
0.00776048
-0.00205097
0.00809946
-0.00236103
0.00843325
-0.00264674
0.00876111
-0.00290621
0.00908271
-0.00313713
0.00939833
-0.00333456
-0.00348495
0.00970934
1.1469e-05
0.000427042
4.30515e-05
0.00117663
9.37983e-05
0.00185829
0.00016284
0.00245774
0.000249373
0.00297123
0.000352632
0.00340017
0.000471921
0.00374783
0.000606657
0.00401843
0.000756389
0.00421668
0.000920786
0.00434751
0.00109961
0.00441581
0.0012927
0.00442631
0.0014999
0.00438345
0.00172106
0.00429137
0.00195598
0.00415397
0.00220439
0.00397489
0.00246595
0.00375762
0.00274025
0.00350552
0.00302673
0.00322192
0.00332478
0.00291015
0.00363368
0.00257357
0.00395259
0.00221565
0.00428061
0.00183994
0.00461672
0.00145009
0.00495986
0.00104985
0.00530884
0.000643039
0.00566242
0.000233511
0.00601932
-0.000174877
0.00637819
-0.000578327
0.00673768
-0.000973155
0.00709642
-0.00135584
0.00745308
-0.0017231
0.00780637
-0.00207193
0.00815509
-0.00239969
0.00849815
-0.00270409
0.00883463
-0.00298322
0.00916381
-0.0032354
0.00948538
-0.0034587
0.00979965
-0.00364883
-0.00379347
0.0101082
1.16089e-05
0.000415433
4.41103e-05
0.00114413
9.68821e-05
0.00180552
0.000169273
0.00238535
0.000260599
0.0028799
0.000370137
0.00329063
0.000497172
0.0036208
0.00064106
0.00387454
0.000801254
0.00405649
0.000977305
0.00417145
0.00116885
0.00422426
0.00137558
0.00421957
0.00159723
0.00416181
0.00183349
0.00405511
0.00208404
0.00390341
0.00234851
0.00371042
0.00262645
0.00347968
0.0029173
0.00321467
0.00322043
0.00291879
0.00353512
0.00259546
0.00386052
0.00224817
0.00419571
0.00188046
0.00453966
0.00149599
0.00489126
0.0010985
0.00524928
0.000691829
0.00561244
0.000279876
0.00597938
-0.000133426
0.00634868
-0.000544171
0.00671888
-0.000948526
0.00708851
-0.00134279
0.00745613
-0.00172346
0.00782032
-0.00208729
0.00817976
-0.00243136
0.00853321
-0.00275314
0.00887959
-0.00305047
0.00921798
-0.00332162
0.00954774
-0.00356515
0.00986856
-0.00377952
0.0101808
-0.0039611
-0.00409888
0.0104862
1.16016e-05
0.000403831
4.46935e-05
0.00111104
9.90318e-05
0.00175118
0.00017422
0.00231016
0.000269718
0.0027844
0.000384866
0.00317548
0.00051895
0.00348672
0.000671279
0.00372221
0.000841225
0.00388654
0.00102823
0.00398445
0.00123182
0.00402068
0.00145156
0.00399984
0.00168703
0.00392634
0.00193782
0.00380432
0.00220348
0.00363775
0.00248352
0.00343038
0.00277736
0.00318584
0.00308435
0.00290768
0.00340375
0.00259939
0.00373472
0.0022645
0.00407629
0.00190659
0.00442744
0.00152931
0.004787
0.00113643
0.00515372
0.000731776
0.00552627
0.000319285
0.0059032
-9.70558e-05
0.00628302
-0.000513247
0.00666418
-0.00092533
0.0070451
-0.00132944
0.0074242
-0.00172189
0.00779994
-0.0020992
0.00817086
-0.00245821
0.00853557
-0.00279608
0.00889286
-0.00311042
0.00924163
-0.00339924
0.00958105
-0.00366103
0.00991049
-0.0038946
0.0102297
-0.00409877
0.0105392
-0.0042706
-0.00440049
0.0108409
1.14592e-05
0.000392372
4.48375e-05
0.00107766
0.000100315
0.00169571
0.000177779
0.0022327
0.000276855
0.00268533
0.000396964
0.00305537
0.000537412
0.00334627
0.000697479
0.00356215
0.000876467
0.00370755
0.00107373
0.00378718
0.00128868
0.00380573
0.00152075
0.00376776
0.00176943
0.00367766
0.00203417
0.00353959
0.0023144
0.00335752
0.0026095
0.00313528
0.00291879
0.00287655
0.00324151
0.00258496
0.00357678
0.00226411
0.00392365
0.00191763
0.00428105
0.00154919
0.00464778
0.00116258
0.00502257
0.000761642
0.00540401
0.000350334
0.00579061
-6.73132e-05
0.00618078
-0.000487228
0.00657287
-0.000905344
0.00696521
-0.00131766
0.00735607
-0.00172031
0.00774377
-0.0021096
0.00812671
-0.00248214
0.00850334
-0.00283484
0.00887229
-0.00316503
0.00923233
-0.00347045
0.00958243
-0.00374935
0.0099218
-0.0040004
0.0102499
-0.00422273
0.0105667
-0.00441553
0.0108726
-0.00457653
-0.0046976
0.0111697
1.11969e-05
0.000381175
4.45901e-05
0.00104426
0.000100821
0.00163948
0.000180085
0.00215343
0.000282189
0.00258322
0.000406654
0.00293091
0.000552822
0.0032001
0.000719956
0.00339501
0.000907307
0.0035202
0.00111415
0.00358034
0.00133979
0.00358009
0.00158358
0.00352398
0.00184486
0.00341638
0.00212298
0.00326146
0.00241726
0.00306325
0.00272695
0.00282559
0.00305125
0.00255225
0.00338927
0.00224694
0.00374004
0.00191335
0.00410243
0.00155523
0.00447526
0.00117637
0.00485718
0.00078066
0.00524674
0.000372077
0.00564239
-4.53137e-05
0.00604246
-0.00046738
0.00644519
-0.000889964
0.00684879
-0.00130894
0.00725142
-0.00172029
0.00765125
-0.00212013
0.00804649
-0.00250485
0.00843547
-0.00287112
0.00881662
-0.00321599
0.00918856
-0.00353697
0.00955012
-0.003832
0.00990032
-0.00409955
0.0102385
-0.00433857
0.0105642
-0.00454846
0.0108775
-0.00472881
0.011179
-0.00487802
-0.00498948
0.0114709
1.08331e-05
0.000370342
4.40097e-05
0.00101109
0.000100662
0.00158282
0.00018131
0.00207279
0.000285957
0.00247857
0.000414237
0.00280263
0.000565541
0.0030488
0.000739133
0.00322142
0.000934224
0.00332511
0.00115003
0.00336454
0.00138576
0.00334435
0.00164068
0.00326906
0.00191402
0.00314304
0.00220501
0.00297047
0.00251286
0.0027554
0.0028367
0.00250175
0.0031756
0.00221334
0.00352855
0.00189399
0.00389442
0.00154749
0.00427196
0.00117769
0.00465979
0.000788535
0.00505642
0.000384029
0.00546022
-3.17228e-05
0.00586944
-0.000454536
0.00628224
-0.000880176
0.00669669
-0.00130441
0.00711081
-0.00172307
0.00752264
-0.00213212
0.00793024
-0.00252773
0.00833174
-0.00290634
0.0087254
-0.00326478
0.00910968
-0.00360027
0.00948322
-0.00391051
0.00984489
-0.00419368
0.0101939
-0.00444853
0.0105296
-0.00467427
0.0108517
-0.00487064
0.0111605
-0.0050376
0.0114567
-0.00517421
-0.00527541
0.0117427
1.03889e-05
0.000359953
4.31639e-05
0.000978312
9.99687e-05
0.00152602
0.000181657
0.0019911
0.00028844
0.00237179
0.000420077
0.00267099
0.00057602
0.00289285
0.000755544
0.0030419
0.00095784
0.00312282
0.00118207
0.00314031
0.00142737
0.00309904
0.00169292
0.00300351
0.00197785
0.00285811
0.00228128
0.00266704
0.00260229
0.00243439
0.0029399
0.00216414
0.00329304
0.0018602
0.00366055
0.00152648
0.00404114
0.0011669
0.00443339
0.000785438
0.00483575
0.000386172
0.00524653
-2.67477e-05
0.00566389
-0.000449085
0.00608589
-0.000876537
0.00651049
-0.00130478
0.00693559
-0.0017295
0.00735904
-0.00214653
0.00777876
-0.00255183
0.00819269
-0.00294166
0.00859894
-0.00331259
0.00899575
-0.00366159
0.00938158
-0.00398611
0.00975516
-0.00428408
0.0101155
-0.004554
0.0104618
-0.00479486
0.0107937
-0.00500621
0.0111112
-0.00518808
0.0114144
-0.00534086
0.0117045
-0.00546425
-0.00555471
0.0119838
9.88754e-06
0.000350065
4.21279e-05
0.000946071
9.88866e-05
0.00146926
0.000181356
0.00190863
0.000289963
0.00226318
0.000424598
0.00253636
0.000584786
0.00273266
0.000769826
0.00285686
0.000978899
0.00291374
0.00121112
0.00290809
0.00146559
0.00284457
0.00174137
0.00272774
0.00203751
0.00256197
0.00235303
0.00235153
0.00268687
0.00210055
0.00303793
0.00181308
0.00340498
0.00149315
0.00378669
0.00114477
0.0041816
0.000771986
0.00458809
0.000378945
0.0050044
-3.01407e-05
0.00542863
-0.000450971
0.00585871
-0.000879172
0.0062925
-0.00131033
0.00672776