/*--------------------------------*- C++ -*----------------------------------*\
  =========                 |
  \\      /  F ield         | OpenFOAM: The Open Source CFD Toolbox
   \\    /   O peration     | Website:  https://openfoam.org
    \\  /    A nd           | Version:  7
     \\/     M anipulation  |
\*---------------------------------------------------------------------------*/
FoamFile
{
    version     2.0;
    format      ascii;
    class       volScalarField;
    location    "4";
    object      p;
}
// * * * * * * * * * * * * * * * * * * * * * * * * * * * * * * * * * * * * * //

dimensions      [0 2 -2 0 0 0 0];

internalField   nonuniform List<scalar> 
2000
(
0.381426
0.383055
0.386831
0.391945
0.397419
0.40251
0.406826
0.410277
0.412962
0.415066
0.38136
0.382821
0.38652
0.391428
0.39662
0.401404
0.40541
0.408555
0.410928
0.412692
0.381
0.382388
0.386003
0.390704
0.395603
0.40008
0.403799
0.406679
0.408791
0.410257
0.380277
0.381681
0.3852
0.389649
0.394205
0.398348
0.401785
0.404437
0.406355
0.407612
0.379129
0.380644
0.384037
0.388144
0.392282
0.396034
0.39917
0.401621
0.403412
0.404591
0.377517
0.379243
0.38246
0.386127
0.38975
0.393037
0.395836
0.398094
0.399801
0.401048
0.375434
0.377485
0.380469
0.383612
0.386624
0.389373
0.391791
0.393851
0.395484
0.396886
0.3729
0.375417
0.378113
0.380675
0.383011
0.385163
0.387155
0.388996
0.390546
0.392109
0.369985
0.373074
0.375481
0.377432
0.379057
0.380566
0.382049
0.383559
0.384972
0.386739
0.36675
0.370499
0.372635
0.373981
0.374897
0.37572
0.376552
0.377397
0.378174
0.379777
0.418611
0.423205
0.425855
0.430057
0.430992
0.435387
0.434999
0.438461
0.437762
0.439371
0.415606
0.42024
0.422712
0.426901
0.427863
0.432283
0.43203
0.435488
0.434938
0.436533
0.412487
0.417256
0.419528
0.423694
0.424651
0.429126
0.428983
0.432459
0.43204
0.433622
0.40917
0.414213
0.416293
0.420417
0.421358
0.425912
0.425857
0.429372
0.429064
0.430637
0.405547
0.411077
0.412997
0.417059
0.418003
0.422641
0.422657
0.426222
0.426009
0.427573
0.401507
0.407802
0.409626
0.413612
0.41461
0.419307
0.419393
0.423009
0.422877
0.424431
0.396971
0.404323
0.406154
0.410072
0.411191
0.415902
0.416083
0.419729
0.419672
0.421198
0.391954
0.400565
0.402552
0.406427
0.407731
0.412393
0.412734
0.416366
0.4164
0.417893
0.386625
0.396467
0.39883
0.402717
0.404282
0.408805
0.409394
0.412914
0.413061
0.414416
0.381604
0.391962
0.394902
0.398853
0.400741
0.40505
0.40603
0.409332
0.409686
0.411004
0.372517
0.383068
0.386744
0.39042
0.393
0.396227
0.398094
0.40038
0.401214
0.400872
0.345945
0.358496
0.364444
0.370328
0.374831
0.379125
0.381689
0.384204
0.386073
0.38873
0.317385
0.331969
0.339584
0.347068
0.353441
0.359341
0.363342
0.366059
0.366077
0.364521
0.285602
0.301874
0.310475
0.319125
0.326333
0.333449
0.337843
0.341429
0.346423
0.350761
0.25074
0.268396
0.278655
0.288646
0.297933
0.306727
0.313449
0.317301
0.312944
0.313956
0.2117
0.230947
0.241677
0.251953
0.261236
0.269596
0.276216
0.279524
0.286534
0.29787
0.169078
0.188265
0.200709
0.21309
0.22377
0.232442
0.23654
0.237884
0.240473
0.248553
0.123418
0.14241
0.153285
0.163371
0.172931
0.181405
0.188466
0.193774
0.19569
0.199937
0.0693728
0.087558
0.100351
0.10962
0.11521
0.119565
0.12412
0.128588
0.134027
0.139306
0.0156066
0.0284967
0.036206
0.0418522
0.0448868
0.0482952
0.0495444
0.0512429
0.0537046
0.0566986
0.35838
0.328789
0.299081
0.266212
0.230991
0.190761
0.150119
0.104315
0.0552876
0.00513794
0.351245
0.32072
0.290646
0.257643
0.22241
0.182008
0.142137
0.0960469
0.0493621
0.000856128
0.343597
0.313621
0.283096
0.250013
0.214753
0.174305
0.134906
0.088628
0.0442259
-0.00303945
0.335851
0.306867
0.275868
0.24263
0.207348
0.166954
0.127825
0.0814726
0.039341
-0.00689975
0.328373
0.300579
0.269197
0.235649
0.200302
0.159997
0.120883
0.0747162
0.0346099
-0.011184
0.321585
0.294714
0.263049
0.229023
0.193555
0.153349
0.114075
0.0684029
0.0299494
-0.0162522
0.315878
0.289405
0.257573
0.222933
0.187232
0.147097
0.107534
0.0626656
0.0255569
-0.0209532
0.311583
0.28482
0.252894
0.217549
0.181441
0.141291
0.101374
0.0574997
0.0217689
-0.0223298
0.308875
0.281204
0.249159
0.213071
0.176339
0.136035
0.0957244
0.0529163
0.0189317
-0.0208643
0.307698
0.278702
0.246358
0.209524
0.171993
0.131363
0.0906238
0.0488692
0.0169412
-0.0185646
0.307803
0.277254
0.244329
0.206765
0.168356
0.127236
0.0860354
0.045215
0.0149835
-0.0153923
0.309066
0.276832
0.24305
0.204744
0.165417
0.123621
0.0819097
0.0418469
0.0129769
-0.0121844
0.311652
0.277483
0.242687
0.203533
0.163197
0.120464
0.0781814
0.0387228
0.0110654
-0.00924897
0.315727
0.279219
0.243272
0.202952
0.161448
0.117509
0.0746976
0.0358589
0.00940827
-0.00664702
0.320866
0.282152
0.24437
0.202359
0.159717
0.114447
0.0713427
0.0332656
0.00809817
-0.00440884
0.326512
0.285521
0.245398
0.201473
0.158177
0.111584
0.0683827
0.0310692
0.00716694
-0.00253735
0.332401
0.28966
0.247663
0.202852
0.158118
0.110549
0.066816
0.0295933
0.00661723
-0.00102006
0.340212
0.298181
0.255206
0.209703
0.163277
0.113705
0.067955
0.0292881
0.00643466
0.000175537
0.351816
0.313051
0.268881
0.221813
0.172817
0.120303
0.0712823
0.0300291
0.00657787
0.00108875
0.358954
0.321245
0.274264
0.224716
0.173736
0.120234
0.0707313
0.0297114
0.00703866
0.00180196
0.358214
0.314998
0.262263
0.208333
0.154991
0.103281
0.0584529
0.0251841
0.00960201
0.00329864
0.356058
0.309451
0.249014
0.189419
0.133955
0.0847286
0.0446534
0.0179442
0.00789294
0.00347664
0.357008
0.303036
0.237396
0.173493
0.118152
0.0741807
0.0435153
0.0262445
0.0153269
0.00412355
0.358707
0.297446
0.226482
0.160953
0.107895
0.0691157
0.0440347
0.0315392
0.02067
0.00588471
0.365897
0.295842
0.219281
0.154267
0.106403
0.0743257
0.0544654
0.0405348
0.0258714
0.00838657
0.374236
0.294415
0.215674
0.155701
0.114071
0.0857502
0.0664069
0.0497945
0.0295663
0.0102742
0.384217
0.301181
0.225109
0.17021
0.130339
0.100251
0.0762522
0.0543677
0.0316599
0.010388
0.411222
0.32598
0.248542
0.192171
0.146513
0.110778
0.0838368
0.058991
0.0335154
0.00949806
0.446415
0.354017
0.274943
0.212076
0.15813
0.120228
0.0914788
0.0627974
0.0348297
0.010182
0.468678
0.37368
0.293791
0.226663
0.167159
0.126396
0.0967341
0.0662404
0.0371604
0.0113639
0.38871
0.392065
0.39204
0.396558
0.405285
0.419432
0.432369
0.455413
0.500847
0.528153
0.401063
0.405258
0.406722
0.412853
0.422492
0.43828
0.453215
0.474376
0.523508
0.551175
0.412899
0.416882
0.419746
0.427922
0.439078
0.456219
0.473778
0.494844
0.544743
0.569876
0.422724
0.428298
0.431838
0.441404
0.453776
0.471885
0.491529
0.513197
0.562419
0.58589
0.433978
0.439413
0.443423
0.453947
0.467007
0.48564
0.506551
0.528234
0.576425
0.599231
0.444445
0.449846
0.45443
0.465715
0.479161
0.497982
0.519609
0.540354
0.586849
0.60859
0.454055
0.459373
0.464575
0.47647
0.490174
0.508973
0.53105
0.550281
0.594069
0.613653
0.462727
0.467978
0.473746
0.48605
0.499896
0.518475
0.540791
0.558371
0.598666
0.615406
0.470418
0.475682
0.481955
0.49446
0.508327
0.526458
0.548745
0.564703
0.601183
0.615022
0.477115
0.482494
0.489223
0.501771
0.51558
0.533052
0.555039
0.569415
0.602124
0.613328
0.482834
0.488438
0.495576
0.508054
0.521776
0.538439
0.559929
0.572787
0.601972
0.610885
0.487624
0.493521
0.501037
0.513352
0.526983
0.542764
0.563653
0.575117
0.601128
0.608091
0.49156
0.497764
0.505643
0.51771
0.531259
0.546142
0.566393
0.576633
0.599868
0.605205
0.494708
0.501223
0.509452
0.521223
0.534691
0.548703
0.568303
0.577499
0.598359
0.602378
0.497139
0.503973
0.512524
0.523991
0.53737
0.550574
0.569519
0.577849
0.596702
0.599686
0.498929
0.506096
0.514927
0.526113
0.539385
0.551869
0.57016
0.577791
0.594948
0.597157
0.500152
0.507676
0.51674
0.527684
0.540823
0.552691
0.570329
0.577417
0.593122
0.594785
0.50087
0.508787
0.51804
0.528795
0.541768
0.553133
0.570115
0.576801
0.591234
0.592552
0.501134
0.509489
0.5189
0.529532
0.542309
0.553289
0.569606
0.576015
0.589294
0.590441
0.500889
0.509769
0.51932
0.529873
0.542437
0.553127
0.568802
0.575075
0.587295
0.588434
0.50117
0.511065
0.520662
0.531478
0.542989
0.553202
0.566923
0.572771
0.582524
0.583936
0.50803
0.516643
0.525024
0.534663
0.544576
0.552597
0.564515
0.568109
0.576471
0.577095
0.513467
0.521451
0.529065
0.537384
0.545862
0.551719
0.562034
0.563602
0.570926
0.570853
0.516479
0.523766
0.530894
0.538353
0.546019
0.550451
0.55949
0.559804
0.565948
0.565452
0.519114
0.525466
0.5318
0.538331
0.545229
0.548515
0.556566
0.556161
0.561255
0.560505
0.520688
0.526501
0.532229
0.53798
0.544218
0.546549
0.553656
0.552699
0.55679
0.555753
0.521513
0.52686
0.532123
0.537299
0.543046
0.5447
0.550955
0.549608
0.552672
0.551509
0.521701
0.526781
0.531662
0.536414
0.541747
0.542962
0.548443
0.546829
0.548869
0.545795
0.521404
0.526382
0.53091
0.535414
0.540281
0.54071
0.545953
0.543699
0.542824
0.543518
0.521793
0.526559
0.531134
0.535721
0.539387
0.541975
0.545699
0.543993
0.547245
0.524891
0.495459
0.503102
0.508705
0.512155
0.515561
0.517292
0.518508
0.518891
0.519156
0.518951
0.493926
0.502006
0.507344
0.510826
0.514331
0.516018
0.517319
0.517717
0.518217
0.517696
0.493097
0.501529
0.506486
0.509886
0.513283
0.514852
0.516161
0.516516
0.517152
0.516332
0.49199
0.500533
0.505387
0.508826
0.512163
0.513672
0.514998
0.51531
0.51601
0.514966
0.490781
0.499174
0.504114
0.507654
0.510987
0.512485
0.513837
0.514118
0.514847
0.513668
0.489598
0.49769
0.502842
0.506466
0.509806
0.511316
0.512688
0.512947
0.513676
0.512446
0.488408
0.49615
0.501602
0.505289
0.508637
0.510175
0.511556
0.511805
0.512495
0.511288
0.487189
0.494606
0.500377
0.504121
0.507481
0.509065
0.510445
0.510701
0.511287
0.510185
0.485933
0.49311
0.499163
0.502965
0.506349
0.507992
0.509362
0.509638
0.510089
0.509091
0.48461
0.49166
0.497968
0.50183
0.505249
0.506961
0.508318
0.508623
0.508917
0.508013
0.48319
0.49022
0.496779
0.500722
0.504187
0.505981
0.507328
0.507651
0.507775
0.506972
0.481566
0.488797
0.495577
0.499641
0.503162
0.505055
0.506396
0.50673
0.506673
0.505987
0.479731
0.487358
0.494307
0.498607
0.502159
0.50418
0.505525
0.505873
0.505624
0.505076
0.477688
0.485859
0.493008
0.497582
0.501193
0.503359
0.504718
0.505091
0.504637
0.504259
0.475466
0.4843
0.491668
0.496571
0.500263
0.502593
0.503979
0.504387
0.503724
0.503552
0.47309
0.482695
0.49028
0.495569
0.499366
0.501879
0.503312
0.503767
0.502894
0.502964
0.470591
0.481051
0.488845
0.494567
0.498496
0.501213
0.502717
0.503233
0.502161
0.50251
0.467966
0.479332
0.487362
0.49355
0.497653
0.500588
0.502192
0.502784
0.501529
0.50219
0.465333
0.477576
0.485855
0.49251
0.496829
0.499994
0.501733
0.502415
0.500999
0.50203
0.462228
0.475524
0.484214
0.49139
0.496008
0.499423
0.501342
0.502132
0.500594
0.501972
0.456735
0.471275
0.481195
0.488989
0.494387
0.498295
0.500694
0.501838
0.501001
0.502322
0.460546
0.471311
0.4806
0.488396
0.493735
0.498023
0.50073
0.502231
0.502552
0.50311
0.463079
0.471557
0.480793
0.4884
0.493656
0.498297
0.501272
0.503102
0.50393
0.503839
0.465887
0.473179
0.482094
0.489688
0.495055
0.500092
0.503337
0.50525
0.505892
0.505851
0.465612
0.472916
0.481724
0.489331
0.494827
0.500204
0.503922
0.506453
0.507724
0.50773
0.469526
0.476589
0.485019
0.492762
0.498721
0.504606
0.508765
0.511239
0.511713
0.511826
0.468039
0.475638
0.483904
0.491737
0.497891
0.504093
0.508881
0.512272
0.514036
0.517687
0.471484
0.479215
0.487445
0.495597
0.502868
0.510432
0.516641
0.52139
0.523391
0.532144
0.470414
0.478522
0.486405
0.49452
0.501747
0.509514
0.517389
0.523796
0.526149
0.55699
0.471954
0.480115
0.488162
0.496615
0.504931
0.514324
0.525294
0.537303
0.55518
0.612667
0.447821
0.452033
0.45364
0.458058
0.457126
0.46273
0.460539
0.465083
0.463513
0.46542
0.444735
0.448804
0.450359
0.454981
0.454095
0.459887
0.457653
0.462411
0.46069
0.46265
0.442334
0.446425
0.448374
0.452751
0.452111
0.457527
0.455413
0.459994
0.458199
0.460093
0.439599
0.443907
0.446235
0.450515
0.450143
0.45522
0.453323
0.457614
0.455856
0.45764
0.436637
0.44111
0.443663
0.447945
0.447827
0.452706
0.451056
0.455115
0.45346
0.455165
0.433616
0.438184
0.440873
0.445142
0.44527
0.450007
0.448599
0.452491
0.450967
0.452636
0.430577
0.435207
0.437996
0.442238
0.442601
0.447208
0.446034
0.449792
0.448415
0.450069
0.427544
0.432204
0.43505
0.439272
0.439847
0.444348
0.443398
0.447042
0.445828
0.447474
0.42454
0.429192
0.432035
0.436248
0.436993
0.441425
0.440687
0.44424
0.4432
0.444836
0.421571
0.426188
0.428964
0.433173
0.434038
0.438436
0.437887
0.441379
0.440514
0.442138
0.36322
0.367721
0.369602
0.370378
0.370625
0.370753
0.370832
0.370722
0.369976
0.367859
0.359402
0.364725
0.36637
0.366644
0.366303
0.365777
0.365095
0.364073
0.362287
0.359615
0.355326
0.361485
0.362918
0.362799
0.362006
0.360926
0.359573
0.357807
0.355332
0.352288
0.351021
0.357982
0.359257
0.358909
0.357837
0.356339
0.354433
0.352061
0.349012
0.345616
0.346556
0.35424
0.355467
0.355096
0.35393
0.352155
0.349815
0.34694
0.343387
0.33961
0.342058
0.350344
0.351708
0.351536
0.350443
0.348514
0.345852
0.342557
0.338562
0.334367
0.337726
0.34645
0.348206
0.348436
0.34754
0.345558
0.342668
0.339029
0.334666
0.330031
0.333806
0.342795
0.34522
0.346007
0.345385
0.343421
0.340379
0.336471
0.331813
0.326762
0.330563
0.339676
0.343012
0.344448
0.34413
0.342224
0.339083
0.334969
0.330082
0.324675
0.328213
0.337405
0.341818
0.34393
0.343906
0.342066
0.338852
0.334575
0.329502
0.32382
0.326879
0.336255
0.341834
0.344592
0.344818
0.343023
0.339737
0.335323
0.330096
0.324207
0.327021
0.33662
0.343272
0.346553
0.346942
0.345143
0.34177
0.337234
0.331899
0.325867
0.328803
0.338665
0.346217
0.349862
0.35031
0.348444
0.34495
0.340296
0.334902
0.328855
0.332402
0.342519
0.350724
0.354539
0.354929
0.352906
0.349255
0.344459
0.338974
0.333254
0.337962
0.348223
0.35679
0.360552
0.360779
0.358471
0.354646
0.349744
0.344312
0.338271
0.345528
0.355707
0.364383
0.367818
0.367696
0.365159
0.361081
0.356046
0.350543
0.344259
0.35504
0.364854
0.373396
0.376245
0.37566
0.372794
0.368461
0.363251
0.357539
0.350863
0.366375
0.375705
0.383416
0.385641
0.384529
0.381291
0.376687
0.371189
0.365015
0.357893
0.379387
0.387659
0.39437
0.395818
0.394158
0.390573
0.385715
0.379793
0.372921
0.365678
0.393628
0.400431
0.405979
0.406551
0.404359
0.400528
0.395558
0.389371
0.382139
0.375109
0.408654
0.413728
0.417941
0.417578
0.414874
0.410878
0.405985
0.399957
0.393112
0.388679
0.424087
0.427199
0.429945
0.428627
0.425422
0.421244
0.416374
0.410636
0.404742
0.401682
0.439363
0.440436
0.441675
0.439436
0.435781
0.431471
0.426703
0.42138
0.416286
0.413755
0.453982
0.453057
0.452832
0.44974
0.445695
0.441304
0.436709
0.431841
0.427369
0.425012
0.4675
0.464716
0.463146
0.459312
0.45496
0.450556
0.446193
0.441787
0.437839
0.435745
0.479539
0.475122
0.47239
0.467956
0.4634
0.45906
0.454982
0.451063
0.447643
0.445814
0.489803
0.484052
0.48039
0.475523
0.470876
0.466677
0.462932
0.459528
0.456662
0.455122
0.49809
0.491356
0.487027
0.48191
0.477292
0.473311
0.469942
0.467068
0.464768
0.463528
0.50429
0.496953
0.492241
0.487064
0.482596
0.478906
0.475949
0.473608
0.471868
0.47094
0.508384
0.500827
0.496021
0.490974
0.486775
0.483449
0.480931
0.479116
0.477918
0.477315
0.51044
0.503027
0.4984
0.493673
0.489858
0.486959
0.484905
0.483604
0.482924
0.482662
0.510609
0.503649
0.499464
0.495226
0.491901
0.489488
0.487919
0.487115
0.486926
0.48702
0.509052
0.502821
0.499315
0.495726
0.492987
0.491113
0.490045
0.489721
0.489991
0.490448
0.505965
0.500698
0.498079
0.495283
0.493214
0.491924
0.491371
0.491507
0.4922
0.493019
0.501565
0.497447
0.49589
0.49401
0.492685
0.492016
0.491988
0.49257
0.493649
0.494816
0.496078
0.493239
0.492884
0.492022
0.491503
0.491485
0.491989
0.493005
0.494439
0.495932
0.48973
0.488245
0.489192
0.489429
0.489764
0.490419
0.491462
0.492903
0.494665
0.49646
0.482736
0.482629
0.484941
0.486333
0.487557
0.4889
0.490482
0.492344
0.494417
0.496485
0.475296
0.476546
0.480246
0.482825
0.484959
0.486994
0.489111
0.491391
0.493767
0.496086
0.467596
0.470137
0.475215
0.478987
0.482038
0.484763
0.487399
0.490102
0.492827
0.495331
0.459788
0.463531
0.469943
0.474892
0.478854
0.482258
0.485386
0.488488
0.491647
0.494053
0.451957
0.456833
0.464517
0.470605
0.475456
0.479521
0.483112
0.486522
0.48994
0.492573
0.44428
0.450169
0.459023
0.466192
0.471899
0.476602
0.480649
0.484351
0.487959
0.490849
0.436883
0.443629
0.453536
0.46171
0.468236
0.473552
0.478049
0.482059
0.485856
0.488951
0.429922
0.43725
0.448115
0.457212
0.464513
0.470413
0.47534
0.479651
0.483633
0.486926
0.423403
0.431192
0.44279
0.452745
0.460772
0.467217
0.472547
0.477138
0.481284
0.484773
0.417366
0.425531
0.437581
0.448355
0.457044
0.463999
0.469709
0.474565
0.478858
0.482533
0.411844
0.420223
0.432635
0.444042
0.453358
0.460795
0.466874
0.471998
0.476444
0.480293
0.406849
0.415286
0.427929
0.439863
0.449738
0.457628
0.464075
0.469484
0.474106
0.478114
0.40241
0.410751
0.42347
0.435818
0.446173
0.454521
0.461322
0.46702
0.471847
0.475978
0.39861
0.406677
0.419291
0.431918
0.442678
0.451433
0.458588
0.464565
0.469601
0.473846
0.395178
0.402974
0.415386
0.428172
0.439259
0.448368
0.455841
0.462069
0.467285
0.471685
0.392145
0.399651
0.411762
0.424585
0.435906
0.445308
0.453053
0.459499
0.464864
0.469382
0.38952
0.396707
0.408416
0.421152
0.432609
0.442231
0.450198
0.456825
0.462313
0.466921
0.387278
0.394124
0.405343
0.417877
0.429366
0.439129
0.44726
0.454031
0.459624
0.464317
0.385387
0.391882
0.402541
0.414764
0.426183
0.436005
0.444237
0.45111
0.456793
0.461574
0.383821
0.389959
0.400007
0.411824
0.423073
0.432865
0.441129
0.448058
0.453807
0.45868
0.382552
0.388335
0.397736
0.409064
0.420047
0.429722
0.437943
0.444868
0.450639
0.455584
0.381558
0.386989
0.395725
0.406496
0.417127
0.426596
0.434689
0.441532
0.447245
0.452197
0.380815
0.385896
0.393966
0.404134
0.414341
0.423522
0.431402
0.438084
0.44364
0.448277
0.380296
0.385033
0.392452
0.40199
0.411721
0.420549
0.428121
0.43449
0.439741
0.443584
0.379945
0.38436
0.391167
0.400077
0.409305
0.417748
0.424994
0.431039
0.436028
0.43989
0.379769
0.383864
0.390104
0.398404
0.407127
0.41519
0.422148
0.427969
0.432831
0.436797
0.379754
0.383524
0.389246
0.396969
0.405201
0.412893
0.419586
0.425215
0.429948
0.43388
0.379871
0.383311
0.388573
0.395764
0.403521
0.41084
0.417251
0.422663
0.427215
0.431024
0.38009
0.383197
0.388061
0.39477
0.402071
0.409006
0.415106
0.420258
0.424579
0.428208
0.380378
0.383154
0.387683
0.393966
0.400833
0.407378
0.413135
0.417984
0.422029
0.425421
0.380697
0.383152
0.38741
0.393324
0.39979
0.405943
0.411335
0.415846
0.419572
0.422679
0.381003
0.383157
0.387205
0.392809
0.398909
0.404685
0.409703
0.413854
0.417235
0.420025
0.381258
0.383133
0.387026
0.392369
0.398143
0.403564
0.408219
0.41201
0.415038
0.41749
)
;

boundaryField
{
    inlet
    {
        type            zeroGradient;
    }
    outlet
    {
        type            fixedValue;
        value           uniform 0;
    }
    cylinder
    {
        type            zeroGradient;
    }
    top
    {
        type            symmetryPlane;
    }
    bottom
    {
        type            symmetryPlane;
    }
    defaultFaces
    {
        type            empty;
    }
}


// ************************************************************************* //
