/*--------------------------------*- C++ -*----------------------------------*\
  =========                 |
  \\      /  F ield         | OpenFOAM: The Open Source CFD Toolbox
   \\    /   O peration     | Website:  https://openfoam.org
    \\  /    A nd           | Version:  7
     \\/     M anipulation  |
\*---------------------------------------------------------------------------*/
FoamFile
{
    version     2.0;
    format      ascii;
    class       volScalarField;
    location    "4";
    object      p;
}
// * * * * * * * * * * * * * * * * * * * * * * * * * * * * * * * * * * * * * //

dimensions      [0 2 -2 0 0 0 0];

internalField   nonuniform List<scalar> 
8000
(
0.343156
0.345747
0.347617
0.349728
0.351882
0.354046
0.356195
0.358303
0.360354
0.362333
0.364233
0.366048
0.367775
0.369413
0.370963
0.372429
0.373814
0.375127
0.376375
0.377543
0.341742
0.344371
0.346296
0.348466
0.350671
0.352877
0.355056
0.357182
0.359239
0.361215
0.363101
0.364894
0.366589
0.368188
0.369692
0.371106
0.372435
0.373686
0.374861
0.37597
0.34023
0.342935
0.34493
0.347171
0.349438
0.351693
0.353907
0.356057
0.358125
0.3601
0.361975
0.363747
0.365413
0.366974
0.368434
0.369797
0.37107
0.372258
0.373363
0.374404
0.338673
0.341474
0.343546
0.345863
0.348195
0.350502
0.352755
0.35493
0.357011
0.358988
0.360854
0.362606
0.364245
0.36577
0.367187
0.368499
0.369715
0.370842
0.371876
0.37284
0.337064
0.339977
0.342132
0.344532
0.346933
0.349296
0.351591
0.353794
0.355891
0.357872
0.359731
0.361466
0.363078
0.36457
0.365945
0.367208
0.368369
0.369434
0.370401
0.371277
0.335393
0.338437
0.340684
0.343172
0.345649
0.348072
0.350412
0.352646
0.354761
0.356747
0.3586
0.36032
0.361908
0.363368
0.364703
0.36592
0.367025
0.36803
0.368932
0.369711
0.333654
0.336849
0.339196
0.341781
0.344338
0.346825
0.349213
0.35148
0.353613
0.355606
0.357456
0.359162
0.360728
0.362158
0.363456
0.364628
0.365681
0.366627
0.367468
0.368139
0.331844
0.33521
0.337665
0.340354
0.342997
0.345551
0.34799
0.350291
0.352445
0.354445
0.356292
0.357986
0.359532
0.360935
0.362199
0.363329
0.364332
0.365223
0.366008
0.36656
0.329957
0.333518
0.33609
0.338891
0.341624
0.344248
0.346739
0.349075
0.35125
0.353258
0.355102
0.356785
0.358313
0.359691
0.360925
0.362017
0.362973
0.363813
0.364549
0.364974
0.327989
0.331768
0.334468
0.337388
0.340216
0.342913
0.345457
0.347829
0.350023
0.352039
0.35388
0.355553
0.357065
0.358421
0.359628
0.360687
0.3616
0.362395
0.363092
0.363383
0.325935
0.329961
0.332798
0.335844
0.338771
0.341543
0.34414
0.346547
0.34876
0.350782
0.35262
0.354283
0.355779
0.357116
0.3583
0.359331
0.360209
0.360967
0.361636
0.361788
0.323794
0.328095
0.331079
0.334258
0.337289
0.340137
0.342787
0.345227
0.347457
0.349483
0.351316
0.352968
0.354449
0.355768
0.356933
0.357942
0.358793
0.359525
0.360184
0.360198
0.321564
0.326169
0.32931
0.33263
0.335767
0.338692
0.341394
0.343865
0.346109
0.348136
0.349962
0.3516
0.353065
0.354368
0.355517
0.356513
0.357347
0.358068
0.358739
0.358623
0.319246
0.324185
0.327493
0.33096
0.334206
0.337208
0.33996
0.342458
0.344712
0.346737
0.34855
0.350172
0.351618
0.352904
0.354041
0.355031
0.355862
0.356592
0.357307
0.357079
0.31684
0.322145
0.325629
0.329249
0.332607
0.335684
0.338483
0.341005
0.343264
0.34528
0.347076
0.348675
0.350098
0.351365
0.352492
0.353482
0.354325
0.355092
0.355896
0.355593
0.314351
0.320053
0.323721
0.3275
0.330969
0.334121
0.336963
0.339504
0.341762
0.343764
0.345535
0.347103
0.348495
0.349736
0.350849
0.351845
0.352715
0.353552
0.354507
0.354201
0.311786
0.317914
0.321773
0.325714
0.329296
0.332519
0.335401
0.337955
0.340206
0.342184
0.343921
0.345448
0.346797
0.348001
0.349091
0.350089
0.350995
0.35193
0.353118
0.352935
0.309152
0.315734
0.319791
0.323897
0.32759
0.330882
0.333798
0.336358
0.338595
0.340541
0.342232
0.343704
0.344994
0.346142
0.34719
0.348175
0.349114
0.350179
0.351742
0.351953
0.30646
0.313522
0.317782
0.322054
0.325857
0.329212
0.332157
0.334718
0.336931
0.338834
0.340467
0.341868
0.343076
0.344138
0.345108
0.34604
0.346992
0.348257
0.350549
0.351841
0.303726
0.311289
0.315753
0.320192
0.3241
0.327515
0.330482
0.333036
0.335218
0.337069
0.33863
0.33994
0.341039
0.341971
0.342786
0.343544
0.344337
0.345591
0.348369
0.351048
0.380006
0.384302
0.387256
0.390341
0.392877
0.395252
0.397366
0.399293
0.401027
0.402583
0.403966
0.405182
0.40624
0.407146
0.407909
0.408534
0.409032
0.409403
0.409651
0.409778
0.378455
0.382708
0.385639
0.388716
0.391244
0.393615
0.395732
0.397662
0.399403
0.400968
0.402362
0.403591
0.404661
0.405583
0.406359
0.407001
0.407511
0.407897
0.408155
0.408294
0.37684
0.381121
0.384006
0.387085
0.389603
0.391971
0.394088
0.39602
0.397769
0.399342
0.400747
0.401989
0.403074
0.404012
0.404802
0.405462
0.405984
0.406385
0.406654
0.406806
0.37515
0.379541
0.382355
0.385448
0.387953
0.390319
0.392435
0.39437
0.396124
0.397705
0.399122
0.400378
0.401478
0.402432
0.403239
0.403914
0.404452
0.404867
0.405148
0.405314
0.37337
0.377965
0.380684
0.383803
0.386294
0.388659
0.390773
0.39271
0.394468
0.396058
0.397486
0.398757
0.399873
0.400843
0.401668
0.402359
0.402914
0.403343
0.403637
0.403815
0.371489
0.376389
0.37899
0.382149
0.384625
0.38699
0.389101
0.39104
0.392802
0.394401
0.395841
0.397126
0.398258
0.399246
0.40009
0.400797
0.401368
0.401812
0.402118
0.40231
0.369493
0.374808
0.37727
0.380483
0.382945
0.385311
0.387419
0.389359
0.391125
0.392733
0.394184
0.395484
0.396635
0.39764
0.398502
0.399227
0.399815
0.400274
0.400593
0.400797
0.367373
0.373216
0.375523
0.378803
0.381254
0.383621
0.385727
0.387666
0.389437
0.391053
0.392517
0.393833
0.395001
0.396024
0.396906
0.397648
0.398254
0.398728
0.399059
0.399275
0.36512
0.371605
0.373747
0.377105
0.379549
0.381919
0.384022
0.385962
0.387736
0.389361
0.390838
0.39217
0.393357
0.394399
0.3953
0.396061
0.396684
0.397173
0.397516
0.397744
0.36273
0.369964
0.371942
0.375387
0.37783
0.380203
0.382304
0.384243
0.386022
0.387656
0.389147
0.390496
0.391702
0.392764
0.393685
0.394464
0.395105
0.395609
0.395964
0.396201
0.360205
0.368281
0.370107
0.373646
0.376094
0.378471
0.38057
0.38251
0.384293
0.385937
0.387443
0.38881
0.390035
0.391118
0.392059
0.392858
0.393516
0.394035
0.394401
0.394647
0.357554
0.366543
0.368245
0.371876
0.374338
0.376718
0.378818
0.380759
0.382548
0.384204
0.385725
0.387111
0.388357
0.389461
0.390422
0.391241
0.391916
0.392451
0.392827
0.39308
0.354799
0.364732
0.366357
0.370074
0.372558
0.374943
0.377044
0.378988
0.380786
0.382455
0.383993
0.385399
0.386667
0.387792
0.388774
0.389612
0.390305
0.390854
0.391241
0.391499
0.351972
0.362833
0.364442
0.368234
0.370748
0.373138
0.375244
0.377195
0.379004
0.380689
0.382246
0.383674
0.384963
0.386111
0.387115
0.387973
0.388683
0.389246
0.389641
0.389903
0.349129
0.360831
0.362505
0.36635
0.368904
0.3713
0.373417
0.375378
0.377202
0.378905
0.380484
0.381934
0.383247
0.384418
0.385443
0.386321
0.387047
0.387623
0.388027
0.38829
0.346358
0.358728
0.360554
0.364427
0.367028
0.369434
0.371565
0.373541
0.375383
0.377107
0.378709
0.380183
0.38152
0.382714
0.38376
0.384657
0.3854
0.385987
0.386398
0.38666
0.343748
0.356505
0.358575
0.362452
0.365109
0.367527
0.369679
0.371675
0.37354
0.375289
0.376917
0.378416
0.379778
0.380996
0.382064
0.382979
0.383737
0.384336
0.384753
0.385012
0.341332
0.353996
0.356423
0.360302
0.363038
0.365488
0.367678
0.369713
0.371617
0.373404
0.375069
0.376605
0.378001
0.379248
0.380342
0.38128
0.382055
0.382666
0.383089
0.383344
0.339529
0.351162
0.354015
0.357896
0.360752
0.36327
0.365533
0.367636
0.369604
0.371451
0.37317
0.374754
0.376192
0.377476
0.3786
0.379562
0.380356
0.380978
0.381408
0.381657
0.340364
0.349506
0.352427
0.356195
0.35914
0.361694
0.363986
0.366102
0.368072
0.36991
0.371615
0.373182
0.374601
0.375867
0.376974
0.37792
0.378698
0.379305
0.379721
0.379951
0.349093
0.351304
0.353065
0.356341
0.359206
0.361512
0.36346
0.365165
0.366692
0.368084
0.369368
0.370554
0.371641
0.372626
0.3735
0.374255
0.374878
0.375358
0.375683
0.37585
0.337206
0.340086
0.342722
0.346589
0.349979
0.352703
0.355005
0.357014
0.358793
0.360391
0.361843
0.363165
0.364365
0.365443
0.366397
0.367218
0.367896
0.368419
0.368776
0.368957
0.324332
0.328303
0.331842
0.336201
0.340047
0.343207
0.345897
0.348242
0.350305
0.352141
0.35379
0.355275
0.35661
0.3578
0.358847
0.359744
0.360485
0.361056
0.361447
0.361644
0.311302
0.316261
0.320547
0.325351
0.329661
0.333285
0.336389
0.339085
0.341441
0.343515
0.345354
0.346993
0.348451
0.34974
0.350866
0.351826
0.352614
0.35322
0.353633
0.353841
0.297381
0.303078
0.308003
0.313272
0.318081
0.322216
0.325794
0.32891
0.33163
0.334012
0.336107
0.337955
0.339584
0.34101
0.342245
0.34329
0.344142
0.344794
0.345235
0.345457
0.282517
0.288777
0.294241
0.299973
0.305284
0.309941
0.31402
0.317602
0.320741
0.323491
0.325902
0.328018
0.329869
0.331478
0.33286
0.334021
0.334961
0.335675
0.336156
0.336398
0.266777
0.273497
0.279429
0.285606
0.291402
0.296566
0.301146
0.305206
0.308788
0.311938
0.314703
0.317124
0.319235
0.321061
0.322621
0.323924
0.324973
0.325764
0.326294
0.326559
0.25014
0.257271
0.263624
0.270229
0.276487
0.282133
0.287196
0.291727
0.295755
0.299316
0.302451
0.3052
0.307595
0.309663
0.311424
0.312889
0.314062
0.314944
0.315531
0.315824
0.232562
0.240082
0.246836
0.25385
0.260543
0.266641
0.272161
0.277141
0.281601
0.285568
0.289075
0.292158
0.294848
0.297172
0.299148
0.300789
0.3021
0.303081
0.303733
0.304056
0.213997
0.221905
0.229053
0.23646
0.24356
0.250075
0.256016
0.261413
0.266278
0.270629
0.274494
0.277904
0.280886
0.283465
0.285661
0.287483
0.288937
0.290024
0.290744
0.2911
0.194413
0.20271
0.210257
0.218038
0.225511
0.232404
0.238722
0.244493
0.249722
0.254422
0.258615
0.262328
0.265584
0.268408
0.270814
0.272814
0.274409
0.275599
0.276386
0.276776
0.173765
0.182463
0.190417
0.198548
0.206355
0.213577
0.220221
0.226311
0.231851
0.23685
0.241326
0.245302
0.2488
0.251841
0.254437
0.256598
0.258322
0.259608
0.260458
0.260878
0.152094
0.161167
0.169525
0.177966
0.186049
0.193538
0.20044
0.206779
0.21256
0.217791
0.222487
0.226671
0.230361
0.233575
0.236326
0.238618
0.240448
0.241813
0.242714
0.243159
0.129374
0.138825
0.14757
0.156264
0.164546
0.17222
0.179293
0.185791
0.191723
0.197097
0.201932
0.206247
0.210062
0.213393
0.216249
0.218633
0.220539
0.221961
0.222897
0.223358
0.105981
0.115623
0.124656
0.133478
0.141832
0.149568
0.15669
0.163226
0.169188
0.17459
0.179452
0.183795
0.187639
0.190999
0.193884
0.196293
0.198219
0.199652
0.200595
0.201062
0.0817977
0.0916363
0.100826
0.109621
0.11788
0.125512
0.132523
0.138938
0.144778
0.150064
0.154821
0.159075
0.162846
0.166151
0.168996
0.17138
0.173289
0.174711
0.175645
0.176097
0.0584335
0.0676556
0.0765597
0.0849558
0.0928098
0.100072
0.106728
0.112789
0.118278
0.123222
0.127655
0.131605
0.135097
0.13815
0.140773
0.142963
0.14471
0.146004
0.146852
0.147291
0.0346089
0.0436636
0.0519229
0.0595196
0.0665806
0.0731252
0.0791286
0.084588
0.0895245
0.0939685
0.0979544
0.101515
0.104678
0.107463
0.109875
0.111906
0.113538
0.114751
0.115541
0.115887
0.0156543
0.0218719
0.0286641
0.0346793
0.0402082
0.0453108
0.0499367
0.0540713
0.0577401
0.0609801
0.0638318
0.0663342
0.0685206
0.0704159
0.0720348
0.0733805
0.0744461
0.0752206
0.0757283
0.0761231
-0.011176
-0.00318679
0.00219111
0.00692097
0.0112568
0.0151973
0.0187459
0.0219188
0.0247294
0.0272017
0.0293719
0.0312804
0.0329626
0.0344415
0.0357249
0.0368063
0.03767
0.038295
0.038633
0.0385734
0.332212
0.322107
0.312771
0.301316
0.288396
0.274016
0.258417
0.241715
0.223994
0.205282
0.185633
0.165003
0.143577
0.121133
0.0986043
0.0746715
0.0535656
0.0279541
0.0175808
-0.0220801
0.332203
0.319684
0.310298
0.298387
0.285184
0.270583
0.254822
0.237999
0.220193
0.201419
0.181738
0.161103
0.139729
0.117335
0.0950395
0.0711412
0.0508418
0.0246404
0.0176169
-0.0265652
0.331744
0.317192
0.307544
0.295073
0.281549
0.266727
0.250832
0.233931
0.216085
0.197296
0.177621
0.157014
0.135707
0.113387
0.0912848
0.0674807
0.0478296
0.0213618
0.0168557
-0.0304606
0.33005
0.314214
0.304496
0.29164
0.277907
0.262933
0.246942
0.229979
0.212098
0.193292
0.173617
0.153035
0.131789
0.10955
0.0876254
0.0639485
0.0448739
0.0182555
0.0159107
-0.0342095
0.327818
0.311136
0.301362
0.288202
0.274304
0.259205
0.243129
0.226107
0.208188
0.189359
0.169679
0.149118
0.12793
0.105776
0.0840208
0.0604991
0.0419485
0.015262
0.014858
-0.0379848
0.325263
0.308096
0.298207
0.284782
0.270733
0.255519
0.239364
0.222284
0.204324
0.185472
0.165785
0.145243
0.124109
0.102049
0.0804546
0.0571146
0.0390318
0.0123563
0.013684
-0.0418557
0.322434
0.305109
0.295048
0.281401
0.267211
0.25189
0.235658
0.218519
0.200516
0.181639
0.161942
0.141419
0.120338
0.098377
0.0769371
0.0538033
0.0361303
0.00953517
0.0123986
-0.0459067
0.319402
0.302189
0.291908
0.278082
0.263758
0.248337
0.232028
0.214827
0.196776
0.17787
0.158163
0.137655
0.116624
0.0947689
0.0734803
0.0505762
0.0332562
0.00679905
0.0110148
-0.0502458
0.316251
0.299355
0.288815
0.274846
0.260395
0.244873
0.228484
0.211218
0.193113
0.174173
0.154452
0.13396
0.112975
0.0912324
0.0700949
0.0474442
0.0304235
0.00415423
0.00953778
-0.0549903
0.313058
0.296624
0.285796
0.271713
0.257135
0.241512
0.225039
0.2077
0.189535
0.170555
0.150819
0.130341
0.1094
0.0877753
0.0667915
0.0444194
0.0276513
0.00161998
0.00796435
-0.0602629
0.309896
0.294009
0.282877
0.268698
0.253993
0.238266
0.221702
0.204283
0.18605
0.167025
0.147269
0.126803
0.105907
0.0844059
0.0635807
0.0415148
0.0249649
-0.000762059
0.00626742
-0.066344
0.30683
0.291527
0.280083
0.265818
0.250985
0.235147
0.218483
0.200975
0.182666
0.163589
0.143809
0.123354
0.102503
0.0811326
0.0604725
0.0387433
0.0223969
-0.00291009
0.00437797
-0.0743147
0.303922
0.289193
0.277438
0.263089
0.248122
0.232165
0.215391
0.197785
0.179392
0.160255
0.140444
0.119999
0.0991965
0.0779634
0.0574767
0.0361174
0.0199856
-0.00468448
0.00243949
-0.0831435
0.301225
0.287025
0.274964
0.260525
0.245417
0.229331
0.212435
0.194721
0.176235
0.157029
0.137182
0.116744
0.0959937
0.0749054
0.0546021
0.0336467
0.0177623
-0.00598055
0.00122689
-0.0794575
0.298788
0.285039
0.272683
0.25814
0.242882
0.226654
0.209623
0.191789
0.173201
0.153918
0.134027
0.113594
0.0929
0.071964
0.0518561
0.0313363
0.0157391
-0.00680318
0.000502351
-0.0639197
0.296652
0.283255
0.270613
0.255947
0.240528
0.224144
0.206965
0.188997
0.170297
0.150928
0.130987
0.110555
0.0899197
0.0691423
0.0492431
0.0291855
0.0139073
-0.00723664
-0.000341865
-0.0509927
0.294851
0.281692
0.268773
0.253959
0.238365
0.22181
0.204467
0.186353
0.16753
0.148066
0.128066
0.107632
0.087056
0.0664417
0.0467646
0.0271876
0.0122478
-0.0074091
-0.00129972
-0.0412363
0.293413
0.280367
0.267178
0.252189
0.236404
0.21966
0.202138
0.183862
0.164904
0.145336
0.125269
0.104828
0.0843118
0.0638627
0.0444191
0.0253314
0.0107405
-0.00741921
-0.00221294
-0.0339844
0.29236
0.279301
0.265842
0.250648
0.234654
0.217703
0.199985
0.181532
0.162426
0.142742
0.122603
0.10215
0.0816899
0.0614059
0.0422038
0.0236045
0.00936902
-0.00735
-0.00322277
-0.02815
0.291711
0.278509
0.264779
0.249347
0.233124
0.215947
0.198015
0.179369
0.160099
0.14029
0.120069
0.0995989
0.0791926
0.0590723
0.040116
0.021997
0.00812085
-0.00725574
-0.00423769
-0.0232838
0.291477
0.278007
0.264
0.248296
0.231823
0.214399
0.196234
0.177378
0.15793
0.137981
0.117671
0.0971784
0.0768222
0.0568633
0.0381537
0.0205028
0.0069867
-0.00716193
-0.0050392
-0.0194015
0.291669
0.277812
0.263518
0.247505
0.23076
0.213066
0.194651
0.175566
0.155923
0.135821
0.115412
0.0948892
0.0745788
0.0547781
0.0363133
0.0191164
0.00596048
-0.00703313
-0.00571194
-0.0162891
0.292293
0.277936
0.26334
0.246986
0.229944
0.211957
0.19327
0.173938
0.154082
0.133813
0.113294
0.0927324
0.0724629
0.0528162
0.034593
0.0178351
0.00503742
-0.0069189
-0.00624199
-0.0137535
0.293351
0.278393
0.263477
0.246746
0.229382
0.211079
0.192098
0.172499
0.152412
0.131959
0.111318
0.0907084
0.070474
0.0509756
0.0329896
0.0166555
0.00421225
-0.00681812
-0.00663789
-0.011668
0.294842
0.279193
0.263936
0.246795
0.229083
0.210437
0.19114
0.171253
0.150916
0.130265
0.109488
0.0888178
0.0686116
0.0492539
0.0315
0.015573
0.00347692
-0.00671625
-0.00691446
-0.00994296
0.296765
0.280344
0.264723
0.247141
0.229053
0.21004
0.190402
0.170205
0.149599
0.128731
0.107805
0.0870615
0.066875
0.0476489
0.0301213
0.0145835
0.0028326
-0.00661094
-0.00708475
-0.00850793
0.299116
0.281851
0.265844
0.247793
0.229301
0.209892
0.189888
0.169359
0.148462
0.127361
0.106269
0.0854402
0.0652641
0.0461593
0.0288515
0.0136861
0.00227399
-0.0064951
-0.00716072
-0.00730683
0.301892
0.283719
0.267303
0.248758
0.229834
0.210002
0.189604
0.168717
0.147509
0.126156
0.104882
0.0839545
0.0637785
0.0447843
0.0276892
0.0128779
0.00179962
-0.00636191
-0.00715374
-0.0062954
0.305071
0.285964
0.269106
0.250044
0.230656
0.210373
0.189554
0.168284
0.146741
0.125116
0.103644
0.0826043
0.0624173
0.0435235
0.0266331
0.0121584
0.00140711
-0.0062061
-0.00707448
-0.00543884
0.308644
0.28859
0.271253
0.251659
0.231775
0.211012
0.189742
0.168062
0.14616
0.124242
0.102555
0.0813891
0.0611794
0.0423763
0.0256816
0.0115273
0.00109416
-0.0060238
-0.00693269
-0.00470968
0.312601
0.291597
0.27375
0.253606
0.233194
0.211923
0.190172
0.168054
0.145769
0.123535
0.101613
0.0803076
0.0600629
0.0413409
0.0248325
0.0109835
0.000858123
-0.00581256
-0.00673709
-0.0040862
0.316922
0.294991
0.276597
0.255886
0.234915
0.213108
0.19085
0.168265
0.145569
0.122993
0.100819
0.0793587
0.0590655
0.0404149
0.0240832
0.0105251
0.000695799
-0.00557135
-0.00649546
-0.00355105
0.321591
0.298781
0.279796
0.258506
0.236946
0.214577
0.191781
0.1687
0.145565
0.122624
0.10017
0.0785389
0.0581847
0.0395958
0.0234305
0.0101492
0.000603509
-0.00530034
-0.00621458
-0.0030902
0.326591
0.302982
0.283356
0.261472
0.239294
0.216337
0.192975
0.169367
0.145763
0.122428
0.0996715
0.0778505
0.0574203
0.0388819
0.0228722
0.00985333
0.000577892
-0.00500019
-0.0059001
-0.00269203
0.3319
0.307586
0.28725
0.264755
0.241935
0.218369
0.194415
0.170251
0.146152
0.122397
0.0993175
0.0772907
0.0567717
0.0382731
0.0224082
0.00963692
0.000617313
-0.00467087
-0.00555607
-0.00234663
0.337431
0.312489
0.291365
0.268256
0.244788
0.220604
0.196045
0.171309
0.146695
0.122503
0.099087
0.0768433
0.0562275
0.0377613
0.0220337
0.00949661
0.000719102
-0.00431272
-0.00518558
-0.00204529
0.343086
0.317675
0.295723
0.272017
0.247911
0.223107
0.197924
0.172588
0.147425
0.122761
0.0989757
0.0764878
0.0557575
0.0373119
0.021716
0.00940567
0.000864097
-0.00393592
-0.00479554
-0.00178051
0.349223
0.323832
0.30102
0.27669
0.251913
0.226423
0.200527
0.174485
0.148653
0.123396
0.0991306
0.0763025
0.0553852
0.0369091
0.0214177
0.00932051
0.00101437
-0.00356501
-0.00439941
-0.00154595
0.356271
0.331537
0.30773
0.282668
0.257119
0.230842
0.204122
0.177261
0.150649
0.124692
0.0998449
0.076579
0.0553842
0.0367899
0.0213246
0.00937078
0.0012477
-0.00315867
-0.00397662
-0.00133355
0.360331
0.336264
0.311668
0.286016
0.259892
0.233109
0.205929
0.178679
0.151758
0.125582
0.100602
0.0772721
0.0560679
0.0374922
0.0220533
0.0101292
0.00200305
-0.00243673
-0.00338219
-0.00112954
0.355787
0.333895
0.30965
0.283802
0.257463
0.230684
0.203693
0.176858
0.150579
0.125249
0.101248
0.0789271
0.0586479
0.0407794
0.0257128
0.013798
0.00529125
0.000228816
-0.0015217
-0.000653092
0.360146
0.337848
0.31204
0.284377
0.256212
0.227642
0.199023
0.170843
0.143598
0.117714
0.0936507
0.0717606
0.0524091
0.0359203
0.0225372
0.0123674
0.00534492
0.00123448
-0.000341499
-0.000182647
0.362213
0.339637
0.312705
0.283336
0.253809
0.223824
0.193987
0.164955
0.137304
0.111504
0.0879484
0.0669501
0.0487762
0.0336306
0.021606
0.0126352
0.00647165
0.00272598
0.000905569
0.000271624
0.364059
0.340282
0.312463
0.282192
0.251115
0.219755
0.18885
0.15918
0.131392
0.105964
0.0832286
0.063403
0.0466171
0.0328995
0.0221484
0.0141159
0.00842883
0.00464308
0.00227635
0.000731715
0.365492
0.340774
0.311976
0.280579
0.248165
0.215625
0.183912
0.153925
0.126342
0.101593
0.0799044
0.0613577
0.0459231
0.0334585
0.0237007
0.0162772
0.0107518
0.00668286
0.00364535
0.00118419
0.366942
0.34137
0.311508
0.278951
0.245356
0.211872
0.179659
0.149692
0.122626
0.0987932
0.0782768
0.0609982
0.0467629
0.0352779
0.0261649
0.0189934
0.0133293
0.00877885
0.00499234
0.0016293
0.368769
0.342342
0.311402
0.277755
0.243174
0.209039
0.176659
0.147028
0.120718
0.0979175
0.07855
0.0623783
0.0490666
0.0382136
0.0293816
0.0221368
0.0160885
0.01091
0.00632362
0.00207096
0.371263
0.343997
0.312054
0.277488
0.242187
0.207727
0.175494
0.146437
0.120991
0.0991844
0.0807861
0.0654273
0.0526745
0.042071
0.0331725
0.0255805
0.0189641
0.0130596
0.00764406
0.00251097
0.374673
0.346656
0.313888
0.278662
0.242959
0.208488
0.176643
0.148264
0.123631
0.102622
0.0848818
0.0699554
0.0573631
0.0466426
0.0373794
0.0292275
0.0219133
0.0152198
0.00895808
0.00294992
0.379206
0.350618
0.317296
0.281733
0.245946
0.211714
0.180371
0.152619
0.128597
0.108063
0.0905906
0.0756899
0.0628814
0.0517312
0.041872
0.0330091
0.024911
0.0173886
0.0102695
0.00338813
0.385006
0.356112
0.322573
0.287002
0.251398
0.217542
0.18667
0.159356
0.135629
0.115186
0.0975782
0.082328
0.0689878
0.0571688
0.0465504
0.0368766
0.0279403
0.0195641
0.0115798
0.00382569
0.392119
0.36324
0.329832
0.294537
0.259287
0.225821
0.19527
0.168111
0.14432
0.123586
0.105486
0.0895818
0.0754749
0.062822
0.0513392
0.0407928
0.0309857
0.0217408
0.0128873
0.00426193
0.400457
0.37192
0.338954
0.304136
0.269307
0.236142
0.20569
0.178381
0.15419
0.132844
0.113974
0.0971991
0.0821704
0.0685824
0.0561739
0.0447208
0.0340256
0.0239063
0.0141855
0.0046948
0.409772
0.38186
0.349567
0.315335
0.28091
0.247906
0.217324
0.189597
0.164742
0.142553
0.122731
0.104955
0.0889189
0.0743446
0.0609829
0.0486106
0.0370253
0.0260372
0.0154609
0.00512002
0.419645
0.392559
0.361074
0.327455
0.29337
0.260386
0.229491
0.201158
0.175474
0.152313
0.13145
0.112619
0.0955486
0.0799794
0.0656673
0.0523867
0.0399285
0.0280949
0.0166909
0.00553015
0.429502
0.403335
0.372697
0.339663
0.305842
0.272771
0.241457
0.212427
0.185854
0.161693
0.139786
0.119916
0.101839
0.085309
0.0700847
0.0559372
0.0426513
0.0300209
0.0178409
0.00591377
0.438654
0.413388
0.383549
0.351031
0.317407
0.284196
0.252435
0.222719
0.195296
0.170199
0.147326
0.126501
0.107503
0.0900967
0.0740434
0.0591115
0.0450803
0.0317362
0.0188643
0.0062553
0.446368
0.421884
0.392721
0.360621
0.327138
0.293782
0.261623
0.231314
0.203169
0.177282
0.153598
0.131971
0.112201
0.0940608
0.0773147
0.0617297
0.0470804
0.0331469
0.0197054
0.00653613
0.451964
0.428055
0.399381
0.367578
0.334189
0.300719
0.268266
0.237523
0.208855
0.182396
0.158123
0.135915
0.115584
0.096912
0.0796644
0.0636076
0.0485134
0.0341566
0.020307
0.00673684
0.454896
0.431279
0.402867
0.37122
0.33788
0.304351
0.271743
0.240773
0.211831
0.185071
0.16049
0.137976
0.117351
0.0983998
0.0808893
0.0645857
0.0492593
0.034682
0.0206191
0.00683979
0.380153
0.383614
0.385132
0.386372
0.387556
0.389026
0.39101
0.393667
0.397126
0.401487
0.406819
0.413142
0.420392
0.428397
0.436845
0.445284
0.453145
0.459799
0.464645
0.467209
0.386929
0.389979
0.391603
0.392816
0.394061
0.395668
0.397834
0.400681
0.404302
0.40876
0.414098
0.420317
0.427351
0.435036
0.443088
0.451094
0.458532
0.464823
0.469407
0.471855
0.392517
0.394723
0.396417
0.397643
0.398988
0.400729
0.403058
0.406071
0.409847
0.414429
0.419843
0.426073
0.433041
0.440579
0.44841
0.456143
0.46329
0.469312
0.473691
0.476043
0.398202
0.399671
0.401313
0.40251
0.403931
0.405768
0.408208
0.411331
0.415199
0.419843
0.425274
0.431466
0.438333
0.445706
0.453316
0.460791
0.467669
0.473449
0.477644
0.479906
0.403894
0.404695
0.406289
0.407445
0.408935
0.410855
0.41339
0.416599
0.420531
0.425202
0.430611
0.43672
0.443441
0.450606
0.457959
0.465149
0.471742
0.47727
0.481277
0.483444
0.409433
0.409602
0.411127
0.412236
0.413794
0.415791
0.418413
0.421696
0.425678
0.43036
0.435728
0.441737
0.448292
0.455231
0.462311
0.469203
0.475503
0.480773
0.484587
0.486654
0.414781
0.41437
0.415795
0.416842
0.418458
0.420522
0.423219
0.42656
0.430575
0.435252
0.440564
0.446458
0.452837
0.459543
0.466346
0.472939
0.478946
0.48396
0.487582
0.489548
0.419914
0.418998
0.420302
0.421274
0.422933
0.425051
0.427808
0.431192
0.435222
0.439876
0.445115
0.450881
0.457074
0.463542
0.470067
0.476363
0.482081
0.486844
0.490278
0.492141
0.424798
0.423465
0.424637
0.42553
0.427217
0.429376
0.432179
0.435591
0.43962
0.444234
0.449387
0.455013
0.461012
0.467237
0.473485
0.479488
0.484922
0.489439
0.492691
0.494452
0.429407
0.427745
0.428785
0.4296
0.431301
0.433488
0.436325
0.43975
0.443765
0.448326
0.453381
0.458858
0.464657
0.470638
0.47661
0.482325
0.487484
0.491762
0.494836
0.496498
0.433724
0.431819
0.432729
0.433475
0.435177
0.437382
0.440239
0.443666
0.447654
0.45215
0.457098
0.462419
0.468017
0.473755
0.479456
0.484889
0.48978
0.493828
0.496732
0.498298
0.437738
0.435673
0.436458
0.437147
0.438842
0.441055
0.443921
0.447338
0.451289
0.455711
0.460544
0.465706
0.4711
0.476599
0.482035
0.487196
0.491828
0.495653
0.498395
0.499868
0.441442
0.439296
0.439962
0.44061
0.442292
0.444506
0.44737
0.450768
0.454672
0.459013
0.463725
0.468726
0.473919
0.479182
0.484361
0.489259
0.493643
0.497256
0.499842
0.501226
0.444836
0.442682
0.443236
0.44386
0.445525
0.447735
0.450589
0.453959
0.457809
0.462063
0.466652
0.471491
0.476485
0.481519
0.486449
0.491095
0.495242
0.498653
0.50109
0.502391
0.447924
0.445828
0.446278
0.446894
0.448542
0.450744
0.453581
0.456918
0.460708
0.464871
0.469335
0.474013
0.478812
0.483625
0.488316
0.492721
0.496641
0.499859
0.502156
0.503378
0.450712
0.448732
0.449089
0.449713
0.451344
0.453538
0.456353
0.45965
0.463376
0.467446
0.471783
0.476303
0.480914
0.485513
0.489976
0.49415
0.497855
0.500892
0.503056
0.504203
0.45321
0.451398
0.451671
0.452317
0.453935
0.456121
0.45891
0.462164
0.465823
0.469797
0.47401
0.478375
0.482803
0.487198
0.491443
0.495399
0.498901
0.501765
0.503803
0.504881
0.455432
0.453828
0.454031
0.454712
0.45632
0.458498
0.46126
0.464468
0.468058
0.471937
0.476027
0.480241
0.484495
0.488694
0.492733
0.496483
0.499791
0.502493
0.504413
0.505426
0.457393
0.456031
0.456176
0.456902
0.458505
0.460677
0.46341
0.466572
0.470092
0.473876
0.477846
0.481915
0.486001
0.490015
0.493858
0.497413
0.500541
0.503089
0.504898
0.505851
0.459109
0.458012
0.458115
0.458896
0.460498
0.462665
0.465371
0.468485
0.471935
0.475626
0.479479
0.483409
0.487336
0.491174
0.494833
0.498204
0.501161
0.503565
0.50527
0.506168
0.4606
0.459781
0.45986
0.460702
0.462308
0.464473
0.467151
0.470218
0.473598
0.477199
0.480939
0.484736
0.488511
0.492184
0.495669
0.498868
0.501665
0.503934
0.505541
0.506387
0.461882
0.461346
0.461419
0.462326
0.463942
0.466107
0.468758
0.471779
0.475092
0.478604
0.482236
0.485907
0.489539
0.493056
0.496379
0.499416
0.502062
0.504205
0.505721
0.506519
0.462974
0.462718
0.462804
0.463779
0.465411
0.467577
0.470203
0.473179
0.476426
0.479854
0.483383
0.486933
0.490431
0.493802
0.496972
0.499857
0.502364
0.504388
0.505818
0.506572
0.463898
0.463906
0.464027
0.465072
0.466723
0.468893
0.471496
0.474429
0.477612
0.480958
0.484389
0.487826
0.491197
0.494431
0.497458
0.500203
0.502578
0.504492
0.505842
0.506555
0.46467
0.464923
0.465099
0.466214
0.467891
0.470064
0.472647
0.475537
0.478659
0.481927
0.485265
0.488595
0.491847
0.494953
0.497848
0.500461
0.502714
0.504524
0.5058
0.506475
0.465308
0.465778
0.466032
0.467215
0.468922
0.471101
0.473664
0.476514
0.479577
0.482771
0.486021
0.48925
0.492392
0.495378
0.498149
0.500639
0.502779
0.504493
0.505699
0.506338
0.465831
0.466484
0.466836
0.468087
0.469827
0.472013
0.474556
0.477368
0.480375
0.483499
0.486665
0.489801
0.492839
0.495714
0.49837
0.500746
0.502779
0.504404
0.505545
0.506152
0.466251
0.467051
0.467524
0.468838
0.470616
0.472808
0.475334
0.478109
0.481062
0.48412
0.487208
0.490255
0.493196
0.495968
0.498517
0.500787
0.502722
0.504263
0.505344
0.50592
0.466585
0.46749
0.468104
0.469481
0.471298
0.473496
0.476005
0.478743
0.481646
0.484641
0.487655
0.490621
0.493472
0.496148
0.498598
0.500769
0.502613
0.504076
0.5051
0.505648
0.466842
0.467815
0.468589
0.470025
0.471883
0.474085
0.476577
0.47928
0.482135
0.48507
0.488017
0.490905
0.493673
0.49626
0.498618
0.500698
0.502457
0.503848
0.504819
0.505339
0.467033
0.468037
0.468987
0.470481
0.472377
0.474583
0.477056
0.479727
0.482536
0.485416
0.488298
0.491116
0.493805
0.49631
0.498583
0.500579
0.502258
0.503582
0.504504
0.504998
0.467167
0.468171
0.469309
0.470857
0.472789
0.474996
0.477451
0.480089
0.482855
0.485683
0.488506
0.491258
0.493876
0.496305
0.498498
0.500416
0.502022
0.503283
0.504158
0.504629
0.467248
0.468232
0.469563
0.471162
0.473124
0.475329
0.477766
0.480374
0.4831
0.48588
0.488647
0.491338
0.49389
0.496248
0.498368
0.500214
0.501752
0.502955
0.503786
0.504233
0.467281
0.468234
0.469756
0.471403
0.473388
0.475588
0.478006
0.480586
0.483274
0.48601
0.488727
0.491362
0.493852
0.496145
0.498198
0.499976
0.501451
0.502599
0.50339
0.503813
0.467267
0.468192
0.469893
0.471583
0.473584
0.475778
0.478178
0.480731
0.483386
0.486081
0.488752
0.491334
0.493768
0.496002
0.497992
0.499708
0.501123
0.50222
0.502972
0.503373
0.467206
0.468124
0.469981
0.47171
0.47372
0.475907
0.47829
0.480819
0.483443
0.486101
0.488728
0.491262
0.493644
0.495822
0.497754
0.499412
0.500772
0.501819
0.502534
0.502914
0.46711
0.468049
0.470024
0.471787
0.473799
0.47598
0.478347
0.480854
0.483449
0.486072
0.48866
0.49115
0.493483
0.495609
0.497488
0.499091
0.500399
0.5014
0.50208
0.502438
0.466966
0.467941
0.469978
0.471769
0.473778
0.475952
0.478305
0.480794
0.483366
0.485963
0.48852
0.490975
0.49327
0.495353
0.497186
0.498742
0.500003
0.500963
0.501609
0.501946
0.46662
0.467692
0.469762
0.471595
0.473604
0.475774
0.47812
0.480598
0.483158
0.48574
0.48828
0.490715
0.492985
0.495041
0.496841
0.498361
0.499584
0.500506
0.501123
0.50144
0.465939
0.467455
0.469653
0.47162
0.473685
0.47588
0.478223
0.48068
0.483206
0.485741
0.488227
0.490603
0.492812
0.494805
0.496544
0.498005
0.499175
0.500051
0.500633
0.500929
0.465381