/*--------------------------------*- C++ -*----------------------------------*\
  =========                 |
  \\      /  F ield         | OpenFOAM: The Open Source CFD Toolbox
   \\    /   O peration     | Website:  https://openfoam.org
    \\  /    A nd           | Version:  7
     \\/     M anipulation  |
\*---------------------------------------------------------------------------*/
FoamFile
{
    version     2.0;
    format      ascii;
    class       surfaceScalarField;
    location    "4";
    object      phi;
}
// * * * * * * * * * * * * * * * * * * * * * * * * * * * * * * * * * * * * * //

dimensions      [0 3 -1 0 0 0 0];

internalField   nonuniform List<scalar> 
3880
(
-9.07966e-05
0.00373843
-0.00364764
0.000216955
0.00906708
-0.00937483
0.00109405
0.0128601
-0.0137372
0.00251089
0.0155108
-0.0169276
0.00434411
0.0171896
-0.0190229
0.00644766
0.0180821
-0.0201856
0.00868806
0.0184122
-0.0206526
0.010958
0.0184024
-0.0206724
0.0131816
0.0182449
-0.0204684
0.0181015
0.0153113
-0.0202313
-0.000195301
0.00393373
-4.80059e-05
0.00891978
0.000663298
0.0121488
0.00196442
0.0142097
0.00376579
0.0153883
0.00593989
0.015908
0.0083569
0.0159952
0.0109028
0.0158565
0.0134883
0.0156594
0.0155443
0.0160455
-0.000281204
0.00421494
-0.000267509
0.00890608
0.000310644
0.0115706
0.00151266
0.0130077
0.00328587
0.0136151
0.00552486
0.013669
0.00810869
0.0134114
0.0109218
0.0130434
0.0138661
0.0127151
0.0125403
0.0168701
-0.000335466
0.0045504
-0.000398604
0.00896922
0.000104554
0.0110675
0.00125987
0.0118524
0.00304503
0.0118299
0.00537224
0.0113418
0.00812811
0.0106555
0.0111961
0.0099754
0.0144708
0.00944043
0.00910948
0.0179016
-0.000346201
0.00489661
-0.000407291
0.00903032
0.000115146
0.010545
0.00132581
0.0106417
0.00321491
0.00994079
0.00570168
0.00885499
0.00867091
0.00768628
0.011999
0.00664727
0.0155674
0.00587208
0.00531039
0.0193665
-0.000305522
0.00520213
-0.000264765
0.00898956
0.000407061
0.00987322
0.00181912
0.00922964
0.00395601
0.0078039
0.00672462
0.00608638
0.00999114
0.00441976
0.0136135
0.00302491
0.0174499
0.00203565
0.0012355
0.0215248
-0.000211247
0.00541337
4.0849e-05
0.00873747
0.00101355
0.00890052
0.00279965
0.00744354
0.00535643
0.00524713
0.00855354
0.00288927
0.0122199
0.000753371
0.0161844
-0.000939612
0.0202805
-0.00206045
-0.00299758
0.0245136
-6.33506e-05
0.00547672
0.000499641
0.00817447
0.00192311
0.00747705
0.00425118
0.00511546
0.00738473
0.00211358
0.0111319
-0.000857866
0.0152703
-0.00338505
0.0195947
-0.00526397
0.023943
-0.0064088
-0.0072614
0.0282068
0.000117227
0.0053595
0.0010867
0.007205
0.0030855
0.00547826
0.00608132
0.00211964
0.00988543
-0.00169054
0.0142307
-0.00520317
0.0188496
-0.00800392
0.0235047
-0.00991908
0.0280489
-0.010953
-0.0114448
0.0322323
0.000320511
0.00503898
0.00176715
0.00575836
0.00442637
0.00281904
0.00814554
-0.00159953
0.0126157
-0.00616065
0.0174982
-0.0100857
0.0225214
-0.0130271
0.0274979
-0.0148956
0.0322714
-0.0157264
0.0360416
-0.0152151
0.01709
0.0686488
-0.0704274
0.0175363
0.0734728
-0.0739192
0.0168328
0.078051
-0.0773474
0.0152381
0.0822026
-0.0806079
0.013169
0.0854849
-0.0834159
0.0106848
0.0898692
-0.087385
0.00815885
0.0902802
-0.0877542
0.00552911
0.0954214
-0.0927917
0.00289302
0.0928263
-0.0901902
0.104415
-0.101522
0.01853
0.0661642
0.0192142
0.0727886
0.0185592
0.078706
0.0169116
0.0838501
0.0146879
0.0877087
0.0120025
0.0925546
0.00918013
0.0931025
0.00626016
0.0983414
0.00320515
0.0958814
0.10762
0.0200399
0.0629944
0.0209319
0.0718966
0.0203202
0.0793177
0.0186012
0.0855692
0.0162241
0.0900858
0.0133311
0.0954476
0.0102059
0.0962278
0.00697871
0.101569
0.00351288
0.0993472
0.111133
0.0215908
0.0593052
0.0226668
0.0708206
0.0220909
0.0798936
0.020289
0.0873711
0.0177742
0.0926005
0.0146736
0.0985482
0.011245
0.0996563
0.00769768
0.105116
0.0038254
0.103219
0.114958
0.0232045
0.0554672
0.0243902
0.0696349
0.0238477
0.0804362
0.0219561
0.0892627
0.0193315
0.0952252
0.0160272
0.101853
0.0123026
0.103381
0.00842651
0.108992
0.00415015
0.107496
0.119109
0.0249417
0.0520503
0.0260909
0.0684857
0.0255697
0.0809574
0.0235983
0.0912341
0.0208858
0.0979377
0.017384
0.105354
0.0133805
0.107384
0.00917239
0.1132
0.00449267
0.112176
0.123601
0.0268695
0.0496944
0.0277691
0.0675861
0.0272384
0.081488
0.0252014
0.0932711
0.0224257
0.100713
0.0187308
0.109049
0.0144741
0.111641
0.00993192
0.117742
0.004856
0.117251
0.128457
0.0290065
0.0488947
0.0294263
0.0671663
0.0288368
0.0820776
0.0267411
0.0953668
0.023936
0.103519
0.0200598
0.112925
0.0155899
0.116111
0.0107165
0.122616
0.00524248
0.122725
0.1337
0.0312611
0.0498659
0.0310359
0.0673914
0.0303466
0.0827669
0.0282081
0.0975054
0.0254074
0.106319
0.0213365
0.116996
0.0166925
0.120755
0.0114864
0.127822
0.00565677
0.128555
0.139356
0.0336198
0.0522877
0.0327053
0.0683059
0.03185
0.0836222
0.0296328
0.0997226
0.0269253
0.109027
0.0226813
0.12124
0.0179478
0.125488
0.012316
0.133454
0.00611152
0.13476
0.145468
0.129176
0.0749931
-0.151881
0.112023
0.0854586
0.0977689
0.0978767
0.0843801
0.113111
0.0709823
0.122425
0.0574425
0.13478
0.0436631
0.139268
0.0302806
0.146836
0.0151329
0.149907
0.160601
0.142488
0.0902703
-0.157765
0.127118
0.100829
0.112086
0.112908
0.0971283
0.128069
0.0812528
0.1383
0.0653476
0.150685
0.0490877
0.155528
0.032382
0.163542
0.0138831
0.168406
0.174484
0.154573
0.105942
-0.170244
0.138423
0.116979
0.122375
0.128956
0.106776
0.143668
0.0900424
0.155034
0.0724209
0.168307
0.0532169
0.174732
0.0333654
0.183393
0.0171651
0.184606
0.191649
0.166547
0.120435
-0.18104
0.15051
0.133016
0.13368
0.145786
0.117187
0.160161
0.100749
0.171472
0.0851971
0.183858
0.070615
0.189314
0.0570593
0.196949
0.0339786
0.207687
0.225628
0.179831
0.133954
-0.19335
0.164917
0.147929
0.148501
0.162202
0.130464
0.178198
0.108941
0.192995
0.0837722
0.209027
0.0529434
0.220143
0.016618
0.233274
-0.00254926
0.226854
0.223078
0.194229
0.148079
-0.208353
0.176998
0.16516
0.159087
0.180113
0.142345
0.19494
0.127739
0.207601
0.114519
0.222247
0.103799
0.230863
0.0934207
0.243652
0.058707
0.261568
0.281785
0.213709
0.157028
-0.222658
0.202576
0.176293
0.184884
0.197805
0.16065
0.219174
0.130117
0.238133
0.0960742
0.25629
0.0600171
0.26692
0.0289313
0.274738
0.0143562
0.276143
0.296142
0.217722
0.177972
-0.238665
0.199567
0.194448
0.188078
0.209293
0.178742
0.228511
0.167226
0.24965
0.149057
0.274459
0.121875
0.294102
0.0857125
0.310901
0.0400049
0.321851
0.336146
0.269732
0.176248
-0.268008
0.251794
0.212386
0.221783
0.239305
0.189439
0.260855
0.157539
0.28155
0.127648
0.30435
0.0980128
0.323737
0.0654933
0.34342
0.0327013
0.354643
0.368848
0.24268
-0.210603
0.257144
0.255946
0.240841
0.216826
0.184027
0.145317
0.100361
0.0520378
0.0467074
-0.15675
-0.0418385
0.0486537
-0.159712
0.0503396
-0.17193
0.0516193
-0.18232
0.0524598
-0.19419
0.053055
-0.208949
0.0525182
-0.222122
0.0530889
-0.239236
0.0435384
-0.258458
-0.195883
0.0472152
-0.160849
-0.0431163
0.0485214
-0.161018
0.0500227
-0.173431
0.0510944
-0.183392
0.0518695
-0.194966
0.0521746
-0.209254
0.0517432
-0.22169
0.0510466
-0.23854
0.040274
-0.247685
-0.180049
0.0461027
-0.163766
-0.043186
0.0470991
-0.162014
0.0484581
-0.17479
0.0494812
-0.184415
0.0502437
-0.195728
0.0504378
-0.209448
0.0500958
-0.221348
0.0482398
-0.236684
0.0362474
-0.235693
-0.163719
0.0442513
-0.165719
-0.0422986
0.0451965
-0.162959
0.0464568
-0.176051
0.047527
-0.185485
0.0483238
-0.196525
0.0485187
-0.209643
0.0481419
-0.220971
0.0449992
-0.233541
0.0319613
-0.222655
-0.147059
0.0415807
-0.16684
-0.0404591
0.0427301
-0.164109
0.0439319
-0.177253
0.0451124
-0.186665
0.0459887
-0.197401
0.0462163
-0.20987
0.0456706
-0.220426
0.0412291
-0.229099
0.0274009
-0.208826
-0.130252
0.0382042
-0.167403
-0.0376412
0.0397995
-0.165704
0.0409828
-0.178436
0.0423202
-0.188003
0.0433182
-0.198399
0.0436067
-0.210159
0.042751
-0.21957
0.0370312
-0.22338
0.0226893
-0.194485
-0.113485
0.0342602
-0.167775
-0.0338882
0.0364279
-0.167872
0.0376031
-0.179611
0.0391248
-0.189524
0.0402807
-0.199555
0.0406208
-0.210499
0.0393223
-0.218271
0.0324035
-0.216461
0.0177879
-0.179869
-0.0971575
0.0299372
-0.168318
-0.0293943
0.0326467
-0.170581
0.0338465
-0.180811
0.035579
-0.191257
0.0369237
-0.2009
0.0372941
-0.210869
0.0354648
-0.216442
0.0275328
-0.208529
0.012686
-0.165022
-0.0819031
0.0253948
-0.169247
-0.0244655
0.0284599
-0.173646
0.0297585
-0.182109
0.0317145
-0.193213
0.0332586
-0.202444
0.0336239
-0.211235
0.0312295
-0.214048
0.0225205
-0.19982
0.00760199
-0.150104
-0.0680758
0.0207341
-0.170591
-0.0193903
0.0238998
-0.176812
0.0254191
-0.183629
0.0276071
-0.195401
0.0293321
-0.204169
0.0296588
-0.211561
0.026727
-0.211116
0.0174349
-0.190528
0.00255946
-0.135228
-0.0558872
0.0159492
-0.172198
-0.0143425
0.0190419
-0.179905
0.020899
-0.185486
0.0233079
-0.19781
0.0251835
-0.206044
0.0254434
-0.211821
0.0220361
-0.207709
0.0123886
-0.18088
-0.00199057
-0.120849
-0.0451235
0.0109875
-0.173869
-0.00931604
0.0139799
-0.182897
0.0162328
-0.187739
0.0188404
-0.200418
0.0208479
-0.208052
0.021025
-0.211998
0.0172154
-0.203899
0.00748192
-0.171147
-0.00578931
-0.107578
-0.0353169
0.00588101
-0.175492
-0.00425822
0.0088335
-0.18585
0.0114762
-0.190382
0.0142567
-0.203198
0.0163766
-0.210172
0.0164635
-0.212085
0.01234
-0.199775
0.00268656
-0.161493
-0.00964954
-0.0952418
-0.0266361
0.000400274
-0.176637
0.000744702
0.00366403
-0.189113
0.00663993
-0.193357
0.00958228
-0.20614
0.011795
-0.212384
0.0118153
-0.212105
0.00749672
-0.195457
-0.00190512
-0.152092
-0.0134037
-0.0837432
-0.0190799
-0.00440274
-0.177794
0.00555983
-0.0014779
-0.192038
0.00171207
-0.196547
0.00485807
-0.209286
0.00716275
-0.214689
0.00717905
-0.212122
0.00277142
-0.191049
-0.00640455
-0.142916
-0.0169606
-0.0731872
-0.0125946
-0.00934387
-0.178718
0.0102675
-0.00663042
-0.194752
-0.00310902
-0.200069
0.000295701
-0.212691
0.00267069
-0.217064
0.00273226
-0.212183
-0.00170772
-0.186609
-0.0105199
-0.134103
-0.0202552
-0.063452
-0.0070926
-0.0140387
-0.179483
0.0148039
-0.0113567
-0.197434
-0.00758405
-0.203841
-0.0041037
-0.216171
-0.00145407
-0.219714
-0.00135123
-0.212286
-0.00574401
-0.182216
-0.0142462
-0.125601
-0.0232759
-0.0544223
-0.00246812
-0.0179503
-0.180698
0.0191652
-0.0152361
-0.200148
-0.0113375
-0.20774
-0.00772315
-0.219786
-0.00508882
-0.222348
-0.00501683
-0.212358
-0.00942775
-0.177805
-0.017668
-0.117361
-0.0260759
-0.0460144
0.00137541
-0.0212656
-0.182929
0.0234972
-0.0188
-0.202613
-0.0150162
-0.211524
-0.011424
-0.223378
-0.0087461
-0.225026
-0.00868562
-0.212419
-0.0130174
-0.173474
-0.0209719
-0.109406
-0.0287247
-0.0382615
0.00453072
-0.0260639
-0.184539
0.0276732
-0.0252397
-0.203438
-0.0218173
-0.214946
-0.0178113
-0.227384
-0.0144366
-0.228401
-0.0136894
-0.213166
-0.0173425
-0.169821
-0.0243469
-0.102402
-0.0312389
-0.0313694
0.00713797
0.0229369
-0.185208
-0.0222673
0.0247305
-0.205231
0.0284486
-0.218664
0.0283177
-0.227253
0.0166313
-0.216714
-0.0142889
-0.182246
-0.0622477
-0.121862
-0.112766
-0.0518838
-0.141869
-0.00226607
0.00856019
-0.000632262
-0.193617
0.00904121
0.00457589
-0.21044
0.00706086
-0.221149
-0.00200181
-0.21819
-0.0307196
-0.187996
-0.0778668
-0.135098
-0.13028
-0.0694483
-0.168283
-0.0138809
-0.180773
0.0102235
0.00268635
-0.0236992
-0.201355
0.0314372
-0.0194205
-0.214718
-0.0241811
-0.216389
-0.0475671
-0.194804
-0.088901
-0.146662
-0.139247
-0.0847525
-0.180857
-0.0278387
-0.199766
0.00502873
-0.19927
0.00972685
-0.002089
-0.0534647
-0.206314
0.0584229
-0.0547313
-0.213452
-0.0703562
-0.200764
-0.107735
-0.157425
-0.157402
-0.0969959
-0.202438
-0.039716
-0.227481
-0.00279617
-0.22986
0.00740818
-0.220782
0.00064854
-0.00408375
-0.0872961
-0.207266
0.0882488
-0.100077
-0.200671
-0.133018
-0.167822
-0.181631
-0.108813
-0.228292
-0.0503349
-0.256377
-0.011631
-0.261002
0.00182865
-0.253119
-0.000474307
-0.247376
-0.00509508
-0.00226015
-0.136118
-0.194218
0.12307
-0.16602
-0.170768
-0.211751
-0.122092
-0.258025
-0.0625386
-0.287071
-0.0212891
-0.293674
-0.00502741
-0.286472
-0.00537361
-0.279629
-0.00731685
-0.280336
-0.00438804
0.000505661
-0.201835
-0.16518
0.172796
-0.2431
-0.129503
-0.287533
-0.0776589
-0.317722
-0.0323496
-0.326105
-0.0129068
-0.320658
-0.0104741
-0.314831
-0.0112002
-0.316186
-0.00596269
-0.320164
-0.000409598
0.00121813
-0.26908
-0.125667
0.229567
-0.317352
-0.0812304
-0.354623
-0.0403875
-0.367987
-0.0189857
-0.36554
-0.0153545
-0.362492
-0.0135221
-0.365781
-0.00791135
-0.370754
-0.00098903
-0.371895
0.000731261
0.000136963
-0.353583
-0.056168
0.284084
-0.408008
-0.0268062
-0.432654
-0.0157413
-0.432407
-0.0192327
-0.434688
-0.0130728
-0.443746
-0.00446462
-0.450474
-0.00118281
-0.450408
-0.00105592
-0.448798
-0.000878675
-2.8131e-05
-0.437026
0.380858
-0.463832
-0.479574
-0.498806
-0.511879
-0.516344
-0.517527
-0.518583
-0.519461
-0.0403191
-0.0150179
0.0330698
-0.0481287
0.0168508
-0.0543134
0.0376219
-0.0589498
0.0630593
-0.0618554
0.0911544
-0.0623205
0.123535
-0.0557066
0.166182
-0.0467779
0.220638
-0.0256742
0.262981
0.355184
-0.0416786
-0.00796456
0.0346252
-0.0483202
0.0234924
-0.053464
0.0427657
-0.0572957
0.066891
-0.0594885
0.0933472
-0.0593981
0.123444
-0.0545443
0.161329
-0.0442971
0.210391
-0.026641
0.245325
0.328543
-0.0430325
-0.00126573
0.0363336
-0.0486082
0.0290681
-0.0527966
0.0469542
-0.0558965
0.0699908
-0.0575609
0.0950116
-0.0571325
0.123016
-0.0524118
0.156608
-0.0432043
0.201184
-0.0269503
0.229071
0.301593
-0.0437952
0.00506681
0.0374626
-0.0483163
0.0335893
-0.0516621
0.0502999
-0.0539993
0.0723281
-0.055085
0.0960974
-0.0542614
0.122192
-0.0497183
0.152065
-0.0413065
0.192772
-0.026883
0.214647
0.27471
-0.0437975
0.0106337
0.0382305
-0.0473687
0.0371606
-0.0499927
0.0529239
-0.0516262
0.0739615
-0.0521776
0.0966487
-0.050956
0.120971
-0.0465739
0.147683
-0.0387212
0.184919
-0.0261332
0.202059
0.248577
-0.043223
0.0154005
0.0384563
-0.0459001
0.0398376
-0.0478426
0.0548663
-0.0488039
0.0749228
-0.0488556
0.0967004
-0.0472686
0.119384
-0.0429997
0.143414
-0.0355463
0.177466
-0.0244969
0.19101
0.22408
-0.0421567
0.0194299
0.0381272
-0.0440702
0.0417512
-0.0453769
0.056173
-0.0456847
0.0752306
-0.045229
0.0962447
-0.0433064
0.117461
-0.0391046
0.139212
-0.0319395
0.170301
-0.0220664
0.181136
0.202013
-0.040659
0.0228176
0.0372712
-0.0419708
0.0430629
-0.0427352
0.0569375
-0.0424561
0.0749515
-0.0414877
0.0952764
-0.0392565
0.11523
-0.0350928
0.135048
-0.0281647
0.163373
-0.0192066
0.172178
0.182807
-0.0387889
0.0256577
0.0359489
-0.0396483
0.0439223
-0.0399865
0.0572756
-0.0392484
0.0742134
-0.0378079
0.0938359
-0.0353101
0.112732
-0.0311768
0.130915
-0.0245061
0.156702
-0.0163307
0.164003
0.166476
-0.036617
0.0280396
0.0342352
-0.0371475
0.0444528
-0.0371593
0.0572874
-0.0361215
0.0731756
-0.0343051
0.0920195
-0.0315999
0.110027
-0.0275095
0.126824
-0.0211541
0.150347
-0.0136964
0.156545
0.15278
-0.0342232
0.0300447
0.0322181
-0.0345389
0.0447685
-0.0342806
0.0570291
-0.0330948
0.0719897
-0.0310248
0.0899495
-0.0281899
0.107192
-0.0241725
0.122807
-0.0181774
0.144352
-0.0113733
0.149741
0.141406
-0.0316726
0.031736
0.0299813
-0.0318614
0.0449573
-0.0313808
0.0565485
-0.0301591
0.070768
-0.0279546
0.087745
-0.0250782
0.104316
-0.0211801
0.118909
-0.015557
0.138729
-0.00932703
0.143511
0.132079
-0.0290639
0.0331789
0.027621
-0.029168
0.0450615
-0.0285156
0.0558961
-0.0273169
0.0695693
-0.0250824
0.0855105
-0.0222429
0.101476
-0.0185191
0.115185
-0.0132565
0.133466
-0.00751871
0.137773
0.124561
-0.0264644
0.0344145
0.0252288
-0.0265112
0.0451083
-0.0257289
0.0551138
-0.0245779
0.0684183
-0.0223985
0.0833311
-0.0196526
0.0987304
-0.0161589
0.111691
-0.0112451
0.128552
-0.00593794
0.132466
0.118623
-0.0239243
0.0354578
0.022881
-0.0239361
0.0451201
-0.0230672
0.0542449
-0.0219655
0.0673165
-0.019905
0.0812706
-0.0172856
0.096111
-0.0140695
0.108475
-0.0095041
0.123987
-0.00459366
0.127556
0.114029
-0.0214844
0.036309
0.0206332
-0.021476
0.0451117
-0.0205665
0.0533354
-0.0195034
0.0662535
-0.0176096
0.0793768
-0.0151318
0.0936332
-0.0122271
0.105571
-0.00801815
0.119778
-0.00349168
0.123029
0.110537
-0.0191748
0.0369656
0.0185183
-0.0191521
0.045089
-0.0182482
0.0524316
-0.0172088
0.065214
-0.0155184
0.0776864
-0.0131861
0.091301
-0.0106122
0.102997
-0.00676666
0.115932
-0.00262212
0.118885
0.107915
-0.0170092
0.0374317
0.0165431
-0.0169726
0.0450524
-0.0161201
0.0515791
-0.0150916
0.0641855
-0.0136318
0.0762266
-0.011445
0.0891142
-0.00920859
0.10076
-0.00572447
0.112448
-0.0019612
0.115121
0.105954
-0.0149781
0.0377138
0.0146959
-0.0149284
0.0450027
-0.0141727
0.0508233
-0.0131534
0.0631663
-0.0119395
0.0750127
-0.0098929
0.0870676
-0.00798788
0.0988553
-0.00485135
0.109312
-0.00147773
0.111748
0.104476
-0.0130312
0.037814
0.012931
-0.0129405
0.0449119
-0.0123419
0.0502248
-0.0113464
0.0621708
-0.0104437
0.07411
-0.00854473
0.0851686
-0.0070087
0.0973193
-0.00415916
0.106462
-0.0011481
0.108737
0.103328
-0.0875467
0.0328066
0.0925542
-0.0831315
0.0404967
-0.0790631
0.0461564
-0.0736181
0.0567258
-0.0661771
0.066669
-0.0564841
0.0754755
-0.0441157
0.0849509
-0.0286907
0.091037
-0.0115
0.0915459
0.0918282
-0.0808363
0.0289936
0.0846493
-0.0757311
0.0353914
-0.0720967
0.0425221
-0.0656523
0.0502813
-0.0576534
0.0586701
-0.0485386
0.0663607
-0.0370529
0.0734653
-0.0247
0.078684
-0.0122257
0.0790717
0.0796024
-0.0726281
0.0246573
0.0769644
-0.0677046
0.030468
-0.0630477
0.0378652
-0.057063
0.0442966
-0.0497018
0.0513089
-0.0416127
0.0582716
-0.0316087
0.0634614
-0.0214196
0.0684949
-0.0113228
0.0689749
0.0682796
-0.0663282
0.0205887
0.0703968
-0.0618926
0.0260324
-0.0567057
0.0326783
-0.0506281
0.038219
-0.0433948
0.0440756
-0.0355988
0.0504757
-0.0266962
0.0545587
-0.0178187
0.0596174
-0.00916179
0.060318
0.0591178
-0.0599581
0.0175387
0.0630081
-0.0559088
0.021983
-0.0508766
0.0276461
-0.0450413
0.0323837
-0.0381383
0.0371725
-0.0306379
0.0429753
-0.0225755
0.0464963
-0.0145194
0.0515613
-0.00701083
0.0528094
0.052107
-0.0547404
0.0142873
0.0579918
-0.0507454
0.0179881
-0.0457004
0.0226011
-0.0399455
0.0266288
-0.0333639
0.0305909
-0.0260304
0.0356418
-0.0186956
0.0391615
-0.0112616
0.0441273
-0.00491504
0.0464628
0.0471919
-0.0506107
0.0113566
0.0535415
-0.0465787
0.0139561
-0.0414558
0.0174782
-0.0355979
0.0207708
-0.029164
0.024157
-0.0215976
0.0280755
-0.0147902
0.0323542
-0.0076585
0.0369956
-0.00259381
0.0413982
0.0445981
-0.0479408
0.00818603
0.0511113
-0.0436493
0.00966468
-0.038304
0.0121328
-0.0321325
0.0145994
-0.0256058
0.0176303
-0.0171825
0.0196521
-0.010584
0.0257557
-0.00220515
0.0286167
0.00219832
0.0369947
0.0467965
-0.0550405
0.00400352
0.059223
-0.0500911
0.00471521
-0.0437919
0.00583369
-0.0363759
0.00718339
-0.0287667
0.010021
-0.0178547
0.00874009
-0.00887738
0.0167784
0.00311078
0.0166286
0.01441
0.0256955
0.0612064
-0.156802
0.160806
-0.152087
-0.146253
-0.13907
-0.129049
-0.120309
-0.10353
-0.0869019
-0.0612064
-0.00990986
0.0909918
0.0114722
-0.00750614
0.0822456
-0.00585963
0.0753179
-0.00398091
0.0685181
-0.00266696
0.0616941
-0.00160762
0.0569325
-0.000835355
0.0527692
-0.000502741
0.0507787
-0.00117478
0.0598951
0.159631
-0.00912106
0.0899131
0.0101998
-0.00679365
0.0799181
-0.0053923
0.0739165
-0.00364272
0.0667685
-0.00246994
0.0605214
-0.00149689
0.0559594
-0.00080266
0.052075
-0.00048894
0.050465
-0.00103403
0.0604402
0.158597
-0.00807674
0.0889146
0.00907523
-0.00584332
0.0776847
-0.00473315
0.0728063
-0.00319418
0.0652295
-0.0021994
0.0595266
-0.00133985
0.0550999
-0.000736672
0.0514718
-0.000439966
0.0501683
-0.000844618
0.0608448
0.157752
-0.00712486
0.0879641
0.00807529
-0.00502383
0.0755837
-0.00410389
0.0718864
-0.00276517
0.0638908
-0.00193128
0.0586927
-0.0011763
0.0543449
-0.00065213
0.0509476
-0.000356124
0.0498722
-0.000634395
0.0611231
0.157118
-0.0062637
0.0871392
0.00708868
-0.00436787
0.0736879
-0.00353163
0.0710502
-0.00238224
0.0627414
-0.00167474
0.0579852
-0.00101184
0.053682
-0.000550247
0.050486
-0.000241121
0.0495631
-0.000410894
0.0612929
0.156707
-0.00531077
0.0864862
0.0059637
-0.00379404
0.0721711
-0.00298602
0.0702422
-0.00203279
0.0617882
-0.00142421
0.0573766
-0.000844049
0.0531018
-0.000431153
0.0500731
-0.000101058
0.049233
-0.00018463
0.0613764
0.156523
-0.00414282
0.0860198
0.00460923
-0.0032218
0.0712501
-0.00244659
0.0694669
-0.00170205
0.0610436
-0.00117302
0.0568476
-0.000668895
0.0525977
-0.000294851
0.0496991
5.22606e-05
0.0488859
4.39385e-05
0.0613848
0.156566
-0.00279927
0.0857153
0.00310377
-0.00260197
0.0710528
-0.00190591
0.0687709
-0.00137524
0.060513
-0.00091576
0.0563881
-0.00048375
0.0521657
-0.000143258
0.0493586
0.000203826
0.0485388
0.000315399
0.0612732
0.156882
-0.00147497
0.0855362
0.00165407
-0.00192668
0.0715045
-0.00136841
0.0682126
-0.001038
0.0601825
-0.000650177
0.0560003
-0.000288981
0.0518045
1.66807e-05
0.0490529
0.000367708
0.0481878
0.000562884
0.061078
0.157445
-0.000387825
0.0854839
0.000440183
-0.00122828
0.072345
-0.000849401
0.0678337
-0.000687361
0.0600205
-0.000378827
0.0556918
-7.68432e-05
0.0515025
0.000219024
0.0487571
0.000536656
0.0478702
0.000797121
0.0608175
0.158242
0.000488
0.085396
-0.000400171
-0.000560119
0.0733931
-0.000369098
0.0676427
-0.000328504
0.0599799
-0.000111606
0.0554749
0.000131858
0.051259
0.000399168
0.0484898
0.000702811
0.0475665
0.00101356
0.0605068
0.159255
0.00109451
0.0852279
-0.000926385
6.82614e-05
0.0744193
7.93679e-05
0.0676316
4.02165e-05
0.0600191
0.000162831
0.0553522
0.000330391
0.0510915
0.00056197
0.0482582
0.000858651
0.0472698
0.00120652
0.0601589
0.160462
0.00149549
0.0850013
-0.00126884
0.000558344
0.0753565
0.000497541
0.0676924
0.000351865
0.0601647
0.00040943
0.0552947
0.000517066
0.0509838
0.000710619
0.0480646
0.000994139
0.0469863
0.00137075
0.0597823
0.161833
0.00179053
0.0847531
-0.00154235
0.00103256
0.0761144
0.000850957
0.067874
0.000660232
0.0603555
0.000638296
0.0553166
0.000686077
0.0509361
0.000840156
0.0479105
0.00110298
0.0467235
0.00150865
0.0593766
0.163341
0.00202434
0.0845568
-0.00182805
0.00149645
0.0766423
0.00118985
0.0681806
0.000954434
0.0605909
0.000848766
0.0554223
0.000833715
0.0509511
0.000945656
0.0477986
0.0011816
0.0464876
0.00161691
0.0589413
0.164958
0.00227813
0.0844494
-0.00217071
0.00196223
0.0769582
0.00152184
0.068621
0.00123241
0.0608803
0.00103888
0.0556158
0.000957555
0.0510324
0.00102464
0.0477315
0.00122814
0.0462841
0.0016924
0.0584771
0.166651
0.00257326
0.0844653
-0.00258917
0.00243668
0.0770948
0.00185483
0.0692029
0.00149331
0.0612418
0.00120896
0.0559002
0.00105631
0.0511851
0.00107609
0.0477117
0.00124249
0.0461177
0.00173492
0.0579846
0.168386
0.00288934
0.0846509
-0.00307492
0.00290854
0.0770756
0.00219371
0.0699177
0.00173679
0.0616988
0.00135997
0.056277
0.00112958
0.0514155
0.00110003
0.0477413
0.00122622
0.0459915
0.00174418
0.0574667
0.17013
0.00330923
0.0850208
-0.00367921
0.00339997
0.0769849
0.00255342
0.0707643
0.00196304
0.0622891
0.00149078
0.0567492
0.00117574
0.0517305
0.00109552
0.0478215
0.00118066
0.0459063
0.00172595
0.0569214
0.171856
0.00347983
0.0856425
-0.00410149
0.00373046
0.0767342
0.00283611
0.0716586
0.00213533
0.0629899
0.00158395
0.0573006
0.001192
0.0521225
0.00105825
0.0479553
0.00110658
0.045858
0.00168707
0.0563409
0.173543
-0.0555876
0.0725099
0.0687203
-0.039921
0.0610676
-0.032881
0.0646186
-0.0251807
0.0552897
-0.0195188
0.0516387
-0.0143235
0.0469272
-0.00968939
0.0433212
-0.00580186
0.0419705
-0.00434631
0.0548853
0.169196
-0.0551614
0.0636394
0.064032
-0.0461157
0.0520218
-0.0375801
0.056083
-0.0304068
0.0481164
-0.0240437
0.0452756
-0.018177
0.0410605
-0.0128169
0.0379611
-0.00807786
0.0372314
-0.00482809
0.0516356
0.164368
-0.0547522
0.054531
0.0638605
-0.0497728
0.0470424
-0.0406349
0.0469451
-0.034297
0.0417786
-0.0275753
0.0385538
-0.0213307
0.0348159
-0.0152982
0.0319286
-0.00957215
0.0315053
-0.00459302
0.0466564
0.159775
-0.0568789
0.0479458
0.0634642
-0.0528128
0.0429763
-0.044298
0.0384303
-0.0381742
0.0356548
-0.0311916
0.0315712
-0.0243956
0.0280199
-0.0173636
0.0248966
-0.0102161
0.0243578
-0.0039394
0.0403798
0.155836
-0.061768
0.0393342
0.0703796
-0.0558334
0.0370417
-0.0475971
0.030194
-0.0412576
0.0293153
-0.0343799
0.0246935
-0.0276809
0.0213209
-0.0208043
0.0180201
-0.0138131
0.0173666
-0.00676903
0.0333357
0.149067
-0.0651294
0.0333739
0.0710897
-0.0595104
0.0314227
-0.052135
0.0228186
-0.0457225
0.0229028
-0.0387378
0.0177087
-0.0312004
0.0137835
-0.022414
0.00923365
-0.0123624
0.00731494
-0.00363019
0.0246035
0.145437
-0.068873
0.0248091
0.0774378
-0.0612509
0.0238005
-0.0543795
0.0159472
-0.0478198
0.0163432
-0.0416026
0.0114915
-0.0352644
0.00744528
-0.0284558
0.00242512
-0.0210741
-6.6825e-05
-0.0129749
0.0165044
0.132462
-0.0719966
0.0183615
0.0784442
-0.0653769
0.0171809
-0.0592819
0.00985207
-0.053437
0.0104984
-0.0479724
0.0060269
-0.0416877
0.00116057
-0.0340702
-0.00519241
-0.0243126
-0.00982439
-0.0143036
0.00649542
0.118158
-0.0743019
0.00912732
0.083536
-0.0656666
0.00854561
-0.0606033
0.00478886
-0.0547677
0.0046627
-0.0506369
0.0018961
-0.0479035
-0.00157278
-0.0457929
-0.00730301
-0.0439778
-0.0116396
-0.0396202
0.00213784
0.078538
-0.0800537
0.089181
-0.0715081
-0.0667192
-0.0620565
-0.0601604
-0.0617332
-0.0690362
-0.0806758
-0.078538
0.00531592
0.069353
-0.00594867
0.00468904
0.0646589
0.00404524
0.0645043
0.00265624
0.0648532
0.00221327
0.0708226
0.00118451
0.0721185
0.00114191
0.0774804
0.000508645
0.0790775
0.000482315
0.0835624
0.0896633
0.00705148
0.0701212
-0.0078197
0.00592157
0.0657888
0.00467834
0.0657475
0.00310583
0.0664257
0.00243325
0.0714951
0.00132159
0.0732301
0.00120018
0.0776018
0.000392237
0.0798854
0.000484334
0.0834703
0.0901477
0.0089606
0.0707436
-0.00958297
0.00741376
0.0673356
0.00568788
0.0674734
0.00391615
0.0681974
0.00297551
0.0724358
0.00171922
0.0744864
0.0013939
0.0779271
0.000421986
0.0808573
0.000532554
0.0833597
0.0906802
0.0105463
0.0712618
-0.0110646
0.00880044
0.0690815
0.00685964
0.0694142
0.00493326
0.0701238
0.00377249
0.0735966
0.00235029
0.0759086
0.00177833
0.0784991
0.000639634
0.081996
0.000659641
0.0833397
0.0913399
0.0116884
0.0717306
-0.0121571
0.0099844
0.0707855
0.0080643
0.0713343
0.00610545
0.0720826
0.0047694
0.0749326
0.00320313
0.0774749
0.0023615
0.0793407
0.00105698
0.0833005
0.000871457
0.0835252
0.0922113
0.012485
0.0721131
-0.0128675
0.0110426
0.072228
0.00932015
0.0730567
0.00742547
0.0739773
0.00595003
0.076408
0.00425481
0.0791701
0.00313206
0.0804635
0.00165426
0.0847784
0.00115876
0.0840207
0.0933701
0.0131292
0.0723022
-0.0133183
0.0120895
0.0732676
0.0106554
0.0744908
0.00887086
0.0757619
0.00728181
0.0779971
0.00545557
0.0809963
0.00404989
0.0818692
0.00238238
0.0864459
0.00149867
0.0849044
0.0948688
0.0138245
0.0721631
-0.0136854
0.0132231
0.0738689
0.0120737
0.0756403
0.0104008
0.0774348
0.00870883
0.079689
0.00674065
0.0829645
0.00505603
0.0835538
0.00317826
0.0883236
0.00186195
0.0862207
0.0967307
0.0147057
0.0715696
-0.0141121
0.014505
0.0740696
0.0135797
0.0765656
0.0119809
0.0790336
0.0101802
0.0814898
0.00805597
0.0850887
0.00609524
0.0855145
0.00398664
0.0904322
0.00222322
0.0879842
0.0989539
0.0158013
-0.0146592
0.0159517
0.0151699
0.0135956
0.0116695
0.00937324
0.00713357
0.00477412
0.00256803
0.000542266
0.00449672
0.00251486
0.00378577
0.00587149
-0.000537591
0.0102831
-0.00601119
0.0153007
-0.0111782
0.0205343
-0.0153193
0.0257438
-0.0182366
0.0308712
-0.020023
0.0360048
-0.0208601
-0.0210488
0.000783171
0.00371355
0.00330548
0.00126346
0.00733441
-0.00456652
0.0123185
-0.0109952
0.0176786
-0.0165384
0.0230161
-0.0206568
0.0281608
-0.0233812
0.0331363
-0.0249985
0.0380139
-0.0257378
-0.0261511
0.00104186
0.00267169
0.00411991
-0.00181459
0.00873836
-0.00918498
0.0141018
-0.0163587
0.0195512
-0.0219877
0.0247377
-0.0258433
0.0295885
-0.028232
0.0341891
-0.0295991
0.0386824
-0.0302311
-0.0306547
0.00132328
0.00134841
0.00493353
-0.00542484
0.00999342
-0.0142449
0.0154937
-0.0218589
0.020779
-0.027273
0.02561
-0.0306743
0.0300275
-0.0326496
0.034183
-0.0337546
0.0382572
-0.0343052
-0.0346961
0.00162672
-0.00027831
0.00570302
-0.00950114
0.010999
-0.0195409
0.0163797
-0.0272397
0.0212865
-0.0321798
0.0256259
-0.0350137
0.029542
-0.0365658
0.0332289
-0.0374415
0.0368686
-0.0379449
-0.0382866
0.00194076
-0.00221907
0.00636539
-0.0139258
0.0116583
-0.0248338
0.0166862
-0.0322675
0.0210578
-0.0365515
0.0248277
-0.0387835
0.0282088
-0.0399469
0.0314029
-0.0406356
0.0345565
-0.0410985
-0.0413713
0.00224205
-0.00446112
0.00684873
-0.0185324
0.0118996
-0.0298847
0.0163903
-0.0367582
0.0201299
-0.040291
0.0232922
-0.0419458
0.0261159
-0.0427706
0.0287777
-0.0432975
0.0313736
-0.0436944
-0.0438859
0.00249844
-0.00695956
0.00708973
-0.0231237
0.0116916
-0.0344866
0.0155218
-0.0405884
0.0185834
-0.0433526
0.021127
-0.0444895
0.0233792
-0.0450227
0.0254734
-0.0453917
0.0274677
-0.0456887
-0.0458125
0.00267592
-0.00963548
0.00704929
-0.0274971
0.0110474
-0.0384847
0.0141525
-0.0436935
0.0165298
-0.0457299
0.0184644
-0.0464241
0.0201483
-0.0467067
0.0216724
-0.0469158
0.0230828
-0.047099
-0.0471953
0.0027457
-0.0123812
0.00671955
-0.031471
0.0100168
-0.0417819
0.0123807
-0.0460574
0.0140947
-0.0474439
0.0154463
-0.0477757
0.0165874
-0.0478477
0.0175794
-0.0479078
0.0184751
-0.0479948
-0.0481104
0.0027657
-0.0151469
0.00623363
-0.0349389
0.00878952
-0.0443378
0.0104202
-0.0476881
0.011493
-0.0485167
0.0122818
-0.0485645
0.0129038
-0.0484698
0.0134043
-0.0484083
0.0138449
-0.0484354
-0.0486081
0.0026212
-0.0177681
0.00546138
-0.0377791
0.00725937
-0.0461358
0.00819467
-0.0486234
0.00867564
-0.0489977
0.00894856
-0.0488374
0.00910151
-0.0486227
0.00916688
-0.0484736
0.00920073
-0.0484693
-0.0487234
0.00236405
-0.0201321
0.00451888
-0.0399339
0.00557664
-0.0471936
0.00586274
-0.0489095
0.0057938
-0.0489287
0.00558378
-0.0486274
0.00529899
-0.0483379
0.00495497
-0.0481296
0.00458625
-0.0481005
-0.0483954
0.00201069
-0.0221428
0.00345833
-0.0413815
0.00381269
-0.0475479
0.00349901
-0.0485958
0.00291771
-0.0483474
0.00224761
-0.0479573
0.00154062
-0.0476309
0.00080755
-0.0473965
5.42658e-05
-0.0473473
-0.0475964
0.00158461
-0.0237274
0.00232889
-0.0421258
0.00202831
-0.0472473
0.00115962