/*--------------------------------*- C++ -*----------------------------------*\
  =========                 |
  \\      /  F ield         | OpenFOAM: The Open Source CFD Toolbox
   \\    /   O peration     | Website:  https://openfoam.org
    \\  /    A nd           | Version:  7
     \\/     M anipulation  |
\*---------------------------------------------------------------------------*/
FoamFile
{
    version     2.0;
    format      ascii;
    class       surfaceScalarField;
    location    "4";
    object      phi;
}
// * * * * * * * * * * * * * * * * * * * * * * * * * * * * * * * * * * * * * //

dimensions      [0 3 -1 0 0 0 0];

internalField   nonuniform List<scalar> 
15760
(
1.64565e-05
0.00082102
-0.000837476
6.85993e-05
0.00213606
-0.00218821
0.000155425
0.00322328
-0.0033101
0.000275418
0.00413573
-0.00425572
0.000426766
0.00491241
-0.00506376
0.000607466
0.00558184
-0.00576254
0.000815397
0.0061651
-0.00637304
0.00104835
0.00667802
-0.00691098
0.00130405
0.00713262
-0.00738832
0.00158016
0.0075382
-0.0078143
0.00187426
0.00790202
-0.00819613
0.0021839
0.00822987
-0.00853951
0.00250654
0.00852641
-0.00884904
0.00283958
0.00879541
-0.00912845
0.00318038
0.00903997
-0.00938077
0.00352625
0.00926265
-0.00960852
0.00387452
0.00946554
-0.0098138
0.0042225
0.00965038
-0.00999836
0.00456757
0.00981851
-0.0101636
0.00997066
0.00490711
-0.0103102
1.71039e-05
0.000803917
7.09583e-05
0.00208221
0.000160953
0.00313328
0.000285728
0.00401095
0.000443527
0.00475461
0.000632374
0.00539299
0.000850166
0.00594731
0.00109472
0.00643347
0.00136378
0.00686356
0.00165503
0.00724695
0.00196607
0.00759098
0.00229443
0.00790151
0.00263755
0.00818329
0.00299276
0.00844019
0.00335734
0.00867539
0.00372847
0.00889152
0.00410328
0.00909073
0.00447889
0.00927477
0.0048524
0.009445
0.00960218
0.00522088
1.77641e-05
0.000786153
7.35319e-05
0.00202644
0.000166981
0.00303983
0.000296877
0.00388106
0.000461497
0.00458999
0.000658874
0.00519562
0.000886915
0.00571927
0.00114345
0.00617693
0.00142625
0.00658076
0.00173303
0.00694018
0.00206139
0.00726261
0.0024089
0.00755401
0.00277296
0.00781923
0.00315088
0.00806226
0.00353985
0.00828642
0.00393693
0.00849444
0.00433908
0.00868858
0.00474318
0.00887067
0.00514606
0.00904212
0.00920382
0.00554442
1.84568e-05
0.000767697
7.63816e-05
0.00196852
0.000173646
0.00294257
0.000309091
0.00374561
0.000480999
0.00441809
0.00068739
0.00498923
0.000926165
0.0054805
0.00119516
0.00590794
0.00149217
0.00628375
0.00181493
0.00661742
0.00216109
0.00691645
0.00252822
0.00718688
0.00291375
0.0074337
0.00331497
0.00766104
0.00372901
0.00787238
0.00415282
0.00807063
0.00458318
0.00825822
0.00501675
0.0084371
0.00545003
0.00860884
0.00877452
0.00587933
1.92153e-05
0.000748481
7.9583e-05
0.00190815
0.000181091
0.00284106
0.0003226
0.0036041
0.000502361
0.00423833
0.000718357
0.00477323
0.000968462
0.00523039
0.00125051
0.00562589
0.0015623
0.00597196
0.0019016
0.00627812
0.00226611
0.00655194
0.00265343
0.00679956
0.00306103
0.0070261
0.0034862
0.00723587
0.00392604
0.00743254
0.00437742
0.00761926
0.00483695
0.00779868
0.00530107
0.00797298
0.00576594
0.00814397
0.00831302
0.00622743
2.00698e-05
0.000728412
8.32183e-05
0.001845
0.000189474
0.00273481
0.000337657
0.00345592
0.000525947
0.00405004
0.000752256
0.00454692
0.00101441
0.00496824
0.00131021
0.00533009
0.00163747
0.0056447
0.00199398
0.00592162
0.00237748
0.00616844
0.00278563
0.00639141
0.00321597
0.00659577
0.00366581
0.00678603
0.00413225
0.0069661
0.0046121
0.0071394
0.00510187
0.00730891
0.00559773
0.00747712
0.00609552
0.00764618
0.00781792
0.00659063
2.10576e-05
0.000707354
8.73824e-05
0.00177867
0.000198967
0.00262322
0.000354532
0.00330035
0.000552138
0.00385243
0.000789592
0.00430947
0.00106464
0.00469319
0.00137504
0.00501969
0.00171858
0.00530116
0.00209307
0.00554712
0.00249632
0.00576519
0.00292603
0.00596169
0.00337983
0.00614198
0.0038551
0.00631076
0.00434898
0.00647221
0.00485828
0.0066301
0.0053794
0.0067878
0.00590831
0.00694821
0.00644051
0.00711398
0.00728757
0.00697086
2.22148e-05
0.000685139
9.21716e-05
0.00170872
0.000209749
0.00250564
0.000373503
0.0031366
0.000581329
0.0036446
0.000830887
0.00405991
0.00111981
0.00440427
0.00144578
0.00469372
0.00180655
0.00494039
0.00219994
0.00515373
0.00262378
0.00534135
0.00307587
0.0055096
0.00355392
0.00566393
0.00405542
0.00580925
0.00457762
0.00595001
0.00511735
0.00609037
0.00567098
0.00623417
0.00623432
0.00638487
0.00680255
0.00654576
0.00672014
0.00736997
2.35762e-05
0.000661563
9.76818e-05
0.00163461
0.000221997
0.00238133
0.000394849
0.00296375
0.000613914
0.00342554
0.000876665
0.00379716
0.00118058
0.00410035
0.00152325
0.00435106
0.00190234
0.00456129
0.00231567
0.00474041
0.00276107
0.00489595
0.00323644
0.00503423
0.00373957
0.0051608
0.00426813
0.00528069
0.00481949
0.00539865
0.00539062
0.00551925
0.00597792
0.00564687
0.0065771
0.00578568
0.00718306
0.0059398
0.00611363
0.00778957
2.51743e-05
0.000636389
0.000104005
0.00155578
0.000235883
0.00224945
0.000418838
0.00278079
0.000650274
0.0031941
0.000927435
0.00352
0.00124761
0.00378017
0.00160824
0.00399043
0.0020069
0.00416263
0.00244134
0.00430598
0.0029094
0.00442788
0.00340902
0.00453461
0.00393814
0.00463169
0.00449457
0.00472426
0.00507589
0.00481732
0.00567929
0.00491585
0.00630132
0.00502485
0.00693771
0.00514929
0.00758314
0.00529437
0.00546591
0.00823087
2.7039e-05
0.00060935
0.000111227
0.00147159
0.000251564
0.00210912
0.000445714
0.00258664
0.000690759
0.00294906
0.000983666
0.00322709
0.0013215
0.00344234
0.00170151
0.00361042
0.00212113
0.00374301
0.002578
0.0038491
0.00306994
0.00393594
0.00359491
0.00400964
0.00415093
0.00407567
0.00473601
0.00413918
0.00534802
0.00420532
0.00598441
0.00427945
0.00664205
0.00436721
0.00731684
0.0044745
0.00800339
0.00460782
0.0047748
0.0086945
2.91965e-05
0.000580154
0.000119421
0.00138137
0.000269178
0.00195936
0.000475694
0.00238013
0.000735673
0.00268908
0.00104577
0.002917
0.00140278
0.00308533
0.00180371
0.00320949
0.00224583
0.00330089
0.00272662
0.00336831
0.0032438
0.00341875
0.00379531
0.00345814
0.00437922
0.00349175
0.00499373
0.00352467
0.00563698
0.00356207
0.00630686
0.00360957
0.00700068
0.00367339
0.00771476
0.00376043
0.00844384
0.00387873
0.00403824
0.0091804
3.16687e-05
0.000548485
0.000128648
0.00128439
0.000288836
0.00179917
0.000508945
0.00216002
0.000785255
0.00241277
0.00111406
0.00258819
0.00149186
0.00270753
0.0019154
0.00278595
0.0023817
0.0028346
0.00288804
0.00286197
0.00343198
0.00287481
0.00401135
0.00287877
0.00462423
0.00287888
0.00526892
0.00287998
0.00594385
0.00288713
0.00664742
0.002906
0.00737757
0.00294324
0.00813132
0.00300668
0.00890391
0.00310614
0.00325442
0.00968773
3.44726e-05
0.000514013
0.000138954
0.00117991
0.000310614
0.00162751
0.00054558
0.00192505
0.000839659
0.00211869
0.00118876
0.00223909
0.00158903
0.00230725
0.00203694
0.00233805
0.00252921
0.00234232
0.00306289
0.00232829
0.00363528
0.00230241
0.00424403
0.00227002
0.00488709
0.00223582
0.00556277
0.0022043
0.00626975
0.00218016
0.00700689
0.00216886
0.00777297
0.00217715
0.00856607
0.00221358
0.00938246
0.00228976
0.00242202
0.0102149
3.76193e-05
0.000476394
0.000150362
0.00106716
0.000334547
0.00144332
0.000585641
0.00167396
0.000898935
0.0018054
0.00126991
0.00186811
0.00169438
0.00188279
0.00216846
0.00186397
0.00268859
0.00182219
0.0032515
0.00176538
0.00385422
0.00169969
0.00449408
0.00163016
0.00516879
0.00156112
0.0058765
0.00149658
0.00661593
0.00144073
0.00738633
0.00139845
0.0081874
0.00137609
0.00901864
0.00138234
0.00987808
0.00143031
0.00154052
0.0107596
4.11137e-05
0.00043528
0.000162876
0.000945401
0.000360625
0.00124557
0.000629093
0.00140549
0.000963013
0.00147148
0.00135743
0.0014737
0.00180776
0.00143246
0.00230981
0.00136192
0.00285969
0.00127231
0.00345383
0.00117124
0.0040889
0.00106463
0.00476187
0.000957194
0.00547005
0.000852928
0.00621125
0.000755384
0.00698393
0.000668058
0.00778744
0.000594938
0.0086222
0.000541336
0.00948942
0.000515117
0.0103899
0.000529874
0.000610643
0.0113197
4.4954e-05
0.000390326
0.000176473
0.000813882
0.000388785
0.00103326
0.000675812
0.00111846
0.00103169
0.0011156
0.00145099
0.0010544
0.00192877
0.00095468
0.00246048
0.000830205
0.00304195
0.000690837
0.00366928
0.000543913
0.00433882
0.000395086
0.00504715
0.000248862
0.00579112
0.000108955
0.00656798
-2.14707e-05
0.00737559
-0.000139556
0.0082129
-0.000242367
0.00908044
-0.000326205
0.0099809
-0.000385342
0.0109186
-0.000407858
-0.000365119
0.0118944
4.91314e-05
0.000341195
0.000191108
0.000671906
0.000418911
0.00080546
0.000725579
0.000811793
0.00110461
0.00073657
0.00155009
0.000608911
0.0020567
0.000448076
0.00261957
0.000267331
0.00323425
7.61533e-05
0.0038966
-0.000118429
0.00460268
-0.000310998
0.00534877
-0.000497232
0.00613131
-0.000673585
0.00694694
-0.000837102
0.0077927
-0.000985313
0.00866645
-0.00111612
0.00956776
-0.00122751
0.0104994
-0.00131694
0.0114692
-0.0013777
-0.00138398
0.0124881
5.36309e-05
0.000287564
0.000206708
0.000518828
0.000450833
0.000561336
0.000778081
0.000484545
0.00118127
0.00033338
0.001654
0.000136187
0.00219053
-8.84623e-05
0.00278574
-0.000327871
0.00343491
-0.000573021
0.00413372
-0.000817242
0.00487812
-0.0010554
0.00566425
-0.00128336
0.00648838
-0.00149772
0.00734689
-0.00169561
0.00823618
-0.0018746
0.00915288
-0.00203282
0.0100944
-0.00216905
0.0110603
-0.00228287
0.012058
-0.00237536
-0.0024481
0.0131221
5.84307e-05
0.000229133
0.000223178
0.00035408
0.000484324
0.000300189
0.000832909
0.00013596
0.00126103
-9.47376e-05
0.00176174
-0.000364528
0.00232894
-0.000655664
0.00295719
-0.00095612
0.0036416
-0.00125743
0.00437772
-0.00155337
0.00516152
-0.00183919
0.00598928
-0.00211112
0.0068576
-0.00236604
0.00776335
-0.00260136
0.00870366
-0.00281491
0.00967593
-0.00300509
0.0106779
-0.00317104
0.0117065
-0.00331143
0.0127557
-0.00342455
0.0138434
-0.00353583
0.00539466
0.0366148
-0.0371024
0.00577023
0.0380678
-0.0384434
0.00599462
0.0392824
-0.0395068
0.00608606
0.0403602
-0.0404516
0.00605372
0.0413892
-0.0413569
0.00591647
0.042422
-0.0422847
0.00569248
0.0434841
-0.0432601
0.00539934
0.0445787
-0.0442855
0.00505247
0.0456947
-0.0453478
0.00466489
0.0468134
-0.0464258
0.00424732
0.0479132
-0.0474956
0.00380832
0.0489727
-0.0485337
0.00335444
0.0499709
-0.0495171
0.00289041
0.0508886
-0.0504245
0.00241923
0.0517065
-0.0512353
0.00194252
0.0524076
-0.0519309
0.00146108
0.0529771
-0.0524957
0.000975685
0.0534051
-0.0529197
0.000487843
0.0536872
-0.0531994
0.0538223
-0.0533345
0.00575841
0.0360773
0.00617861
0.0376476
0.00643846
0.0390226
0.00655583
0.0402428
0.00653915
0.0414059
0.00640744
0.0425537
0.00617969
0.0437118
0.00587454
0.0448838
0.00550861
0.0460606
0.00509605
0.0472259
0.00464851
0.0483607
0.00417536
0.0494458
0.00368378
0.0504625
0.00317899
0.0513934
0.00266438
0.0522211
0.00214191
0.0529301
0.00161265
0.0535064
0.00107777
0.0539399
0.000539207
0.0542258
0.0543615
0.00612763
0.0354941
0.00659045
0.0371848
0.00688482
0.0387282
0.00702806
0.0400996
0.00702753
0.0414064
0.0069021
0.0426791
0.00667132
0.0439426
0.00635477
0.0452004
0.00597017
0.0464452
0.00553277
0.0476633
0.0050552
0.0488383
0.00454767
0.0499534
0.00401797
0.0509922
0.00347193
0.0519394
0.0029133
0.0527797
0.00234444
0.0534989
0.00176667
0.0540842
0.00118154
0.0545251
0.00059144
0.0548159
0.054953
0.00650317
0.0348703
0.00700591
0.036682
0.00733337
0.0384008
0.00750205
0.0399309
0.00751793
0.0413905
0.00739941
0.0427976
0.00716633
0.0441757
0.00683903
0.0455277
0.00643626
0.046848
0.00597432
0.0481253
0.00546681
0.0493458
0.00492477
0.0504954
0.00435671
0.0515603
0.00376901
0.0525271
0.00316588
0.0533829
0.00255002
0.0541148
0.00192309
0.0547111
0.00128699
0.0551612
0.000644551
0.0554583
0.0555975
0.00688607
0.0342116
0.0074253
0.0361428
0.00778388
0.0380422
0.00797716
0.0397376
0.00800943
0.0413583
0.00789829
0.0429088
0.0076636
0.0444104
0.00732628
0.045865
0.00690595
0.0472683
0.00641988
0.0486113
0.00588266
0.049883
0.00530614
0.0510719
0.00469959
0.0521668
0.00406994
0.0531568
0.0034219
0.0540309
0.00275853
0.0547782
0.00208186
0.0553878
0.00139408
0.0558489
0.000698527
0.0561539
0.056296
0.00727762
0.0335246
0.00784909
0.0355713
0.0082363
0.037655
0.00845284
0.0395211
0.00850116
0.0413099
0.00839769
0.0430122
0.00816201
0.0446461
0.00781541
0.0462116
0.0073782
0.0477055
0.00686858
0.0491209
0.00630201
0.0504496
0.0056912
0.0516828
0.00504615
0.0528119
0.00437439
0.0538285
0.00368115
0.0547242
0.00296986
0.0554895
0.0022429
0.0561147
0.00150279
0.0565891
0.000753356
0.0569033
0.0570494
0.00767923
0.0328163
0.00827787
0.0349727
0.00869064
0.0372422
0.00892861
0.0392831
0.00899229
0.0412462
0.00889653
0.043108
0.0086604
0.0448822
0.00830525
0.0465667
0.00785195
0.0481588
0.00731944
0.0496535
0.00672405
0.051045
0.00607929
0.0523275
0.00539588
0.0534953
0.00468198
0.0545424
0.00394334
0.0554628
0.0031838
0.056249
0.00240608
0.0568924
0.00161306
0.0573821
0.000809018
0.0577074
0.0578584
0.00809241
0.0320938
0.00871234
0.0343528
0.00914703
0.0368075
0.00940406
0.0390261
0.009482
0.0411683
0.00939374
0.0431963
0.00915756
0.0451184
0.0087946
0.0469297
0.00832604
0.0486274
0.00777145
0.0502081
0.0071479
0.0516685
0.00646966
0.0530057
0.00574819
0.0542168
0.00499226
0.0552984
0.00420816
0.0562469
0.00340014
0.057057
0.00257128
0.0577213
0.0017248
0.0582286
0.000865479
0.0585667
0.0587239
0.00851867
0.0313647
0.00915321
0.0337182
0.00960564
0.0363551
0.00987882
0.0387529
0.00996949
0.0410776
0.00988825
0.0432775
0.00965227
0.0453544
0.00928218
0.0472998
0.00879925
0.0491103
0.00822348
0.0507838
0.00757257
0.0523194
0.00686151
0.0537168
0.00610242
0.0549758
0.00530472
0.0560961
0.00447522
0.0570764
0.00361861
0.0579137
0.00273832
0.0586016
0.00183793
0.0591289
0.000922698
0.0594819
0.0596466
0.0089594
0.0306362
0.00960118
0.0330765
0.0100666
0.0358896
0.0103525
0.038467
0.010454
0.0409762
0.0103789
0.0433525
0.0101432
0.0455901
0.00976667
0.0476763
0.00927029
0.0496067
0.00867434
0.0513798
0.00799702
0.0529967
0.00725393
0.0544599
0.00645785
0.0557719
0.00561877
0.0569351
0.00474409
0.0579511
0.00383889
0.0588189
0.00290699
0.0595335
0.00195231
0.0600836
0.000980619
0.0604536
0.0606272
0.00941578
0.0299149
0.0100569
0.0324354
0.0105301
0.0354164
0.0108247
0.0381724
0.0109345
0.0408664
0.0108646
0.0434224
0.0106291
0.0458256
0.0102467
0.0480588
0.00973779
0.0501156
0.00912276
0.0519948
0.00842011
0.0536994
0.00764594
0.0552341
0.00681363
0.0566042
0.00593377
0.057815
0.00501425
0.0588706
0.00406061
0.0597725
0.00307704
0.0605171
0.0020678
0.0610929
0.00103918
0.0614822
0.0616664
0.00988865
0.0292067
0.0105208
0.0318033
0.010996
0.0349411
0.0112949
0.0378735
0.0114103
0.0407511
0.0113441
0.0434886
0.0111085
0.0460612
0.0107206
0.0484467
0.0102003
0.0506359
0.00956736
0.0526277
0.00884058
0.0544262
0.00803645
0.0560382
0.00716886
0.0574718
0.00624894
0.0587349
0.00528511
0.0598344
0.00428335
0.0607743
0.00324816
0.0615522
0.00218421
0.0621568
0.00109828
0.0625681
0.0627647
0.0103784
0.028516
0.0109931
0.0311886
0.0114641
0.0344701
0.0117624
0.0375752
0.01188
0.0406334
0.0118159
0.0435526
0.0115798
0.0462973
0.011187
0.0488395
0.0106562
0.0511668
0.0100066
0.0532772
0.00925707
0.0551757
0.00842425
0.056871
0.0075225
0.0583736
0.00656344
0.059694
0.005556
0.0608419
0.00450656
0.0618237
0.00342001
0.0626388
0.00230131
0.0632755
0.00115783
0.0637116
0.0639225
0.0108847
0.0278461
0.0114737
0.0305996
0.0119338
0.0340101
0.0122261
0.0372829
0.0123424
0.040517
0.0122785
0.0436165
0.0120414
0.0465344
0.0116441
0.0492367
0.0111038
0.0517072
0.010439
0.053942
0.00966809
0.0559466
0.008808
0.0577311
0.00787337
0.0593082
0.00687628
0.0606911
0.00582611
0.061892
0.00472966
0.0629201
0.00359212
0.0637763
0.00241884
0.0644488
0.0012177
0.0649128
0.0651402
0.011407
0.0271987
0.0119625
0.0300441
0.0124041
0.0335684
0.0126847
0.0370024
0.012796
0.0404058
0.0127303
0.0436822
0.0124915
0.0467732
0.0120901
0.0496382
0.0115413
0.052256
0.0108626
0.0546207
0.010072
0.0567372
0.00918618
0.0586169
0.00822013
0.0602743
0.00718631
0.0617249
0.0060945
0.0629838
0.00495189
0.0640628
0.00376398
0.0649642
0.00253645
0.0656763
0.00127771
0.0661715
0.0664179
0.0119439
0.0265745
0.0124586
0.0295295
0.0128738
0.0331532
0.0131366
0.0367396
0.0132387
0.0403036
0.0131691
0.0437519
0.012928
0.0470143
0.0125228
0.0500433
0.0119666
0.0528121
0.0112756
0.0553117
0.0104669
0.057546
0.00955708
0.0595267
0.00856125
0.0612701
0.00749219
0.0627939
0.00636004
0.064116
0.00517235
0.0652505
0.00393492
0.0662017
0.00265372
0.0669575
0.00133767
0.0674876
0.0677556
0.0124924
0.0259765
0.0129596
0.0290623
0.0133399
0.0327729
0.0135788
0.0365007
0.0136678
0.0402146
0.0135923
0.0438274
0.0133483
0.0472583
0.0129398
0.0504518
0.0123774
0.0533745
0.0116756
0.0560136
0.0108505
0.058371
0.00991862
0.0604586
0.00889484
0.0622939
0.00779224
0.0638965
0.00662132
0.0652869
0.00538993
0.0664818
0.00410411
0.0674875
0.0027701
0.0682915
0.00139733
0.0688603
0.0691529
0.0130474
0.0254171
0.0134598
0.0286499
0.0137968
0.0324359
0.0140058
0.0362916
0.0140783
0.0401421
0.0139955
0.0439102
0.0137485
0.0475053
0.0133376
0.0508627
0.0127704
0.0539418
0.0120595
0.0567244
0.0112202
0.0592103
0.0102682
0.0614106
0.00921857
0.0633435
0.00808443
0.0650307
0.00687659
0.0664948
0.00560319
0.0677553
0.00427048
0.0688202
0.0028849
0.0696771
0.00145635
0.0702889
0.0706092
0.0136163
0.0249229
0.013961
0.0283053
0.0142442
0.0321527
0.0144168
0.0361191
0.0144694
0.0400895
0.014378
0.0440016
0.014128
0.0477554
0.0137152
0.0512755
0.0131443
0.0545126
0.0124259
0.0574428
0.0115741
0.0600621
0.0106039
0.0623808
0.00953035
0.0644171
0.00836669
0.0661943
0.00712396
0.0677375
0.00581051
0.0690687
0.00443276
0.0701979
0.00299729
0.0711126
0.00151434
0.0717718
0.0721236
0.0142232
0.0245431
0.0144891
0.0280394
0.0146971
0.0319447
0.0148247
0.0359914
0.0148522
0.040062
0.0147488
0.044105
0.0144931
0.048011
0.0140767
0.051692
0.013501
0.0550883
0.0127746
0.0581692
0.0119103
0.0609264
0.0109227
0.0633683
0.00982651
0.0655133
0.00863504
0.0673858
0.00735949
0.069013
0.00600834
0.0704199
0.00458805
0.0716182
0.00310525
0.0725954
0.00157032
0.0733067
0.0736939
0.0496639
0.0289029
-0.0540237
0.0464307
0.0312726
0.0439043
0.0344711
0.0417464
0.0381494
0.039731
0.0420774
0.0377422
0.0460937
0.0357018
0.0500514
0.0335647
0.0538291
0.0313093
0.0573437
0.0289303
0.0605483
0.026432
0.0634247
0.0238245
0.0659758
0.0211194
0.0682185
0.0183269
0.0701783
0.0154539
0.0718861
0.0125026
0.0733711
0.00947268
0.0746482
0.00636718
0.0757009
0.0031994
0.0764745
0.0768933
0.059704
0.0335337
-0.0643348
0.0554163
0.0355603
0.0516857
0.0382018
0.0483846
0.0414505
0.0453716
0.0450905
0.042536
0.0489293
0.0397902
0.0527972
0.0370678
0.0565515
0.0343239
0.0600875
0.0315317
0.0633405
0.0286773
0.0662791
0.0257557
0.0688975
0.0227669
0.0712073
0.0197126
0.0732325
0.0165935
0.0750052
0.013407
0.0765576
0.0101489
0.0779063
0.00681836
0.0790314
0.00342632
0.0798666
0.0803196
0.0674993
0.0382599
-0.0722255
0.0628887
0.0401709
0.0585381
0.0425523
0.0544997
0.0454889
0.0507455
0.0488447
0.0472209
0.0524538
0.0438614
0.0561567
0.0406044
0.0598085
0.0373976
0.0632944
0.0342019
0.0665362
0.030991
0.06949
0.0277489
0.0721396
0.0244668
0.0744894
0.0211399
0.0765594
0.0177639
0.0783812
0.0143326
0.0799889
0.0108382
0.0814007
0.0072767
0.082593
0.00365574
0.0834875
0.0839754
0.0734761
0.042813
-0.0780292
0.068853
0.044794
0.0642825
0.0471228
0.0598709
0.0499006
0.055663
0.0530526
0.0516591
0.0564578
0.0478302
0.0599855
0.0441327
0.063506
0.0405202
0.0669068
0.0369526
0.0701038
0.0333988
0.0730437
0.0298376
0.0757008
0.0262556
0.0780714
0.0226446
0.0801704
0.0189979
0.0820278
0.0153075
0.0836793
0.0115631
0.0851451
0.00775775
0.0863983
0.00389602
0.0873493
0.0878714
0.0780858
0.04714
-0.0824128
0.0735974
0.0492824
0.0690307
0.0516895
0.0644954
0.0544359
0.0600658
0.0574822
0.055776
0.0607475
0.0516274
0.0641342
0.0475979
0.0675355
0.0436544
0.0708503
0.0397626
0.0739956
0.0358933
0.076913
0.0320252
0.0795689
0.0281444
0.0819522
0.0242426
0.0840723
0.0203133
0.0859571
0.0163485
0.0876441
0.0123375
0.0891561
0.00827141
0.0904644
0.0041523
0.0914684
0.0920237
0.0818156
0.0512456
-0.0859212
0.0775011
0.0535969
0.073038
0.0561526
0.0685187
0.0589553
0.064019
0.0619819
0.0595866
0.0651799
0.0552409
0.0684798
0.0509775
0.0717989
0.0467766
0.0750512
0.0426128
0.0781594
0.0384623
0.0810635
0.034307
0.0837242
0.0301353
0.0861239
0.0259411
0.0882665
0.0217203
0.0901779
0.0174669
0.0918975
0.0131715
0.0934515
0.00882514
0.0948108
0.00442856
0.0958649
0.0964522
0.0850591
0.055165
-0.0889785
0.0809103
0.0577457
0.0765794
0.0604835
0.0721372
0.0633975
0.0676489
0.0664701
0.0631625
0.0696663
0.0587047
0.0729376
0.0542818
0.0762219
0.0498845
0.0794485
0.0454957
0.0825482
0.0410979
0.0854613
0.0366773
0.0881448
0.0322262
0.090575
0.0277417
0.0927509
0.0232233
0.0946962
0.0186688
0.0964521
0.0140714
0.0980488
0.00942397
0.0994582
0.00472762
0.100561
0.10118
0.0881033
0.0589396
-0.0918779
0.0840932
0.0617558
0.0798868
0.0646899
0.0755363
0.067748
0.0710925
0.0709139
0.0665968
0.074162
0.0620764
0.077458
0.0575423
0.080756
0.0529917
0.0839991
0.048414
0.0871259
0.0437968
0.0900785
0.0391308
0.0928109
0.0344117
0.0952941
0.0296405
0.0975221
0.0248207
0.0995161
0.019954
0.101319
0.0150382
0.102965
0.0100693
0.104427
0.0050504
0.10558
0.10623
0.0911349
0.0626033
-0.0947986
0.0872345
0.0656562
0.0831318
0.0687926
0.0788645
0.0720153
0.0744699
0.0753085
0.0699807
0.0786512
0.0654207
0.0820181
0.0608014
0.0853752
0.0561236
0.088677
0.0513804
0.0918691
0.0465632
0.0948957
0.041666
0.0977081
0.0366877
0.100272
0.0316324
0.102577
0.0265072
0.104641
0.0213185
0.106507
0.0160691
0.108214
0.0107595
0.109737
0.00539622
0.110943
0.111626
0.0942553
0.0661706
-0.0978225
0.090445
0.0694665
0.0864264
0.0728112
0.0822278
0.0762139
0.0778753
0.079661
0.0733932
0.0831333
0.0688001
0.0866111
0.0641064
0.0900689
0.0593136
0.0934698
0.054417
0.0967657
0.0494102
0.0999024
0.0442894
0.102829
0.0390556
0.105506
0.0337155
0.107918
0.0282796
0.110077
0.0227588
0.112028
0.0171611
0.113812
0.0114924
0.115405
0.00576396
0.116672
0.11739
0.0975023
0.0696309
-0.100963
0.0937798
0.073189
0.0898358
0.0767552
0.085695
0.0803546
0.0813764
0.0839796
0.076897
0.0876128
0.0722703
0.0912378
0.0675044
0.0948348
0.0626002
0.0983739
0.057554
0.101812
0.0523605
0.105096
0.047017
0.108172
0.0415259
0.110997
0.0358961
0.113547
0.0301409
0.115832
0.0242757
0.117893
0.0183139
0.119774
0.0122676
0.121452
0.00615335
0.122786
0.123544
0.100849
0.0729296
-0.104148
0.0972423
0.0767956
0.0933844
0.0806131
0.0893042
0.0844349
0.0850184
0.0882654
0.08054
0.0920912
0.0758788
0.095899
0.0710403
0.0996733
0.0660246
0.10339
0.0608278
0.107009
0.0554451
0.110479
0.0498743
0.113743
0.044119
0.116752
0.0381895
0.119477
0.0321023
0.12192
0.0258769
0.124119
0.0195326
0.126118
0.013088
0.127896
0.00656584
0.129308
0.13011
0.104222
0.0759648
-0.107258
0.100799
0.0802185
0.0970678
0.0843446
0.0930705
0.0884322
0.0888296
0.0925062
0.0843588
0.0965621
0.0796665
0.100591
0.0747567
0.104583
0.069629
0.108517
0.0642789
0.112359
0.0587018
0.116056
0.0528957
0.119549
0.0468649
0.122783
0.0406215
0.12572
0.0341847
0.128356
0.0275789
0.130725
0.0208294
0.132867
0.0139617
0.134764
0.00700518
0.136265
0.137115
0.107421
0.078525
-0.109981
0.10433
0.0833098
0.100825
0.0878496
0.0969741
0.0922832
0.0928169
0.0966634
0.0883769
0.101002
0.0836673
0.105301
0.0786938
0.109557
0.0734563
0.113755
0.0679511
0.117864
0.0621734
0.121834
0.0561215
0.125601
0.0498005
0.129104
0.0432242
0.132297
0.0364154
0.135165
0.0294035
0.137737
0.0222206
0.14005
0.0148996
0.142085
0.00747746
0.143687
0.144592
0.110208
0.0803365
-0.112019
0.107675
0.0858423
0.104561
0.0909643
0.100969
0.0958746
0.0969704
0.100662
0.0926089
0.105363
0.0879113
0.109999
0.0828911
0.114577
0.0775524
0.119094
0.0718934
0.123523
0.0659102
0.127817
0.0596017
0.13191
0.0529739
0.135732
0.0460424
0.139228
0.0388339
0.142374
0.0313836
0.145187
0.0237312
0.147703
0.0159181
0.149898
0.00798908
0.151616
0.152581
0.111941
0.0808602
-0.112464
0.110388
0.087395
0.107992
0.0933601
0.104896
0.0989711
0.101214
0.104343
0.0970336
0.109544
0.0924108
0.114621
0.0873802
0.119608
0.0819587
0.124515
0.0761518
0.12933
0.0699597
0.134009
0.0633834
0.138486
0.0564306
0.142685
0.0491195
0.146539
0.0414809
0.150012
0.0335561
0.153112
0.025393
0.155866
0.0170419
0.158249
0.00855812
0.1601
0.161139
0.112238
0.0796941
-0.111072
0.112127
0.087506
0.110842
0.0946445
0.10856
0.101253
0.105437
0.107466
0.101607
0.113374
0.097171
0.119057
0.092199
0.124579
0.0867334
0.129981
0.0807952
0.135268
0.074393
0.140411
0.0675327
0.145346
0.0602259
0.149992
0.0524956
0.154269
0.0443795
0.158128
0.0359283
0.161563
0.0272003
0.164594
0.0182571
0.167192
0.00916161
0.169195
0.170301
0.109538
0.0757429
-0.105587
0.111696
0.0853478
0.112279
0.0940619
0.111416
0.102116
0.109303
0.109579
0.106139
0.116538
0.102098
0.123099
0.0973145
0.129363
0.0918852
0.13541
0.0858686
0.141285
0.0792946
0.146985
0.0721783
0.152462
0.0645336
0.157637
0.0563836
0.162419
0.0477677
0.166744
0.0387419
0.170589
0.029375
0.17396
0.0197422
0.176825
0.00992918
0.179008
0.18023
0.105077
0.0698228
-0.0991567
0.109535
0.0808893
0.112231
0.0913665
0.113204
0.101143
0.112577
0.110206
0.110501
0.118614
0.107158
0.126442
0.102732
0.133789
0.0973858
0.140757
0.0912434
0.147427
0.0843926
0.153836
0.0768908
0.159964
0.068781
0.165747
0.0601055
0.171095
0.0509176
0.175932
0.0412856
0.180221
0.0312892
0.183957
0.0210121
0.187102
0.0105228
0.189498
0.190753
0.0970406
-0.0873447
0.10443
0.109726
0.113041
0.114476
0.114166
0.112266
0.108943
0.10436
0.0986606
0.0919608
0.0843495
0.0758959
0.0666634
0.0567231
0.0461628
0.0350887
0.0236224
0.0119082
0.0180471
-0.0568525
-0.0152182
0.0202321
-0.0665198
0.021812
-0.0738055
0.0229524
-0.0791696
0.0237838
-0.0832442
0.0244099
-0.0865473
0.0249055
-0.0894741
0.0253176
-0.0922901
0.025669
-0.09515
0.025963
-0.0981165
0.0261857
-0.101185
0.0263077
-0.10427
0.0262757
-0.107225
0.0260201
-0.109726
0.0254253
-0.111424
0.0243922
-0.111431
0.0227332
-0.109413
0.0204479
-0.103302
0.017254
-0.0959629
-0.0839959
0.0183151
-0.0594227
-0.015745
0.020347
-0.0685517
0.0218223
-0.0752808
0.0228897
-0.080237
0.0236682
-0.0840227
0.0242565
-0.0871357
0.0247244
-0.089942
0.0251145
-0.0926801
0.0254456
-0.0954811
0.025718
-0.0983889
0.0259144
-0.101382
0.026002
-0.104357
0.0259231
-0.107147
0.0256053
-0.109408
0.0249276
-0.110747
0.0237985
-0.110302
0.0220201
-0.107634
0.0196366
-0.100918
0.0163176
-0.0926439
-0.0805734
0.0185684
-0.061849
-0.016142
0.0204649
-0.0704482
0.0218323
-0.0766482
0.0228199
-0.0812246
0.0235407
-0.0847435
0.0240884
-0.0876834
0.0245273
-0.0903808
0.0248947
-0.0930476
0.0252054
-0.0957918
0.0254556
-0.0986391
0.0256244
-0.10155
0.0256752
-0.104408
0.0255461
-0.107017
0.0251605
-0.109022
0.0243969
-0.109983
0.0231637
-0.109069
0.0212763
-0.105747
0.0187785
-0.0984202
0.0153936
-0.089259
-0.0770162
0.0187579
-0.0641565
-0.0164504
0.0205346
-0.0722249
0.0218012
-0.0779148
0.0227118
-0.0821352
0.0233766
-0.0854083
0.0238848
-0.0881916
0.0242954
-0.0907914
0.024641
-0.0933931
0.0249316
-0.0960824
0.0251596
-0.0988671
0.0253003
-0.101691
0.0253129
-0.104421
0.0251318
-0.106836
0.0246759
-0.108566
0.0238246
-0.109132
0.0224873
-0.107732
0.0204954
-0.103755
0.0178934
-0.0958182
0.0144434
-0.085809
-0.0733333
0.0188861
-0.0663518
-0.0166908
0.0205455
-0.0738842
0.0217158
-0.0790851
0.0225524
-0.0829718
0.0231636
-0.0860195
0.0236345
-0.0886624
0.0240188
-0.0911757
0.0243439
-0.0937182
0.0246154
-0.0963539
0.0248218
-0.0990735
0.0249345
-0.101804
0.0249084
-0.104394
0.0246739
-0.106602
0.0241465
-0.108039
0.0232073
-0.108193
0.021768
-0.106292
0.019678
-0.101665
0.0169832
-0.0931234
0.0134726
-0.0822984
-0.0695294
0.0189496
-0.0684342
-0.0168673
0.0204897
-0.0754243
0.0215658
-0.0801612
0.022331
-0.083737
0.022892
-0.0865805
0.0233287
-0.0890992
0.0236895
-0.0915365
0.0239964
-0.0940252
0.0242507
-0.0966082
0.0244367
-0.0992595
0.0245219
-0.101889
0.0244567
-0.104329
0.0241685
-0.106314
0.0235692
-0.10744
0.0225429
-0.107166
0.0210051
-0.104755
0.0188246
-0.0994845
0.0160502
-0.0903491
0.0124849
-0.078733
-0.0656076
0.0189398
-0.0703978
-0.0169762
0.0203588
-0.0768433
0.0213433
-0.0811457
0.0220409
-0.0844346
0.0225558
-0.0870954
0.0229624
-0.0895058
0.0233031
-0.0918773
0.0235947
-0.0943168
0.0238339
-0.0968474
0.0240009
-0.0994265
0.0240593
-0.101948
0.0239554
-0.104225
0.0236132
-0.105971
0.0229422
-0.106769
0.0218304
-0.106054
0.0201986
-0.103123
0.017936
-0.0972219
0.0150964
-0.0875095
0.0114839
-0.0751205
-0.0615694
0.0188491
-0.0722355
-0.0170114
0.020147
-0.0781412
0.0210432
-0.0820419
0.0216779
-0.0850693
0.0221518
-0.0875693
0.0225329
-0.0898869
0.0228575
-0.0922018
0.0231368
-0.0945961
0.0233632
-0.0970738
0.0235128
-0.0995761
0.0235454
-0.10198
0.0234031
-0.104083
0.0230069
-0.105575
0.0222648
-0.106027
0.0210696
-0.104859
0.019349
-0.101402
0.0170133
-0.0948862
0.0141236
-0.0846199
0.0104737
-0.0714706
-0.057415
0.0186713
-0.0739409
-0.0169659
0.0198501
-0.07932
0.0206626
-0.0828543
0.0212401
-0.0856468
0.0216786
-0.0880079
0.0220391
-0.0902474
0.0223515
-0.0925142
0.0226218
-0.0948664
0.0228378
-0.0972898
0.0229717
-0.09971
0.0229793
-0.101988
0.0227989
-0.103903
0.0223491
-0.105126
0.0215369
-0.105214
0.0202611
-0.103583
0.0184572
-0.0995982
0.0160576
-0.0924866
0.0131338
-0.0816961
0.00945874
-0.0677955
-0.0531437
0.0184024
-0.0755101
-0.0168333
0.0194661
-0.0803837
0.0202004
-0.0835886
0.020727
-0.0861734
0.0211361
-0.088417
0.021481
-0.0905923
0.0217853
-0.0928185
0.0220496
-0.0951308
0.0222575
-0.0974977
0.0223773
-0.0998297
0.0223608
-0.101971
0.0221429
-0.103685
0.02164
-0.104623
0.0207591
-0.104334
0.0194057
-0.10223
0.0175243
-0.0977168
0.0150701
-0.0900325
0.0121282
-0.0787542
0.00844409
-0.0641114
-0.0487559
0.0180396
-0.0769413
-0.0166084
0.018994
-0.0813381
0.0196567
-0.0842513
0.0201393
-0.0866559
0.020525
-0.0888028
0.0208594
-0.0909267
0.0211595
-0.0931186
0.0214209
-0.0953922
0.021623
-0.0976997
0.02173
-0.0999368
0.0216905
-0.101932
0.0214356
-0.10343