/*--------------------------------*- C++ -*----------------------------------*\
  =========                 |
  \\      /  F ield         | OpenFOAM: The Open Source CFD Toolbox
   \\    /   O peration     | Website:  https://openfoam.org
    \\  /    A nd           | Version:  7
     \\/     M anipulation  |
\*---------------------------------------------------------------------------*/
FoamFile
{
    version     2.0;
    format      ascii;
    class       volVectorField;
    location    "54.9";
    object      U;
}
// * * * * * * * * * * * * * * * * * * * * * * * * * * * * * * * * * * * * * //

dimensions      [0 1 -1 0 0 0 0];

internalField   nonuniform List<vector> 
2000
(
(-0.000675082 -0.00792831 -7.29126e-22)
(-0.00185239 -0.013068 0)
(-0.00238178 -0.0121348 0)
(-0.0014627 -0.00681013 -3.61028e-21)
(0.000903324 0.00209522 1.12723e-21)
(0.00462246 0.0141462 2.00406e-23)
(0.00952174 0.0290073 -1.94402e-21)
(0.0153416 0.0462893 0)
(0.021676 0.0654665 0)
(0.0281143 0.0858197 0)
(-0.000298726 -0.00714335 0)
(-0.00131795 -0.0124049 -2.81151e-21)
(-0.00211529 -0.0122263 2.5928e-21)
(-0.0017855 -0.00801668 4.80849e-21)
(-0.00027334 -0.00047687 0)
(0.00239429 0.0100478 4.25519e-21)
(0.0061275 0.0233317 -3.95696e-21)
(0.0107566 0.0391259 0)
(0.0159399 0.0570673 7.14878e-21)
(0.0212628 0.0766313 -1.37905e-20)
(1.81159e-05 -0.0062558 0)
(-0.000614077 -0.0115856 2.27398e-20)
(-0.00129108 -0.0120974 0)
(-0.00115523 -0.00894153 1.97458e-20)
(-0.000135228 -0.00273527 0)
(0.00177834 0.00623041 -1.73421e-20)
(0.00455757 0.0178105 0)
(0.00811628 0.0318863 1.5361e-20)
(0.0121973 0.0482781 -1.43862e-20)
(0.0163538 0.0667082 -1.40876e-20)
(0.000301463 -0.00535116 -6.00226e-21)
(0.00034452 -0.0107144 -1.12995e-20)
(0.000238704 -0.0117987 -5.29067e-21)
(0.000640816 -0.00954553 -9.74744e-21)
(0.00160266 -0.00452011 -9.23522e-21)
(0.00314053 0.00299819 8.54929e-21)
(0.00526332 0.012901 8.17604e-21)
(0.00795368 0.0251661 3.93876e-23)
(0.0110579 0.039797 1.46328e-20)
(0.014076 0.0567926 1.40885e-20)
(0.000602696 -0.00452535 -6.0185e-21)
(0.0016692 -0.00990535 -1.15588e-20)
(0.00262765 -0.0113937 -2.16557e-20)
(0.00379714 -0.00980966 9.95564e-21)
(0.00518522 -0.00569748 0)
(0.00679231 0.00063539 0)
(0.00863996 0.00906471 -1.68017e-20)
(0.0107573 0.019611 -1.58619e-20)
(0.013111 0.0324311 1.50408e-20)
(0.015162 0.0477918 4.33961e-20)
(0.000996749 -0.00386937 6.05044e-21)
(0.00348822 -0.00926551 5.87559e-21)
(0.00601587 -0.0109514 -3.24773e-20)
(0.00845685 -0.00974484 5.07548e-20)
(0.0107645 -0.00619222 -9.41612e-21)
(0.012912 -0.000658375 0)
(0.0149178 0.00666952 0)
(0.0168353 0.0157903 8.01047e-20)
(0.0187598 0.0269551 -7.55279e-20)
(0.0201824 0.0406396 1.44278e-20)
(0.00157861 -0.00345834 4.80484e-20)
(0.00593364 -0.00887496 0)
(0.0105102 -0.0105364 4.32737e-20)
(0.0146803 -0.00939309 -4.05613e-20)
(0.018351 -0.00601021 0)
(0.021471 -0.000824852 1.81653e-20)
(0.024054 0.0058857 -5.10144e-20)
(0.0261633 0.0140386 -6.4507e-20)
(0.0280168 0.0238969 3.03632e-20)
(0.0292574 0.0360544 2.93097e-20)
(0.00245306 -0.00333115 -9.59104e-20)
(0.00913047 -0.00877624 -1.17006e-20)
(0.0161649 -0.0101958 -2.17959e-20)
(0.0224232 -0.0088169 -5.10194e-20)
(0.0277839 -0.00524038 -1.9373e-20)
(0.03219 2.72968e-05 -1.82787e-20)
(0.0356618 0.00661814 -6.78515e-23)
(0.0382704 0.0143332 0)
(0.0403402 0.0233613 0)
(0.0418174 0.0343101 1.69432e-22)
(0.00371805 -0.003487 4.78629e-20)
(0.0131748 -0.00896129 -4.64749e-20)
(0.022968 -0.00994044 3.25638e-20)
(0.0315242 -0.008083 7.16957e-20)
(0.0387278 -0.00403811 -1.90774e-20)
(0.0445484 0.00163359 1.82806e-20)
(0.0490346 0.00850305 1.72183e-20)
(0.0522635 0.0162755 0)
(0.0546111 0.0250339 0)
(0.0564656 0.0352817 -2.60837e-22)
(0.0054596 -0.00388708 -5.93914e-21)
(0.0181139 -0.00935872 5.82079e-20)
(0.0308236 -0.0097383 -1.08128e-20)
(0.0416998 -0.00724779 0)
(0.0506886 -0.00259972 0)
(0.0578411 0.00360892 3.62033e-20)
(0.0632865 0.0109376 0)
(0.0671456 0.0190878 -3.2213e-20)
(0.0697323 0.0281262 -3.00235e-22)
(0.0715855 0.0383392 2.90571e-20)
(0.0442757 0.132259 5.49885e-22)
(0.0620984 0.207472 -5.56526e-22)
(0.0647087 0.26589 -6.45928e-22)
(0.0609846 0.32055 -7.16872e-22)
(0.0523441 0.379875 -8.2965e-22)
(0.0460028 0.447853 -1.94738e-23)
(0.0319792 0.526228 4.35004e-22)
(0.0279837 0.61812 1.46334e-21)
(0.00499768 0.737694 0)
(0.00912194 0.876617 -1.05156e-21)
(0.0352219 0.122882 2.04738e-21)
(0.0556779 0.201834 -2.43337e-21)
(0.0605173 0.264348 4.37181e-21)
(0.057958 0.320966 7.1811e-22)
(0.0499919 0.381132 1.5277e-21)
(0.0441149 0.449608 2.51798e-21)
(0.0306837 0.528454 -9.14284e-22)
(0.0269002 0.620848 -9.78625e-22)
(0.00483243 0.740342 1.94794e-21)
(0.00863161 0.878232 1.04906e-21)
(0.027159 0.112126 0)
(0.0494855 0.194015 -2.31798e-21)
(0.0566761 0.261201 -1.27665e-21)
(0.0553085 0.320178 0)
(0.0479609 0.381336 -4.66449e-21)
(0.0425074 0.450409 1.49372e-21)
(0.029587 0.52983 1.63009e-21)
(0.0259645 0.622847 5.44914e-21)
(0.00473661 0.742611 -1.94164e-21)
(0.00819021 0.879671 3.89063e-21)
(0.0207722 0.100583 0)
(0.0435274 0.183964 2.33764e-21)
(0.0531673 0.256358 0)
(0.0530122 0.318129 5.64771e-21)
(0.0462384 0.380454 -5.6768e-21)
(0.0411675 0.450179 -3.25998e-21)
(0.0286801 0.530165 -1.39634e-22)
(0.0251841 0.623809 -5.34728e-21)
(0.00471329 0.744018 -8.85449e-22)
(0.00777472 0.880693 -4.80049e-21)
(0.0170808 0.0890443 3.36315e-22)
(0.0379197 0.171823 -6.69448e-21)
(0.0499694 0.249739 3.01672e-22)
(0.0510378 0.314784 -5.16439e-21)
(0.0448065 0.378575 0)
(0.0400685 0.449134 -3.16408e-21)
(0.0279363 0.529861 -1.72303e-22)
(0.0245299 0.624352 6.85759e-21)
(0.00473013 0.745269 8.94492e-22)
(0.00739938 0.881662 -8.9769e-22)
(0.01724 0.0784106 -1.8299e-20)
(0.0329764 0.158064 1.16996e-20)
(0.0470647 0.241288 5.10921e-21)
(0.0493628 0.310033 -5.10643e-21)
(0.0436586 0.375511 -2.77093e-21)
(0.0392145 0.446896 0)
(0.0273646 0.528272 -6.33305e-21)
(0.0240196 0.623524 3.14715e-21)
(0.00481368 0.745288 3.35446e-21)
(0.00703342 0.882098 3.43366e-21)
(0.0220753 0.0695518 -2.28593e-21)
(0.0292883 0.143542 0)
(0.0444444 0.231003 0)
(0.0479496 0.304024 0)
(0.0427723 0.37176 -2.89563e-21)
(0.0385627 0.444355 5.65778e-21)
(0.0269225 0.52671 6.22387e-21)
(0.0235887 0.623029 -9.52302e-21)
(0.00489251 0.745819 1.65076e-21)
(0.00671333 0.88274 -5.03558e-21)
(0.0315724 0.0630017 1.42009e-20)
(0.027706 0.129401 9.95741e-21)
(0.0421921 0.218956 -9.86782e-21)
(0.0468015 0.296165 1.06013e-20)
(0.0421402 0.366145 -1.31723e-20)
(0.0381584 0.439771 0)
(0.0266575 0.522851 -2.90767e-21)
(0.0233225 0.620095 9.37197e-23)
(0.00507065 0.744254 -3.07761e-21)
(0.00638213 0.882603 -3.14497e-21)
(0.0445889 0.0584436 -1.21838e-20)
(0.0291631 0.116199 0)
(0.0403952 0.205917 -1.14466e-20)
(0.0459046 0.288332 2.05759e-20)
(0.041751 0.361619 -7.68071e-21)
(0.0378793 0.436972 -1.36653e-21)
(0.0264589 0.521198 2.90152e-21)
(0.0230379 0.61956 1.3012e-23)
(0.00515053 0.744733 4.48838e-21)
(0.0061132 0.883133 4.598e-21)
(0.0587298 0.0559777 -1.02015e-20)
(0.0345282 0.103582 9.96877e-21)
(0.0397031 0.188576 1.26037e-21)
(0.0451458 0.274312 0)
(0.041554 0.350797 0)
(0.0379704 0.427981 1.32064e-21)
(0.0265324 0.513457 5.41743e-21)
(0.0230618 0.613398 -5.25931e-21)
(0.005462 0.740973 -1.35606e-21)
(0.00580115 0.882392 1.31436e-21)
(0.080601 0.067098 0)
(0.0496395 0.101914 0)
(0.0431519 0.177221 0)
(0.0463038 0.269009 0)
(0.0417326 0.351104 0)
(0.037558 0.430956 0)
(0.0262936 0.516951 0)
(0.0222748 0.617556 0)
(0.00535944 0.744771 0)
(0.00529789 0.884146 0)
(0.0962453 0.0957675 0)
(0.0717201 0.131969 0)
(0.0527561 0.18783 0)
(0.0494652 0.272159 0)
(0.0432397 0.356637 0)
(0.0365036 0.438671 0)
(0.0248314 0.526589 0)
(0.0204905 0.628996 0)
(0.00515374 0.755802 0)
(0.00472228 0.890973 0)
(0.0997134 0.106807 0)
(0.0855379 0.153612 0)
(0.0642864 0.203914 0)
(0.0542216 0.280099 0)
(0.0468988 0.364386 0)
(0.0395735 0.446762 0)
(0.0269931 0.533779 0)
(0.020899 0.635685 0)
(0.00575242 0.761689 0)
(0.0044732 0.893474 0)
(0.0956756 0.111084 0)
(0.089773 0.168426 0)
(0.072665 0.220411 0)
(0.0589155 0.291795 0)
(0.0480095 0.375027 0)
(0.0388509 0.458164 0)
(0.0266037 0.545868 0)
(0.0203434 0.648285 0)
(0.00618489 0.773663 0)
(0.00422728 0.901295 0)
(0.0874517 0.111301 0)
(0.0869507 0.177215 0)
(0.0757311 0.23346 0)
(0.063594 0.302671 0)
(0.0530091 0.385147 0)
(0.0425862 0.467833 0)
(0.0288638 0.553874 0)
(0.0211436 0.654564 0)
(0.00701806 0.778425 0)
(0.00420861 0.903218 0)
(0.0755116 0.109141 0)
(0.0788415 0.181589 0)
(0.0730803 0.244575 0)
(0.062301 0.314996 0)
(0.0511264 0.397216 0)
(0.0410952 0.481128 0)
(0.0283339 0.568166 0)
(0.0205723 0.66924 0)
(0.00732997 0.791915 0)
(0.00401043 0.912406 0)
(0.061353 0.104312 0)
(0.0676899 0.179923 0)
(0.0684431 0.24894 0)
(0.0637368 0.323597 0)
(0.0545286 0.407307 0)
(0.0436824 0.490476 0)
(0.0300326 0.57545 0)
(0.0212104 0.674384 0)
(0.00786444 0.795651 0)
(0.00398777 0.91411 0)
(0.0464501 0.0979631 0)
(0.0542277 0.176094 0)
(0.0571024 0.250355 0)
(0.0549848 0.329444 0)
(0.0489016 0.417047 0)
(0.0406397 0.504282 0)
(0.0288821 0.591638 0)
(0.0205681 0.691136 0)
(0.00815276 0.810748 0)
(0.00383768 0.924788 0)
(0.0329494 0.088641 0)
(0.0441834 0.168119 0)
(0.0527632 0.248922 0)
(0.0548866 0.334157 0)
(0.0499815 0.423796 0)
(0.0415938 0.510309 0)
(0.029595 0.596113 0)
(0.0207926 0.694024 0)
(0.0083663 0.812808 0)
(0.00382061 0.925732 0)
(0.0166244 0.0748793 0)
(0.0259595 0.152292 0)
(0.0358803 0.236153 0)
(0.0426438 0.329775 0)
(0.0429696 0.429225 0)
(0.0383089 0.523748 0)
(0.0286932 0.613659 0)
(0.0204716 0.712493 0)
(0.00879707 0.829224 0)
(0.00371329 0.937426 0)
(0.100831 0.0544873 8.6964e-21)
(0.107348 0.0674962 -8.55431e-21)
(0.105392 0.0701352 7.64614e-22)
(0.0985014 0.0692993 0)
(0.0881215 0.0658975 0)
(0.0741102 0.061464 2.14171e-22)
(0.0579751 0.0555778 -1.9841e-22)
(0.0414215 0.0487409 1.95247e-22)
(0.026739 0.0406373 -3.8297e-23)
(0.0119429 0.02856 3.77554e-23)
(0.106278 0.0489831 -1.11731e-20)
(0.107492 0.056001 0)
(0.103207 0.0550641 4.31693e-21)
(0.0952818 0.0520362 -8.57058e-21)
(0.0845278 0.0470521 4.22321e-21)
(0.07053 0.041582 -2.10565e-22)
(0.0546625 0.0351094 1.47827e-22)
(0.0384437 0.0280405 -3.97661e-23)
(0.023924 0.0203359 -7.28386e-23)
(0.0101607 0.00890432 -4.73567e-23)
(0.108946 0.042223 1.25541e-20)
(0.10678 0.0441889 -6.10012e-21)
(0.101233 0.0403367 6.04115e-21)
(0.0925757 0.0352817 -3.31893e-21)
(0.0814428 0.0286463 2.60504e-21)
(0.0673334 0.0219928 0)
(0.0515963 0.0147343 -1.48164e-22)
(0.0356455 0.00734596 -5.52246e-24)
(0.0212655 -9.03399e-05 6.88765e-23)
(0.00823651 -0.0106748 8.71736e-23)
(0.109831 0.0333916 -1.93105e-21)
(0.105055 0.0310643 0)
(0.0986993 0.0248815 0)
(0.0895509 0.0181577 0)
(0.0782355 0.0100993 1.56636e-21)
(0.0641678 0.00243625 -9.56885e-22)
(0.0486521 -0.00553521 6.70747e-23)
(0.0330186 -0.013186 7.8403e-23)
(0.0188539 -0.0204548 3.61819e-23)
(0.00679982 -0.0299822 3.63124e-23)
(0.109058 0.0226844 -1.07499e-21)
(0.102374 0.0168396 -5.10475e-21)
(0.0955637 0.00873135 -2.08631e-21)
(0.0860988 0.000640966 2.08472e-21)
(0.0747366 -0.00861794 -6.01893e-22)
(0.0608512 -0.0170817 0)
(0.0456615 -0.0256252 -1.24897e-22)
(0.0304488 -0.0334368 -4.56493e-23)
(0.0166688 -0.0405374 3.51439e-23)
(0.00549056 -0.0488976 -7.32012e-23)
(0.106929 0.01051 -1.3585e-20)
(0.0989605 0.00190348 2.24802e-21)
(0.0919664 -0.00786044 5.96756e-22)
(0.082337 -0.0170635 2.0031e-21)
(0.0710513 -0.0273397 0)
(0.0574302 -0.0364169 0)
(0.0426478 -0.0453881 0)
(0.0279348 -0.0532559 4.2468e-24)
(0.0146729 -0.0601231 0)
(0.00435028 -0.067282 0)
(0.103688 -0.00270766 0)
(0.0949549 -0.0133693 3.8845e-21)
(0.0880131 -0.0246144 -2.51414e-21)
(0.0783246 -0.0347035 -1.38135e-21)
(0.0672299 -0.0458354 1.38841e-21)
(0.0539408 -0.0553679 2.24374e-22)
(0.0396448 -0.0646412 -2.93121e-22)
(0.0255 -0.0724593 -8.59176e-23)
(0.0128544 -0.0790031 3.11338e-24)
(0.00340457 -0.0849761 2.92926e-23)
(0.0995287 -0.0165885 0)
(0.0904992 -0.0286551 -1.37132e-21)
(0.0837441 -0.0412575 -5.44594e-22)
(0.0741014 -0.0520115 0)
(0.0632962 -0.0638654 1.59071e-22)
(0.050427 -0.0737207 -6.07352e-22)
(0.0366762 -0.0831768 1.81509e-22)
(0.023165 -0.0908448 -2.50207e-23)
(0.0112121 -0.0969717 9.9877e-24)
(0.0026381 -0.101816 -4.04784e-23)
(0.0945858 -0.0308202 1.71388e-21)
(0.0856905 -0.0436667 1.20753e-21)
(0.0791866 -0.0575283 -4.04201e-22)
(0.0697155 -0.0687528 2.04037e-22)
(0.0592911 -0.0811981 2.79162e-22)
(0.0469197 -0.0912591 2.52119e-22)
(0.0337657 -0.100781 -4.34074e-23)
(0.02095 -0.10821 -1.3757e-23)
(0.00974498 -0.113839 -1.00203e-23)
(0.00202744 -0.117649 -4.52366e-24)
(0.0890017 -0.0450945 -3.63024e-22)
(0.0805764 -0.0581746 3.66458e-22)
(0.0744192 -0.0732019 -2.70354e-22)
(0.0652262 -0.084717 -2.03721e-22)
(0.0552511 -0.0976205 1.15953e-22)
(0.0434517 -0.107785 -2.0367e-22)
(0.0309408 -0.117257 5.89992e-23)
(0.0188751 -0.124373 -1.94756e-24)
(0.00844984 -0.129446 0)
(0.00154889 -0.132345 4.53247e-24)
(0.0830185 -0.0591551 3.65673e-22)
(0.0752915 -0.0720082 -3.68868e-22)
(0.0695514 -0.0880925 -2.75663e-22)
(0.0607319 -0.0997364 -2.10651e-22)
(0.0512431 -0.112954 -1.21118e-22)
(0.0400763 -0.123137 2.43411e-23)
(0.0282382 -0.132441 3.69185e-23)
(0.0169601 -0.139195 4.37949e-23)
(0.00732054 -0.143684 0)
(0.00117889 -0.145815 -5.31123e-25)
(0.0769075 -0.0728277 0)
(0.0700173 -0.0850534 -1.2327e-21)
(0.06472 -0.102051 2.08127e-21)
(0.0563548 -0.113692 2.10957e-22)
(0.0473511 -0.127059 3.15455e-22)
(0.0368556 -0.137201 3.07181e-22)
(0.0256975 -0.146221 -5.53993e-23)
(0.0152209 -0.152594 -2.50975e-23)
(0.00634784 -0.156497 2.42226e-23)
(0.000895454 -0.158015 5.29781e-25)
(0.0708626 -0.0859976 0)
(0.0648825 -0.097259 -1.40011e-21)
(0.0600117 -0.114968 -5.64587e-22)
(0.0521759 -0.126523 0)
(0.0436329 -0.139849 -8.53347e-22)
(0.0338322 -0.149919 3.31793e-22)
(0.0233473 -0.15855 1.77018e-22)
(0.0136641 -0.164556 2.49136e-22)
(0.00551963 -0.167894 -2.41435e-23)
(0.000679324 -0.168951 1.93817e-23)
(0.065014 -0.0985873 0)
(0.0599696 -0.108647 1.41167e-21)
(0.0554731 -0.12678 0)
(0.0482387 -0.138236 1.58375e-21)
(0.040123 -0.151301 -1.592e-21)
(0.0310279 -0.161303 -3.75924e-22)
(0.0212031 -0.169449 1.01805e-22)
(0.0122868 -0.175128 -2.63065e-22)
(0.00482188 -0.177939 -4.67968e-23)
(0.000514115 -0.178678 -3.14223e-23)
(0.0594683 -0.110547 1.40411e-20)
(0.0553571 -0.119316 -5.27803e-21)
(0.0511516 -0.137472 -5.26545e-22)
(0.0445782 -0.1489 -2.16543e-21)
(0.036853 -0.161457 0)
(0.0284541 -0.171425 -4.06365e-22)
(0.0192721 -0.179005 1.56139e-22)
(0.0110792 -0.184418 4.24565e-22)
(0.00423979 -0.186744 1.51015e-23)
(0.000386122 -0.187294 -1.50715e-23)
(0.0542991 -0.12183 1.1159e-21)
(0.0511233 -0.129435 8.2174e-21)
(0.0471062 -0.147074 2.25036e-21)
(0.041225 -0.158635 -2.24906e-21)
(0.033857 -0.170418 -7.62324e-22)
(0.0261171 -0.180407 0)
(0.0175565 -0.187354 -6.38668e-22)
(0.0100278 -0.192572 3.39847e-22)
(0.00375923 -0.194458 1.56977e-22)
(0.000284288 -0.194926 3.9431e-23)
(0.0495883 -0.132356 -1.94462e-21)
(0.0473838 -0.139235 0)
(0.0434361 -0.155657 0)
(0.0382217 -0.167588 0)
(0.0311811 -0.178334 -5.80268e-22)
(0.0240259 -0.188401 1.3412e-21)
(0.0160577 -0.194668 6.63455e-22)
(0.00911965 -0.199759 -7.61429e-22)
(0.00336807 -0.201249 4.08265e-23)
(0.000199781 -0.201723 -7.94081e-23)
(0.0453613 -0.141979 -4.48338e-21)
(0.0441852 -0.14897 6.08846e-21)
(0.0401894 -0.163334 -6.0313e-21)
(0.0355564 -0.17591 3.83054e-21)
(0.0288377 -0.185389 -4.63942e-21)
(0.0221669 -0.195573 0)
(0.0147631 -0.201131 -4.168e-22)
(0.00833685 -0.206154 -2.27019e-23)
(0.00305382 -0.207291 -1.42333e-22)
(0.000124015 -0.207844 -4.94795e-23)
(0.041 -0.15039 -2.10617e-21)
(0.0409691 -0.158866 0)
(0.0370271 -0.170263 -5.9374e-21)
(0.0329192 -0.183749 9.17679e-21)
(0.0266349 -0.19179 -3.14113e-21)
(0.0204004 -0.202104 -3.24031e-22)
(0.0135885 -0.206936 4.15853e-22)
(0.00762906 -0.211928 4.96989e-23)
(0.00279146 -0.212751 2.99109e-22)
(5.0067e-05 -0.213446 9.79642e-23)
(0.0366333 -0.156893 -8.56613e-21)
(0.0376149 -0.169121 8.3598e-21)
(0.0340856 -0.176722 7.70882e-22)
(0.0303328 -0.191284 0)
(0.0245806 -0.197802 0)
(0.0187296 -0.20821 3.34156e-22)
(0.0125196 -0.212295 7.74074e-22)
(0.00698467 -0.21726 -7.59298e-22)
(0.00256693 -0.217792 -5.54866e-23)
(3.62563e-06 -0.218684 5.42141e-23)
(0.0390792 -0.165532 0)
(0.0380122 -0.19312 0)
(0.0339866 -0.191254 0)
(0.0291402 -0.208592 0)
(0.0232856 -0.211748 0)
(0.0171308 -0.222375 0)
(0.0113695 -0.224656 0)
(0.00618542 -0.229462 0)
(0.00235853 -0.229234 0)
(5.24522e-05 -0.230555 0)
(0.028829 -0.204752 0)
(0.0238421 -0.231221 0)
(0.0220805 -0.224466 0)
(0.0177791 -0.240085 0)
(0.014689 -0.239017 0)
(0.0105534 -0.248085 0)
(0.00727545 -0.24757 0)
(0.00396852 -0.251634 0)
(0.0016823 -0.250161 0)
(0.00010245 -0.251729 0)
(0.0267078 -0.244729 0)
(0.0208902 -0.270135 0)
(0.0184935 -0.259565 0)
(0.0140052 -0.274539 0)
(0.0114479 -0.270144 0)
(0.00786635 -0.278767 0)
(0.00557913 -0.27607 0)
(0.00302561 -0.280066 0)
(0.00146377 -0.277504 0)
(0.000112099 -0.279468 0)
(0.0234106 -0.290193 0)
(0.0173997 -0.315388 0)
(0.0152385 -0.301771 0)
(0.0110047 -0.316886 0)
(0.009145 -0.309736 0)
(0.00606673 -0.318662 0)
(0.00455596 -0.314115 0)
(0.00246764 -0.31856 0)
(0.00138367 -0.314916 0)
(0.000103452 -0.317488 0)
(0.0208287 -0.34478 0)
(0.0151601 -0.369933 0)
(0.0128901 -0.354611 0)
(0.00901861 -0.370229 0)
(0.00752447 -0.361231 0)
(0.00485418 -0.37088 0)
(0.00383591 -0.364928 0)
(0.00203052 -0.370129 0)
(0.00127811 -0.365539 0)
(5.84194e-05 -0.368934 0)
(0.018403 -0.41001 0)
(0.0130811 -0.433518 0)
(0.0109266 -0.41897 0)
(0.00739011 -0.434289 0)
(0.00618249 -0.425044 0)
(0.0038088 -0.434989 0)
(0.00308943 -0.428523 0)
(0.00145997 -0.434288 0)
(0.000984902 -0.429248 0)
(-5.71267e-05 -0.43336 0)
(0.0151561 -0.480887 0)
(0.0105778 -0.500053 0)
(0.00875657 -0.489338 0)
(0.00575488 -0.502466 0)
(0.00475278 -0.495051 0)
(0.00270573 -0.5039 0)
(0.00211626 -0.498261 0)
(0.000700007 -0.503651 0)
(0.000475969 -0.499081 0)
(-0.000196649 -0.503262 0)
(0.0113914 -0.545318 0)
(0.00790357 -0.558826 0)
(0.00637405 -0.553422 0)
(0.00402173 -0.562684 0)
(0.00320817 -0.55837 0)
(0.00156377 -0.564636 0)
(0.00108553 -0.560864 0)
(-3.19223e-05 -0.564687 0)
(-1.00533e-05 -0.561416 0)
(-0.000275278 -0.564593 0)
(0.00691369 -0.592025 0)
(0.00463793 -0.599742 0)
(0.00372826 -0.599185 0)
(0.00227498 -0.604484 0)
(0.0017919 -0.603347 0)
(0.000710582 -0.606597 0)
(0.000398951 -0.604895 0)
(-0.00032654 -0.606646 0)
(-0.000197068 -0.604908 0)
(-0.00023121 -0.606487 0)
(0.00215441 -0.615197 0)
(0.0013306 -0.620689 0)
(0.00115927 -0.622733 0)
(0.000703466 -0.6258 0)
(0.000585072 -0.626227 0)
(0.000206268 -0.627765 0)
(9.85542e-05 -0.627162 0)
(-0.000154592 -0.627756 0)
(-9.50231e-05 -0.626892 0)
(-8.47311e-05 -0.627527 0)
(0.035875 -0.177927 9.90328e-21)
(0.0292276 -0.217993 -9.71721e-21)
(0.028508 -0.25948 1.22479e-21)
(0.0254868 -0.30652 0)
(0.0233175 -0.361458 0)
(0.0207289 -0.424874 1.33113e-21)
(0.0173114 -0.491383 -5.61034e-21)
(0.01302 -0.549967 5.54818e-21)
(0.00816149 -0.591969 1.48715e-21)
(0.00279494 -0.612372 -1.46488e-21)
(0.0351607 -0.18424 -1.17432e-20)
(0.0298341 -0.223693 0)
(0.0293968 -0.264939 8.12632e-21)
(0.0264625 -0.312012 -1.85648e-20)
(0.0244332 -0.366743 1.17515e-20)
(0.0217591 -0.429341 -1.21358e-21)
(0.0182643 -0.494221 2.64864e-21)
(0.0137653 -0.551005 5.51953e-21)
(0.00872106 -0.591326 1.52755e-21)
(0.00306146 -0.61127 1.49291e-21)
(0.0349036 -0.190781 1.37479e-20)
(0.0309801 -0.230012 -9.15441e-21)
(0.0306453 -0.270669 9.06765e-21)
(0.027754 -0.317285 -9.69376e-21)
(0.0257856 -0.371488 7.1941e-21)
(0.02296 -0.433054 0)
(0.019296 -0.496254 -2.65518e-21)
(0.014549 -0.551401 1.27653e-22)
(0.00922307 -0.590228 -2.87449e-21)
(0.00324008 -0.609944 -2.93436e-21)
(0.0351333 -0.196321 -2.21835e-21)
(0.0325248 -0.235685 0)
(0.0322264 -0.276022 0)
(0.0293728 -0.32226 0)
(0.0273923 -0.375964 7.82695e-21)
(0.0243635 -0.436494 -5.21953e-21)
(0.0204575 -0.498068 -2.11925e-23)
(0.0154082 -0.551543 -3.07296e-21)
(0.00971646 -0.588986 -1.56887e-21)
(0.00337024 -0.608213 -1.66591e-21)
(0.0359769 -0.201154 1.50564e-23)
(0.0344247 -0.240394 -6.65633e-21)
(0.0340844 -0.28049 -4.81646e-21)
(0.0312667 -0.326514 4.81349e-21)
(0.0292175 -0.379845 -2.5725e-21)
(0.0259565 -0.439468 0)
(0.0217736 -0.499585 -2.91175e-21)
(0.0163801 -0.551467 6.28216e-21)
(0.010271 -0.587641 -3.20709e-21)
(0.00351061 -0.606181 3.27303e-21)
(0.037502 -0.205499 -1.7877e-20)
(0.0367217 -0.244304 2.06713e-21)
(0.0362354 -0.284024 -2.32474e-22)
(0.0334174 -0.329845 4.93079e-21)
(0.0312394 -0.382855 0)
(0.0277221 -0.441687 0)
(0.0232433 -0.500551 0)
(0.017477 -0.551039 3.35369e-21)
(0.0109211 -0.586109 0)
(0.00369271 -0.603967 0)
(0.0397164 -0.209223 0)
(0.0394461 -0.247458 7.0968e-21)
(0.0387261 -0.286686 -4.77551e-21)
(0.0358456 -0.332248 -5.38878e-21)
(0.0334702 -0.384918 5.41687e-21)
(0.0296651 -0.443028 3.10734e-21)
(0.0248644 -0.500819 -3.09607e-21)
(0.0186966 -0.550147 -1.19709e-20)
(0.0116674 -0.584312 8.53512e-22)
(0.00392077 -0.601615 -2.87593e-21)
(0.0426201 -0.212122 0)
(0.0426 -0.249751 -2.32659e-21)
(0.0415883 -0.288452 -1.27378e-21)
(0.0385758 -0.33373 0)
(0.0359363 -0.386046 1.52404e-21)
(0.0318065 -0.443495 -4.61819e-21)
(0.0266462 -0.500369 5.03038e-21)
(0.0200391 -0.548755 1.77346e-21)
(0.0125013 -0.58221 -1.92853e-21)
(0.00418922 -0.599111 3.81956e-21)
(0.0462216 -0.21406 2.2153e-21)
(0.0461806 -0.251081 2.47941e-21)
(0.0448373 -0.289241 -5.76346e-22)
(0.0416203 -0.334263 7.06798e-22)
(0.0386597 -0.386244 1.47535e-21)
(0.0341676 -0.44312 2.42433e-21)
(0.0286025 -0.499237 -8.95847e-22)
(0.0215086 -0.546881 -9.57912e-22)
(0.013416 -0.579804 1.9349e-21)
(0.00449284 -0.596429 1.04216e-21)
(0.0505296 -0.214933 -5.91259e-22)
(0.0501901 -0.251403 5.96293e-22)
(0.048484 -0.288989 -6.53438e-22)
(0.0449831 -0.333808 -7.05917e-22)
(0.0416543 -0.38549 8.09592e-22)
(0.0367642 -0.441907 -1.64665e-21)
(0.0307492 -0.49744 1.36754e-21)
(0.0231181 -0.544537 4.83451e-22)
(0.0144167 -0.577094 0)
(0.00483269 -0.593548 -1.04447e-21)
(0.0555472 -0.214655 6.04933e-22)
(0.0546297 -0.250722 -6.1034e-22)
(0.0525405 -0.287657 -6.96733e-22)
(0.0486668 -0.33235 -7.5717e-22)
(0.0449316 -0.383772 -8.41625e-22)
(0.0396046 -0.43987 -4.8781e-23)
(0.0330939 -0.495005 4.81414e-22)
(0.0248701 -0.541754 1.53691e-21)
(0.0155029 -0.574098 0)
(0.00520851 -0.590465 -1.13357e-21)
(0.0612715 -0.213194 0)
(0.0594951 -0.249054 -2.70393e-21)
(0.0570183 -0.285256 4.86624e-21)
(0.05267 -0.329899 7.58483e-22)
(0.0485007 -0.381082 1.71563e-21)
(0.0426984 -0.436988 2.76583e-21)
(0.0356529 -0.491897 -9.72183e-22)
(0.0267848 -0.538497 -1.04051e-21)
(0.0166902 -0.570793 2.28162e-21)
(0.0056261 -0.587169 1.13091e-21)
(0.0676954 -0.210611 0)
(0.0647768 -0.246411 -2.70236e-21)
(0.0619222 -0.281844 -1.44826e-21)
(0.0569984 -0.32647 0)
(0.0523728 -0.377471 -5.36061e-21)
(0.0460461 -0.433314 1.79852e-21)
(0.03842 -0.48819 2.08021e-21)
(0.0288471 -0.534829 6.6456e-21)
(0.0179644 -0.5672 -2.27422e-21)
(0.00607873 -0.58366 4.88248e-21)
(0.0748084 -0.207034 0)
(0.0704692 -0.242769 2.72551e-21)
(0.0672447 -0.277563 0)
(0.0616464 -0.322108 6.94221e-21)
(0.056552 -0.372937 -6.97779e-21)
(0.0496665 -0.428786 -4.11091e-21)
(0.0414227 -0.483781 -7.10784e-23)
(0.0311001 -0.530648 -6.82188e-21)
(0.01936 -0.563244 -1.13767e-21)
(0.00657762 -0.57989 -6.07282e-21)
(0.0825948 -0.202655 2.07326e-20)
(0.0765542 -0.238147 -7.87014e-21)
(0.0729666 -0.27245 5.82539e-22)
(0.0666565 -0.316801 -6.62583e-21)
(0.0610479 -0.367525 0)
(0.053546 -0.423532 -4.27407e-21)
(0.0446298 -0.47884 -3.05638e-22)
(0.0335001 -0.526106 9.25743e-21)
(0.0208381 -0.559041 1.25739e-21)
(0.00710097 -0.575922 -1.26212e-21)
(0.09101 -0.197669 -1.32239e-21)
(0.0830725 -0.23244 1.4303e-20)
(0.0790712 -0.266436 6.87519e-21)
(0.0720257 -0.310536 -6.87054e-21)
(0.065865 -0.361195 -3.98909e-21)
(0.0577265 -0.417374 0)
(0.0481121 -0.473097 -9.45735e-21)
(0.0361342 -0.520958 4.74119e-21)
(0.0224741 -0.554446 5.02158e-21)
(0.00768664 -0.571661 5.35772e-21)
(0.0999811 -0.192115 -2.83465e-21)
(0.0900592 -0.225797 0)
(0.0854804 -0.25983 0)
(0.0777167 -0.303685 0)
(0.0709497 -0.354425 -4.50654e-21)
(0.0621247 -0.410928 8.48115e-21)
(0.0517376 -0.467211 9.6207e-21)
(0.038842 -0.515718 -1.50599e-20)
(0.024135 -0.549735 2.67499e-21)
(0.00826371 -0.567267 -7.95706e-21)
(0.109328 -0.185938 -4.8227e-21)
(0.0975109 -0.21823 1.35592e-20)
(0.0922 -0.252337 -1.343e-20)
(0.0837969 -0.295707 1.6249e-20)
(0.0764263 -0.346342 -2.03828e-20)
(0.0669497 -0.403044 0)
(0.0557951 -0.459994 -5.01729e-21)
(0.0419418 -0.509486 -1.91015e-22)
(0.0260758 -0.544414 -5.54426e-21)
(0.00896004 -0.562427 -5.63664e-21)
(0.118771 -0.180113 -3.0192e-21)
(0.105222 -0.210948 0)
(0.098967 -0.245444 -1.735e-20)
(0.0899444 -0.288595 3.21648e-20)
(0.0819025 -0.339442 -1.23364e-20)
(0.0716962 -0.396533 -2.40005e-21)
(0.0596819 -0.454039 5.00657e-21)
(0.0448271 -0.504065 -2.30043e-22)
(0.0278346 -0.539398 8.1052e-21)
(0.00953517 -0.557665 8.34108e-21)
(0.128752 -0.171755 -1.32026e-20)
(0.114454 -0.200247 1.29157e-20)
(0.106869 -0.234838 1.86345e-21)
(0.0972143 -0.277386 0)
(0.0884634 -0.32813 0)
(0.0775717 -0.385703 2.33307e-21)
(0.0646913 -0.444518 1.046e-20)
(0.0487108 -0.496297 -1.02161e-20)
(0.0303036 -0.533121 -2.76666e-21)
(0.0104389 -0.552025 2.7193e-21)
(0.140008 -0.172907 0)
(0.134252 -0.196451 0)
(0.122547 -0.232409 0)
(0.111332 -0.274184 0)
(0.101 -0.323986 0)
(0.0882457 -0.379804 0)
(0.0732713 -0.436426 0)
(0.0549728 -0.486054 0)
(0.0340421 -0.521545 0)
(0.0113806 -0.540244 0)
(0.163302 -0.157056 0)
(0.168579 -0.185355 0)
(0.14992 -0.224436 0)
(0.138654 -0.265497 0)
(0.125508 -0.314509 0)
(0.109512 -0.367843 0)
(0.0907665 -0.420746 0)
(0.0680939 -0.466116 0)
(0.042405 -0.497589 0)
(0.0148808 -0.512924 0)
(0.195073 -0.141284 0)
(0.20531 -0.17076 0)
(0.179373 -0.209316 0)
(0.169621 -0.248717 0)
(0.152218 -0.296359 0)
(0.132412 -0.346332 0)
(0.109054 -0.395471 0)
(0.081279 -0.437725 0)
(0.0500642 -0.467961 0)
(0.0164043 -0.484532 0)
(0.235376 -0.130323 0)
(0.24721 -0.158598 0)
(0.214834 -0.195842 0)
(0.207518 -0.234038 0)
(0.183966 -0.279962 0)
(0.160276 -0.325516 0)
(0.131394 -0.370188 0)
(0.0976813 -0.407486 0)
(0.0605115 -0.432828 0)
(0.021422 -0.444284 0)
(0.283348 -0.116096 0)
(0.293387 -0.141963 0)
(0.255748 -0.176595 0)
(0.249158 -0.211766 0)
(0.216285 -0.252854 0)
(0.188332 -0.292045 0)
(0.15211 -0.331874 0)
(0.111908 -0.36522 0)
(0.0680275 -0.389984 0)
(0.0213561 -0.405298 0)
(0.340947 -0.1068 0)
(0.346773 -0.12966 0)
(0.305277 -0.16158 0)
(0.296407 -0.192168 0)
(0.253254 -0.227903 0)
(0.222614 -0.26167 0)
(0.177873 -0.29705 0)
(0.130774 -0.324553 0)
(0.0803099 -0.343653 0)
(0.0297034 -0.34989 0)
(0.401548 -0.0870012 0)
(0.398804 -0.10516 0)
(0.354437 -0.131771 0)
(0.338884 -0.155343 0)
(0.286129 -0.184503 0)
(0.252007 -0.211444 0)
(0.194216 -0.239701 0)
(0.140684 -0.261765 0)
(0.0822298 -0.283136 0)
(0.0217081 -0.302815 0)
(0.466006 -0.0738764 0)
(0.453787 -0.0871144 0)
(0.410391 -0.108674 0)
(0.385521 -0.125926 0)
(0.329242 -0.149914 0)
(0.288863 -0.17024 0)
(0.221256 -0.19342 0)
(0.164128 -0.213081 0)
(0.0986497 -0.232687 0)
(0.0446304 -0.231856 0)
(0.512771 -0.0398287 0)
(0.492749 -0.0463289 0)
(0.441532 -0.0593198 0)
(0.406595 -0.0678801 0)
(0.341499 -0.0823187 0)
(0.29024 -0.0918907 0)
(0.209417 -0.105604 0)
(0.142932 -0.116853 0)
(0.0624625 -0.139034 0)
(-0.0199893 -0.187025 0)
(0.721601 -0.0201013 0)
(0.696748 -0.0236081 0)
(0.651997 -0.0289281 0)
(0.612365 -0.033651 0)
(0.552716 -0.040793 0)
(0.496097 -0.0475802 0)
(0.417169 -0.0582903 0)
(0.336323 -0.0723414 0)
(0.228252 -0.100844 0)
(0.159068 -0.157047 0)
(0.167451 -0.15231 1.39452e-20)
(0.193617 -0.135062 -1.37376e-20)
(0.226611 -0.120109 2.09204e-21)
(0.266409 -0.110002 0)
(0.313814 -0.0975149 0)
(0.368873 -0.0893316 2.91947e-21)
(0.427431 -0.0721315 -1.35942e-20)
(0.487805 -0.0617763 1.34473e-20)
(0.539609 -0.0323901 3.79599e-21)
(0.742822 -0.0172345 -3.82264e-21)
(0.175894 -0.143611 -1.39282e-20)
(0.201165 -0.125868 0)
(0.234053 -0.111647 1.45337e-20)
(0.273887 -0.101964 -3.46117e-20)
(0.321406 -0.0901711 2.29397e-20)
(0.37627 -0.0824343 -2.68822e-21)
(0.434702 -0.0662099 5.81528e-21)
(0.494534 -0.0569548 1.28547e-20)
(0.549126 -0.0294274 3.52229e-21)
(0.750785 -0.0160155 3.44306e-21)
(0.18317 -0.13387 1.62191e-20)
(0.207381 -0.116223 -1.43681e-20)
(0.239518 -0.103044 1.42323e-20)
(0.279058 -0.0938829 -1.82244e-20)
(0.326469 -0.082875 1.32902e-20)
(0.381275 -0.0756987 0)
(0.439758 -0.0605502 -5.82951e-21)
(0.499669 -0.052502 -7.43214e-23)
(0.557133 -0.0267866 -6.65813e-21)
(0.757903 -0.0148634 -6.90449e-21)
(0.190593 -0.123482 -2.75042e-21)
(0.214593 -0.106324 0)
(0.245905 -0.0942871 0)
(0.285094 -0.0857206 0)
(0.332245 -0.0755807 1.47446e-20)
(0.3868 -0.0690814 -9.9911e-21)
(0.445165 -0.0551086 -3.06952e-22)
(0.504977 -0.0483237 -6.54947e-21)
(0.564684 -0.0244188 -3.34913e-21)
(0.764649 -0.0137975 -3.40071e-21)
(0.197479 -0.112738 1.8755e-21)
(0.221596 -0.0963601 -8.56993e-21)
(0.252182 -0.0854713 -7.83712e-21)
(0.291252 -0.0775865 7.8323e-21)
(0.338277 -0.0683447 -4.6875e-21)
(0.392667 -0.0625986 0)
(0.450904 -0.0498429 -5.74953e-21)
(0.510521 -0.0443103 1.26437e-20)
(0.572008 -0.0222255 -6.3685e-21)
(0.771084 -0.0128038 6.8152e-21)
(0.203579 -0.10168 -2.10415e-20)
(0.227601 -0.0863759 1.644e-21)
(0.257614 -0.076652 -9.47241e-22)
(0.296568 -0.0695506 7.72011e-21)
(0.343567 -0.0612383 0)
(0.397979 -0.0563028 0)
(0.456206 -0.0447626 0)
(0.515765 -0.0404345 6.1099e-21)
(0.578869 -0.0201542 0)
(0.777081 -0.0118646 0)
(0.208866 -0.0903129 0)
(0.232564 -0.076363 9.70118e-21)
(0.262084 -0.067822 -6.65767e-21)
(0.300851 -0.0615934 -8.58302e-21)
(0.347773 -0.0542734 8.6277e-21)
(0.402305 -0.0502075 5.31767e-21)
(0.460589 -0.0398775 -5.0805e-21)
(0.520306 -0.036707 -2.11455e-20)
(0.584992 -0.0181952 1.50161e-21)
(0.782515 -0.0109768 -4.96378e-21)
(0.213253 -0.0786597 0)
(0.236538 -0.0662985 -3.05248e-21)
(0.265591 -0.0589754 -1.75392e-21)
(0.304171 -0.0536825 0)
(0.350955 -0.0474116 2.50943e-21)
(0.405616 -0.0442804 -7.30749e-21)
(0.46394 -0.035168 8.43759e-21)
(0.524054 -0.0331274 3.16897e-21)
(0.590205 -0.0163407 -3.15547e-21)
(0.787316 -0.0101387 6.63839e-21)