/*--------------------------------*- C++ -*----------------------------------*\
  =========                 |
  \\      /  F ield         | OpenFOAM: The Open Source CFD Toolbox
   \\    /   O peration     | Website:  https://openfoam.org
    \\  /    A nd           | Version:  7
     \\/     M anipulation  |
\*---------------------------------------------------------------------------*/
FoamFile
{
    version     2.0;
    format      ascii;
    class       volScalarField;
    location    "9.7";
    object      p;
}
// * * * * * * * * * * * * * * * * * * * * * * * * * * * * * * * * * * * * * //

dimensions      [0 2 -2 0 0 0 0];

internalField   nonuniform List<scalar> 
18000
(
0.310978
0.312019
0.312775
0.313567
0.314286
0.314914
0.31545
0.315914
0.316331
0.316736
0.317166
0.317666
0.318279
0.319051
0.32002
0.321224
0.322695
0.324459
0.326538
0.328943
0.331676
0.33473
0.338093
0.341749
0.345674
0.349837
0.354205
0.35874
0.363398
0.36811
0.310599
0.311601
0.312312
0.313049
0.31371
0.314278
0.314752
0.31515
0.315502
0.315838
0.316195
0.316611
0.31713
0.317794
0.318644
0.319715
0.321038
0.322642
0.324546
0.326764
0.329298
0.332147
0.335303
0.338752
0.342473
0.34644
0.350621
0.354981
0.359468
0.364025
0.310232
0.311185
0.311844
0.312523
0.313122
0.31363
0.314042
0.314378
0.314668
0.314942
0.315231
0.315572
0.316008
0.316577
0.31732
0.318271
0.319462
0.32092
0.322664
0.324708
0.327058
0.329714
0.332672
0.335921
0.339445
0.343218
0.347212
0.351392
0.355702
0.360098
0.309862
0.310757
0.311365
0.311985
0.312524
0.312972
0.313326
0.313605
0.313838
0.314053
0.314281
0.314557
0.314919
0.315405
0.316054
0.316899
0.317972
0.319297
0.320894
0.322778
0.324957
0.327433
0.330204
0.333263
0.336596
0.340179
0.343986
0.347986
0.352114
0.356343
0.309502
0.310334
0.310887
0.311446
0.311925
0.312313
0.312611
0.312836
0.313016
0.313179
0.313351
0.313568
0.313865
0.314279
0.314847
0.3156
0.316567
0.317772
0.319237
0.320976
0.322998
0.325307
0.327903
0.330783
0.333931
0.337329
0.340952
0.344772
0.348716
0.352775
0.309151
0.309912
0.310409
0.310906
0.311324
0.311654
0.311899
0.312075
0.312207
0.31232
0.312442
0.312608
0.31285
0.313204
0.313702
0.314375
0.315249
0.316348
0.317695
0.319303
0.321182
0.323338
0.325773
0.328482
0.331456
0.334675
0.338119
0.341761
0.34552
0.349407
0.308815
0.309498
0.309936
0.310368
0.310727
0.311001
0.311196
0.311327
0.311413
0.311482
0.311561
0.311683
0.31188
0.312184
0.312623
0.313227
0.31402
0.315027
0.316269
0.317761
0.319512
0.321529
0.323815
0.326366
0.329174
0.332222
0.335492
0.33896
0.342537
0.34625
0.308496
0.309093
0.30947
0.309837
0.310136
0.310358
0.310506
0.310594
0.310639
0.310669
0.310712
0.310799
0.31096
0.311223
0.311614
0.312159
0.312884
0.313812
0.314964
0.316353
0.31799
0.319882
0.322032
0.324437
0.32709
0.329976
0.33308
0.336378
0.339775
0.343315
0.308195
0.308699
0.309012
0.309313
0.309554
0.309726
0.309831
0.309879
0.309889
0.309885
0.3099
0.309961
0.310094
0.310325
0.310677
0.311175
0.311844
0.312707
0.313782
0.315082
0.316619
0.318399
0.320426
0.322698
0.325207
0.32794
0.330886
0.334021
0.337241
0.34061
0.307914
0.308315
0.308564
0.308799
0.308983
0.309108
0.309173
0.309186
0.309165
0.309136
0.30913
0.309172
0.309286
0.309493
0.309816
0.310278
0.310904
0.311714
0.312725
0.313951
0.315401
0.317083
0.319
0.32115
0.323527
0.326119
0.328915
0.331894
0.334942
0.338143
0.30765
0.307941
0.308125
0.308295
0.308424
0.308505
0.308534
0.308517
0.308472
0.308425
0.308404
0.308435
0.308538
0.308731
0.309035
0.309473
0.310066
0.310836
0.311797
0.312961
0.314338
0.315935
0.317755
0.319797
0.322054
0.324514
0.327169
0.329998
0.332881
0.335917
0.307402
0.307576
0.307695
0.3078
0.307877
0.307917
0.307914
0.307872
0.30781
0.307752
0.307726
0.307753
0.307853
0.308041
0.308337
0.308761
0.309334
0.310075
0.310998
0.312114
0.313432
0.314957
0.316693
0.318639
0.320788
0.323127
0.325651
0.328338
0.331062
0.333939
0.307167
0.307216
0.30727
0.307313
0.307342
0.307345
0.307313
0.307253
0.307181
0.30712
0.307095
0.307127
0.307232
0.307425
0.307722
0.308143
0.308707
0.309431
0.31033
0.311411
0.312683
0.31415
0.315815
0.317678
0.319729
0.321959
0.32436
0.326914
0.329488
0.332211
0.306941
0.306859
0.306848
0.306832
0.306816
0.306785
0.306731
0.306659
0.306583
0.306526
0.306511
0.306557
0.306677
0.306884
0.307192
0.30762
0.308185
0.308905
0.309792
0.310851
0.31209
0.313513
0.31512
0.316911
0.318877
0.321007
0.323297
0.325728
0.328161
0.330735
0.306719
0.306501
0.306427
0.306355
0.306296
0.306236
0.306165
0.306087
0.306014
0.305969
0.305973
0.306041
0.306185
0.306415
0.306744
0.307189
0.307768
0.308496
0.309382
0.310434
0.311653
0.313043
0.314606
0.316337
0.318229
0.320271
0.32246
0.324778
0.327079
0.329511
0.306496
0.306137
0.306003
0.305877
0.305781
0.305696
0.305613
0.305534
0.305472
0.305447
0.305477
0.305576
0.305753
0.306015
0.306375
0.306848
0.307452
0.3082
0.309099
0.310154
0.311366
0.312737
0.314267
0.315951
0.317781
0.319747
0.321846
0.32406
0.326241
0.328536
0.306266
0.305763
0.305571
0.305396
0.305266
0.30516
0.305069
0.304996
0.304953
0.304955
0.305021
0.305159
0.305377
0.30568
0.30608
0.306592
0.307232
0.308012
0.308937
0.310008
0.311225
0.312588
0.314097
0.315746
0.317527
0.319428
0.321448
0.323571
0.325641
0.327807
0.30602
0.305373
0.305126
0.304905
0.304746
0.304624
0.304531
0.30447
0.304452
0.30449
0.304599
0.304784
0.305051
0.305404
0.305854
0.306415
0.307104
0.307927
0.308888
0.309986
0.31122
0.312588
0.314088
0.315715
0.317458
0.319307
0.32126
0.323301
0.325273
0.327317
0.305753
0.304962
0.304663
0.3044
0.304215
0.304083
0.303993
0.30395
0.303964
0.304045
0.304204
0.304444
0.304767
0.305178
0.305688
0.30631
0.307057
0.307934
0.308943
0.310079
0.311341
0.312726
0.31423
0.315846
0.317565
0.319374
0.321272
0.323243
0.325129
0.32706
0.305455
0.304522
0.304175
0.303874
0.303668
0.30353
0.30345
0.303431
0.303483
0.303613
0.303829
0.30413
0.304517
0.304995
0.305573
0.306265
0.307081
0.308023
0.309089
0.310275
0.311577
0.31299
0.31451
0.316128
0.317835
0.319617
0.321473
0.323386
0.3252
0.327026
0.305118
0.304046
0.303654
0.303319
0.303098
0.302959
0.302893
0.302904
0.303
0.303186
0.303464
0.303832
0.30429
0.304841
0.305497
0.306269
0.307163
0.308179
0.309313
0.310558
0.31191
0.313364
0.314911
0.316545
0.318252
0.320022
0.321848
0.323718
0.325474
0.327206
0.304733
0.303528
0.303095
0.30273
0.302497
0.302362
0.302315
0.302362
0.302507
0.302754
0.303099
0.30354
0.304074
0.304707
0.305448
0.306308
0.307289
0.308388
0.309597
0.310912
0.312325
0.313829
0.315416
0.317077
0.3188
0.32057
0.322381
0.324222
0.325938
0.327587
0.30429
0.302958
0.302488
0.302098
0.301857
0.301731
0.301709
0.301796
0.301994
0.302305
0.302723
0.303241
0.303858
0.304578
0.305412
0.306366
0.307441
0.30863
0.309924
0.311316
0.312799
0.314365
0.316004
0.317705
0.319456
0.321241
0.323054
0.324883
0.326578
0.328157
0.30378
0.30233
0.301827
0.301416
0.301172
0.301059
0.301066
0.301196
0.301452
0.30183
0.302324
0.302924
0.303628
0.304441
0.305373
0.306428
0.307603
0.308888
0.310274
0.311751
0.313313
0.314949
0.316649
0.318403
0.320196
0.322012
0.323842
0.32568
0.327375
0.328901
0.303193
0.301636
0.301105
0.300678
0.300436
0.300339
0.300377
0.300554
0.300869
0.301318
0.30189
0.302575
0.30337
0.304281
0.305316
0.306477
0.307756
0.309142
0.310624
0.312194
0.313841
0.315555
0.317327
0.319143
0.320991
0.322853
0.32472
0.326588
0.328312
0.329805
0.302521
0.300869
0.300315
0.299877
0.299641
0.299564
0.299636
0.299861
0.300237
0.300757
0.301409
0.302182
0.303071
0.304083
0.305224
0.306493
0.307879
0.309371
0.310954
0.31262
0.314358
0.316157
0.318006
0.319895
0.321809
0.323732
0.325656
0.327581
0.329365
0.330852
0.301756
0.300024
0.299453
0.299009
0.298782
0.298728
0.298836
0.299109
0.299545
0.300138
0.300871
0.301731
0.302716
0.303831
0.30508
0.306459
0.307955
0.309553
0.31124
0.313006
0.314837
0.316724
0.318656
0.320623
0.322612
0.32461
0.32661
0.32862
0.330507
0.332028
0.300894
0.299097
0.298513
0.298069
0.297855
0.297825
0.29797
0.298291
0.298787
0.29945
0.300263
0.301212
0.302293
0.303511
0.304868
0.306356
0.307961
0.309666
0.311458
0.313324
0.315251
0.317227
0.319242
0.321289
0.323359
0.325439
0.32753
0.329653
0.3317
0.333322
0.299928
0.298084
0.297493
0.297053
0.296854
0.296851
0.297033
0.297401
0.297955
0.298686
0.299577
0.300612
0.301789
0.303109
0.304572
0.306167
0.307878
0.309688
0.311583
0.313548
0.315569
0.317632
0.31973
0.321854
0.324
0.326164
0.328354
0.330622
0.332924
0.334805
0.298855
0.296983
0.296391
0.295959
0.295778
0.295803
0.296021
0.296434
0.297044
0.29784
0.298805
0.299924
0.301192
0.30261
0.304175
0.305874
0.307687
0.309599
0.311593
0.313653
0.315763
0.317909
0.320081
0.322273
0.324482
0.326712
0.32899
0.331411
0.334031
0.336407
0.384132
0.408311
0.428257
0.443628
0.455131
0.463718
0.470073
0.474772
0.478193
0.480647
0.482345
0.483477
0.48416
0.484484
0.484522
0.484344
0.483984
0.483449
0.482761
0.481925
0.480952
0.479842
0.47861
0.477252
0.475787
0.474215
0.472586
0.4709
0.469362
0.467928
0.380126
0.404188
0.424506
0.440128
0.451848
0.460591
0.467064
0.471851
0.475348
0.477879
0.479656
0.480847
0.481582
0.481963
0.482069
0.481949
0.481636
0.481152
0.480513
0.479717
0.478784
0.477709
0.476505
0.475179
0.473732
0.47218
0.470556
0.468875
0.467334
0.465896
0.37626
0.4001
0.42077
0.436622
0.448556
0.457452
0.464046
0.468924
0.4725
0.475109
0.476967
0.478217
0.479006
0.479445
0.47962
0.479559
0.479294
0.478862
0.478272
0.477517
0.476623
0.475585
0.474412
0.473118
0.471691
0.470163
0.468548
0.466872
0.46533
0.46389
0.372547
0.396056
0.417056
0.43311
0.445254
0.454303
0.46102
0.465998
0.469659
0.472341
0.474268
0.475584
0.476436
0.476939
0.477173
0.47717
0.47696
0.476578
0.476035
0.475327
0.474473
0.473474
0.472333
0.471068
0.469665
0.468157
0.466558
0.464894
0.463353
0.461911
0.368994
0.392065
0.413373
0.4296
0.441949
0.45115
0.45799
0.463071
0.46682
0.469574
0.471566
0.472952
0.47387
0.474439
0.47473
0.474784
0.474632
0.474302
0.473806
0.473147
0.472334
0.471375
0.470268
0.469029
0.467656
0.466167
0.464588
0.462938
0.461401
0.459957
0.36561
0.38814
0.40973
0.4261
0.438647
0.447997
0.454959
0.460143
0.46398
0.466808
0.468866
0.470321
0.471307
0.471941
0.472291
0.472403
0.47231
0.472034
0.471585
0.470974
0.470204
0.469285
0.468215
0.467007
0.465664
0.464197
0.462639
0.461004
0.459472
0.458027
0.362404
0.384293
0.406133
0.422614
0.435354
0.444847
0.45193
0.457216
0.461141
0.464044
0.46617
0.467694
0.468747
0.469446
0.469858
0.47003
0.469994
0.469773
0.469373
0.468811
0.468084
0.467207
0.466176
0.464999
0.463688
0.462247
0.460711
0.459093
0.457568
0.456122
0.359381
0.380534
0.402591
0.419147
0.43207
0.441701
0.448904
0.454292
0.458305
0.461283
0.463479
0.465072
0.466192
0.466956
0.467432
0.467664
0.467685
0.467519
0.46717
0.466656
0.465975
0.46514
0.464148
0.463007
0.461729
0.460317
0.458805
0.457204
0.455687
0.45424
0.356549
0.376879
0.399111
0.415705
0.428801
0.438563
0.445883
0.451372
0.455473
0.458528
0.460794
0.462456
0.463644
0.464473
0.465013
0.465306
0.465385
0.465274
0.464976
0.464511
0.463877
0.463085
0.462134
0.461029
0.459787
0.458406
0.45692
0.455337
0.453829
0.452382
0.35391
0.373339
0.395701
0.412293
0.425548
0.435433
0.442869
0.44846
0.452647
0.455781
0.458116
0.459847
0.461103
0.461998
0.462602
0.462956
0.463093
0.463036
0.462792
0.462376
0.461788
0.461041
0.460133
0.459066
0.457862
0.456514
0.455056
0.453494
0.451995
0.45055
0.351471
0.36993
0.39237
0.408916
0.422315
0.432314
0.439864
0.445556
0.449829
0.453041
0.455446
0.457246
0.458571
0.459531
0.460199
0.460615
0.46081
0.460808
0.460618
0.46025
0.459711
0.459009
0.458145
0.457119
0.455954
0.454642
0.453213
0.451673
0.450185
0.448743
0.349234
0.366665
0.389123
0.40558
0.419104
0.429208
0.43687
0.442662
0.44702
0.450311
0.452786
0.454655
0.456048
0.457073
0.457805
0.458283
0.458537
0.458589
0.458453
0.458136
0.457644
0.456989
0.456171
0.455188
0.454063
0.452789
0.451393
0.449876
0.448401
0.446962
0.347201
0.363558
0.385969
0.402292
0.41592
0.426116
0.433886
0.43978
0.444222
0.447592
0.450136
0.452073
0.453535
0.454625
0.455421
0.455961
0.456273
0.456381
0.456298
0.456032
0.45559
0.454981
0.45421
0.453271
0.452189
0.450956
0.449593
0.448103
0.446642
0.445207
0.345374
0.360623
0.382914
0.399056
0.412764
0.423042
0.430917
0.436911
0.441436
0.444884
0.447498
0.449503
0.451032
0.452187
0.453048
0.45365
0.45402
0.454182
0.454153
0.453939
0.453546
0.452986
0.452262
0.45137
0.450333
0.449141
0.447815
0.446354
0.444909
0.443479
0.343754
0.357876
0.379966
0.395882
0.409641
0.419988
0.427961
0.434056
0.438664
0.442189
0.444874
0.446945
0.448543
0.449763
0.450686
0.45135
0.451777
0.451995
0.45202
0.451857
0.451514
0.451003
0.450327
0.449483
0.448492
0.447345
0.446057
0.44463
0.443202
0.441777
0.342341
0.355329
0.377131
0.392777
0.406554
0.416957
0.425022
0.431217
0.435906
0.439508
0.442264
0.444401
0.446067
0.447351
0.448337
0.449062
0.449546
0.449819
0.449897
0.449786
0.449493
0.449032
0.448405
0.447611
0.446666
0.445566
0.44432
0.442929
0.441523
0.440103
0.341132
0.352997
0.374418
0.389748
0.403508
0.41395
0.422101
0.428394
0.433164
0.436843
0.439669
0.441872
0.443605
0.444955
0.446002
0.446786
0.447327
0.447654
0.447786
0.447728
0.447484
0.447073
0.446496
0.445751
0.444856
0.443805
0.442605
0.441254
0.439873
0.438459
0.340126
0.350893
0.371834
0.386804
0.400505
0.41097
0.4192
0.425589
0.430439
0.434194
0.43709
0.439359
0.441159
0.442573
0.443681
0.444524
0.445121
0.445502
0.445687
0.445681
0.445487
0.445125
0.444598
0.443905
0.443059
0.442061
0.44091
0.439603
0.438253
0.436847
0.33932
0.349029
0.369387
0.383952
0.397551
0.408021
0.416319
0.422802
0.42773
0.431561
0.434526
0.436863
0.438729
0.440207
0.441374
0.442275
0.442927
0.443363
0.443599
0.443645
0.443501
0.443189
0.442712
0.44207
0.441277
0.440333
0.439235
0.437978
0.436664
0.435267
0.338708
0.347415
0.367083
0.3812
0.39465
0.405103
0.413462
0.420035
0.425038
0.428945
0.431981
0.434385
0.436315
0.437857
0.439082
0.440039
0.440748
0.441237
0.441524
0.441621
0.441527
0.441264
0.440836
0.440247
0.439507
0.43862
0.437581
0.436378
0.435106
0.433722
0.338288
0.346059
0.364931
0.378556
0.391809
0.402223
0.410629
0.417289
0.422366
0.426348
0.429453
0.431926
0.433918
0.435523
0.436806
0.437818
0.438582
0.439124
0.439461
0.439608
0.439563
0.439349
0.438971
0.438434
0.43775
0.436922
0.435946
0.434804
0.433581
0.432215
0.338051
0.344967
0.362937
0.376029
0.389031
0.399383
0.407824
0.414565
0.419713
0.423771
0.426946
0.429487
0.431541
0.433206
0.434546
0.435613
0.43643
0.437025
0.43741
0.437607
0.43761
0.437444
0.437114
0.436631
0.436003
0.435237
0.434329
0.433254
0.43209
0.430749
0.337993
0.344141
0.361109
0.373628
0.386324
0.396589
0.405049
0.411865
0.417081
0.421214
0.424459
0.427068
0.429182
0.430908
0.432304
0.433424
0.434294
0.434939
0.435373
0.435617
0.435667
0.435547
0.435267
0.434837
0.434267
0.433565
0.432729
0.431729
0.430635
0.42933
0.338106
0.34358
0.359452
0.371362
0.383694
0.393843
0.402307
0.409191
0.414471
0.418678
0.421993
0.424669
0.426844
0.428629
0.43008
0.431252
0.432173
0.432867
0.433348
0.433638
0.433734
0.433659
0.433429
0.433051
0.432539
0.431903
0.431144
0.430228
0.429218
0.427961
0.338385
0.343281
0.357972
0.369239
0.381149
0.39115
0.399603
0.406543
0.411884
0.416164
0.419549
0.422291
0.424527
0.426369
0.427874
0.429096
0.430067
0.430809
0.431335
0.431669
0.431811
0.43178
0.431598
0.431272
0.430819
0.43025
0.429571
0.42875
0.427839
0.42665
0.338829
0.343232
0.356677
0.367268
0.378699
0.388515
0.396943
0.403926
0.409322
0.413672
0.417127
0.419934
0.422231
0.424128
0.425687
0.426958
0.427977
0.428764
0.429335
0.42971
0.429897
0.429909
0.429775
0.4295
0.429104
0.428604
0.428009
0.427291
0.426499
0.425406
0.339439
0.34342
0.355573
0.365457
0.376353
0.385944
0.394334
0.401341
0.406787
0.411204
0.414728
0.4176
0.419957
0.421909
0.423519
0.424837
0.425903
0.426733
0.427346
0.427761
0.427991
0.428046
0.427958
0.427733
0.427395
0.426962
0.426454
0.425849
0.425196
0.424241
0.340162
0.3438
0.354658
0.363817
0.374119
0.383443
0.391782
0.398793
0.404281
0.408762
0.412351
0.415288
0.417704
0.419707
0.421367
0.422732
0.423842
0.424713
0.425367
0.42582
0.426092
0.426188
0.426144
0.425968
0.425686
0.425321
0.4249
0.424416
0.423928
0.423168
0.340882
0.344244
0.353863
0.362317
0.371985
0.380997
0.389277
0.396265
0.401786
0.406322
0.409975
0.412973
0.415447
0.417502
0.419212
0.420624
0.421778
0.42269
0.423384
0.423877
0.424189
0.424327
0.424326
0.424199
0.423972
0.423674
0.42334
0.422984
0.422687
0.422206
0.342358
0.345081
0.3533
0.360949
0.369919
0.378566
0.386791
0.393722
0.399257
0.403839
0.40756
0.410629
0.413172
0.41529
0.417057
0.418521
0.419721
0.420676
0.42141
0.421941
0.42229
0.422469
0.422509
0.422426
0.422251
0.422014
0.421762
0.421535
0.421452
0.421369
0.353218
0.353763
0.357383
0.361091
0.366435
0.372651
0.379929
0.38626
0.39169
0.396435
0.400455
0.403836
0.40666
0.409008
0.41096
0.412572
0.413889
0.414945
0.415766
0.416377
0.416804
0.41707
0.417199
0.41722
0.417166
0.41708
0.417032
0.417143
0.417686
0.419118
0.353609
0.354438
0.356109
0.356731
0.358931
0.362761
0.368185
0.37405
0.379286
0.384193
0.388581
0.392355
0.395514
0.398128
0.400284
0.402058
0.403509
0.404683
0.405613
0.40633
0.406863
0.407236
0.407478
0.407621
0.407706
0.407786
0.407954
0.408374
0.409405
0.411524
0.348716
0.350525
0.351309
0.35054
0.350534
0.352264
0.356423
0.361146
0.366346
0.371691
0.376649
0.380948
0.384519
0.387426
0.389783
0.391698
0.393254
0.394512
0.395518
0.396309
0.396916
0.397368
0.397694
0.397928
0.398113
0.398305
0.3986
0.399159
0.400345
0.402621
0.338482
0.342284
0.343335
0.341814
0.340105
0.339869
0.34217
0.34651
0.352131
0.358288
0.364136
0.369205
0.373353
0.376654
0.379265
0.381341
0.383004
0.38434
0.385411
0.386261
0.386928
0.387441
0.387833
0.388135
0.388391
0.388653
0.389012
0.389616
0.390801
0.393054
0.324137
0.329357
0.331029
0.329829
0.327394
0.326014
0.327297
0.331455
0.337662
0.344749
0.351579
0.357485
0.362255
0.36597
0.368839
0.371069
0.372825
0.374221
0.375338
0.376228
0.376934
0.377489
0.377923
0.378268
0.378563
0.378858
0.379234
0.379824
0.380928
0.383055
0.307781
0.313724
0.316125
0.315766
0.313653
0.312132
0.313183
0.317453
0.324165
0.331962
0.339542
0.346104
0.351372
0.355426
0.358503
0.36085
0.36267
0.364103
0.365242
0.366151
0.366875
0.367449
0.367902
0.368265
0.368572
0.368869
0.369228
0.369769
0.370758
0.372714
0.291283
0.297564
0.300628
0.301344
0.300284
0.29947
0.300899
0.30538
0.312307
0.320374
0.328274
0.33516
0.340709
0.344973
0.348185
0.35061
0.352467
0.353915
0.35506
0.355971
0.356697
0.357272
0.357726
0.358086
0.358385
0.358664
0.358986
0.359459
0.360319
0.362089
0.275558
0.28206
0.285765
0.287585
0.287902
0.288267
0.290395
0.29509
0.301948
0.309867
0.31767
0.324548
0.330153
0.334497
0.337779
0.34025
0.342131
0.343587
0.344731
0.345637
0.346355
0.346921
0.347364
0.34771
0.347988
0.348237
0.348512
0.348911
0.349645
0.351222
0.260765
0.267451
0.271769
0.27461
0.276302
0.277952
0.280882
0.285784
0.292423
0.299945
0.307382
0.314021
0.319521
0.323851
0.32716
0.329666
0.331573
0.333044
0.334193
0.335097
0.335809
0.336364
0.336792
0.337118
0.337371
0.337584
0.337809
0.338132
0.338743
0.340129
0.246735
0.253544
0.258391
0.262098
0.264972
0.26778
0.271469
0.276576
0.28297
0.290028
0.297
0.3033
0.308618
0.312889
0.316211
0.318757
0.320708
0.322213
0.323385
0.324302
0.325016
0.325566
0.325981
0.326289
0.326515
0.326693
0.32687
0.327124
0.327622
0.32882
0.233229
0.240088
0.245341
0.249723
0.253516
0.257246
0.261563
0.266854
0.27304
0.279676
0.286206
0.292168
0.297293
0.3015
0.304841
0.307447
0.309466
0.311032
0.312252
0.313201
0.313935
0.314492
0.314904
0.315199
0.315403
0.315548
0.315677
0.315863
0.316256
0.317273
0.220032
0.226878
0.232419
0.237293
0.24175
0.246154
0.250938
0.256366
0.262385
0.26868
0.274842
0.280514
0.285472
0.289627
0.293003
0.295687
0.297799
0.299453
0.300747
0.301753
0.302526
0.303107
0.303529
0.303821
0.304011
0.304131
0.304221
0.304347
0.304648
0.305491
0.20698
0.213769
0.219501
0.22472
0.229636
0.234498
0.239595
0.245104
0.250984
0.257011
0.262881
0.26832
0.273144
0.277266
0.280686
0.283462
0.285684
0.287447
0.288838
0.289924
0.290758
0.291382
0.291829
0.29213
0.292314
0.292412
0.292465
0.292535
0.292752
0.293428
0.193942
0.200652
0.20651
0.211966
0.217185
0.222344
0.227632
0.233169
0.238925
0.244736
0.250373
0.255626
0.260342
0.264442
0.26791
0.27078
0.273118
0.275002
0.276503
0.277685
0.278597
0.279281
0.279771
0.280097
0.280289
0.280378
0.280407
0.280431
0.280575
0.281093
0.180825
0.187448
0.193396
0.199009
0.204423
0.209762
0.215155
0.220682
0.22632
0.231949
0.237394
0.242492
0.247117
0.251196
0.254705
0.257662
0.260112
0.262117
0.263736
0.265025
0.266029
0.266786
0.267329
0.267689
0.267895
0.267982
0.267989
0.267972
0.268049
0.26841
0.167565
0.174104
0.180121
0.185841
0.191371
0.196811
0.20225
0.207741
0.213267
0.218734
0.224013
0.228974
0.233513
0.237566
0.241103
0.24413
0.246679
0.248794
0.250526
0.251921
0.253022
0.253863
0.254474
0.254884
0.255121
0.25522
0.255218
0.25517
0.255194
0.255408
0.154134
0.160594
0.16667
0.172457
0.178048
0.183534
0.18898
0.194419
0.199834
0.205156
0.210285
0.215118
0.219571
0.223586
0.227134
0.230211
0.232839
0.23505
0.236885
0.238382
0.239575
0.240496
0.241173
0.241633
0.241904
0.242017
0.242008
0.24193
0.241903
0.241964
0.140553
0.146926
0.153046
0.158865
0.164471
0.169963
0.175388
0.180764
0.186072
0.191258
0.196245
0.200952
0.205313
0.209275
0.212812
0.215914
0.218594
0.220876
0.222793
0.224378
0.22566
0.226665
0.227416
0.227936
0.228252
0.228391
0.228388
0.228294
0.228226
0.228149
0.126896
0.13315
0.139276
0.145082
0.15066
0.156124
0.161509
0.166814
0.172015
0.17707
0.181919
0.186501
0.19076
0.194655
0.198157
0.201259
0.203966
0.206296
0.208274
0.209923
0.211271
0.212339
0.213148
0.213718
0.21407
0.21423
0.214228
0.214111
0.214
0.213765
0.11329
0.119351
0.125408
0.131138
0.136642
0.142045
0.14737
0.152594
0.157685
0.162607
0.167315
0.171763
0.175907
0.179712
0.183154
0.186223
0.188924
0.191272
0.193286
0.194987
0.196393
0.197521
0.198388
0.199011
0.199407
0.199597
0.199607
0.199479
0.199328
0.198953
0.099893
0.105647
0.111514
0.117083
0.122456
0.12776
0.133001
0.13813
0.143105
0.147891
0.152455
0.156761
0.160776
0.164471
0.167829
0.170841
0.173508
0.175839
0.17785
0.17956
0.180985
0.182141
0.183038
0.18369
0.18411
0.184315
0.184323
0.184169
0.183962
0.183405
0.0868698
0.0921669
0.0976855
0.102983
0.108155
0.113314
0.118435
0.123445
0.128284
0.132918
0.13732
0.141464
0.145324
0.148881
0.15212
0.155037
0.157637
0.159928
0.161922
0.163631
0.165067
0.166242
0.167165
0.167846
0.168295
0.168522
0.168538
0.168365
0.168098
0.167377
0.0743562
0.079034
0.08403
0.08893
0.093814
0.098763
0.10372
0.108581
0.113267
0.117736
0.121962
0.125925
0.129609
0.133001
0.136092
0.138879
0.141363
0.143557
0.145473
0.147127
0.148526
0.149676
0.150586
0.151259
0.151706
0.151933
0.151938
0.151726
0.151362
0.150406
0.0624375
0.0663526
0.0706627
0.0750338
0.0795282
0.0841822
0.0889021
0.0935524
0.0980341
0.102296
0.106308
0.110053
0.113518
0.116701
0.119605
0.122232
0.124587
0.126675
0.128508
0.130095
0.131446
0.132566
0.133458
0.134125
0.134572
0.134807
0.134818
0.134579
0.134105
0.132934
0.0511526
0.0542069
0.0577034
0.0614209
0.0654113
0.0696733
0.0740822
0.0784698
0.0827088
0.0867297
0.0904961
0.0939886
0.0971992
0.100128
0.102782
0.105172
0.107311
0.109212
0.110887
0.112344
0.113587
0.114622
0.115447
0.116063
0.116473
0.116685
0.116686
0.116406
0.115776
0.114291
0.0404981
0.0426609
0.0452706
0.0482281
0.0515852
0.0553151
0.0592749
0.0632769
0.0671736
0.0708744
0.074325
0.0774992
0.0803974
0.083034
0.085424
0.0875778
0.0895046
0.091216
0.0927241
0.0940394
0.0951683
0.0961128
0.0968717
0.0974397
0.0978153
0.0980142
0.0980315
0.097751
0.0969662
0.095213
0.0304382
0.0317472
0.0334565
0.0355798
0.0382103
0.0413216
0.0447486
0.048282
0.0517606
0.0550747
0.058145
0.0609263
0.0634133
0.0656319
0.0676191
0.0694048
0.0710059
0.0724317
0.0736897
0.0747876
0.0757307
0.0765201
0.077154
0.0776241
0.0779215
0.0780654
0.0780791
0.0778178
0.0768815
0.0747949
0.02093
0.0214933
0.0223353
0.0235571
0.0253004
0.0275886
0.0302729
0.0331501
0.0360553
0.0388537
0.0414417
0.0437665
0.0458247
0.0476423
0.0492538
0.0506874
0.0519618
0.0530913
0.0540875
0.0549592
0.0557108
0.056343
0.0568544
0.0572365
0.0574695
0.0575628
0.0575833
0.0574219
0.056466
0.0542394
0.0118924
0.0118683
0.0118889
0.0123957
0.0134144
0.0149199
0.0167819
0.0188735
0.0210538
0.0231492
0.0250201
0.0266172
0.0279708
0.0291415
0.0301776
0.0311017
0.031923
0.0326491
0.0332887
0.033848
0.0343289
0.0347309
0.0350538
0.035295
0.0354327
0.0354468
0.0354108
0.0353532
0.034609
0.0324502
0.00315935
0.000865197
-0.000124732
0.000447274
0.00112759
0.00194708
0.00292121
0.00412328
0.00548086
0.00681255
0.00797037
0.00890123
0.00962953
0.0102117
0.010695
0.0111072
0.0114634
0.0117743
0.0120482
0.01229
0.0125006
0.0126779
0.0128206
0.0129309
0.0130005
0.0129906
0.0129091
0.0129178
0.0128086
0.0114183
0.342984
0.343613
0.337805
0.326194
0.3116
0.29603
0.280768
0.266235
0.252401
0.239089
0.226126
0.213363
0.200685
0.188005
0.175248
0.162372
0.149363
0.136239
0.123072
0.109969
0.0970697
0.084527
0.0724705
0.0609855
0.0501131
0.0398453
0.0301264
0.0208839
0.0121273
0.00350206
0.343776
0.341927
0.335421
0.323137
0.308309
0.292806
0.277743
0.263427
0.249789
0.236647
0.223831
0.211195
0.198627
0.186045
0.173374
0.160577
0.147647
0.134608
0.121541
0.108561
0.095808
0.0834328
0.0715571
0.0602582
0.0495694
0.0394761
0.0299113
0.0207893
0.0121349
0.00358665
0.343223
0.339852
0.332435
0.31953
0.304653
0.289371
0.274602
0.260559
0.247148
0.23419
0.221528
0.209022
0.196565
0.184081
0.171495
0.158776
0.145922
0.132964
0.119989
0.107117
0.0944925
0.0822644
0.0705518
0.0594286
0.0489227
0.0390129
0.0296184
0.0206379
0.0120916
0.00366368
0.342449
0.337198
0.32912
0.315788
0.300982
0.285973
0.271508
0.257736
0.244545
0.231769
0.219257
0.20688
0.194532
0.182142
0.16964
0.156999
0.144222
0.131348
0.118469
0.105713
0.093225
0.0811496
0.0696024
0.0586524
0.0483218
0.0385837
0.0293465
0.0204978
0.0120476
0.00372681
0.341447
0.334155
0.325618
0.311996
0.297327
0.282614
0.268455
0.254948
0.241974
0.229376
0.217013
0.204762
0.19252
0.180223
0.167803
0.155239
0.14254
0.129751
0.116973
0.104339
0.0919928
0.0800763
0.0686995
0.0579245
0.0477658
0.0381908
0.0290991
0.0203713
0.012007
0.00377474
0.340068
0.330816
0.321966
0.308171
0.293691
0.279294
0.265439
0.252195
0.239434
0.227012
0.214795
0.202668
0.190531
0.178324
0.165985
0.153496
0.140875
0.128174
0.115501
0.102993
0.0907938
0.0790408
0.0678373
0.0572374
0.047247
0.0378272
0.0288705
0.0202544
0.0119675
0.00381044
0.338259
0.327226
0.318185
0.304332
0.290082
0.276015
0.262463
0.249476
0.236927
0.224678
0.212605
0.2006
0.188565
0.176446
0.164186
0.151771
0.139229
0.126619
0.114056
0.101678
0.0896299
0.0780445
0.0670163
0.0565907
0.0467642
0.0374915
0.0286599
0.020146
0.0119288
0.00383641
0.336002
0.323445
0.3143
0.300499
0.286509
0.27278
0.259528
0.246793
0.234452
0.222374
0.210443
0.198557
0.186623
0.17459
0.162407
0.150066
0.137604
0.125088
0.112638
0.100394
0.0885027
0.0770884
0.0662367
0.0559839
0.0463165
0.0371829
0.0284668
0.0200457
0.0118914
0.00385461
0.33329
0.319537
0.310333
0.296686
0.282977
0.26959
0.256634
0.244147
0.232011
0.220101
0.208308
0.19654
0.184705
0.172756
0.160649
0.148382
0.136001
0.123582
0.111249
0.0991452
0.0874135
0.076173
0.0654978
0.0554155
0.045902
0.0368995
0.0282902
0.0199531
0.0118558
0.00386668
0.330132
0.31555
0.306307
0.292904
0.279493
0.266446
0.253783
0.241538
0.229602
0.217857
0.206202
0.194549
0.182811
0.170943
0.158911
0.146719
0.134422
0.122103
0.109891
0.097932
0.086364
0.0752987
0.0647991
0.054884
0.0455187
0.0366395
0.0281286
0.0198676
0.011822
0.0038741
0.326558
0.311525
0.302247
0.289159
0.27606
0.26335
0.250974
0.238966
0.227226
0.215644
0.204124
0.192583
0.180939
0.169152
0.157195
0.145079
0.132868
0.120652
0.108567
0.0967567
0.0853556
0.0744664
0.0641405
0.0543886
0.0451652
0.0364016
0.0279809
0.0197888
0.0117901
0.00387782
0.322616
0.307487
0.298176
0.285459
0.272683
0.260302
0.248209
0.236432
0.224884
0.213461
0.202074
0.190642
0.179091
0.167383
0.155501
0.143462
0.131339
0.119231
0.107277
0.095621
0.0843895
0.0736766
0.0635221
0.0539284
0.0448403
0.0361843
0.0278463
0.0197164
0.01176
0.00387859
0.318368
0.303454
0.294117
0.281806
0.269363
0.257303
0.245486
0.233935
0.222577
0.21131
0.200052
0.188727
0.177267
0.165636
0.153829
0.141869
0.129838
0.117842
0.106024
0.094526
0.0834664
0.0729295
0.0629435
0.0535025
0.0445424
0.0359863
0.0277234
0.0196496
0.0117314
0.00387715
0.313884
0.299436
0.290093
0.278205
0.266102
0.254355
0.242806
0.231478
0.220304
0.20919
0.198058
0.186837
0.175465
0.163912
0.15218
0.1403
0.128364
0.116486
0.104809
0.0934725
0.0825863
0.0722244
0.0624035
0.053109
0.0442696
0.0358055
0.0276109
0.0195877
0.0117042
0.00387415
0.309236
0.29544
0.286118
0.274659
0.2629
0.251456
0.240171
0.229059
0.218065
0.207102
0.196093
0.184973
0.173687
0.16221
0.150553
0.138756
0.12692
0.115164
0.103632
0.0924605
0.0817488
0.0715602
0.0619002
0.0527455
0.0440192
0.0356398
0.0275073
0.0195299
0.0116779
0.00387011
0.304494
0.291472
0.282208
0.271169
0.259756
0.248607
0.237578
0.226678
0.215861
0.205044
0.194155
0.183134
0.171932
0.160531
0.14895
0.137239
0.125506
0.113877
0.102495
0.0914904
0.0809532
0.0709354
0.0614316
0.0524095
0.0437889
0.0354873
0.0274113
0.0194756
0.0116524
0.00386543
0.299719
0.287538
0.278372
0.26774
0.256671
0.245807
0.235028
0.224336
0.213691
0.203016
0.192245
0.18132
0.170201
0.158875
0.14737
0.135749
0.124124
0.112627
0.101398
0.0905625
0.0801994
0.0703485
0.0609956
0.0520989
0.0435766
0.0353464
0.027322
0.0194244
0.0116276
0.00386041
0.294965
0.283644
0.274617
0.264372
0.253644
0.243057
0.23252
0.222031
0.211553
0.201018
0.190361
0.17953
0.168492
0.157241
0.145816
0.134288
0.122776
0.111415
0.100343
0.0896774
0.0794874
0.0697986
0.0605906
0.0518117
0.0433808
0.0352158
0.0272387
0.019376
0.0116035
0.00385529
0.290275
0.279797
0.270945
0.261067
0.250673
0.240356
0.230054
0.219762
0.209448
0.199049
0.188504
0.177765
0.166806
0.155632