/*--------------------------------*- C++ -*----------------------------------*\
  =========                 |
  \\      /  F ield         | OpenFOAM: The Open Source CFD Toolbox
   \\    /   O peration     | Website:  https://openfoam.org
    \\  /    A nd           | Version:  7
     \\/     M anipulation  |
\*---------------------------------------------------------------------------*/
FoamFile
{
    version     2.0;
    format      ascii;
    class       volVectorField;
    location    "9.7";
    object      U;
}
// * * * * * * * * * * * * * * * * * * * * * * * * * * * * * * * * * * * * * //

dimensions      [0 1 -1 0 0 0 0];

internalField   nonuniform List<vector> 
18000
(
(0.00044018 -0.00917636 3.56177e-21)
(0.00262853 -0.0201209 0)
(0.00678808 -0.0242427 0)
(0.0121825 -0.0229732 0)
(0.0187101 -0.017328 -1.18474e-21)
(0.026209 -0.00807326 5.99576e-21)
(0.0345633 0.0041864 -1.21454e-21)
(0.0436808 0.0189702 1.22287e-21)
(0.053481 0.0358897 0)
(0.0638893 0.0546217 -3.70007e-21)
(0.0748334 0.074889 -1.23797e-21)
(0.0862382 0.0964436 0)
(0.098022 0.119054 2.46799e-21)
(0.110095 0.142495 2.47499e-21)
(0.122359 0.166542 -4.93917e-21)
(0.134708 0.190969 -4.9308e-21)
(0.147029 0.215543 0)
(0.159201 0.240033 -7.3858e-21)
(0.171106 0.264204 2.4532e-21)
(0.182623 0.28783 -7.37122e-21)
(0.193638 0.310694 2.44799e-21)
(0.204046 0.332597 0)
(0.213757 0.353359 -2.42588e-21)
(0.222691 0.372828 -2.44833e-21)
(0.230792 0.390881 0)
(0.238015 0.407425 0)
(0.244341 0.422394 -4.91997e-21)
(0.249771 0.435741 -4.92803e-21)
(0.254327 0.447411 -4.9951e-21)
(0.257929 0.457209 5.2742e-21)
(0.000697302 -0.00965197 5.07671e-21)
(0.00313949 -0.021437 8.86035e-21)
(0.00726566 -0.0263348 -9.08508e-21)
(0.0123892 -0.0258008 -9.2787e-21)
(0.0184438 -0.0208664 -2.36444e-21)
(0.0253018 -0.0123076 7.16946e-21)
(0.0328763 -0.000735986 -9.67528e-21)
(0.0410986 0.013366 -9.75317e-21)
(0.0499075 0.029611 9.80865e-21)
(0.0592464 0.047679 9.84889e-21)
(0.0690598 0.067299 -4.92735e-21)
(0.079288 0.0882315 -9.87018e-21)
(0.0898666 0.110256 -4.95053e-21)
(0.100724 0.133159 9.85341e-21)
(0.111781 0.156731 -9.83358e-21)
(0.12295 0.180759 9.8412e-21)
(0.134136 0.205027 -1.96373e-20)
(0.14524 0.229313 1.46895e-20)
(0.156157 0.253396 -9.75558e-21)
(0.166782 0.277055 4.90182e-21)
(0.177014 0.30008 -9.72876e-21)
(0.186757 0.322268 0)
(0.195923 0.343438 4.98672e-21)
(0.204437 0.363428 -9.70989e-21)
(0.212238 0.382103 9.72376e-21)
(0.219278 0.399354 0)
(0.22553 0.415099 -4.82234e-21)
(0.230991 0.429268 4.81677e-21)
(0.235651 0.441778 1.95246e-20)
(0.239379 0.452393 1.04583e-20)
(0.000979264 -0.010133 -8.12942e-21)
(0.00371214 -0.0227207 -8.86015e-21)
(0.00782949 -0.028335 1.36288e-20)
(0.0127055 -0.0284851 2.31737e-20)
(0.0183154 -0.0242191 0)
(0.0245669 -0.0163241 -9.57178e-21)
(0.0314014 -0.00541441 9.67514e-21)
(0.038775 0.00802545 2.92113e-20)
(0.0466454 0.0236088 -9.80855e-21)
(0.0549714 0.0410197 -9.84458e-21)
(0.0637123 0.0599925 2.95325e-20)
(0.0728234 0.0802958 9.87014e-21)
(0.0822539 0.101718 0)
(0.0919473 0.124058 -1.96994e-20)
(0.10184 0.147119 2.94017e-20)
(0.11186 0.170701 -9.766e-21)
(0.121931 0.194601 9.79448e-21)
(0.13197 0.218611 9.77422e-21)
(0.141887 0.242522 5.4794e-23)
(0.151593 0.266122 0)
(0.160999 0.289205 2.91985e-20)
(0.170018 0.311574 -1.9293e-20)
(0.17857 0.333043 9.7182e-21)
(0.186583 0.353447 0)
(0.193997 0.372641 -9.72387e-21)
(0.200762 0.390504 3.8772e-20)
(0.206847 0.406938 -2.88348e-20)
(0.212244 0.421852 -9.75471e-21)
(0.216918 0.435138 9.56657e-21)
(0.220689 0.446523 1.05049e-20)
(0.00128293 -0.0105715 0)
(0.00433153 -0.0238984 4.42523e-21)
(0.00845367 -0.0301863 8.93657e-24)
(0.0130995 -0.0309824 -2.31478e-20)
(0.0182842 -0.027354 0)
(0.0239548 -0.0200985 -1.90633e-20)
(0.0300832 -0.00983265 0)
(0.036648 0.00295793 -2.91786e-20)
(0.0436258 0.0178878 9.76599e-21)
(0.0509911 0.0346451 -1.95783e-20)
(0.058716 0.0529699 -1.96683e-20)
(0.0667673 0.0726373 -9.82781e-21)
(0.0751064 0.0934442 9.80855e-21)
(0.0836894 0.1152 9.75312e-21)
(0.0924658 0.137719 -9.82567e-21)
(0.101378 0.160814 -1.94533e-20)
(0.110364 0.184295 1.94168e-20)
(0.119354 0.207967 0)
(0.128275 0.231632 0)
(0.13705 0.255088 0)
(0.145603 0.278138 0)
(0.153858 0.300587 0)
(0.161743 0.322252 0)
(0.169191 0.342966 -1.91323e-20)
(0.176144 0.362576 -1.93009e-20)
(0.182554 0.380953 -1.87322e-22)
(0.188387 0.397983 -1.93421e-20)
(0.193636 0.41356 -4.48995e-22)
(0.198237 0.427549 -1.97908e-20)
(0.20197 0.439648 4.10731e-20)
(0.00160504 -0.0109906 0)
(0.0049896 -0.0250017 3.97135e-20)
(0.00912411 -0.0319083 8.09536e-24)
(0.0135461 -0.0333062 -1.38606e-20)
(0.0183174 -0.0302809 4.69318e-20)
(0.0234256 -0.0236383 2.85891e-20)
(0.0288728 -0.013998 2.88207e-20)
(0.0346619 -0.00184412 0)
(0.040788 0.0124406 0)
(0.0472391 0.0285482 2.93563e-20)
(0.0539992 0.0462241 6.07537e-24)
(0.0610457 0.0652502 -6.8485e-20)
(0.0683498 0.0854314 5.86158e-20)
(0.0758776 0.106586 -1.95613e-20)
(0.0835893 0.128538 1.93843e-20)
(0.0914394 0.151113 1.94099e-20)
(0.0993768 0.174131 -1.93131e-20)
(0.107346 0.197411 1.93491e-20)
(0.115286 0.220765 3.85003e-20)
(0.123134 0.244003 -1.91443e-20)
(0.130824 0.266935 -3.81944e-20)
(0.13829 0.289374 3.81102e-20)
(0.14547 0.311139 -3.80417e-20)
(0.152304 0.332062 1.91326e-20)
(0.158738 0.351988 0)
(0.164725 0.370779 0)
(0.170234 0.38831 3.7073e-22)
(0.175259 0.404462 -7.58022e-20)
(0.17971 0.419077 3.7927e-20)
(0.183328 0.431826 -4.12743e-20)
(0.00194272 -0.0113739 0)
(0.00567414 -0.026001 -3.52942e-20)
(0.00981906 -0.0334751 3.61158e-20)
(0.0140177 -0.0354343 0)
(0.0183796 -0.032982 -7.5015e-20)
(0.022936 -0.0269316 -9.50502e-21)
(0.0277218 -0.0179027 -1.92409e-20)
(0.0327628 -0.00637678 -9.66675e-21)
(0.0380718 0.00726668 0)
(0.0436508 0.022725 -1.9501e-20)
(0.0494941 0.0397498 1.95199e-20)
(0.0555877 0.0581288 3.91053e-20)
(0.0619111 0.0776741 -3.90624e-20)
(0.0684387 0.0982123 0)
(0.0751392 0.119577 -3.88859e-20)
(0.0819763 0.141602 3.86245e-20)
(0.0889092 0.164121 3.86477e-20)
(0.0958931 0.186962 5.76162e-20)
(0.102879 0.20995 -5.7519e-20)
(0.109813 0.232904 7.64066e-20)
(0.116643 0.255644 3.82079e-20)
(0.123312 0.277989 -3.81107e-20)
(0.129766 0.299765 7.58466e-20)
(0.135952 0.320803 0)
(0.141823 0.340947 3.76828e-20)
(0.147334 0.360056 7.56205e-20)
(0.152459 0.377994 -3.72672e-20)
(0.157195 0.394631 3.79244e-20)
(0.161426 0.409789 3.69089e-23)
(0.164862 0.423119 -4.09256e-20)
(0.00229177 -0.0117198 -4.04349e-21)
(0.00637363 -0.026893 0)
(0.01052 -0.0348805 -4.51435e-20)
(0.0144872 -0.0373609 9.19979e-21)
(0.0184378 -0.035454 2.81082e-20)
(0.0224482 -0.029977 9.47712e-21)
(0.0265864 -0.0215482 3.82627e-20)
(0.0309015 -0.0106452 0)
(0.035424 0.00235841 1.93902e-20)
(0.0401687 0.0171662 1.93963e-20)
(0.0451391 0.0335355 -1.94725e-20)
(0.0503289 0.0512604 5.83359e-20)
(0.0557241 0.0701599 0)
(0.0613056 0.0900679 0)
(0.0670488 0.110826 5.7979e-20)
(0.0729248 0.132278 -9.63719e-20)
(0.0789014 0.154266 3.83476e-20)
(0.0849422 0.176629 -3.83574e-20)
(0.0910074 0.199203 -3.80611e-20)
(0.0970542 0.221817 -1.14141e-19)
(0.103038 0.244299 -2.03344e-22)
(0.108913 0.266477 3.76863e-20)
(0.114633 0.288181 -7.53921e-20)
(0.120154 0.309247 3.75033e-20)
(0.125432 0.32952 -2.49022e-22)
(0.130429 0.348853 -3.76449e-20)
(0.135124 0.367107 3.76191e-20)
(0.139517 0.384139 0)
(0.143471 0.399758 3.72766e-20)
(0.146666 0.413597 5.65647e-22)
(0.00264787 -0.0120218 -8.07854e-21)
(0.007075 -0.0276649 8.79931e-21)
(0.0112063 -0.0361121 -5.40228e-20)
(0.0149285 -0.0390751 -2.75457e-20)
(0.0184603 -0.0376881 3.73285e-20)
(0.0219254 -0.0327695 -5.67359e-20)
(0.0254256 -0.0249339 -1.91571e-20)
(0.0290335 -0.0146518 -3.84499e-20)
(0.0327964 -0.0022897 3.86331e-20)
(0.0367412 0.0118628 -7.75785e-20)
(0.0408796 0.0275698 -3.87806e-20)
(0.0452117 0.044632 -1.07587e-22)
(0.049729 0.062875 1.93902e-20)
(0.0544171 0.0821393 -5.79465e-20)
(0.0592569 0.102274 -7.71193e-20)
(0.0642253 0.123131 2.1358e-23)
(0.0692964 0.144561 -1.14082e-22)
(0.0744408 0.166414 3.80629e-20)
(0.0796264 0.188532 3.80617e-20)
(0.0848188 0.210757 -1.32305e-23)
(0.089982 0.232924 -2.09181e-22)
(0.0950783 0.254869 3.72946e-20)
(0.10007 0.27643 3.75879e-20)
(0.104919 0.297446 4.10606e-23)
(0.109589 0.317763 -1.1208e-19)
(0.114048 0.337234 7.42286e-20)
(0.11828 0.355714 7.47743e-20)
(0.12229 0.373057 -7.39634e-20)
(0.125919 0.389054 -3.72772e-20)
(0.128823 0.40333 -4.05567e-20)
(0.0030059 -0.0122735 -7.26059e-20)
(0.00776474 -0.028306 -8.78712e-21)
(0.0118576 -0.0371579 4.49964e-20)
(0.0153156 -0.0405667 3.67303e-20)
(0.0184167 -0.0396774 -3.73283e-20)
(0.021334 -0.0353058 3.7808e-20)
(0.024203 -0.0280592 -1.90699e-20)
(0.0271195 -0.0183996 5.76512e-20)
(0.030147 -0.00668435 -3.86331e-20)
(0.0333235 0.00680529 3.87396e-20)
(0.0366682 0.0218407 1.94139e-20)
(0.0401864 0.0382295 -1.94119e-20)
(0.0438739 0.0558037 -1.15883e-19)
(0.0477201 0.0744105 7.71663e-20)
(0.0517098 0.0939057 3.84999e-20)
(0.0558243 0.114148 0)
(0.0600425 0.134998 0)
(0.0643404 0.15631 -2.52786e-22)
(0.0686921 0.177939 -3.77787e-20)
(0.0730701 0.199731 0)
(0.0774456 0.221534 0)
(0.081788 0.24319 -3.75037e-20)
(0.0860666 0.264543 0)
(0.090251 0.285438 -7.42077e-20)
(0.0943113 0.305723 0)
(0.0982206 0.325252 -3.71393e-20)
(0.101968 0.343878 7.42675e-20)
(0.105566 0.361448 -7.34621e-20)
(0.108835 0.377744 0)
(0.11141 0.392387 0)
(0.00336031 -0.0124685 6.45348e-20)
(0.00842868 -0.0288052 0)
(0.0124534 -0.0380069 -8.98517e-21)
(0.0156236 -0.0418266 9.15601e-21)
(0.0182792 -0.0414155 -5.57655e-20)
(0.0206437 -0.0375823 5.81227e-24)
(0.0228864 -0.0309244 -1.90259e-20)
(0.0251258 -0.0218921 0)
(0.0274405 -0.0108319 0)
(0.0298787 0.00198429 -1.92985e-20)
(0.032466 0.0163362 1.93172e-20)
(0.0352121 0.0320388 -3.86242e-20)
(0.0381162 0.0489307 3.87429e-20)
(0.0411705 0.0668655 0)
(0.0443625 0.0857052 0)
(0.0476767 0.105316 0)
(0.0510954 0.125562 3.78858e-20)
(0.0545988 0.146309 -1.09004e-22)
(0.0581657 0.167417 3.79029e-20)
(0.0617743 0.188742 -7.49932e-20)
(0.0654013 0.210137 3.75036e-20)
(0.0690227 0.231455 -1.86303e-19)
(0.072614 0.252544 -7.92103e-23)
(0.0761511 0.273256 7.42092e-20)
(0.07961 0.293442 -4.62603e-22)
(0.0829693 0.312955 7.33452e-20)
(0.0862244 0.33165 -7.32848e-20)
(0.0893943 0.349373 -7.36766e-20)
(0.0922784 0.365894 -1.09114e-22)
(0.0944959 0.380837 -7.92032e-20)
(0.00370486 -0.0126005 -8.05622e-21)
(0.00905193 -0.0291518 0)
(0.0129734 -0.0386487 1.79428e-20)
(0.0158287 -0.0428462 -1.8284e-20)
(0.0180221 -0.0428965 1.6721e-19)
(0.019828 -0.0395965 3.35511e-24)
(0.0214488 -0.0335297 -1.89878e-20)
(0.0230248 -0.0251324 1.91171e-20)
(0.0246485 -0.0147385 -9.59449e-20)
(0.0263773 -0.00260885 0)
(0.0282424 0.0110452 0)
(0.0302571 0.0260467 -3.8434e-20)
(0.0324229 0.0422412 3.85629e-20)
(0.034734 0.0594884 -3.83841e-20)
(0.0371799 0.0776561 3.82209e-20)
(0.0397469 0.096616 0)
(0.0424198 0.11624 -1.51756e-19)
(0.0451819 0.136398 7.5448e-20)
(0.0480156 0.156958 3.76729e-20)
(0.0509032 0.177784 1.12401e-19)
(0.0538262 0.198736 0)
(0.0567657 0.219672 7.4392e-20)
(0.0597028 0.240449 7.37617e-20)
(0.0626186 0.260923 7.3484e-20)
(0.0654947 0.280949 -3.12568e-22)
(0.0683148 0.300383 -7.31217e-20)
(0.0710805 0.31908 7.32864e-20)
(0.0738159 0.336885 0)
(0.0763022 0.353564 -1.05357e-22)
(0.0781431 0.368746 1.5817e-19)
(0.00403279 -0.0126634 -6.4373e-20)
(0.00961919 -0.0293361 0)
(0.0133974 -0.0390738 -7.16019e-20)
(0.0159089 -0.0436182 -9.12431e-20)
(0.0176227 -0.0441157 -5.5705e-20)
(0.0188643 -0.0413463 1.87744e-20)
(0.0198681 -0.0358757 -1.37729e-24)
(0.0207947 -0.0281235 -1.908e-20)
(0.0217497 -0.0184092 1.60721e-22)
(0.0227981 -0.00698147 3.84236e-20)
(0.0239759 0.00595854 3.83789e-20)
(0.0252992 0.0202423 -3.82837e-20)
(0.026771 0.0357226 3.83722e-20)
(0.0283868 0.0522652 -1.14782e-19)
(0.0301371 0.0697437 1.14368e-19)
(0.0320095 0.088035 7.59386e-20)
(0.0339904 0.107017 1.89292e-19)
(0.036065 0.126565 -3.78039e-20)
(0.0382185 0.146553 -7.49343e-20)
(0.0404361 0.166851 -1.85408e-22)
(0.0427032 0.187328 -7.45248e-20)
(0.0450051 0.207846 2.22015e-19)
(0.0473271 0.228268 -1.47711e-19)
(0.0496551 0.248457 1.46574e-19)
(0.0519754 0.268271 -7.33449e-20)
(0.0542763 0.287568 1.45958e-19)
(0.0565649 0.306206 4.43206e-22)
(0.0588696 0.324034 -1.45119e-19)
(0.0609548 0.34081 1.44238e-19)
(0.0624092 0.356174 7.86564e-20)
(0.00433679 -0.0126516 6.43729e-20)
(0.0101148 -0.0293496 0)
(0.0137063 -0.0392742 1.60995e-19)
(0.0158437 -0.0441365 5.47517e-20)
(0.0170611 -0.0450693 0)
(0.0177341 -0.0428301 0)
(0.0181273 -0.0379627 0)
(0.0184203 -0.0308676 0)
(0.0187299 -0.021848 3.83325e-20)
(0.0191278 -0.0111392 3.83506e-20)
(0.0196536 0.00106903 -7.68411e-20)
(0.0203253 0.0146171 7.68047e-20)
(0.0211471 0.029365 1.14848e-19)
(0.0221149 0.045185 3.82929e-20)
(0.0232197 0.0619562 3.7963e-20)
(0.0244497 0.0795606 -1.13846e-19)
(0.025792 0.097881 -1.51096e-19)
(0.0272334 0.116799 -7.52804e-20)
(0.0287606 0.136192 7.49359e-20)
(0.0303612 0.155939 -1.49253e-19)
(0.0320233 0.17591 7.40172e-20)
(0.0337354 0.195978 -1.47971e-19)
(0.0354865 0.21601 7.34477e-20)
(0.0372662 0.235871 2.5194e-22)
(0.0390647 0.255428 -7.27256e-20)
(0.0408742 0.274539 -1.45811e-19)
(0.0427064 0.293066 1.44809e-19)
(0.0445927 0.310861 0)
(0.0462819 0.327683 1.24431e-22)
(0.047348 0.343181 -1.57172e-19)
(0.00460916 -0.0125601 8.03762e-21)
(0.0105231 -0.0291851 0)
(0.0138815 -0.0392437 -7.15035e-20)
(0.0156149 -0.0443965 1.82019e-20)
(0.0163206 -0.0457548 -1.84823e-20)
(0.016423 -0.044047 0)
(0.0162148 -0.0397912 -1.88759e-20)
(0.0158923 -0.0333665 1.90061e-20)
(0.0155818 -0.0250577 3.81728e-20)
(0.0153606 -0.0150854 -1.14754e-19)
(0.0152708 -0.00362766 -3.83116e-20)
(0.0153317 0.00916557 -1.03358e-23)
(0.0155477 0.0231621 -6.39851e-23)
(0.0159148 0.0382406 -7.62818e-20)
(0.0164238 0.0542856 -3.80987e-20)
(0.0170632 0.0711844 0)
(0.0178205 0.0888243 -2.38191e-23)
(0.0186828 0.107092 7.51451e-20)
(0.0196384 0.12587 -7.46198e-20)
(0.020676 0.145041 0)
(0.021786 0.164482 0)
(0.0229592 0.184071 0)
(0.0241873 0.203679 0)
(0.0254628 0.223178 -1.54498e-22)
(0.0267792 0.242437 0)
(0.0281316 0.261319 0)
(0.0295349 0.27969 7.21378e-20)
(0.0310224 0.297408 7.18801e-20)
(0.0323285 0.31423 7.20038e-20)
(0.033011 0.329821 1.61354e-22)
(0.00484188 -0.012385 8.03182e-21)
(0.0108285 -0.0288373 -1.7438e-20)
(0.0139059 -0.0389779 1.06986e-19)
(0.0152063 -0.0443956 -1.81764e-20)
(0.0153881 -0.0461709 1.84489e-20)
(0.0149213 -0.0449968 -3.99487e-24)
(0.0141243 -0.0413617 5.64603e-20)
(0.0132075 -0.0356207 -7.5806e-20)
(0.0123051 -0.028039 1.14248e-19)
(0.0114984 -0.0188212 6.64836e-23)
(0.0108311 -0.00813278 -3.81804e-20)
(0.010323 0.00388631 7.63997e-20)
(0.00997818 0.017112 -7.62912e-20)
(0.00979216 0.0314295 7.6111e-20)
(0.00975545 0.0467292 0)
(0.00985611 0.0629032 7.55904e-20)
(0.0100816 0.0798434 0)
(0.0104194 0.0974404 8.578e-23)
(0.0108581 0.115583 -7.45962e-20)
(0.0113878 0.134156 -7.42449e-20)
(0.0119999 0.153044 7.38941e-20)
(0.0126871 0.172127 -7.35483e-20)
(0.0134431 0.191283 -7.32114e-20)
(0.0142625 0.210388 -1.45881e-19)
(0.015141 0.229315 -7.25709e-20)
(0.0160757 0.247932 7.25732e-20)
(0.0170833 0.266109 -1.4394e-19)
(0.0181974 0.28371 -7.18818e-20)
(0.0191394 0.300497 0)
(0.0194489 0.316145 -7.85338e-20)
(0.00502688 -0.0121234 0)
(0.011016 -0.0283029 6.96353e-20)
(0.0137638 -0.0384747 -5.34967e-20)
(0.0146049 -0.0441332 -9.06766e-20)
(0.014254 -0.0463178 0)
(0.0132239 -0.0456798 0)
(0.0118546 -0.0426744 -1.12922e-19)
(0.0103687 -0.0376301 1.51488e-19)
(0.008906 -0.0307909 -1.14117e-19)
(0.00755027 -0.0223448 0)
(0.00634584 -0.012444 3.82367e-20)
(0.00531216 -0.00121802 -3.82359e-20)
(0.00445265 0.0112175 1.0073e-22)
(0.00376197 0.0247548 -3.8145e-20)
(0.00322988 0.0392898 -3.79004e-20)
(0.0028439 0.0547196 -7.34757e-23)
(0.00259108 0.0709408 7.52129e-20)
(0.00245883 0.087848 7.49442e-20)
(0.00243595 0.105334 -9.2455e-23)
(0.00251308 0.123288 1.48333e-19)
(0.00268264 0.1416 -1.4792e-19)
(0.0029384 0.160154 1.46903e-19)
(0.00327522 0.178832 7.32133e-20)
(0.00368935 0.197515 7.28872e-20)
(0.00417768 0.216081 8.01948e-23)
(0.00473811 0.234401 0)
(0.00538775 0.25235 7.21571e-20)
(0.00615847 0.269803 -2.15095e-19)
(0.00676034 0.286524 7.02637e-20)
(0.00671204 0.302203 7.78814e-20)
(0.00515612 -0.0117735 -4.80944e-20)
(0.0110716 -0.027581 -1.56578e-19)
(0.0134418 -0.0377347 1.0701e-23)
(0.0138002 -0.0436106 1.24394e-22)
(0.0129127 -0.0461972 -5.51003e-20)
(0.0113299 -0.0460972 0)
(0.00941007 -0.0437292 -3.74914e-20)
(0.00738448 -0.0393931 -2.26823e-19)
(0.00539685 -0.0333104 1.13993e-19)
(0.00353181 -0.0256516 -7.61e-20)
(0.00183324 -0.0165553 1.1433e-19)
(0.000319596 -0.00614013 -3.81117e-20)
(-0.00100683 0.00548698 7.61939e-20)
(-0.00215256 0.0182253 -1.89986e-19)
(-0.00312883 0.0319768 1.13648e-19)
(-0.0039489 0.0466434 4.69075e-23)
(-0.00462629 0.0621262 -2.25496e-19)
(-0.00517392 0.078324 7.49765e-20)
(-0.00560298 0.0951333 -7.44147e-20)
(-0.0059225 0.112449 0)
(-0.00613957 0.130162 7.38298e-20)
(-0.0062598 0.148164 0)
(-0.00628756 0.16634 -7.33274e-20)
(-0.00622586 0.184576 7.26065e-20)
(-0.00607743 0.202753 7.24945e-20)
(-0.00584478 0.220749 7.21267e-20)
(-0.00551218 0.238444 0)
(-0.00505094 0.255723 0)
(-0.00476119 0.272356 -1.42934e-19)
(-0.00514853 0.288044 2.34629e-19)
(0.00522185 -0.011335 4.81244e-20)
(0.0109823 -0.0266733 8.69445e-20)
(0.0129283 -0.036761 -7.10015e-20)
(0.0127851 -0.0428316 1.44708e-19)
(0.0113626 -0.0458121 1.84808e-20)
(0.00924335 -0.0462508 1.85655e-20)
(0.00679985 -0.044526 1.22955e-22)
(0.00426904 -0.0409069 -7.53507e-20)
(0.00179609 -0.035592 -3.78516e-20)
(-0.000534919 -0.0287337 1.13642e-22)
(-0.0026816 -0.0204565 -1.02082e-22)
(-0.00462712 -0.0108678 -1.14197e-19)
(-0.00637076 -6.57665e-05 -3.80152e-20)
(-0.00792048 0.0118563 6.23353e-23)
(-0.00928868 0.0248062 7.56833e-20)
(-0.0104896 0.0386914 7.54347e-20)
(-0.0115374 0.0534171 2.15025e-23)
(-0.0124455 0.0688861 -7.48469e-20)
(-0.0132251 0.0849993 7.46489e-20)
(-0.0138853 0.101655 -7.40453e-20)
(-0.0144327 0.11875 -1.47678e-19)
(-0.0148729 0.136177 -7.36588e-20)
(-0.0152098 0.153829 1.46114e-19)
(-0.0154464 0.171594 0)
(-0.0155859 0.189358 -7.24639e-20)
(-0.0156324 0.207005 -1.44251e-19)
(-0.0155734 0.224423 -1.44021e-19)
(-0.015385 0.241507 7.10095e-20)
(-0.0153762 0.258035 -2.13784e-19)
(-0.0160808 0.273717 7.79547e-20)
(0.0052168 -0.0108092 -8.00156e-20)
(0.0107368 -0.0255841 1.73758e-20)
(0.0122149 -0.0355593 7.10024e-20)
(0.0115561 -0.041802 -5.42424e-20)
(0.00960603 -0.0451673 1.83924e-20)
(0.00697276 -0.0461429 1.35534e-23)
(0.00403823 -0.045064 1.87115e-19)
(0.00104176 -0.0421677 7.54148e-20)
(-0.00187229 -0.0376284 7.5768e-20)
(-0.00462199 -0.0315801 1.13967e-19)
(-0.00716738 -0.0241333 -1.14112e-19)
(-0.00949391 -0.0153838 7.61083e-20)
(-0.0116028 -0.00542082 1.52084e-19)
(-0.0135037 0.0056698 7.59174e-20)
(-0.0152103 0.0178022 5.60035e-23)
(-0.0167378 0.0308888 -1.50784e-19)
(-0.0181013 0.0448395 1.50411e-19)
(-0.0193147 0.0595613 1.0634e-22)
(-0.0203893 0.074959 -7.46688e-20)
(-0.021334 0.0909352 7.40651e-20)
(-0.0221557 0.10739 7.38479e-20)
(-0.0228598 0.124222 -7.35489e-20)
(-0.0234502 0.141326 -1.46514e-19)
(-0.0239304 0.158597 -3.84375e-22)
(-0.0243049 0.175927 7.22382e-20)
(-0.0245808 0.193203 7.21245e-20)
(-0.0247502 0.210324 1.44015e-19)
(-0.0247958 0.227194 -1.42462e-19)
(-0.0250343 0.243605 0)
(-0.0260317 0.259269 7.85576e-20)
(0.0051344 -0.0101989 6.64937e-23)
(0.0103256 -0.0243205 0)
(0.0112956 -0.0341383 -5.3075e-20)
(0.010113 -0.04053 -1.80371e-20)
(0.00764953 -0.0442689 -7.31056e-20)
(0.00453113 -0.0457767 0)
(0.00114424 -0.0453424 -1.12133e-19)
(-0.00227288 -0.0431702 3.76127e-20)
(-0.00557902 -0.0394097 0)
(-0.00869593 -0.0341766 -7.57748e-20)
(-0.011587 -0.027567 0)
(-0.0142407 -0.0196655 -1.13971e-19)
(-0.0166604 -0.0105519 1.13855e-19)
(-0.0188576 -0.00030477 -7.58401e-20)
(-0.0208475 0.0109965 -7.56291e-20)
(-0.0226464 0.0232697 0)
(-0.0242703 0.0364292 0)
(-0.0257334 0.0503863 7.50026e-20)
(-0.0270473 0.0650501 2.71601e-22)
(-0.0282209 0.0803272 7.45822e-20)
(-0.0292612 0.0961218 -7.37651e-20)
(-0.0301735 0.112336 1.47311e-19)
(-0.0309623 0.128871 -7.30608e-20)
(-0.0316317 0.145625 0)
(-0.0321884 0.162497 2.18e-19)
(-0.0326431 0.179382 -3.61003e-19)
(-0.0329947 0.196186 7.13767e-20)
(-0.0332339 0.212828 7.14627e-20)
(-0.0336835 0.229113 7.11171e-20)
(-0.034947 0.244752 1.58304e-19)
(0.00496902 -0.00950824 -6.38063e-20)
(0.0097417 -0.0228923 1.38294e-19)
(0.0101679 -0.0325093 7.07764e-20)
(0.0084598 -0.0390261 1.61813e-19)
(0.00550383 -0.0431246 2.00772e-19)
(0.00193588 -0.0451556 3.69447e-20)
(-0.0018585 -0.0453601 -1.86302e-19)
(-0.00564568 -0.0439078 0)
(-0.00928991 -0.0409239 -1.50819e-19)
(-0.0127182 -0.0365056 -7.55619e-20)
(-0.0158982 -0.0307347 0)
(-0.0188217 -0.0236847 -7.58066e-20)
(-0.0214949 -0.0154264 4.00182e-23)
(-0.0239313 -0.00603062 -2.27241e-19)
(-0.0261476 0.0044296 7.56312e-20)
(-0.0281615 0.0158774 7.55275e-20)
(-0.0299896 0.0282319 -1.50156e-19)
(-0.0316467 0.041409 -1.49841e-19)
(-0.0331444 0.0553219 -2.86916e-22)
(-0.0344917 0.0698812 -1.15861e-22)
(-0.0356958 0.0849953 0)
(-0.0367621 0.100571 -7.38531e-20)
(-0.0376953 0.116513 -7.36328e-20)
(-0.0385008 0.132728 0)
(-0.0391875 0.149119 0)
(-0.0397711 0.16559 2.17212e-19)
(-0.0402582 0.182059 -2.15513e-19)
(-0.040649 0.198457 0)
(-0.0412715 0.214608 2.13955e-19)
(-0.0427714 0.230216 -1.57352e-19)
(0.00471624 -0.00874335 1.42308e-22)
(0.00898052 -0.0213122 -1.38343e-19)
(0.00883275 -0.0306865 -1.76594e-20)
(0.00660412 -0.0373028 -1.79735e-19)
(0.00318376 -0.0417437 -1.09473e-19)
(-0.00079133 -0.0442843 3.68738e-20)
(-0.00494205 -0.0451157 7.45722e-20)
(-0.009043 -0.044373 1.87261e-19)
(-0.0129662 -0.0421569 1.50822e-19)
(-0.0166453 -0.0385462 1.51342e-19)
(-0.0200532 -0.0336091 0)
(-0.0231858 -0.0274082 1.47674e-22)
(-0.0260522 -0.0200051 0)
(-0.028668 -0.0114633 1.51533e-19)
(-0.0310518 -0.00184935 0)
(-0.0332226 0.00876527 -7.555e-20)
(-0.0351979 0.0203046 7.50238e-20)
(-0.0369928 0.0326891 0)
(-0.0386191 0.0458363 0)
(-0.040086 0.0596609 -2.23488e-19)
(-0.0414005 0.0740753 7.39337e-20)
(-0.0425684 0.0889905 0)
(-0.0435944 0.104317 1.46542e-19)
(-0.0444851 0.119967 1.46095e-19)
(-0.045252 0.135853 -2.91072e-19)
(-0.0459156 0.151886 2.89638e-19)
(-0.0464917 0.167997 2.87235e-22)
(-0.0469908 0.184135 1.4348e-19)
(-0.0477451 0.200144 -1.42403e-19)
(-0.0494484 0.215716 0)
(0.00437297 -0.00791177 1.59435e-19)
(0.00804051 -0.0195954 -1.72785e-20)
(0.00729471 -0.0286864 -1.4074e-19)
(0.00455763 -0.0353751 0)
(0.000708184 -0.0401367 -1.4532e-19)
(-0.00362481 -0.0431677 0)
(-0.00807442 -0.0446078 -1.85567e-19)
(-0.0124271 -0.0445573 -1.1238e-19)
(-0.0165648 -0.0430925 -1.50313e-19)
(-0.0204294 -0.0402749 0)
(-0.024 -0.0361591 3.78753e-20)
(-0.0272769 -0.0307973 3.81498e-20)
(-0.0302726 -0.0242426 -7.57031e-20)
(-0.0330052 -0.0165507 -1.51406e-19)
(-0.0354952 -0.00778216 -7.54781e-20)
(-0.037763 0.00199699 -3.01815e-19)
(-0.0398272 0.0127158 1.5019e-19)
(-0.0417031 0.0242995 -3.01739e-22)
(-0.043403 0.0366698 -3.24045e-22)
(-0.0449363 0.0497454 2.23255e-19)
(-0.04631 0.0634426 0)
(-0.0475297 0.077677 0)
(-0.0486003 0.0923648 5.31301e-22)
(-0.0495291 0.107424 2.49342e-22)
(-0.0503296 0.122775 -1.46005e-19)
(-0.0510272 0.138342 -1.45531e-19)
(-0.0516468 0.154068 -5.82848e-22)
(-0.0522096 0.169924 -1.43484e-19)
(-0.0530509 0.185777 -1.43131e-19)
(-0.0549198 0.201307 -5.63677e-22)
(0.00393772 -0.00702254 0)
(0.00692319 -0.0177596 1.3748e-19)
(0.00556207 -0.0265282 1.23181e-19)
(0.00233594 -0.0332598 1.7896e-20)
(-0.00190013 -0.0383161 2.90304e-19)
(-0.00653509 -0.0418119 -3.67199e-20)
(-0.0112199 -0.0438351 2.96507e-19)
(-0.0157565 -0.0444514 1.49169e-19)
(-0.020039 -0.0437134 2.25415e-19)
(-0.0240188 -0.0416655 1.12982e-19)
(-0.0276821 -0.03835 3.78316e-20)
(-0.0310342 -0.0338089 1.89445e-19)
(-0.0340915 -0.028087 1.89126e-22)
(-0.0368747 -0.0212331 7.5824e-20)
(-0.0394066 -0.0133015 1.51205e-19)
(-0.0417092 -0.004353 1.50913e-19)
(-0.0438021 0.00554658 0)
(-0.0457014 0.0163271 0)
(-0.04742 0.0279144 0)
(-0.0489675 0.040231 0)
(-0.0503512 0.053197 1.48807e-19)
(-0.0515763 0.0667323 0)
(-0.0526478 0.0807579 -2.48882e-22)
(-0.0535727 0.0951982 2.93462e-19)
(-0.0543658 0.109983 1.45778e-19)
(-0.0550558 0.125048 1.45063e-19)
(-0.0556757 0.140354 2.89508e-19)
(-0.0562567 0.155896 0)
(-0.0571355 0.171574 -2.86816e-19)
(-0.0591253 0.18705 3.18289e-19)
(0.0034107 -0.00608603 1.26906e-19)
(0.00563337 -0.0158246 -1.37484e-19)
(0.0036469 -0.0242331 0)
(-4.15096e-05 -0.0309757 -1.42533e-19)
(-0.00461471 -0.0362953 -3.65649e-20)
(-0.00948913 -0.0402238 -1.09703e-19)
(-0.0143394 -0.0427967 -3.32836e-19)
(-0.0189862 -0.0440458 -3.61488e-22)
(-0.0233384 -0.0440009 -1.12284e-19)
(-0.0273579 -0.0426901 -2.63379e-19)
(-0.0310389 -0.040144 -3.77051e-20)
(-0.0343925 -0.0363954 -1.51124e-19)
(-0.0374391 -0.0314812 -1.51251e-19)
(-0.0402028 -0.0254435 0)
(-0.0427087 -0.0183312 -1.51149e-19)
(-0.0449806 -0.0101996 -2.26595e-19)
(-0.0470397 -0.00110959 7.51761e-20)
(-0.0489032 0.00887328 -1.50369e-19)
(-0.0505847 0.0196789 -1.49982e-19)
(-0.0520949 0.0312332 0)
(-0.0534411 0.0434598 -2.97871e-19)
(-0.0546288 0.056282 0)
(-0.0556625 0.0696251 -2.95884e-19)
(-0.0565485 0.0834191 -1.47618e-19)
(-0.0573007 0.0976019 -2.93094e-19)
(-0.0579487 0.112123 1.46279e-19)
(-0.0585308 0.126961 -4.35014e-19)
(-0.0590841 0.14214 1.4461e-19)
(-0.0599442 0.157609 -4.34996e-22)
(-0.0619998 0.173011 -1.60818e-19)
(0.00279392 -0.00511372 -1.26909e-19)
(0.00417919 -0.0138122 1.71069e-20)
(0.00156503 -0.0218246 1.22188e-19)
(-0.00255159 -0.0285433 1.42536e-19)
(-0.00740562 -0.0340895 -1.44619e-19)
(-0.0124507 -0.0384113 3.93047e-22)
(-0.0173907 -0.0414925 1.47749e-19)
(-0.0220687 -0.0433315 -2.97382e-19)
(-0.0264098 -0.0439361 -3.70986e-20)
(-0.0303879 -0.0433194 3.38022e-19)
(-0.0340064 -0.0415012 -2.26053e-19)
(-0.0372825 -0.0385058 3.77463e-19)
(-0.0402413 -0.034363 3.78064e-19)
(-0.0429104 -0.0291089 -7.54768e-20)
(-0.0453178 -0.0227871 1.51153e-19)
(-0.0474897 -0.0154477 2.26618e-19)
(-0.0494489 -0.00714682 7.55548e-20)
(-0.0512143 0.00205438 -9.98479e-23)
(-0.0528013 0.0120896 7.47533e-20)
(-0.0542217 0.022888 7.46246e-20)
(-0.0554841 0.0343761 -7.50419e-20)
(-0.0565944 0.0464797 7.41268e-20)
(-0.0575567 0.0591264 -1.48282e-19)
(-0.0583762 0.0722501 1.47371e-19)
(-0.0590639 0.0857951 -3.70082e-22)
(-0.0596464 0.0997221 1.46458e-19)
(-0.0601611 0.114028 -4.22352e-22)
(-0.0606438 0.128775 -1.4445e-19)
(-0.0614202 0.143973 1.61379e-22)
(-0.0634699 0.159265 0)
(0.00209124 -0.004118 0)
(0.00257219 -0.0117458 0)
(-0.000664075 -0.0193274 -1.57118e-19)
(-0.00516769 -0.0259849 1.77555e-20)
(-0.0102398 -0.0317156 0)
(-0.0153808 -0.036384 1.45956e-19)
(-0.0203293 -0.0399234 3.68108e-20)
(-0.0249535 -0.0422998 1.1145e-19)
(-0.0291972 -0.0435002 1.49416e-19)
(-0.0330477 -0.0435238 -1.50102e-19)
(-0.0365177 -0.0423806 1.50597e-19)
(-0.0396317 -0.0400871 -1.50921e-19)
(-0.0424197 -0.0366671 -1.51097e-19)
(-0.0449136 -0.0321512 0)
(-0.0471446 -0.026578 0)
(-0.0491417 -0.0199932 0)
(-0.05093 -0.012448 -1.50754e-19)
(-0.0525309 -0.00399947 2.25941e-19)
(-0.0539619 0.00528983 -7.48991e-20)
(-0.0552373 0.0153522 0)
(-0.0563678 0.0261161 2.24235e-19)
(-0.057361 0.0375087 -7.42516e-20)
(-0.0582218 0.0494583 1.48285e-19)
(-0.058954 0.0618988 -2.96379e-19)
(-0.0595644 0.074776 2.93944e-19)
(-0.0600717 0.0880567 6.48238e-22)
(-0.0605045 0.101753 2.35557e-22)
(-0.0608818 0.115964 1.44879e-19)
(-0.0614985 0.130788 -7.455e-22)
(-0.0634405 0.145899 1.61165e-19)
(0.00130839 -0.00311193 1.57149e-20)
(0.000827194 -0.0096496 -1.70742e-20)
(-0.00301749 -0.016768 3.47393e-20)
(-0.00786003 -0.0233242 -2.12016e-19)
(-0.0130815 -0.0291915 3.59065e-20)
(-0.0182381 -0.0341528 0)
(-0.0231082 -0.0380918 1.46523e-19)
(-0.0275886 -0.0409436 -1.47707e-19)
(-0.0316433 -0.0426757 0)
(-0.0352738 -0.0432745 1.8687e-19)
(-0.0385036 -0.0427411 -3.74895e-20)
(-0.0413646 -0.0410857 0)
(-0.0438927 -0.0383262 -7.55514e-20)
(-0.0461244 -0.034489 1.50946e-19)
(-0.0480946 -0.0296083 -7.53119e-20)
(-0.0498356 -0.0237254 7.56507e-20)
(-0.0513755 -0.0168871 -1.50789e-19)
(-0.0527386 -0.00914637 -4.25091e-22)
(-0.0539459 -0.000562078 -4.4132e-22)
(-0.055015 0.00880097 -7.5275e-20)
(-0.0559603 0.0188733 -1.50083e-19)
(-0.0567928 0.0295827 -9.38708e-22)
(-0.05752 0.0408557 -5.85167e-22)
(-0.0581463 0.0526222 1.48041e-19)
(-0.0586742 0.0648224 -1.48109e-19)
(-0.0591115 0.0774177 1.46873e-19)
(-0.0594686 0.0904186 -2.92816e-19)
(-0.0597251 0.103953 -2.42667e-22)
(-0.0600967 0.118225 -2.90707e-19)
(-0.0617644 0.133015 1.619e-19)
(0.000453033 -0.00210913 0)
(-0.00103761 -0.00754923 -1.35473e-19)
(-0.00546891 -0.0141739 0)
(-0.0105958 -0.0205861 5.00986e-22)
(-0.0158923 -0.026537 3.57737e-20)
(-0.0209791 -0.0317303 1.08156e-23)
(-0.0256793 -0.036002 -2.92541e-19)
(-0.0299207 -0.0392579 1.10861e-19)
(-0.0336892 -0.0414471 0)
(-0.0370021 -0.0425445 -1.86784e-19)
(-0.0398938 -0.0425437 3.73998e-20)
(-0.0424047 -0.0414488 0)
(-0.044577 -0.0392736 -7.544e-20)
(-0.0464522 -0.0360406 7.52017e-20)
(-0.0480698 -0.0317803 7.51146e-20)
(-0.0494656 -0.02653 1.50831e-19)
(-0.0506714 -0.0203325 -7.51603e-20)
(-0.0517151 -0.0132366 0)
(-0.0526216 -0.0052974 0)
(-0.0534132 0.00342371 1.5005e-19)
(-0.0541092 0.01286 -1.50258e-19)
(-0.0547259 0.0229399 1.48895e-19)
(-0.0552765 0.0335879 1.4883e-19)
(-0.0557695 0.044727 1.48951e-19)
(-0.0562071 0.0562847 -1.47439e-19)
(-0.0565884 0.0682015 1.47204e-19)
(-0.0569036 0.0804584 1.47282e-19)
(-0.0570792 0.0931748 -1.45683e-19)
(-0.0571811 0.106664 -6.77345e-22)
(-0.0583559 0.120883 3.26292e-19)
(-0.000465849 -0.00112287 1.56116e-20)
(-0.00300155 -0.00546976 1.18551e-19)
(-0.00798951 -0.0115726 0)
(-0.0133401 -0.0177961 1.4079e-19)
(-0.0186324 -0.0237728 0)
(-0.0235593 -0.0291307 0)
(-0.0279934 -0.0336604 1.09591e-19)
(-0.0318958 -0.03724 -6.33461e-23)
(-0.0352761 -0.0398017 3.6968e-20)
(-0.0381679 -0.0413102 3.72661e-20)
(-0.0406178 -0.0417522 -1.12168e-19)
(-0.0426748 -0.0411273 7.48227e-20)
(-0.0443884 -0.0394457 0)
(-0.0458056 -0.0367267 0)
(-0.0469706 -0.0329981 -1.5073e-19)
(-0.0479235 -0.0282936 0)
(-0.0486998 -0.0226523 -7.55609e-20)
(-0.0493318 -0.0161189 7.5045e-20)
(-0.0498485 -0.00874441 7.54427e-20)