/*--------------------------------*- C++ -*----------------------------------*\
  =========                 |
  \\      /  F ield         | OpenFOAM: The Open Source CFD Toolbox
   \\    /   O peration     | Website:  https://openfoam.org
    \\  /    A nd           | Version:  7
     \\/     M anipulation  |
\*---------------------------------------------------------------------------*/
FoamFile
{
    version     2.0;
    format      ascii;
    class       volVectorField;
    location    "96.9";
    object      U;
}
// * * * * * * * * * * * * * * * * * * * * * * * * * * * * * * * * * * * * * //

dimensions      [0 1 -1 0 0 0 0];

internalField   nonuniform List<vector> 
2000
(
(-6.58345e-05 -0.00468645 -1.65717e-22)
(7.65743e-05 -0.0110977 0)
(0.000504872 -0.0148539 0)
(0.00116778 -0.0163954 -8.51376e-22)
(0.00202377 -0.0160037 2.77295e-22)
(0.00305269 -0.0138654 1.15942e-23)
(0.00425345 -0.0101097 -4.7741e-22)
(0.00563303 -0.00484206 0)
(0.00720084 0.00183224 0)
(0.0088664 0.00979461 0)
(0.000386378 -0.00456464 0)
(0.00133616 -0.0111187 -6.49047e-22)
(0.00247766 -0.0150537 5.98552e-22)
(0.00364819 -0.0167909 1.13728e-21)
(0.00481788 -0.0166183 0)
(0.00597679 -0.0147376 1.04345e-21)
(0.00713599 -0.0112874 -9.7034e-22)
(0.00831895 -0.00636836 0)
(0.0095648 -6.10017e-05 1.79066e-21)
(0.010791 0.00755245 -3.44926e-21)
(0.000875544 -0.00451792 0)
(0.00275895 -0.011229 5.19203e-21)
(0.00476106 -0.0153025 0)
(0.00657916 -0.0171834 4.64935e-21)
(0.00819588 -0.0171756 0)
(0.009613 -0.0155022 -4.20199e-21)
(0.0108545 -0.0123171 0)
(0.0119597 -0.00772149 3.82403e-21)
(0.0129973 -0.0017755 -3.58144e-21)
(0.0138902 0.0054667 -3.52217e-21)
(0.00142886 -0.00456327 -1.34946e-21)
(0.00437895 -0.0114467 -2.59169e-21)
(0.00737298 -0.0156089 -1.21553e-21)
(0.0099575 -0.0175698 -2.28104e-21)
(0.0121329 -0.0176593 -2.18754e-21)
(0.0139181 -0.0161282 2.06522e-21)
(0.0153534 -0.01315 1.98687e-21)
(0.0164949 -0.00883184 -2.12627e-23)
(0.0174396 -0.00321767 3.61851e-21)
(0.0181156 0.00365638 3.52059e-21)
(0.0020764 -0.00470945 -1.32612e-21)
(0.006229 -0.0117756 -2.65208e-21)
(0.0103214 -0.0159689 -5.04437e-21)
(0.0137588 -0.0179403 2.31876e-21)
(0.01657 -0.0180558 0)
(0.0188 -0.016598 0)
(0.0205124 -0.0137632 -4.08901e-21)
(0.0217829 -0.00966743 -3.88408e-21)
(0.0227347 -0.00434105 3.67168e-21)
(0.0233027 0.00218824 1.06103e-20)
(0.00284803 -0.00495278 1.35238e-21)
(0.00833502 -0.0122 1.38233e-21)
(0.0135983 -0.0163632 -7.49795e-21)
(0.0179324 -0.0182773 1.1906e-20)
(0.0214101 -0.0183537 -2.21866e-21)
(0.0241148 -0.0169095 0)
(0.0261432 -0.0141645 0)
(0.0275965 -0.0102438 1.93573e-20)
(0.0286222 -0.00516358 -1.83323e-20)
(0.0291614 0.00105253 3.48253e-21)
(0.00376928 -0.00527592 1.05603e-20)
(0.0107099 -0.0126851 0)
(0.0171741 -0.0167572 1.00133e-20)
(0.0223982 -0.0185556 -9.50441e-21)
(0.0265183 -0.0185437 0)
(0.0296716 -0.0170747 4.32996e-21)
(0.0319989 -0.0143908 -1.21509e-20)
(0.033636 -0.0106246 -1.54752e-20)
(0.0347546 -0.00577371 7.26638e-21)
(0.035298 0.000150902 7.06332e-21)
(0.0048572 -0.00564857 -2.1147e-20)
(0.0133476 -0.0131788 -2.70167e-21)
(0.020994 -0.0171039 -5.10193e-21)
(0.0270465 -0.0187441 -1.19832e-20)
(0.0317277 -0.0186186 -4.58536e-21)
(0.0352437 -0.0171157 -4.3379e-21)
(0.0377926 -0.0145 2.30546e-23)
(0.0395556 -0.0109111 0)
(0.0407349 -0.00632128 0)
(0.0412688 -0.000700517 4.03741e-23)
(0.00611663 -0.00602986 1.05869e-20)
(0.0162181 -0.0136161 -1.08074e-20)
(0.0249756 -0.0173485 7.57527e-21)
(0.0317414 -0.01881 1.68784e-20)
(0.0368485 -0.0185742 -4.5053e-21)
(0.0405882 -0.017061 4.32122e-21)
(0.0432254 -0.0145562 4.08425e-21)
(0.0449975 -0.011212 0)
(0.0461539 -0.00697752 0)
(0.0466399 -0.00174719 -1.63906e-22)
(0.00753779 -0.00637252 -1.33897e-21)
(0.0192646 -0.0139263 1.35638e-20)
(0.0290099 -0.0174355 -2.54018e-21)
(0.0363265 -0.0187247 0)
(0.0416835 -0.018413 0)
(0.0454711 -0.016942 8.58779e-21)
(0.0480264 -0.0146141 0)
(0.0496436 -0.0116025 -7.5635e-21)
(0.0506312 -0.00786536 5.80351e-24)
(0.050994 -0.00324095 6.78203e-21)
(0.0121086 0.0301127 1.31033e-22)
(0.0215593 0.0779859 -1.3249e-22)
(0.0299619 0.131153 -1.47954e-22)
(0.0322866 0.181393 -1.66396e-22)
(0.0292271 0.230281 -2.02841e-22)
(0.0259586 0.281692 -7.80302e-24)
(0.0158211 0.342105 1.05741e-22)
(0.0133042 0.429611 3.82808e-22)
(-0.00421712 0.565035 0)
(0.00374709 0.725745 -2.79326e-22)
(0.0125246 0.0271756 5.08903e-22)
(0.0195227 0.0738883 -5.68857e-22)
(0.0277733 0.128424 1.01401e-21)
(0.0304817 0.180422 1.66667e-22)
(0.0278286 0.230547 3.59762e-22)
(0.0248504 0.282772 6.19473e-22)
(0.015173 0.343684 -2.29902e-22)
(0.0127197 0.431494 -2.57212e-22)
(-0.0040475 0.566202 4.92307e-22)
(0.00336244 0.725269 2.78666e-22)
(0.0142415 0.0242519 0)
(0.0182183 0.0692078 -5.5765e-22)
(0.02594 0.124703 -2.93444e-22)
(0.0289208 0.178494 0)
(0.0266233 0.229974 -1.10947e-21)
(0.023917 0.283091 3.47169e-22)
(0.0146471 0.344505 3.86647e-22)
(0.0122147 0.432528 1.38654e-21)
(-0.00385379 0.566886 -4.90712e-22)
(0.00302392 0.724624 1.00598e-21)
(0.0172786 0.0214964 0)
(0.017778 0.064158 5.62316e-22)
(0.0244908 0.120055 0)
(0.0275964 0.175603 1.30261e-21)
(0.0255978 0.228554 -1.30938e-21)
(0.0231432 0.282652 -7.88482e-22)
(0.0142283 0.344562 -4.43264e-23)
(0.0117992 0.432729 -1.36277e-21)
(-0.00363923 0.566922 -2.21045e-22)
(0.00270978 0.723644 -1.236e-21)
(0.0215193 0.0190228 3.16866e-23)
(0.0183238 0.0589771 -1.61141e-21)
(0.0234699 0.114593 4.15574e-23)
(0.0265038 0.171762 -1.18516e-21)
(0.024738 0.226285 0)
(0.0225129 0.28147 -7.5517e-22)
(0.0139032 0.343909 -6.36545e-23)
(0.0114608 0.432255 1.707e-21)
(-0.00342156 0.566585 2.2376e-22)
(0.00242095 0.722608 -2.24584e-22)
(0.0266822 0.0168803 -4.35819e-21)
(0.0199122 0.0538977 2.76257e-21)
(0.0229345 0.108477 1.16741e-21)
(0.0256427 0.16701 -1.16685e-21)
(0.0240314 0.223172 -6.25152e-22)
(0.0220151 0.279542 0)
(0.0136709 0.34251 -1.51163e-21)
(0.0112074 0.430924 7.63261e-22)
(-0.00319758 0.56538 8.22201e-22)
(0.00213516 0.721133 8.61606e-22)
(0.032323 0.0150524 -5.24154e-22)
(0.0224663 0.0491218 0)
(0.0229377 0.101918 0)
(0.0250183 0.161417 0)
(0.023464 0.219241 -6.6563e-22)
(0.0216313 0.276954 1.28882e-21)
(0.0135098 0.340583 1.47483e-21)
(0.0109996 0.429269 -2.30637e-21)
(-0.00299571 0.564268 4.04837e-22)
(0.00187739 0.719887 -1.2543e-21)
(0.037867 0.0134416 3.28377e-21)
(0.0257181 0.0447022 2.26609e-21)
(0.0234874 0.0951083 -2.2453e-21)
(0.024634 0.155104 2.35578e-21)
(0.0230311 0.214475 -2.92256e-21)
(0.0213615 0.273517 0)
(0.0134415 0.337678 -6.65142e-22)
(0.0108893 0.426273 3.25733e-23)
(-0.00277923 0.561598 -7.2818e-22)
(0.00160141 0.717867 -7.79077e-22)
(0.0426287 0.0117004 -2.78867e-21)
(0.0291891 0.0402663 0)
(0.0245096 0.0878416 -2.52695e-21)
(0.0244731 0.148021 4.52678e-21)
(0.0226948 0.209182 -1.68136e-21)
(0.0211647 0.270018 -3.05257e-22)
(0.0133973 0.335176 6.63691e-22)
(0.0107456 0.424354 1.02387e-23)
(-0.00263786 0.560491 1.05426e-21)
(0.00137108 0.716692 1.1297e-21)
(0.0457858 0.00972894 -2.27284e-21)
(0.0322586 0.0358629 2.22369e-21)
(0.0258494 0.0800283 2.82916e-22)
(0.0246252 0.139175 0)
(0.0224928 0.201287 0)
(0.0210909 0.263598 3.02025e-22)
(0.013532 0.329339 1.26757e-21)
(0.0108459 0.418286 -1.23125e-21)
(-0.00239819 0.555358 -3.32042e-22)
(0.00108557 0.713885 3.20904e-22)
(0.0474363 0.0104437 0)
(0.0364572 0.034429 0)
(0.0281998 0.0745901 0)
(0.0255232 0.133578 0)
(0.0227941 0.198364 0)
(0.0206377 0.263464 0)
(0.0131337 0.331045 0)
(0.00999478 0.421303 0)
(-0.00250389 0.557424 0)
(0.000616246 0.712558 0)
(0.0490983 0.0231138 0)
(0.0399544 0.0506256 0)
(0.0300828 0.0868045 0)
(0.0252068 0.139861 0)
(0.0221079 0.202515 0)
(0.0196569 0.267989 0)
(0.0126432 0.337153 0)
(0.00909035 0.428585 0)
(-0.00223483 0.562729 0)
(0.000252666 0.711479 0)
(0.0464651 0.0260099 0)
(0.0409181 0.0578389 0)
(0.0319879 0.0947923 0)
(0.0255813 0.145726 0)
(0.0215542 0.207342 0)
(0.0186302 0.272924 0)
(0.0120366 0.342893 0)
(0.00823051 0.434551 0)
(-0.00206778 0.566749 0)
(-4.47707e-05 0.710281 0)
(0.0420568 0.0275857 0)
(0.0392763 0.0632331 0)
(0.032425 0.101397 0)
(0.0259114 0.151005 0)
(0.0212425 0.211981 0)
(0.0178297 0.278323 0)
(0.0115466 0.349884 0)
(0.00760093 0.442377 0)
(-0.0017079 0.572346 0)
(-0.0001853 0.709553 0)
(0.037176 0.0275694 0)
(0.0362866 0.0670171 0)
(0.031452 0.107168 0)
(0.025666 0.156053 0)
(0.0209104 0.215979 0)
(0.0172192 0.282282 0)
(0.0111509 0.354517 0)
(0.00702267 0.447161 0)
(-0.00158399 0.575457 0)
(-0.000373334 0.708454 0)
(0.0320324 0.0261941 0)
(0.0326541 0.0690894 0)
(0.0295166 0.111768 0)
(0.0246781 0.160993 0)
(0.0202194 0.220629 0)
(0.0165706 0.287542 0)
(0.0108737 0.361265 0)
(0.00669928 0.454751 0)
(-0.00117008 0.580759 0)
(-0.000400151 0.707693 0)
(0.0268176 0.0236644 0)
(0.0288103 0.0696881 0)
(0.0272892 0.115137 0)
(0.023527 0.165108 0)
(0.0194565 0.224189 0)
(0.01588 0.290728 0)
(0.0104895 0.364647 0)
(0.00629314 0.458031 0)
(-0.00109192 0.582753 0)
(-0.000512419 0.706681 0)
(0.0215129 0.019853 0)
(0.024778 0.0685809 0)
(0.0245647 0.116884 0)
(0.0219283 0.168728 0)
(0.0185348 0.2288 0)
(0.0152437 0.296442 0)
(0.0102695 0.371909 0)
(0.00611847 0.466052 0)
(-0.000628836 0.588214 0)
(-0.000457433 0.705979 0)
(0.0168807 0.0164747 0)
(0.0217923 0.0675967 0)
(0.0228621 0.118374 0)
(0.0209767 0.171127 0)
(0.017891 0.230955 0)
(0.0146916 0.29827 0)
(0.00992909 0.373788 0)
(0.0058311 0.467741 0)
(-0.000620259 0.589205 0)
(-0.000523555 0.705338 0)
(0.0113649 0.00623504 0)
(0.0166864 0.0604406 0)
(0.0199121 0.116241 0)
(0.0197784 0.173342 0)
(0.0175728 0.235763 0)
(0.0145981 0.304906 0)
(0.010073 0.382178 0)
(0.00587686 0.476887 0)
(-3.7252e-05 0.595292 0)
(-0.000399571 0.704768 0)
(0.0530229 0.00119999 2.01191e-21)
(0.0518695 0.00641671 -1.97668e-21)
(0.0470518 0.00657626 1.74248e-22)
(0.041594 0.0055962 0)
(0.0359039 0.00344131 0)
(0.0300407 0.000406569 5.63623e-23)
(0.0241854 -0.0033648 -8.07663e-23)
(0.0183588 -0.00805648 7.93596e-23)
(0.0129391 -0.0122203 -8.04222e-24)
(0.00690455 -0.021135 7.899e-24)
(0.0539645 -0.00260572 -2.6461e-21)
(0.0512135 -0.000559266 0)
(0.0457391 -0.00177046 9.89474e-22)
(0.0400916 -0.00380262 -1.97998e-21)
(0.0343395 -0.00674316 9.95897e-22)
(0.0284635 -0.010332 -5.50621e-23)
(0.0225985 -0.0144914 5.6471e-23)
(0.016812 -0.0194157 2.92707e-23)
(0.0112589 -0.0238166 -1.47637e-23)
(0.00561463 -0.0319117 -1.77741e-23)
(0.0541598 -0.00640672 2.98978e-21)
(0.0501228 -0.00716224 -1.40883e-21)
(0.0442834 -0.0097777 1.39531e-21)
(0.0385235 -0.0129119 -7.9669e-22)
(0.032733 -0.016664 6.22697e-22)
(0.0268457 -0.0208065 0)
(0.0209828 -0.0253168 -5.66001e-23)
(0.0152534 -0.0303648 1.1033e-24)
(0.00967604 -0.0348339 -1.78376e-24)
(0.00450234 -0.0418804 2.46271e-23)
(0.0536961 -0.0106926 -4.56546e-22)
(0.0486279 -0.0138412 0)
(0.0426527 -0.0176983 0)
(0.0368605 -0.0218294 0)
(0.0310825 -0.0263019 4.19396e-22)
(0.0252146 -0.0309149 -2.60068e-22)
(0.019385 -0.035686 1.82021e-23)
(0.0137316 -0.0407314 -4.65462e-24)
(0.00824149 -0.0450924 3.1079e-24)
(0.00352872 -0.0510215 1.1162e-23)
(0.0525393 -0.015576 -3.03496e-22)
(0.0466732 -0.0207038 -1.22698e-21)
(0.0407436 -0.0255993 -5.09234e-22)
(0.0349985 -0.0305525 5.08876e-22)
(0.0292952 -0.0356026 -1.57329e-22)
(0.0235123 -0.0405614 0)
(0.0177771 -0.0454725 -5.71977e-23)
(0.0122571 -0.0503876 3.86031e-23)
(0.00696568 -0.0544887 -1.56314e-23)
(0.00272328 -0.0593326 -1.44314e-23)
(0.0507698 -0.021013 -3.39093e-21)
(0.0443551 -0.0276925 5.5695e-22)
(0.0386085 -0.0334351 1.38252e-22)
(0.0329755 -0.0390144 5.01485e-22)
(0.0274062 -0.0444843 0)
(0.0217649 -0.0496496 0)
(0.0161837 -0.0545744 0)
(0.0108591 -0.0592469 3.02668e-23)
(0.00585391 -0.0629793 0)
(0.00208093 -0.0668312 0)
(0.0484335 -0.0269198 0)
(0.0417731 -0.0346818 9.79609e-22)
(0.036314 -0.0411094 -6.32486e-22)
(0.0308508 -0.0471202 -3.73737e-22)
(0.0254666 -0.0528577 3.75658e-22)
(0.0200167 -0.0580949 8.57137e-23)
(0.0146417 -0.0629187 -1.04835e-22)
(0.00956655 -0.0672638 -1.25613e-22)
(0.00490492 -0.0705668 1.03083e-23)
(0.00157918 -0.073554 3.29131e-24)
(0.0456223 -0.0330881 0)
(0.0390095 -0.0415442 -3.47383e-22)
(0.0339168 -0.0485132 -1.41872e-22)
(0.0286753 -0.0547753 0)
(0.0235201 -0.060645 5.38844e-23)
(0.0183065 -0.0658368 -1.93443e-22)
(0.0131815 -0.0704672 9.40978e-23)
(0.00839796 -0.0744329 8.09578e-24)
(0.00410935 -0.0772894 -9.3377e-24)
(0.00119374 -0.0795523 -2.12045e-24)
(0.04246 -0.0393634 4.57004e-22)
(0.0361369 -0.0481643 3.1612e-22)
(0.0314676 -0.0555488 -1.05602e-22)
(0.0264958 -0.0619039 5.61729e-23)
(0.0216056 -0.0677927 8.16411e-23)
(0.0166665 -0.0728459 8.65638e-23)
(0.0118247 -0.0772179 -1.94862e-23)
(0.00736106 -0.0807842 -1.12716e-23)
(0.00345173 -0.0832113 9.36825e-24)
(0.000901781 -0.0848882 9.73141e-25)
(0.039058 -0.0456225 -9.67493e-23)
(0.0332189 -0.054456 9.76428e-23)
(0.0290122 -0.0621447 -7.16825e-23)
(0.024355 -0.0684605 -5.6088e-23)
(0.0197563 -0.074278 3.65275e-23)
(0.015122 -0.0791266 -6.66322e-23)
(0.0105844 -0.0832022 2.74998e-23)
(0.00645469 -0.0863764 3.20353e-24)
(0.00291327 -0.0884137 0)
(0.000682523 -0.0896306 -9.75249e-25)
(0.0355353 -0.0517729 9.88756e-23)
(0.0303224 -0.0603699 -9.97579e-23)
(0.0265988 -0.0682622 -7.50458e-23)
(0.0222952 -0.0744342 -5.93202e-23)
(0.0180021 -0.0801107 -3.81429e-23)
(0.0136925 -0.0847145 5.5001e-24)
(0.00946749 -0.0884788 1.37839e-23)
(0.00567187 -0.0912882 2.27159e-23)
(0.00247477 -0.0929866 0)
(0.000518206 -0.0938525 -2.10675e-24)
(0.0320116 -0.0577619 0)
(0.0275184 -0.0658931 -3.36084e-22)
(0.0242744 -0.0738938 5.6851e-22)
(0.0203561 -0.0798467 5.94079e-23)
(0.0163681 -0.0853283 9.44531e-23)
(0.0123914 -0.0896707 1.0248e-22)
(0.00847502 -0.0931259 -2.24865e-23)
(0.00500212 -0.0956099 -1.39109e-23)
(0.00211846 -0.0970236 1.6566e-23)
(0.000394762 -0.0976285 2.10181e-24)
(0.0285828 -0.0635745 0)
(0.024865 -0.0710473 -3.85586e-22)
(0.022072 -0.079059 -1.55122e-22)
(0.0185638 -0.0847472 0)
(0.014869 -0.089991 -2.61887e-22)
(0.0112233 -0.0940739 9.89414e-23)
(0.00760232 -0.0972333 6.19458e-23)
(0.00443255 -0.099437 1.0688e-22)
(0.00182858 -0.100617 -1.65119e-23)
(0.000301315 -0.101033 1.18098e-23)
(0.0253164 -0.0692226 0)
(0.0224026 -0.0758867 3.88784e-22)
(0.0200097 -0.0837986 0)
(0.0169304 -0.0892068 4.60239e-22)
(0.0135092 -0.0941749 -4.62625e-22)
(0.0101842 -0.0980139 -1.2753e-22)
(0.00684023 -0.100896 2.58197e-23)
(0.00394912 -0.102865 -1.10293e-22)
(0.00159156 -0.103856 -2.0382e-23)
(0.000229459 -0.10414 -1.80427e-23)
(0.0222589 -0.0747325 3.94563e-21)
(0.0201629 -0.0804936 -1.48249e-21)
(0.0181004 -0.088169 -1.39391e-22)
(0.0154595 -0.0933108 -6.0972e-22)
(0.012289 -0.097966 0)
(0.00926627 -0.101585 -1.3466e-22)
(0.00617814 -0.10421 4.26017e-23)
(0.00353861 -0.105986 1.63417e-22)
(0.0013965 -0.106825 6.83718e-24)
(0.000173008 -0.10702 -6.83523e-24)
(0.0194342 -0.0801287 3.22345e-22)
(0.0181706 -0.0849744 2.30849e-21)
(0.0163572 -0.0922363 6.34769e-22)
(0.0141503 -0.0971511 -6.34374e-22)
(0.0112076 -0.101455 -2.24519e-22)
(0.00846098 -0.104881 0)
(0.00560627 -0.107267 -2.19325e-22)
(0.00318988 -0.108886 1.1753e-22)
(0.00123521 -0.109602 6.08986e-23)
(0.000127653 -0.109742 1.53256e-23)
(0.0168534 -0.0854144 -5.49762e-22)
(0.0164537 -0.0894535 0)
(0.0148046 -0.0960732 0)
(0.0130047 -0.10082 0)
(0.0102681 -0.104731 -1.79036e-22)
(0.00776255 -0.10799 4.03096e-22)
(0.00511773 -0.110153 2.24605e-22)
(0.00289485 -0.111646 -2.68049e-22)
(0.00110223 -0.112262 1.55926e-23)
(9.05287e-05 -0.112372 -3.062e-23)
(0.0145061 -0.0905522 -1.2498e-21)
(0.0150173 -0.0940645 1.71018e-21)
(0.0134617 -0.0997553 -1.69402e-21)
(0.0120129 -0.104401 1.10514e-21)
(0.00946773 -0.10788 -1.3412e-21)
(0.00716156 -0.110994 0)
(0.00470435 -0.112944 -1.33878e-22)
(0.0026459 -0.114337 -4.95627e-24)
(0.000993129 -0.114871 -5.06781e-23)
(5.94886e-05 -0.114974 -1.6928e-23)
(0.0122205 -0.0954239 -5.93961e-22)
(0.0136804 -0.0989356 0)
(0.0122448 -0.103363 -1.67404e-21)
(0.011087 -0.107972 2.61181e-21)
(0.00875095 -0.110984 -9.00028e-22)
(0.00661508 -0.113967 -9.77407e-23)
(0.00433834 -0.115714 1.33573e-22)
(0.00242568 -0.117026 1.69494e-23)
(0.000900273 -0.117493 1.03728e-22)
(3.39087e-05 -0.117608 3.3673e-23)
(0.010034 -0.0997267 -2.39157e-21)
(0.0123747 -0.104184 2.34e-21)
(0.0111672 -0.107004 2.1498e-22)
(0.0102234 -0.111615 0)
(0.00811038 -0.114128 0)
(0.00612156 -0.116986 1.00595e-22)
(0.00401716 -0.118532 2.46432e-22)
(0.0022346 -0.119777 -2.41867e-22)
(0.000825715 -0.120189 -1.84167e-23)
(2.35246e-05 -0.120333 1.8035e-23)
(0.00922666 -0.106887 0)
(0.0123836 -0.11674 0)
(0.0108346 -0.115599 0)
(0.00971501 -0.120415 0)
(0.00765578 -0.121838 0)
(0.00569079 -0.124495 0)
(0.00372746 -0.125599 0)
(0.00207131 -0.126707 0)
(0.000792986 -0.126973 0)
(5.21129e-05 -0.127152 0)
(0.0098858 -0.127971 0)
(0.00919272 -0.139197 0)
(0.00767872 -0.135085 0)
(0.00657903 -0.139963 0)
(0.00504424 -0.139645 0)
(0.00374265 -0.141982 0)
(0.00240785 -0.142201 0)
(0.00135792 -0.143101 0)
(0.000519614 -0.14304 0)
(5.13618e-05 -0.143243 0)
(0.010585 -0.154546 0)
(0.00868891 -0.166791 0)
(0.00704213 -0.160417 0)
(0.00563123 -0.16565 0)
(0.00424179 -0.163832 0)
(0.00305813 -0.166212 0)
(0.00196693 -0.165655 0)
(0.00112781 -0.166576 0)
(0.000461147 -0.166194 0)
(6.17216e-05 -0.166482 0)
(0.0110181 -0.187364 0)
(0.00827287 -0.20051 0)
(0.00662293 -0.192687 0)
(0.00493776 -0.198556 0)
(0.00372441 -0.195555 0)
(0.00257752 -0.198288 0)
(0.00169743 -0.197049 0)
(0.000971579 -0.198184 0)
(0.000433181 -0.197463 0)
(6.20463e-05 -0.197913 0)
(0.0110681 -0.226375 0)
(0.00790077 -0.239605 0)
(0.00631173 -0.231483 0)
(0.00442251 -0.237857 0)
(0.00337848 -0.234196 0)
(0.00221235 -0.237369 0)
(0.00151458 -0.235636 0)
(0.000828715 -0.237078 0)
(0.000405169 -0.236053 0)
(4.54964e-05 -0.236731 0)
(0.0104626 -0.269209 0)
(0.00728942 -0.281165 0)
(0.00583315 -0.274152 0)
(0.00390192 -0.280404 0)
(0.0030236 -0.276859 0)
(0.00186055 -0.280207 0)
(0.00131905 -0.278331 0)
(0.00064706 -0.279977 0)
(0.000338872 -0.278792 0)
(8.08636e-06 -0.279662 0)
(0.00907157 -0.31122 0)
(0.00625493 -0.320724 0)
(0.00500679 -0.315985 0)
(0.00324954 -0.321305 0)
(0.00253592 -0.318656 0)
(0.00146611 -0.321668 0)
(0.00105142 -0.32009 0)
(0.000423537 -0.321643 0)
(0.000226407 -0.320544 0)
(-3.59378e-05 -0.321436 0)
(0.00697546 -0.347027 0)
(0.00478292 -0.353679 0)
(0.00382138 -0.351626 0)
(0.00243344 -0.355513 0)
(0.00189718 -0.35418 0)
(0.00103454 -0.356427 0)
(0.000729819 -0.355456 0)
(0.000213102 -0.356614 0)
(0.000108307 -0.355818 0)
(-6.16131e-05 -0.356516 0)
(0.00437302 -0.372482 0)
(0.00298377 -0.376779 0)
(0.00238146 -0.376968 0)
(0.00149808 -0.379498 0)
(0.00116463 -0.37937 0)
(0.000604614 -0.380787 0)
(0.000413435 -0.38044 0)
(7.21707e-05 -0.381111 0)
(2.89553e-05 -0.380673 0)
(-5.59549e-05 -0.381073 0)
(0.00148975 -0.385518 0)
(0.00100862 -0.388536 0)
(0.000808351 -0.389959 0)
(0.000503532 -0.391694 0)
(0.000392412 -0.392257 0)
(0.000197115 -0.393157 0)
(0.000132031 -0.393191 0)
(1.15987e-05 -0.393544 0)
(1.44713e-06 -0.393344 0)
(-2.25324e-05 -0.393538 0)
(0.00962498 -0.115159 2.73907e-21)
(0.0112342 -0.137739 -2.68712e-21)
(0.0123926 -0.165617 3.44156e-22)
(0.0129659 -0.198923 0)
(0.0129363 -0.237193 0)
(0.0121083 -0.277874 4.01878e-22)
(0.0104338 -0.316735 -1.73181e-21)
(0.00801502 -0.349254 1.70652e-21)
(0.00503623 -0.372117 4.6393e-22)
(0.00171442 -0.383764 -4.56582e-22)
(0.00999884 -0.119633 -3.25021e-21)
(0.0119917 -0.142213 0)
(0.0132597 -0.170113 2.36138e-21)
(0.0138496 -0.203252 -5.45947e-21)
(0.0137589 -0.241 3.51186e-21)
(0.0128263 -0.280749 -3.74828e-22)
(0.0110306 -0.318417 8.37656e-22)
(0.00847466 -0.349763 1.77223e-21)
(0.00533195 -0.371731 4.9947e-22)
(0.00181195 -0.382901 4.84898e-22)
(0.0105743 -0.124225 3.77976e-21)
(0.0129968 -0.146856 -2.59003e-21)
(0.0143146 -0.174626 2.56544e-21)
(0.0148866 -0.207452 -2.891e-21)
(0.0147037 -0.24456 2.13647e-21)
(0.0136377 -0.283309 0)
(0.0116898 -0.319784 -8.39676e-22)
(0.00896624 -0.350011 4.2608e-23)
(0.00563747 -0.371158 -9.309e-22)
(0.00190758 -0.381901 -9.5094e-22)
(0.011401 -0.128372 -6.08642e-22)
(0.0142038 -0.151096 0)
(0.0155354 -0.178772 0)
(0.0160688 -0.211312 0)
(0.0157753 -0.247812 2.3872e-21)
(0.0145588 -0.285611 -1.59817e-21)
(0.0124343 -0.320953 -1.25483e-23)
(0.00951318 -0.350113 -9.93981e-22)
(0.00597111 -0.370469 -5.10672e-22)
(0.00200978 -0.380792 -5.47388e-22)
(0.0125429 -0.132173 5.33215e-23)
(0.0156074 -0.154832 -1.82612e-21)
(0.0169114 -0.182365 -1.39933e-21)
(0.0173847 -0.214621 1.39844e-21)
(0.0169656 -0.250561 -7.78232e-22)
(0.0155876 -0.287503 0)
(0.0132709 -0.321829 -9.22439e-22)
(0.0101291 -0.350026 2.02627e-21)
(0.00634733 -0.369658 -1.03745e-21)
(0.00212628 -0.379591 1.07049e-21)
(0.0140307 -0.135671 -4.82974e-21)
(0.0172271 -0.158105 5.19528e-22)
(0.0184596 -0.185393 -1.08668e-22)
(0.0188433 -0.217327 1.43489e-21)
(0.0182785 -0.252722 0)
(0.0167246 -0.28889 0)
(0.0141995 -0.322326 0)
(0.0108165 -0.349689 1.08608e-21)
(0.00677011 -0.368696 0)
(0.00226026 -0.378294 0)
(0.0158755 -0.138778 0)
(0.0190757 -0.160886 1.99113e-21)
(0.0202005 -0.18785 -1.34737e-21)
(0.0204608 -0.21943 -1.62077e-21)
(0.0197274 -0.254296 1.6292e-21)
(0.0179778 -0.289761 9.84318e-22)
(0.0152233 -0.322422 -9.74996e-22)
(0.0115756 -0.349078 -3.87963e-21)
(0.00723889 -0.367565 2.76134e-22)
(0.00241236 -0.376889 -9.48561e-22)
(0.0180876 -0.141396 0)
(0.0211592 -0.163107 -6.45275e-22)
(0.0221471 -0.189698 -3.65785e-22)
(0.0222499 -0.220917 0)
(0.0213257 -0.255285 4.78909e-22)
(0.0193579 -0.290128 -1.4417e-21)
(0.0163493 -0.322126 1.61785e-21)
(0.0124095 -0.348194 5.79361e-22)
(0.00775403 -0.366258 -6.34631e-22)
(0.00258308 -0.375366 1.25821e-21)
(0.0206784 -0.143449 5.72462e-22)
(0.023483 -0.164718 6.99983e-22)
(0.0243086 -0.190896 -1.53051e-22)
(0.0242185 -0.221767 2.10896e-22)
(0.0230827 -0.255686 4.5247e-22)
(0.0208741 -0.289999 7.65438e-22)
(0.0175849 -0.321449 -2.89494e-22)
(0.0133233 -0.347044 -3.13817e-22)
(0.00831786 -0.364775 6.3672e-22)
(0.00277352 -0.373722 3.45531e-22)
(0.0236576 -0.144877 -1.59987e-22)
(0.0260526 -0.165694 1.61536e-22)
(0.0266931 -0.191417 -1.87998e-22)
(0.0263727 -0.221964 -2.10615e-22)
(0.025006 -0.255489 2.5343e-22)
(0.0225334 -0.289371 -5.1839e-22)
(0.0189369 -0.320392 4.4327e-22)
(0.0143226 -0.34563 1.59113e-22)
(0.00893377 -0.363116 0)
(0.00298505 -0.371953 -3.46307e-22)
(0.0270322 -0.145639 1.63453e-22)
(0.0288709 -0.166029 -1.65081e-22)
(0.0293078 -0.191256 -2.01352e-22)
(0.0287177 -0.22151 -2.27497e-22)
(0.0271019 -0.254697 -2.64563e-22)
(0.0243416 -0.288249 -1.97521e-23)
(0.0204107 -0.31896 1.56056e-22)
(0.0154122 -0.343953 5.05887e-22)
(0.00960487 -0.361278 0)
(0.00321868 -0.370054 -3.78422e-22)
(0.030807 -0.145722 0)
(0.0319385 -0.16572 -7.65944e-22)
(0.0321572 -0.190418 1.39162e-21)
(0.0312567 -0.22041 2.27874e-22)
(0.0293764 -0.253314 5.34776e-22)
(0.0263047 -0.286635 8.85529e-22)
(0.0220131 -0.317149 -3.16666e-22)
(0.016598 -0.342012 -3.43397e-22)
(0.0103346 -0.359259 7.61722e-22)
(0.00347528 -0.368022 3.77544e-22)
(0.0349842 -0.145157 0)
(0.0352556 -0.164762 -7.48734e-22)
(0.0352407 -0.188942 -4.19435e-22)
(0.0339923 -0.218687 0)
(0.0318335 -0.251366 -1.69e-21)
(0.0284267 -0.284549 5.6327e-22)
(0.0237464 -0.314979 6.798e-22)
(0.017882 -0.339804 2.20431e-21)
(0.0111251 -0.357053 -7.59247e-22)
(0.00375476 -0.365846 1.64142e-21)
(0.0395564 -0.144076 0)
(0.0388241 -0.163119 7.55086e-22)
(0.0385503 -0.186871 0)
(0.0369279 -0.21635 2.14191e-21)
(0.0344761 -0.248866 -2.15291e-21)
(0.0307131 -0.281991 -1.33949e-21)
(0.025622 -0.312443 -3.35299e-23)
(0.0192744 -0.337322 -2.27021e-21)
(0.0119796 -0.354654 -3.78409e-22)
(0.00405816 -0.363518 -2.0417e-21)
(0.0444843 -0.142473 5.35689e-21)
(0.0426707 -0.160827 -2.05735e-21)
(0.0420627 -0.184231 2.5198e-22)
(0.0400674 -0.213425 -1.9741e-21)
(0.0373035 -0.245832 0)
(0.0331669 -0.278981 -1.39768e-21)
(0.0276404 -0.309555 -1.24292e-22)
(0.0207756 -0.334594 3.08362e-21)
(0.0128999 -0.352076 4.24223e-22)
(0.004385 -0.361043 -4.25878e-22)
(0.0497278 -0.140307 -6.12317e-22)
(0.0467831 -0.158021 3.88216e-21)
(0.0457706 -0.181069 2.05292e-21)
(0.0434074 -0.209971 -2.05155e-21)
(0.0403147 -0.242301 -1.26068e-21)
(0.0357912 -0.275534 0)
(0.0298057 -0.306313 -3.14657e-21)
(0.022392 -0.331609 1.57829e-21)
(0.0138933 -0.349309 1.69164e-21)
(0.00473675 -0.358413 1.82043e-21)
(0.0552158 -0.137694 -7.3414e-22)
(0.0511512 -0.154729 0)
(0.0496619 -0.17744 0)
(0.04694 -0.206047 0)
(0.0435068 -0.238336 -1.46977e-21)
(0.0385829 -0.271724 2.7257e-21)
(0.0321111 -0.302794 3.20657e-21)
(0.0241137 -0.328417 -5.06179e-21)
(0.0149513 -0.346381 9.08861e-22)
(0.00510826 -0.35564 -2.7038e-21)
(0.0608448 -0.134778 -1.05629e-21)
(0.0557671 -0.150985 3.87235e-21)
(0.0537152 -0.173385 -3.83547e-21)
(0.0506539 -0.20165 5.07211e-21)
(0.04688 -0.233871 -6.38749e-21)
(0.0415574 -0.267422 0)
(0.0345879 -0.298845 -1.67691e-21)
(0.0259798 -0.324895 -7.08469e-23)
(0.016106 -0.343219 -1.89067e-21)
(0.0055109 -0.352673 -1.92866e-21)
(0.0664837 -0.131725 -7.77084e-22)
(0.0606396 -0.146928 0)
(0.0579073 -0.169112 -5.192e-21)
(0.0545095 -0.197125 9.86697e-21)
(0.0503794 -0.229398 -3.83775e-21)
(0.0446338 -0.263209 -7.8896e-22)
(0.0371296 -0.295006 1.67324e-21)
(0.0278781 -0.321422 -8.78538e-23)
(0.0172732 -0.34002 2.75765e-21)
(0.00590933 -0.349617 2.85419e-21)
(0.0723009 -0.127461 -3.5424e-21)
(0.0663302 -0.141476 3.47353e-21)
(0.0626442 -0.16327 5.52101e-22)
(0.0588279 -0.190862 0)
(0.0543173 -0.223091 0)
(0.048162 -0.257274 7.81238e-22)
(0.0401193 -0.289793 3.61548e-21)
(0.0301665 -0.317041 -3.5402e-21)
(0.0187057 -0.336304 -9.73917e-22)
(0.00639917 -0.346197 9.57748e-22)
(0.0822807 -0.127131 0)
(0.0792955 -0.139079 0)
(0.0730163 -0.161214 0)
(0.067994 -0.188357 0)
(0.0622634 -0.219838 0)
(0.0548231 -0.25292 0)
(0.045416 -0.284193 0)
(0.0340232 -0.31033 0)
(0.0210528 -0.32892 0)
(0.00712588 -0.338668 0)
(0.0992322 -0.116906 0)
(0.100889 -0.132818 0)
(0.0913689 -0.156957 0)
(0.0851997 -0.183558 0)
(0.0772533 -0.213784 0)
(0.0674548 -0.244851 0)
(0.0554994 -0.273814 0)
(0.0413783 -0.297673 0)
(0.0255539 -0.314167 0)
(0.00877551 -0.322173 0)
(0.120015 -0.106998 0)
(0.123805 -0.124991 0)
(0.111263 -0.149277 0)
(0.104275 -0.174551 0)
(0.0935743 -0.203007 0)
(0.0810101 -0.231547 0)
(0.0660327 -0.258088 0)
(0.04884 -0.280229 0)
(0.0299587 -0.296241 0)
(0.00995671 -0.30513 0)
(0.145707 -0.0998162 0)
(0.149968 -0.118224 0)
(0.134109 -0.14146 0)
(0.126242 -0.165335 0)
(0.112142 -0.192077 0)
(0.096595 -0.218118 0)
(0.0781708 -0.24226 0)
(0.0574886 -0.262031 0)
(0.0351841 -0.275465 0)
(0.0121885 -0.28123 0)
(0.175685 -0.0911558 0)
(0.178355 -0.108024 0)
(0.158897 -0.128889 0)
(0.149402 -0.150274 0)
(0.13074 -0.173908 0)
(0.111589 -0.196407 0)
(0.0889678 -0.217772 0)
(0.0645497 -0.235929 0)
(0.038925 -0.250012 0)
(0.0123313 -0.259622 0)
(0.209355 -0.0840073 0)
(0.209771 -0.0987484 0)
(0.186804 -0.117846 0)
(0.175265 -0.136829 0)
(0.15148 -0.157719 0)
(0.12909 -0.177558 0)
(0.10213 -0.197073 0)
(0.0737924 -0.213311 0)
(0.0445083 -0.22448 0)
(0.0163411 -0.226687 0)
(0.244725 -0.0700069 0)
(0.23928 -0.0813912 0)
(0.213504 -0.0969271 0)
(0.197928 -0.111348 0)
(0.168268 -0.127632 0)
(0.141798 -0.143088 0)
(0.108613 -0.158802 0)
(0.0756522 -0.172938 0)
(0.0429211 -0.187394 0)
(0.00985534 -0.205617 0)
(0.278125 -0.0616917 0)
(0.269327 -0.0691883 0)
(0.242388 -0.082244 0)
(0.223136 -0.0932404 0)
(0.190797 -0.107766 0)
(0.161732 -0.121599 0)
(0.125053 -0.137471 0)
(0.0889243 -0.152698 0)
(0.051866 -0.167661 0)
(0.0272933 -0.162348 0)
(0.316797 -0.0347732 0)
(0.305344 -0.0380355 0)
(0.264241 -0.0458901 0)
(0.238994 -0.051169 0)
(0.193888 -0.0596928 0)
(0.155974 -0.0665957 0)
(0.105329 -0.0751249 0)
(0.0555892 -0.0837086 0)
(0.0104815 -0.102002 0)
(-0.0438489 -0.153905 0)
(0.597745 -0.0183716 0)
(0.578869 -0.0213134 0)
(0.540428 -0.025519 0)
(0.510701 -0.0296959 0)
(0.463668 -0.0357041 0)
(0.420589 -0.0426879 0)
(0.360207 -0.0530592 0)
(0.293934 -0.0689292 0)
(0.207002 -0.098579 0)
(0.1496 -0.157437 0)
(0.0977241 -0.11433 3.60629e-21)
(0.116698 -0.104056 -3.55083e-21)
(0.137832 -0.0944629 6.01468e-22)
(0.162966 -0.0874608 0)
(0.193043 -0.0793491 0)
(0.22549 -0.0729941 9.53723e-22)
(0.26062 -0.0606092 -4.58774e-21)
(0.292609 -0.0541556 4.52081e-21)
(0.34307 -0.0303148 1.29614e-21)
(0.618371 -0.0161236 -1.31825e-21)
(0.103187 -0.108717 -3.29348e-21)
(0.122093 -0.0984571 0)
(0.14299 -0.0892436 4.35942e-21)
(0.167815 -0.0824445 -1.06124e-20)
(0.19786 -0.0746407 7.20917e-21)
(0.230298 -0.0686693 -8.9718e-22)
(0.265452 -0.0568847 1.94712e-21)
(0.297809 -0.0511773 4.44602e-21)
(0.352782 -0.0285844 1.19624e-21)
(0.62652 -0.0151708 1.23358e-21)
(0.10791 -0.10257 3.78517e-21)
(0.126742 -0.0925992 -3.99346e-21)
(0.14727 -0.083931 3.95562e-21)
(0.171927 -0.0773967 -5.65817e-21)
(0.201721 -0.0699878 4.09136e-21)
(0.234281 -0.0644759 0)
(0.269319 -0.0533437 -1.95178e-21)
(0.302598 -0.048361 -5.24716e-23)
(0.361403 -0.0270044 -2.26621e-21)
(0.634319 -0.01426 -2.4401e-21)
(0.112392 -0.0960233 -6.49549e-22)
(0.131488 -0.0865851 0)
(0.151734 -0.0785666 0)
(0.176295 -0.0723393 0)
(0.205823 -0.0653802 4.67515e-21)
(0.238453 -0.0603801 -3.19286e-21)
(0.273159 -0.0499632 -1.42281e-22)
(0.307473 -0.0456431 -2.26004e-21)
(0.36944 -0.0255674 -1.14743e-21)
(0.641918 -0.0134334 -1.18762e-21)
(0.11636 -0.0891722 7.1485e-22)
(0.135896 -0.0804985 -2.07972e-21)
(0.155979 -0.0731896 -2.27273e-21)
(0.18046 -0.0673199 2.27131e-21)
(0.209834 -0.0608555 -1.46109e-21)
(0.242552 -0.056365 0)
(0.276905 -0.0467294 -1.88702e-21)
(0.31227 -0.0430087 4.25896e-21)
(0.377023 -0.0242459 -2.13677e-21)
(0.649218 -0.0127046 2.35759e-21)
(0.119672 -0.0820464 -4.87544e-21)
(0.139712 -0.0743636 1.8212e-22)
(0.159706 -0.0678081 -3.93479e-22)
(0.184091 -0.0623583 2.21337e-21)
(0.213362 -0.056433 0)
(0.246176 -0.0524509 0)
(0.280365 -0.0436364 0)
(0.316663 -0.0404661 2.01986e-21)
(0.384087 -0.0230283 0)
(0.656101 -0.0120656 0)
(0.122252 -0.0746768 0)
(0.142891 -0.0681811 2.53021e-21)
(0.162869 -0.0624147 -1.76373e-21)
(0.187143 -0.0574487 -2.55586e-21)
(0.216312 -0.0521027 2.56913e-21)
(0.249205 -0.0486486 1.69306e-21)
(0.283396 -0.0406731 -1.58544e-21)
(0.32052 -0.038026 -6.93548e-21)
(0.390492 -0.0219112 4.8934e-22)
(0.662487 -0.0115008 -1.6575e-21)