/*--------------------------------*- C++ -*----------------------------------*\
  =========                 |
  \\      /  F ield         | OpenFOAM: The Open Source CFD Toolbox
   \\    /   O peration     | Website:  https://openfoam.org
    \\  /    A nd           | Version:  7
     \\/     M anipulation  |
\*---------------------------------------------------------------------------*/
FoamFile
{
    version     2.0;
    format      ascii;
    class       volScalarField;
    location    "21.7";
    object      p;
}
// * * * * * * * * * * * * * * * * * * * * * * * * * * * * * * * * * * * * * //

dimensions      [0 2 -2 0 0 0 0];

internalField   nonuniform List<scalar> 
2000
(
-0.0134881
-0.0095147
-0.00689732
-0.00386588
-0.000507144
0.00306364
0.00676416
0.0105125
0.0142538
0.0179775
-0.012249
-0.00864667
-0.00632558
-0.0037168
-0.000858513
0.002206
0.00544199
0.00879202
0.0121992
0.0156561
-0.0109897
-0.00780371
-0.0057469
-0.00350367
-0.0011023
0.00145885
0.00418947
0.00707096
0.0100659
0.0131827
-0.00975041
-0.00700827
-0.00519119
-0.00325676
-0.00124961
0.000844502
0.00306098
0.00541885
0.00791497
0.0105887
-0.00856979
-0.00627879
-0.00468073
-0.00300289
-0.001318
0.000374405
0.00210876
0.0039224
0.00584547
0.00792901
-0.00747855
-0.00562494
-0.00422674
-0.0027611
-0.00132857
4.41568e-05
0.00136776
0.00266699
0.00398974
0.0052867
-0.00650173
-0.00505062
-0.00383245
-0.00254308
-0.00130374
-0.000168099
0.00084096
0.00171074
0.00248277
0.00277361
-0.00566133
-0.00455981
-0.00349887
-0.00235662
-0.00126587
-0.000298543
0.000493504
0.00106263
0.00140751
0.000552375
-0.00497332
-0.00416364
-0.00322924
-0.00220919
-0.00123609
-0.000390041
0.000262733
0.000669536
0.000723409
-0.00131083
-0.00446741
-0.00386439
-0.00302864
-0.0021096
-0.00123237
-0.000477015
9.65402e-05
0.000465682
0.000409536
-0.00224924
0.0257995
0.0371362
0.0462871
0.0530283
0.0578081
0.0611808
0.062643
0.0639715
0.0634767
0.0648473
0.0230303
0.0345086
0.0436396
0.0502034
0.0548912
0.0581613
0.0594848
0.0606807
0.0602585
0.0615105
0.0199657
0.0318199
0.0409541
0.047373
0.0520342
0.0552316
0.0564337
0.0575122
0.0570988
0.0583114
0.0166513
0.0291132
0.0382137
0.0445486
0.0492556
0.0523982
0.0535001
0.0544578
0.0540347
0.0552664
0.0132206
0.0264764
0.035429
0.0417637
0.0465713
0.0496697
0.0506913
0.0515208
0.0510983
0.0523743
0.00987748
0.0238848
0.0325436
0.0390277
0.0439828
0.0470557
0.0480158
0.0487005
0.0482899
0.0496309
0.00699626
0.021405
0.0296302
0.0364004
0.0414958
0.0445599
0.0454792
0.0460097
0.0456342
0.047035
0.00477238
0.0186901
0.0265879
0.0338369
0.0390916
0.0421949
0.0430923
0.043433
0.0430951
0.0445923
0.00368206
0.0160479
0.0237323
0.0314009
0.0367683
0.0399454
0.0408544
0.0410155
0.0407402
0.0422984
0.00211794
0.0125032
0.020655
0.0288424
0.0344908
0.0378545
0.0387913
0.0386901
0.0384571
0.0401424
0.0065978
0.00835511
0.0152457
0.0231785
0.0290945
0.032759
0.0340587
0.0338567
0.0337948
0.0352238
0.00138476
0.00222943
0.00921286
0.0166484
0.0224197
0.0262164
0.0278651
0.0274972
0.0274457
0.0287879
-0.00323473
-0.00125859
0.00580083
0.0124416
0.0175242
0.0210571
0.0227906
0.0228878
0.022882
0.0247165
-0.00553969
-0.00280199
0.00366939
0.00941159
0.0139319
0.0172716
0.0192634
0.0200651
0.0206213
0.0231916
-0.00544536
-0.00235136
0.00293165
0.00729813
0.0112173
0.0143065
0.016486
0.0179862
0.019343
0.0222738
-0.00439744
-0.00112474
0.00249221
0.00587956
0.00914316
0.0118428
0.014018
0.0158485
0.0174792
0.0199198
-0.00160941
0.000861425
0.00245518
0.00471813
0.00715112
0.00933895
0.0112606
0.0130111
0.0144996
0.0162149
0.000755615
0.00250044
0.00289222
0.00411092
0.00547556
0.00683411
0.0081695
0.00948538
0.0105669
0.0116222
0.00247711
0.00265053
0.00236927
0.00286802
0.00356983
0.00431331
0.00507016
0.00582428
0.00640491
0.0069396
0.00223568
0.00239866
0.00177071
0.00124123
0.00125207
0.00149836
0.00177704
0.00203327
0.00215624
0.00225506
0.000475961
-0.000238273
-0.00330307
-0.00531504
-0.00510748
-0.00366997
-0.00110894
0.000818041
0.00288251
0.00173221
0.000293924
-0.000646166
-0.00371034
-0.00572724
-0.00560138
-0.00422586
-0.0015922
0.000494819
0.00266912
0.00140622
0.000409682
-0.00126421
-0.00449329
-0.0065292
-0.00638741
-0.00489425
-0.0021481
8.37506e-05
0.00235327
0.0011107
0.00015248
-0.00228413
-0.00564853
-0.00763107
-0.00734828
-0.00563322
-0.00272147
-0.00034253
0.00205402
0.000861609
-0.00061342
-0.00376465
-0.00722788
-0.00903502
-0.0084812
-0.0064683
-0.00333126
-0.000781872
0.0017593
0.000650205
-0.0020107
-0.00573989
-0.00917558
-0.0106662
-0.0097239
-0.00735281
-0.00396302
-0.0012293
0.00145298
0.000473873
-0.00398745
-0.00812774
-0.0113214
-0.0123793
-0.0109801
-0.00823249
-0.0045969
-0.00167618
0.00112967
0.000324168
-0.00629919
-0.0106851
-0.0134304
-0.0140076
-0.0121548
-0.00906019
-0.00520999
-0.00211154
0.000790639
0.000185082
-0.00856086
-0.0130727
-0.0152707
-0.0154044
-0.0131681
-0.00979216
-0.00577268
-0.00252006
0.000447147
5.32574e-05
-0.010396
-0.0149804
-0.0166671
-0.0164682
-0.0139575
-0.0103845
-0.00624416
-0.00289183
0.000115247
-1.92896e-05
-0.0115725
-0.0162397
-0.0175235
-0.0171477
-0.0144782
-0.0107984
-0.00662256
-0.00320469
-0.000229512
-1.62109e-05
-0.0120082
-0.0168249
-0.017836
-0.017434
-0.0147198
-0.0110385
-0.0068912
-0.00345125
-0.000550056
-3.98312e-05
-0.0117277
-0.0167737
-0.0176836
-0.0173491
-0.0147123
-0.0110905
-0.00705123
-0.00364605
-0.000833076
-9.85694e-05
-0.0108812
-0.0161849
-0.0171438
-0.0169544
-0.0144845
-0.0110032
-0.00711957
-0.00379643
-0.00108221
-0.000175262
-0.00960869
-0.0152125
-0.0163128
-0.0163186
-0.0140919
-0.0108072
-0.00711846
-0.00390985
-0.00129983
-0.000256715
-0.00804981
-0.0139788
-0.0152945
-0.0155105
-0.0135878
-0.010539
-0.007069
-0.00399413
-0.00148741
-0.000335668
-0.00633667
-0.0125817
-0.0141811
-0.0145967
-0.0130149
-0.0102317
-0.00698761
-0.00405503
-0.00164704
-0.000408182
-0.00453029
-0.011077
-0.0130317
-0.0136382
-0.0124079
-0.00991717
-0.00688453
-0.004097
-0.00178157
-0.000472751
-0.00259106
-0.00942227
-0.0118542
-0.0126673
-0.0117939
-0.00961074
-0.00677637
-0.00412907
-0.00189619
-0.000529045
-0.000962681
-0.00767129
-0.0106357
-0.011621
-0.0111269
-0.00926847
-0.00667106
-0.00414196
-0.00199167
-0.00057205
0.000224254
-0.00408119
-0.007644
-0.00895768
-0.00908932
-0.00780371
-0.00601362
-0.00398239
-0.00211136
-0.000627461
0.00173851
-0.00179072
-0.00457951
-0.00587699
-0.00639243
-0.00577086
-0.00466461
-0.0031913
-0.00179163
-0.000514156
0.00440604
0.00102555
-0.00175175
-0.00322488
-0.00410119
-0.00399454
-0.0034522
-0.00244919
-0.0013486
-0.000281174
0.00691886
0.00369104
0.0008776
-0.000849604
-0.00207247
-0.00240961
-0.00229054
-0.00162631
-0.000779838
3.58002e-05
0.00957245
0.00617467
0.00325674
0.00127983
-0.00028025
-0.000994871
-0.00121626
-0.000797322
-8.36995e-05
0.000480729
0.0123855
0.00870172
0.00548283
0.00315622
0.00128088
0.000227834
-0.000251326
7.76125e-05
0.000753153
0.00104966
0.0151405
0.0110616
0.00750186
0.00481449
0.00262274
0.00127855
0.000660174
0.00098094
0.00164516
0.00164957
0.0176766
0.0130509
0.00924759
0.00624123
0.00379363
0.00224499
0.00157093
0.00187923
0.0024503
0.00209022
0.0199479
0.0154405
0.0110307
0.00745045
0.00475199
0.00310764
0.00241837
0.00254383
0.00273972
0.00195136
0.0223892
0.0157944
0.0111423
0.00772062
0.00524049
0.00369916
0.00298957
0.00281255
0.00252938
0.00146553
0.00357506
0.00531668
0.00736665
0.00947296
0.0122844
0.0151492
0.0180443
0.0213122
0.0226718
0.0279176
0.00507397
0.00696958
0.00887112
0.0109468
0.0139145
0.0168184
0.0198485
0.0231715
0.0247587
0.0291594
0.00643685
0.0083336
0.0102931
0.0126308
0.0158816
0.0189653
0.022241
0.0255778
0.0277004
0.0298671
0.00756078
0.00935744
0.0114152
0.0140713
0.0175979
0.020932
0.0244741
0.0279396
0.030459
0.0313651
0.00850999
0.0102831
0.0124653
0.0153921
0.0191387
0.0227011
0.0264739
0.030105
0.032905
0.0336883
0.00930456
0.0112013
0.0135969
0.0167823
0.0207253
0.0244815
0.0284449
0.0322153
0.0352409
0.0364351
0.00993763
0.0120905
0.0148074
0.0182869
0.0224523
0.0264075
0.0305561
0.0344486
0.0376631
0.0393026
0.010412
0.0129328
0.0160575
0.0198696
0.0243042
0.0284926
0.0328543
0.0368875
0.0402663
0.0422005
0.0107402
0.0137369
0.0173361
0.0214987
0.026247
0.0307015
0.0353149
0.0395279
0.0430671
0.045166
0.0109361
0.0145181
0.0186519
0.0231637
0.0282689
0.0330034
0.0379045
0.0423316
0.0460475
0.048258
0.0110135
0.0152852
0.0200144
0.0248579
0.0303759
0.0353842
0.0406105
0.0452716
0.0491923
0.0515132
0.0109817
0.0160335
0.0214171
0.0265692
0.0325629
0.0378411
0.0434295
0.048335
0.0524923
0.0549378
0.0108411
0.0167433
0.0228245
0.0282971
0.0347995
0.0403927
0.0463577
0.0515427
0.0559532
0.0585321
0.0105782
0.0173847
0.0241864
0.0300528
0.0370366
0.0430438
0.0493931
0.0548982
0.0595736
0.0622906
0.0101554
0.0179237
0.0254519
0.0318475
0.0392919
0.0457737
0.0525213
0.0583951
0.0633617
0.0662237
0.00951924
0.018333
0.0266458
0.0336019
0.0415309
0.048515
0.0557011
0.0619935
0.0672991
0.0703281
0.00865264
0.0186405
0.0277421
0.0352739
0.0437413
0.0512669
0.0589531
0.0657207
0.0714071
0.0746278
0.00748142
0.0187698
0.0286449
0.0367921
0.0458284
0.0539376
0.0621767
0.0694911
0.0756393
0.0791081
0.00608261
0.0188406
0.0294211
0.0382473
0.0478639
0.0566118
0.0654516
0.0733757
0.0800357
0.083813
0.00389738
0.0182343
0.0296206
0.0391689
0.0493658
0.0588115
0.0683344
0.0770431
0.0844361
0.0886967
0.00335827
0.0195559
0.0320082
0.0432403
0.0546059
0.0656363
0.0766674
0.0870856
0.0959539
0.101282
0.0133348
0.0291931
0.0417942
0.0544828
0.0677711
0.081226
0.0949546
0.108171
0.119533
0.126191
0.0256939
0.0417606
0.0547682
0.0689524
0.0842033
0.100623
0.117479
0.133949
0.148192
0.156679
0.0385985
0.054948
0.069065
0.0852615
0.103232
0.123382
0.144014
0.164396
0.182015
0.192397
0.051082
0.0680691
0.0839425
0.102716
0.12445
0.149207
0.174569
0.199557
0.220914
0.233698
0.0635059
0.0815412
0.0998677
0.121935
0.148271
0.178441
0.209426
0.23964
0.265033
0.279707
0.0761791
0.0956089
0.116974
0.143072
0.17455
0.210604
0.247645
0.283396
0.312678
0.330111
0.0900302
0.110628
0.135289
0.16597
0.202796
0.244696
0.287911
0.329589
0.362368
0.378943
0.101668
0.123476
0.151137
0.185686
0.226882
0.273478
0.322061
0.369439
0.405463
0.424666
0.109897
0.132737
0.162563
0.19982
0.243937
0.293745
0.346946
0.400844
0.442108
0.447358
-0.0022471
0.00708271
0.0173237
0.0290027
0.0403534
0.0525339
0.0647255
0.0792654
0.0911168
0.0996964
-0.00385251
0.00604351
0.0159338
0.0272437
0.0382691
0.0503417
0.0624235
0.0770462
0.088676
0.0970834
-0.00432563
0.00631977
0.0164146
0.0278067
0.0388973
0.0510957
0.0633402
0.0778799
0.0887073
0.0965727
-0.00440026
0.00635011
0.0165151
0.0281266
0.0394779
0.0519688
0.0645564
0.0789822
0.0891633
0.0964365
-0.00403122
0.00642875
0.0164801
0.0281929
0.0397403
0.0524869
0.0653572
0.0796451
0.0893848
0.0961284
-0.00315021
0.00695136
0.0169503
0.0287028
0.040362
0.0532747
0.0662606
0.0803217
0.0896346
0.0958599
-0.00175426
0.00801165
0.0181484
0.0299797
0.0417862
0.0548506
0.0678596
0.081595
0.0903888
0.0960418
0.000170685
0.00964281
0.0200592
0.0320164
0.0440624
0.0573169
0.0703488
0.0837068
0.0919012
0.0969217
0.00264504
0.0118895
0.0226522
0.0347425
0.0470887
0.0605523
0.0736132
0.0865809
0.0941399
0.0985037
0.00566771
0.0147649
0.0259029
0.038106
0.0507614
0.0644086
0.0774547
0.0900233
0.0969308
0.100644
0.00920608
0.0182153
0.0297536
0.0420405
0.0549834
0.0687651
0.0817062
0.0938652
0.100107
0.103176
0.0131836
0.0220986
0.0340811
0.0464198
0.0596298
0.0735001
0.0862366
0.0979897
0.103558
0.105984
0.0174258
0.0262359
0.0386953
0.0510776
0.0645581
0.0784704
0.0909434
0.102307
0.107209
0.10902
0.0217241
0.0304835
0.043416
0.0558676
0.069624
0.0835441
0.0957416
0.106722
0.110985
0.112273
0.0258877
0.0347249
0.0480875
0.0606695
0.0746952
0.0886098
0.100559
0.111139
0.114825
0.11572
0.0297409
0.0388396
0.0525594
0.0653614
0.0796397
0.0935564
0.105307
0.115455
0.118708
0.119257
0.0331487
0.0427312
0.0567205
0.069852
0.0843657
0.0983088
0.109922
0.119613
0.122638
0.122821
0.0359358
0.046251
0.0604232
0.0739885
0.0887359
0.102747
0.114296
0.123466
0.126579
0.126368
0.0381624
0.0494476
0.0637275
0.0778018
0.092777
0.106885
0.118433
0.127195
0.130363
0.129903
0.0392405
0.051715
0.0660832
0.0807042
0.0959854
0.110304
0.121998
0.130598
0.13378
0.133412
0.044349
0.0593265
0.0736964
0.0892017
0.104696
0.119134
0.130936
0.139126
0.142164
0.141919
0.0609122
0.0755391
0.0896055
0.105066
0.119755
0.133371
0.144309
0.151676
0.15454
0.154526
0.0751104
0.0898009
0.10405
0.119192
0.132986
0.145805
0.155886
0.16281
0.165908
0.166403
0.0861378
0.10076
0.115311
0.130058
0.143479
0.155945
0.165805
0.173146
0.177415
0.179194
0.0943217
0.108972
0.123628
0.138047
0.1516
0.164145
0.174616
0.183514
0.190328
0.194932
0.100641
0.115205
0.129875
0.144177
0.158144
0.171239
0.183302
0.19543
0.207496
0.218391
0.104658
0.119523
0.134226
0.148573
0.163156
0.177447
0.192265
0.209877
0.231239
0.254878
0.108364
0.12341
0.138378
0.153365
0.168845
0.185162
0.204405
0.231398
0.269593
0.317598
0.10906
0.12406
0.139079
0.154474
0.171256
0.191001
0.218076
0.259914
0.325064
0.415288
0.111526
0.127535
0.144227
0.162218
0.183244
0.21027
0.249273
0.310853
0.4114
0.555417
0.0372844
0.0519336
0.0655162
0.0765182
0.0847017
0.091781
0.0953501
0.0992224
0.0994853
0.101688
0.0370101
0.0509395
0.0636888
0.0740668
0.081788
0.0886752
0.0918663
0.0956046
0.0955828
0.0979447
0.0383912
0.0521939
0.0638807
0.0732178
0.0800673
0.086179
0.0888308
0.0921853
0.091827
0.0944417
0.0381497
0.0518541
0.0629505
0.0716894
0.0779638
0.083462
0.0857299
0.0887363
0.0881003
0.0907141
0.0370046
0.0502432
0.0609224
0.0693225
0.0753015
0.0804169
0.0824648
0.0852067
0.0843633
0.0867961
0.0356855
0.0483392
0.0585793
0.0666376
0.0724679
0.0772108
0.07914
0.0816344
0.0806439
0.0828669
0.0342422
0.0464177
0.0562567
0.0639604
0.0695597
0.0739326
0.0758456
0.0780578
0.0769901
0.07905
0.0325386
0.0443627
0.053905
0.061302
0.0666356
0.0706657
0.0725313
0.0744878
0.0734403
0.0753719
0.0305453
0.0421052
0.0514501
0.0585973
0.063702
0.0674474
0.0692002
0.0709161
0.070023
0.0717983
0.0282942
0.0396767
0.0488966
0.0558322
0.0607547
0.0642821
0.0658905
0.06739
0.0667224
0.0682891
-0.00415957
-0.00366586
-0.00290643
-0.00206612
-0.00127032
-0.000585503
-4.71307e-05
0.000395099
0.000899311
0.00106218
-0.00405276
-0.00357181
-0.00286179
-0.00208602
-0.00136516
-0.000760854
-0.000303401
2.03132e-05
0.000222797
0.000160379
-0.00413992
-0.00357034
-0.00288395
-0.00215833
-0.00150681
-0.000988314
-0.000631659
-0.000446776
-0.000507618
-0.000868363
-0.00439759
-0.0036338
-0.00295329
-0.00225953
-0.00166772
-0.0012299
-0.000968769
-0.00089536
-0.00109748
-0.00161937
-0.00475763
-0.00375766
-0.00304174
-0.00236275
-0.0018228
-0.00146365
-0.00129773
-0.00132596
-0.00159912
-0.0021497
-0.00519298
-0.00389611
-0.00312621
-0.00245175
-0.00196419
-0.00169423
-0.00163928
-0.00178354
-0.0021247
-0.00266024
-0.00565205
-0.00402936
-0.00319639
-0.00252697
-0.00210549
-0.00195135
-0.00204289
-0.00234414
-0.00281226
-0.00338782
-0.00608426
-0.00414388
-0.00325126
-0.00259967
-0.00226938
-0.0022679
-0.00255144
-0.00306177
-0.00372948
-0.00444705
-0.00644313
-0.00422697
-0.00329014
-0.00267676
-0.00246457
-0.00264736
-0.00315654
-0.00391012
-0.00481584
-0.00575322
-0.00669255
-0.00426739
-0.00330608
-0.00274788
-0.00266804
-0.00304368
-0.00377911
-0.00476811
-0.00589898
-0.00706796
-0.0068138
-0.00425695
-0.00328157
-0.00277907
-0.00282118
-0.00336535
-0.00428806
-0.00546075
-0.00676251
-0.00810898
-0.00671249
-0.00412907
-0.00315101
-0.00269541
-0.00283188
-0.00349776
-0.00454415
-0.00582615
-0.00722543
-0.00866114
-0.00635531
-0.00384989
-0.00286648
-0.0024326
-0.00262057
-0.00334943
-0.00444957
-0.00576739
-0.00719278
-0.00863126
-0.00571301
-0.00337885
-0.00237645
-0.00193267
-0.00212893
-0.00286869
-0.00396647
-0.00526548
-0.00666167
-0.00804436
-0.00476593
-0.00267972
-0.00164264
-0.00116256
-0.0013358
-0.00205321
-0.0031161
-0.00436646
-0.00569848
-0.00699103
-0.00351468
-0.0017334
-0.000651786
-0.00012164
-0.000257998
-0.000943062
-0.00196238
-0.00315631
-0.00441001
-0.00560234
-0.00198389
-0.000545098
0.000581967
0.00116001
0.00105494
0.00039879
-0.000588205
-0.00173664
-0.00291853
-0.00401826
-0.000221966
0.000853759
0.0020204
0.00262972
0.00254144
0.00189493
0.000919285
-0.000208526
-0.00134893
-0.00237809
0.00170221
0.00241702
0.00359553
0.00422217
0.00413595
0.0034795
0.00248667
0.00133142
0.000157172
-0.000839339
0.00369999
0.00406962
0.00523696
0.00586835
0.00578368
0.00512091
0.00410358
0.00287283
0.00154798
0.00050026
0.00568048
0.0057284
0.00686251
0.00749101
0.00742521
0.00680278
0.00584662
0.00469887
0.00352419
0.00293957
0.00757452
0.00731431
0.0083865
0.00900056
0.00895997
0.00839542
0.00752182
0.00648449
0.00545414
0.00494052
0.00927105
0.00873934
0.00972882
0.0103147
0.0102917
0.00977813
0.00897606
0.00802666
0.00708387
0.00654591
0.0106895
0.0099361
0.010828
0.0113719
0.011354
0.010878
0.0101354
0.00926547
0.00840139
0.00785148
0.0117764
0.0108577
0.0116437
0.0121349
0.0121111
0.0116635
0.0109738
0.0101846
0.00941179
0.00888803
0.0125022
0.0114777
0.0121561
0.0125883
0.0125514
0.0121263
0.0114902
0.0107875
0.0101215
0.00966105
0.0128605
0.0117895
0.0123638
0.0127343
0.0126801
0.0122761
0.0116966
0.0110873
0.010542
0.0101766
0.0128663
0.011804
0.0122799
0.0125872
0.0125128
0.0121295
0.0116096
0.0110998
0.0106867
0.0104448
0.0125516
0.0115454
0.0119284
0.0121696
0.0120708
0.0117063
0.0112476
0.0108412
0.010569
0.0104766
0.0119574
0.0110468
0.0113421
0.0115118
0.0113809
0.0110295
0.0106302
0.0103279
0.0102015
0.0102817
0.0111298
0.0103469
0.0105617
0.0106536
0.0104792
0.0101307
0.0097835
0.00958095
0.00959942
0.00986919
0.0101481
0.00949461
0.00961647
0.0096128
0.00937896
0.00902144
0.00871914
0.00861207
0.00877131
0.00924094
0.00906291
0.00853097
0.00854641
0.00842739
0.00811477
0.00773234
0.00746268
0.0074431
0.00773249
0.00839511
0.00792885
0.00749769
0.00738966
0.00713264
0.0067199
0.0062945
0.00604043
0.00609776
0.00650499
0.00732536
0.00680106
0.00643586
0.00618309
0.00576299
0.00522788
0.00474238
0.0044792
0.00460115
0.00511793
0.00605467
0.0057267
0.00538953
0.00496413
0.00435488
0.0036751
0.00312081
0.00280545
0.00298244
0.00357546
0.00464442
0.00476104
0.00439248
0.00377072
0.00294719
0.00209485
0.00142391
0.00110929
0.00129284
0.00192692
0.00305321
0.00394696
0.00348215
0.00264415
0.00158453
0.000541307
-0.000254614
-0.000618054
-0.000435014
0.000221256
0.00132763
0.00332171
0.00269526
0.00162673
0.000317014
-0.000931405
-0.0018691
-0.00231368
-0.00215088
-0.00146657
-0.000391194
0.00291623
0.00206391
0.000759506
-0.000804388
-0.00226015
-0.00335364
-0.00391449
-0.00382341
-0.00311324
-0.00186807
0.00275248
0.00161335
7.91532e-05
-0.00171778
-0.00337203
-0.00462
-0.0052973
-0.0052981
-0.00450558
-0.00205521
0.0028392
0.00136277
-0.00037609
-0.00237315
-0.00419589
-0.00558217
-0.00638303
-0.00649593
-0.00575712
-0.00410194
0.00315287
0.00133081
-0.000581076
-0.00273015
-0.00467504
-0.0061657
-0.00707217
-0.00731214
-0.00677521
-0.00560671
0.00367065
0.00150213
-0.000531259
-0.00277083
-0.0047774
-0.00631781
-0.00727787
-0.00758996
-0.0071875
-0.00624083
0.00434302
0.0018498
-0.000242915
-0.00250347
-0.00450369
-0.00603056
-0.00698566
-0.00731909
-0.00700161
-0.00617491
0.00510421
0.00232954
0.000247405
-0.00196061
-0.00388489
-0.00533518
-0.00623132
-0.00654673
-0.00628404
-0.00552648
0.00586924
0.0028819
0.000886783
-0.00119301
-0.00297237
-0.00428515
-0.00507034
-0.00532616
-0.00508027
-0.00435132
0.00655117
0.00343722
0.00161128
-0.000262712
-0.00182859
-0.00294376
-0.00356463
-0.00371074
-0.00342714
-0.00267594
0.00706091
0.0039212
0.00235144
0.000762534
-0.000521144
-0.00137797
-0.00177757
-0.00175373
-0.0013613
-0.000521486
0.00732699
0.00426562
0.00303944
0.0018145
0.000880993
0.000343672
0.000225706
0.000488234
0.00107328
0.00208003
0.00731396
0.00442263
0.00361864
0.00283161
0.00231268
0.00215394
0.00237804
0.00295044
0.00381529
0.00507127
0.00690631
0.00430846
0.00401484
0.00374125
0.00369962
0.00397611
0.00460018
0.00554968
0.00677371
0.00835544
0.00608473
0.00389245
0.00418498
0.00449044
0.0049799
0.00573935
0.00681116
0.00819124
0.00983402
0.0117971
0.00485366
0.00316333
0.00409988
0.00503581
0.00609767
0.00737517
0.00892787
0.0107729
0.0128693
0.0152449
0.00323668
0.00212617
0.00374383
0.00534474
0.00700566
0.00882175
0.0108721
0.0131958
0.0157562
0.0185524
0.00128295
0.000807465
0.00311852
0.00539904
0.00766912
0.0100283
0.012575
0.0153688
0.0183767
0.0215791
-0.00093366
-0.000744386
0.00224424
0.0051966
0.00806808
0.0109584
0.0139839
0.0172202
0.0206372
0.0242125
-0.00331977
-0.00246201
0.00115862
0.00475137
0.00819844
0.0115921
0.015063
0.0186947
0.0224497
0.0263296
-0.00576872
-0.00426351
-8.59545e-05
0.00409146
0.00807041
0.0119235
0.0157928
0.0197665
0.0237799
0.0278829
-0.00816762
-0.00605806
-0.00142624
0.00325745
0.00770951
0.0119666
0.0161771
0.0204433
0.0246363
0.0287215
-0.0104152
-0.00775251
-0.00279868
0.00229756
0.00714969
0.0117451
0.0162202
0.0207068
0.0250896
0.0290161
-0.0124523
-0.00925884
-0.00414363
0.00126845
0.00643339
0.0112991
0.0159722
0.0205967
0.0251673
0.0293393
-0.0141591
-0.0105071
-0.00535429
0.000220571
0.00560577
0.0106744
0.0155024
0.0202221
0.0249032
0.0293762
-0.0154607
-0.0114377
-0.00638059
-0.000779988
0.00471372
0.00990892
0.0148442
0.0196233
0.0243332
0.0288689
-0.0163226
-0.0120139
-0.00718028
-0.0016904
0.00379799
0.00903193
0.0140085
0.0187983
0.0234709
0.0279448
-0.0167398
-0.0122333
-0.00772315
-0.00247266
0.00289381
0.00807341
0.0130187
0.0177672
0.0223737
0.0267637
-0.0167324
-0.0121234
-0.00799752
-0.00309646
0.00203341
0.00706499
0.0119099
0.0165719
0.0210962
0.0254272
-0.0163436
-0.0117351
-0.00801436
-0.00354428
0.00124417
0.00603448
0.0107087
0.0152342
0.0196365
0.0238796
-0.0156344
-0.0111339
-0.00780739
-0.00381385
0.000547647
0.00500669
0.00943437
0.0137656
0.0179964
0.0221064
-0.0146664
-0.0103821
-0.0074243
-0.00391896
-4.35513e-05
0.00400403
0.00810711
0.0121818
0.016194
0.0201314
)
;

boundaryField
{
    inlet
    {
        type            zeroGradient;
    }
    outlet
    {
        type            fixedValue;
        value           uniform 0;
    }
    cylinder
    {
        type            zeroGradient;
    }
    top
    {
        type            symmetryPlane;
    }
    bottom
    {
        type            symmetryPlane;
    }
    defaultFaces
    {
        type            empty;
    }
}


// ************************************************************************* //
