/*--------------------------------*- C++ -*----------------------------------*\
  =========                 |
  \\      /  F ield         | OpenFOAM: The Open Source CFD Toolbox
   \\    /   O peration     | Website:  https://openfoam.org
    \\  /    A nd           | Version:  7
     \\/     M anipulation  |
\*---------------------------------------------------------------------------*/
FoamFile
{
    version     2.0;
    format      ascii;
    class       surfaceScalarField;
    location    "5.3";
    object      phi;
}
// * * * * * * * * * * * * * * * * * * * * * * * * * * * * * * * * * * * * * //

dimensions      [0 3 -1 0 0 0 0];

internalField   nonuniform List<scalar> 
3880
(
0.000103173
0.00331503
-0.0034182
0.000626031
0.00922904
-0.00975189
0.00163484
0.0140742
-0.015083
0.00307029
0.0178991
-0.0193346
0.0048148
0.0206983
-0.0224428
0.00674493
0.0225318
-0.024462
0.00875633
0.0235469
-0.0255583
0.0107696
0.02394
-0.0259532
0.0127266
0.0239219
-0.025879
0.0236957
0.0145863
-0.0255554
-3.37791e-06
0.00331841
0.000346317
0.00887934
0.00116207
0.0132585
0.00243076
0.0166304
0.00406762
0.0190614
0.00596864
0.0206308
0.00803696
0.0214786
0.0101919
0.021785
0.0123679
0.0217459
0.0215627
0.014501
-0.000100188
0.00341859
8.25985e-05
0.00869656
0.000705611
0.0126354
0.00179704
0.015539
0.00330262
0.0175558
0.00514319
0.0187902
0.00723866
0.0193831
0.00951902
0.0195046
0.0119246
0.0193403
0.0191067
0.0143806
-0.00018537
0.00360396
-0.000143582
0.00865477
0.000315217
0.0121766
0.00124561
0.0146086
0.00262231
0.0161791
0.00439249
0.0170201
0.00649719
0.0172784
0.00888428
0.0171175
0.0115122
0.0167124
0.0163004
0.0143185
-0.000245931
0.0038499
-0.000296155
0.00870499
5.68894e-05
0.0118236
0.000879209
0.0137863
0.00217452
0.0148838
0.00391032
0.0152843
0.00604554
0.0151432
0.00854332
0.0146197
0.0113802
0.0138755
0.0131434
0.0145372
-0.000271469
0.00412136
-0.000343534
0.00877706
-3.2281e-06
0.0114833
0.0008169
0.0129661
0.00214295
0.0135578
0.00395284
0.0134744
0.00621237
0.0128837
0.0088849
0.0119472
0.0119427
0.0108177
0.00965822
0.0154279
-0.000254994
0.00437636
-0.000260354
0.00878242
0.000185905
0.011037
0.00116929
0.0119828
0.00270658
0.0120205
0.00477859
0.0114024
0.00733987
0.0103224
0.01033
0.00895705
0.0136788
0.00746896
0.00588907
0.0174479
-0.000194911
0.00457127
-2.82455e-05
0.00861575
0.000673199
0.0103356
0.00200576
0.0106502
0.00397758
0.0100487
0.00654968
0.00883026
0.0096394
0.00723269
0.0131343
0.00546215
0.0169033
0.00369994
0.00191048
0.0208819
-9.35382e-05
0.00466481
0.000327472
0.00819474
0.00144443
0.00921863
0.00332304
0.00877158
0.00595345
0.00741825
0.00925724
0.00552647
0.0130917
0.00339819
0.0172567
0.00129721
0.0215715
-0.000614904
-0.00216997
0.025652
4.23745e-05
0.00462243
0.000804287
0.00743283
0.00246258
0.00756034
0.00505117
0.00618299
0.00851199
0.00395743
0.0127053
0.00133319
0.0174324
-0.0013289
0.0224433
-0.00371377
0.0274799
-0.00565145
0.0312794
-0.0059695
0.0160934
0.0852065
-0.0867137
0.0163448
0.0857002
-0.0859515
0.0154713
0.0878281
-0.0869546
0.0137817
0.0898678
-0.0881783
0.011676
0.0916963
-0.0895905
0.00929379
0.0947869
-0.0924048
0.00692969
0.0952517
-0.0928876
0.0044961
0.0991274
-0.0966938
0.00239616
0.0981422
-0.0960423
0.105931
-0.103535
0.0167879
0.0829196
0.0175414
0.0849467
0.0169951
0.0883744
0.0154235
0.0914394
0.0132624
0.0938573
0.0107219
0.0973275
0.00807753
0.0978961
0.00535424
0.101851
0.0028117
0.100685
0.108743
0.0175626
0.0797375
0.0188176
0.0836917
0.0185612
0.0886309
0.0170708
0.0929298
0.0148562
0.0960719
0.0121527
0.100031
0.00923215
0.100817
0.00621083
0.104872
0.00322663
0.103669
0.111969
0.0183956
0.0756604
0.0201535
0.0819338
0.0201536
0.0886307
0.018713
0.0943704
0.0164468
0.0983381
0.0135737
0.102904
0.010381
0.104009
0.00705313
0.1082
0.00363477
0.107087
0.115604
0.0192946
0.0709031
0.0215094
0.0797191
0.0217484
0.0883916
0.0203478
0.0957711
0.0180276
0.100658
0.0149785
0.105953
0.0115205
0.107467
0.00787744
0.111843
0.00403515
0.11093
0.119639
0.0203407
0.0659902
0.0228673
0.0771925
0.023321
0.0879379
0.0219602
0.0971319
0.0195909
0.103027
0.0163662
0.109178
0.0126529
0.111181
0.00868641
0.115809
0.00442899
0.115187
0.124068
0.0216943
0.0617438
0.0242453
0.0746416
0.0248546
0.0873286
0.0235314
0.0984551
0.0211269
0.105432
0.0177326
0.112572
0.0137776
0.115135
0.00948354
0.120104
0.00482277
0.119848
0.128891
0.0235335
0.0590922
0.0256968
0.0724783
0.0263457
0.0866798
0.0250431
0.0997576
0.0226233
0.107852
0.0190774
0.116118
0.014904
0.119309
0.0102783
0.124729
0.00521216
0.124914
0.134103
0.0259313
0.0588129
0.027269
0.0711405
0.0278006
0.0861482
0.0264871
0.101071
0.024066
0.110273
0.0203677
0.119817
0.0160007
0.123676
0.0110579
0.129672
0.00562248
0.130349
0.139726
0.0291592
0.0609331
0.029208
0.0710917
0.0293549
0.0860013
0.027934
0.102492
0.0255536
0.112653
0.0217402
0.12363
0.0172251
0.128191
0.0118985
0.134999
0.00603423
0.136214
0.14576
0.121285
0.0849734
-0.145325
0.101453
0.0909238
0.0868521
0.100602
0.0748423
0.114502
0.063684
0.123811
0.0522011
0.135113
0.0398914
0.140501
0.0276396
0.147251
0.0147599
0.149093
0.16052
0.138872
0.103578
-0.157476
0.120635
0.10916
0.104517
0.11672
0.0897333
0.129286
0.0752351
0.13831
0.0613701
0.148978
0.0479502
0.153921
0.0349856
0.160215
0.0171832
0.166896
0.177703
0.148551
0.11848
-0.163453
0.13218
0.125531
0.115942
0.132959
0.100374
0.144853
0.0834783
0.155205
0.0647274
0.167729
0.0429933
0.175655
0.0188489
0.18436
0.00347457
0.18227
0.181177
0.157558
0.132002
-0.171081
0.14188
0.141209
0.124746
0.150092
0.107941
0.161658
0.0928617
0.170285
0.0806295
0.179961
0.0718877
0.184396
0.0662303
0.190017
0.0430976
0.205403
0.224275
0.167044
0.14477
-0.179812
0.153662
0.154591
0.139001
0.164754
0.122089
0.17857
0.099858
0.192516
0.0727004
0.207119
0.0408044
0.216292
0.00932642
0.221495
-0.00220399
0.216933
0.222071
0.178087
0.157867
-0.191183
0.160115
0.172562
0.140731
0.184137
0.124121
0.195181
0.112484
0.204152
0.102598
0.217005
0.0913178
0.227573
0.0714408
0.241372
0.0358174
0.252557
0.257888
0.19388
0.166529
-0.202542
0.187199
0.179243
0.173181
0.198156
0.149357
0.219005
0.118423
0.235086
0.0863206
0.249107
0.0589583
0.254935
0.0379177
0.262413
0.0214295
0.269045
0.279318
0.196737
0.185135
-0.215344
0.175854
0.200126
0.163607
0.210402
0.156965
0.225647
0.14784
0.244212
0.131364
0.265582
0.104033
0.282266
0.0731449
0.293301
0.0387935
0.303396
0.318111
0.236233
0.174195
-0.225292
0.223859
0.2125
0.196499
0.237762
0.166387
0.255759
0.138293
0.272306
0.112666
0.291209
0.0861429
0.30879
0.0572078
0.322236
0.0287972
0.331807
0.346909
0.206575
-0.17064
0.224801
0.225719
0.2117
0.188736
0.158918
0.124587
0.0847562
0.04249
0.0491418
-0.15369
-0.0407767
0.0515357
-0.15987
0.0525092
-0.164427
0.0534306
-0.172002
0.0540463
-0.180428
0.0545874
-0.191724
0.054248
-0.202203
0.0525127
-0.213608
0.0410367
-0.213816
-0.156109
0.0505509
-0.159361
-0.0448799
0.0518213
-0.16114
0.0525187
-0.165124
0.0532882
-0.172771
0.0538665
-0.181006
0.0540865
-0.191944
0.0533354
-0.201452
0.0497657
-0.210039
0.0371324
-0.201182
-0.140739
0.0497865
-0.162096
-0.0470514
0.0507279
-0.162081
0.0514294
-0.165826
0.0521908
-0.173533
0.0527491
-0.181564
0.0527504
-0.191946
0.0515318
-0.200233
0.0463302
-0.204837
0.0325844
-0.187437
-0.12507
0.0482935
-0.163061
-0.0473288
0.0492372
-0.163025
0.049952
-0.166541
0.0507458
-0.174327
0.0513117
-0.18213
0.0511009
-0.191735
0.0491569
-0.198289
0.0423045
-0.197985
0.0277337
-0.172866
-0.109316
0.045986
-0.163144
-0.0459029
0.0471898
-0.164229
0.047984
-0.167335
0.0488512
-0.175194
0.0494296
-0.182708
0.0489292
-0.191234
0.0461037
-0.195464
0.037755
-0.189636
0.0226711
-0.157782
-0.0937029
0.0431769
-0.163125
-0.043196
0.0446868
-0.165739
0.0455955
-0.168244
0.0465619
-0.17616
0.0471353
-0.183282
0.0462742
-0.190373
0.0424469
-0.191636
0.0327534
-0.179942
0.017437
-0.142466
-0.0785959
0.0399424
-0.1634
-0.0396678
0.0416748
-0.167471
0.0427645
-0.169333
0.0438519
-0.177247
0.0443804
-0.18381
0.0430701
-0.189063
0.0382019
-0.186768
0.0274225
-0.169163
0.0120123
-0.127055
-0.064592
0.0363441
-0.164085
-0.0356584
0.0381997
-0.169327
0.0395444
-0.170678
0.0407586
-0.178462
0.0411801
-0.184232
0.0393552
-0.187238
0.0334978
-0.180911
0.0219369
-0.157602
0.00663962
-0.111758
-0.0520685
0.0324042
-0.165135
-0.0313543
0.0343235
-0.171246
0.0359681
-0.172322
0.0372914
-0.179785
0.0375374
-0.184478
0.0351598
-0.18486
0.02844
-0.174191
0.0163978
-0.14556
0.00131435
-0.0966745
-0.0413195
0.0281773
-0.166473
-0.0268395
0.0301465
-0.173215
0.0320857
-0.174262
0.0334871
-0.181186
0.0334986
-0.184489
0.0305689
-0.181931
0.0231581
-0.16678
0.0109623
-0.133364
-0.00309702
-0.0826152
-0.0318083
0.023719
-0.168017
-0.0221745
0.0257566
-0.175253
0.027935
-0.17644
0.0293839
-0.182635
0.029124
-0.18423
0.0256771
-0.178484
0.0177553
-0.158858
0.00568216
-0.121291
-0.00715383
-0.0697792
-0.0235031
0.0190416
-0.169694
-0.0173649
0.0211727
-0.177384
0.0235395
-0.178807
0.0250143
-0.18411
0.0244816
-0.183697
0.0205886
-0.174591
0.0123447
-0.150614
0.000626377
-0.109573
-0.0111158
-0.0580371
-0.0165094
0.0142015
-0.17145
-0.0124455
0.0164427
-0.179625
0.0189678
-0.181332
0.0204452
-0.185588
0.0196692
-0.182921
0.0154248
-0.170346
0.00703577
-0.142225
-0.00426545
-0.0982714
-0.0148524
-0.0474501
-0.0107919
0.00923734
-0.173241
-0.00744686
0.0115941
-0.181982
0.0142483
-0.183986
0.0157229
-0.187062
0.0147687
-0.181967
0.0102999
-0.165878
0.00193292
-0.133858
-0.00880911
-0.0875294
-0.0182883
-0.037971
-0.00625149
0.00412685
-0.174953
-0.00241477
0.0066268
-0.184482
0.0093875
-0.186747
0.0109086
-0.188583
0.00988517
-0.180943
0.00533963
-0.161332
-0.00286206
-0.125657
-0.0129222
-0.0774692
-0.0213749
-0.0295183
-0.00274721
-0.000989097
-0.176556
0.00259238
0.00165868
-0.18713
0.00453832
-0.189626
0.0061735
-0.190218
0.00519355
-0.179963
0.000723801
-0.156862
-0.00725103
-0.117682
-0.0166075
-0.0681128
-0.0240861
-0.0220396
-0.000103382
-0.0057287
-0.178424
0.0075972
-0.00312969
-0.189729
-1.53478e-05
-0.192741
0.00180556
-0.192039
0.000901399
-0.179059
-0.0035868
-0.152374
-0.0112126
-0.110056
-0.019876
-0.0594494
-0.0264368
-0.0154788
0.00186573
-0.00998648
-0.181009
0.0125707
-0.00714901
-0.192566
-0.00394303
-0.195947
-0.0020815
-0.193901
-0.00291076
-0.17823
-0.00731499
-0.14797
-0.0147403
-0.102631
-0.0227797
-0.05141
-0.0284887
-0.00976974
0.00333301
-0.0137235
-0.18494
0.0176545
-0.0108688
-0.195421
-0.00772645
-0.199089
-0.00582115
-0.195806
-0.00657601
-0.177475
-0.0108997
-0.143646
-0.0180128
-0.0955175
-0.0254113
-0.0440116
-0.0303173
-0.0048637
0.00443758
-0.0194551
-0.18817
0.0226856
-0.0174084
-0.197468
-0.0139368
-0.202561
-0.0112972
-0.198446
-0.0113472
-0.177425
-0.0150658
-0.139928
-0.0214239
-0.0891594
-0.0278564
-0.0375791
-0.0320494
-0.000670664
0.00521161
0.0528824
-0.190696
-0.0503567
0.0538094
-0.198395
0.0477506
-0.196502
0.0300787
-0.180774
-0.00309888
-0.144247
-0.0494242
-0.0936023
-0.0978386
-0.040745
-0.129178
-0.00623994
-0.137167
0.00731904
0.00157829
0.0274796
-0.197474
-0.0207017
0.0252045
-0.19612
0.00787534
-0.179173
-0.0288172
-0.144081
-0.0779249
-0.0951397
-0.126012
-0.045515
-0.158817
-0.00794059
-0.170237
0.00518056
-0.164659
0.00174136
-0.00250986
-0.000987283
-0.195902
-0.000584818
-0.0189132
-0.178194
-0.0524309
-0.145655
-0.0988092
-0.097703
-0.144112
-0.0498369
-0.175769
-0.0138583
-0.186027
0.00231743
-0.183656
0.0028099
-0.179171
-0.00274376
-0.00225491
-0.049758
-0.18342
0.0372764
-0.080977
-0.146975
-0.125556
-0.101075
-0.170626
-0.0526336
-0.202086
-0.0183762
-0.213976
-0.00196885
-0.210965
-0.00069391
-0.203336
-0.00481833
-0.201628
-0.00445248
-5.56134e-05
-0.113703
-0.155138
0.085421
-0.158136
-0.102541
-0.20255
-0.0566616
-0.232388
-0.0227962
-0.241887
-0.0088774
-0.237108
-0.00674705
-0.229983
-0.0078197
-0.229152
-0.00564884
-0.232264
-0.00134024
0.00107729
-0.193648
-0.112354
0.150864
-0.236017
-0.0601722
-0.261645
-0.0310334
-0.269171
-0.0152703
-0.264402
-0.0136463
-0.258789
-0.0123596
-0.258693
-0.00791635
-0.262528
-0.0018136
-0.264601
0.000733314
0.000463523
-0.26487
-0.074299
0.226815
-0.289197
-0.0358456
-0.295248
-0.0249824
-0.293045
-0.0174732
-0.290248
-0.016443
-0.292954
-0.00965322
-0.297823
-0.00304781
-0.299833
0.00019653
-0.298704
-0.000395479
-0.000209297
-0.320559
-0.0482167
0.294477
-0.331636
-0.0247691
-0.33312
-0.0234984
-0.336283
-0.0143102
-0.342022
-0.0107041
-0.34692
-0.00475426
-0.348799
-0.00116921
-0.347598
-0.00100474
-0.346877
-0.00111634
8.33216e-05
-0.388265
-0.0258144
0.365862
-0.393602
-0.0194317
-0.403593
-0.0135072
-0.41511
-0.00279323
-0.420376
-0.00543857
-0.420684
-0.00444624
-0.421393
-0.000460137
-0.42166
-0.000737975
-0.422311
-0.000465406
4.89631e-05
-0.440109
0.414295
-0.459541
-0.473048
-0.475841
-0.48128
-0.485726
-0.486186
-0.486924
-0.487389
-0.0370588
-0.0421062
0.0288083
-0.0456518
-0.0121087
-0.0522355
0.0059989
-0.0564947
0.0415356
-0.0567329
0.0856592
-0.0519587
0.146089
-0.0423897
0.217246
-0.0309237
0.283011
-0.016818
0.351757
0.397477
-0.0402284
-0.0334378
0.03156
-0.0477773
-0.00455978
-0.0536896
0.0119112
-0.0570958
0.0449417
-0.0563963
0.0849598
-0.0506728
0.140366
-0.0405375
0.20711
-0.0286525
0.271126
-0.0147713
0.337875
0.382705
-0.04284
-0.0251087
0.0345109
-0.0497829
0.0023832
-0.0552333
0.0173616
-0.0582234
0.0479318
-0.0572249
0.0839613
-0.0512581
0.134399
-0.0407923
0.196645
-0.0285569
0.25889
-0.0138621
0.323181
0.368843
-0.0447538
-0.0171429
0.0367881
-0.0510018
0.00863116
-0.0560779
0.0224377
-0.0587999
0.0506537
-0.0577629
0.0829243
-0.0518499
0.128486
-0.0412412
0.186036
-0.0286117
0.246261
-0.0130914
0.30766
0.355752
-0.0459023
-0.00973024
0.0384896
-0.0514272
0.0141561
-0.0561165
0.027127
-0.0586773
0.0532145
-0.0578357
0.0820827
-0.0522631
0.122914
-0.041823
0.175596
-0.0288772
0.233315
-0.0126462
0.291429
0.343106
-0.0462861
-0.00297896
0.0395348
-0.0510746
0.0189445
-0.0553581
0.0314105
-0.0578005
0.0556569
-0.0573032
0.0815854
-0.0523162
0.117927
-0.0423526
0.165632
-0.0292972
0.22026
-0.0125162
0.274649
0.330589
-0.0459834
0.00308442
0.03992
-0.0500108
0.0229719
-0.053857
0.0352567
-0.0561621
0.0579621
-0.0560715
0.0814948
-0.0518717
0.113727
-0.0426856
0.156446
-0.0298494
0.207423
-0.0127127
0.257512
0.317877
-0.0450045
0.00828765
0.0398013
-0.0483504
0.0263178
-0.0517084
0.0386147
-0.0538087
0.0600623
-0.0540974
0.0817835
-0.0508087
0.110438
-0.0427018
0.148339
-0.0305211
0.195243
-0.0133465
0.240337
0.30453
-0.0435196
0.0126765
0.0391307
-0.0462294
0.0290276
-0.0490476
0.0414329
-0.0508463
0.061861
-0.0514017
0.0823389
-0.0490337
0.10807
-0.0422567
0.141562
-0.0312089
0.184195
-0.0145464
0.223675
0.289984
-0.0416342
0.0163431
0.0379676
-0.0437774
0.0311708
-0.0460372
0.0436927
-0.0474371
0.0632609
-0.0480831
0.0829849
-0.0465186
0.106506
-0.0411662
0.13621
-0.0316691
0.174698
-0.0163127
0.208318
0.273671
-0.0394403
0.0193826
0.0364008
-0.0411484
0.0328789
-0.0428382
0.0453825
-0.0438053
0.064228
-0.0443277
0.0835073
-0.0433387
0.105517
-0.0392973
0.132168
-0.0315617
0.166962
-0.01832
0.195077
0.255351
-0.0370361
0.0219042
0.0345145
-0.0384198
0.0342627
-0.0395794
0.0465421
-0.0401367
0.0647852
-0.0403687
0.0837394
-0.0396615
0.104809
-0.036643
0.12915
-0.030568
0.160887
-0.0198574
0.184366
0.235494
-0.0345178
0.0240333
0.0323888
-0.0356291
0.0353739
-0.0363636
0.0472767
-0.0365539
0.0649755
-0.0364142
0.0835997
-0.0357313
0.104126
-0.0333681
0.126787
-0.0285749
0.156094
-0.0201865
0.175977
0.215307
-0.0319194
0.0258516
0.030101
-0.0328066
0.0362612
-0.0332166
0.0476866
-0.0331214
0.0648803
-0.0326185
0.0830969
-0.0317902
0.103298
-0.0297474
0.124744
-0.0257509
0.152098
-0.0190412
0.169268
0.196266
-0.0292889
0.0274131
0.0277274
-0.0299905
0.0369628
-0.0301585
0.0478547
-0.029865
0.0645867
-0.0290741
0.0823059
-0.0280273
0.102251
-0.0260771
0.122794
-0.0224664
0.148487
-0.0167559
0.163557
0.17951
-0.0266785
0.0287532
0.0253384
-0.0272244
0.0375087
-0.0272128
0.0478432
-0.0267918
0.0641656
-0.0258189
0.0813331
-0.0245561
0.100989
-0.0225943
0.120832
-0.0191163
0.145009
-0.0139444
0.158385
0.165566
-0.0241353
0.0298962
0.0229923
-0.0245501
0.0379235
-0.0244062
0.0476993
-0.0239039
0.0636633
-0.0228561
0.0802853
-0.0214213
0.0995538
-0.0194394
0.11885
-0.0159868
0.141556
-0.0111382
0.153537
0.154428
-0.0216917
0.0308578
0.0207301
-0.0219997
0.0382314
-0.0217642
0.0474638
-0.0212071
0.0631062
-0.0201769
0.0792552
-0.0186306
0.0980075
-0.016679
0.116898
-0.0132389
0.138116
-0.00864474
0.148943
0.145783
-0.0193646
0.0316557
0.0185667
-0.0195885
0.0384553
-0.0193026
0.0471779
-0.0187028
0.0625063
-0.0177525
0.0783049
-0.0161431
0.096398
-0.0142853
0.115041
-0.010897
0.134728
-0.00658913
0.144635
0.139194
-0.0170472
0.0321968
0.0165061
-0.0172299
0.038638
-0.016971
0.046919
-0.0163768
0.0619121
-0.015627
0.0775551
-0.0139887
0.0947596
-0.0123487
0.113401
-0.00898268
0.131362
-0.00496072
0.140613
0.134233
-0.100026
0.0309828
0.10124
-0.0985762
0.0371886
-0.0970372
0.04538
-0.0940223
0.0588972
-0.0880827
0.0716155
-0.0786194
0.0852964
-0.0647938
0.099575
-0.0445483
0.111116
-0.0199305
0.115995
0.114302
-0.0914048
0.0280275
0.0943602
-0.088788
0.0345718
-0.086511
0.0431031
-0.0812456
0.0536318
-0.0741221
0.0644921
-0.0644684
0.0756426
-0.0512893
0.0863959
-0.0346008
0.0944279
-0.0160144
0.0974085
0.0982881
-0.0827274
0.0245299
0.0862249
-0.0792404
0.0310848
-0.0757051
0.0395679
-0.0701166
0.0480433
-0.0628443
0.0572197
-0.0537945
0.0665928
-0.0420023
0.0746037
-0.0286932
0.0811188
-0.014542
0.0832573
0.083746
-0.0756064
0.0208848
0.0792516
-0.071862
0.0273404
-0.0673097
0.0350155
-0.0613493
0.0420829
-0.0538835
0.0497539
-0.0451699
0.0578793
-0.0346814
0.0641152
-0.0236044
0.0700418
-0.012231
0.0718838
0.0715151
-0.0685757
0.0182447
0.0712158
-0.0648623
0.023627
-0.0600653
0.0302185
-0.0541034
0.036121
-0.0467458
0.0423963
-0.0383404
0.0494739
-0.0288729
0.0546477
-0.0190918
0.0602607
-0.00956608
0.0623581
0.061949
-0.0625254
0.0152819
0.0654882
-0.0586836
0.0197852
-0.0536879
0.0252228
-0.0477198
0.0301529
-0.0405894
0.0352659
-0.0324239
0.0413083
-0.023833
0.0460568
-0.0149346
0.0513623
-0.00689637
0.0543199
0.0550526
-0.0577168
0.0125895
0.0604092
-0.0536961
0.0157645
-0.0484772
0.0200039
-0.0423283
0.024004
-0.0352934
0.028231
-0.0270377
0.0330527
-0.0191041
0.0381232
-0.0109304
0.0431887
-0.00445561
0.0478451
0.050597
-0.0546877
0.00942704
0.0578501
-0.0502527
0.0113296
-0.0446377
0.0143888
-0.0380445
0.0174108
-0.0307845
0.020971
-0.0218535
0.0241217
-0.0142488
0.0305185
-0.00539628
0.0343362
-0.000346468
0.0427952
0.0502506
-0.0651751
0.0043128
0.0702894
-0.0595117
0.00566614
-0.0522183
0.00709545
-0.043662
0.00885453
-0.0344234
0.0117324
-0.0220675
0.0117657
-0.0105302
0.0189812
0.00337796
0.020428
0.0162605
0.0299127
0.0665111
-0.180947
0.18526
-0.175281
-0.168186
-0.159331
-0.147599
-0.135833
-0.116852
-0.0964238
-0.0665111
-0.0117792
0.09882
0.0141987
-0.00938502
0.091966
-0.00723211
0.084072
-0.00506031
0.0770798
-0.0033737
0.0695292
-0.00202596
0.0641405
-0.00101794
0.0594011
-0.00065977
0.057492
-0.00151009
0.0711397
0.18375
-0.0109216
0.0973155
0.0124261
-0.00874696
0.0897914
-0.00677452
0.0820996
-0.00472946
0.0750347
-0.00317435
0.0679741
-0.00191676
0.0628829
-0.000995039
0.0584794
-0.000662282
0.0571592
-0.00138095
0.0718584
0.182369
-0.00960693
0.096066
0.0108563
-0.0076766
0.0878611
-0.00601718
0.0804402
-0.00420239
0.0732199
-0.00285005
0.0666217
-0.00172798
0.0617608
-0.000921942
0.0576734
-0.000615281
0.0568525
-0.00118583
0.0724289
0.181183
-0.00838058
0.094958
0.00948861
-0.00663896
0.0861194
-0.00525845
0.0790597
-0.00366569
0.0716271
-0.00250877
0.0654648
-0.00151701
0.0607691
-0.000820023
0.0569764
-0.000527183
0.0565597
-0.000957368
0.0728591
0.180226
-0.00734774
0.0940259
0.00827982
-0.00572568
0.0844974
-0.00456167
0.0778957
-0.00316531
0.0702308
-0.00217234
0.0644718
-0.00129721
0.0598939
-0.000693405
0.0563726
-0.000403106
0.0562694
-0.0007019
0.0731579
0.179524
-0.00642355
0.0932636
0.0071859
-0.00489691
0.0829707
-0.00390189
0.0769006
-0.00269281
0.0690217
-0.0018403
0.0636193
-0.00107101
0.0591246
-0.000544597
0.0558462
-0.000241183
0.055966
-0.000428078
0.0733448
0.179096
-0.00555898
0.0926899
0.00613265
-0.00414946
0.0815612
-0.00327118
0.0760224
-0.00224415
0.0679947
-0.00151294
0.0628881
-0.000839444
0.0584511
-0.000376285
0.055383
-3.99068e-05
0.0556296
-0.000148012
0.0734529
0.178948
-0.00467287
0.0923482
0.00501456
-0.00346858
0.0803569
-0.00267018
0.075224
-0.00181962
0.0671441
-0.0011913
0.0622598
-0.000603664
0.0578635
-0.000192238
0.0549716
0.000161574
0.0552758
0.00016689
0.0734476
0.179115
-0.00367268
0.0922611
0.00375984
-0.00281021
0.0794945
-0.00209123
0.074505
-0.00141616
0.066469
-0.000874434
0.0617181
-0.000365449
0.0573545
-4.85979e-06
0.054611
0.000378272
0.0548927
0.000498684
0.0733272
0.179613
-0.00253857
0.0924045
0.00239513
-0.0021371
0.079093
-0.0015241
0.073892
-0.00102553
0.0659705
-0.000560652
0.0612532
-0.000119596
0.0569135
0.000245375
0.054246
0.000606069
0.054532
0.000820071
0.0731132
0.180433
-0.00135931
0.0927202
0.00104363
-0.00142121
0.0791549
-0.00096949
0.0734403
-0.000632287
0.0656333
-0.000252736
0.0608736
0.000129135
0.0565316
0.000474151
0.053901
0.000836412
0.0541697
0.00113252
0.0728171
0.181566
-0.000267955
0.0931491
-0.000160972
-0.000662691
0.0795496
-0.000429623
0.0732072
-0.000227129
0.0654308
5.14191e-05
0.0605951
0.000367309
0.0562157
0.000692774
0.0535756
0.00106413
0.0537984
0.00143315
0.0724481
0.182999
0.000755444
0.0935027
-0.001109
8.83896e-05
0.0802167
8.79607e-05
0.0732076
0.000158207
0.0653605
0.000337744
0.0604156
0.000594069
0.0559594
0.000894024
0.0532756
0.00128085
0.0534115
0.00171412
0.0720148
0.184713
0.00153733
0.0937516
-0.00178627
0.000704644
0.0810494
0.000556051
0.0733562
0.000503702
0.0654129
0.000605067
0.0603142
0.000801507
0.0557629
0.0010796
0.0529975
0.001479
0.0530121
0.00196838
0.0715254
0.186682
0.00211748
0.0938721
-0.002238
0.00127718
0.0818897
0.000984866
0.0736485
0.00082971
0.065568
0.000847225
0.0602967
0.000983066
0.0556271
0.00124085
0.0527397
0.00165129
0.0526017
0.00219022
0.0709865
0.188872
0.00254156
0.0938774
-0.00254685
0.00179803
0.0826332
0.00137696
0.0740696
0.00112973
0.0658153
0.00106077
0.0603656
0.00113367
0.0555542
0.00137103
0.0525024
0.00179098
0.0521817
0.00237766
0.0703998
0.191249
0.00288244
0.0937957
-0.00280072
0.00228417
0.0832315
0.00174205
0.0746117
0.00140292
0.0661544
0.00124437
0.0605242
0.00124995
0.0555486
0.00146561
0.0522867
0.00189055
0.0517568
0.00252306
0.0697673
0.193773
0.00317208
0.0936678
-0.00304416
0.00273747
0.0836661
0.00208789
0.0752613
0.0016502
0.0665921
0.00139849
0.0607759
0.00133032
0.0556168
0.00152196
0.0520951
0.00194553
0.0513332
0.00262512
0.0690877
0.196398
0.00356075
0.093522
-0.00341493
0.00322494
0.0840019
0.00244374
0.0760425
0.00187812
0.0671577
0.00152438
0.0611296
0.00137383
0.0557673
0.00153808
0.0519308
0.00195355
0.0509178
0.0026707
0.0683706
0.199068
0.00358999
0.0934826
-0.00355065
0.00351194
0.0840799
0.00270155
0.0768529
0.00204011
0.0678191
0.00160273
0.061567
0.00137412
0.0559959
0.00150714
0.0517978
0.00190972
0.0505152
0.00268782
0.0675925
0.201756
-0.0610787
0.0758311
0.0787303
-0.0452571
0.0682583
-0.0367516
0.0683474
-0.0279686
0.0590361
-0.021211
0.0548094
-0.0148519
0.0496368
-0.00894053
0.0458865
-0.0040846
0.0456593
-0.00218031
0.0656882
0.199576
-0.0643684
0.0636918
0.0765077
-0.0521439
0.0560339
-0.0428021
0.0590055
-0.0339617
0.0501957
-0.0263941
0.0472418
-0.0192669
0.0425097
-0.0127441
0.0393636
-0.00718762
0.0401028
-0.00408669
0.0625872
0.195489
-0.065084
0.0537231
0.0750527
-0.056577
0.0475269
-0.0462382
0.0486667
-0.0383815
0.0423391
-0.0303782
0.0392384
-0.0229061
0.0350376
-0.0157931
0.0322507
-0.00942869
0.0337384
-0.00480359
0.0579621
0.190686
-0.0659317
0.0475147
0.07214
-0.0596944
0.0412896
-0.049831
0.0388033
-0.0425259
0.0350339
-0.0342132
0.0309257
-0.026149
0.0269734
-0.0179134
0.0240151
-0.00999142
0.0258164
-0.00370365
0.0516744
0.186982
-0.0693583
0.039324
0.0775489
-0.0624306
0.0343619
-0.0531582
0.029531
-0.0460302
0.0279059
-0.0379212
0.0228166
-0.0299437
0.0189959
-0.0216318
0.0157032
-0.0134461
0.0176307
-0.00624945
0.0444777
0.180732
-0.0723887
0.0335135
0.0781992
-0.0659617
0.0279349
-0.0577651
0.0213343
-0.050669
0.0208098
-0.0424885
0.0146362
-0.0335814
0.0100887
-0.0231697
0.00529154
-0.0120953
0.00655639
-0.00390036
0.0362827
0.176832
-0.0754598
0.024876
0.0840973
-0.0678905
0.0203656
-0.0606735
0.0141173
-0.0537411
0.0138775
-0.0466546
0.00754972
-0.0390017
0.00243584
-0.0300107
-0.0036995
-0.0202116
-0.00324275
-0.0119563
0.0280275
0.164876
-0.0787263
0.0183139
0.0852883
-0.0721645
0.0138038
-0.0660727
0.00802553
-0.0601841
0.00798891
-0.054022
0.00138765
-0.0466614
-0.00492481
-0.0377108
-0.0126501
-0.0275125
-0.013441
-0.018323
0.018838
0.146553
-0.0803436
0.00888527
0.0897723
-0.0731427
0.0066029
-0.0685203
0.00340306
-0.0632539
0.00272257
-0.0602415
-0.00162479
-0.0578703
-0.00729597
-0.0565113
-0.0140091
-0.0559354
-0.014017
-0.048187
0.0110896
0.0983658
-0.0852371
0.0941223
-0.0786342
-0.0752311
-0.0725085
-0.0741333
-0.0814293
-0.0954384
-0.109455
-0.0983658
0.00258005
0.0807746
-0.00462442
0.00188029
0.0772075
0.00218308
0.0747499
0.00160322
0.0727199
0.00160778
0.0775444
0.000960892
0.0788461
0.00103243
0.0840258
0.000681744
0.085639
0.000435883
0.0900182
0.0945582
0.00405717
0.0828816
-0.00616414
0.00331906
0.0779456
0.00312389
0.0749451
0.00227849
0.0735653
0.00199623
0.0778266
0.0012386
0.0796037
0.00117171
0.0840927
0.0007117
0.086099
0.000474881
0.090255
0.0950331
0.0059845
0.0846578
-0.00776071
0.00507974
0.0788503
0.00434166
0.0756832
0.00315261
0.0747544
0.00252985
0.0784494
0.00161193
0.0805216
0.00136898
0.0843356
0.000763579
0.0867044
0.000517317
0.0905013
0.0955504
0.00799337
0.0860368
-0.00937237
0.00689267
0.079951
0.00566194
0.0769139
0.004122
0.0762943
0.00319651
0.0793749
0.00206796
0.0816502
0.00163146
0.0847721
0.000848191
0.0874877
0.000580532
0.0907689
0.0961309
0.00991045
0.0870419
-0.0109156
0.00863526
0.0812262
0.0070035
0.0785457
0.00517531
0.0781225
0.00396751
0.0805827
0.00263306
0.0829847
0.00197443
0.0854307
0.00100064
0.0884615
0.000674894
0.0910947
0.0968058
0.0116134
0.0876968
-0.0122682
0.0102509
0.0825887
0.00836877
0.0804278
0.00634243
0.0801488
0.00487546
0.0820497
0.00334866
0.0845115
0.00243596
0.0863434
0.00126106
0.0896364
0.000815811
0.0915399
0.0976217
0.0129995
0.0880214
-0.0133241
0.0116974
0.0838908
0.00975876
0.0823664
0.00764183
0.0822658
0.0059579
0.0837336
0.00424512
0.0862242
0.00305223
0.0875363
0.0016603
0.0910283
0.00101774
0.0921825
0.0986394
0.0140495
0.0880096
-0.0140377
0.0129707
0.0849697
0.0111591
0.084178
0.00906397
0.0843609
0.00721563
0.0855819
0.00532322
0.0881166
0.00383566
0.0890239
0.00220714
0.0926568
0.0012865
0.0931031
0.0999259
0.0148382
0.0876062
-0.0144348
0.0141189
0.0856889
0.0125642
0.0857326
0.0105815
0.0863436
0.00861755
0.0875459
0.00655454
0.0901797
0.0047693
0.0908091
0.0028857
0.0945404
0.00161635
0.0943725
0.101542
0.0154832
-0.0145907
0.0152207
0.0139987
0.012164
0.0101194
0.00789429
0.00581583
0.00366242
0.00199258
0.000190945
0.00443149
0.00137238
0.00625139
0.00367877
0.00525395
0.00708624
0.00277552
0.0114497
-0.000406002
0.0165371
-0.00375426
0.0220889
-0.00688065
0.0279072
-0.00953212
0.0339607
-0.0117049
-0.0127855
0.000367105
0.00406439
0.00202083
0.00459767
0.00504142
0.00223336
0.00929686
-0.00147993
0.0145058
-0.00561496
0.0203191
-0.00956751
0.0264182
-0.0129798
0.0325846
-0.0156985
0.0386553
-0.0177756
-0.0190102
0.000566669
0.00349772
0.00274274
0.0024216
0.00650714
-0.00153105
0.0115492
-0.00652196
0.0174095
-0.0114753
0.023627
-0.015785
0.0298526
-0.0192054
0.0358617
-0.0217077
0.0415613
-0.0234752
-0.0245002
0.000798852
0.00269887
0.00353889
-0.000318436
0.00801715
-0.00600931
0.0136711
-0.0121759
0.019862
-0.0176662
0.0260765
-0.0219995
0.0320047
-0.0251336
0.0375065
-0.0272095
0.0425872
-0.0285559
-0.0292418
0.00107163
0.00162723
0.00439245
-0.00363925
0.00946849
-0.0110854
0.0154484
-0.0181558
0.0215798
-0.0237977
0.0273969
-0.0278166
0.0327049
-0.0304416
0.0374953
-0.0319999
0.0418561
-0.0329167
-0.0332887
0.00138441
0.000242819
0.00525345
-0.00750829
0.0107146
-0.0165465
0.0166694
-0.0241106
0.0223755
-0.0295037
0.0275114
-0.0329525
0.0320388
-0.0349689
0.0360705
-0.0360316
0.0397408
-0.0365869
-0.036744
0.0017229
-0.00148008
0.00603973
-0.0118251
0.0116028
-0.0221096
0.0171966
-0.0297044
0.0222197
-0.0345268
0.0265463
-0.0372792
0.0302835
-0.0387061
0.0336165
-0.0393646
0.0366913
-0.0396617
-0.0397204
0.00206045
-0.00354053
0.00665605
-0.0164207
0.0120251
-0.0274787
0.0170073
-0.0346866
0.021227
-0.0387465
0.0247465
-0.0407986
0.02777
-0.0417297
0.0305025
-0.0420971
0.0330819
-0.0422412
-0.0422969
0.00236001
-0.00590054
0.00702157
-0.0210823
0.0119465
-0.0324036
0.0161776
-0.0389177
0.0195838
-0.0421527
0.0223675
-0.0435823
0.0247751
-0.0441373
0.0269956
-0.0443176
0.0291482
-0.0443938
-0.044503
0.00258392
-0.00848446
0.00709007
-0.0255884
0.0113981
-0.0367117
0.0148333
-0.0423529
0.0174767
-0.0447961
0.0196128
-0.0457183
0.0214864
-0.046011
0.0232544
-0.0460855
0.0250106
-0.0461501
-0.0463319
0.00276204
-0.0112465
0.00695149
-0.0297779
0.0105565
-0.0403166
0.0132056
-0.045002
0.0151453
-0.0467358
0.0166953
-0.0472683
0.018075
-0.0473906
0.0194052
-0.0474157
0.020754
-0.0474988
-0.0477524
0.00279142
-0.0140379
0.00648939
-0.0334759
0.00934241
-0.0431697
0.0112473
-0.0469069
0.0125555
-0.048044
0.013582
-0.0482947
0.0145074
-0.048316
0.0154184
-0.0483268
0.0163604
-0.0484408
-0.0487569
0.0026989
-0.0167368
0.00579825
-0.0365752
0.00789651
-0.0452679
0.00910955
-0.04812
0.00984233
-0.0487768
0.0103812
-0.0488336
0.0108658
-0.0488007
0.0113548
-0.0488157
0.0118754
-0.0489614
-0.049327
0.00248897
-0.0192258
0.00492631
-0.0390126
0.00629072
-0.0466323
0.00686392
-0.0486932
0.00706327
-0.0489761
0.00713458
-0.0489049
0.00718168
-0.0488478
0.00724187
-0.0488759
0.00732637
-0.0490459
-0.0494475
0.00217626
-0.021402
0.00392204
-0.0407583
0.00458583
-0.0472961
0.00456532