/*--------------------------------*- C++ -*----------------------------------*\
  =========                 |
  \\      /  F ield         | OpenFOAM: The Open Source CFD Toolbox
   \\    /   O peration     | Website:  https://openfoam.org
    \\  /    A nd           | Version:  7
     \\/     M anipulation  |
\*---------------------------------------------------------------------------*/
FoamFile
{
    version     2.0;
    format      ascii;
    class       volVectorField;
    location    "27.7";
    object      U;
}
// * * * * * * * * * * * * * * * * * * * * * * * * * * * * * * * * * * * * * //

dimensions      [0 1 -1 0 0 0 0];

internalField   nonuniform List<vector> 
2000
(
(0.00160301 0.00767948 3.03322e-23)
(0.00758585 0.0418216 0)
(0.0169287 0.0845161 0)
(0.0250853 0.128139 -3.04515e-22)
(0.0310288 0.168944 1.98728e-22)
(0.0347525 0.205944 1.09171e-22)
(0.0368953 0.239577 -3.53229e-22)
(0.0382257 0.270464 0)
(0.0392162 0.298645 0)
(0.0399756 0.323449 0)
(0.00139449 0.00522342 0)
(0.00595243 0.036234 -1.51403e-22)
(0.0143053 0.0773972 1.39611e-22)
(0.0221914 0.12096 4.05537e-22)
(0.0284686 0.162685 0)
(0.0327701 0.200879 9.26271e-22)
(0.0354243 0.235456 -8.61363e-22)
(0.0370545 0.266878 0)
(0.0381417 0.295359 2.64806e-21)
(0.0388545 0.320561 -5.43924e-21)
(0.00145856 0.00263624 0)
(0.00478542 0.0298778 2.20886e-21)
(0.0119904 0.0686317 0)
(0.0193765 0.1113 3.21831e-21)
(0.0258502 0.153416 0)
(0.0307584 0.192661 -4.18562e-21)
(0.0340842 0.228336 0)
(0.0362229 0.260582 5.22161e-21)
(0.0375958 0.289645 -4.89037e-21)
(0.0383745 0.315451 -5.76551e-21)
(0.00178082 9.72427e-05 -5.56626e-22)
(0.0041341 0.0231037 -9.29259e-22)
(0.0100911 0.0585885 -6.92261e-22)
(0.0167222 0.0993771 -1.22919e-21)
(0.0231437 0.141091 -1.83714e-21)
(0.0285559 0.180992 1.76311e-21)
(0.0326313 0.217781 2.25234e-21)
(0.0354793 0.251136 -1.83095e-22)
(0.0373753 0.28114 5.20563e-21)
(0.0383904 0.307798 5.74988e-21)
(0.0023096 -0.00222059 -6.44634e-22)
(0.0039958 0.0162947 -1.91144e-21)
(0.00870037 0.0477629 -4.60009e-21)
(0.0143572 0.0856312 1.96237e-21)
(0.0204079 0.125896 0)
(0.0260728 0.165701 0)
(0.0308256 0.203307 -5.59638e-21)
(0.0345002 0.23789 -5.81045e-21)
(0.037163 0.269197 5.81924e-21)
(0.038637 0.297011 1.84084e-20)
(0.0029682 -0.00416962 9.7883e-22)
(0.00432967 0.00982707 1.36239e-21)
(0.00789793 0.0367364 -7.6956e-21)
(0.012459 0.0707246 1.30691e-20)
(0.0178224 0.108352 -2.43635e-21)
(0.0233717 0.146949 0)
(0.0285385 0.184604 0)
(0.0329763 0.220123 2.95179e-20)
(0.0365594 0.252879 -2.93452e-20)
(0.0386688 0.282088 6.10255e-21)
(0.0036728 -0.00564975 9.17015e-21)
(0.00508159 0.00402858 0)
(0.00776252 0.0261206 9.81628e-21)
(0.0112498 0.0555069 -1.0432e-20)
(0.0156969 0.0893673 0)
(0.0207316 0.125424 6.12603e-21)
(0.0258896 0.161883 -1.78793e-20)
(0.0307985 0.197431 -2.41849e-20)
(0.0352754 0.231234 1.16125e-20)
(0.0379215 0.261627 1.18962e-20)
(0.00435633 -0.0066161 -1.97118e-20)
(0.00621939 -0.000842818 -2.95878e-21)
(0.00839781 0.0165104 -6.32887e-21)
(0.0110021 0.0409484 -1.53829e-20)
(0.0144623 0.0702006 -6.44571e-21)
(0.0186659 0.102447 -6.8283e-21)
(0.0233464 0.136198 -5.27443e-22)
(0.028268 0.170284 0)
(0.0334241 0.203983 0)
(0.0361529 0.234471 -5.59288e-22)
(0.00499397 -0.00708318 1.0542e-20)
(0.00776655 -0.0046139 -1.27112e-20)
(0.00995806 0.00843497 8.80154e-21)
(0.0120436 0.0280439 2.24306e-20)
(0.0146471 0.0523434 -6.28946e-21)
(0.0178838 0.0798985 6.14369e-21)
(0.021718 0.109559 6.42244e-21)
(0.0261871 0.140437 0)
(0.0317423 0.172156 0)
(0.0341761 0.200187 2.76212e-22)
(0.00562273 -0.00711822 -1.53178e-21)
(0.00982197 -0.00720096 1.61969e-20)
(0.0126554 0.00231177 -3.21218e-21)
(0.0147444 0.0176983 0)
(0.0168284 0.0373203 0)
(0.0191897 0.0599767 1.34263e-20)
(0.0219906 0.0847476 0)
(0.0255587 0.110945 -1.31188e-20)
(0.0310288 0.138256 1.29723e-22)
(0.0348395 0.160629 1.15011e-20)
(0.0423909 0.369261 3.25221e-22)
(0.0308691 0.406362 -3.29371e-22)
(0.028425 0.422533 -4.94536e-22)
(0.0228183 0.429646 -5.97905e-22)
(0.0158948 0.4342 -7.35119e-22)
(0.0113069 0.442605 -2.2788e-23)
(0.00111925 0.469149 3.8855e-22)
(0.00304134 0.544966 1.31895e-21)
(-0.0118042 0.69822 0)
(0.00459034 0.882067 -9.3991e-22)
(0.0411775 0.368327 8.6387e-22)
(0.0312795 0.406664 -1.74835e-21)
(0.0283071 0.423261 3.2212e-21)
(0.022767 0.430877 5.98987e-22)
(0.0158038 0.435759 1.31929e-21)
(0.011179 0.444199 2.23599e-21)
(0.0010477 0.470202 -8.20592e-22)
(0.00270207 0.545705 -8.81976e-22)
(-0.0116481 0.697607 1.72595e-21)
(0.00402159 0.880434 9.37676e-22)
(0.0406846 0.365921 0)
(0.0322708 0.406512 -1.51318e-21)
(0.028714 0.423992 -9.67311e-22)
(0.0231306 0.432133 0)
(0.0160293 0.437285 -4.05173e-21)
(0.011312 0.445608 1.27665e-21)
(0.00119492 0.470934 1.43705e-21)
(0.0024812 0.54569 4.86321e-21)
(-0.0114309 0.69659 -1.72037e-21)
(0.00352768 0.878704 3.44779e-21)
(0.0408051 0.361876 0)
(0.0337045 0.405634 1.52641e-21)
(0.0295679 0.424467 0)
(0.0238664 0.43329 4.68539e-21)
(0.0165607 0.438724 -4.70868e-21)
(0.0117182 0.446873 -2.86663e-21)
(0.00155689 0.471285 -1.50073e-22)
(0.00243331 0.544833 -4.76698e-21)
(-0.011105 0.694824 -7.87843e-22)
(0.00309636 0.876406 -4.25168e-21)
(0.0413695 0.356008 1.30828e-21)
(0.0354657 0.404195 -3.36398e-21)
(0.0308384 0.425024 6.40719e-22)
(0.0249229 0.43456 -3.92739e-21)
(0.0173252 0.440172 0)
(0.0123128 0.448053 -2.75737e-21)
(0.00204551 0.471344 -1.84193e-22)
(0.00248945 0.543529 6.06781e-21)
(-0.0107606 0.692994 7.87085e-22)
(0.00268868 0.874245 -7.89911e-22)
(0.0422261 0.34768 -8.96194e-21)
(0.0374059 0.401148 6.57813e-21)
(0.032413 0.424785 3.79725e-21)
(0.0262967 0.435474 -3.79363e-21)
(0.0184016 0.441474 -2.26761e-21)
(0.0131974 0.449108 0)
(0.00277164 0.471035 -5.51294e-21)
(0.00277555 0.54136 2.75321e-21)
(-0.0102925 0.689954 2.94339e-21)
(0.00231723 0.871261 3.00378e-21)
(0.0429723 0.336779 -1.08252e-21)
(0.0395197 0.397972 0)
(0.0343052 0.425137 0)
(0.0278318 0.436779 0)
(0.0195344 0.442933 -2.4273e-21)
(0.0140926 0.450192 4.68631e-21)
(0.00348726 0.470719 5.39409e-21)
(0.00304911 0.539369 -8.30192e-21)
(-0.00990119 0.687621 1.43823e-21)
(0.00194292 0.869011 -4.39936e-21)
(0.0434141 0.320656 6.15998e-21)
(0.0414714 0.39072 6.05361e-21)
(0.0363371 0.423026 -5.99439e-21)
(0.029796 0.436995 8.16644e-21)
(0.0212068 0.444 -1.01899e-20)
(0.0155066 0.451065 0)
(0.00463954 0.469834 -2.46224e-21)
(0.00369684 0.535799 1.0517e-22)
(-0.00929159 0.682946 -2.64904e-21)
(0.00161963 0.865258 -2.72396e-21)
(0.0429072 0.303444 -5.11089e-21)
(0.0436326 0.386802 0)
(0.0384295 0.423643 -7.70227e-21)
(0.0313518 0.43863 1.47312e-20)
(0.0223006 0.445691 -5.66852e-21)
(0.0163495 0.452343 -1.11141e-21)
(0.00534644 0.469784 2.45701e-21)
(0.00400658 0.534238 2.48443e-23)
(-0.00895668 0.68114 3.85519e-21)
(0.00125705 0.86346 3.9746e-21)
(0.0423995 0.26921 -4.67414e-21)
(0.0448384 0.36931 4.54108e-21)
(0.040887 0.416924 7.52315e-22)
(0.0343705 0.437255 0)
(0.0250786 0.446204 0)
(0.0187317 0.452837 1.07016e-21)
(0.00725298 0.467735 4.57886e-21)
(0.00520325 0.528044 -4.46751e-21)
(-0.00811983 0.673733 -1.168e-21)
(0.00099533 0.858509 1.12597e-21)
(0.0400117 0.248772 0)
(0.0521975 0.369378 0)
(0.0438041 0.422858 0)
(0.0343188 0.443711 0)
(0.0241409 0.451969 0)
(0.0178031 0.45827 0)
(0.00713783 0.472502 0)
(0.00491391 0.532566 0)
(-0.00799927 0.675827 0)
(5.46127e-05 0.857574 0)
(0.0397293 0.240557 0)
(0.0604274 0.367722 0)
(0.0544733 0.430444 0)
(0.0442936 0.45512 0)
(0.0317865 0.463146 0)
(0.022818 0.467747 0)
(0.0114793 0.480126 0)
(0.00789875 0.538364 0)
(-0.0045924 0.676219 0)
(0.000588552 0.848219 0)
(0.0420635 0.243054 0)
(0.0596085 0.37066 0)
(0.0518773 0.439651 0)
(0.0417305 0.466094 0)
(0.030615 0.47364 0)
(0.0222221 0.476756 0)
(0.0115043 0.488292 0)
(0.00699862 0.546564 0)
(-0.0048745 0.684602 0)
(-0.000603458 0.854793 0)
(0.0415351 0.239767 0)
(0.0583819 0.365353 0)
(0.0549882 0.444001 0)
(0.0443494 0.474481 0)
(0.0325061 0.482748 0)
(0.0244241 0.485688 0)
(0.0152002 0.496979 0)
(0.0109739 0.552788 0)
(9.1506e-05 0.683608 0)
(0.000663969 0.841209 0)
(0.0373362 0.244971 0)
(0.0442339 0.365427 0)
(0.0437403 0.451136 0)
(0.0376622 0.484884 0)
(0.0284423 0.491846 0)
(0.0212565 0.492281 0)
(0.0126151 0.503397 0)
(0.00773075 0.562253 0)
(-0.00238292 0.697765 0)
(-0.000176027 0.857172 0)
(0.0304657 0.241975 0)
(0.038017 0.362336 0)
(0.036117 0.451676 0)
(0.031322 0.490407 0)
(0.0254573 0.500316 0)
(0.0216702 0.501222 0)
(0.0160389 0.511694 0)
(0.0121768 0.567068 0)
(0.00184747 0.69296 0)
(0.000249471 0.838475 0)
(0.0153432 0.244816 0)
(0.0169887 0.362001 0)
(0.0205648 0.455521 0)
(0.0187495 0.493538 0)
(0.0156197 0.501247 0)
(0.0141052 0.500674 0)
(0.0105925 0.513253 0)
(0.00772491 0.575092 0)
(0.000663988 0.709286 0)
(0.00123948 0.859426 0)
(0.010324 0.249417 0)
(0.00699756 0.361595 0)
(0.00887448 0.453826 0)
(0.00971844 0.496102 0)
(0.00902141 0.505595 0)
(0.00932204 0.506216 0)
(0.00768347 0.519792 0)
(0.00501404 0.57894 0)
(-0.00258512 0.701916 0)
(-0.00246095 0.839717 0)
(-0.00673463 0.246446 0)
(-0.0070002 0.360384 0)
(-0.00435649 0.451269 0)
(-9.24093e-05 0.492945 0)
(0.0021679 0.501414 0)
(0.00434564 0.500742 0)
(0.00453043 0.516012 0)
(0.00463903 0.582258 0)
(0.00304127 0.715641 0)
(1.28987e-05 0.854744 0)
(-0.00682528 0.262731 0)
(-0.0142835 0.362077 0)
(-0.0129025 0.447248 0)
(-0.0106997 0.488816 0)
(-0.0102398 0.501201 0)
(-0.0114431 0.5043 0)
(-0.014871 0.520386 0)
(-0.0163626 0.58097 0)
(-0.0120766 0.705533 0)
(-0.00279055 0.840227 0)
(0.0420154 0.144812 3.53193e-21)
(0.0516862 0.166421 -3.47675e-21)
(0.0569785 0.190815 1.52966e-22)
(0.0536144 0.20249 0)
(0.0449283 0.211178 0)
(0.0331153 0.207209 -2.05437e-22)
(0.0183925 0.208802 7.9775e-22)
(0.0105191 0.208135 -7.84038e-22)
(-0.00188286 0.207433 -7.49307e-23)
(0.000827065 0.223454 7.28317e-23)
(0.0519951 0.120303 -4.76118e-21)
(0.0596277 0.150337 0)
(0.0608937 0.17867 1.73728e-22)
(0.054113 0.191877 4.5464e-22)
(0.043414 0.199415 -1.08705e-21)
(0.0309673 0.194159 2.00785e-22)
(0.0173696 0.194866 -4.27615e-22)
(0.00976655 0.191805 -6.44257e-22)
(-8.28445e-05 0.192528 2.34857e-24)
(0.00307525 0.206017 1.62289e-23)
(0.0636944 0.113128 5.16817e-21)
(0.0682917 0.147004 -1.29871e-21)
(0.0650747 0.173412 1.28624e-21)
(0.0546621 0.184263 1.04996e-21)
(0.0416138 0.188748 -7.15887e-22)
(0.028508 0.18165 0)
(0.015987 0.180969 4.28604e-22)
(0.0090242 0.175585 4.09109e-24)
(0.00154057 0.177555 2.18302e-22)
(0.00499009 0.186611 5.11639e-23)
(0.0761889 0.114986 -7.61313e-22)
(0.0761165 0.147492 0)
(0.0682534 0.168448 0)
(0.0544985 0.175334 0)
(0.0394894 0.17639 -1.31444e-21)
(0.0260087 0.167768 8.79371e-22)
(0.0144886 0.165625 -4.62592e-23)
(0.00828295 0.158333 3.0953e-22)
(0.00286911 0.160734 6.49208e-23)
(0.00634167 0.16437 -1.28239e-23)
(0.0880615 0.118491 -1.10178e-21)
(0.0819791 0.145061 -1.57598e-21)
(0.0697617 0.158987 3.84837e-22)
(0.0532361 0.16181 -3.84541e-22)
(0.0368394 0.160002 4.28857e-22)
(0.0233377 0.150649 0)
(0.0127511 0.147311 4.45034e-22)
(0.00738461 0.138705 -6.27992e-22)
(0.0035849 0.140519 2.75396e-22)
(0.00692069 0.138847 -5.21485e-23)
(0.0974527 0.117651 -3.86487e-21)
(0.0853083 0.13569 1.12007e-21)
(0.0696797 0.142528 5.485e-22)
(0.0511832 0.142073 -5.4708e-22)
(0.0339682 0.138342 0)
(0.0206473 0.1291 0)
(0.0108585 0.124965 0)
(0.00625101 0.115645 -3.43168e-22)
(0.00355571 0.116134 0)
(0.00674915 0.110244 0)
(0.103252 0.108766 0)
(0.0861389 0.117965 -1.70841e-22)
(0.0683571 0.118666 1.82351e-22)
(0.0487261 0.116082 9.82432e-22)
(0.0311996 0.111325 -9.87449e-22)
(0.0181249 0.102821 -4.96094e-22)
(0.00892626 0.0982791 5.56662e-22)
(0.00486144 0.0888012 1.21396e-21)
(0.00285122 0.0878229 -1.02437e-22)
(0.00599947 0.0794158 2.40891e-23)
(0.105317 0.0908562 0)
(0.084935 0.0926498 -1.05178e-23)
(0.0662518 0.0885867 1.60391e-22)
(0.0461895 0.0849627 0)
(0.028735 0.0798035 -2.68974e-22)
(0.0158723 0.072382 8.3339e-22)
(0.00703376 0.0677784 -6.53237e-22)
(0.00328053 0.0587125 -1.40268e-22)
(0.00170838 0.0567556 8.89933e-23)
(0.00492822 0.0476681 -5.4814e-23)
(0.104203 0.065305 3.99654e-22)
(0.0823049 0.0619469 -2.16779e-22)
(0.0637686 0.0543946 -2.90332e-23)
(0.0437929 0.0505106 -1.32604e-22)
(0.0266443 0.045248 -2.84076e-22)
(0.0139319 0.0390346 -4.13745e-22)
(0.00526031 0.0347224 1.12105e-22)
(0.00167865 0.0267024 8.07977e-23)
(0.000434028 0.0246542 -8.92843e-23)
(0.00378855 0.0164322 -1.36759e-23)
(0.100728 0.0348433 -6.61989e-24)
(0.0788232 0.028606 6.70236e-24)
(0.0611604 0.0184577 8.76865e-23)
(0.0416501 0.0147309 1.32401e-22)
(0.0249042 0.00944069 -1.40441e-22)
(0.0123466 0.00447012 2.79647e-22)
(0.00370916 0.000854607 -1.59678e-22)
(0.000289046 -0.0054698 -3.29125e-23)
(-0.000702424 -0.00670396 0)
(0.00262399 -0.0130674 1.36565e-23)
(0.0957279 0.00241919 4.14232e-24)
(0.0750122 -0.00482154 -4.18831e-24)
(0.0585749 -0.0170575 8.77239e-23)
(0.0397772 -0.020474 1.30088e-22)
(0.0234853 -0.0257859 1.378e-22)
(0.0111369 -0.0294676 -6.8934e-24)
(0.00254326 -0.0319665 -6.03975e-23)
(-0.000677744 -0.0360766 -1.22182e-22)
(-0.00144135 -0.0359037 0)
(0.00183302 -0.0400665 1.23867e-23)
(0.0900009 -0.0295319 0)
(0.0711832 -0.0363541 2.3408e-22)
(0.0561017 -0.0504071 -4.86394e-22)
(0.0381483 -0.0534968 -1.30278e-22)
(0.0223915 -0.0587745 -2.67291e-22)
(0.0103391 -0.0611201 -3.8555e-22)
(0.00190704 -0.0621773 1.06539e-22)
(-0.00110695 -0.06386 7.54999e-23)
(-0.0016809 -0.0621274 -7.87676e-23)
(0.00128576 -0.064296 -1.23521e-23)
(0.0840828 -0.0592584 0)
(0.0674731 -0.0647231 7.72649e-23)
(0.0537558 -0.0803765 1.63167e-22)
(0.0367764 -0.0831756 0)
(0.0216352 -0.0882738 7.73686e-22)
(0.0100224 -0.0893117 -2.5605e-22)
(0.00184569 -0.0887976 -2.20633e-22)
(-0.00104214 -0.088239 -4.51002e-22)
(-0.00152422 -0.0851918 7.85102e-23)
(0.000938582 -0.0858814 -4.55297e-23)
(0.0782995 -0.085705 0)
(0.0640206 -0.0894003 -7.79021e-23)
(0.0515159 -0.106271 0)
(0.0357038 -0.108909 -9.2219e-22)
(0.0212193 -0.113599 9.27002e-22)
(0.0101999 -0.113528 4.22162e-22)
(0.0023255 -0.11153 -3.39005e-23)
(-0.000492846 -0.109266 4.40661e-22)
(-0.00113173 -0.105402 8.24543e-23)
(0.00073838 -0.105175 6.96013e-23)
(0.0728985 -0.108459 2.64706e-21)
(0.0608948 -0.110463 -9.36969e-22)
(0.0494008 -0.127898 -3.87585e-22)
(0.0349426 -0.130662 6.0699e-22)
(0.0211252 -0.134677 0)
(0.010799 -0.133895 3.96122e-22)
(0.00322292 -0.130707 -8.80532e-23)
(0.000429998 -0.127418 -5.77265e-22)
(-0.000565032 -0.123258 -2.35209e-23)
(0.000622772 -0.122616 2.35065e-23)
(0.0680273 -0.127605 1.27598e-21)
(0.0581477 -0.128442 9.93669e-22)
(0.0474627 -0.145495 -5.00459e-22)
(0.0344636 -0.148864 5.00185e-22)
(0.0213039 -0.151935 3.85189e-22)
(0.0116798 -0.150993 0)
(0.00436135 -0.146987 6.17104e-22)
(0.00145363 -0.143383 -3.37375e-22)
(6.50612e-05 -0.139323 -1.92034e-22)
(0.00054196 -0.138594 -4.09357e-23)
(0.0637814 -0.143508 -5.49663e-22)
(0.0558746 -0.144148 0)
(0.0457836 -0.159605 0)
(0.0342137 -0.164224 0)
(0.0216907 -0.166106 3.48242e-22)
(0.0126819 -0.165601 -7.32492e-22)
(0.00557325 -0.161128 -5.98553e-22)
(0.00242425 -0.157798 7.33317e-22)
(0.000609436 -0.154087 -4.32663e-23)
(0.000470731 -0.153462 8.33482e-23)
(0.0600595 -0.156581 -1.6862e-21)
(0.0540722 -0.158477 3.14465e-22)
(0.0443861 -0.170943 -3.11531e-22)
(0.0340964 -0.17751 -1.12411e-21)
(0.0222283 -0.178015 1.41681e-21)
(0.0136878 -0.178478 0)
(0.00675386 -0.173816 2.82378e-22)
(0.00327431 -0.17118 -1.26285e-23)
(0.00106365 -0.167923 1.23754e-22)
(0.000403097 -0.167504 3.7237e-23)
(0.0560017 -0.166995 -6.65965e-22)
(0.0521262 -0.172251 0)
(0.043004 -0.180313 2.81966e-22)
(0.0338693 -0.189415 -1.2368e-21)
(0.0228242 -0.188442 6.1243e-22)
(0.0146393 -0.190238 1.43312e-22)
(0.00789097 -0.185579 -2.81735e-22)
(0.00401231 -0.183888 -4.67175e-23)
(0.00145543 -0.181099 -2.43168e-22)
(0.000345834 -0.180937 -7.51113e-23)
(0.0521324 -0.174352 -2.47467e-21)
(0.049871 -0.186132 2.41148e-21)
(0.0417112 -0.188627 3.03646e-23)
(0.03338 -0.200533 0)
(0.0232654 -0.198071 0)
(0.0153197 -0.201339 -1.47699e-22)
(0.00886158 -0.196782 -4.51815e-22)
(0.00460322 -0.196142 4.43279e-22)
(0.00179094 -0.193789 3.75527e-23)
(0.000298198 -0.19393 -3.67161e-23)
(0.0571923 -0.182857 0)
(0.0512532 -0.218334 0)
(0.0430118 -0.207405 0)
(0.0334938 -0.225819 0)
(0.0238781 -0.220313 0)
(0.0156467 -0.22724 0)
(0.00976571 -0.223163 0)
(0.00489715 -0.22504 0)
(0.00208378 -0.223415 0)
(0.000145779 -0.224103 0)
(0.0462265 -0.234058 0)
(0.0391372 -0.266523 0)
(0.035033 -0.254147 0)
(0.0270598 -0.271822 0)
(0.0209724 -0.265644 0)
(0.0142618 -0.274125 0)
(0.00966205 -0.270663 0)
(0.00478602 -0.274185 0)
(0.00245321 -0.272237 0)
(-1.43064e-05 -0.273461 0)
(0.0430471 -0.284599 0)
(0.0344106 -0.317133 0)
(0.0301289 -0.303251 0)
(0.0226874 -0.321919 0)
(0.0179467 -0.314443 0)
(0.012158 -0.324637 0)
(0.00848574 -0.320353 0)
(0.00443782 -0.324795 0)
(0.00239715 -0.32189 0)
(1.59366e-05 -0.323686 0)
(0.0378224 -0.34016 0)
(0.0291761 -0.373049 0)
(0.025577 -0.357112 0)
(0.0188164 -0.37693 0)
(0.0150891 -0.367692 0)
(0.010225 -0.379425 0)
(0.00747618 -0.373361 0)
(0.00416107 -0.379015 0)
(0.00237662 -0.37441 0)
(0.000115432 -0.377291 0)
(0.0322686 -0.404185 0)
(0.0244544 -0.437372 0)
(0.021305 -0.419416 0)
(0.0154472 -0.44055 0)
(0.0126629 -0.429309 0)
(0.00864847 -0.442577 0)
(0.00663191 -0.434575 0)
(0.00386795 -0.441579 0)
(0.00228111 -0.435249 0)
(0.000181936 -0.439587 0)
(0.0270132 -0.481498 0)
(0.0200101 -0.514872 0)
(0.0174643 -0.495611 0)
(0.0124446 -0.518046 0)
(0.0105231 -0.505219 0)
(0.00714602 -0.519973 0)
(0.00576755 -0.510287 0)
(0.00336179 -0.518766 0)
(0.00210554 -0.510819 0)
(0.000140378 -0.516877 0)
(0.0210927 -0.57804 0)
(0.015707 -0.609631 0)
(0.0136706 -0.591643 0)
(0.009659 -0.61393 0)
(0.00830905 -0.601007 0)
(0.0054974 -0.616372 0)
(0.00455127 -0.606096 0)
(0.00241969 -0.615627 0)
(0.0015094 -0.606996 0)
(-4.02209e-05 -0.614584 0)
(0.0163399 -0.690935 0)
(0.0116967 -0.716248 0)
(0.00982908 -0.703568 0)
(0.00653258 -0.722083 0)
(0.00562324 -0.71225 0)
(0.00333382 -0.725593 0)
(0.00267222 -0.717023 0)
(0.000846462 -0.725712 0)
(0.000463894 -0.718215 0)
(-0.000307505 -0.725884 0)
(0.008835 -0.795106 0)
(0.00588971 -0.808949 0)
(0.00492602 -0.805376 0)
(0.00330287 -0.816732 0)
(0.00278668 -0.812844 0)
(0.00138193 -0.820682 0)
(0.000819511 -0.815877 0)
(-0.000354399 -0.820815 0)
(-0.000356605 -0.816164 0)
(-0.000371974 -0.821127 0)
(0.00164658 -0.853109 0)
(0.00110982 -0.86298 0)
(0.00103335 -0.86482 0)
(0.000914803 -0.870527 0)
(0.000711952 -0.869967 0)
(0.000336065 -0.873254 0)
(2.76249e-05 -0.87104 0)
(-0.000316458 -0.872674 0)
(-0.000300569 -0.87022 0)
(-0.000149596 -0.872358 0)
(0.0535659 -0.20242 4.28982e-21)
(0.0468999 -0.253016 -4.21144e-21)
(0.044823 -0.30351 6.19461e-22)
(0.0395882 -0.359506 0)
(0.0343869 -0.423706 0)
(0.0290848 -0.500831 8.75596e-22)
(0.0233129 -0.595255 -4.03474e-21)
(0.0174898 -0.701047 4.01945e-21)
(0.0109076 -0.798823 1.20466e-21)
(0.00349738 -0.84915 -1.19301e-21)
(0.0526058 -0.210055 -5.16284e-21)
(0.0476022 -0.259622 0)
(0.0456599 -0.309452 4.42499e-21)
(0.0404421 -0.365228 -1.04837e-20)
(0.0353771 -0.429331 7.02094e-21)
(0.0300427 -0.506347 -7.88944e-22)
(0.0243047 -0.599936 1.90621e-21)
(0.0180427 -0.703889 4.18588e-21)
(0.0118477 -0.798594 1.27054e-21)
(0.00433507 -0.848839 1.28238e-21)
(0.0522541 -0.217662 6.21454e-21)
(0.0488668 -0.266452 -4.73911e-21)
(0.0468378 -0.315198 4.69413e-21)
(0.0416268 -0.370265 -5.99947e-21)
(0.0366269 -0.433976 4.42728e-21)
(0.0311969 -0.51065 0)
(0.025358 -0.603306 -1.91098e-21)
(0.0187337 -0.705672 1.64876e-22)
(0.0124438 -0.7973 -2.22491e-21)
(0.00473121 -0.848928 -2.43268e-21)
(0.0524561 -0.224453 -1.01579e-21)
(0.050546 -0.272922 0)
(0.0483703 -0.320806 0)
(0.0431894 -0.3752 0)
(0.0381793 -0.438501 5.38675e-21)
(0.0325857 -0.514733 -3.61791e-21)
(0.0265436 -0.606415 -4.75864e-23)
(0.0195701 -0.707056 -2.50014e-21)
(0.0128002 -0.796097 -1.28642e-21)
(0.00479089 -0.847858 -1.39232e-21)
(0.0532608 -0.230466 2.58582e-22)
(0.052552 -0.278414 -3.26743e-21)
(0.0502004 -0.325597 -2.92135e-21)
(0.0450793 -0.379532 2.91956e-21)
(0.039998 -0.442568 -1.74496e-21)
(0.0341905 -0.518433 0)
(0.0278908 -0.609226 -2.23546e-21)
(0.0205464 -0.708177 5.12933e-21)
(0.0131483 -0.795038 -2.65136e-21)
(0.00475947 -0.845674 2.71066e-21)
(0.0547343 -0.23583 -8.93232e-21)
(0.0549182 -0.282843 7.76694e-22)
(0.0523364 -0.329247 -4.04493e-22)
(0.0472619 -0.382806 3.08056e-21)
(0.0420429 -0.445674 0)
(0.0359793 -0.521269 0)
(0.0293891 -0.611319 0)
(0.0216573 -0.708801 2.80172e-21)
(0.0136399 -0.793817 0)
(0.004798 -0.842903 0)
(0.0569021 -0.240463 0)
(0.0577033 -0.28625 4.11379e-21)
(0.0548374 -0.331763 -2.8015e-21)
(0.0497527 -0.384908 -3.76746e-21)
(0.0443154 -0.447602 3.7871e-21)
(0.0379467 -0.522967 2.45333e-21)
(0.0310275 -0.612402 -2.4129e-21)
(0.022893 -0.708693 -1.00539e-20)
(0.0143025 -0.792207 7.14623e-22)
(0.00494312 -0.839938 -2.56237e-21)
(0.0597719 -0.2442 0)
(0.0609437 -0.288588 -1.31583e-21)
(0.0577553 -0.333178 -8.16914e-22)
(0.0525838 -0.385866 0)
(0.0468447 -0.448339 1.1878e-21)
(0.0401165 -0.523465 -3.58819e-21)
(0.0328204 -0.612372 4.14985e-21)
(0.0242593 -0.707717 1.52215e-21)
(0.0151169 -0.790084 -1.71827e-21)
(0.00518112 -0.836876 3.3862e-21)
(0.0633564 -0.246909 1.09619e-21)
(0.0646634 -0.289772 1.53732e-21)
(0.0611178 -0.333461 -3.04814e-22)
(0.0557777 -0.385686 5.08997e-22)
(0.0496616 -0.447911 1.11121e-21)
(0.0425188 -0.522807 1.94663e-21)
(0.0347896 -0.611281 -7.6134e-22)
(0.025757 -0.705916 -8.43894e-22)
(0.0160389 -0.787472 1.72396e-21)
(0.00547274 -0.833699 9.59001e-22)
(0.0676751 -0.248488 -3.3421e-22)
(0.068886 -0.289734 3.36842e-22)
(0.0649392 -0.33256 -4.30615e-22)
(0.0593446 -0.384331 -5.08382e-22)
(0.0527863 -0.446302 6.49863e-22)
(0.0451792 -0.520991 -1.33166e-21)
(0.0369666 -0.60913 1.17357e-21)
(0.0274145 -0.703277 4.29299e-22)
(0.0170746 -0.78434 0)
(0.00581907 -0.830296 -9.61104e-22)
(0.0727525 -0.248873 3.48443e-22)
(0.0736327 -0.288458 -3.51367e-22)
(0.0692279 -0.330457 -4.8235e-22)
(0.0632926 -0.381774 -5.72554e-22)
(0.0562333 -0.4435 -6.90073e-22)
(0.0481094 -0.518053 -6.55587e-23)
(0.0393565 -0.606011 4.21045e-22)
(0.0292227 -0.699933 1.39087e-21)
(0.018197 -0.780789 0)
(0.00619398 -0.826673 -1.07809e-21)
(0.0786117 -0.248038 0)
(0.0789167 -0.285994 -1.80383e-21)
(0.0739896 -0.32717 3.32242e-21)
(0.0676281 -0.37803 5.73566e-22)
(0.0600111 -0.439489 1.4122e-21)
(0.0513264 -0.513923 2.37643e-21)
(0.0419926 -0.6018 -8.57782e-22)
(0.0312315 -0.695735 -9.49157e-22)
(0.0194616 -0.776697 2.17303e-21)
(0.00663841 -0.822738 1.07553e-21)
(0.0852596 -0.246031 0)
(0.0847422 -0.282467 -1.75778e-21)
(0.0792274 -0.32278 -1.02493e-21)
(0.0723594 -0.373152 0)
(0.064137 -0.434336 -4.51905e-21)
(0.0548287 -0.508742 1.51051e-21)
(0.044847 -0.596705 1.88345e-21)
(0.033389 -0.690922 6.21516e-21)
(0.0208046 -0.772256 -2.16601e-21)
(0.00709699 -0.818602 4.78978e-21)
(0.0926874 -0.242962 0)
(0.0911085 -0.277966 1.7729e-21)
(0.0849536 -0.317341 0)
(0.0774906 -0.367239 5.70998e-21)
(0.0686151 -0.428034 -5.73924e-21)
(0.0586557 -0.502334 -3.71798e-21)
(0.047999 -0.590393 -1.00589e-22)
(0.0357979 -0.685077 -6.4504e-21)
(0.0223366 -0.767161 -1.07128e-21)
(0.00765879 -0.81409 -5.95766e-21)
(0.10088 -0.23899 1.13197e-20)
(0.0980194 -0.272626 -4.38305e-21)
(0.09114 -0.3111 8.8583e-22)
(0.083031 -0.360317 -5.15096e-21)
(0.073485 -0.420683 0)
(0.0627854 -0.494972 -3.92873e-21)
(0.0513613 -0.583397 -4.2298e-22)
(0.038309 -0.678864 8.82796e-21)
(0.0238857 -0.761869 1.25196e-21)
(0.00818562 -0.809456 -1.25648e-21)
(0.109809 -0.234312 -2.29267e-21)
(0.105471 -0.26638 8.92166e-21)
(0.0978506 -0.303849 5.4289e-21)
(0.0890484 -0.352161 -5.42516e-21)
(0.0787623 -0.412076 -3.51637e-21)
(0.0672995 -0.486231 0)
(0.0550944 -0.57493 -9.07964e-21)
(0.0411782 -0.671317 4.54259e-21)
(0.0257267 -0.755693 4.97416e-21)
(0.00888652 -0.804313 5.48441e-21)
(0.119399 -0.22921 -1.52191e-21)
(0.113529 -0.259403 0)
(0.105015 -0.295949 0)
(0.0954392 -0.343559 0)
(0.0843423 -0.403105 -4.21079e-21)
(0.0720244 -0.477338 7.71349e-21)
(0.0589168 -0.566612 9.3041e-21)
(0.0440002 -0.664116 -1.48672e-20)
(0.0274424 -0.749719 2.73806e-21)
(0.00943401 -0.799224 -8.14435e-21)
(0.129553 -0.223003 -1.48607e-21)
(0.122286 -0.251195 9.87129e-21)
(0.112694 -0.286855 -9.7768e-21)
(0.102347 -0.333526 1.42045e-20)
(0.0904765 -0.392309 -1.79487e-20)
(0.0773465 -0.46618 0)
(0.063379 -0.555719 -4.92106e-21)
(0.0474761 -0.654571 -2.57808e-22)
(0.0297002 -0.742287 -5.74569e-21)
(0.0103306 -0.793319 -5.92336e-21)
(0.139898 -0.217853 -1.58882e-21)
(0.131272 -0.24425 0)
(0.120411 -0.279191 -1.41222e-20)
(0.109247 -0.325159 2.7428e-20)
(0.0965191 -0.383524 -1.08144e-20)
(0.0824405 -0.457463 -2.29542e-21)
(0.0674701 -0.547532 4.91068e-21)
(0.0504523 -0.647332 -3.39158e-22)
(0.0314687 -0.736046 8.32622e-21)
(0.0107946 -0.787875 8.76298e-21)
(0.151967 -0.207357 -7.75728e-21)
(0.14226 -0.232495 7.59606e-21)
(0.129753 -0.266718 1.44193e-21)
(0.117635 -0.311595 0)
(0.104079 -0.368982 0)
(0.0890974 -0.44242 2.21362e-21)
(0.0731244 -0.533016 1.0461e-20)
(0.0549136 -0.635026 -1.01555e-20)
(0.0344092 -0.727015 -2.87087e-21)
(0.0120471 -0.780945 2.81143e-21)
(0.169112 -0.215174 0)
(0.168189 -0.232349 0)
(0.148227 -0.264983 0)
(0.133399 -0.307821 0)
(0.117503 -0.362913 0)
(0.100273 -0.434292 0)
(0.0821539 -0.52269 0)
(0.0614514 -0.622507 0)
(0.0381828 -0.713112 0)
(0.0124237 -0.76737 0)
(0.203563 -0.195906 0)
(0.212247 -0.217041 0)
(0.179036 -0.252556 0)
(0.163525 -0.295001 0)
(0.144553 -0.349712 0)
(0.124131 -0.420274 0)
(0.102375 -0.506486 0)
(0.0772563 -0.602115 0)
(0.0488371 -0.68723 0)
(0.0178898 -0.735927 0)
(0.242934 -0.170724 0)
(0.252571 -0.189684 0)
(0.209273 -0.226211 0)
(0.197807 -0.270231 0)
(0.175262 -0.32438 0)
(0.150923 -0.393591 0)
(0.124553 -0.476675 0)
(0.0937572 -0.568663 0)
(0.0583748 -0.651423 0)
(0.0186811 -0.701419 0)
(0.286502 -0.149224 0)
(0.295722 -0.166415 0)
(0.249821 -0.208057 0)
(0.243534 -0.252834 0)
(0.213971 -0.304599 0)
(0.185758 -0.371688 0)
(0.154917 -0.450784 0)
(0.117612 -0.537026 0)
(0.0743754 -0.611859 0)
(0.0273782 -0.653216 0)
(0.338135 -0.122423 0)
(0.348601 -0.141681 0)
(0.301201 -0.184754 0)
(0.295213 -0.222584 0)
(0.255614 -0.269288 0)
(0.225118 -0.333338 0)
(0.187479 -0.407654 0)
(0.140892 -0.487862 0)
(0.0877087 -0.558403 0)
(0.0273209 -0.602231 0)
(0.408448 -0.108648 0)
(0.418762 -0.130398 0)
(0.366015 -0.168933 0)
(0.359729 -0.199059 0)
(0.311126 -0.246132 0)
(0.280565 -0.306395 0)
(0.232051 -0.373223 0)
(0.175123 -0.441936 0)
(0.110806 -0.501117 0)
(0.041716 -0.531113 0)
(0.493928 -0.0849235 0)
(0.496522 -0.103599 0)
(0.439457 -0.132944 0)
(0.432471 -0.157499 0)
(0.372433 -0.202062 0)
(0.339192 -0.252094 0)
(0.271653 -0.307004 0)
(0.204071 -0.364378 0)
(0.124529 -0.420556 0)
(0.0354472 -0.457122 0)
(0.599602 -0.0733315 0)
(0.590936 -0.0878049 0)
(0.538485 -0.111595 0)
(0.52365 -0.133516 0)
(0.455975 -0.172417 0)
(0.415597 -0.20942 0)
(0.328977 -0.252564 0)
(0.253756 -0.298461 0)
(0.156081 -0.341842 0)
(0.0662819 -0.35543 0)
(0.695627 -0.0368372 0)
(0.676107 -0.0452636 0)
(0.623818 -0.060483 0)
(0.592462 -0.0736248 0)
(0.516023 -0.0985757 0)
(0.459604 -0.117706 0)
(0.35471 -0.144636 0)
(0.263705 -0.17333 0)
(0.140699 -0.206283 0)
(0.014588 -0.254458 0)
(0.877575 -0.0190922 0)
(0.853566 -0.0236115 0)
(0.810997 -0.0298261 0)
(0.769078 -0.0361298 0)
(0.700978 -0.0461342 0)
(0.632809 -0.0550393 0)
(0.530948 -0.0691033 0)
(0.42263 -0.0862985 0)
(0.282209 -0.114509 0)
(0.174889 -0.169343 0)
(0.205732 -0.192176 6.19849e-21)
(0.24751 -0.172438 -6.12256e-21)
(0.288445 -0.146455 1.30317e-21)
(0.328616 -0.125335 0)
(0.376862 -0.1013 0)
(0.442946 -0.0894688 2.47223e-21)
(0.526947 -0.0694948 -1.23617e-20)
(0.628171 -0.0607728 1.22984e-20)
(0.724009 -0.0285509 3.72047e-21)
(0.897459 -0.0157644 -3.73217e-21)
(0.217268 -0.182517 -3.90237e-21)
(0.258767 -0.162656 0)
(0.299451 -0.136751 9.67039e-21)
(0.339136 -0.115788 -2.44102e-20)
(0.387006 -0.0928384 1.72412e-20)
(0.452455 -0.0818182 -2.25118e-21)
(0.536386 -0.0632909 5.00736e-21)
(0.63656 -0.05567 1.16661e-20)
(0.732803 -0.02525 3.42256e-21)
(0.903797 -0.0144044 3.30371e-21)
(0.226898 -0.171281 4.05325e-21)
(0.267818 -0.151959 -7.69852e-21)
(0.30709 -0.126798 7.62591e-21)
(0.346056 -0.106268 -1.34652e-20)
(0.393626 -0.0844762 9.64939e-21)
(0.458873 -0.0742551 0)
(0.542828 -0.0571435 -5.01976e-21)
(0.64246 -0.0507069 -9.59641e-23)
(0.739347 -0.022226 -6.20867e-21)
(0.908398 -0.0131653 -6.57044e-21)
(0.236648 -0.15886 -7.55748e-22)
(0.278578 -0.140502 0)
(0.316373 -0.116489 0)
(0.354325 -0.0966736 0)
(0.401114 -0.0761602 1.14509e-20)
(0.465842 -0.0667567 -7.87013e-21)
(0.549647 -0.0510437 -4.22895e-22)
(0.648794 -0.045846 -5.93206e-21)
(0.746064 -0.019394 -3.13357e-21)
(0.912912 -0.012008 -3.20559e-21)
(0.245561 -0.145551 2.50632e-21)
(0.289333 -0.128513 -2.50157e-21)
(0.326031 -0.105929 -4.86649e-21)
(0.363244 -0.0870837 4.8638e-21)
(0.4092 -0.0679089 -3.53e-21)
(0.473293 -0.059359 0)
(0.556923 -0.0450364 -4.85164e-21)
(0.655733 -0.0410838 1.12649e-20)
(0.753291 -0.0166773 -5.7143e-21)
(0.917719 -0.0108902 6.40099e-21)
(0.25308 -0.131287 -3.90437e-21)
(0.298695 -0.116021 -1.11522e-21)
(0.334774 -0.0952021 -1.49186e-21)
(0.371347 -0.0776068 4.62773e-21)
(0.416602 -0.0598104 0)
(0.48013 -0.0521389 0)
(0.563679 -0.0391953 0)
(0.662379 -0.0364707 5.24643e-21)
(0.760364 -0.0140692 0)
(0.922466 -0.00980171 0)
(0.258998 -0.115919 0)
(0.306415 -0.102966 3.88601e-21)
(0.342328 -0.08429 -2.89352e-21)
(0.378182 -0.068237 -5.80495e-21)
(0.422744 -0.0519111 5.83539e-21)
(0.485753 -0.0451411 4.20988e-21)
(0.569259 -0.0335512 -3.86205e-21)
(0.668013 -0.0320415 -1.79676e-20)
(0.766643 -0.0116016 1.26223e-21)
(0.926684 -0.00875959 -4.47078e-21)
(0.263061 -0.0993402 0)
(0.312466 -0.0892915 -9.99134e-22)
(0.348574 -0.0731379 -8.40005e-22)
(0.383888 -0.0589187 0)
(0.427622 -0.04419 1.91694e-21)
(0.490058 -0.0383555 -5.39616e-21)
(0.573501 -0.0280779 6.8452e-21)
(0.672356 -0.0277846 2.75798e-21)
(0.771765 -0.00927367 -2.73943e-21)
(0.930086 -0.007765 5.9705e-21)
(0.264961 -0.0814748 -2.00448e-22)
(0.316692 -0.0749372 1.22842e-21)
(0.353323 -0.0616988 -4.15201e-24)
(0.388439 -0.0496065 5.90067e-22)
(0.431348 -0.0365955 1.55814e-21)