/*--------------------------------*- C++ -*----------------------------------*\
  =========                 |
  \\      /  F ield         | OpenFOAM: The Open Source CFD Toolbox
   \\    /   O peration     | Website:  https://openfoam.org
    \\  /    A nd           | Version:  7
     \\/     M anipulation  |
\*---------------------------------------------------------------------------*/
FoamFile
{
    version     2.0;
    format      ascii;
    class       volVectorField;
    location    "73";
    object      U;
}
// * * * * * * * * * * * * * * * * * * * * * * * * * * * * * * * * * * * * * //

dimensions      [0 1 -1 0 0 0 0];

internalField   nonuniform List<vector> 
2000
(
(-0.000138878 -0.00654072 -2.75486e-22)
(4.83218e-05 -0.0145841 0)
(0.000809874 -0.0185555 0)
(0.0021197 -0.0191241 -1.41375e-21)
(0.00393404 -0.0166837 4.57031e-22)
(0.00622217 -0.0114875 1.61917e-23)
(0.00896162 -0.00373263 -7.86225e-22)
(0.0121113 0.00637188 0)
(0.0155787 0.0185536 0)
(0.0191795 0.0324473 0)
(0.00041668 -0.00633031 0)
(0.00149318 -0.0146434 -1.07954e-21)
(0.00292035 -0.0190083 9.95547e-22)
(0.00457021 -0.0200537 1.88761e-21)
(0.00642692 -0.0181742 0)
(0.00849243 -0.013632 1.71934e-21)
(0.0107861 -0.00661294 -1.59886e-21)
(0.0133166 0.00271723 0)
(0.0160503 0.0141635 2.91444e-21)
(0.0188226 0.0274655 -5.60869e-21)
(0.00101169 -0.00617171 0)
(0.00317136 -0.0147363 8.64725e-21)
(0.0055058 -0.0194219 0)
(0.00772349 -0.0208587 7.72215e-21)
(0.00983097 -0.0194624 0)
(0.0118575 -0.0155223 -6.9463e-21)
(0.0138592 -0.00922926 0)
(0.0158915 -0.000717037 6.25059e-21)
(0.0179841 0.00989596 -5.85402e-21)
(0.0199847 0.0224593 -5.71341e-21)
(0.00168213 -0.00609838 -2.25514e-21)
(0.00513851 -0.014903 -4.31047e-21)
(0.00861638 -0.0198117 -2.02324e-21)
(0.0116245 -0.0215194 -3.79163e-21)
(0.0141881 -0.0204837 -3.63048e-21)
(0.0163644 -0.0170385 3.41825e-21)
(0.0182442 -0.0113982 3.28053e-21)
(0.0199258 -0.00368211 -1.15582e-23)
(0.0215043 0.00605849 5.92321e-21)
(0.0228372 0.0177764 5.71163e-21)
(0.00246856 -0.00613755 -2.22642e-21)
(0.0074518 -0.0151737 -4.41334e-21)
(0.0122933 -0.0201858 -8.37971e-21)
(0.016288 -0.0220194 3.85365e-21)
(0.0194888 -0.02119 0)
(0.021988 -0.0180904 0)
(0.0239139 -0.0129753 -6.73769e-21)
(0.0254057 -0.00597012 -6.37672e-21)
(0.026624 0.00292514 6.01692e-21)
(0.0274426 0.0137477 1.72764e-20)
(0.00341912 -0.0063079 2.26078e-21)
(0.0101647 -0.0155544 2.28737e-21)
(0.0165549 -0.0205406 -1.24502e-20)
(0.0216853 -0.0223456 1.97646e-20)
(0.0256558 -0.0215573 -3.68287e-21)
(0.0286082 -0.0186358 0)
(0.0307181 -0.0138879 0)
(0.0321679 -0.007463 3.18847e-20)
(0.0331831 0.000671381 -3.00768e-20)
(0.0336688 0.0106131 5.69483e-21)
(0.00458238 -0.00660842 1.7686e-20)
(0.0133183 -0.0160277 0)
(0.0213875 -0.0208576 1.66297e-20)
(0.0277343 -0.0224882 -1.57779e-20)
(0.0325344 -0.0215894 0)
(0.0360005 -0.018691 7.17419e-21)
(0.0383703 -0.0141561 -2.01282e-20)
(0.0398786 -0.0081707 -2.55255e-20)
(0.0408152 -0.000686722 1.19816e-20)
(0.0411328 0.00843597 1.15506e-20)
(0.00600032 -0.00701687 -3.53514e-20)
(0.0169313 -0.0165497 -4.47843e-21)
(0.0267372 -0.0211023 -8.43508e-21)
(0.034296 -0.0224389 -1.9854e-20)
(0.0398949 -0.021316 -7.60478e-21)
(0.0438436 -0.0183284 -7.19048e-21)
(0.0464606 -0.0138926 3.20374e-23)
(0.0480452 -0.00823822 0)
(0.0489559 -0.00131465 0)
(0.0492089 0.00706147 1.06349e-22)
(0.00770154 -0.00749071 1.76657e-20)
(0.0209894 -0.0170512 -1.78379e-20)
(0.0325042 -0.0212262 1.25425e-20)
(0.0411757 -0.0221919 2.79543e-20)
(0.0474455 -0.020789 -7.46167e-21)
(0.0517487 -0.0176652 7.17462e-21)
(0.0545009 -0.0132799 6.76661e-21)
(0.0560759 -0.00790522 0)
(0.0569068 -0.00149944 0)
(0.0571012 0.00616421 -2.7256e-22)
(0.00969536 -0.00797075 -2.21605e-21)
(0.0254376 -0.0174439 2.23819e-20)
(0.0385395 -0.0211724 -4.18754e-21)
(0.0481309 -0.0217462 0)
(0.0548564 -0.0200789 0)
(0.0593058 -0.0168502 1.42258e-20)
(0.062006 -0.0125404 0)
(0.0634077 -0.00744963 -1.25018e-20)
(0.0639991 -0.00156768 1.01344e-23)
(0.0639945 0.00530775 1.11907e-20)
(0.0272766 0.066341 2.17303e-22)
(0.0421553 0.133905 -2.19823e-22)
(0.0480126 0.19503 -2.54034e-22)
(0.0472322 0.250594 -2.90768e-22)
(0.0413386 0.307452 -3.58417e-22)
(0.0365262 0.369278 -1.26534e-23)
(0.0243139 0.438581 1.8916e-22)
(0.0210576 0.524901 6.74401e-22)
(0.000364605 0.649093 0)
(0.00654817 0.798117 -4.94666e-22)
(0.0246252 0.0605955 8.28839e-22)
(0.038438 0.128872 -9.5371e-22)
(0.0450017 0.192886 1.71112e-21)
(0.0448102 0.250335 2.91255e-22)
(0.0393924 0.30821 6.31312e-22)
(0.0349502 0.370706 1.08883e-21)
(0.0232753 0.44053 -4.08796e-22)
(0.0201708 0.527282 -4.52251e-22)
(0.000356774 0.651066 8.8635e-22)
(0.00610597 0.798726 4.93494e-22)
(0.0233177 0.0544238 0)
(0.0352402 0.122533 -9.05891e-22)
(0.0423415 0.189451 -4.9711e-22)
(0.0426737 0.248973 0)
(0.0376816 0.307991 -1.94414e-21)
(0.0335854 0.37125 6.06042e-22)
(0.0223861 0.441664 6.86215e-22)
(0.0193908 0.528878 2.43611e-21)
(0.000389727 0.652601 -8.8348e-22)
(0.00570795 0.799141 1.77943e-21)
(0.0236367 0.0481593 0)
(0.0326448 0.115035 9.13514e-22)
(0.0400277 0.184712 0)
(0.0408023 0.246483 2.24476e-21)
(0.0361892 0.306787 -2.25639e-21)
(0.0324137 0.370898 -1.38467e-21)
(0.0216331 0.441924 -8.82179e-23)
(0.018728 0.529576 -2.37929e-21)
(0.000464586 0.65339 -3.89957e-22)
(0.00533351 0.799168 -2.18874e-21)
(0.0258239 0.0421624 3.79701e-23)
(0.0307942 0.106638 -2.60692e-21)
(0.0380593 0.178683 1.13136e-22)
(0.0391762 0.242849 -1.97389e-21)
(0.0348956 0.304613 0)
(0.0314122 0.369713 -1.32167e-21)
(0.0209934 0.441469 -1.15249e-22)
(0.0181542 0.529704 2.99175e-21)
(0.000549437 0.653904 3.97187e-22)
(0.00498588 0.799142 -3.9863e-22)
(0.0299491 0.0367552 -7.09431e-21)
(0.0298854 0.0977158 4.47839e-21)
(0.0364443 0.171424 1.92501e-21)
(0.0377798 0.238069 -1.92405e-21)
(0.0337868 0.301436 -1.06941e-21)
(0.0305715 0.367582 0)
(0.0204716 0.440046 -2.64847e-21)
(0.0176927 0.528759 1.31964e-21)
(0.000671291 0.653374 1.45057e-21)
(0.00464598 0.798618 1.51189e-21)
(0.0357646 0.0321609 -8.56234e-22)
(0.030119 0.0887317 0)
(0.0352089 0.163052 0)
(0.0365957 0.23218 0)
(0.0328377 0.2974 -1.14429e-21)
(0.029862 0.364863 2.21026e-21)
(0.0200254 0.438296 2.58125e-21)
(0.0172695 0.527786 -4.02271e-21)
(0.000760662 0.653151 7.14102e-22)
(0.00433449 0.798323 -2.2046e-21)
(0.042617 0.0284328 5.38843e-21)
(0.0315715 0.0800845 3.64875e-21)
(0.0343879 0.153799 -3.61575e-21)
(0.0356274 0.225136 3.93672e-21)
(0.0320432 0.292107 -4.89454e-21)
(0.0292962 0.360756 0)
(0.0197083 0.43496 -1.15966e-21)
(0.0169946 0.524945 5.90052e-23)
(0.000922833 0.651084 -1.2884e-21)
(0.00401504 0.797217 -1.35387e-21)
(0.0493993 0.0252198 -4.59193e-21)
(0.0340155 0.0715469 0)
(0.0339792 0.143641 -4.0955e-21)
(0.0348232 0.217491 7.44187e-21)
(0.0313771 0.286938 -2.78241e-21)
(0.0288001 0.35741 -5.20465e-22)
(0.0193764 0.432872 1.15717e-21)
(0.0166297 0.523846 8.92956e-24)
(0.00095298 0.650855 1.86011e-21)
(0.0037329 0.7969 1.9669e-21)
(0.0544896 0.0223668 -3.69349e-21)
(0.0367895 0.0630049 3.60814e-21)
(0.0340967 0.131327 4.49272e-22)
(0.034227 0.206055 0)
(0.0307904 0.277307 0)
(0.0285239 0.349424 5.08641e-22)
(0.0193379 0.42603 2.17416e-21)
(0.0166318 0.517834 -2.11202e-21)
(0.00120738 0.646447 -5.71786e-22)
(0.0034191 0.795063 5.53501e-22)
(0.0575392 0.0245002 0)
(0.0404133 0.0586752 0)
(0.0350496 0.123012 0)
(0.0340772 0.20106 0)
(0.0299336 0.276046 0)
(0.026929 0.350628 0)
(0.0180268 0.428511 0)
(0.0151739 0.521525 0)
(0.000764075 0.64949 0)
(0.00281712 0.795275 0)
(0.0603521 0.0455739 0)
(0.0437444 0.0790646 0)
(0.0342286 0.133051 0)
(0.0319601 0.205784 0)
(0.0282192 0.280498 0)
(0.0251512 0.3561 0)
(0.0169416 0.435469 0)
(0.013766 0.530003 0)
(0.000679387 0.656993 0)
(0.00226701 0.797491 0)
(0.0587355 0.0538457 0)
(0.0460936 0.09123 0)
(0.034636 0.141552 0)
(0.0304533 0.211189 0)
(0.0264278 0.285574 0)
(0.0230541 0.361233 0)
(0.0155094 0.440968 0)
(0.0122919 0.535782 0)
(0.000465012 0.661643 0)
(0.00180105 0.797908 0)
(0.0545606 0.0592859 0)
(0.0461868 0.101243 0)
(0.0348844 0.149353 0)
(0.0293067 0.216022 0)
(0.0252091 0.290617 0)
(0.0218353 0.367409 0)
(0.014809 0.448531 0)
(0.0114104 0.544428 0)
(0.000653714 0.669059 0)
(0.00152574 0.800047 0)
(0.0494648 0.0621441 0)
(0.0446315 0.109638 0)
(0.03469 0.157408 0)
(0.0283933 0.220907 0)
(0.0238556 0.294386 0)
(0.0202629 0.371198 0)
(0.0137508 0.452686 0)
(0.0103847 0.548769 0)
(0.000537985 0.672416 0)
(0.00122028 0.800008 0)
(0.0436429 0.0625483 0)
(0.0418335 0.115738 0)
(0.033474 0.164568 0)
(0.0272587 0.226027 0)
(0.0231816 0.299257 0)
(0.0197082 0.377096 0)
(0.0135082 0.459981 0)
(0.00992897 0.557158 0)
(0.000861055 0.679444 0)
(0.0010765 0.801941 0)
(0.0373893 0.0606584 0)
(0.0386257 0.120046 0)
(0.0325287 0.171756 0)
(0.026088 0.231021 0)
(0.0217076 0.302215 0)
(0.0183923 0.3796 0)
(0.0127455 0.462661 0)
(0.00926302 0.55988 0)
(0.000802995 0.681453 0)
(0.000889762 0.801573 0)
(0.0306363 0.0560326 0)
(0.0342458 0.120314 0)
(0.0306523 0.17609 0)
(0.0255329 0.236502 0)
(0.0216073 0.307966 0)
(0.0182577 0.386161 0)
(0.012799 0.470481 0)
(0.00908792 0.568683 0)
(0.00125302 0.688633 0)
(0.000849355 0.803571 0)
(0.0254892 0.0519247 0)
(0.0318679 0.121939 0)
(0.0300295 0.181059 0)
(0.0246504 0.239852 0)
(0.0204824 0.309509 0)
(0.0173687 0.387331 0)
(0.0123097 0.471823 0)
(0.00870378 0.569947 0)
(0.00121537 0.689559 0)
(0.000754338 0.803215 0)
(0.0176363 0.0363734 0)
(0.0264077 0.112496 0)
(0.0291074 0.181688 0)
(0.0260111 0.24619 0)
(0.0217223 0.316757 0)
(0.0180075 0.39515 0)
(0.0128234 0.480788 0)
(0.00880528 0.579861 0)
(0.00181551 0.697452 0)
(0.000781908 0.80554 0)
(0.0680978 0.0142419 3.28209e-21)
(0.0668961 0.0248278 -3.22701e-21)
(0.061753 0.0279172 2.79842e-22)
(0.0555945 0.028847 0)
(0.0489975 0.0277656 0)
(0.0417321 0.0250292 8.35662e-23)
(0.0340955 0.02073 -1.0206e-22)
(0.026285 0.0144337 1.0031e-22)
(0.0195748 0.00870998 -1.60204e-23)
(0.0110294 -0.00526388 1.57459e-23)
(0.0700652 0.0100186 -4.32681e-21)
(0.0667821 0.0160298 0)
(0.060663 0.0166513 1.5774e-21)
(0.0541032 0.0157085 -3.13735e-21)
(0.0472644 0.0131128 1.55622e-21)
(0.0398068 0.00923323 -8.17774e-23)
(0.0319932 0.00408474 7.13338e-23)
(0.0241415 -0.0027227 1.44605e-23)
(0.0169763 -0.00897122 -2.70825e-23)
(0.00900779 -0.0218867 -3.0416e-23)
(0.070977 0.00530921 4.87512e-21)
(0.0660238 0.00721943 -2.26391e-21)
(0.0593222 0.00551319 2.24213e-21)
(0.0524752 0.00272434 -1.2359e-21)
(0.0454194 -0.00137243 9.68821e-22)
(0.0377808 -0.00637142 0)
(0.0298246 -0.0123141 -7.14968e-23)
(0.0219573 -0.0194668 -4.33694e-25)
(0.0145219 -0.0259839 1.06305e-23)
(0.00722431 -0.0374167 4.59327e-23)
(0.0710263 -0.000627131 -7.4325e-22)
(0.0646664 -0.00228811 0)
(0.0576429 -0.00597646 0)
(0.0506008 -0.0103753 0)
(0.0434033 -0.0157732 6.17024e-22)
(0.0356443 -0.0217064 -3.79273e-22)
(0.0276184 -0.0282588 2.73577e-23)
(0.0197674 -0.0355352 1.25721e-23)
(0.0122947 -0.0420271 1.09735e-23)
(0.00563695 -0.051768 2.00169e-23)
(0.0700979 -0.00788089 -5.05886e-22)
(0.0626208 -0.0125462 -1.97757e-21)
(0.0555041 -0.0178736 -7.9606e-22)
(0.0483653 -0.0235869 7.95486e-22)
(0.0411177 -0.0300211 -2.34796e-22)
(0.033336 -0.0366319 0)
(0.0253451 -0.0435506 -6.75155e-23)
(0.017608 -0.050714 2.01636e-23)
(0.0103038 -0.0568998 -5.38953e-24)
(0.00430653 -0.0649106 -3.13143e-23)
(0.0682857 -0.0162857 -5.44375e-21)
(0.060011 -0.0233533 9.0617e-22)
(0.0529955 -0.0300269 2.32712e-22)
(0.0458435 -0.0367494 7.7988e-22)
(0.0386287 -0.0439462 0)
(0.0309175 -0.0509658 0)
(0.0230657 -0.0580004 0)
(0.0155454 -0.0648331 2.5065e-23)
(0.00856649 -0.070492 0)
(0.00323991 -0.0768621 0)
(0.0656845 -0.0255769 0)
(0.0569725 -0.0344183 1.55002e-21)
(0.0502072 -0.0422022 -9.98715e-22)
(0.0431191 -0.0496367 -5.61773e-22)
(0.0360239 -0.0573416 5.64655e-22)
(0.028471 -0.0645187 1.11359e-22)
(0.0208506 -0.071446 -1.40545e-22)
(0.0136383 -0.0777774 -1.19374e-22)
(0.00709217 -0.0827702 9.43195e-24)
(0.00241061 -0.0876755 9.38282e-24)
(0.0623779 -0.0354547 0)
(0.0536267 -0.0454456 -5.5167e-22)
(0.0472175 -0.0541444 -2.22424e-22)
(0.0402724 -0.0620159 0)
(0.0333782 -0.070006 7.34896e-23)
(0.0260666 -0.0771268 -2.73845e-22)
(0.0187557 -0.0837707 1.12279e-22)
(0.0119247 -0.0894921 1.96258e-24)
(0.00587227 -0.0937631 -7.02357e-24)
(0.00178218 -0.0974261 -1.05902e-23)
(0.0585 -0.0455903 7.36664e-22)
(0.0500672 -0.0561747 4.99631e-22)
(0.0440991 -0.0656214 -1.69328e-22)
(0.0373774 -0.0736825 8.61914e-23)
(0.0307573 -0.0817737 1.20321e-22)
(0.0237614 -0.0886733 1.20114e-22)
(0.0168204 -0.0949135 -2.51293e-23)
(0.0104219 -0.0999804 -1.26893e-23)
(0.00488323 -0.103544 7.04654e-24)
(0.00131623 -0.106199 7.07553e-26)
(0.0542078 -0.0557099 -1.55043e-22)
(0.0463815 -0.0663963 1.56427e-22)
(0.0409192 -0.0764458 -1.1267e-22)
(0.034502 -0.0844842 -8.60603e-23)
(0.0282157 -0.0925327 5.32197e-23)
(0.0215984 -0.0990988 -9.53986e-23)
(0.0150673 -0.104869 3.51984e-23)
(0.00912925 -0.109293 2.5504e-24)
(0.0040926 -0.112213 0)
(0.000976026 -0.114082 -7.09037e-26)
(0.0496809 -0.0655943 1.59115e-22)
(0.0426698 -0.0759649 -1.6046e-22)
(0.0377544 -0.0864873 -1.19101e-22)
(0.0317173 -0.0943318 -9.21373e-23)
(0.0258026 -0.10223 -5.62804e-23)
(0.0196097 -0.108402 9.00734e-24)
(0.0135055 -0.113682 1.94505e-23)
(0.00803338 -0.117516 2.92284e-23)
(0.00346543 -0.119881 0)
(0.000729281 -0.121159 -2.19551e-24)
(0.0451074 -0.0750924 0)
(0.0390428 -0.0848009 -5.38187e-22)
(0.0346828 -0.0956729 9.08629e-22)
(0.0290912 -0.103199 9.22728e-23)
(0.023558 -0.110867 1.44466e-22)
(0.0178156 -0.11663 1.50183e-22)
(0.0121336 -0.121432 -3.08411e-23)
(0.00711374 -0.124755 -1.77037e-23)
(0.00296873 -0.126662 2.08571e-23)
(0.000549995 -0.127511 2.19024e-24)
(0.0406372 -0.0841208 0)
(0.035588 -0.0928896 -6.25698e-22)
(0.0317574 -0.103981 -2.4772e-22)
(0.0266673 -0.111118 0)
(0.0215024 -0.118493 -3.98259e-22)
(0.0162199 -0.123869 1.52907e-22)
(0.01094 -0.128222 9.12515e-23)
(0.00634573 -0.131126 1.48422e-22)
(0.0025738 -0.132665 -2.07891e-23)
(0.000418436 -0.133216 1.54079e-23)
(0.0363785 -0.092652 0)
(0.0323638 -0.10028 6.30882e-22)
(0.0290062 -0.111434 0)
(0.0244642 -0.11817 7.2325e-22)
(0.0196393 -0.12519 -7.27003e-22)
(0.0148123 -0.13023 -1.89922e-22)
(0.00990657 -0.134171 4.30692e-23)
(0.00570389 -0.136747 -1.55331e-22)
(0.00225717 -0.137997 -2.84832e-23)
(0.000320039 -0.138349 -2.38435e-23)
(0.0324106 -0.100699 6.52377e-21)
(0.0294167 -0.107079 -2.44324e-21)
(0.0264479 -0.118088 -2.38608e-22)
(0.0224873 -0.124471 -9.82922e-22)
(0.0179661 -0.131069 0)
(0.0135763 -0.135842 -2.03953e-22)
(0.00901415 -0.139403 6.84613e-23)
(0.00516509 -0.141736 2.37234e-22)
(0.00200088 -0.142759 9.62823e-24)
(0.000244509 -0.14299 -9.61815e-24)
(0.0287793 -0.108288 5.73892e-22)
(0.0267849 -0.113442 3.8079e-21)
(0.0241009 -0.124026 1.03063e-21)
(0.0207345 -0.130159 -1.03e-21)
(0.0164805 -0.136256 -3.57974e-22)
(0.012495 -0.140836 0)
(0.0082462 -0.144044 -3.32609e-22)
(0.00471043 -0.146207 1.77942e-22)
(0.00179212 -0.147048 8.94462e-23)
(0.00018486 -0.147217 2.27123e-23)
(0.0255137 -0.115431 -9.19701e-22)
(0.024518 -0.119567 0)
(0.0220018 -0.129347 0)
(0.0192073 -0.135382 0)
(0.0151881 -0.140886 -2.83034e-22)
(0.0115568 -0.145345 6.40294e-22)
(0.00759173 -0.148216 3.43222e-22)
(0.00432646 -0.150269 -4.06438e-22)
(0.00162262 -0.15096 2.32419e-23)
(0.000136387 -0.151113 -4.54925e-23)
(0.0226135 -0.122085 -2.1336e-21)
(0.0226397 -0.125673 2.83526e-21)
(0.0201789 -0.134162 -2.80852e-21)
(0.0178885 -0.140278 1.79574e-21)
(0.0140858 -0.145093 -2.17838e-21)
(0.0107448 -0.149492 0)
(0.00703841 -0.152035 -2.10186e-22)
(0.00400107 -0.154024 -9.70434e-24)
(0.00148596 -0.15459 -7.75905e-23)
(9.52319e-05 -0.154762 -2.62933e-23)
(0.0197826 -0.128092 -9.99632e-22)
(0.0208746 -0.131971 0)
(0.0184889 -0.138599 -2.77346e-21)
(0.016627 -0.144973 4.30112e-21)
(0.0130821 -0.149017 -1.47673e-21)
(0.00998712 -0.153397 -1.57428e-22)
(0.00654247 -0.155613 2.09707e-22)
(0.00370729 -0.157571 2.5795e-23)
(0.00137059 -0.158027 1.60016e-22)
(5.89951e-05 -0.15825 5.2233e-23)
(0.0169756 -0.133024 -4.04935e-21)
(0.0190803 -0.138654 3.95746e-21)
(0.0169426 -0.142842 3.59112e-22)
(0.0153996 -0.149599 0)
(0.0121613 -0.152808 0)
(0.00927757 -0.157187 1.62106e-22)
(0.00609737 -0.15907 3.91417e-22)
(0.00344382 -0.161011 -3.84114e-22)
(0.00127655 -0.161364 -2.90092e-23)
(4.04231e-05 -0.161664 2.83822e-23)
(0.0170678 -0.14017 0)
(0.0194651 -0.15457 0)
(0.0167575 -0.152551 0)
(0.014916 -0.160498 0)
(0.0116894 -0.161814 0)
(0.00875573 -0.16629 0)
(0.00575871 -0.167385 0)
(0.00323491 -0.169291 0)
(0.00125025 -0.169352 0)
(7.59565e-05 -0.169789 0)
(0.0153605 -0.165126 0)
(0.0138037 -0.180569 0)
(0.0118657 -0.174628 0)
(0.0100511 -0.182646 0)
(0.00787615 -0.181398 0)
(0.00585879 -0.185637 0)
(0.00387445 -0.185322 0)
(0.00222119 -0.187094 0)
(0.000902163 -0.186551 0)
(9.26269e-05 -0.187118 0)
(0.0157749 -0.194825 0)
(0.0129616 -0.211225 0)
(0.0107006 -0.202462 0)
(0.00854495 -0.210902 0)
(0.00658258 -0.207608 0)
(0.00475615 -0.212024 0)
(0.00317796 -0.210513 0)
(0.00184928 -0.212428 0)
(0.000820618 -0.211284 0)
(0.000105928 -0.212072 0)
(0.0156198 -0.232044 0)
(0.0119655 -0.249727 0)
(0.00973879 -0.238875 0)
(0.00735647 -0.248201 0)
(0.00567491 -0.243191 0)
(0.00397701 -0.248195 0)
(0.00274125 -0.245591 0)
(0.00160876 -0.247923 0)
(0.00078796 -0.246139 0)
(0.0001077 -0.247286 0)
(0.0151776 -0.278425 0)
(0.0111182 -0.29667 0)
(0.00898174 -0.284999 0)
(0.00643875 -0.29514 0)
(0.00501606 -0.289051 0)
(0.00337029 -0.294789 0)
(0.00241694 -0.291346 0)
(0.00137571 -0.294247 0)
(0.000732985 -0.291888 0)
(7.89422e-05 -0.293526 0)
(0.0140898 -0.332299 0)
(0.0100153 -0.349196 0)
(0.0080914 -0.338747 0)
(0.00553022 -0.348759 0)
(0.00436709 -0.342766 0)
(0.00276034 -0.34878 0)
(0.00203992 -0.345091 0)
(0.00103429 -0.348359 0)
(0.000579019 -0.345724 0)
(5.43666e-06 -0.347774 0)
(0.0120471 -0.387514 0)
(0.008409 -0.401073 0)
(0.00678775 -0.393802 0)
(0.0044685 -0.402292 0)
(0.00354632 -0.397729 0)
(0.00207188 -0.403061 0)
(0.00152397 -0.399943 0)
(0.000588814 -0.402968 0)
(0.000325394 -0.400578 0)
(-8.30015e-05 -0.402645 0)
(0.0091371 -0.435398 0)
(0.00630063 -0.444788 0)
(0.00506091 -0.441495 0)
(0.00324307 -0.447532 0)
(0.00255318 -0.445129 0)
(0.00136207 -0.448947 0)
(0.000946257 -0.44697 0)
(0.000183339 -0.449124 0)
(7.91941e-05 -0.447421 0)
(-0.000130666 -0.448987 0)
(0.00565498 -0.469187 0)
(0.00384986 -0.475093 0)
(0.00308188 -0.475121 0)
(0.00193654 -0.478828 0)
(0.00150994 -0.478377 0)
(0.000734981 -0.48058 0)
(0.000465413 -0.479754 0)
(-3.28934e-05 -0.480876 0)
(-4.58812e-05 -0.479947 0)
(-0.000114176 -0.480793 0)
(0.00190893 -0.48621 0)
(0.00127737 -0.490285 0)
(0.0010292 -0.492108 0)
(0.000636131 -0.494471 0)
(0.000498301 -0.495103 0)
(0.000226415 -0.49632 0)
(0.000134978 -0.496171 0)
(-4.08031e-05 -0.496638 0)
(-3.33961e-05 -0.496198 0)
(-4.53578e-05 -0.496556 0)
(0.0165685 -0.150137 4.75775e-21)
(0.0168377 -0.176428 -4.66443e-21)
(0.0179312 -0.207925 6.02946e-22)
(0.0179572 -0.2463 0)
(0.0175117 -0.292398 0)
(0.0161761 -0.343986 6.99392e-22)
(0.0138055 -0.39519 -3.00776e-21)
(0.0105212 -0.438598 2.96803e-21)
(0.00658001 -0.468808 8.07985e-22)
(0.0022372 -0.483936 -7.95375e-22)
(0.0167308 -0.155154 -5.61333e-21)
(0.0177108 -0.181266 0)
(0.0189522 -0.212875 4.1043e-21)
(0.0190158 -0.251284 -9.47392e-21)
(0.0185399 -0.297024 6.08455e-21)
(0.0170887 -0.347646 -6.45722e-22)
(0.0145812 -0.397383 1.4402e-21)
(0.0111386 -0.439261 3.04072e-21)
(0.00699449 -0.468311 8.57344e-22)
(0.00237976 -0.482859 8.31871e-22)
(0.0172474 -0.160372 6.56199e-21)
(0.0189452 -0.18639 -4.52922e-21)
(0.0202287 -0.217853 4.48634e-21)
(0.0202839 -0.256034 -5.02854e-21)
(0.0197291 -0.301225 3.72107e-21)
(0.0181198 -0.350772 0)
(0.0154306 -0.399045 -1.44371e-21)
(0.0117818 -0.43949 7.5383e-23)
(0.00739972 -0.467518 -1.59706e-21)
(0.00250771 -0.481581 -1.63169e-21)
(0.0181405 -0.165047 -1.06225e-21)
(0.0204713 -0.191142 0)
(0.0217408 -0.22253 0)
(0.0217599 -0.260494 0)
(0.0210899 -0.305137 4.149e-21)
(0.0192941 -0.353629 -2.77451e-21)
(0.0163865 -0.400489 -1.89869e-23)
(0.0124851 -0.439547 -1.70671e-21)
(0.00782485 -0.466561 -8.76057e-22)
(0.00263478 -0.480113 -9.38023e-22)
(0.0194778 -0.169269 1.11514e-22)
(0.0222621 -0.195295 -3.21213e-21)
(0.0234612 -0.22659 -2.4592e-21)
(0.0234204 -0.264364 2.45766e-21)
(0.0226077 -0.308507 -1.35584e-21)
(0.0206094 -0.356043 0)
(0.0174625 -0.401624 -1.59121e-21)
(0.0132767 -0.439408 3.48403e-21)
(0.00830243 -0.465463 -1.78315e-21)
(0.00277828 -0.478504 1.83545e-21)
(0.0212998 -0.173122 -8.54325e-21)
(0.0243388 -0.198884 9.23052e-22)
(0.0254035 -0.229963 -1.81362e-22)
(0.0252659 -0.267503 2.52667e-21)
(0.0242799 -0.311157 0)
(0.0220619 -0.357829 0)
(0.018658 -0.402293 0)
(0.0141642 -0.438972 1.86743e-21)
(0.00884536 -0.464188 0)
(0.00294686 -0.476773 0)
(0.0236188 -0.176515 0)
(0.0267206 -0.201891 3.53732e-21)
(0.0275959 -0.232644 -2.3906e-21)
(0.0273152 -0.269892 -2.83867e-21)
(0.026121 -0.313048 2.85343e-21)
(0.0236595 -0.358931 1.70123e-21)
(0.0199749 -0.402425 -1.68786e-21)
(0.0151465 -0.438175 -6.67111e-21)
(0.00945275 -0.462698 4.74963e-22)
(0.00314178 -0.474914 -1.62577e-21)
(0.0264427 -0.179317 0)
(0.0294148 -0.204239 -1.14945e-21)
(0.0300584 -0.234596 -6.49956e-22)
(0.0295857 -0.271525 0)
(0.0281501 -0.31419 8.29632e-22)
(0.0254172 -0.359362 -2.50417e-21)
(0.0214213 -0.402025 2.78748e-21)
(0.0162252 -0.437006 9.9446e-22)
(0.010122 -0.460977 -1.08838e-21)
(0.00336237 -0.472911 2.1569e-21)
(0.0297822 -0.181424 1.03182e-21)
(0.0324261 -0.205859 1.24918e-21)
(0.0328029 -0.235765 -2.76729e-22)
(0.032088 -0.272377 3.71785e-22)
(0.0303815 -0.314582 7.90218e-22)
(0.0273484 -0.359141 1.32634e-21)
(0.0230077 -0.401115 -4.98815e-22)
(0.0174057 -0.43548 -5.38965e-22)
(0.0108537 -0.459025 1.09197e-21)
(0.00360878 -0.470753 5.91819e-22)
(0.0336474 -0.182751 -2.88335e-22)
(0.0357601 -0.206713 2.91e-22)
(0.0358389 -0.23611 -3.34698e-22)
(0.0348283 -0.272426 -3.71305e-22)
(0.0328256 -0.314212 4.40801e-22)
(0.0294632 -0.358271 -8.99908e-22)
(0.024744 -0.399706 7.63304e-22)
(0.0186961 -0.433606 2.729e-22)
(0.0116518 -0.456843 0)
(0.00388268 -0.468435 -5.9314e-22)
(0.0380462 -0.183232 2.95649e-22)
(0.0394195 -0.206794 -2.98485e-22)
(0.0391758 -0.235609 -3.59636e-22)
(0.0378114 -0.27167 -4.01445e-22)
(0.0354908 -0.313077 -4.60087e-22)
(0.0317684 -0.356758 -3.21953e-23)
(0.0266373 -0.397805 2.69044e-22)
(0.0201017 -0.43139 8.6858e-22)
(0.0125194 -0.454433 0)
(0.00418507 -0.465953 -6.47411e-22)
(0.0429835 -0.18285 0)
(0.0434045 -0.206102 -1.37614e-21)
(0.0428201 -0.234274 2.49483e-21)
(0.0410395 -0.270115 4.02123e-22)
(0.0383853 -0.311182 9.34083e-22)
(0.0342708 -0.354601 1.53287e-21)
(0.0286966 -0.395406 -5.45165e-22)
(0.0216319 -0.428826 -5.89253e-22)
(0.0134631 -0.45179 1.30342e-21)
(0.00451814 -0.463303 6.45902e-22)
(0.0484604 -0.181647 0)
(0.0477146 -0.20463 -1.35736e-21)
(0.0467746 -0.232144 -7.50273e-22)
(0.0445167 -0.267784 0)
(0.0415145 -0.308561 -2.94199e-21)
(0.0369742 -0.351826 9.83336e-22)
(0.0309244 -0.392534 1.17069e-21)
(0.0232861 -0.425931 3.7799e-21)
(0.0144806 -0.448911 -1.29918e-21)
(0.00487996 -0.460472 2.80434e-21)
(0.0544727 -0.179739 0)
(0.0523526 -0.20237 1.36894e-21)
(0.0510273 -0.229356 0)
(0.0482431 -0.264666 3.75986e-21)
(0.044884 -0.305231 -3.77915e-21)
(0.0398878 -0.348424 -2.30955e-21)
(0.0333311 -0.389167 -5.15793e-23)
(0.0250805 -0.422678 -3.89022e-21)
(0.0155865 -0.445774 -6.48463e-22)
(0.00527478 -0.457439 -3.48821e-21)
(0.0609929 -0.177224 9.88813e-21)
(0.05732 -0.199304 -3.79605e-21)
(0.0555828 -0.225897 4.06806e-22)
(0.0522483 -0.26077 -3.51219e-21)
(0.0484832 -0.301221 0)
(0.0430129 -0.344438 -2.40882e-21)
(0.035913 -0.385355 -2.01222e-22)
(0.0270075 -0.419108 5.28392e-21)
(0.016773 -0.442416 7.24319e-22)
(0.00569768 -0.45423 -7.27101e-22)
(0.0679689 -0.174094 -1.01916e-21)
(0.0626439 -0.195496 7.10203e-21)
(0.0604061 -0.221755 3.65474e-21)
(0.0565202 -0.256236 -3.65225e-21)
(0.0523171 -0.296558 -2.20081e-21)
(0.0463606 -0.339847 0)
(0.0386905 -0.381037 -5.39715e-21)
(0.0290927 -0.41516 2.70679e-21)
(0.0180616 -0.438795 2.89024e-21)
(0.00615677 -0.450815 3.10279e-21)
(0.0753293 -0.170399 -1.36403e-21)
(0.0683211 -0.191081 0)
(0.0654682 -0.217063 0)
(0.0610427 -0.251189 0)
(0.0563778 -0.291417 -2.53945e-21)
(0.0499088 -0.334877 4.73206e-21)
(0.0416247 -0.376449 5.49824e-21)
(0.0312868 -0.411014 -8.65726e-21)
(0.019411 -0.435009 1.54928e-21)
(0.00663132 -0.447244 -4.60846e-21)
(0.0829528 -0.166254 -2.03862e-21)
(0.0743456 -0.186035 7.00919e-21)
(0.0707542 -0.211777 -6.94225e-21)
(0.0658222 -0.245441 8.90671e-21)
(0.060698 -0.285486 -1.12012e-20)
(0.0537274 -0.329084 0)
(0.0448249 -0.371124 -2.87471e-21)
(0.0337143 -0.406316 -1.18425e-22)
(0.0209207 -0.430858 -3.22018e-21)
(0.00716343 -0.443387 -3.28132e-21)
(0.0906538 -0.162191 -1.44982e-21)
(0.0806434 -0.180877 0)
(0.0761536 -0.206576 -9.26889e-21)
(0.0707291 -0.239916 1.74536e-20)
(0.0651122 -0.279973 -6.75542e-21)
(0.0575918 -0.323838 -1.3607e-21)
(0.0480107 -0.366307 2.86848e-21)
(0.0360898 -0.401921 -1.44915e-22)
(0.0223781 -0.42678 4.70045e-21)
(0.0076566 -0.439488 4.85602e-21)
(0.0987434 -0.156293 -6.52515e-21)
(0.0881075 -0.173486 6.39658e-21)
(0.0823514 -0.198958 9.87809e-22)
(0.0763541 -0.231717 0)
(0.0702176 -0.271588 0)
(0.0621814 -0.315831 1.33603e-21)
(0.0519248 -0.359265 6.11607e-21)
(0.0391072 -0.396075 -5.98291e-21)
(0.0242796 -0.4219 -1.63758e-21)
(0.0083244 -0.435018 1.61016e-21)
(0.109624 -0.156825 0)
(0.104412 -0.170707 0)
(0.0954278 -0.197092 0)
(0.087962 -0.229244 0)
(0.0803668 -0.268145 0)
(0.0707399 -0.310856 0)
(0.05876 -0.352496 0)
(0.0440879 -0.387663 0)
(0.0272862 -0.412492 0)
(0.0091879 -0.425429 0)
(0.129008 -0.142569 0)
(0.132059 -0.16154 0)
(0.118291 -0.191135 0)
(0.110072 -0.222895 0)
(0.0998549 -0.260723 0)
(0.0873631 -0.301011 0)
(0.0721945 -0.339526 0)
(0.0540061 -0.371458 0)
(0.0334675 -0.393326 0)
(0.0115982 -0.403805 0)
(0.155304 -0.128907 0)
(0.161575 -0.15031 0)
(0.143047 -0.1801 0)
(0.134712 -0.210508 0)
(0.121016 -0.246713 0)
(0.105182 -0.283957 0)
(0.0861944 -0.319314 0)
(0.0639928 -0.348872 0)
(0.0393124 -0.369954 0)
(0.0129812 -0.381534 0)
(0.188051 -0.11938 0)
(0.195518 -0.140971 0)
(0.171965 -0.169583 0)
(0.163882 -0.198714 0)
(0.145575 -0.23319 0)
(0.126163 -0.266978 0)
(0.102715 -0.298902 0)
(0.0759154 -0.324963 0)
(0.0467061 -0.342497 0)
(0.0163475 -0.350067 0)
(0.226585 -0.107509 0)
(0.232326 -0.127354 0)
(0.204016 -0.153554 0)
(0.195304 -0.180195 0)
(0.170309 -0.210801 0)
(0.146693 -0.239689 0)
(0.117639 -0.267866 0)
(0.0858998 -0.291403 0)
(0.0519743 -0.309159 0)
(0.0163869 -0.320725 0)
(0.271331 -0.0984557 0)
(0.273705 -0.115842 0)
(0.241468 -0.140252 0)
(0.230689 -0.163641 0)
(0.197963 -0.19026 0)
(0.171026 -0.215163 0)
(0.135889 -0.240371 0)
(0.0989542 -0.260457 0)
(0.0602449 -0.27425 0)
(0.0222287 -0.277683 0)
(0.317711 -0.0809275 0)
(0.312663 -0.0944904 0)
(0.277485 -0.114761 0)
(0.261427 -0.132371 0)
(0.220835 -0.153558 0)
(0.190192 -0.173125 0)
(0.146124 -0.193322 0)
(0.103803 -0.210112 0)
(0.0598765 -0.22691 0)
(0.0148824 -0.245454 0)
(0.364185 -0.0689177 0)
(0.352681 -0.0783767 0)
(0.31758 -0.0950942 0)
(0.295127 -0.108038 0)
(0.251543 -0.126312 0)
(0.216864 -0.142289 0)
(0.166721 -0.160689 0)
(0.120768 -0.177237 0)
(0.0716702 -0.193698 0)
(0.0347252 -0.190513 0)
(0.402557 -0.0378206 0)
(0.386343 -0.0420854 0)
(0.340149 -0.0521398 0)
(0.310452 -0.058267 0)
(0.255932 -0.0692463 0)
(0.212431 -0.0767424 0)
(0.148625 -0.0871208 0)
(0.0916947 -0.0966026 0)
(0.0322768 -0.116428 0)
(-0.0338367 -0.167068 0)
(0.647754 -0.0194497 0)
(0.625868 -0.0224786 0)
(0.584361 -0.0271002 0)
(0.550352 -0.0313065 0)
(0.497832 -0.0377314 0)
(0.449513 -0.0443932 0)
(0.381605 -0.0547904 0)
(0.309992 -0.0697703 0)
(0.214963 -0.0989106 0)
(0.153331 -0.156808 0)
(0.131559 -0.140774 6.66852e-21)
(0.153596 -0.125955 -6.5687e-21)
(0.180085 -0.112768 1.07826e-21)
(0.212471 -0.10354 0)
(0.250829 -0.0926785 0)
(0.293668 -0.0844778 1.64769e-21)
(0.338844 -0.0689717 -7.86596e-21)
(0.382419 -0.0593004 7.76314e-21)
(0.429261 -0.0320832 2.21445e-21)
(0.668992 -0.0169758 -2.24125e-21)
(0.138758 -0.133881 -6.1922e-21)
(0.160586 -0.118848 0)
(0.186477 -0.106147 7.69979e-21)
(0.218768 -0.0972068 -1.86237e-20)
(0.257201 -0.0867818 1.25649e-20)
(0.299931 -0.0789605 -1.53436e-21)
(0.345098 -0.0642117 3.34573e-21)
(0.38853 -0.0554914 7.54132e-21)
(0.439101 -0.0298265 2.05422e-21)
(0.677268 -0.0159191 2.04654e-21)
(0.145078 -0.126214 7.15514e-21)
(0.166399 -0.111363 -7.22317e-21)
(0.191641 -0.0993651 7.15485e-21)
(0.223577 -0.0908305 -9.91073e-21)
(0.26191 -0.080932 7.18574e-21)
(0.304657 -0.0735952 0)
(0.349871 -0.0596808 -3.35382e-21)
(0.393723 -0.0519598 -6.85649e-23)
(0.447715 -0.0278002 -3.88441e-21)
(0.685002 -0.0149049 -4.08715e-21)
(0.151368 -0.117995 -1.2336e-21)
(0.172593 -0.103651 0)
(0.197412 -0.0924531 0)
(0.228978 -0.0843894 0)
(0.267052 -0.0751065 8.15007e-21)
(0.309719 -0.068343 -5.55199e-21)
(0.354809 -0.0553409 -2.17887e-22)
(0.398991 -0.0486177 -3.83458e-21)
(0.455755 -0.0259751 -1.95169e-21)
(0.692423 -0.0139673 -1.99594e-21)
(0.157118 -0.10938 1.26069e-21)
(0.178475 -0.0958356 -3.90894e-21)
(0.202985 -0.0855028 -4.0662e-21)
(0.234413 -0.0779428 4.06368e-21)
(0.272236 -0.069331 -2.56136e-21)
(0.314879 -0.0632135 0)
(0.35981 -0.051155 -3.26694e-21)
(0.404288 -0.0453901 7.30333e-21)
(0.463389 -0.0242922 -3.67134e-21)
(0.699503 -0.013109 3.98577e-21)
(0.162114 -0.100397 -9.20911e-21)
(0.183621 -0.0879369 4.56252e-22)
(0.207822 -0.0785451 -6.49552e-22)
(0.239174 -0.0715447 3.97286e-21)
(0.276855 -0.0636412 0)
(0.319578 -0.0582217 0)
(0.364333 -0.047125 0)
(0.409314 -0.0422643 3.492e-21)
(0.470475 -0.0227154 0)
(0.706143 -0.0123196 0)
(0.166285 -0.091066 0)
(0.187976 -0.0799413 4.6593e-21)
(0.21189 -0.0715578 -3.23477e-21)
(0.243102 -0.0651966 -4.5459e-21)
(0.280698 -0.0580552 4.56954e-21)
(0.32355 -0.0533517 2.96098e-21)
(0.368153 -0.0432606 -2.79377e-21)
(0.413801 -0.0392601 -1.20249e-20)
(0.476825 -0.0212248 8.51369e-22)
(0.712261 -0.0115999 -2.8526e-21)
(0.169529 -0.0814176 0)
(0.19151 -0.0718409 -1.42926e-21)
(0.21522 -0.0645193 -8.62544e-22)
(0.246244 -0.058879 0)
(0.283769 -0.0525527 1.38002e-21)