/*--------------------------------*- C++ -*----------------------------------*\
  =========                 |
  \\      /  F ield         | OpenFOAM: The Open Source CFD Toolbox
   \\    /   O peration     | Website:  https://openfoam.org
    \\  /    A nd           | Version:  7
     \\/     M anipulation  |
\*---------------------------------------------------------------------------*/
FoamFile
{
    version     2.0;
    format      ascii;
    class       volScalarField;
    location    "3";
    object      p;
}
// * * * * * * * * * * * * * * * * * * * * * * * * * * * * * * * * * * * * * //

dimensions      [0 2 -2 0 0 0 0];

internalField   nonuniform List<scalar> 
18000
(
1.50567
1.50453
1.50501
1.50581
1.507
1.50849
1.51021
1.51212
1.51421
1.5165
1.51902
1.52181
1.52489
1.52823
1.53183
1.53567
1.53972
1.54393
1.54826
1.55266
1.55711
1.56155
1.56596
1.57029
1.57452
1.57861
1.58254
1.58633
1.58996
1.59327
1.50047
1.49949
1.5
1.50082
1.50198
1.50339
1.50497
1.50669
1.50854
1.51053
1.51272
1.51516
1.51786
1.52084
1.52409
1.5276
1.53134
1.53528
1.53938
1.5436
1.54789
1.55221
1.55653
1.5608
1.56499
1.56906
1.57299
1.57677
1.58042
1.58374
1.49505
1.49426
1.49483
1.49569
1.49683
1.49817
1.49961
1.50112
1.50272
1.50443
1.50628
1.50835
1.51068
1.51328
1.51617
1.51934
1.52277
1.52643
1.53029
1.53432
1.53846
1.54266
1.54689
1.55111
1.55526
1.55931
1.56324
1.56703
1.57069
1.57404
1.48942
1.4889
1.48952
1.49044
1.49158
1.49284
1.49414
1.49546
1.49681
1.49821
1.49973
1.50143
1.50337
1.5056
1.50812
1.51093
1.51404
1.51742
1.52104
1.52487
1.52886
1.53295
1.53709
1.54125
1.54536
1.5494
1.55333
1.55713
1.56081
1.56419
1.48367
1.48344
1.48413
1.48511
1.48625
1.48744
1.48861
1.48973
1.49083
1.49193
1.49311
1.49444
1.496
1.49783
1.49998
1.50243
1.50521
1.50831
1.51169
1.51532
1.51915
1.52312
1.52718
1.53127
1.53536
1.53938
1.54331
1.54712
1.55081
1.55422
1.47783
1.4779
1.47867
1.47971
1.48086
1.48199
1.48303
1.48396
1.48481
1.48561
1.48646
1.48742
1.4886
1.49004
1.4918
1.4939
1.49635
1.49916
1.5023
1.50572
1.50939
1.51323
1.5172
1.52124
1.52528
1.52929
1.53321
1.53703
1.54074
1.54417
1.47195
1.47231
1.47316
1.47426
1.47543
1.47651
1.47743
1.47818
1.47878
1.4793
1.47982
1.48042
1.48122
1.48228
1.48366
1.4854
1.48752
1.49004
1.49293
1.49614
1.49964
1.50335
1.50722
1.51119
1.51519
1.51917
1.52308
1.5269
1.53061
1.53406
1.46605
1.46669
1.46763
1.4688
1.46998
1.47103
1.47184
1.47241
1.47279
1.47303
1.47323
1.47349
1.47391
1.47459
1.47559
1.47697
1.47877
1.481
1.48364
1.48664
1.48996
1.49353
1.4973
1.50119
1.50514
1.50908
1.51297
1.51676
1.52047
1.52393
1.46015
1.46107
1.46209
1.46333
1.46454
1.46556
1.46628
1.46669
1.46685
1.46683
1.46673
1.46665
1.46672
1.46702
1.46765
1.46869
1.47017
1.47211
1.47448
1.47727
1.4804
1.48383
1.48749
1.49129
1.49517
1.49906
1.5029
1.50666
1.51034
1.51379
1.45427
1.45545
1.45655
1.45787
1.45912
1.46011
1.46075
1.46103
1.461
1.46073
1.46034
1.45995
1.45966
1.45961
1.45989
1.46058
1.46175
1.4634
1.46552
1.46808
1.47103
1.4743
1.47783
1.48152
1.48532
1.48914
1.49293
1.49663
1.50026
1.50368
1.44844
1.44985
1.45104
1.45244
1.45373
1.45471
1.45529
1.45545
1.45524
1.45476
1.4541
1.4534
1.45278
1.45239
1.45233
1.4527
1.45355
1.45492
1.45679
1.45912
1.46188
1.46498
1.46836
1.47194
1.47563
1.47936
1.48307
1.48669
1.49025
1.49362
1.44266
1.44428
1.44555
1.44703
1.44837
1.44937
1.4499
1.44996
1.4496
1.44891
1.44801
1.44703
1.4461
1.44538
1.445
1.44506
1.44561
1.4467
1.44831
1.45042
1.45297
1.4559
1.45912
1.46256
1.46613
1.46975
1.47335
1.47688
1.48034
1.48363
1.43695
1.43875
1.4401
1.44167
1.44306
1.44408
1.44458
1.44457
1.44408
1.44321
1.44209
1.44084
1.43963
1.43861
1.43792
1.43767
1.43794
1.43876
1.44012
1.44199
1.44433
1.44707
1.45013
1.45341
1.45684
1.46033
1.46379
1.4672
1.47053
1.47373
1.43132
1.43328
1.4347
1.43634
1.4378
1.43885
1.43935
1.43928
1.43868
1.43766
1.43633
1.43485
1.43337
1.43207
1.43109
1.43056
1.43054
1.43109
1.4322
1.43385
1.43597
1.43851
1.44138
1.4445
1.44776
1.45109
1.45441
1.45766
1.46084
1.46391
1.42578
1.42785
1.42934
1.43107
1.43259
1.43368
1.43419
1.43408
1.4334
1.43224
1.43073
1.42903
1.42731
1.42574
1.42449
1.42369
1.42342
1.42371
1.42457
1.42598
1.42788
1.43021
1.43289
1.43582
1.43891
1.44206
1.4452
1.44827
1.45128
1.45419
1.42032
1.42248
1.42403
1.42583
1.42743
1.42857
1.42909
1.42896
1.42821
1.42694
1.42527
1.42337
1.42143
1.41962
1.41812
1.41706
1.41654
1.41658
1.4172
1.41837
1.42005
1.42216
1.42464
1.42737
1.43026
1.43321
1.43616
1.43904
1.44184
1.44457
1.41494
1.41715
1.41876
1.42064
1.42231
1.42351
1.42406
1.42391
1.42311
1.42174
1.41993
1.41785
1.4157
1.41367
1.41194
1.41064
1.40988
1.40968
1.41006
1.411
1.41245
1.41435
1.41661
1.41913
1.42181
1.42455
1.42728
1.42994
1.43253
1.43506
1.40963
1.41187
1.41353
1.41548
1.41723
1.41848
1.41906
1.41891
1.41807
1.41661
1.41467
1.41243
1.41008
1.40785
1.40591
1.40439
1.4034
1.40298
1.40313
1.40384
1.40507
1.40675
1.40879
1.41109
1.41354
1.41606
1.41856
1.42099
1.42334
1.42566
1.40438
1.40663
1.40833
1.41035
1.41216
1.41347
1.41409
1.41394
1.41305
1.41151
1.40945
1.40706
1.40455
1.40213
1.39999
1.39828
1.39707
1.39643
1.39636
1.39685
1.39786
1.39932
1.40114
1.40321
1.40543
1.40771
1.40997
1.41216
1.41427
1.41638
1.39918
1.40141
1.40314
1.40522
1.4071
1.40846
1.40911
1.40896
1.40804
1.40642
1.40425
1.40172
1.39905
1.39646
1.39415
1.39225
1.39085
1.39
1.38973
1.39001
1.3908
1.39204
1.39363
1.39547
1.39745
1.39948
1.40151
1.40346
1.40533
1.40722
1.394
1.3962
1.39797
1.4001
1.40203
1.40344
1.40411
1.40396
1.40299
1.40129
1.39901
1.39635
1.39354
1.39081
1.38834
1.38627
1.38469
1.38366
1.38319
1.38326
1.38385
1.38486
1.38623
1.38783
1.38957
1.39136
1.39315
1.39487
1.39651
1.39819
1.38885
1.391
1.3928
1.39496
1.39694
1.39838
1.39907
1.3989
1.39788
1.3961
1.39371
1.39094
1.388
1.38513
1.38252
1.3803
1.37857
1.37736
1.37671
1.37659
1.37696
1.37776
1.37889
1.38026
1.38175
1.38331
1.38487
1.38637
1.3878
1.38929
1.38368
1.38578
1.3876
1.38981
1.39181
1.39327
1.39395
1.39375
1.39268
1.39081
1.38832
1.38544
1.38239
1.3794
1.37667
1.37432
1.37244
1.37108
1.37025
1.36995
1.37012
1.3707
1.3716
1.37272
1.37398
1.37531
1.37664
1.37794
1.37918
1.38052
1.37848
1.38054
1.38238
1.38461
1.38662
1.38808
1.38875
1.3885
1.38736
1.3854
1.38282
1.37983
1.37668
1.3736
1.37075
1.36829
1.36628
1.36478
1.3638
1.36331
1.36328
1.36364
1.36431
1.36519
1.36621
1.36732
1.36845
1.36956
1.37064
1.37182
1.37324
1.37525
1.37711
1.37935
1.38137
1.38281
1.38344
1.38313
1.3819
1.37985
1.37717
1.3741
1.37086
1.36769
1.36476
1.3622
1.36008
1.35845
1.35731
1.35665
1.35642
1.35656
1.35699
1.35763
1.35842
1.3593
1.36024
1.3612
1.36216
1.36327
1.36792
1.3699
1.37178
1.37403
1.37604
1.37744
1.378
1.37762
1.3763
1.37415
1.37138
1.36822
1.36492
1.36168
1.35867
1.35602
1.35381
1.35206
1.35078
1.34994
1.34951
1.34942
1.34961
1.35001
1.35056
1.35123
1.35199
1.35282
1.3537
1.35482
1.36252
1.36448
1.36637
1.36862
1.3706
1.37195
1.37244
1.37196
1.37053
1.36829
1.36543
1.36221
1.35884
1.35555
1.35248
1.34977
1.34747
1.3456
1.34418
1.34316
1.34253
1.34221
1.34215
1.34229
1.34259
1.34303
1.34361
1.34433
1.34518
1.34637
1.35701
1.35897
1.36088
1.36312
1.36505
1.36633
1.36673
1.36614
1.3646
1.36226
1.35933
1.35604
1.35264
1.3493
1.34619
1.34342
1.34104
1.33907
1.3375
1.33631
1.33547
1.33491
1.33458
1.33444
1.33446
1.33465
1.33502
1.33562
1.33647
1.33782
1.35139
1.35337
1.35529
1.3575
1.35938
1.36058
1.36087
1.36016
1.35851
1.35607
1.35307
1.34974
1.3463
1.34294
1.33981
1.33699
1.33453
1.33246
1.33075
1.32939
1.32832
1.32751
1.3269
1.32646
1.32616
1.32602
1.32609
1.32648
1.32735
1.32905
1.34565
1.34767
1.34958
1.35177
1.35359
1.35469
1.35485
1.35402
1.35225
1.34973
1.34667
1.34332
1.33986
1.33649
1.33333
1.33048
1.32796
1.32579
1.32394
1.32239
1.3211
1.32003
1.31912
1.31834
1.31767
1.3171
1.31669
1.3165
1.31676
1.31861
1.60315
1.61769
1.62679
1.6349
1.64087
1.64565
1.64925
1.65187
1.65361
1.65461
1.65497
1.65481
1.65419
1.65324
1.65198
1.65053
1.64883
1.64698
1.6449
1.64273
1.64028
1.63778
1.63497
1.6322
1.62907
1.62627
1.62307
1.62108
1.61865
1.61969
1.59366
1.60906
1.61859
1.6271
1.63338
1.63836
1.64209
1.64483
1.64671
1.64783
1.64828
1.64818
1.64763
1.64676
1.64557
1.64416
1.6425
1.64069
1.63865
1.6365
1.6341
1.63164
1.62885
1.62615
1.62307
1.62036
1.61724
1.61532
1.61296
1.61405
1.58397
1.6003
1.61029
1.61923
1.62582
1.63101
1.63489
1.63775
1.63977
1.64101
1.64155
1.64153
1.64106
1.64027
1.63914
1.63778
1.63616
1.6344
1.63239
1.63029
1.62794
1.62552
1.62277
1.62015
1.61714
1.61452
1.61148
1.60964
1.60733
1.60846
1.5741
1.59141
1.60193
1.61132
1.6182
1.62361
1.62766
1.63066
1.63281
1.63415
1.6348
1.63487
1.63449
1.63376
1.63269
1.63139
1.62982
1.62811
1.62614
1.62409
1.62179
1.61943
1.61675
1.61421
1.61127
1.60874
1.60579
1.60403
1.60178
1.60295
1.564
1.58242
1.5935
1.60335
1.61053
1.61616
1.6204
1.62356
1.62581
1.62726
1.62802
1.62819
1.6279
1.62724
1.62623
1.62499
1.62348
1.62182
1.61991
1.61791
1.61565
1.61337
1.61078
1.60831
1.60548
1.60303
1.60017
1.59849
1.5963
1.59752
1.55383
1.57334
1.58499
1.59532
1.60281
1.60868
1.61311
1.61642
1.6188
1.62035
1.62123
1.6215
1.6213
1.62071
1.61978
1.61859
1.61714
1.61554
1.61369
1.61175
1.60956
1.60736
1.60485
1.60247
1.59974
1.59739
1.59463
1.59303
1.5909
1.59216
1.54354
1.56417
1.57641
1.58724
1.59506
1.60118
1.6058
1.60927
1.61177
1.61344
1.61443
1.61481
1.6147
1.61418
1.61332
1.6122
1.61082
1.60928
1.60749
1.60562
1.6035
1.60138
1.59897
1.59669
1.59407
1.59181
1.58916
1.58765
1.58557
1.58688
1.53316
1.55493
1.56778
1.57912
1.58729
1.59366
1.59847
1.6021
1.60474
1.60653
1.60762
1.6081
1.60809
1.60765
1.60687
1.60581
1.60449
1.60303
1.6013
1.59951
1.59747
1.59544
1.59314
1.59095
1.58845
1.58631
1.58376
1.58235
1.58033
1.58168
1.52273
1.54537
1.5591
1.57097
1.5795
1.58613
1.59113
1.59493
1.5977
1.59961
1.60081
1.6014
1.60148
1.60113
1.60042
1.59944
1.59818
1.59679
1.59514
1.59343
1.59148
1.58954
1.58735
1.58527
1.5829
1.58087
1.57844
1.57712
1.57516
1.57655
1.51226
1.5359
1.55039
1.56279
1.57169
1.57859
1.5838
1.58775
1.59066
1.5927
1.59401
1.59471
1.59488
1.59461
1.59398
1.59307
1.59189
1.59057
1.58901
1.58737
1.58551
1.58368
1.5816
1.57964
1.5774
1.5755
1.57319
1.57197
1.57008
1.57152
1.50179
1.52648
1.54166
1.5546
1.56388
1.57104
1.57646
1.58058
1.58364
1.5858
1.58722
1.58801
1.58829
1.5881
1.58754
1.58671
1.58561
1.58436
1.58289
1.58135
1.57959
1.57786
1.5759
1.57407
1.57195
1.5702
1.56801
1.5669
1.56509
1.56657
1.49135
1.51708
1.53293
1.5464
1.55606
1.5635
1.56913
1.57343
1.57662
1.5789
1.58043
1.58133
1.5817
1.5816
1.58112
1.58036
1.57934
1.57818
1.5768
1.57535
1.57369
1.57208
1.57024
1.56854
1.56656
1.56496
1.5629
1.56192
1.56018
1.56171
1.48094
1.50773
1.52422
1.5382
1.54826
1.55597
1.56182
1.56628
1.56962
1.57202
1.57367
1.57467
1.57512
1.57511
1.57471
1.57403
1.5731
1.57201
1.57073
1.56938
1.56782
1.56632
1.56462
1.56306
1.56123
1.55978
1.55787
1.55702
1.55536
1.55694
1.47058
1.4984
1.51553
1.53002
1.54047
1.54846
1.55453
1.55916
1.56264
1.56516
1.56692
1.56802
1.56856
1.56863
1.56831
1.56772
1.56687
1.56587
1.56468
1.56343
1.56198
1.5606
1.55903
1.55761
1.55594
1.55466
1.5529
1.5522
1.55064
1.55226
1.46029
1.4891
1.50687
1.52187
1.5327
1.54098
1.54727
1.55207
1.55569
1.55833
1.56019
1.56139
1.56202
1.56217
1.56193
1.56142
1.56066
1.55975
1.55865
1.5575
1.55616
1.55491
1.55347
1.55221
1.5507
1.5496
1.54801
1.54746
1.54601
1.54769
1.4501
1.4798
1.49824
1.51374
1.52497
1.53353
1.54004
1.54501
1.54877
1.55154
1.5535
1.55479
1.55551
1.55573
1.55557
1.55515
1.55447
1.55365
1.55265
1.5516
1.55037
1.54924
1.54795
1.54685
1.54551
1.54459
1.54319
1.54281
1.54148
1.54323
1.44
1.47053
1.48967
1.50567
1.51727
1.52612
1.53285
1.538
1.54189
1.54478
1.54684
1.54823
1.54901
1.54931
1.54923
1.54889
1.54831
1.54758
1.54666
1.54572
1.5446
1.5436
1.54245
1.54152
1.54036
1.53964
1.53844
1.53825
1.53706
1.53888
1.43002
1.46122
1.48118
1.49764
1.50963
1.51875
1.52571
1.53102
1.53505
1.53806
1.54022
1.54169
1.54255
1.54293
1.54293
1.54266
1.54216
1.54152
1.54069
1.53986
1.53885
1.53798
1.53699
1.53622
1.53525
1.53475
1.53376
1.53378
1.53275
1.53464
1.42018
1.45158
1.47276
1.48967
1.50204
1.51144
1.51863
1.5241
1.52827
1.53139
1.53364
1.53519
1.53612
1.53657
1.53665
1.53646
1.53604
1.53549
1.53474
1.53401
1.53312
1.53238
1.53154
1.53096
1.53018
1.5299
1.52915
1.52941
1.52856
1.53054
1.41053
1.44247
1.46445
1.48177
1.49452
1.5042
1.51161
1.51724
1.52153
1.52477
1.5271
1.52874
1.52973
1.53025
1.5304
1.53028
1.52994
1.52948
1.52881
1.52819
1.52741
1.52681
1.52612
1.52573
1.52515
1.52511
1.52461
1.52512
1.52448
1.52657
1.40111
1.43364
1.45624
1.47396
1.48707
1.49703
1.50465
1.51045
1.51486
1.5182
1.52062
1.52232
1.52338
1.52396
1.52419
1.52414
1.52387
1.52349
1.5229
1.52238
1.52172
1.52125
1.52072
1.52052
1.52015
1.52035
1.52013
1.52092
1.52053
1.52275
1.39197
1.42497
1.44816
1.46625
1.47972
1.48995
1.49778
1.50373
1.50826
1.5117
1.51419
1.51596
1.51707
1.51772
1.51801
1.51802
1.51782
1.51752
1.51701
1.51659
1.51605
1.51572
1.51534
1.51532
1.51518
1.51563
1.5157
1.51681
1.51671
1.51909
1.38312
1.41651
1.44023
1.45865
1.47247
1.48297
1.491
1.4971
1.50174
1.50526
1.50782
1.50965
1.51082
1.51152
1.51186
1.51194
1.5118
1.51157
1.51115
1.51082
1.5104
1.51019
1.50998
1.51015
1.51023
1.51094
1.51133
1.51279
1.51302
1.51561
1.37407
1.40827
1.43246
1.45118
1.46533
1.47609
1.48432
1.49056
1.49529
1.4989
1.50152
1.50339
1.50461
1.50536
1.50575
1.50589
1.50581
1.50564
1.5053
1.50506
1.50475
1.50468
1.50462
1.50498
1.50529
1.50627
1.50699
1.50885
1.50948
1.51232
1.36582
1.40029
1.42487
1.44385
1.45832
1.46934
1.47775
1.48412
1.48894
1.49262
1.49528
1.4972
1.49845
1.49924
1.49968
1.49987
1.49983
1.49973
1.49946
1.49932
1.49912
1.49918
1.49928
1.49981
1.50035
1.50161
1.50269
1.50498
1.50608
1.50926
1.35797
1.39257
1.41748
1.4367
1.45147
1.46272
1.4713
1.4778
1.4827
1.48643
1.48913
1.49107
1.49235
1.49317
1.49365
1.49388
1.49388
1.49384
1.49365
1.49359
1.49351
1.49369
1.49393
1.49465
1.49542
1.49696
1.49842
1.50118
1.50285
1.50647
1.35057
1.38516
1.41031
1.42975
1.4448
1.45627
1.465
1.4716
1.47656
1.48033
1.48305
1.48501
1.48631
1.48716
1.48766
1.48792
1.48796
1.48798
1.48786
1.48788
1.4879
1.4882
1.48859
1.48948
1.49047
1.4923
1.49415
1.49743
1.49977
1.50398
1.34368
1.37794
1.40326
1.42292
1.43822
1.44991
1.45878
1.46548
1.47049
1.47428
1.47702
1.47897
1.4803
1.48115
1.48167
1.48196
1.48204
1.48211
1.48206
1.48216
1.48228
1.4827
1.48323
1.48428
1.4855
1.48761
1.48987
1.49371
1.49684
1.50186
1.33704
1.37055
1.396
1.41591
1.43148
1.44341
1.45245
1.45925
1.46433
1.46814
1.4709
1.47287
1.4742
1.47508
1.47562
1.47594
1.47607
1.47618
1.47621
1.47639
1.47662
1.47715
1.47782
1.47904
1.48047
1.48287
1.48554
1.48998
1.49404
1.50017
1.3309
1.36339
1.38891
1.40901
1.42478
1.43691
1.44609
1.45298
1.45813
1.46197
1.46475
1.46674
1.4681
1.469
1.46956
1.46991
1.47008
1.47025
1.47035
1.47061
1.47093
1.47157
1.47236
1.47373
1.47537
1.47804
1.48112
1.48616
1.49129
1.49892
1.3137
1.34596
1.3716
1.39188
1.40775
1.41998
1.42918
1.43605
1.44116
1.44494
1.44768
1.44962
1.45094
1.45181
1.45235
1.45271
1.45292
1.45315
1.45338
1.45378
1.45429
1.45517
1.45626
1.458
1.46015
1.46347
1.46763
1.47429
1.48265
1.49566
1.27748
1.30903
1.33409
1.35389
1.36969
1.38218
1.39179
1.39911
1.40467
1.40887
1.41202
1.41436
1.41608
1.41737
1.41833
1.41911
1.41977
1.42045
1.42115
1.42204
1.42306
1.42448
1.42616
1.42855
1.43145
1.43568
1.44101
1.44926
1.45994
1.4757
1.24181
1.27184
1.29592
1.31522
1.33093
1.3436
1.35353
1.36123
1.36721
1.37184
1.37542
1.3782
1.38037
1.38211
1.38355
1.38481
1.38596
1.38714
1.38835
1.38977
1.39132
1.39331
1.39557
1.39856
1.40211
1.40702
1.41309
1.42212
1.43363
1.45031
1.20568
1.23418
1.25726
1.27605
1.2916
1.30436
1.31453
1.32257
1.32894
1.33398
1.33798
1.34121
1.34383
1.34605
1.34796
1.34971
1.35136
1.35305
1.35477
1.35672
1.35881
1.36134
1.36414
1.36768
1.37176
1.37719
1.3837
1.3931
1.4048
1.4217
1.16888
1.19601
1.21813
1.2364
1.25175
1.26453
1.2749
1.28324
1.28996
1.2954
1.29985
1.30353
1.30663
1.30933
1.31174
1.31399
1.31614
1.31834
1.32057
1.32303
1.32562
1.32865
1.33193
1.33594
1.34044
1.34623
1.353
1.36252
1.37411
1.3909
1.13117
1.15714
1.17839
1.19615
1.21125
1.22402
1.23454
1.24314
1.25021
1.25605
1.26094
1.2651
1.26869
1.27189
1.2748
1.27756
1.28022
1.28293
1.28566
1.28861
1.29167
1.29514
1.29885
1.30323
1.30806
1.31409
1.32099
1.33048
1.34183
1.3584
1.09242
1.11742
1.13791
1.15517
1.17003
1.18278
1.19343
1.20228
1.20968
1.21592
1.22125
1.22588
1.22996
1.23366
1.23708
1.24035
1.24352
1.24673
1.24994
1.25335
1.25685
1.26073
1.26481
1.26951
1.2746
1.28079
1.28774
1.29712
1.30816
1.32444
1.05256
1.07673
1.09656
1.11339
1.12804
1.14077
1.15154
1.16063
1.16835
1.17498
1.18075
1.18584
1.19041
1.19461
1.19854
1.20231
1.20598
1.20967
1.21335
1.2172
1.22111
1.22537
1.22978
1.23476
1.24005
1.24636
1.25331
1.26254
1.27322
1.28914
1.01154
1.03503
1.0543
1.07076
1.08523
1.09793
1.10883
1.11814
1.12618
1.13319
1.13937
1.14492
1.14998
1.15468
1.1591
1.16338
1.16753
1.17169
1.17582
1.18009
1.1844
1.18901
1.19372
1.19895
1.20442
1.21082
1.21774
1.22679
1.23708
1.25259
0.969349
0.992256
1.01107
1.02721
1.04152
1.05422
1.06523
1.07477
1.08311
1.09048
1.09709
1.10309
1.10862
1.11381
1.11873
1.12349
1.12812
1.13274
1.1373
1.14198
1.14666
1.1516
1.15661
1.16206
1.16769
1.17416
1.18104
1.18989
1.19978
1.21482
0.925986
0.948391
0.966816
0.98269
0.996864
1.00958
1.02072
1.03047
1.03911
1.04684
1.05385
1.06029
1.06629
1.07195
1.07736
1.0826
1.08769
1.09275
1.09774
1.10282
1.10786
1.11312
1.1184
1.12406
1.12985
1.13637
1.14321
1.15185
1.16132
1.17586
0.881451
0.903415
0.921516
0.937169
0.951232
0.963966
0.975236
0.985202
0.99413
1.00221
1.00962
1.01649
1.02294
1.02907
1.03494
1.04064
1.04619
1.05169
1.05709
1.06254
1.06794
1.0735
1.07905
1.08492
1.09084
1.09743
1.10421
1.11266
1.1217
1.13572
0.835767
0.857323
0.875146
0.890613
0.904582
0.917346
0.928753
0.938931
0.94814
0.956564
0.964351
0.97164
0.978529
0.98511
0.991433
0.997584
1.00357
1.00948
1.01528
1.0211
1.02683
1.0327
1.0385
1.04457
1.05064
1.05727
1.06402
1.07227
1.0809
1.09438
0.788943
0.810114
0.827689
0.842997
0.856888
0.869689
0.881234
0.89162
0.901101
0.909854
0.918011
0.925698
0.933008
0.940023
0.946781
0.953363
0.959765
0.966083
0.972259
0.97844
0.984499
0.990653
0.996701
1.00297
1.00917
1.01587
1.02258
1.03065
1.03889
1.05182
0.740998
0.761789
0.779135
0.794303
0.808127
0.820966
0.832647
0.843234
0.852977
0.862046
0.870556
0.878625
0.886337
0.893763
0.900937
0.907929
0.914727
0.921428
0.927969
0.934489
0.94086
0.947291
0.953576
0.960028
0.966365
0.973113
0.979792
0.98769
0.995566
1.00794
0.691954
0.712353
0.729475
0.744516
0.758277
0.771152
0.782964
0.793743
0.803736
0.813106
0.821952
0.830383
0.838473
0.846286
0.853849
0.861225
0.868397
0.875458
0.88234
0.88918
0.895844
0.902535
0.909048
0.915682
0.922156
0.928969
0.935639
0.94339
0.950929
0.962755
0.64183
0.66181
0.678704
0.693623
0.707321
0.720225
0.73216
0.743124
0.753351
0.763003
0.772165
0.780933
0.789372
0.797544
0.805468
0.813197
0.820715
0.828105
0.835299
0.842428
0.849359
0.856286
0.863004
0.869792
0.87637
0.883208
0.889837
0.897431
0.904696
0.91598
0.590642
0.610167
0.626816
0.64161
0.655244
0.668168
0.680219
0.691355
0.701798
0.711708
0.721159
0.730234
0.738993
0.747493
0.755742
0.763789
0.771613
0.779293
0.78676
0.794143
0.801312
0.808453
0.815366
0.822316
0.829028
0.835942
0.842586
0.850043
0.856991
0.867739
0.5384
0.557422
0.573805
0.58847
0.602036
0.61497
0.627122
0.638414
0.64905
0.659191
0.668903
0.678255
0.687299
0.696087
0.704617
0.712935
0.721017
0.728936
0.736626
0.744214
0.751567
0.758865
0.765904
0.772935
0.779686
0.786574
0.793159
0.80049
0.807301
0.817499
0.485121
0.503569
0.51967
0.534203
0.547692
0.560616
0.572851
0.584281
0.595086
0.60543
0.615372
0.624964
0.634251
0.643276
0.652034
0.660568
0.668847
0.676946
0.684802
0.692542
0.700047
0.707492
0.714685
0.721854
0.72872
0.735644
0.74217
0.749265
0.755724
0.765483
0.430806
0.448613
0.464419
0.478811
0.492204
0.505097
0.517398
0.528948
0.539895
0.55041
0.560545
0.570332
0.579808
0.589014
0.597939
0.606622
0.615023
0.623219
0.631151
0.638944
0.64648
0.653927
0.661106
0.668238
0.675082
0.681995
0.688558
0.695618
0.701936
0.710816
0.375522
0.392598
0.408097
0.422318
0.435582
0.448416
0.460765
0.472416
0.483474
0.494121
0.504401
0.514331
0.523939
0.533258
0.542275
0.551022
0.559461
0.567676
0.57562
0.583428
0.590998
0.598491
0.605718
0.612845
0.61958
0.626212
0.632368
0.63898
0.645184
0.654016
0.319493
0.335699
0.350828
0.364797
0.377863
0.390602
0.402973
0.414697
0.425832
0.436567
0.44694
0.456952
0.46662
0.475973
0.484993
0.493701
0.502056
0.510138
0.517905
0.525494
0.532834
0.54011
0.547203
0.554312
0.561205
0.568085
0.574454
0.580842
0.586046
0.593013
0.263369
0.27843
0.292945
0.306442
0.319173
0.331743
0.344083
0.35583
0.366997
0.377762
0.388157
0.398171
0.407811
0.417106
0.426029
0.434602
0.442791
0.45069
0.458262
0.465645
0.472751
0.479729
0.486415
0.492977
0.499218
0.505414
0.511251
0.517395
0.523242
0.530481
0.208591
0.22196
0.235236
0.247753
0.259849
0.272075
0.284252
0.295925
0.307044
0.317759
0.328094
0.338028
0.34755
0.35667
0.365346
0.373585
0.38135
0.388739
0.395762
0.402617
0.409324
0.416088
0.422793
0.42949
0.4358
0.441692
0.446692
0.451429
0.455459
0.460951
0.15743
0.168261
0.179249
0.189904
0.200769
0.212217
0.223875
0.235213
0.246103
0.256625
0.26677
0.276489
0.285759
0.294596
0.302952
0.310824
0.318149
0.324997
0.33134
0.337342
0.343034
0.348679
0.354319
0.360179
0.366124
0.372174
0.37776
0.382843
0.386601
0.390441
0.112109
0.119557
0.127145
0.13493
0.143709
0.153572
0.163981
0.174431
0.184717
0.194779
0.204509
0.213814
0.222619
0.230889
0.238565
0.245662
0.252182
0.258268
0.263975
0.269463
0.274706
0.279781
0.284551
0.289126
0.293431
0.297727
0.301812
0.305797
0.308902
0.311326
0.0735772
0.077383
0.0811701
0.085505
0.0913752
0.0985721
0.106584
0.115073
0.123818
0.13265
0.141404
0.149942
0.158101
0.165728
0.172635
0.178735
0.183987
0.188555
0.192602
0.196452
0.200302
0.204413
0.208799
0.213414
0.21786
0.221879
0.225058
0.227401
0.228197
0.228049
0.0411894
0.0419303
0.0424555
0.0436668
0.0467109
0.0507392
0.0554914
0.0609078
0.0668216
0.0730428
0.0794437
0.0859553
0.092454
0.0987842
0.104705
0.10999
0.114392
0.117839
0.120316
0.122087
0.123482
0.125051
0.127199
0.130159
0.133664
0.137258
0.140252
0.142288
0.142042
0.139179
0.0129756
0.0117886
0.00840232
0.00742994
0.00903452
0.0103908
0.0118404
0.0136734
0.0158572
0.018307
0.0209833
0.023878
0.0269463
0.0301394
0.0333244
0.0363771
0.0390913
0.0413513
0.0430123
0.0441184
0.0447351
0.0451498
0.0455908
0.0463312
0.0473945
0.0487185
0.0499916
0.051131
0.0511706
0.0481733
1.28762
1.25118
1.21622
1.18058
1.14438
1.10716
1.06884
1.02935
0.988691
0.946852
0.903859
0.859704
0.814429
0.768056
0.720586
0.672061
0.622515
0.571967
0.520455
0.46804
0.414785
0.360872
0.306649
0.252803
0.20063
0.15206
0.108909
0.072087
0.0408051
0.0135087
1.27845
1.24222
1.2076
1.17222
1.13629
1.0993
1.06119
1.02188
0.981395
0.939726
0.896906
0.852923
0.807824
0.761636
0.714355
0.666025
0.616688
0.566361
0.515088
0.462934
0.409971
0.356392
0.302567
0.249203
0.197614
0.149737
0.107339
0.0712604
0.0405303
0.0135889
1.26924
1.23356
1.19924
1.16412
1.12845
1.09168
1.05377
1.01465
0.974346
0.932849
0.890205
0.846404
0.801484
0.755482
0.708395
0.660266
0.611141
0.561039
0.510005
0.45811
0.405434
0.35218
0.298737
0.245826
0.194756
0.147466
0.105706
0.070308
0.0401705
0.0135978
1.26003
1.22508
1.19107
1.15618
1.12075
1.0842
1.04648
1.00754
0.967412
0.926083
0.883609
0.839985
0.795238
0.749416
0.702518
0.654588
0.605673
0.555792
0.504994
0.453357
0.400963
0.348023
0.294951
0.242484
0.191936
0.145257
0.10416
0.0694268
0.039839
0.0135859
1.25093
1.21679
1.18312
1.14845
1.11323
1.07689
1.03935
1.00058
0.960616
0.919452
0.87714
0.833683
0.789103
0.743455
0.696741
0.649003
0.600291
0.550628
0.500061
0.448676
0.39656
0.343931
0.291227
0.239208
0.189188
0.143127
0.102699
0.0686197
0.0395466
0.0135583
1.24198
1.20866
1.17537
1.14093
1.10589
1.06975
1.03238
0.993774
0.953961
0.912953
0.870797
0.827499
0.78308
0.7376
0.691062
0.643508
0.594995
0.545544
0.495203
0.444062
0.392218
0.339897
0.287561
0.23599
0.186511
0.141077
0.101317
0.0678754
0.0392851
0.0135177
1.23319
1.20071
1.1678
1.13361
1.09874
1.06277
1.02556
0.987112
0.947449
0.906588
0.864579
0.821435
0.777173
0.731854
0.685485
0.63811
0.589788
0.540543
0.490421
0.439517
0.38794
0.335923
0.283949
0.232829
0.1839
0.139101
0.100012
0.0671911
0.0390527
0.0134664
1.22459
1.19292
1.16041
1.12647
1.09178
1.05596
1.0189
0.9806
0.94108
0.900358
0.858489
0.815494
0.771382
0.726218
0.680014
0.632812
0.584675
0.535628
0.485719
0.435044
0.383728
0.332009
0.280392
0.229722
0.181351
0.137196
0.0987812
0.0665633
0.0388489
0.0134071
1.21619
1.18529
1.1532
1.11951
1.08498
1.04932
1.01241
0.974239
0.934854
0.894265
0.852531
0.809679
0.765711
0.720694
0.674652
0.627618
0.579657
0.530801
0.4811
0.430648
0.379586
0.328158
0.276894
0.226676
0.17887
0.135364
0.0976222
0.0659889
0.0386725
0.0133418
1.208
1.17783
1.14615
1.11273
1.07837
1.04285
1.00608
0.968031
0.928774
0.888312
0.846707
0.803988
0.760158
0.715285
0.669399
0.622528
0.574735
0.526063
0.476566
0.426333
0.37552
0.32438
0.273467
0.223705
0.176466
0.13361
0.0965355
0.065466
0.0385217
0.013272
1.20004
1.17054
1.13927
1.10613
1.07194
1.03655
0.999907
0.96198
0.922843
0.882503
0.84102
0.798425
0.754728
0.709993
0.664257
0.617542
0.569912
0.521417
0.472119
0.422102
0.371534
0.320681
0.27012
0.220818
0.174145
0.131938
0.0955208
0.0649922
0.038394
0.0131989
1.19231
1.16343
1.13257
1.0997
1.06568
1.03042
0.993904
0.95609
0.917067
0.876841
0.835471
0.792992
0.749423
0.70482
0.659226
0.61266
0.565188
0.516865
0.46776
0.417953
0.367626
0.317062
0.266854
0.218014
0.17191
0.130347
0.0945749
0.0645645
0.0382861
0.0131233
1.18482
1.15652
1.12604
1.09345
1.0596
1.02447
0.988069
0.950364
0.911448
0.871328
0.830064
0.787695
0.744247
0.699768
0.654308
0.607883
0.560563
0.512407
0.463486
0.413883
0.363793
0.313517
0.263666
0.215291
0.169755
0.128834
0.0936935
0.0641786
0.0381979
0.0130461
1.17758
1.14981
1.1197
1.08737
1.0537
1.0187
0.982406
0.944804
0.905988
0.865967
0.824804
0.782538
0.739203
0.694839
0.649503
0.603213
0.55604
0.508043
0.459297
0.40989
0.360031
0.310043
0.260551
0.212641
0.167677
0.127396
0.092873
0.0638306
0.0381208
0.0129681
1.1706
1.1433
1.11354
1.08148
1.04798
1.0131
0.976915
0.93941
0.900688
0.860759
0.819692
0.777522
0.734293
0.690036
0.644816
0.598655
0.551621
0.503775
0.455193
0.405973
0.356339
0.306636
0.257506
0.210065
0.165676
0.12603
0.0921106
0.0635177
0.0380525
0.0128904
1.16388
1.13702
1.10757
1.07577
1.04244
1.00767
0.971596
0.934182
0.895548
0.855706
0.814731
0.772651
0.729518
0.685361
0.640249
0.594211
0.547309
0.499605
0.451179
0.40214
0.352724
0.303303
0.254537
0.207566
0.163757
0.124735
0.0914048
0.0632378
0.0379933
0.0128145
1.15742
1.13095
1.10181
1.07024
1.03708
1.00243
0.96645
0.92912
0.890569
0.850809
0.80992
0.767924
0.72488
0.680817
0.635808
0.589886
0.543108
0.495537
0.44726
0.398397
0.349194
0.300052
0.25165
0.205151
0.161923
0.123514
0.0907545
0.0629896
0.0379425
0.0127414
1.15124
1.12513
1.09626
1.06491
1.03191
0.997369
0.961478
0.924228
0.885753
0.84607
0.805261
0.763342
0.720381
0.676408
0.631494
0.585681
0.539019
0.491575
0.443441
0.39475
0.345755
0.296888
0.248852
0.202825
0.160173
0.122366
0.0901584
0.0627714
0.0378992
0.0126722
1.14534
1.11954
1.09092
1.05978
1.02694
0.992491
0.956686
0.919508
0.881104
0.84149
0.800753
0.758905
0.716022
0.672134
0.627309
0.581596
0.535043
0.487719
0.439724
0.3912
0.34241
0.293815
0.246144
0.200587
0.158507
0.12129
0.0896141
0.0625811
0.0378624
0.0126076
1.13972
1.1142
1.08581
1.05486
1.02215
0.987801
0.952074
0.914964
0.876623
0.83707
0.796399
0.754616
0.711805
0.667996
0.623251
0.577629
0.531179
0.483969
0.436107
0.387745
0.339156
0.290831
0.243526
0.198437
0.156921
0.120282
0.0891189
0.0624164
0.0378311
0.0125484
1.13439
1.10912
1.08093
1.05014
1.01757
0.983303
0.947647
0.910596
0.872312
0.832812
0.792199
0.750476
0.707729
0.663992
0.61932
0.57378
0.527424
0.480321
0.432585
0.38438
0.335988
0.287932
0.240992
0.196372
0.155412
0.119341
0.0886697
0.0622753
0.0378044
0.0124948
1.12935
1.1043
1.07628
1.04564
1.01318
0.978998
0.943407
0.906408
0.868173
0.828719
0.788157
0.746487
0.703796
0.660122
0.615515
0.570047
0.523779
0.476774
0.429155
0.3811
0.332902
0.285114
0.238538
0.194387
0.153975
0.118463
0.0882641
0.062156
0.0377817
0.0124471
1.12461
1.09973
1.07187
1.04135
1.00901
0.97489
0.939357
0.902401
0.864211
0.824794
0.784276
0.742651
0.700007
0.656387
0.611837
0.566434
0.520244
0.473328
0.425818
0.377905
0.329899
0.282376
0.236164
0.192476
0.152614
0.117646
0.0879004
0.0620576
0.0377623
0.0124054
1.12018
1.09544
1.0677
1.03729
1.00504
0.970982
0.935499
0.89858
0.860427
0.821042
0.780559
0.73897
0.696365
0.652789
0.608291
0.562944
0.516823
0.469987
0.422577
0.3748
0.326983
0.279721
0.23387
0.190641
0.151325
0.11689
0.0875771
0.0619792
0.037746
0.0123697
1.11605
1.09142
1.06378
1.03345
1.00128
0.967275
0.931836
0.894947
0.856826
0.817465
0.777008
0.735447
0.692871
0.649332
0.604879
0.559582
0.51352
0.466756
0.419439
0.371792
0.324157
0.277151
0.231659
0.188886
0.150106
0.116193
0.0872929
0.0619207
0.0377323
0.0123401
1.11225
1.08767
1.06011
1.02984
0.997744
0.963774
0.92837
0.891503
0.853408
0.814063
0.773625
0.732083
0.689529
0.646021
0.601606
0.556352
0.510341
0.463643
0.416411
0.368886
0.321428
0.274672
0.229533
0.18721
0.14896
0.115555
0.0870459
0.0618769
0.0377211
0.0123169
1.10876
1.0842
1.0567
1.02647
0.994423
0.960479
0.925103
0.88825
0.850174
0.810839
0.770409
0.72888
0.686342
0.642856
0.598473
0.553255
0.507287
0.460649
0.413496
0.366087
0.318797
0.272283
0.227492
0.185614
0.147883
0.114974
0.0868338
0.0618481
0.0377123
0.0122993
1.10559
1.08102
1.05355
1.02333
0.991324
0.957395
0.922038
0.885191
0.847123
0.80779
0.767363
0.725839
0.683311
0.639841
0.595482
0.550292
0.504361
0.457776
0.410695
0.363392
0.316263
0.269983
0.225533
0.184096
0.146874
0.114446
0.0866538
0.0618326
0.0377058
0.012287
1.10275
1.07812
1.05066
1.02044
0.98845
0.954523