/*--------------------------------*- C++ -*----------------------------------*\
  =========                 |
  \\      /  F ield         | OpenFOAM: The Open Source CFD Toolbox
   \\    /   O peration     | Website:  https://openfoam.org
    \\  /    A nd           | Version:  7
     \\/     M anipulation  |
\*---------------------------------------------------------------------------*/
FoamFile
{
    version     2.0;
    format      ascii;
    class       surfaceScalarField;
    location    "61";
    object      phi;
}
// * * * * * * * * * * * * * * * * * * * * * * * * * * * * * * * * * * * * * //

dimensions      [0 3 -1 0 0 0 0];

internalField   nonuniform List<scalar> 
3880
(
-3.54445e-05
-0.000851637
0.000887081
-4.39355e-05
-0.00167394
0.00168243
1.3178e-05
-0.0019228
0.00186569
0.000164454
-0.00173116
0.00157989
0.000433049
-0.00117081
0.000902216
0.000836018
-0.000284479
-0.00011849
0.00138182
0.000895558
-0.00144136
0.00206762
0.00233488
-0.00302069
0.00287729
0.00398927
-0.00479893
0.00579963
0.00377992
-0.00670226
-4.12796e-05
-0.000810357
-5.80291e-05
-0.00165719
-1.31501e-05
-0.00196768
0.000121227
-0.00186554
0.000369749
-0.00141933
0.000753786
-0.000668517
0.00128826
0.000361082
0.00197755
0.00164559
0.0028113
0.00315553
0.00485049
0.00376043
-4.10231e-05
-0.000769334
-5.46658e-05
-0.00164354
-8.47573e-06
-0.00201387
0.000121601
-0.00199562
0.000359008
-0.00165674
0.000726857
-0.00103637
0.00124503
-0.000157087
0.00192519
0.000965421
0.00276452
0.0023162
0.00387678
0.00373824
-3.32549e-05
-0.00073608
-2.97837e-05
-0.00164701
3.50155e-05
-0.00207867
0.000178984
-0.00213959
0.000421087
-0.00189884
0.000783085
-0.00139836
0.00128732
-0.00066132
0.00195143
0.000301308
0.00278127
0.00148637
0.00289859
0.00375945
-1.69944e-05
-0.000719085
1.92353e-05
-0.00168324
0.000122934
-0.00218237
0.000303527
-0.00232018
0.000572989
-0.00216831
0.000948549
-0.00177392
0.00145159
-0.00116436
0.00210341
-0.000350514
0.00291808
0.000671702
0.00192774
0.00388892
8.47839e-06
-0.000727564
9.28566e-05
-0.00176762
0.000256508
-0.00234602
0.000498725
-0.00256239
0.000822939
-0.00249252
0.00123933
-0.00219032
0.00176501
-0.00169004
0.00242164
-0.00100714
0.00322959
-0.000136253
0.000961488
0.00419585
4.11945e-05
-0.000768758
0.00018857
-0.001915
0.000431232
-0.00258868
0.000758571
-0.00288973
0.00116515
-0.00289909
0.0016529
-0.00267807
0.00223225
-0.00226939
0.00292167
-0.00169657
0.00374552
-0.000960105
-1.68884e-05
0.0047239
8.05083e-05
-0.000849267
0.000301128
-0.00213562
0.000636495
-0.00292405
0.00106624
-0.00331947
0.00157673
-0.00340959
0.00216195
-0.00326328
0.00282453
-0.00293198
0.00357709
-0.00244912
0.00444357
-0.00182658
-0.00103077
0.00545744
0.000123785
-0.000973052
0.000422634
-0.00243447
0.000856136
-0.00335755
0.00139484
-0.00385817
0.00201843
-0.00403318
0.00271452
-0.00395938
0.00347846
-0.00369591
0.00431443
-0.00328509
0.00524013
-0.00275229
-0.00209376
0.00630313
0.000168007
-0.00114106
0.000543291
-0.00280975
0.00106993
-0.00388419
0.00171016
-0.00449841
0.00243899
-0.00476201
0.00324081
-0.0047612
0.00410737
-0.00456248
0.00503591
-0.00421363
0.00602648
-0.00374285
0.00711514
-0.00318243
0.00607644
0.0364315
-0.038728
0.00725208
0.0628836
-0.0640593
0.0072584
0.0842297
-0.0842361
0.0066837
0.103744
-0.103169
0.00583534
0.124477
-0.123629
0.0047963
0.147783
-0.146744
0.00359662
0.17422
-0.17302
0.00221002
0.205502
-0.204116
0.000890827
0.24757
-0.24625
0.297175
-0.296284
0.00647564
0.0337163
0.00818224
0.061177
0.00852202
0.08389
0.00811918
0.104146
0.00733992
0.125256
0.00627456
0.148848
0.00494592
0.175549
0.00331789
0.20713
0.00156517
0.249322
0.29874
0.006774
0.0306806
0.00904652
0.0589045
0.00975722
0.0831793
0.00954855
0.104355
0.00884672
0.125958
0.00775795
0.149937
0.0062996
0.177007
0.00442941
0.209
0.00224187
0.25151
0.300982
0.00696199
0.027478
0.00980798
0.0560585
0.0109293
0.082058
0.010942
0.104342
0.0103307
0.12657
0.00922679
0.151041
0.00764311
0.178591
0.0055346
0.211109
0.00291299
0.254131
0.303895
0.00705883
0.0243081
0.0104328
0.0526846
0.0120038
0.080487
0.012271
0.104075
0.011768
0.127073
0.0106608
0.152148
0.00896222
0.180289
0.00662117
0.21345
0.00357388
0.257179
0.307468
0.00711572
0.0213882
0.0108923
0.048908
0.0129484
0.0784309
0.0135064
0.103517
0.0131319
0.127447
0.0120358
0.153244
0.0102366
0.182088
0.00767587
0.216011
0.0042171
0.260638
0.311686
0.00719923
0.0189129
0.0111758
0.0449314
0.0137357
0.0758709
0.0146256
0.102627
0.0144094
0.127663
0.0133451
0.154309
0.0114619
0.183972
0.00869352
0.218779
0.00483984
0.264491
0.316525
0.00735824
0.0170121
0.0112974
0.0409923
0.0143409
0.0728274
0.0155888
0.101379
0.0155545
0.127697
0.0145419
0.155321
0.0125997
0.185914
0.00965338
0.221725
0.00543179
0.268713
0.321957
0.00758832
0.0157269
0.0112813
0.0372994
0.0147679
0.0693408
0.0164316
0.0997156
0.016624
0.127505
0.0156819
0.156263
0.0136914
0.187904
0.0105686
0.224848
0.00599576
0.273286
0.327953
0.00790116
0.0149409
0.0112057
0.0339948
0.0149248
0.0656218
0.0169759
0.0976645
0.0174503
0.127031
0.0166301
0.157084
0.014676
0.189858
0.011402
0.228122
0.00656112
0.278127
0.334514
0.0188023
0.0245406
-0.0284019
0.0137797
0.0390174
0.0136789
0.0657225
0.0133784
0.097965
0.0120552
0.128354
0.0100039
0.159135
0.00737477
0.192488
0.00419773
0.231299
0.00120328
0.281121
0.335717
0.0233576
0.03168
-0.030497
0.016113
0.046262
0.013693
0.0681425
0.0128143
0.0988438
0.0112061
0.129962
0.00910737
0.161234
0.00666756
0.194927
0.00378035
0.234186
0.00106974
0.283832
0.336787
0.0261892
0.03592
-0.0304292
0.019182
0.0532691
0.0148482
0.0724763
0.0131083
0.100584
0.0113176
0.131753
0.00902142
0.16353
0.00639894
0.19755
0.00349931
0.237086
0.000955017
0.286376
0.337742
0.0269866
0.0378893
-0.0289559
0.021397
0.0588588
0.0161124
0.0777609
0.0131549
0.103541
0.0109435
0.133964
0.00871212
0.165761
0.00625258
0.200009
0.0035069
0.239832
0.00102793
0.288855
0.33877
0.0263362
0.0382346
-0.0266815
0.0226082
0.0625868
0.0177308
0.0826383
0.0143196
0.106952
0.0116002
0.136683
0.00889421
0.168467
0.00616541
0.202738
0.00338478
0.242612
0.000981863
0.291258
0.339752
0.0243732
0.0372869
-0.0234255
0.0223349
0.0646251
0.0180671
0.0869061
0.0143746
0.110645
0.0116259
0.139432
0.00907971
0.171013
0.00642241
0.205396
0.00364
0.245395
0.00116523
0.293733
0.340917
0.0215585
0.0351203
-0.0193919
0.0215368
0.0646468
0.0188883
0.0895545
0.0154076
0.114126
0.0121662
0.142674
0.00916084
0.174019
0.00632308
0.208233
0.00354544
0.248172
0.00114987
0.296128
0.342067
0.0179171
0.0320466
-0.0148433
0.0191482
0.0634157
0.0178207
0.090882
0.0152801
0.116666
0.0126106
0.145343
0.00981706
0.176812
0.00687716
0.211173
0.00394156
0.251108
0.00138505
0.298685
0.343452
0.0150951
0.0278537
-0.0109023
0.0180726
0.0604382
0.0181112
0.0908435
0.0157932
0.118984
0.0127506
0.148386
0.00972252
0.17984
0.00674688
0.214149
0.00388092
0.253974
0.00137224
0.301193
0.344824
0.0108051
-0.00627975
0.0150054
0.0171274
0.016549
0.0141363
0.0109018
0.00758875
0.00435427
0.0016683
0.00971378
-0.0300643
-0.00805141
0.0101093
-0.0308926
0.00969703
-0.0300169
0.00887093
-0.0281298
0.00779065
-0.0256012
0.00654635
-0.0221812
0.00521222
-0.0180578
0.00389337
-0.0135245
0.00246402
-0.00947293
-0.00511812
0.00902597
-0.0309627
-0.0081276
0.00884702
-0.0307136
0.00809338
-0.0292633
0.00705026
-0.0270867
0.00582328
-0.0243742
0.00448252
-0.0208404
0.00309283
-0.0166681
0.00175273
-0.0121844
0.0003116
-0.0080318
-0.00406881
0.00796445
-0.0312162
-0.00771095
0.00733534
-0.0300845
0.00632255
-0.0282505
0.00510434
-0.0258685
0.00375754
-0.0230274
0.00234345
-0.0194263
0.000925943
-0.0152506
-0.000396401
-0.010862
-0.0017217
-0.0067065
-0.00309865
0.00652208
-0.0309461
-0.00679213
0.00555682
-0.0291192
0.00435978
-0.0270534
0.00301982
-0.0245285
0.00159698
-0.0216046
0.000146694
-0.017976
-0.00125276
-0.0138511
-0.00253983
-0.00957494
-0.00371613
-0.0055302
-0.00226379
0.00474416
-0.0302608
-0.00542946
0.00354219
-0.0279173
0.00222697
-0.0257382
0.000815603
-0.0231172
-0.000632057
-0.0201569
-0.00206212
-0.016546
-0.00341462
-0.0124986
-0.00461687
-0.00837269
-0.00563397
-0.00451311
-0.00158877
0.00271156
-0.0292555
-0.0037169
0.00135581
-0.0265615
-4.11579e-05
-0.0243412
-0.00144889
-0.0217094
-0.00287827
-0.0187276
-0.00426119
-0.0151631
-0.00552434
-0.0112355
-0.0066056
-0.00729143
-0.00745037
-0.00366833
-0.00107808
0.00051653
-0.028011
-0.00176098
-0.000918011
-0.025127
-0.00230958
-0.0229497
-0.00372543
-0.0202936
-0.00510356
-0.0173494
-0.00639927
-0.0138673
-0.00754428
-0.0100905
-0.00848052
-0.00635519
-0.0091498
-0.00299905
-0.00072379
-0.00174523
-0.0266047
0.000338872
-0.00320571
-0.0236665
-0.00458557
-0.0215698
-0.00595282
-0.0189263
-0.00724951
-0.0160527
-0.00843258
-0.0126843
-0.00944095
-0.0090821
-0.0102207
-0.00557547
-0.0107218
-0.00249794
-0.000509255
-0.00399039
-0.0250725
0.00245822
-0.00544
-0.0222169
-0.00677814
-0.0202317
-0.00807113
-0.0176334
-0.0092671
-0.0148568
-0.0103226
-0.0116288
-0.0111867
-0.00821792
-0.0118107
-0.0049515
-0.0121601
-0.00214855
-0.00041229
-0.00613895
-0.0234845
0.00455101
-0.00754956
-0.0208063
-0.00882808
-0.0189532
-0.0100298
-0.0164316
-0.0111153
-0.0137712
-0.0120383
-0.0107059
-0.0127612
-0.00749496
-0.0132411
-0.00447168
-0.013462
-0.00192758
-0.00040774
-0.00812576
-0.0218887
0.00652996
-0.00947843
-0.0194536
-0.0106873
-0.0177443
-0.0117887
-0.0153303
-0.012763
-0.0127969
-0.0135581
-0.00991081
-0.0141521
-0.00690094
-0.0145078
-0.00411596
-0.014628
-0.00180747
-0.000469313
-0.00990901
-0.0203229
0.00834322
-0.0111883
-0.0181744
-0.0123233
-0.0166092
-0.0133218
-0.0143318
-0.0141914
-0.0119273
-0.0148708
-0.00923134
-0.015355
-0.00641678
-0.0156123
-0.00385866
-0.0156609
-0.00175884
-0.000570748
-0.0114563
-0.0188167
0.00995011
-0.0126511
-0.0169795
-0.0137139
-0.0155464
-0.0146136
-0.0134321
-0.015391
-0.01115
-0.0159737
-0.00864859
-0.0163721
-0.0060184
-0.01656
-0.0036708
-0.0165666
-0.00175217
-0.000686559
-0.012751
-0.0173904
0.0113246
-0.0138542
-0.0158763
-0.0148506
-0.01455
-0.0156615
-0.0126211
-0.0163631
-0.0104485
-0.0168725
-0.00813917
-0.0172117
-0.00567919
-0.0173601
-0.00352238
-0.0173532
-0.00175913
-0.000792433
-0.0137896
-0.0160523
0.0124515
-0.0147974
-0.0148685
-0.0157359
-0.0136115
-0.0164731
-0.011884
-0.0171172
-0.0098043
-0.0175793
-0.00767706
-0.0178866
-0.00537195
-0.018025
-0.00338397
-0.0180308
-0.00175329
-0.000865371
-0.0145798
-0.0147954
0.0133229
-0.0154923
-0.013956
-0.0163813
-0.0127225
-0.0170639
-0.0112014
-0.0176692
-0.00919906
-0.0181108
-0.00723543
-0.0184124
-0.0050703
-0.0185687
-0.00322775
-0.0186116
-0.00171037
-0.000883703
-0.0151352
-0.0135949
0.0139347
-0.0159595
-0.0131317
-0.016804
-0.0118779
-0.0174546
-0.0105509
-0.0180384
-0.00861527
-0.0184857
-0.0067881
-0.0188065
-0.00474949
-0.0190063
-0.00302803
-0.0191086
-0.00160807
-0.000827016
-0.015459
-0.0124202
0.0142843
-0.0162156
-0.0123751
-0.0170192
-0.0110743
-0.0176644
-0.00990565
-0.0182445
-0.00803515
-0.0187228
-0.00630986
-0.019086
-0.00438622
-0.0193529
-0.00276114
-0.0195353
-0.00142565
-0.000675969
-0.0155442
-0.0112553
0.0143793
-0.0162809
-0.0116385
-0.0170467
-0.0103084
-0.0177144
-0.00923794
-0.018309
-0.00744054
-0.0188412
-0.00577768
-0.0192683
-0.00395915
-0.0196236
-0.00240575
-0.0199054
-0.00114385
-0.000411972
-0.0154714
-0.0100574
0.0142735
-0.0162466
-0.0108633
-0.0169425
-0.00961257
-0.0176358
-0.00854457
-0.0182552
-0.00682115
-0.0188552
-0.00517774
-0.0193662
-0.00344812
-0.0198306
-0.0019413
-0.0202349
-0.000739541
-1.96284e-05
-0.0673742
-0.00896371
0.0662805
-0.0701073
-0.00813014
-0.0725738
-0.00714602
-0.0750759
-0.00604246
-0.0770563
-0.00484076
-0.0786621
-0.00357195
-0.0797013
-0.00240898
-0.0803027
-0.00133991
-0.0805015
-0.000540689
-2.98076e-05
-0.0802238
-0.00796585
0.0792259
-0.0818766
-0.00647735
-0.0833371
-0.00568545
-0.0848781
-0.00450153
-0.0860692
-0.00364966
-0.0870365
-0.00260467
-0.0876341
-0.00181137
-0.08797
-0.001004
-0.0880558
-0.00045489
-3.91826e-05
-0.0939751
-0.00733607
0.0933453
-0.0948053
-0.00564713
-0.0956896
-0.0048012
-0.0965824
-0.0036087
-0.0973042
-0.00292789
-0.0978852
-0.00202363
-0.0982284
-0.00146814
-0.0984086
-0.000823804
-0.0984338
-0.00042971
-4.15764e-05
-0.110284
-0.00701724
0.109965
-0.110791
-0.00514001
-0.11133
-0.00426235
-0.111868
-0.00307023
-0.112308
-0.00248879
-0.112666
-0.00166468
-0.112873
-0.00126144
-0.11299
-0.000706754
-0.113
-0.000420106
-3.73788e-05
-0.130353
-0.00656439
0.1299
-0.130804
-0.00468935
-0.131232
-0.00383429
-0.131642
-0.00266034
-0.131975
-0.0021561
-0.132257
-0.00138259
-0.132439
-0.00107938
-0.132568
-0.000577761
-0.132616
-0.00037184
-1.16604e-05
-0.153856
-0.00582005
0.153112
-0.154462
-0.00408373
-0.154976
-0.0033207
-0.155418
-0.00221759
-0.155778
-0.00179636
-0.156078
-0.00108286
-0.156307
-0.000849793
-0.156506
-0.000378936
-0.156629
-0.000249094
2.91013e-05
-0.178327
-0.00473202
0.177239
-0.179198
-0.00321244
-0.179931
-0.00258712
-0.180468
-0.00168106
-0.18091
-0.0013546
-0.181246
-0.000746826
-0.18154
-0.000556043
-0.181776
-0.000142366
-0.181939
-8.60224e-05
7.29563e-05
-0.200064
-0.00316549
0.198497
-0.201035
-0.00224155
-0.201831
-0.00179094
-0.202388
-0.0011241
-0.202862
-0.000880771
-0.203182
-0.000426482
-0.20346
-0.000277657
-0.203634
3.0898e-05
-0.20375
3.07288e-05
8.45961e-05
-0.214978
-0.00170822
0.21352
-0.216149
-0.00107019
-0.217099
-0.000840779
-0.217706
-0.000517567
-0.218167
-0.000419365
-0.218413
-0.000180135
-0.21859
-0.000101601
-0.218623
6.41014e-05
-0.218642
4.98248e-05
5.47276e-05
-0.223027
0.221319
-0.224097
-0.224938
-0.225456
-0.225875
-0.226055
-0.226157
-0.226093
-0.226043
-0.0158611
0.0675479
0.0145937
-0.0165689
0.0799337
-0.0170154
0.0937918
-0.0171505
0.1101
-0.0168125
0.129562
-0.0156462
0.151946
-0.013318
0.17491
-0.00971265
0.194892
-0.00515257
0.20896
0.216167
-0.0149642
0.0683598
0.0141523
-0.0155915
0.0805611
-0.0159704
0.0941707
-0.0160181
0.110148
-0.0155926
0.129137
-0.0143845
0.150738
-0.0121284
0.172654
-0.00878863
0.191552
-0.00463011
0.204802
0.211536
-0.0141714
0.069057
0.0134742
-0.0147063
0.081096
-0.0150021
0.0944666
-0.0149864
0.110132
-0.0145182
0.128669
-0.0133242
0.149544
-0.0111799
0.17051
-0.00807605
0.188448
-0.00424022
0.200966
0.207296
-0.0132665
0.0697062
0.0126174
-0.0137234
0.0815528
-0.0139283
0.0946715
-0.0138416
0.110046
-0.013335
0.128162
-0.0121695
0.148378
-0.0101601
0.168501
-0.0073138
0.185602
-0.00382862
0.197481
0.203468
-0.0122205
0.0703012
0.0116255
-0.0126123
0.0819447
-0.0127427
0.0948019
-0.0125983
0.109901
-0.0120688
0.127633
-0.0109501
0.147259
-0.0090948
0.166645
-0.00652082
0.183028
-0.00340425
0.194364
0.200063
-0.0110616
0.0708308
0.010532
-0.0113804
0.0822635
-0.0114437
0.0948652
-0.0112562
0.109714
-0.0107221
0.127098
-0.00967198
0.146209
-0.00799184
0.164965
-0.00570623
0.180742
-0.00297118
0.191629
0.197092
-0.00981805
0.0712862
0.00936265
-0.0100562
0.0825017
-0.0100519
0.0948609
-0.00982895
0.109491
-0.00930452
0.126574
-0.00834232
0.145247
-0.0068566
0.16348
-0.00487488
0.178761
-0.00253131
0.189286
0.194561
-0.00851015
0.0716541
0.00814225
-0.00866601
0.0826575
-0.00859381
0.0947887
-0.00834061
0.109237
-0.00783574
0.126069
-0.00697583
0.144387
-0.00569884
0.162203
-0.00403246
0.177094
-0.00208697
0.18734
0.192474
-0.00715912
0.0719168
0.00689641
-0.00723413
0.0827325
-0.00709416
0.0946487
-0.00681618
0.108959
-0.00633815
0.125591
-0.00559075
0.14364
-0.00453139
0.161143
-0.00318644
0.175749
-0.0016416
0.185795
0.190832
-0.00578698
0.0720522
0.00565163
-0.00578658
0.0827321
-0.00557557
0.0944377
-0.0052792
0.108663
-0.00483245
0.125144
-0.00420483
0.143012
-0.00336749
0.160306
-0.00234529
0.174727
-0.00119945
0.184649
0.189633
-0.00442893
0.0720408
0.00444035
-0.00435619
0.0826594
-0.00406811
0.0941496
-0.00375673
0.108352
-0.00334181
0.124729
-0.00283728
0.142508
-0.00222147
0.15969
-0.00151835
0.174024
-0.000765145
0.183896
0.188868
-0.00312243
0.0718841
0.00327911
-0.00296355
0.0825005
-0.002607
0.0937931
-0.00227513
0.10802
-0.0018943
0.124349
-0.0015055
0.142119
-0.00110545
0.15929
-0.000714889
0.173633
-0.000343417
0.183525
0.188524
-0.00190784
0.0715976
0.00219432
-0.00164331
0.082236
-0.00123612
0.0933859
-0.000876845
0.107661
-0.000536288
0.124008
-0.00025827
0.141841
-6.9439e-05
0.159101
2.85984e-05
0.173535
4.76311e-05
0.183506
0.188572
-0.00081904
0.071218
0.00119861
-0.000423745
0.0818407
-2.80476e-05
0.0929902
0.000430616
0.107202
0.000767822
0.123671
0.000960891
0.141648
0.000967216
0.159095
0.000780588
0.173722
0.000439177
0.183847
0.189011
0.000117219
0.0708142
0.000286585
0.000720966
0.0812369
0.00124586
0.0924653
0.00169769
0.10675
0.00200933
0.123359
0.00210593
0.141551
0.00192953
0.159271
0.00147504
0.174176
0.000802633
0.18452
0.189814
0.00109555
0.0702514
-0.000532759
0.00177071
0.0805618
0.00234951
0.0918865
0.002836
0.106264
0.00313435
0.123061
0.00315109
0.141534
0.00281141
0.159611
0.00211228
0.174876
0.00113503
0.185497
0.190949
0.00190498
0.0696131
-0.00126664
0.00269388
0.0797729
0.00332802
0.0912523
0.00385405
0.105738
0.00415036
0.122765
0.00410454
0.14158
0.00362231
0.160093
0.00270058
0.175797
0.00144161
0.186756
0.19239
0.00258689
0.0689588
-0.00193258
0.00348183
0.0788779
0.00416322
0.0905709
0.00472209
0.105179
0.00501758
0.122469
0.00492144
0.141676
0.00431984
0.160695
0.00320745
0.17691
0.00170355
0.18826
0.194094
0.00320569
0.068317
-0.00256386
0.00419533
0.0778883
0.00492636
0.0898399
0.00551966
0.104585
0.00582256
0.122166
0.0056867
0.141812
0.00497595
0.161405
0.00368375
0.178202
0.0019492
0.189994
0.196043
0.00354926
0.0679436
-0.00317586
0.00457967
0.0768579
0.00535813
0.0890615
0.00597669
0.103967
0.0062906
0.121852
0.00614352
0.141959
0.00537769
0.162171
0.00397865
0.179601
0.00209417
0.191879
0.198137
-0.0501575
0.0620832
0.0560179
-0.0452206
0.071921
-0.0417477
0.0855886
-0.038154
0.100373
-0.0341982
0.117897
-0.0293953
0.137156
-0.0234151
0.156191
-0.0162886
0.172475
-0.00832607
0.183916
0.189811
-0.0608541
0.0573548
0.0655826
-0.0564967
0.0675635
-0.0523735
0.0814654
-0.0477769
0.0957764
-0.0427769
0.112897
-0.0366562
0.131036
-0.0291367
0.148672
-0.0202938
0.163632
-0.0104835
0.174106
0.179328
-0.0733488
0.0526819
0.0780217
-0.068842
0.0630567
-0.0638517
0.0764751
-0.0582806
0.0902053
-0.0520118
0.106628
-0.0442099
0.123234
-0.0348665
0.139328
-0.0240683
0.152833
-0.0121891
0.162227
0.167138
-0.0884934
0.0482464
0.0929289
-0.0833216
0.057885
-0.0774641
0.0706176
-0.0708586
0.0835997
-0.0630197
0.0987889
-0.0532374
0.113452
-0.0418034
0.127894
-0.0288272
0.139857
-0.0148278
0.148227
0.152311
-0.105374
0.0429421
0.110678
-0.0994486
0.0519597
-0.0925182
0.0636872
-0.084222
0.0753035
-0.0740778
0.0886447
-0.0618464
0.10122
-0.0480007
0.114048
-0.0325422
0.124399
-0.0161964
0.131882
0.136114
-0.125505
0.037515
0.130932
-0.118355
0.04481
-0.109902
0.0552336
-0.099434
0.0648358
-0.0868848
0.0760955
-0.0722998
0.0866352
-0.0558856
0.0976342
-0.0378642
0.106377
-0.0193255
0.113343
0.116789
-0.145257
0.0303441
0.152428
-0.136575
0.0361284
-0.126002
0.0446601
-0.112883
0.0517171
-0.0976399
0.0608524
-0.0800387
0.0690341
-0.060257
0.0778524
-0.0390168
0.0851372
-0.0181048
0.0924308
0.098684
-0.166606
0.0229006
0.17405
-0.156403
0.0259247
-0.143892
0.0321497
-0.128852
0.0366771
-0.111537
0.0435377
-0.0914889
0.0489855
-0.0693912
0.0557547
-0.0462785
0.0620245
-0.0243594
0.0705118
0.0743246
-0.18182
0.0109857
0.193735
-0.168737
0.0128411
-0.152638
0.0160512
-0.134242
0.0182806
-0.112722
0.0220175
-0.0885659
0.0248298
-0.0617603
0.0289491
-0.0329934
0.0332576
-0.00480101
0.0423194
0.0695235
-0.26807
0.279055
-0.255229
-0.239178
-0.220897
-0.198879
-0.17405
-0.145101
-0.111843
-0.0695235
0.000851449
0.0579286
-0.00276216
-0.000717888
0.0671519
-0.00188957
0.0791934
-0.0027888
0.0938281
-0.00334419
0.111234
-0.00351274
0.131101
-0.00320224
0.152117
-0.0024713
0.173319
-0.00235528
0.193619
0.2767
0.00128301
0.0597659
-0.00312028
-0.000336077
0.068771
-0.00155596
0.0804132
-0.00248767
0.0947598
-0.00308953
0.111835
-0.00328414
0.131295
-0.0030478
0.151881
-0.00235175
0.172623
-0.0021265
0.193394
0.274574
0.00177799
0.0614805
-0.00349258
0.000194111
0.0703549
-0.000991858
0.0815992
-0.00191441
0.0956824
-0.0025395
0.11246
-0.00276987
0.131526
-0.0026321
0.151743
-0.00203222
0.172023
-0.00190335
0.193265
0.27267
0.00226288
0.0630977
-0.00388014
0.000759897
0.0718579
-0.000398916
0.082758
-0.00127293
0.0965564
-0.00187442
0.113062
-0.00214763
0.131799
-0.00208242
0.151678
-0.00163285
0.171573
-0.00161074
0.193243
0.27106
0.00273793
0.064635
-0.00427524
0.0013261
0.0732697
0.000214018
0.0838701
-0.000613577
0.097384
-0.00117787
0.113626
-0.00147645
0.132098
-0.00147603
0.151677
-0.00117742
0.171275
-0.00127007
0.193336
0.26979
0.00323318
0.0660694
-0.00466754
0.00193532
0.0745675
0.000926162
0.0848793
9.71576e-05
0.098213
-0.000418399
0.114142
-0.000744827
0.132424
-0.000805718
0.151738
-0.000671257
0.17114
-0.000889947
0.193554
0.2689
0.00375081
0.0673685
-0.00504992
0.00258676
0.0757316
0.00167594
0.0857901
0.000955369
0.0989335
0.000429241
0.114668
3.54051e-05
0.132818
-3.21496e-05
0.151806
-0.000128228
0.171236
-0.000469165
0.193895
0.26843
0.00428291
0.0685016
-0.00541599
0.00326803
0.0767465
0.00246379
0.0865943
0.00182908
0.0995682
0.00133716
0.11516
0.000972343
0.133183
0.000739549
0.152039
0.000530924
0.171445
1.10472e-05
0.194415
0.268441
0.00482331
0.0694353
-0.00575703
0.00396668
0.0776031
0.00327725
0.0872838
0.00273364
0.100112
0.00228651
0.115607
0.00190928
0.13356
0.00157896
0.152369
0.00121146
0.171813
0.000449023
0.195178
0.26889
0.00535981
0.0701364
-0.00606094
0.00467007
0.0782928
0.00410423
0.0878496
0.00365873
0.100557
0.00326279
0.116003
0.00287332
0.133949
0.00245115
0.152791
0.00191037
0.172353
0.000932467
0.196156
0.269823
0.00587143
0.0705733
-0.00630826
0.00535857
0.0788057
0.0049264
0.0882818
0.00458386
0.1009
0.00424544
0.116341
0.00384984
0.134345
0.00333714
0.153304
0.00262484
0.173066
0.00143092
0.197349
0.271254
0.00634984
0.0707205
-0.00649704
0.00602403
0.0791315
0.00573334
0.0885725
0.00549944
0.101134
0.00522516
0.116616
0.00483046
0.13474
0.00423122
0.153903
0.00335129
0.173946
0.001938
0.198763
0.273192
0.00677311
0.0705633
-0.00661599
0.00664279
0.0792618
0.00649996
0.0887153
0.00637959
0.101254
0.00617719
0.116818
0.00579286
0.135124
0.00511618
0.15458
0.00407636
0.174985
0.00244651
0.200393
0.275638
0.00712362
0.0701011
-0.00666139
0.00719786
0.0791876
0.00720666
0.0887065
0.00720302
0.101258
0.0070813
0.11694
0.00671761
0.135488
0.00597571
0.155322
0.00478744
0.176174
0.0029484
0.202232
0.278587
0.00738647
0.0693488
-0.0066342
0.00767415
0.0788999
0.00783424
0.0885464
0.00795013
0.101142
0.00791925
0.116971
0.00758785
0.135819
0.00679761
0.156112
0.00547577
0.177495
0.00343948
0.204268
0.282026
0.00755253
0.0683394
-0.00654308
0.00805867
0.0783938
0.00836603
0.088239
0.00860148
0.100906
0.00866747
0.116905
0.00838085
0.136106
0.00756208
0.156931
0.00612511
0.178932
0.00390785
0.206485
0.285934
0.0076218
0.0671239
-0.00640633
0.00834541
0.0776702
0.0087946
0.0877899
0.00914911
0.100552
0.00931927
0.116734
0.00909334
0.136332
0.00826816
0.157756
0.00673565
0.180465
0.00435432
0.208867
0.290288
0.00759851
0.0657766
-0.00625122
0.00852022
0.0767485
0.00909902
0.0872111
0.00956254
0.100088
0.009835
0.116462
0.00967918
0.136487
0.00887087
0.158564
0.00727612
0.18206
0.00475766
0.211385
0.295046
0.00752917
0.0643611
-0.00611368
0.00863981
0.0756378
0.0093411
0.0865098
0.00990798
0.0995216
0.0102845
0.116085
0.0102083
0.136564
0.00942752
0.159345
0.00778143
0.183706
0.00513443
0.214032
0.300181
0.0072601
0.0630587
-0.00595764
0.00843472
0.0744632
0.0092746
0.0856699
0.00993621
0.09886
0.0104228
0.115599
0.010447
0.136539
0.00975901
0.160033
0.00811757
0.185347
0.00544378
0.216706
0.305624
-0.0340535
0.0591524
0.0379597
-0.0290638
0.0694735
-0.0247855
0.0813916
-0.0205122
0.0945866
-0.0162693
0.111356
-0.0117778
0.132048
-0.00703199
0.155287
-0.00266521
0.18098
-0.000673997
0.214715
0.30495
-0.0495121
0.0544721
0.0541924
-0.04428
0.0642414
-0.0387814
0.075893
-0.0329443
0.0887496
-0.026985
0.105397
-0.0204368
0.1255
-0.0133579
0.148208
-0.00661629
0.174239
-0.00266484
0.210763
0.302285
-0.0662992
0.0493373
0.071434
-0.0601961
0.0581383
-0.0534809
0.0691778
-0.0462973
0.081566
-0.0387152
0.0978145
-0.0299573
0.116742
-0.0203884
0.138639
-0.011036
0.164886
-0.00441384
0.204141
0.297872
-0.0848455
0.0439197
0.0902631
-0.0776431
0.0509359
-0.0699531
0.0614878
-0.0615032
0.0731161
-0.05198
0.0882913
-0.0406769
0.105439
-0.0283609
0.126323
-0.0161619
0.152687
-0.00665694
0.194636
0.291215
-0.105703
0.0373255
0.112297
-0.0979494
0.0431822
-0.0894833
0.0530217
-0.079342
0.0629748
-0.0674338
0.0763831
-0.0534292
0.0914342
-0.0381711
0.111065
-0.0225885
0.137105
-0.00949295
0.18154
0.281722
-0.130416
0.0307694
0.136972
-0.121659
0.0344256
-0.111733
0.0430952
-0.0995067
0.0507489
-0.0852968
0.0621732
-0.0688079
0.0749453
-0.0505437
0.092801
-0.0314069
0.117968
-0.0142855
0.164419
0.267436
-0.158117
0.0222637
0.166622
-0.148923
0.0252321
-0.137752
0.0319239
-0.124148
0.0371445
-0.108386
0.0464113
-0.0896505
0.0562103
-0.0686017
0.0717522
-0.0457056
0.0950719
-0.0226624
0.141376
0.244774
-0.191617
0.0138009
0.20008
-0.181438
0.0150531
-0.169078
0.0195639
-0.154614
0.0226799
-0.137487
0.0292843
-0.117405
0.0361286
-0.0947421
0.0490892
-0.0691442
0.069474
-0.0393157
0.111547
0.205458
-0.243234
0.00507589
0.251959
-0.234023
0.00584249
-0.222335
0.00787505
-0.209296
0.00964107
-0.193136
0.013124
-0.174394
0.0173876
-0.150889
0.0255835
-0.120243
0.0388281
-0.0745016
0.0658061
0.130957
-0.315045
0.32012
-0.309202
-0.301327
-0.291686
-0.278562
-0.261174
-0.235591
-0.196763
-0.130957
0.00270151
0.039764
-0.00450577
0.000206925
0.056687
-0.00171755
0.0733585
-0.00338785
0.0919333
-0.00468417
0.113594
-0.00565648
0.137944
-0.00598554
0.166952
-0.00595523
0.20005
-0.00428276
0.250286
0.315838
0.00267075
0.0412171
-0.00412386
0.000531406
0.0588264
-0.00139051
0.0752804
-0.00305416
0.093597
-0.00437402
0.114914
-0.00534219
0.138912
-0.00573513
0.167345
-0.00571321
0.200028
-0.00415531
0.248729
0.311682
0.00281006
0.0422721
-0.00386504
0.000984054
0.0606524
-0.000820711
0.0770852
-0.00240302
0.0951793
-0.00369487
0.116205
-0.00464981
0.139867
-0.00510842
0.167803
-0.0051007
0.20002
-0.00380435
0.247432
0.307878
0.00302681
0.0429575
-0.00371225
0.00149204
0.0621871
-0.000190991
0.0787682
-0.00163671
0.096625
-0.00286125
0.11743
-0.00381546
0.140821
-0.0043227
0.16831
-0.00440919
0.200107
-0.00336553
0.246389
0.304512
0.00330663
0.0432899
-0.003639
0.00208118
0.0634126
0.000600491
0.0802489
-0.000791677
0.0980172
-0.00193887
0.118577
-0.00288701
0.141769
-0.00345103
0.168874
-0.0036563
0.200312
-0.00286729
0.2456
0.301645
0.00366372
0.0432502
-0.003624
0.00277292
0.0643034
0.00150521
0.0815166
0.000161284
0.0993611
-0.00090454
0.119643
-0.00185621
0.142721
-0.00249582
0.169514
-0.00283522
0.200651
-0.00232107
0.245085
0.299324
0.00409712
0.0428022
-0.00364918
0.00356042
0.0648401
0.00251254
0.0825645
0.00134559
0.100528
0.000259367
0.120729
-0.000724985
0.143705
-0.00143078
0.17022
-0.00194434
0.201165
-0.00173343
0.244874
0.297591
0.00458407
0.0419138
-0.00369564
0.00442561
0.0649985
0.00361138
0.0833787
0.00258524
0.101554
0.00156463
0.12175
0.000542838
0.144727
-0.000235046
0.170998
-0.000995851
0.201926
-0.00110656
0.244985
0.296484
0.00509792
0.0405597
-0.00374382
0.00534659
0.0647499
0.00478245
0.0839429
0.00389928
0.102437
0.00293236
0.122717
0.00193025
0.145729
0.000983817
0.171944
-4.36818e-05
0.202953
-0.000439447
0.245381
0.296045
0.00560792
-0.00377629
0.00629853
0.00600533
0.00527382
0.00436173
0.00334699
0.00227079
0.0011085
0.000239031
0.000210534
-0.00135159
0.000653003
-0.00325222
0.00125582
-0.004487
0.00197384
-0.00521643
0.00277933
-0.0055675
0.00365709
-0.00563896
0.0046019
-0.00550728
0.00562009
-0.00523183
0.00674373
-0.00486649
-0.00449011
0.00024476
-0.00159635
0.000736696
-0.00374415
0.00138859
-0.0051389
0.00214805
-0.00597589
0.00298503
-0.00640449
0.0038849
-0.00653882
0.00484389
-0.00646627
0.00586685
-0.00625479
0.00696392
-0.00596355
-0.0056538
0.000269242
-0.0018656
0.00078709
-0.004262
0.00145204
-0.00580384
0.00220567
-0.00672952
0.00301665
-0.00721547
0.00387135
-0.00739352
0.00476707
-0.00736199
0.00570685
-0.00719458
0.00669227
-0.00694896
-0.00667248
0.000280848
-0.00214644
0.000796021
-0.00477718
0.00143273
-0.00644056
0.00212903
-0.00742582
0.00285438
-0.00794082
0.00359783
-0.00813697
0.00435955
-0.0081237
0.00514447
-0.0079795
0.00595609
-0.00776058
-0.00750853
0.000277093
-0.00242354
0.000758054
-0.00525814
0.00132386
-0.00700636
0.00191291
-0.00801487
0.0024985
-0.00852641
0.0030747
-0.00871317
0.00364662
-0.00869562
0.00422374
-0.00855662
0.00481531
-0.00835215
-0.00812267
0.000256337
-0.00267987
0.000670989
-0.00567279
0.0011257
-0.00746107
0.00156414
-0.00845332
0.00196675
-0.00892902
0.00233466
-0.00908109
0.00267907
-0.00904003
0.00301451
-0.00889206
0.0033556
-0.00869324
-0.00848397
0.00021798
-0.00289785
0.000536078
-0.00599089
0.000845265
-0.00777026
0.00109969
-0.00870775
0.00128975
-0.00911907
0.00142469
-0.00921603
0.00152153
-0.00913688
0.00159847
-0.008969
0.00167176
-0.00876652
-0.00857319
0.000162581
-0.00306044
0.000357904
-0.00618621
0.000495235
-0.00790759
0.000543811
-0.00875632
0.000505643
-0.0090809
0.00039789
-0.00910828
0.000242042
-0.00898103
5.86711e-05
-0.00878563
-0.000135255
-0.00857259
-0.00836958
9.1888e-05
-0.00315232
0.000143868
-0.00623819
9.22894e-05
-0.00785601
-7.53314e-05
-0.0085887
-0.000344965
-0.00881127
-0.00069298
-0.00876026
-0.00109543
-0.00857858
-0.00153289
-0.00834818
-0.00199188
-0.0081136
-0.00790324
8.33279e-06
-0.00316066
-9.64058e-05
-0.00613345
-0.000344651
-0.00760776
-0.000728355
-0.008205
-0.00122276
-0.00831686
-0.00179974
-0.00818328
-0.00243515
-0.00794317
-0.00311165
-0.00767168
-0.00381823
-0.00740701
-0.00717046
-6.92164e-05
-0.00309144
-0.000331798
-0.00587087
-0.000774969
-0.00716459
-0.00136791
-0.00761206
-0.00207554
-0.00760923
-0.00286686
-0.00739196