/*--------------------------------*- C++ -*----------------------------------*\
  =========                 |
  \\      /  F ield         | OpenFOAM: The Open Source CFD Toolbox
   \\    /   O peration     | Website:  https://openfoam.org
    \\  /    A nd           | Version:  7
     \\/     M anipulation  |
\*---------------------------------------------------------------------------*/
FoamFile
{
    version     2.0;
    format      ascii;
    class       volScalarField;
    location    "5.2";
    object      p;
}
// * * * * * * * * * * * * * * * * * * * * * * * * * * * * * * * * * * * * * //

dimensions      [0 2 -2 0 0 0 0];

internalField   nonuniform List<scalar> 
18000
(
0.809688
0.809284
0.809268
0.809362
0.809626
0.810062
0.810713
0.811627
0.812836
0.814352
0.816169
0.818276
0.820669
0.823338
0.826257
0.829392
0.832707
0.836166
0.839738
0.843389
0.847083
0.850786
0.854466
0.858097
0.86166
0.865138
0.868519
0.871804
0.874979
0.877917
0.808548
0.808091
0.808071
0.808168
0.808437
0.808874
0.809518
0.810414
0.81159
0.813057
0.814809
0.816828
0.81911
0.821644
0.824406
0.827367
0.830494
0.833752
0.837109
0.840533
0.843993
0.847458
0.850898
0.854289
0.857614
0.860857
0.86401
0.867074
0.870033
0.872787
0.807354
0.806858
0.806834
0.806938
0.807217
0.807661
0.80831
0.809196
0.810345
0.811766
0.813452
0.815385
0.817556
0.819952
0.822556
0.825338
0.828269
0.831318
0.834451
0.837639
0.840855
0.84407
0.847259
0.8504
0.853476
0.856476
0.859389
0.862219
0.86495
0.867507
0.806089
0.805563
0.805548
0.805664
0.805961
0.806423
0.807082
0.807968
0.809096
0.810474
0.812096
0.813943
0.816002
0.818261
0.820701
0.823299
0.826029
0.82886
0.83176
0.834703
0.837664
0.84062
0.843547
0.846427
0.849246
0.851991
0.854654
0.857239
0.859729
0.862073
0.804785
0.804241
0.804234
0.804367
0.804684
0.805167
0.805841
0.806728
0.807838
0.809177
0.810736
0.812496
0.814442
0.81656
0.818835
0.821247
0.82377
0.826375
0.829033
0.831721
0.834419
0.837105
0.839762
0.842372
0.844923
0.847403
0.849807
0.852137
0.854377
0.856494
0.803429
0.802873
0.802879
0.803032
0.803373
0.803882
0.804575
0.805467
0.806564
0.807867
0.809364
0.811037
0.812868
0.814845
0.816955
0.819178
0.821489
0.82386
0.826268
0.828694
0.83112
0.833528
0.835905
0.838236
0.840509
0.842715
0.844849
0.846916
0.848901
0.850781
0.802028
0.801471
0.801492
0.801667
0.802035
0.802572
0.803287
0.804188
0.805275
0.806542
0.807978
0.809562
0.811279
0.813116
0.81506
0.817091
0.819184
0.821315
0.823466
0.825622
0.827768
0.829891
0.83198
0.834023
0.83601
0.837933
0.83979
0.841587
0.843311
0.844945
0.800579
0.800032
0.800068
0.800268
0.800665
0.801233
0.801974
0.802888
0.803966
0.805199
0.806573
0.808069
0.809672
0.81137
0.813148
0.814984
0.816854
0.81874
0.820629
0.822508
0.824368
0.826198
0.827992
0.82974
0.831434
0.833067
0.834641
0.836164
0.837625
0.839006
0.79908
0.798554
0.798609
0.798834
0.799262
0.799863
0.800632
0.80156
0.802632
0.803832
0.805146
0.806555
0.808046
0.809606
0.811216
0.812854
0.814498
0.816136
0.817758
0.819356
0.820924
0.822457
0.82395
0.825397
0.826791
0.82813
0.829417
0.830664
0.831865
0.832989
0.797533
0.797037
0.79711
0.797363
0.797822
0.798459
0.799259
0.800203
0.80127
0.802438
0.803693
0.805018
0.8064
0.807822
0.809264
0.810702
0.81212
0.813508
0.81486
0.816173
0.817447
0.818679
0.819866
0.821007
0.822097
0.823139
0.824139
0.825112
0.826055
0.826921
0.795936
0.795479
0.795572
0.795854
0.796346
0.79702
0.797851
0.798814
0.799876
0.801015
0.802214
0.803458
0.804732
0.806017
0.807291
0.808531
0.809723
0.81086
0.811942
0.81297
0.813948
0.814876
0.815756
0.816588
0.817373
0.818119
0.818832
0.819532
0.820225
0.820836
0.794291
0.79388
0.793995
0.794306
0.794833
0.795544
0.796409
0.79739
0.79845
0.799562
0.800708
0.801873
0.803042
0.804192
0.805299
0.806344
0.807312
0.808202
0.809015
0.809759
0.810441
0.811067
0.811639
0.812162
0.812643
0.813093
0.813523
0.813955
0.814408
0.814772
0.792597
0.792239
0.792378
0.79272
0.793283
0.794032
0.794931
0.795931
0.79699
0.798076
0.799172
0.800262
0.801328
0.802347
0.803292
0.804144
0.804893
0.805539
0.806088
0.806553
0.806944
0.80727
0.807537
0.807754
0.807934
0.808094
0.808244
0.808415
0.808639
0.80877
0.790856
0.790555
0.79072
0.791094
0.791694
0.792483
0.793416
0.794436
0.795495
0.796558
0.797606
0.798625
0.799593
0.800484
0.801272
0.801937
0.802472
0.80288
0.803173
0.803366
0.803473
0.803506
0.803474
0.803391
0.803277
0.803152
0.803031
0.80295
0.802957
0.80287
0.78907
0.788828
0.78902
0.789428
0.790066
0.790895
0.791862
0.792903
0.793963
0.795006
0.796011
0.796961
0.797835
0.798604
0.79924
0.799725
0.800054
0.800233
0.800279
0.800211
0.800045
0.799794
0.799473
0.799101
0.798702
0.798302
0.79792
0.797596
0.797401
0.797116
0.787241
0.787059
0.787278
0.787721
0.788399
0.789268
0.790269
0.791332
0.792395
0.793419
0.794384
0.795272
0.796057
0.796709
0.7972
0.797512
0.797644
0.797606
0.797419
0.797102
0.796675
0.796154
0.795556
0.794907
0.794236
0.793574
0.792945
0.792392
0.792008
0.791546
0.78537
0.785246
0.785495
0.785974
0.786692
0.787602
0.788637
0.789721
0.790788
0.791797
0.792727
0.793557
0.794259
0.794799
0.795152
0.795301
0.795248
0.795006
0.794599
0.794049
0.793376
0.792599
0.791741
0.790831
0.789905
0.788998
0.788137
0.787369
0.786808
0.78619
0.783459
0.783391
0.783669
0.784187
0.784946
0.785895
0.786963
0.788068
0.789142
0.79014
0.79104
0.791817
0.79244
0.792876
0.793098
0.793094
0.792868
0.792437
0.791825
0.791058
0.790155
0.78914
0.788039
0.786887
0.785725
0.784592
0.783518
0.782552
0.781825
0.781071
0.781511
0.781493
0.781803
0.782359
0.783159
0.784147
0.785247
0.786374
0.787456
0.788448
0.789322
0.790051
0.790601
0.790938
0.791038
0.790891
0.790505
0.789899
0.789099
0.78813
0.787015
0.785779
0.784455
0.783082
0.781705
0.780367
0.779101
0.777953
0.777071
0.776201
0.779526
0.779552
0.779894
0.780491
0.781332
0.782357
0.783488
0.784637
0.78573
0.786719
0.787572
0.788257
0.788739
0.788983
0.788969
0.788689
0.788156
0.787389
0.786416
0.785262
0.783952
0.782514
0.780986
0.779413
0.777843
0.776322
0.774885
0.773575
0.772549
0.771579
0.777502
0.777567
0.777941
0.778581
0.779463
0.780526
0.781686
0.782856
0.783962
0.784951
0.785787
0.786432
0.786849
0.787007
0.786885
0.786483
0.785813
0.784899
0.783766
0.782442
0.780952
0.779331
0.777619
0.775867
0.774126
0.772444
0.770856
0.769404
0.768249
0.767197
0.775438
0.775536
0.775944
0.776626
0.77755
0.778649
0.779839
0.781032
0.782151
0.783142
0.783962
0.78457
0.784925
0.785
0.784778
0.784262
0.783466
0.782415
0.781135
0.779653
0.777998
0.776209
0.774331
0.772419
0.770527
0.768704
0.766988
0.765416
0.764148
0.763035
0.773334
0.773459
0.773899
0.774625
0.775591
0.776727
0.777946
0.77916
0.780292
0.781286
0.782091
0.782662
0.782958
0.782953
0.782637
0.782013
0.781098
0.779918
0.778499
0.77687
0.775063
0.773119
0.771091
0.769035
0.767009
0.765065
0.763242
0.761573
0.760215
0.759065
0.771186
0.771332
0.771806
0.772574
0.773582
0.774754
0.776002
0.777237
0.778383
0.779378
0.780167
0.780699
0.780936
0.780854
0.780446
0.779719
0.77869
0.777387
0.775836
0.774067
0.772116
0.770029
0.767861
0.765674
0.763529
0.76148
0.759569
0.757829
0.756407
0.755256
0.768993
0.769155
0.769661
0.77047
0.771519
0.772727
0.774002
0.775258
0.776416
0.77741
0.778179
0.77867
0.778846
0.778687
0.778189
0.77736
0.77622
0.774796
0.773116
0.771213
0.769124
0.766899
0.764599
0.762291
0.760037
0.757895
0.755913
0.754125
0.752672
0.751562
0.76675
0.766924
0.76746
0.768311
0.7694
0.770641
0.771943
0.773217
0.774385
0.775374
0.776118
0.776563
0.776674
0.776436
0.775846
0.774915
0.773664
0.77212
0.770313
0.768277
0.766052
0.763693
0.761264
0.758837
0.756479
0.754252
0.75221
0.750393
0.74894
0.747923
0.764452
0.764634
0.765202
0.766093
0.767221
0.768494
0.769819
0.771109
0.772282
0.77326
0.773972
0.774364
0.774406
0.774084
0.773399
0.772364
0.771
0.769334
0.767399
0.765229
0.762868
0.760374
0.757816
0.755268
0.752803
0.750488
0.748386
0.74655
0.745122
0.744251
0.762091
0.762283
0.762883
0.763814
0.764979
0.766281
0.767626
0.768927
0.770099
0.771057
0.771728
0.77206
0.772025
0.771614
0.770829
0.769685
0.768204
0.766414
0.764348
0.762043
0.759546
0.756915
0.754222
0.751546
0.748959
0.746537
0.744356
0.742492
0.741109
0.74044
0.75966
0.759866
0.760501
0.761472
0.762671
0.763997
0.765357
0.766664
0.767826
0.768755
0.769375
0.769638
0.769518
0.76901
0.768118
0.76686
0.765256
0.763339
0.761141
0.7587
0.756064
0.753294
0.750462
0.747642
0.744908
0.742333
0.740006
0.738042
0.736706
0.736349
0.757157
0.757382
0.758053
0.759063
0.760293
0.761639
0.763008
0.764311
0.765454
0.766342
0.766901
0.767084
0.766871
0.766257
0.765251
0.763871
0.762142
0.760094
0.757763
0.755187
0.752415
0.749507
0.746532
0.743555
0.74064
0.737842
0.735219
0.73287
0.731104
0.730599
0.886905
0.900007
0.908013
0.915237
0.919673
0.922955
0.924754
0.925563
0.925534
0.924839
0.923565
0.921812
0.919648
0.917144
0.914376
0.911368
0.908168
0.904859
0.901419
0.897871
0.894256
0.890547
0.886811
0.883049
0.879289
0.875585
0.871966
0.868577
0.865676
0.863627
0.881442
0.894665
0.902978
0.910596
0.915325
0.918795
0.920744
0.921687
0.921747
0.921119
0.919915
0.918234
0.916134
0.913714
0.910988
0.908038
0.904914
0.901642
0.898257
0.894773
0.891185
0.887537
0.883828
0.8801
0.876365
0.872676
0.869066
0.865681
0.862758
0.860704
0.875765
0.889175
0.897831
0.905885
0.910934
0.914613
0.916724
0.917805
0.917956
0.917401
0.916265
0.914654
0.91262
0.910281
0.907598
0.904711
0.901665
0.898433
0.895103
0.891684
0.888129
0.884543
0.880866
0.877178
0.873472
0.869804
0.866206
0.862829
0.859885
0.857826
0.86985
0.883539
0.892585
0.9011
0.906492
0.910418
0.912699
0.913909
0.914157
0.913686
0.912621
0.911077
0.90911
0.906833
0.904218
0.901395
0.898411
0.895237
0.891961
0.888597
0.885094
0.881556
0.877928
0.874281
0.870611
0.866969
0.863389
0.860015
0.857061
0.854989
0.863706
0.87775
0.887228
0.896247
0.902009
0.906208
0.908671
0.910005
0.910356
0.909972
0.90898
0.907501
0.905603
0.903381
0.900843
0.898086
0.895155
0.892051
0.888828
0.885514
0.882076
0.878582
0.87501
0.871409
0.86778
0.864172
0.860612
0.857243
0.854283
0.852194
0.857346
0.871808
0.881754
0.891331
0.897495
0.901981
0.904636
0.906101
0.906556
0.906259
0.905342
0.903928
0.902098
0.899935
0.89747
0.894779
0.891905
0.888868
0.885705
0.882443
0.879069
0.875627
0.872111
0.868562
0.864976
0.861407
0.857871
0.854513
0.851549
0.849441
0.850778
0.865716
0.876166
0.886351
0.89295
0.89774
0.900598
0.902199
0.902761
0.902548
0.901707
0.900358
0.898596
0.896495
0.894099
0.891475
0.888661
0.88569
0.882589
0.879385
0.876074
0.872689
0.869231
0.865738
0.862202
0.858676
0.855168
0.851822
0.848857
0.846732
0.844015
0.859482
0.870468
0.88131
0.888374
0.893485
0.896557
0.898299
0.898969
0.898841
0.898075
0.896792
0.8951
0.893062
0.890733
0.888178
0.885426
0.88252
0.879483
0.876338
0.873091
0.869768
0.866372
0.862938
0.859455
0.855977
0.852502
0.849173
0.846209
0.844066
0.837079
0.853119
0.86467
0.876211
0.883771
0.889219
0.892514
0.894402
0.895182
0.895138
0.894449
0.893233
0.891609
0.889636
0.887373
0.884888
0.8822
0.879358
0.876386
0.873303
0.87012
0.866863
0.863533
0.860163
0.856736
0.853309
0.849873
0.846565
0.843604
0.841445
0.829998
0.846646
0.858783
0.871057
0.879141
0.884944
0.88847
0.89051
0.8914
0.891443
0.89083
0.889682
0.888125
0.886218
0.884023
0.881606
0.878984
0.876206
0.873298
0.87028
0.867165
0.863975
0.860714
0.857412
0.854045
0.850672
0.847281
0.843999
0.841042
0.838867
0.82281
0.840086
0.852822
0.865853
0.874488
0.880659
0.884428
0.886624
0.887627
0.887758
0.887221
0.88614
0.884652
0.88281
0.880682
0.878333
0.875776
0.873063
0.87022
0.867268
0.864223
0.861104
0.857915
0.854683
0.851381
0.848066
0.844726
0.841474
0.838525
0.836334
0.815558
0.833468
0.846805
0.860607
0.869815
0.876369
0.880388
0.882747
0.883864
0.884085
0.883623
0.88261
0.881189
0.879413
0.877352
0.875069
0.872578
0.869931
0.867153
0.864268
0.861295
0.858248
0.855134
0.851976
0.848745
0.845492
0.842207
0.838991
0.836052
0.833846
0.808294
0.826825
0.840754
0.855328
0.865126
0.872073
0.876354
0.87888
0.880114
0.880425
0.880038
0.879093
0.877739
0.876028
0.874033
0.871817
0.86939
0.866808
0.864097
0.86128
0.858381
0.855408
0.852372
0.849291
0.846135
0.84295
0.839726
0.83655
0.833625
0.831405
0.801073
0.820194
0.834695
0.850024
0.860424
0.867774
0.872326
0.875024
0.876379
0.87678
0.876469
0.87559
0.874302
0.872658
0.870728
0.868575
0.866213
0.863695
0.861052
0.858304
0.855482
0.852584
0.849628
0.846628
0.843552
0.84044
0.837282
0.834152
0.831246
0.829013
0.793956
0.813614
0.828654
0.844708
0.855716
0.863473
0.868306
0.871181
0.87266
0.87315
0.872914
0.872102
0.87088
0.869302
0.867436
0.865344
0.863047
0.860594
0.858019
0.855341
0.852598
0.849776
0.846903
0.843987
0.840994
0.83796
0.834875
0.831798
0.828915
0.82667
0.787005
0.807128
0.822661
0.839393
0.851004
0.859174
0.864295
0.867352
0.868957
0.869536
0.869377
0.86863
0.867474
0.865962
0.864158
0.862126
0.859892
0.857504
0.854998
0.852391
0.849726
0.846983
0.844193
0.841364
0.83846
0.835509
0.832503
0.829488
0.826635
0.824379
0.780278
0.800776
0.816745
0.834094
0.846296
0.854881
0.860295
0.863539
0.865274
0.865941
0.865857
0.865177
0.864085
0.862637
0.860894
0.85892
0.856748
0.854425
0.851989
0.849452
0.846865
0.844205
0.841499
0.838759
0.835947
0.833086
0.830167
0.827221
0.824406
0.822143
0.77383
0.794598
0.810935
0.828828
0.841596
0.850596
0.856308
0.859745
0.861611
0.862367
0.862358
0.861744
0.860714
0.859327
0.857643
0.855727
0.853617
0.851357
0.848991
0.846524
0.844015
0.841439
0.838818
0.836169
0.833454
0.830689
0.827864
0.825
0.822232
0.819965
0.76771
0.788632
0.805258
0.823609
0.836914
0.846325
0.852338
0.855972
0.857971
0.858818
0.858882
0.858333
0.857363
0.856034
0.854406
0.852547
0.850497
0.848299
0.846002
0.843608
0.841175
0.838683
0.836149
0.833592
0.830977
0.828316
0.825594
0.822823
0.820114
0.817848
0.761951
0.782911
0.799742
0.818455
0.832258
0.84207
0.848386
0.852222
0.854357
0.855296
0.855431
0.854946
0.854032
0.852757
0.851184
0.849381
0.847389
0.845252
0.843023
0.840702
0.838344
0.835936
0.833489
0.831025
0.828516
0.825965
0.823358
0.820693
0.818057
0.815799
0.756579
0.777462
0.794409
0.81338
0.827637
0.837836
0.844455
0.848494
0.85077
0.851803
0.852007
0.851583
0.850722
0.849498
0.847978
0.846228
0.844293
0.842216
0.840053
0.837805
0.835521
0.833196
0.830836
0.828468
0.826068
0.823635
0.821152
0.818609
0.816064
0.813824
0.751607
0.772305
0.789279
0.808399
0.82306
0.833627
0.840547
0.844792
0.847209
0.848337
0.848609
0.848245
0.847434
0.846259
0.844789
0.843089
0.841209
0.839191
0.837092
0.834915
0.832704
0.830461
0.828189
0.825918
0.82363
0.821323
0.818975
0.816572
0.81414
0.81193
0.747039
0.767454
0.784367
0.803528
0.818535
0.829451
0.836666
0.841118
0.843679
0.844902
0.84524
0.844934
0.844169
0.843039
0.841616
0.839963
0.838136
0.836177
0.834139
0.832032
0.829891
0.82773
0.825546
0.823373
0.8212
0.819026
0.816825
0.814581
0.812288
0.810126
0.742877
0.762918
0.779682
0.798782
0.814074
0.825314
0.832815
0.837476
0.840181
0.841498
0.841901
0.841651
0.840929
0.83984
0.838462
0.836852
0.835076
0.833174
0.831195
0.829154
0.827082
0.825001
0.822904
0.820831
0.818775
0.81674
0.814699
0.812634
0.81051
0.808423
0.739123
0.7587
0.775231
0.794175
0.809688
0.821225
0.829001
0.83387
0.836717
0.838129
0.838595
0.838397
0.837715
0.836664
0.835326
0.833757
0.832029
0.830181
0.828258
0.82628
0.824276
0.822272
0.820262
0.818289
0.816351
0.814461
0.812591
0.810728
0.80881
0.806836
0.735787
0.754799
0.77102
0.789723
0.805395
0.817195
0.825232
0.830306
0.833293
0.834799
0.835327
0.835176
0.83453
0.833511
0.83221
0.83068
0.828996
0.827198
0.825327
0.823411
0.821472
0.819543
0.817618
0.815745
0.813926
0.812183
0.810496
0.808859
0.807189
0.805383
0.732883
0.751205
0.767048
0.785443
0.801212
0.813234
0.821516
0.826789
0.829913
0.831512
0.832098
0.831989
0.831375
0.830383
0.829114
0.827619
0.825977
0.824224
0.822403
0.820545
0.818669
0.816811
0.81497
0.813196
0.811496
0.809902
0.808406
0.807019
0.805646
0.804086
0.730456
0.747893
0.763271
0.781272
0.797071
0.809282
0.8178
0.823279
0.826543
0.82824
0.828886
0.828817
0.82823
0.827265
0.826024
0.824563
0.822958
0.821249
0.819475
0.817672
0.815857
0.814068
0.812311
0.810634
0.809051
0.807607
0.80631
0.805195
0.804176
0.802976
0.728493
0.744748
0.759556
0.777061
0.792822
0.805204
0.813969
0.819673
0.823099
0.824911
0.825627
0.825604
0.825049
0.824114
0.822903
0.821477
0.819911
0.818246
0.816521
0.814772
0.813018
0.8113
0.809626
0.808045
0.806578
0.805285
0.80419
0.803366
0.802762
0.802094
0.726922
0.741789
0.756134
0.773216
0.788889
0.801358
0.810287
0.81616
0.819711
0.821616
0.82239
0.822404
0.821878
0.82097
0.819785
0.818394
0.816863
0.81524
0.813559
0.811862
0.810166
0.808514
0.806918
0.805427
0.80407
0.802919
0.80202
0.801495
0.801359
0.801456
0.720593
0.732944
0.746976
0.764012
0.779823
0.792433
0.801518
0.80752
0.811119
0.813002
0.813714
0.81366
0.813087
0.812159
0.810974
0.809609
0.808119
0.806555
0.804954
0.803355
0.801785
0.800281
0.79887
0.7976
0.796517
0.795722
0.795331
0.795617
0.796876
0.799835
0.702182
0.716031
0.730906
0.746686
0.760847
0.772311
0.780914
0.786917
0.790798
0.793082
0.794221
0.79457
0.794369
0.793785
0.792928
0.79188
0.790702
0.789447
0.788155
0.786867
0.785612
0.784431
0.783357
0.782447
0.781764
0.781437
0.781626
0.782682
0.785002
0.789301
0.682646
0.698105
0.713101
0.727565
0.74038
0.75106
0.759396
0.765492
0.769689
0.772396
0.773989
0.774777
0.774993
0.774802
0.774319
0.773632
0.772802
0.771886
0.770926
0.769963
0.76903
0.768169
0.767417
0.766836
0.766492
0.766518
0.767075
0.768503
0.771248
0.776065
0.662315
0.67834
0.693034
0.706648
0.718741
0.72903
0.737282
0.743536
0.748054
0.751168
0.753197
0.754421
0.755059
0.755275
0.755186
0.754879
0.754418
0.753859
0.753245
0.752616
0.752007
0.75146
0.751012
0.750723
0.750658
0.750941
0.751719
0.753324
0.756209
0.761237
0.641232
0.657274
0.67165
0.684763
0.69642
0.706447
0.714654
0.721066
0.725893
0.729405
0.731874
0.733546
0.734624
0.735269
0.735592
0.735683
0.735606
0.735417
0.735157
0.734868
0.734581
0.734337
0.734172
0.734141
0.734301
0.734769
0.735674
0.737338
0.740199
0.745228
0.619396
0.63531
0.649402
0.662152
0.673487
0.683311
0.691494
0.698059
0.703177
0.707073
0.709975
0.712098
0.713627
0.71471
0.715458
0.715958
0.716273
0.71646
0.716557
0.716605
0.716634
0.716682
0.716779
0.716977
0.717326
0.717932
0.718907
0.720561
0.723305
0.728212
0.596856
0.612591
0.626408
0.638866
0.64996
0.659649
0.667842
0.674562
0.679957
0.684217
0.687534
0.690097
0.69207
0.693591
0.694764
0.695674
0.696381
0.69694
0.697389
0.697767
0.698102
0.698427
0.698769
0.699175
0.699688
0.700406
0.701422
0.703033
0.705616
0.710321
0.57363
0.589169
0.60273
0.614954
0.625882
0.635496
0.643729
0.650612
0.656273
0.660876
0.664588
0.667572
0.669976
0.671924
0.673513
0.674824
0.675915
0.676837
0.67763
0.678327
0.678955
0.679542
0.680114
0.680713
0.681377
0.682193
0.683243
0.684804
0.687211
0.691666
0.549739
0.565084
0.578419
0.590463
0.601281
0.610864
0.619163
0.626212
0.63213
0.637059
0.641145
0.644531
0.647347
0.649708
0.651702
0.653402
0.654864
0.656138
0.657261
0.658264
0.65917
0.660006
0.660795
0.661576
0.66238
0.66329
0.664372
0.665887
0.668122
0.672301
0.525212
0.540371
0.553515
0.565418
0.576168
0.585753
0.594135
0.601355
0.60752
0.612759
0.6172
0.620968
0.624178
0.626934
0.629315
0.631391
0.633212
0.634826
0.636264
0.637558
0.638729
0.639802
0.640798
0.641752
0.642692
0.643694
0.644812
0.646288
0.648365
0.652266
0.500071
0.515057
0.528038
0.539833
0.550543
0.560154
0.568634
0.576026
0.58243
0.587965
0.592743
0.596872
0.600456
0.603588
0.606341
0.608776
0.610942
0.612882
0.614623
0.616195
0.617618
0.618916
0.620106
0.621223
0.622291
0.623378
0.624532
0.625976
0.627909
0.631524
0.474338
0.489159
0.502
0.51371
0.524403
0.534059
0.542648
0.550213
0.556849
0.562665
0.56776
0.572231
0.576169
0.579658
0.582763
0.585542
0.588038
0.590287
0.592317
0.594156
0.595821
0.597334
0.598712
0.599987
0.601178
0.60235
0.603538
0.60495
0.606752
0.610111
0.448029
0.46269
0.475409
0.487053
0.497745
0.50746
0.516167
0.523905
0.530765
0.536848
0.542242
0.547034
0.551304
0.555129
0.558567
0.561672
0.564479
0.567023
0.569328
0.57142
0.573314
0.57503
0.576582
0.578
0.579304
0.580552
0.581776
0.583162
0.584839
0.587897
0.421155
0.435658
0.448269
0.459862
0.470567
0.480351
0.489179
0.497088
0.504164
0.510499
0.516174
0.521266
0.525847
0.529985
0.533735
0.537143
0.540243
0.543066
0.545632
0.547964
0.550077
0.551989
0.553712
0.55527
0.556679
0.557993
0.559236
0.560589
0.562163
0.564996
0.393729
0.408069
0.420584
0.432138
0.442865
0.452723
0.461674
0.469751
0.477032
0.483604
0.489541
0.494912
0.49978
0.504207
0.508245
0.511933
0.515306
0.518387
0.521196
0.52375
0.526062
0.52815
0.530024
0.53171
0.533222
0.534609
0.535885
0.537203
0.538637
0.541139
0.36576
0.37993
0.392358
0.403883
0.414638
0.424573
0.433644
0.441883
0.449359
0.456151
0.462329
0.467954
0.473083
0.477774
0.482071
0.486016
0.489636
0.492955
0.495989
0.498753
0.501258
0.503517
0.505535
0.50733
0.508911
0.510327
0.511603
0.512897
0.514282
0.516575
0.337257
0.351242
0.363593
0.375099
0.385885
0.395894
0.405082
0.413473
0.42113
0.428124
0.434521
0.440374
0.445737
0.450661
0.455189
0.45936
0.463199
0.466727
0.469956
0.472901
0.475569
0.477974
0.480127
0.482043
0.483727
0.485209
0.486491
0.487699
0.488895
0.490846
0.308231
0.322011
0.334297
0.345795
0.356611
0.366687
0.375981
0.384514
0.392336
0.399512
0.406101
0.412154
0.417718
0.422842
0.427566
0.43193
0.435959
0.439672
0.443081
0.446195
0.449014
0.451543
0.453784
0.455752
0.457461
0.458956
0.460254
0.461475
0.462663
0.464382
0.278709
0.292253
0.304489
0.315983
0.326822
0.336952
0.346338
0.354998
0.362967
0.370302
0.377056
0.383275
0.389005
0.39429
0.399172
0.403689
0.407864
0.411718
0.415259
0.418499
0.421445
0.424105
0.426475
0.42855
0.430315
0.431788
0.432986
0.434042
0.435043
0.436447
0.248748
0.26201
0.274202
0.285689
0.296529
0.306693
0.316154
0.324923
0.33302
0.340487
0.34737
0.353716
0.359568
0.36497
0.369966
0.374597
0.378887
0.382857
0.386508
0.389841
0.392851
0.395543
0.397927
0.400024
0.401841
0.403395
0.404664
0.405727
0.406634
0.407724
0.218485
0.231381
0.243507
0.254954
0.265757
0.275921
0.285432
0.294288
0.302489
0.310056
0.317031
0.323463
0.329391
0.33486
0.339913
0.344592
0.348929
0.352949
0.356665
0.360083
0.363197
0.36599
0.368431
0.370508
0.372223
0.373622
0.374727
0.375636
0.376416
0.377169
0.188194
0.20057
0.21253
0.223851
0.234542
0.244654
0.254183
0.2631
0.271372
0.279
0.28602
0.292483
0.29843
0.303908
0.308967
0.313652
0.317995
0.322013
0.325705
0.329076
0.332137
0.334904
0.337381
0.339554
0.341382
0.342838
0.343897
0.344648
0.345207
0.345612
0.158351
0.16994
0.181496
0.192503
0.202953
0.212931
0.222427
0.231367
0.239676
0.247327
0.25435
0.260791
0.266691
0.272097
0.277066
0.281661
0.285936
0.289924
0.293626
0.29702
0.300064
0.302736
0.305041
0.307017
0.30869
0.31006
0.311061
0.311699
0.312035
0.311922
0.12962
0.14003
0.150766
0.161133
0.171125
0.180837
0.190215
0.199114
0.207395
0.215003
0.221958
0.228307
0.23409
0.23936
0.244176
0.248599
0.252681
0.256462
0.259971
0.263228
0.266231
0.26895
0.271329
0.273326
0.274922
0.276138
0.276959
0.277387
0.277473
0.276947
0.102741
0.111511
0.120868
0.130128
0.139327
0.148551
0.157665
0.166423
0.174612
0.182126
0.188956
0.195128
0.200678
0.20568
0.210233
0.21443
0.218334
0.221956
0.225269
0.228252
0.230915
0.233303
0.235443
0.237318
0.238867
0.240036
0.240738
0.240895
0.240509
0.239247
0.0783585
0.0850728
0.0924784
0.100092
0.108053
0.116425
0.124971
0.133342
0.141259
0.148555
0.155164
0.161073
0.166304
0.170924
0.17504
0.178777
0.182253
0.185546
0.188667
0.191568
0.194165
0.196409
0.198304
0.199897
0.201221
0.202272
0.202942
0.203
0.202241
0.20034
0.0568323
0.0612948
0.066348
0.0718183
0.0780752
0.0851575
0.0927126
0.100355
0.107766
0.114678
0.12091
0.126392
0.131156
0.135307
0.138962
0.142214
0.14514
0.147818
0.15032
0.152685
0.154891
0.156879
0.158587
0.159982
0.161057
0.16184
0.162301
0.162167
0.16095
0.158215
0.0380698
0.0404118
0.0431142
0.0461559
0.0503127
0.0555099
0.0613328
0.0675525
0.0739478
0.080152
0.0857893
0.0906385
0.094685
0.098073
0.101
0.10364
0.106109
0.108434
0.110574
0.112477
0.114141
0.115608
0.116923
0.118075
0.118995
0.119642
0.120014
0.119841
0.1183
0.114937
0.0214629
0.0221119
0.0227761
0.0236677
0.0261235
0.0293126
0.0328863
0.0369899
0.0415869
0.0463471
0.0508535
0.0547672
0.0579089
0.0602907
0.0620901
0.0635842
0.0650359
0.0665591
0.0680912
0.0694857
0.070638
0.0715559
0.0723207
0.072994
0.0735495
0.073925
0.0741373
0.0740717
0.0726963
0.069049
0.0065051
0.00547511
0.00148358
0.000617179
0.00311958
0.00493164
0.00630375
0.00799066
0.0101572
0.0126264
0.0151389
0.0174432
0.0193517
0.0207883
0.0217935
0.0225041
0.0230859
0.0236628
0.0242736
0.0248789
0.0254117
0.0258392
0.026175
0.0264496
0.026659
0.026751
0.0267213
0.0267227
0.0263381
0.0237644
0.704104
0.688112
0.669035
0.648589
0.627441
0.605516
0.582922
0.5597
0.535853
0.511405
0.486382
0.460791
0.434653
0.407979
0.380789
0.353104
0.324942
0.296361
0.267416
0.238227
0.208968
0.179921
0.15153
0.124335
0.0989302
0.0758265
0.0553357
0.0374066
0.0214425
0.00685513
0.701324
0.683974
0.664452
0.643815
0.622662
0.600779
0.578243
0.555088
0.531315
0.506945
0.482005
0.456501
0.430455
0.403877
0.376788
0.349213
0.321167
0.292715
0.263915
0.234895
0.205841
0.17705
0.148987
0.12219
0.0972417
0.0746187
0.0545882
0.0370476
0.021355
0.00692289
0.697933
0.679718
0.659915
0.639154
0.617998
0.596155
0.57367
0.550573
0.526869
0.502575
0.477716
0.452297
0.426344
0.399865
0.372878
0.345414
0.317485
0.289164
0.26051
0.231661
0.202813
0.174271
0.146513
0.120072
0.0955223
0.0733278
0.0537371
0.0366021
0.021207
0.00695402
0.694217
0.675436
0.655409
0.634554
0.613395
0.591591
0.569159
0.546119
0.522481
0.498259
0.473476
0.44814
0.422276
0.395894
0.369007
0.34165
0.313837
0.285645
0.257136
0.228454
0.199812
0.171525
0.144082
0.118013
0.0938813
0.072124
0.0529591
0.0361985
0.0210705
0.00696968
0.69025
0.671131
0.650951
0.630037
0.608876
0.587107
0.564723
0.54174
0.518163
0.494005
0.469296
0.444039
0.418261
0.391971
0.365182
0.337929
0.31023
0.282163
0.253798
0.225284
0.196851
0.168824
0.141701
0.116012
0.0923081
0.0709959
0.0522526
0.0358433
0.0209529
0.00697511
0.686106
0.666815
0.646548
0.625601
0.604438
0.582704
0.560365
0.537433
0.513913
0.489817
0.465176
0.439995
0.414298
0.388096
0.361402
0.334252
0.306664
0.27872
0.250498
0.222154
0.193933
0.16617
0.139375
0.114074
0.0908026
0.0699362
0.0516063
0.0355269
0.0208505
0.00697091
0.681841
0.662496
0.642201
0.621246
0.600083
0.578383
0.556086
0.533199
0.509733
0.485696
0.46112
0.43601
0.41039
0.384272
0.35767
0.330619
0.30314
0.275317
0.247239
0.219065
0.191059
0.163568
0.137109
0.112205
0.0893691
0.0689461
0.0510179
0.0352459
0.0207619
0.00695924
0.677504
0.658185
0.637909
0.616973
0.595812
0.574142
0.551884
0.529041
0.505624
0.481644
0.457128
0.432085
0.406538
0.380502
0.353987
0.327032
0.299659
0.271957
0.244021
0.21602
0.188234
0.161021
0.134907
0.110408
0.0880101
0.0680266
0.0504867
0.0349996
0.0206862
0.00694522
0.673135
0.653895
0.633674
0.612779
0.591627
0.569981
0.54776
0.524958
0.501589
0.477661
0.453203
0.428223
0.402746
0.376786
0.350355
0.323492
0.296224
0.26864
0.240846
0.21302
0.185457
0.15853
0.13277
0.108682
0.0867252
0.0671762
0.0500097
0.0347858
0.0206216
0.00692554
0.668766
0.649639
0.629502
0.608664
0.587526
0.565903
0.543716
0.520953
0.497628
0.473749
0.449344
0.424425
0.399016
0.373129
0.346776
0.320001
0.292836
0.265369
0.237716
0.210066
0.18273
0.156095
0.130697
0.107026
0.0855116
0.066391
0.0495824
0.0346012
0.020566
0.00690275
0.664423
0.645431
0.625395
0.604626
0.58351
0.561908
0.539751
0.517025
0.493742
0.469908
0.445555
0.420695
0.395349
0.36953
0.343253
0.316562
0.289498
0.262146
0.234632
0.207159
0.180055
0.153718
0.128688
0.105438
0.0843667
0.0656674
0.0492007
0.0344419
0.0205177
0.00687906
0.660123
0.641279
0.621358
0.600665
0.579578
0.557997
0.535869
0.513175
0.489929
0.46614
0.441836
0.417031
0.391746
0.365991
0.339786
0.313179
0.286211
0.258972
0.231597
0.204304
0.177434
0.151402
0.126744
0.103919
0.0832891
0.0650024
0.048861
0.0343051
0.0204755
0.00685575
0.655884
0.637191
0.617394
0.596784
0.575732
0.554171
0.532068
0.509403
0.486193
0.462445
0.438187
0.413435
0.388206
0.362514
0.336379
0.309852
0.282977
0.255849
0.228615
0.201504
0.174873
0.149149
0.124869
0.10247
0.0822789
0.064394
0.0485605
0.0341883
0.020439
0.00683393
0.65172
0.633179
0.61351
0.592985
0.571972
0.550431
0.528351
0.505711
0.482533
0.458825
0.434611
0.409907
0.384731
0.359099
0.333032
0.306582
0.279798
0.25278
0.225688
0.198763
0.172377
0.146967
0.123066
0.101094
0.0813364
0.0638407
0.0482968
0.0340894
0.0204073
0.00681433
0.647642
0.629252
0.60971
0.589272
0.5683
0.546778
0.524719
0.502102
0.478954
0.455282
0.431106
0.406448
0.381322
0.355749
0.329748
0.303372
0.276675
0.249767
0.22282
0.196085
0.169947
0.144856
0.121339
0.0997939
0.0804611
0.0633403
0.0480672
0.0340064
0.0203808
0.0067975
0.643662
0.625417
0.606002
0.585647
0.564719
0.543215
0.521176
0.49858
0.475457
0.451817
0.427677
0.403059
0.377982
0.352463
0.326525
0.30022
0.273611
0.246811
0.220011
0.193468
0.167584
0.142818
0.119688
0.0985681
0.0796512
0.06289
0.0478685
0.0339368
0.0203725
0.00678392
0.639788
0.621683
0.602389
0.582112
0.56123
0.539743
0.517722
0.495144
0.472043
0.448432
0.424323
0.399744
0.374712
0.349244
0.323365
0.297128
0.270604
0.243914
0.21726
0.190914
0.165289
0.140853
0.118112
0.0974145
0.0789042
0.0624861
0.0476973
0.033878
0.0203568
0.00677266
0.63603
0.618056
0.598877
0.578671
0.557835
0.536365
0.514359
0.491798
0.468716
0.445128
0.421048
0.396504
0.371514
0.346092
0.320269
0.294097
0.267657
0.241075
0.214569
0.188421
0.163059
0.13896
0.116609
0.096331
0.0782167
0.0621254
0.0475505
0.033828
0.0203375
0.00676367
0.632395
0.614541
0.595469
0.575329
0.554536
0.533082
0.511089
0.488541
0.465475
0.441908
0.417855
0.39334
0.368388
0.343009
0.317238
0.291128
0.264771
0.238296
0.211938
0.185991
0.160898
0.137138
0.115179
0.0953159
0.0775865
0.0618049
0.0474256
0.0337857
0.0203196
0.00675704
0.628892