/*--------------------------------*- C++ -*----------------------------------*\
  =========                 |
  \\      /  F ield         | OpenFOAM: The Open Source CFD Toolbox
   \\    /   O peration     | Website:  https://openfoam.org
    \\  /    A nd           | Version:  7
     \\/     M anipulation  |
\*---------------------------------------------------------------------------*/
FoamFile
{
    version     2.0;
    format      ascii;
    class       surfaceScalarField;
    location    "5.2";
    object      phi;
}
// * * * * * * * * * * * * * * * * * * * * * * * * * * * * * * * * * * * * * //

dimensions      [0 3 -1 0 0 0 0];

internalField   nonuniform List<scalar> 
35640
(
-1.41684e-05
7.70252e-05
-6.28567e-05
-4.83955e-05
0.000467081
-0.000432854
-9.73659e-05
0.00103818
-0.000989214
-0.000155899
0.0017006
-0.00164207
-0.000219398
0.00240495
-0.00234145
-0.000283834
0.00312347
-0.00305904
-0.000345773
0.00383994
-0.003778
-0.000402372
0.00454412
-0.00448752
-0.000451294
0.00522913
-0.00518021
-0.000490653
0.00588947
-0.00585011
-0.000518967
0.00652021
-0.00649189
-0.000535119
0.00711657
-0.00710042
-0.000538235
0.00767403
-0.00767091
-0.000527685
0.00818842
-0.00819897
-0.000503038
0.00865619
-0.00868083
-0.000464028
0.00907443
-0.00911344
-0.000410524
0.00944114
-0.00949465
-0.000342525
0.00975516
-0.00982316
-0.000260132
0.0100162
-0.0100986
-0.00016353
0.0102248
-0.0103214
-5.29727e-05
0.0103822
-0.0104928
7.12395e-05
0.0104904
-0.0106146
0.000208739
0.0105517
-0.0106892
0.000359075
0.0105688
-0.0107191
0.000521704
0.0105445
-0.0107071
0.00069592
0.0104819
-0.0106561
0.000880781
0.0103841
-0.010569
0.00107503
0.0102541
-0.0104483
0.00127687
0.0100974
-0.0102992
0.00992122
0.00148401
-0.0101284
-1.57775e-05
9.28023e-05
-5.31746e-05
0.000504478
-0.000106262
0.00109127
-0.000169569
0.00176391
-0.000238355
0.00247373
-0.000308561
0.00319368
-0.00037668
0.00390806
-0.000439774
0.00460722
-0.000495421
0.00528477
-0.000541687
0.00593574
-0.000577046
0.00655557
-0.000600321
0.00713985
-0.000610613
0.00768432
-0.000607259
0.00818507
-0.000589776
0.0086387
-0.000557867
0.00904252
-0.000511365
0.00939464
-0.00045021
0.009694
-0.000374423
0.0099404
-0.000284098
0.0101345
-0.000179391
0.0102775
-6.05152e-05
0.0103716
7.22548e-05
0.0104189
0.000218553
0.0104225
0.000377886
0.0103852
0.000549527
0.0103103
0.000732452
0.0102012
0.000925253
0.0100613
0.00112596
0.00989664
0.0097152
0.00133198
-1.70854e-05
0.000109887
-5.69335e-05
0.000544327
-0.000113152
0.00114749
-0.000180088
0.00183084
-0.000252909
0.00254656
-0.000327502
0.00326827
-0.000400298
0.00398085
-0.000468346
0.00467526
-0.000529183
0.00534561
-0.000580814
0.00598737
-0.000621664
0.00659642
-0.000650523
0.00716871
-0.000666463
0.00770026
-0.000668793
0.0081874
-0.000657032
0.00862694
-0.000630847
0.00901634
-0.000590011
0.00935381
-0.000534405
0.00963839
-0.000463991
0.00986999
-0.000378782
0.0100493
-0.000278818
0.0101776
-0.000164186
0.0102569
-3.50402e-05
0.0102898
0.000108351
0.0102791
0.00026555
0.010228
0.000435848
0.01014
0.00061818
0.0100188
0.000811
0.00986843
0.00101213
0.00969551
0.00950866
0.00121868
-1.80295e-05
0.000127917
-5.97271e-05
0.000586024
-0.000118185
0.00120595
-0.000187578
0.00190024
-0.000263045
0.00262202
-0.000340507
0.00334574
-0.000416395
0.00405674
-0.000487721
0.00474659
-0.000552012
0.0054099
-0.000607246
0.0060426
-0.00065181
0.00664098
-0.000684464
0.00720136
-0.000704285
0.00772008
-0.00071057
0.00819368
-0.000702807
0.00861918
-0.000680642
0.00899417
-0.000643824
0.00931699
-0.000592185
0.00958675
-0.000525608
0.00980341
-0.000443999
0.00996764
-0.000347284
0.0100809
-0.000235422
0.0101451
-0.00010843
0.0101628
3.35591e-05
0.0101371
0.000190194
0.0100713
0.00036084
0.00996932
0.000544401
0.00983528
0.000739225
0.00967361
0.00094293
0.00949181
0.00929931
0.00115228
-1.86977e-05
0.000146615
-6.14948e-05
0.000628821
-0.000121131
0.00126559
-0.000191712
0.00197082
-0.000268401
0.00269871
-0.000347129
0.00342446
-0.000424393
0.004134
-0.000497214
0.00481941
-0.000563106
0.00547579
-0.000620029
0.00609953
-0.000666371
0.00668732
-0.00070088
0.00723587
-0.000722608
0.00774181
-0.000730854
0.00820193
-0.000725114
0.00861344
-0.000705014
0.00897407
-0.000670269
0.00928224
-0.000620664
0.00953715
-0.00055601
0.00973875
-0.000476117
0.00988775
-0.000380786
0.00998552
-0.000269831
0.0100341
-0.000143115
0.0100361
-6.16239e-07
0.00999458
0.000157468
0.00991324
0.000330588
0.0097962
0.000517683
0.00964818
0.000717038
0.00947425
0.000926083
0.00928276
0.00908421
0.00114118
-1.90062e-05
0.000165621
-6.2184e-05
0.000671999
-0.000121981
0.00132538
-0.00019246
0.0020413
-0.000268863
0.00277511
-0.000347212
0.00350281
-0.000424069
0.00421086
-0.000496484
0.00489183
-0.000561993
0.0055413
-0.000618565
0.0061561
-0.000664576
0.00673333
-0.000698769
0.00727006
-0.000720201
0.00776324
-0.000728184
0.00820991
-0.000722204
0.00860746
-0.000701877
0.00895374
-0.000666904
0.00924727
-0.000617031
0.00948727
-0.000551995
0.00967372
-0.000471509
0.00980726
-0.000375258
0.00988927
-0.000262908
0.00992175
-0.000134154
0.00990733
1.1206e-05
0.00984922
0.000173152
0.00975129
0.00035128
0.00961807
0.00054463
0.00945483
0.000751468
0.00926742
0.000969069
0.00906516
0.00885993
0.00119336
-1.90014e-05
0.000184622
-6.18132e-05
0.000714811
-0.000120692
0.00138426
-0.000189748
0.00211035
-0.00026434
0.00284971
-0.000340586
0.00357906
-0.000415159
0.00428544
-0.000485179
0.00496185
-0.000548208
0.00560433
-0.000602226
0.00621012
-0.000645623
0.00677673
-0.000677149
0.00730159
-0.000695865
0.00778195
-0.00070109
0.00821514
-0.000692315
0.00859869
-0.000669157
0.00893059
-0.000631305
0.00920942
-0.000578467
0.00943444
-0.000510323
0.00960557
-0.000426502
0.00972344
-0.000326579
0.00978935
-0.00021008
0.00980525
-7.65304e-05
0.00977378
7.44624e-05
0.00969823
0.000243086
0.00958267
0.000429132
0.00943203
0.000631801
0.00925216
0.000849421
0.0090498
0.00107916
0.00883543
0.00862261
0.00131647
-1.86809e-05
0.000203303
-6.03877e-05
0.000756518
-0.000117296
0.00144117
-0.000183601
0.00217666
-0.000254815
0.00292092
-0.000327203
0.00365145
-0.000397564
0.0043558
-0.000463104
0.00502739
-0.000521434
0.00566266
-0.00057057
0.00625925
-0.000608914
0.00681507
-0.000635224
0.0073279
-0.000648578
0.00779531
-0.000648301
0.00821486
-0.00063389
0.00858427
-0.000604968
0.00890166
-0.000561221
0.00916567
-0.000502327
0.00937554
-0.000427924
0.00953117
-0.000337576
0.00963309
-0.000230766
0.00968254
-0.000106899
0.00968139
3.46514e-05
0.00963222
0.00019447
0.00953841
0.000372958
0.00940418
0.000570157
0.00923483
0.000785487
0.00903683
0.00101743
0.00881785
0.00126312
0.00858974
0.00836816
0.00151757
-1.8063e-05
0.000221366
-5.79572e-05
0.000796413
-0.000111864
0.00149508
-0.000174112
0.00223891
-0.000240395
0.0029872
-0.000307151
0.0037182
-0.000371327
0.00441998
-0.000430238
0.0050863
-0.000481564
0.00571399
-0.000523366
0.00630106
-0.000554068
0.00684577
-0.000572444
0.00734628
-0.000577583
0.00780045
-0.000568817
0.00820609
-0.000545653
0.00856111
-0.000507724
0.00886374
-0.000454711
0.00911266
-0.000386282
0.00930711
-0.00030205
0.00944694
-0.000201539
0.00953258
-8.41691e-05
0.00956517
5.07408e-05
0.00954648
0.000203944
0.00947902
0.000376187
0.00936616
0.000568085
0.00921228
0.000779945
0.00902297
0.00101148
0.0088053
0.00126141
0.00856792
0.00152694
0.0083242
0.00809239
0.00180271
-1.71692e-05
0.000238536
-5.45893e-05
0.000833834
-0.000104521
0.00154501
-0.000161458
0.00229585
-0.000221291
0.00304704
-0.000280655
0.00377757
-0.000336662
0.00447598
-0.000386756
0.00513639
-0.00042871
0.00575594
-0.000460634
0.00633298
-0.000480984
0.00686612
-0.000488557
0.00735385
-0.000482447
0.00779434
-0.000461992
0.00818564
-0.000426712
0.00852583
-0.000376246
0.00881327
-0.000310283
0.00904669
-0.000228488
0.00922532
-0.000130473
0.00934892
-1.57517e-05
0.00941786
0.00011628
0.00943314
0.000266348
0.00939641
0.000435277
0.00931009
0.000623929
0.00917751
0.000833108
0.0090031
0.00106338
0.0087927
0.00131477
0.0085539
0.00158636
0.00829634
0.00187555
0.00803501
0.00779125
0.0021767
-1.60267e-05
0.000254563
-5.03795e-05
0.000868187
-9.54438e-05
0.00159007
-0.000145892
0.00234629
-0.000197826
0.00309897
-0.000248085
0.00382783
-0.000293963
0.00452186
-0.000333053
0.00517549
-0.000363232
0.00578612
-0.000382677
0.00635243
-0.000389885
0.00687333
-0.000383671
0.00734763
-0.000363136
0.0077738
-0.000327623
0.00815012
-0.000276664
0.00847487
-0.000209905
0.00874651
-0.000127041
0.00896383
-2.7758e-05
0.00912604
8.8314e-05
0.00923285
0.000221639
0.00928454
0.0003728
0.00928197
0.000542513
0.00922669
0.000731611
0.00912099
0.000941004
0.00896812
0.00117161
0.00877249
0.00142423
0.00854009
0.00169921
0.00827891
0.00199603
0.00799953
0.00231246
0.00771858
0.00746097
0.00264274
-1.46729e-05
0.000269236
-4.54476e-05
0.000898962
-8.48551e-05
0.00162948
-0.000127748
0.00238919
-0.000170432
0.00314166
-0.000209959
0.00386736
-0.000243812
0.00455571
-0.000269748
0.00520142
-0.000285765
0.00580214
-0.000290118
0.00635678
-0.000281353
0.00686457
-0.000258305
0.00732459
-0.000220085
0.00773558
-0.000166039
0.00809608
-9.57045e-05
0.00840454
-8.73772e-06
0.00865954
9.51497e-05
0.00885994
0.000216241
0.00900494
0.000354864
0.00909423
0.000511426
0.00912797
0.000686448
0.00910695
0.00088057
0.00903257
0.00109455
0.00890701
0.00132928
0.00873339
0.00158569
0.00851608
0.00186472
0.00826106
0.00216701
0.00797662
0.00249246
0.00767407
0.00283935
0.0073717
0.00709829
0.00320202
-1.31523e-05
0.000282389
-3.99366e-05
0.000925746
-7.30231e-05
0.00166257
-0.000107431
0.00242359
-0.000139653
0.00317388
-0.000166944
0.00389465
-0.000186982
0.00457575
-0.000197702
0.00521214
-0.000197232
0.00580167
-0.000183921
0.00634347
-0.00015637
0.00683702
-0.000113444
0.00728166
-5.42611e-05
0.0076764
2.18244e-05
0.00801999
0.000115271
0.00831109
0.000226413
0.0085484
0.000355512
0.00873084
0.000502808
0.00885765
0.000668563
0.00892847
0.000853099
0.00894344
0.00105682
0.00890323
0.00128023
0.00880916
0.00152395
0.00866329
0.00178872
0.00846862
0.00207541
0.00822939
0.00238497
0.0079515
0.00271824
0.00764335
0.0030755
0.00731681
0.00345562
0.00699158
0.00670058
0.00385333
-1.15164e-05
0.000293905
-3.40085e-05
0.000948239
-6.02553e-05
0.00168881
-8.54116e-05
0.00244875
-0.000106126
0.00319459
-0.000119843
0.00390836
-0.000124434
0.00458035
-0.000118012
0.00520572
-9.88524e-05
0.00578251
-6.54074e-05
0.00631002
-1.63483e-05
0.00678796
4.94251e-05
0.00721588
0.000132777
0.00759305
0.000234346
0.00791842
0.000354581
0.00819085
0.0004938
0.00840918
0.00065223
0.00857241
0.000830053
0.00867982
0.00102744
0.00873108
0.0012446
0.00872628
0.00148177
0.00866606
0.00173928
0.00855166
0.00201751
0.00838506
0.00231698
0.00816915
0.00263836
0.00790801
0.00298247
0.00760739
0.00335023
0.00727559
0.00374221
0.00692483
0.00415786
0.00657593
0.00626589
0.00459256
-9.82187e-06
0.000303728
-2.78399e-05
0.000966257
-4.68897e-05
0.00170786
-6.2215e-05
0.00246408
-7.05776e-05
0.00320296
-6.95859e-05
0.00390737
-5.7298e-05
0.00456806
-3.20047e-05
0.00518043
7.86521e-06
0.00574264
6.37372e-05
0.00625415
0.000136861
0.00671483
0.000228288
0.00712446
0.000338853
0.00748248
0.000469177
0.0077881
0.000619695
0.00804034
0.000790694
0.00823818
0.000982355
0.00838075
0.00119478
0.0084674
0.00142804
0.00849782
0.00168218
0.00847214
0.00195725
0.00839099
0.00225332
0.00825558
0.00257052
0.00806786
0.00290903
0.00783064
0.00326922
0.00754782
0.00365166
0.00722495
0.00405713
0.00687012
0.00448637
0.00649558
0.00493939
0.00612291
0.00579295
0.00541232
-8.12801e-06
0.000311856
-2.1616e-05
0.000979745
-3.32837e-05
0.00171953
-3.84013e-05
0.00246919
-3.37934e-05
0.00319835
-1.72012e-05
0.00389078
1.31472e-05
0.00453771
5.87909e-05
0.00513478
0.00012114
0.00568029
0.000201485
0.00617381
0.00030098
0.00661534
0.000420611
0.00700483
0.000561165
0.00734193
0.000723232
0.00762603
0.000907214
0.00785635
0.00111335
0.00803204
0.00134177
0.00815234
0.00159245
0.00821671
0.00186535
0.00822493
0.00216032
0.00817717
0.00247718
0.00807412
0.00281574
0.00791703
0.00317576
0.00770784
0.00355707
0.00744932
0.00395964
0.00714525
0.00438365
0.00680094
0.00482961
0.00642415
0.00529825
0.00602694
0.00578996
0.00563121
0.00528117
0.00630174
-6.49474e-06
0.000318351
-1.55231e-05
0.000988774
-1.98003e-05
0.00172381
-1.45476e-05
0.00246394
3.40089e-06
0.0031804
3.62106e-05
0.00385797
8.55135e-05
0.00448841
0.000152683
0.00506762
0.000238964
0.00559401
0.000345502
0.00606727
0.000473339
0.0064875
0.000623371
0.00685479
0.000796318
0.00716898
0.000992714
0.00742964
0.0012129
0.00763616
0.00145706
0.00778788
0.00172521
0.0078842
0.00201722
0.00792469
0.00233287
0.00790928
0.00267181
0.00783823
0.00303361
0.00771232
0.00341773
0.0075329
0.00382361
0.00730197
0.00425065
0.00702228
0.00469835
0.00669755
0.00516643
0.00633286
0.00565501
0.00593557
0.00616462
0.00551733
0.00669584
0.00509998
0.0047305
0.00724651
-4.98e-06
0.000323331
-9.74082e-06
0.000993535
-6.79167e-06
0.00172086
8.77493e-06
0.00244837
4.01768e-05
0.003149
8.95303e-05
0.00380862
0.000158354
0.00441958
0.000247872
0.0049781
0.000359165
0.00548272
0.000493223
0.00593321
0.000650954
0.00632977
0.000833143
0.00667261
0.00104041
0.00696171
0.00127321
0.00719684
0.00153179
0.00737758
0.00181623
0.00750344
0.00212642
0.007574
0.0024621
0.00758902
0.00282281
0.00754856
0.003208
0.00745304
0.00361693
0.0073034
0.00404874
0.00710109
0.00450247
0.00684823
0.00497711
0.00654764
0.00547168
0.00620298
0.00598539
0.00581915
0.00651787
0.00540309
0.00706932
0.00496588
0.00764036
0.00452894
0.00414141
0.00822945
-3.63697e-06
0.000326968
-4.43375e-06
0.000994332
5.41309e-06
0.00171101
3.10306e-05
0.00242276
7.5741e-05
0.00310429
0.000141661
0.0037427
0.000230229
0.00433102
0.000342534
0.00486579
0.0004795
0.00534575
0.000641952
0.00577076
0.000830645
0.00614108
0.00104622
0.00645703
0.00128918
0.00671875
0.00155985
0.00692618
0.00185835
0.00707908
0.00218462
0.00717717
0.00253841
0.00722022
0.00291923
0.0072082
0.00332643
0.00714135
0.00375917
0.00702031
0.0042164
0.00684616
0.00469694
0.00662056
0.00519942
0.00634576
0.0057224
0.00602465
0.00626446
0.00566093
0.00682429
0.00525932
0.00740101
0.00482637
0.0079944
0.0043725
0.00860494
0.0039184
0.0035148
0.00923155
-2.51166e-06
0.00032948
2.54282e-07
0.000991566
1.65347e-05
0.00169473
5.17471e-05
0.00238754
0.000109379
0.00304666
0.000191591
0.00366049
0.000299778
0.00422283
0.000434914
0.00473066
0.000597767
0.0051829
0.000788999
0.00557952
0.00100919
0.00592089
0.00125882
0.0062074
0.00153821
0.00643935
0.00184754
0.00661685
0.00218678
0.00673985
0.00255567
0.00680828
0.00295376
0.00682213
0.00338035
0.00678161
0.00383452
0.00668718
0.00431514
0.00653968
0.00482085
0.00634045
0.00535009
0.00609132
0.00590114
0.00579471
0.00647215
0.00545364
0.00706124
0.00507184
0.00766664
0.00465391
0.00828697
0.00420604
0.00892156
0.00373791
0.00957066
0.0032693
0.00285202
0.0102334
-1.63681e-06
0.000331117
4.22146e-06
0.000985707
2.6354e-05
0.0016726
7.05465e-05
0.00234335
0.000140499
0.0029767
0.000238461
0.00356253
0.000365811
0.00409548
0.000523433
0.00457304
0.000711949
0.00499438
0.000931851
0.00535962
0.00118353
0.00566921
0.00146727
0.00592366
0.00178321
0.00612341
0.00213133
0.00626873
0.00251137
0.0063598
0.0029229
0.00639675
0.0033652
0.00637983
0.00383734
0.00630948
0.0043381
0.00618641
0.00486605
0.00601174
0.00541949
0.00578701
0.00599653
0.00551429
0.00659506
0.00519618
0.00721286
0.00483584
0.00784765
0.00443705
0.00849721
0.00400435
0.0091597
0.00354355
0.00983398
0.00306362
0.01052
0.00258326
0.00215493
0.0112171
-1.03351e-06
0.00033215
7.40202e-06
0.000977272
3.47321e-05
0.00164527
8.71733e-05
0.00229091
0.000168679
0.0028952
0.000281624
0.00344958
0.0004274
0.00394971
0.000606817
0.00439362
0.000820365
0.00478083
0.00106837
0.00511162
0.00135101
0.00538656
0.00166837
0.0056063
0.00202037
0.00577141
0.00240674
0.00588236
0.00282701
0.00593952
0.00328048
0.00594328
0.0037662
0.00589412
0.00428293
0.00579275
0.00482918
0.00564016
0.00540319
0.00543772
0.00600295
0.00518725
0.00662621
0.00489103
0.00727052
0.00455187
0.00793329
0.00417307
0.00861183
0.0037585
0.00930354
0.00331264
0.0100061
0.002841
0.0107179
0.00235181
0.0114386
0.00186256
0.00142597
0.0121676
-7.08726e-07
0.000332859
9.78026e-06
0.000966783
4.16238e-05
0.00161343
0.00010152
0.00223101
0.000193707
0.00280301
0.000320712
0.00332258
0.000483961
0.00378646
0.000684211
0.00419337
0.000921832
0.00454321
0.00119698
0.00483647
0.00150964
0.0050739
0.00185965
0.00525629
0.0022467
0.00538437
0.00267027
0.00545879
0.00312963
0.00548016
0.00362382
0.00544909
0.0041516
0.00536634
0.00471146
0.00523289
0.00530161
0.00505001
0.00591998
0.00481935
0.00656424
0.00454299
0.00723181
0.00422346
0.00791988
0.00386379
0.00862551
0.00346745
0.0093456
0.00303841
0.0100771
0.00258113
0.0108172
0.00210088
0.0115639
0.00160518
0.0123162
0.0011102
0.000668368
0.0130738
-6.48516e-07
0.000333507
1.13943e-05
0.00095474
4.70881e-05
0.00157773
0.000113647
0.00216446
0.000215614
0.00270104
0.000355685
0.00318251
0.000535338
0.00360681
0.000755294
0.00397341
0.00101582
0.00428269
0.0013169
0.00453539
0.00165832
0.00473248
0.00203969
0.00487491
0.00246044
0.00496362
0.0029198
0.00499943
0.00341677
0.00498318
0.00395012
0.00491574
0.00451831
0.00479814
0.00511958
0.00463163
0.00575183
0.00441776
0.0064127
0.00415848
0.00709955
0.00385613
0.00780947
0.00351354
0.00853931
0.00313395
0.00928571
0.00272106
0.0100451
0.00227898
0.010814
0.00181224
0.011589
0.00132592
0.0123672
0.000826912
0.0131475
0.0003299
-0.000113604
0.0139295
-8.14282e-07
0.000334321
1.2338e-05
0.000941587
5.12934e-05
0.00153878
0.000123794
0.00209196
0.000234695
0.00259014
0.000386871
0.00303033
0.000581861
0.00341182
0.000820363
0.00373491
0.00110255
0.0040005
0.00142826
0.00420969
0.00179708
0.00436366
0.00220839
0.00446361
0.00266137
0.00451064
0.00315499
0.00450581
0.00368798
0.00445019
0.00425885
0.00434488
0.00486579
0.0041912
0.00550675
0.00399067
0.00617937
0.00374514
0.00688101
0.00345684
0.0076087
0.00312844
0.00835922
0.00276303
0.009129
0.00236416
0.00991425
0.00193581
0.0107109
0.00148233
0.0115147
0.0010084
0.0123216
0.000519069
0.0131278
2.06511e-05
0.0139314
-0.000473703
-0.000914295
0.0147321
-1.18341e-06
0.000335505
1.27584e-05
0.000927645
5.45178e-05
0.00149702
0.000132383
0.00201409
0.000251521
0.00247101
0.00041498
0.00286687
0.00062437
0.00320243
0.000880378
0.0034789
0.0011831
0.00369778
0.00153223
0.00386055
0.00192718
0.00396871
0.0023671
0.00402368
0.00285095
0.00402679
0.00337743
0.00397933
0.00394504
0.00388258
0.00455198
0.00373794
0.00519623
0.00354696
0.00587543
0.00331146
0.00658698
0.00303359
0.00732791
0.00271591
0.00809497
0.00236138
0.00888454
0.00197346
0.00969265
0.00155605
0.010515
0.0011135
0.0113468
0.000650532
0.012183
0.000172125
0.0130186
-0.000316527
0.0138487
-0.000809454
0.0146701
-0.00129505
-0.00172625
0.015482
-1.66603e-06
0.000337171
1.28565e-05
0.000913123
5.71414e-05
0.00145273
0.000140007
0.00193122
0.000266917
0.0023441
0.000441089
0.0026927
0.000664204
0.00297931
0.000936952
0.00320615
0.00125936
0.00337537
0.00163101
0.00348891
0.00205112
0.0035486
0.00251867
0.00355613
0.00303236
0.0035131
0.00359069
0.00342101
0.00419186
0.00328141
0.00483385
0.00309594
0.00551435
0.00286646
0.00623073
0.00259508
0.00698007
0.00228425
0.00775911
0.00193687
0.00856422
0.00155627
0.00939137
0.0011463
0.0102361
0.000711291
0.0110936
0.000256064
0.0119583
-0.000214155
0.0128242
-0.000693854
0.0136851
-0.00117742
0.0145346
-0.00165888
0.0153674
-0.00212785
-0.00253979
0.0161809
-2.18437e-06
0.000339355
1.28748e-05
0.000898063
5.96309e-05
0.00140597
0.000147404
0.00184345
0.000281934
0.00220956
0.000466597
0.00250804
0.000703147
0.00274276
0.000992281
0.00291702
0.00133397
0.00303368
0.00172769
0.00309519
0.0021725
0.00310378
0.00266719
0.00306145
0.00321025
0.00297004
0.00379992
0.00283134
0.00443415
0.00264717
0.00511063
0.00241946
0.00582674
0.00215035
0.00657954
0.00184228
0.00736574
0.00149805
0.00818171
0.0011209
0.0090234
0.000714583
0.00988633
0.000283361
0.0107656
-0.000167954
0.0116557
-0.000634008
0.0125504
-0.00110893
0.013443
-0.00158644
0.0143256
-0.00206001
0.0151898
-0.00252305
0.0160277
-0.00296575
-0.00334384
0.0168317
-2.65426e-06
0.000342009
1.30869e-05
0.000882322
6.25178e-05
0.00135654
0.000155423
0.00175055
0.000297797
0.00206719
0.000493153
0.00231268
0.000743322
0.00249259
0.00104901
0.00261134
0.00141014
0.00267254
0.00182607
0.00267926
0.00229573
0.00263412
0.0028177
0.00253948
0.00339024
0.00239749
0.00401132
0.00221026
0.0046786
0.0019799
0.0053894
0.00170865
0.00614075
0.00139901
0.00692927
0.00105376
0.00775125
0.00067607
0.00860256
0.000269591
0.00947867
-0.000161529
0.0103746
-0.000612604
0.0112851
-0.00107839
0.0122041
-0.00155306
0.0131254
-0.00203016
0.0140414
-0.0025025
0.0149434
-0.00296202
0.01582
-0.0033996
0.0166566
-0.00380234
-0.00412784
0.0174406
-2.98041e-06
0.000344989
1.37858e-05
0.000865556
6.63729e-05
0.00130396
0.000164981
0.00165194
0.000315829
0.00191634
0.000522553
0.00210596
0.000787051
0.00222809
0.00111003
0.00228836
0.00149136
0.00229121
0.00193029
0.00224033
0.00242557
0.00213884
0.00297556
0.00198948
0.00357825
0.0017948
0.00423126
0.00155724
0.00493188
0.00127928
0.00567698
0.000963545
0.0064631
0.0006129
0.00728631
0.000230539
0.00814233
-0.00017995
0.00902644
-0.000614518
0.00993354
-0.00106863
0.0108582
-0.00153726
0.0117947
-0.00201488
0.0127371
-0.00249548
0.0136794
-0.00297246
0.0146154
-0.00343852
0.0155385
-0.00388507
0.0164394
-0.00430049
0.0172969
-0.00465991
0.0180338
-0.0048647
0.00242425
0.0511089
-0.0520491
0.00357805
0.0446948
-0.0458486
0.00467203
0.0395207
-0.0406146
0.00564164
0.0363129
-0.0372825
0.00641098
0.0349544
-0.0357237
0.00696068
0.034897
-0.0354467
0.00730129
0.0355531
-0.0358938
0.00746292
0.0364991
-0.0366607
0.0074846
0.0375079
-0.0375296
0.00740323
0.0385146
-0.0384332
0.00724843
0.0395247
-0.0393699
0.00704113
0.0405518
-0.0403445
0.00679485
0.0415937
-0.0413474
0.00651832
0.0426348
-0.0423583
0.00621821
0.043649
-0.0433489
0.00589911
0.0446253
-0.0443062
0.00556467
0.0455496
-0.0452152
0.00521887
0.0464127
-0.0460669
0.00486423
0.0472154
-0.0468607
0.00450247
0.0479559
-0.0475941
0.00413637
0.0486263
-0.0482602
0.00376633
0.0492368
-0.0488668
0.0033942
0.0497776
-0.0494054
0.00302035
0.0502535
-0.0498797
0.00264529
0.0506618
-0.0502868
0.00226923
0.051002
-0.0506259
0.001892
0.051276
-0.0508988
0.00151489
0.051504
-0.0511269
0.00114083
0.0516998
-0.0513257
0.0518489
-0.0514827
0.00231784
0.050123
0.0035443
0.0434683
0.0047065
0.0383585
0.00573336
0.035286
0.00654526
0.0341425
0.00712364
0.0343186
0.00748181
0.035195
0.0076528
0.0363281
0.00767761
0.0374831
0.00759541
0.0385968
0.00743707
0.0396831
0.00722494
0.0407639
0.00697248
0.0418461
0.00668958
0.0429177
0.00638183
0.0439567
0.00605459
0.0449526
0.00571176
0.0458925
0.00535649
0.046768
0.00499173
0.0475802
0.00461999
0.0483276
0.00424252
0.0490038
0.00386142
0.0496179
0.0034776
0.0501614
0.00309171
0.0506395
0.00270471
0.0510488
0.00231636
0.0513904
0.00192701
0.0516654
0.00153801
0.051893
0.00115186
0.0520859
0.0522274
0.00224152
0.0491002
0.00353125
0.0421786
0.00475504
0.0371347
0.00583379
0.0342073
0.00668473
0.0332915
0.00728964
0.0337137
0.00766408
0.0348205
0.00784371
0.0361485
0.00787131
0.0374555
0.00778819
0.0386799
0.0076263
0.039845
0.0074093
0.0409809
0.00715069
0.0421047
0.00686142
0.043207
0.00654621
0.0442719
0.00621094
0.0452878
0.00585978
0.0462436
0.00549521
0.0471326
0.00512043
0.0479549
0.00473874
0.0487093
0.00435001
0.0493925
0.00395788
0.05001
0.00356236
0.0505569
0.00316446
0.0510374
0.00276549
0.0514478
0.00236481
0.051791
0.00196319
0.052067
0.00156215
0.052294
0.0011636
0.0524845
0.0526185
0.00220258
0.0480499
0.00354365
0.0408375
0.0048204
0.0358579
0.00594442
0.0330833
0.00683008
0.0324059
0.00745889
0.0330849
0.00784809
0.0344313
0.0080355
0.0359611
0.00806561
0.0374254
0.00798138
0.0387642
0.00781592
0.0400104
0.00759389
0.041203
0.00732944
0.0423692
0.00703362
0.0435028
0.00671122
0.0445943
0.00636809
0.045631
0.00600848
0.0466032
0.00563486
0.0475062
0.00525031
0.0483395
0.00485838
0.0491012
0.00445889
0.049792
0.0040555
0.0504134
0.0036484
0.050964
0.00323857
0.0514472
0.00282744
0.0518589
0.00241448
0.052204
0.00200051
0.052481
0.00158715
0.0527074
0.00117607
0.0528956
0.0530227
0.00220853
0.0469825
0.0035862
0.0394599
0.00490549
0.0345386
0.00606685
0.0319219
0.00698199
0.0314907
0.00763156
0.0324353
0.00803386
0.034029
0.00822808
0.0357669
0.00826024
0.0373932
0.00817466
0.0388497
0.00800569
0.0401794
0.00777863
0.04143
0.0075085
0.0426393
0.00720598
0.0438053
0.00687662
0.0449237
0.00652585
0.0459817
0.00615773
0.0469714
0.00577523
0.0478887
0.00538118
0.0487335
0.00497883
0.0495036
0.00456889
0.0502019
0.00415418
0.0508281
0.00373551
0.0513827
0.00331387
0.0518688
0.00289045
0.0522824
0.00246528
0.0526292
0.00203886
0.0529074
0.00161295
0.0531333
0.00118919
0.0533193
0.0534403
0.00226683
0.045909
0.00366389
0.0380628
0.00501317
0.0331893
0.00620259
0.0307325
0.00714121
0.0305521
0.00780789
0.0317686
0.00822126
0.0336157
0.00842127
0.0355668
0.00845501
0.0373595
0.00836788
0.0389369
0.00819537
0.0403519
0.00796334
0.0416621
0.00768755
0.0429151
0.00737849
0.0441144
0.00704224
0.0452599
0.00668394
0.04634
0.00630749
0.0473478
0.00591618
0.04828
0.00551275
0.049137
0.00510014
0.0499162
0.00467974
0.0506223
0.00425385
0.051254
0.0038236
0.0518129
0.00339018
0.0523022
0.00295448
0.0527181
0.00251706
0.0530666
0.00207812
0.0533463
0.00163952
0.0535719
0.00120286
0.053756
0.0538716
0.00238446
0.0448411
0.00378166
0.0366656
0.00514643
0.0318246
0.00635324
0.0295257
0.00730847
0.0295969
0.0079881
0.031089
0.00841025
0.0331935
0.00861488
0.0353622
0.0086497
0.0373247
0.00856082
0.0390257
0.00838475
0.040528
0.0081478
0.041899
0.00786641
0.0431965
0.00755098
0.0444298
0.00720791
0.045603
0.00684219
0.0467058
0.00645762
0.0477324
0.00605758
0.04868
0.00564486
0.0495497
0.00522217
0.0503389
0.0047913
0.0510532
0.00435435
0.051691
0.00391259
0.0522547
0.00346737
0.0527475
0.00301943
0.053166
0.00256971
0.0535163
0.0021182
0.0537979
0.00166677
0.0540233
0.00121701
0.0542057
0.0543169
0.00256773
0.0437909
0.00394431
0.0352891
0.00530828
0.0304606
0.0065205
0.0283135
0.00748453
0.0286328
0.00817243
0.0304011
0.00860076
0.0327652
0.00880873
0.0351542
0.00884408
0.0372893
0.00875326
0.0391166
0.00857359
0.0407077
0.00833179
0.0421408
0.00804487
0.0434834
0.00772324
0.0447514
0.00737347
0.0459528
0.00700046
0.0470788
0.00660793
0.0481249
0.00619928
0.0490887
0.00577736
0.0499716
0.00534476
0.0507715
0.00490347
0.0514945
0.00445554
0.0521389
0.00400233
0.0527079
0.00354533
0.0532045
0.00308519
0.0536262
0.00262312
0.0539784
0.00215901
0.054262
0.00169463
0.0544877
0.0012316
0.0546688
0.0547763
0.00282208
0.0427715
0.00415636
0.0339548
0.00550168
0.0291153
0.00670607
0.0271091
0.00767019
0.0276687
0.00836111
0.0297102
0.00879276
0.0323335
0.00900265
0.0349444
0.00903791
0.0372541
0.00894496
0.0392095
0.00876167
0.0408909
0.0085151
0.0423874
0.00822276
0.0437757
0.00789508
0.0450791
0.00753875
0.0463091
0.00715859
0.0474589
0.00675827
0.0485252
0.00634114
0.0495058
0.00591013
0.0504026
0.00546776
0.0512138
0.00501613
0.0519461
0.00455731
0.0525977
0.0040927
0.0531725
0.00362395
0.0536732
0.00315165
0.0540985
0.00267718
0.0544528
0.00220046
0.0547387
0.00172306
0.0549651
0.00124658
0.0551452
0.0552501
0.00315169
0.0417965
0.00442184
0.0326846
0.00572942
0.0278077
0.00691168
0.0259268
0.00786627
0.0267141
0.00855445
0.029022
0.00898622
0.0319018
0.00919647
0.0347341
0.00923098
0.0372196
0.00913568
0.0393048
0.00894876
0.0410779
0.00869752
0.0426386
0.00839988
0.0440734
0.00806631
0.0454127
0.00770358
0.0466718
0.00731642
0.0478461
0.00690846
0.0489332
0.00648304
0.0499312
0.00604305
0.0508426
0.00559104
0.0516658
0.00512916
0.052408
0.00465952
0.0530673
0.00418359
0.0536484
0.00370313
0.0541537
0.00321871
0.0545829
0.00273183
0.0549397
0.00224246
0.0552281
0.00175199
0.0554556
0.00126192
0.0556353
0.0557384
0.00355923
0.04088
0.00474395
0.0314999
0.00599397
0.0265577
0.00713895
0.0247818
0.00807361
0.0257795
0.00875273
0.0283429
0.00918112
0.0314734
0.00939002
0.0345252
0.00942305
0.0371865
0.00932518
0.0394027
0.00913463
0.0412684
0.00887883
0.0428944
0.00857604
0.0443762
0.00823674
0.045752
0.00786778
0.0470408
0.0074738
0.0482401
0.00705837
0.0493486
0.00662481
0.0503648
0.00617598
0.0512914
0.00571445
0.0521274
0.00524245
0.05288
0.00476208
0.0535477
0.0042749
0.0541356
0.00378275
0.0546458
0.00328627
0.0550794
0.00278696
0.055439
0.00228494
0.0557301
0.00178135
0.0559592
0.00127759
0.0561391
0.0562413
0.00404557
0.0400365
0.00512478
0.0304207
0.00629727
0.0253852
0.00738929
0.0236898
0.00829301
0.0248758
0.00895626
0.0276796
0.00937746
0.0310522
0.00958316
0.0343195
0.0096139
0.0371558
0.00951324
0.0395033
0.00931905
0.0414626
0.00905881
0.0431546
0.00875102
0.044684
0.00840617
0.0460968
0.00803118
0.0474158
0.00763056
0.0486407
0.00720785
0.0497713
0.00676632
0.0508063
0.00630881
0.0517489
0.00583789
0.0525983
0.00535589
0.053362
0.00486487
0.0540387
0.00436654
0.054634
0.00386273
0.0551496
0.00335424
0.0555878
0.00284252
0.0559507
0.00232784
0.0562448
0.00181108
0.0564759
0.00129356
0.0566566
0.056759
0.00460948
0.0392804
0.005565
0.0294652
0.00664051
0.0243097
0.00766381
0.0226665
0.00852517
0.0240144
0.00916532
0.0270395
0.00957527
0.0306422
0.00977572
0.034119
0.00980332
0.0371282
0.0096996
0.0396071
0.00950178
0.0416604
0.00923723
0.0434192
0.00892461
0.0449966
0.00857443
0.046447
0.00819359
0.0477966
0.00778655
0.0490477
0.00735674
0.0502011
0.00690743
0.0512556
0.00644141
0.0522149
0.00596124
0.0530785
0.00546937
0.0538539
0.0049678
0.0545403
0.00445839
0.0551434
0.00394298
0.055665
0.00342253
0.0561083
0.00289841
0.0564749
0.00237108
0.0567721
0.00184115
0.0570059
0.00130981
0.0571879
0.0572916
0.00524751
0.0386254
0.00606363
0.028649
0.00702395
0.0233493
0.00796312
0.0217274
0.00877061
0.0232069
0.00938015
0.02643
0.00977454
0.0302478
0.00996756
0.033926
0.00999109
0.0371047
0.00988403