/*--------------------------------*- C++ -*----------------------------------*\
  =========                 |
  \\      /  F ield         | OpenFOAM: The Open Source CFD Toolbox
   \\    /   O peration     | Website:  https://openfoam.org
    \\  /    A nd           | Version:  7
     \\/     M anipulation  |
\*---------------------------------------------------------------------------*/
FoamFile
{
    version     2.0;
    format      ascii;
    class       volVectorField;
    location    "5.2";
    object      U;
}
// * * * * * * * * * * * * * * * * * * * * * * * * * * * * * * * * * * * * * //

dimensions      [0 1 -1 0 0 0 0];

internalField   nonuniform List<vector> 
18000
(
(-0.00032168 0.00206476 9.27276e-21)
(-0.00206778 0.0134197 0)
(-0.00509666 0.0302941 0)
(-0.0085277 0.0499815 0)
(-0.0120775 0.0709951 -3.05006e-21)
(-0.0154652 0.0924973 1.54307e-20)
(-0.018506 0.113993 -3.12134e-21)
(-0.0210854 0.13517 3.14285e-21)
(-0.0231354 0.155814 0)
(-0.0246195 0.175753 -9.52208e-21)
(-0.0255278 0.194833 -3.18519e-21)
(-0.0258656 0.212907 0)
(-0.0256491 0.229833 6.37408e-21)
(-0.0249057 0.245485 6.38662e-21)
(-0.0236665 0.259749 -1.27706e-20)
(-0.0219644 0.272538 -1.27509e-20)
(-0.0198341 0.28379 0)
(-0.0173099 0.293465 -1.90533e-20)
(-0.0144268 0.301553 6.31851e-21)
(-0.0112205 0.308071 -1.89169e-20)
(-0.00772481 0.313055 6.26748e-21)
(-0.00397143 0.31656 0)
(9.68063e-06 0.318655 -6.1799e-21)
(0.00418973 0.31942 -6.17092e-21)
(0.00853948 0.318939 0)
(0.0130282 0.317298 0)
(0.0176212 0.314588 -1.21003e-20)
(0.0222967 0.310891 -1.20129e-20)
(0.0270294 0.306368 -1.19763e-20)
(0.0315884 0.301222 1.33448e-20)
(-0.000438591 0.00253483 1.32115e-20)
(-0.00266263 0.0144841 2.29761e-20)
(-0.00638547 0.0317095 -2.35069e-20)
(-0.0105926 0.0515789 -2.39571e-20)
(-0.0149559 0.0726312 -6.08986e-21)
(-0.019166 0.0940558 1.84687e-20)
(-0.0230251 0.115383 -2.4897e-20)
(-0.0264088 0.136315 -2.50966e-20)
(-0.0292364 0.156656 2.52506e-20)
(-0.0314661 0.176253 2.53612e-20)
(-0.0330865 0.194963 -1.27249e-20)
(-0.0340967 0.212647 -2.5491e-20)
(-0.0345086 0.229174 -1.27798e-20)
(-0.0343477 0.244421 2.55071e-20)
(-0.0336416 0.258282 -2.54904e-20)
(-0.0324201 0.270672 2.54617e-20)
(-0.030717 0.281531 -5.08363e-20)
(-0.0285663 0.290826 3.79729e-20)
(-0.0260011 0.298547 -2.52077e-20)
(-0.023055 0.30471 1.25945e-20)
(-0.0197614 0.309355 -2.4986e-20)
(-0.0161526 0.312537 0)
(-0.0122589 0.314326 1.25139e-20)
(-0.00811023 0.314803 -2.45769e-20)
(-0.00373794 0.314056 2.44122e-20)
(0.000824331 0.312177 0)
(0.00553681 0.309261 -1.19727e-20)
(0.0103692 0.305402 1.1905e-20)
(0.015275 0.300774 4.74445e-20)
(0.0200253 0.295594 2.65217e-20)
(-0.000572905 0.00299175 -2.11593e-20)
(-0.00327363 0.0155189 -2.29756e-20)
(-0.0076571 0.0331191 3.52514e-20)
(-0.0125917 0.05318 5.98272e-20)
(-0.0177122 0.074275 0)
(-0.0226821 0.0956219 -2.4645e-20)
(-0.0272896 0.116771 2.48966e-20)
(-0.031404 0.13745 7.5213e-20)
(-0.0349386 0.157483 -2.52503e-20)
(-0.0378463 0.176725 -2.53644e-20)
(-0.04011 0.195049 7.62447e-20)
(-0.0417272 0.21233 2.54907e-20)
(-0.0427061 0.228442 0)
(-0.0430675 0.24327 -5.10278e-20)
(-0.0428384 0.256712 7.62473e-20)
(-0.0420469 0.268688 -2.53867e-20)
(-0.0407241 0.279142 2.53762e-20)
(-0.0389024 0.288041 2.53094e-20)
(-0.0366138 0.295378 8.7569e-23)
(-0.0338909 0.301171 0)
(-0.0307662 0.305459 7.49594e-20)
(-0.0272705 0.308297 -4.95205e-20)
(-0.0234338 0.30976 2.47186e-20)
(-0.0192869 0.309929 0)
(-0.0148626 0.308896 -2.44121e-20)
(-0.0101982 0.306759 9.66924e-20)
(-0.0053381 0.303623 -7.17463e-20)
(-0.000319573 0.299592 -2.38932e-20)
(0.00478708 0.294855 2.34261e-20)
(0.00975581 0.289644 2.64546e-20)
(-0.000726935 0.00351261 0)
(-0.00390949 0.0166647 1.14603e-20)
(-0.00892979 0.0346253 7.27302e-25)
(-0.0145462 0.054859 -5.97873e-20)
(-0.0203586 0.0759763 0)
(-0.0260161 0.0972277 -4.91383e-20)
(-0.0312972 0.118184 0)
(-0.036064 0.138597 -7.51723e-20)
(-0.0402264 0.158301 2.5174e-20)
(-0.0437336 0.177175 -5.05666e-20)
(-0.0465647 0.195102 -5.08009e-20)
(-0.048714 0.211965 -2.54548e-20)
(-0.0501881 0.22765 2.54056e-20)
(-0.0510057 0.242046 2.53373e-20)
(-0.0511902 0.255059 -2.54909e-20)
(-0.0507676 0.266611 -5.06444e-20)
(-0.0497684 0.276649 5.04628e-20)
(-0.0482237 0.285142 0)
(-0.0461634 0.292085 0)
(-0.0436181 0.297494 0)
(-0.0406186 0.301411 0)
(-0.0371946 0.303891 0)
(-0.0333753 0.305009 0)
(-0.0291916 0.304851 -4.86814e-20)
(-0.024677 0.303512 -4.85424e-20)
(-0.0198717 0.301098 -2.04468e-22)
(-0.0148244 0.297725 -4.77633e-20)
(-0.00958032 0.293512 -2.80507e-22)
(-0.00423212 0.288664 -4.73978e-20)
(0.000991393 0.28343 1.05064e-19)
(-0.000903866 0.00403517 0)
(-0.00457055 0.0178001 1.02894e-19)
(-0.0101895 0.0361163 9.10097e-25)
(-0.0164329 0.0565175 -3.57956e-20)
(-0.0228735 0.0776523 1.21109e-19)
(-0.0291448 0.0988031 7.36974e-20)
(-0.0350188 0.119564 7.43364e-20)
(-0.0403565 0.139704 0)
(-0.0450642 0.159079 0)
(-0.0490875 0.17758 7.58528e-20)
(-0.0524044 0.195104 5.18529e-23)
(-0.0550077 0.211545 -1.77583e-19)
(-0.0569007 0.226797 1.52174e-19)
(-0.0580995 0.240758 -5.08022e-20)
(-0.0586262 0.253338 5.04844e-20)
(-0.0585056 0.264463 5.04711e-20)
(-0.0577662 0.274081 -5.03461e-20)
(-0.0564373 0.282164 5.03032e-20)
(-0.0545468 0.288706 1.00009e-19)
(-0.0521236 0.293725 -4.96833e-20)
(-0.0491967 0.297261 -9.87965e-20)
(-0.0457936 0.299371 9.82005e-20)
(-0.041942 0.300129 -9.75636e-20)
(-0.0376725 0.299625 4.8681e-20)
(-0.033019 0.29796 0)
(-0.0280237 0.295251 0)
(-0.0227393 0.291624 4.06655e-22)
(-0.0172186 0.287215 -1.8796e-19)
(-0.0115753 0.282251 9.30967e-20)
(-0.00604709 0.277001 -1.04661e-19)
(-0.00110257 0.00457143 0)
(-0.00525404 0.0189536 -9.14516e-20)
(-0.0114376 0.0376135 9.34074e-20)
(-0.0182545 0.0581659 0)
(-0.0252526 0.0793062 -1.93588e-19)
(-0.0320598 0.100349 -2.45206e-20)
(-0.0384455 0.120908 -4.9599e-20)
(-0.044267 0.140772 -2.49468e-20)
(-0.049431 0.159815 0)
(-0.0538831 0.17794 -5.04894e-20)
(-0.057599 0.195058 5.05394e-20)
(-0.0605693 0.211075 1.01417e-19)
(-0.0627965 0.225895 -1.01456e-19)
(-0.064295 0.23942 0)
(-0.0650849 0.251567 -1.01232e-19)
(-0.0651894 0.262266 1.00735e-19)
(-0.0646359 0.271466 1.00675e-19)
(-0.0634514 0.279138 1.50127e-19)
(-0.0616621 0.285279 -1.49614e-19)
(-0.0592948 0.289906 1.98291e-19)
(-0.0563763 0.293056 9.87413e-20)
(-0.0529319 0.294787 -9.81995e-20)
(-0.0489878 0.295175 1.94672e-19)
(-0.0445728 0.294311 0)
(-0.0397216 0.292304 9.56733e-20)
(-0.0344776 0.28928 1.90212e-19)
(-0.0288967 0.28538 -9.37269e-20)
(-0.0230389 0.280761 9.38994e-20)
(-0.0170369 0.275671 -1.96989e-22)
(-0.011145 0.270409 -1.04151e-19)
(-0.00132345 0.00510473 -1.05015e-20)
(-0.00595972 0.0200869 0)
(-0.0126674 0.0390704 -1.1674e-19)
(-0.0199992 0.0597603 2.37778e-20)
(-0.0274847 0.0808965 7.25469e-20)
(-0.0347473 0.101824 2.44616e-20)
(-0.041557 0.122181 9.88072e-20)
(-0.0477722 0.141771 0)
(-0.0533009 0.160483 5.01825e-20)
(-0.0580885 0.178235 5.03155e-20)
(-0.0621098 0.194952 -5.05484e-20)
(-0.065355 0.21055 1.51567e-19)
(-0.0678257 0.224941 0)
(-0.0695342 0.238037 0)
(-0.0704995 0.249759 1.51265e-19)
(-0.070744 0.260038 -2.5145e-19)
(-0.070293 0.268826 1.0011e-19)
(-0.0691714 0.276095 -9.99831e-20)
(-0.0674037 0.281841 -9.91695e-20)
(-0.0650151 0.286079 -2.96514e-19)
(-0.0620298 0.288845 -3.26702e-22)
(-0.0584709 0.290195 9.73434e-20)
(-0.0543626 0.290206 -1.93756e-19)
(-0.0497327 0.288973 9.59165e-20)
(-0.044615 0.28661 -5.17911e-22)
(-0.0390541 0.283254 -9.49095e-20)
(-0.0331092 0.279064 9.41223e-20)
(-0.0268463 0.274218 0)
(-0.0204138 0.268991 9.18734e-20)
(-0.0140918 0.26372 2.24511e-22)
(-0.00156456 0.00562463 -2.09647e-20)
(-0.00668283 0.0211816 2.27625e-20)
(-0.0138738 0.0404657 -1.39655e-19)
(-0.021661 0.0612732 -7.11339e-20)
(-0.0295598 0.082394 9.63816e-20)
(-0.0371947 0.103203 -1.46511e-19)
(-0.0443391 0.123357 -4.94663e-20)
(-0.0508543 0.142677 -9.94382e-20)
(-0.0566508 0.161064 1.00039e-19)
(-0.0616757 0.178452 -2.01098e-19)
(-0.0659039 0.194776 -1.00732e-19)
(-0.0693255 0.209964 -1.87853e-22)
(-0.0719414 0.223938 5.0531e-20)
(-0.0737628 0.236616 -1.51112e-19)
(-0.0748079 0.247923 -2.01283e-19)
(-0.0750978 0.257795 1.52301e-23)
(-0.0746557 0.266184 -2.57654e-22)
(-0.0735051 0.273063 9.93556e-20)
(-0.0716688 0.278426 9.9168e-20)
(-0.0691701 0.282285 7.55936e-23)
(-0.0660313 0.284675 -2.1889e-22)
(-0.0622733 0.28565 9.65798e-20)
(-0.0579185 0.285287 9.66461e-20)
(-0.0529937 0.283681 -1.49694e-22)
(-0.0475318 0.280953 -2.84932e-19)
(-0.041578 0.277252 1.87805e-19)
(-0.0351943 0.272753 1.86695e-19)
(-0.0284523 0.267662 -1.8467e-19)
(-0.0215121 0.262286 -9.18718e-20)
(-0.0146883 0.257007 -1.01953e-19)
(-0.0018239 0.0061234 -1.88166e-19)
(-0.007419 0.0222173 -2.27204e-20)
(-0.015051 0.0417712 1.16318e-19)
(-0.0232326 0.0626754 9.48685e-20)
(-0.03147 0.0837689 -9.63804e-20)
(-0.0393925 0.104455 9.763e-20)
(-0.0467798 0.124409 -4.93077e-20)
(-0.0534979 0.143464 1.49085e-19)
(-0.0594619 0.161538 -1.00038e-19)
(-0.0646215 0.178573 1.00463e-19)
(-0.0689527 0.194517 5.03662e-20)
(-0.072446 0.209309 -5.05196e-20)
(-0.0751022 0.222881 -3.02149e-19)
(-0.0769321 0.235157 2.01269e-19)
(-0.0779531 0.246067 1.00521e-19)
(-0.0781848 0.255549 0)
(-0.0776485 0.263558 0)
(-0.0763663 0.270066 -5.7577e-22)
(-0.0743603 0.275064 -9.83975e-20)
(-0.0716518 0.278562 0)
(-0.0682613 0.280592 0)
(-0.0642085 0.281206 -9.69031e-20)
(-0.0595148 0.280477 0)
(-0.0542056 0.278504 -1.89825e-19)
(-0.0483133 0.275412 0)
(-0.0418835 0.271358 -9.38076e-20)
(-0.0349813 0.266537 1.85493e-19)
(-0.0276826 0.261182 -1.83481e-19)
(-0.0201544 0.255642 0)
(-0.0127549 0.250352 0)
(-0.0020985 0.00659152 1.67239e-19)
(-0.00816248 0.0231744 0)
(-0.0161926 0.0429622 -2.32066e-20)
(-0.0247076 0.0639377 2.36482e-20)
(-0.0332088 0.0849895 -1.43985e-19)
(-0.0413333 0.105548 4.37599e-23)
(-0.0488703 0.125305 -4.91694e-20)
(-0.0556922 0.144105 0)
(-0.0617201 0.161877 0)
(-0.066908 0.178575 -5.01401e-20)
(-0.0712335 0.194157 5.01897e-20)
(-0.0746885 0.208573 -1.00654e-19)
(-0.0772742 0.221762 1.00872e-19)
(-0.0790015 0.233657 0)
(-0.0798864 0.244191 0)
(-0.0799475 0.253308 0)
(-0.0792049 0.260962 9.9005e-20)
(-0.0776797 0.267123 -3.2248e-22)
(-0.0753926 0.271781 9.87287e-20)
(-0.072364 0.274943 -1.94937e-19)
(-0.0686134 0.276637 9.70439e-20)
(-0.0641601 0.276912 -4.80804e-19)
(-0.0590251 0.275838 3.39644e-22)
(-0.0532336 0.273513 1.8982e-19)
(-0.0468175 0.270066 -6.57598e-22)
(-0.0398233 0.265662 1.85808e-19)
(-0.0323193 0.260512 -1.83577e-19)
(-0.0243854 0.254879 -1.82491e-19)
(-0.016189 0.249157 5.33756e-22)
(-0.00814041 0.243851 -1.9972e-19)
(-0.00238475 0.00702096 -2.08427e-20)
(-0.00890678 0.0240355 0)
(-0.0172926 0.044015 4.63243e-20)
(-0.0260806 0.0650322 -4.72056e-20)
(-0.0347711 0.0860251 4.31758e-19)
(-0.0430127 0.10645 4.58517e-23)
(-0.0506054 0.126012 -4.90812e-20)
(-0.0574309 0.144569 4.95385e-20)
(-0.0634172 0.162054 -2.48811e-19)
(-0.0685237 0.178433 0)
(-0.0727313 0.193675 0)
(-0.0760335 0.207737 -1.00094e-19)
(-0.0784327 0.220568 1.00624e-19)
(-0.0799398 0.232107 -1.00258e-19)
(-0.0805703 0.242293 9.98324e-20)
(-0.0803413 0.251072 0)
(-0.0792726 0.258399 -3.96348e-19)
(-0.0773842 0.264245 1.96777e-19)
(-0.0746963 0.268595 9.80046e-20)
(-0.0712286 0.271454 2.91885e-19)
(-0.0670008 0.272845 0)
(-0.062033 0.272813 1.92022e-19)
(-0.0563467 0.271425 1.89868e-19)
(-0.0499676 0.268776 1.88194e-19)
(-0.0429289 0.264996 -1.07892e-21)
(-0.0352784 0.260256 -1.84219e-19)
(-0.027088 0.25478 1.83572e-19)
(-0.0184417 0.24886 0)
(-0.0095007 0.242943 5.70656e-22)
(-0.000732737 0.237612 3.97456e-19)
(-0.00267894 0.00740505 -1.66219e-19)
(-0.00964524 0.0247853 0)
(-0.0183449 0.044908 -1.84708e-19)
(-0.0273471 0.0659323 -2.35437e-19)
(-0.0361544 0.0868457 -1.43838e-19)
(-0.044429 0.107128 4.85346e-20)
(-0.0519845 0.126499 5.68029e-23)
(-0.0587129 0.144821 -4.93864e-20)
(-0.064551 0.162036 3.59446e-22)
(-0.0694649 0.178118 9.99112e-20)
(-0.0734395 0.193043 9.99621e-20)
(-0.0764711 0.206778 -9.98447e-20)
(-0.0785638 0.219278 1.0005e-19)
(-0.0797289 0.230491 -2.99689e-19)
(-0.0799811 0.24036 2.98672e-19)
(-0.0793373 0.248834 1.98275e-19)
(-0.0778167 0.255869 4.94003e-19)
(-0.0754391 0.261434 -9.8817e-20)
(-0.0722243 0.265514 -1.94821e-19)
(-0.0681925 0.268109 -7.67839e-22)
(-0.0633645 0.269238 -1.92344e-19)
(-0.0577621 0.268942 5.71568e-19)
(-0.0514092 0.267282 -3.78953e-19)
(-0.0443335 0.26435 3.73959e-19)
(-0.0365704 0.260274 -1.86015e-19)
(-0.0281703 0.255228 3.67294e-19)
(-0.0192101 0.249443 6.37888e-22)
(-0.00977802 0.243238 -3.59822e-19)
(-2.23599e-05 0.237116 3.55372e-19)
(0.00952948 0.231752 1.95523e-19)
(-0.00297718 0.00773837 1.66218e-19)
(-0.0103714 0.0254112 0)
(-0.0193443 0.0456226 4.15173e-19)
(-0.028504 0.0666141 1.41281e-19)
(-0.0373577 0.0874227 0)
(-0.0455839 0.107551 0)
(-0.0530107 0.126729 0)
(-0.0595426 0.144826 0)
(-0.0651263 0.161788 9.93614e-20)
(-0.0697359 0.177595 9.95849e-20)
(-0.0733615 0.192229 -1.99969e-19)
(-0.0760029 0.205665 2.00138e-19)
(-0.0776667 0.217867 2.9957e-19)
(-0.0783649 0.228786 1.00012e-19)
(-0.0781124 0.238372 9.89664e-20)
(-0.0769259 0.246577 -2.97217e-19)
(-0.0748246 0.253357 -3.93965e-19)
(-0.0718283 0.258683 -1.9612e-19)
(-0.0679575 0.262535 1.94816e-19)
(-0.0632338 0.264912 -3.86435e-19)
(-0.0576803 0.265828 1.91388e-19)
(-0.0513219 0.265318 -3.80027e-19)
(-0.0441858 0.26344 1.87556e-19)
(-0.0363037 0.260279 -9.65222e-22)
(-0.027715 0.25596 -1.84373e-19)
(-0.0184744 0.250652 -3.65601e-19)
(-0.00866471 0.244594 3.61773e-19)
(0.00162004 0.238122 0)
(0.0122506 0.231795 -6.16245e-22)
(0.0226434 0.226392 -3.88746e-19)
(-0.00327572 0.008017 2.07095e-20)
(-0.0110792 0.0259036 0)
(-0.0202864 0.0461429 -1.84326e-19)
(-0.0295497 0.0670562 4.69486e-20)
(-0.0383828 0.0877293 -4.7672e-20)
(-0.0464821 0.107687 0)
(-0.0536916 0.126669 -4.88638e-20)
(-0.0599299 0.144547 4.9201e-20)
(-0.0651549 0.161272 9.91251e-20)
(-0.0693497 0.176826 -2.98126e-19)
(-0.0725109 0.191196 -9.97543e-20)
(-0.0746427 0.204364 -1.24098e-22)
(-0.075755 0.216299 -2.21881e-22)
(-0.0758613 0.22696 -1.98963e-19)
(-0.0749773 0.2363 -9.9459e-20)
(-0.07312 0.244275 0)
(-0.0703091 0.250842 2.46644e-22)
(-0.0665652 0.255972 1.95452e-19)
(-0.0619105 0.259644 -1.93718e-19)
(-0.056369 0.261853 0)
(-0.049967 0.26261 0)
(-0.0427338 0.261946 0)
(-0.0347017 0.259911 0)
(-0.025908 0.256587 -9.97519e-22)
(-0.0163981 0.25209 0)
(-0.00623221 0.246585 0)
(0.00449922 0.240306 1.78857e-19)
(0.015694 0.233603 1.76871e-19)
(0.0272471 0.227089 1.75499e-19)
(0.038529 0.221647 -6.97471e-22)
(-0.00357116 0.00823871 2.06628e-20)
(-0.0117632 0.0262559 -4.48903e-20)
(-0.0211679 0.0464571 2.75408e-19)
(-0.030484 0.0672406 -4.68199e-20)
(-0.039233 0.0877415 4.76168e-20)
(-0.0471312 0.107506 5.47256e-23)
(-0.054039 0.126282 1.46044e-19)
(-0.0598903 0.143946 -1.96355e-19)
(-0.0646557 0.160446 2.96472e-19)
(-0.0683282 0.175768 1.97045e-22)
(-0.0709121 0.189901 -9.93499e-20)
(-0.0724176 0.202832 1.98894e-19)
(-0.0728582 0.214535 -1.98714e-19)
(-0.07225 0.224973 1.98262e-19)
(-0.0706102 0.234106 0)
(-0.0679571 0.241891 1.96628e-19)
(-0.0643116 0.248289 0)
(-0.0596962 0.253268 6.40854e-22)
(-0.0541352 0.25681 -1.92704e-19)
(-0.0476563 0.258905 -1.911e-19)
(-0.0402906 0.259562 1.89384e-19)
(-0.0320727 0.258806 -1.87575e-19)
(-0.0230414 0.256684 -1.85691e-19)
(-0.0132413 0.253271 -3.68473e-19)
(-0.00272544 0.248674 -1.81762e-19)
(0.00843892 0.243049 1.8024e-19)
(0.0201525 0.236623 -3.57169e-19)
(0.032302 0.229747 -1.76863e-19)
(0.0448099 0.223079 0)
(0.0570185 0.217616 -1.90122e-19)
(-0.00386059 0.00840302 0)
(-0.0124194 0.026465 1.78931e-19)
(-0.0219866 0.0465572 -1.37689e-19)
(-0.0313082 0.0671535 -2.33434e-19)
(-0.0399141 0.0874385 0)
(-0.0475413 0.10698 0)
(-0.0540681 0.125537 -2.92091e-19)
(-0.059444 0.142983 3.92181e-19)
(-0.0636538 0.159268 -2.96075e-19)
(-0.0667016 0.174375 0)
(-0.0686004 0.188296 9.94332e-20)
(-0.0693676 0.20102 -9.96062e-20)
(-0.0690217 0.212524 4.45928e-22)
(-0.0675819 0.222777 -9.95142e-20)
(-0.0650681 0.231741 -9.8428e-20)
(-0.0615012 0.239378 -5.44617e-22)
(-0.0569041 0.24565 1.94898e-19)
(-0.0513018 0.250527 1.94169e-19)
(-0.0447227 0.253989 3.83011e-22)
(-0.0371991 0.256025 3.81851e-19)
(-0.0287675 0.256641 -3.78292e-19)
(-0.0194694 0.25586 3.74769e-19)
(-0.00935136 0.253724 1.85683e-19)
(0.00153345 0.2503 1.83739e-19)
(0.0131232 0.245689 1.00377e-21)
(0.0253422 0.240034 0)
(0.0380819 0.233549 1.77096e-19)
(0.0512148 0.226577 -5.25315e-19)
(0.0646914 0.219811 1.72715e-19)
(0.0778517 0.214359 1.87875e-19)
(-0.00414181 0.00851116 -1.23196e-19)
(-0.0130443 0.0265313 -4.02135e-19)
(-0.0227415 0.0464393 -2.1136e-23)
(-0.0320247 0.0667851 3.83892e-22)
(-0.0404329 0.0868039 -1.41978e-19)
(-0.0477246 0.106087 0)
(-0.0537965 0.124402 -9.6803e-20)
(-0.0586152 0.141622 -5.87267e-19)
(-0.0621801 0.157695 2.95543e-19)
(-0.0645077 0.172601 -1.97521e-19)
(-0.0656209 0.186331 2.9707e-19)
(-0.0655453 0.198874 -9.90712e-20)
(-0.0643058 0.210211 1.9826e-19)
(-0.061926 0.220314 -4.93877e-19)
(-0.0584298 0.229149 2.95416e-19)
(-0.0538415 0.236678 -2.78704e-22)
(-0.0481875 0.242869 -5.83804e-19)
(-0.0414971 0.24769 1.93162e-19)
(-0.0338031 0.251122 -1.91714e-19)
(-0.0251438 0.253154 0)
(-0.0155626 0.25379 1.87804e-19)
(-0.00510873 0.25305 0)
(0.00616263 0.250972 -1.84225e-19)
(0.0181888 0.247618 1.82413e-19)
(0.0308981 0.243081 1.8074e-19)
(0.0442061 0.237491 1.77666e-19)
(0.0579948 0.231045 0)
(0.0721208 0.224069 0)
(0.08656 0.217279 -3.44884e-19)
(0.100682 0.211894 5.55335e-19)
(-0.00441347 0.00856602 1.23299e-19)
(-0.0136363 0.0264583 2.23094e-19)
(-0.0234329 0.0461039 -1.82276e-19)
(-0.0326367 0.0661307 3.72167e-19)
(-0.0407967 0.0858263 4.77376e-20)
(-0.0476938 0.104808 4.80126e-20)
(-0.0532436 0.12285 5.51062e-22)
(-0.0574304 0.139829 -1.94929e-19)
(-0.0602691 0.155686 -9.81217e-20)
(-0.0617896 0.170398 4.18231e-22)
(-0.0620261 0.183953 -4.25638e-22)
(-0.0610135 0.19634 -2.96531e-19)
(-0.058784 0.207538 -9.85989e-20)
(-0.0553676 0.217524 4.79847e-22)
(-0.0507933 0.226264 1.96021e-19)
(-0.0450903 0.233726 1.9498e-19)
(-0.0382901 0.239876 5.80287e-22)
(-0.030427 0.244687 -1.92272e-19)
(-0.0215404 0.248139 1.90896e-19)
(-0.0116753 0.25022 -1.89351e-19)
(-0.000883132 0.250933 -3.74838e-19)
(0.0107784 0.250297 -1.85346e-19)
(0.0232448 0.248347 3.66631e-19)
(0.0364434 0.245142 0)
(0.0502923 0.240765 -1.78825e-19)
(0.0646985 0.235334 -3.5434e-19)
(0.0795356 0.229029 -3.49851e-19)
(0.0946433 0.22215 1.73642e-19)
(0.110018 0.215423 -5.12944e-19)
(0.125095 0.210181 1.83374e-19)
(-0.00467509 0.00857187 -2.04445e-19)
(-0.0141945 0.0262525 4.44691e-20)
(-0.0240617 0.0455557 1.82277e-19)
(-0.0331477 0.0651905 -1.39433e-19)
(-0.0410131 0.0844998 4.73568e-20)
(-0.0474615 0.103128 -1.27248e-22)
(-0.0524284 0.120861 4.83215e-19)
(-0.0559165 0.137574 1.95137e-19)
(-0.0579566 0.153205 1.96317e-19)
(-0.0585935 0.167723 2.95596e-19)
(-0.0578733 0.181113 -2.96104e-19)
(-0.0558414 0.193359 1.97585e-19)
(-0.0525391 0.204443 3.94503e-19)
(-0.0480038 0.21434 1.96614e-19)
(-0.0422713 0.223019 -2.72977e-22)
(-0.0353774 0.230449 -3.89695e-19)
(-0.0273599 0.236598 3.87066e-19)
(-0.01826 0.241441 2.34368e-22)
(-0.00812459 0.244957 -1.90207e-19)
(0.00299319 0.247137 1.88668e-19)
(0.0150334 0.247982 1.87034e-19)
(0.027929 0.24751 -1.84293e-19)
(0.0416059 0.245755 -3.65491e-19)
(0.0559812 0.242771 3.16937e-22)
(0.0709634 0.238634 1.79414e-19)
(0.0864512 0.233453 1.76674e-19)
(0.102312 0.227387 3.47819e-19)
(0.118369 0.220708 -3.43052e-19)
(0.134632 0.214138 0)
(0.150635 0.209128 1.81047e-19)
(-0.00492716 0.00853422 4.20003e-22)
(-0.0147196 0.0259232 0)
(-0.0246292 0.0448035 -1.35968e-19)
(-0.0335607 0.0639704 -4.62851e-20)
(-0.0410879 0.0828255 -1.88041e-19)
(-0.0470382 0.101044 0)
(-0.0513677 0.118422 -2.89611e-19)
(-0.054098 0.134837 9.71761e-20)
(-0.0552769 0.150221 0)
(-0.0549644 0.164537 -1.96233e-19)
(-0.0532198 0.177764 0)
(-0.0501002 0.189881 -2.95172e-19)
(-0.0456571 0.200868 2.94706e-19)
(-0.0399368 0.210699 -1.96327e-19)
(-0.0329837 0.219344 -1.94987e-19)
(-0.0248413 0.226773 0)
(-0.0155557 0.232957 0)
(-0.00517623 0.23787 1.91223e-19)
(0.00624169 0.241493 -2.56421e-22)
(0.0186357 0.243817 1.87226e-19)
(0.0319367 0.244844 -1.86083e-19)
(0.0460682 0.24459 3.68007e-19)
(0.0609461 0.24309 -1.81979e-19)
(0.0764779 0.240393 0)
(0.0925628 0.23657 5.32498e-19)
(0.109092 0.231721 -8.75958e-19)
(0.12593 0.225986 1.73859e-19)
(0.142884 0.219606 1.71402e-19)
(0.159971 0.213285 1.6834e-19)
(0.176851 0.208602 3.56124e-19)
(-0.00517108 0.00845958 -1.62242e-19)
(-0.0152129 0.0254823 3.53509e-19)
(-0.0251369 0.04386 1.81392e-19)
(-0.0338774 0.0624817 4.15273e-19)
(-0.0410246 0.0808113 5.16289e-19)
(-0.0464307 0.0985568 9.52543e-20)
(-0.0500736 0.115529 -4.80573e-19)
(-0.0519945 0.131606 0)
(-0.0522586 0.146715 -3.90021e-19)
(-0.0509418 0.160814 -1.95339e-19)
(-0.0481179 0.173871 0)
(-0.0438562 0.185862 -1.95762e-19)
(-0.0382197 0.196762 -2.16041e-22)
(-0.0312652 0.206544 -5.86248e-19)
(-0.0230469 0.215177 1.94982e-19)
(-0.0136178 0.222633 1.93525e-19)
(-0.00303326 0.228881 -3.84152e-19)
(0.00864798 0.233898 -3.81433e-19)
(0.0213608 0.237665 2.96168e-22)
(0.0350332 0.240174 -1.78091e-22)
(0.0495865 0.241429 0)
(0.0649344 0.241444 -1.82945e-19)
(0.0809832 0.240254 -1.80044e-19)
(0.0976313 0.237904 0)
(0.11477 0.234461 0)
(0.132283 0.230016 5.23253e-19)
(0.150032 0.224694 -5.15576e-19)
(0.167816 0.218702 0)
(0.185646 0.212719 5.01989e-19)
(0.20333 0.208454 -3.53233e-19)
(-0.00540901 0.00835508 8.75702e-22)
(-0.0156765 0.0249433 -3.535e-19)
(-0.0255854 0.0427417 -4.51635e-20)
(-0.0340974 0.0607416 -4.61266e-19)
(-0.0408227 0.0784732 -2.81555e-19)
(-0.0456402 0.0956806 9.50282e-20)
(-0.0485511 0.11219 1.92442e-19)
(-0.0496167 0.127883 4.83469e-19)
(-0.0489203 0.142684 3.90021e-19)
(-0.0465545 0.15654 3.9157e-19)
(-0.0426078 0.169414 0)
(-0.0371629 0.181274 9.41815e-22)
(-0.0302951 0.192091 0)
(-0.022073 0.201834 3.90672e-19)
(-0.0125618 0.210472 0)
(-0.00182514 0.217974 -1.92959e-19)
(0.0100714 0.224312 1.92938e-19)
(0.0230586 0.229462 0)
(0.0370612 0.233407 0)
(0.0519972 0.236139 -5.58644e-19)
(0.067778 0.237663 1.84698e-19)
(0.0843078 0.237993 0)
(0.101484 0.237163 3.60927e-19)
(0.119195 0.235215 3.56831e-19)
(0.137325 0.232213 -7.03147e-19)
(0.155752 0.228238 6.94181e-19)
(0.174335 0.223403 4.79194e-22)
(0.192868 0.217881 3.37349e-19)
(0.211347 0.212314 -3.3481e-19)
(0.229742 0.208551 0)
(-0.00564377 0.00822812 4.05489e-19)
(-0.0161126 0.0243209 -4.40104e-20)
(-0.0259741 0.0414679 -3.5997e-19)
(-0.034217 0.0587722 0)
(-0.0404765 0.0758348 -3.73294e-19)
(-0.0446607 0.0924381 0)
(-0.0467956 0.108427 -4.784e-19)
(-0.0469636 0.123687 -2.9025e-19)
(-0.0452668 0.138138 -3.8817e-19)
(-0.0418145 0.151722 0)
(-0.0367108 0.164393 9.77769e-20)
(-0.0300525 0.176111 9.87944e-20)
(-0.0219277 0.186842 -1.95162e-19)
(-0.0124175 0.19655 -3.88629e-19)
(-0.00159915 0.205203 -1.93201e-19)
(0.0104523 0.212768 -7.69395e-19)
(0.0236602 0.219217 3.83041e-19)
(0.0379448 0.224526 3.15617e-22)
(0.0532202 0.22868 3.67379e-22)
(0.0693942 0.23167 5.58354e-19)
(0.0863685 0.233501 0)
(0.104038 0.234191 0)
(0.12229 0.233769 -1.23053e-21)
(0.141006 0.232277 3.0403e-22)
(0.16006 0.229772 -3.49151e-19)
(0.179324 0.22633 -3.45009e-19)
(0.198655 0.22205 1.22908e-21)
(0.217843 0.217074 -3.37334e-19)
(0.236862 0.211993 -3.3193e-19)
(0.255849 0.208798 1.13113e-21)
(-0.00587844 0.00808576 0)
(-0.0165227 0.0236303 3.50656e-19)
(-0.0262999 0.0400603 3.15019e-19)
(-0.0342281 0.0566009 4.58129e-20)
(-0.0399736 0.0729276 7.45618e-19)
(-0.0434768 0.0888637 -9.45589e-20)
(-0.0447903 0.104274 7.64015e-19)
(-0.0440188 0.119051 3.84691e-19)
(-0.0412838 0.133112 5.8201e-19)
(-0.0367119 0.146391 2.915e-19)
(-0.0304227 0.158834 9.75339e-20)
(-0.0225273 0.170396 4.88099e-19)
(-0.0131274 0.181033 1.95573e-23)
(-0.00231707 0.190708 1.94563e-19)
(0.00981413 0.199383 3.86784e-19)
(0.0231793 0.207025 3.84426e-19)
(0.0376907 0.213603 0)
(0.0532575 0.219095 0)
(0.0697835 0.223486 0)
(0.0871665 0.226767 0)
(0.105298 0.228946 3.65479e-19)
(0.124064 0.230037 0)
(0.143341 0.230071 -2.52466e-22)
(0.163002 0.229087 7.05539e-19)
(0.18291 0.227138 3.48806e-19)
(0.20293 0.224291 3.44251e-19)
(0.222914 0.220632 6.78542e-19)
(0.242648 0.216273 0)
(0.26208 0.211744 -6.5994e-19)
(0.28151 0.209174 6.86731e-19)
(-0.00611599 0.00793436 3.2176e-19)
(-0.0169073 0.0228863 -3.50663e-19)
(-0.0265571 0.0385422 0)
(-0.0341178 0.0542593 -3.65183e-19)
(-0.0392942 0.0697906 -9.40368e-20)
(-0.0420625 0.0850026 -2.82279e-19)
(-0.0425045 0.0997822 -8.57562e-19)
(-0.0407483 0.114029 -1.14603e-21)
(-0.0369355 0.12766 -2.89607e-19)
(-0.0312101 0.140603 -6.79386e-19)
(-0.0237074 0.152795 -9.72043e-20)
(-0.0145528 0.164184 -3.88496e-19)
(-0.00386185 0.174721 -3.87801e-19)
(0.0082585 0.184362 0)
(0.0217062 0.193066 -3.84541e-19)
(0.0363827 0.200796 -5.733e-19)
(0.0521888 0.207524 1.90042e-19)
(0.0690232 0.213223 -3.7586e-19)
(0.0867791 0.21788 -3.72194e-19)
(0.105344 0.221488 0)
(0.1246 0.224053 -7.295e-19)
(0.144422 0.225591 0)
(0.164677 0.22613 -7.12034e-19)
(0.185223 0.225708 -3.50785e-19)
(0.205915 0.224373 -6.93462e-19)
(0.226603 0.222184 3.41711e-19)
(0.247131 0.219214 -1.01331e-18)
(0.26728 0.215545 3.32344e-19)
(0.286965 0.211635 1.63128e-21)
(0.30665 0.209731 -3.38862e-19)
(-0.00635902 0.00777941 -3.21767e-19)
(-0.0172649 0.0221029 4.36601e-20)
(-0.026736 0.036938 3.12286e-19)
(-0.0338669 0.0517823 3.65191e-19)
(-0.0384095 0.0664694 -3.71324e-19)
(-0.0403801 0.0809105 1.0324e-21)
(-0.0398922 0.0950161 3.8061e-19)
(-0.0370986 0.108694 -7.66675e-19)
(-0.0321618 0.121862 -9.54597e-20)
(-0.0252433 0.134441 8.71216e-19)
(-0.0164939 0.146364 -5.81491e-19)
(-0.00605362 0.157569 9.69847e-19)
(0.00594878 0.168001 9.68093e-19)
(0.0193933 0.177611 -1.92981e-19)
(0.0341657 0.186354 3.84537e-19)
(0.0501558 0.194191 5.72678e-19)
(0.0672533 0.201089 1.88468e-19)
(0.085346 0.207024 1.32707e-21)
(0.104317 0.21198 1.86675e-19)
(0.124043 0.215951 1.84006e-19)
(0.144394 0.218943 -1.79885e-19)
(0.165235 0.220972 1.79719e-19)
(0.186418 0.222066 -3.5354e-19)
(0.20779 0.222261 3.50529e-19)
(0.229187 0.221599 1.65002e-21)
(0.250442 0.220134 3.39651e-19)
(0.271385 0.217923 1.68097e-21)
(0.291789 0.21502 -3.31803e-19)
(0.311528 0.211798 4.96647e-22)
(0.331223 0.210598 0)
(-0.00660946 0.00762501 0)
(-0.0175919 0.0212926 0)
(-0.0268226 0.0352718 -4.01544e-19)
(-0.03345 0.0492073 4.54276e-20)
(-0.0372822 0.0630151 0)
(-0.0383801 0.0766523 3.75424e-19)
(-0.0368919 0.0900537 9.48448e-20)
(-0.0329966 0.103137 2.87333e-19)
(-0.0268781 0.11582 3.85193e-19)
(-0.0187161 0.12802 -3.86719e-19)
(-0.00867635 0.139663 3.87447e-19)
(0.00308677 0.150681 -3.87422e-19)
(0.0164311 0.161013 -3.86693e-19)
(0.0312239 0.170604 0)
(0.0473389 0.179403 0)
(0.0646542 0.187369 0)
(0.0830482 0.194466 -3.77892e-19)
(0.102397 0.200669 5.61209e-19)
(0.122573 0.20596 -1.85284e-19)
(0.143441 0.210333 0)
(0.16486 0.213794 5.43124e-19)
(0.186678 0.216359 -1.78951e-19)
(0.208734 0.218055 3.5353e-19)
(0.230856 0.218916 -6.94734e-19)
(0.252862 0.218983 6.88238e-19)
(0.274562 0.218304 -1.32212e-21)
(0.295765 0.216924 3.82636e-22)
(0.316227 0.21487 3.30067e-19)
(0.335775 0.212414 5.02809e-22)
(0.355164 0.211964 3.34618e-19)
(-0.00686765 0.00747335 3.99249e-20)
(-0.0178815 0.020466 -4.33777e-20)
(-0.0267981 0.0335672 8.88956e-20)
(-0.0328351 0.0465726 -5.43299e-19)
(-0.0358659 0.0594825 9.21042e-20)
(-0.0360015 0.0722997 0)
(-0.0334275 0.0849839 3.77433e-19)
(-0.0283511 0.0974627 -3.8067e-19)
(-0.0209781 0.109655 0)
(-0.0115065 0.121475 4.80836e-19)
(-0.000117585 0.132843 -9.64059e-20)
(0.0130201 0.143686 0)
(0.0277509 0.153935 -1.9242e-19)
(0.0439294 0.163529 3.83458e-19)
(0.0614167 0.172412 -1.90833e-19)
(0.0800787 0.180539 1.89271e-19)
(0.0997816 0.187871 -3.75832e-19)
(0.120389 0.194379 4.68246e-22)
(0.14176 0.200044 5.26841e-22)
(0.163746 0.204859 -1.81186e-19)
(0.18619 0.208827 -3.59572e-19)
(0.208928 0.211965 1.25073e-21)
(0.231779 0.214299 1.50451e-21)
(0.254554 0.215864 3.47212e-19)
(0.277047 0.216704 -3.41105e-19)
(0.299044 0.216864 3.38006e-19)
(0.32032 0.216388 -6.64938e-19)
(0.340603 0.215279 -4.82963e-22)
(0.359667 0.213712 -6.46447e-19)
(0.378319 0.214113 3.31991e-19)
(-0.00713187 0.00732458 0)
(-0.018123 0.0196307 -3.4541e-19)
(-0.0266384 0.0318452 0)
(-0.0319832 0.0439161 1.12766e-21)
(-0.0341059 0.0559281 9.19784e-20)
(-0.0331731 0.0679291 1.63855e-22)
(-0.0294106 0.0799031 -7.5358e-19)
(-0.0230559 0.0917875 2.85729e-19)
(-0.0143376 0.103503 0)
(-0.00347256 0.114961 -4.80551e-19)
(0.0093417 0.126078 9.61159e-20)
(0.0239221 0.136774 0)
(0.040099 0.146972 -1.91783e-19)
(0.0577131 0.156606 1.91168e-19)
(0.076612 0.165613 1.89509e-19)
(0.0966476 0.173942 3.77471e-19)
(0.117672 0.181551 -1.87408e-19)
(0.139534 0.188406 0)
(0.162076 0.194484 0)
(0.185136 0.199774 3.6372e-19)
(0.20854 0.204278 -3.57881e-19)
(0.232105 0.208011 3.54624e-19)
(0.255637 0.210999 3.50164e-19)
(0.27893 0.21328 3.4392e-19)
(0.30176 0.214906 -3.40425e-19)
(0.32389 0.215934 3.36041e-19)
(0.345056 0.216426 3.30044e-19)
(0.364918 0.216395 -3.2646e-19)
(0.383135 0.216003 1.0396e-21)
(0.400255 0.217619 6.57912e-19)
(-0.00740053 0.00717919 3.96808e-20)
(-0.0183036 0.0187936 3.02399e-19)
(-0.0263159 0.0301265 0)
(-0.0308508 0.0412755 3.60968e-19)
(-0.0319419 0.0524093 0)
(-0.0298167 0.0636191 0)
(-0.0247449 0.0749121 2.82335e-19)
(-0.016996 0.0862349 -1.51674e-22)
(-0.00682295 0.0975101 9.5259e-20)
(0.00553733 0.108647 9.57303e-20)
(0.0198699 0.119556 -2.87549e-19)
(0.0359758 0.130151 1.91611e-19)
(0.0536696 0.140347 0)
(0.0727764 0.15007 0)
(0.0931279 0.159252 -3.79434e-19)
(0.114559 0.167833 0)
(0.136905 0.175764 -1.86205e-19)
(0.159997 0.183005 1.84926e-19)
(0.18366 0.189528 1.82413e-19)
(0.207712 0.195316 -6.39478e-22)
(0.231963 0.200367 -1.78732e-19)
(0.256215 0.204693 0)
(0.280261 0.208318 -3.46767e-19)
(0.303886 0.211286 3.43349e-19)
(0.326869 0.213657 0)
(0.348974 0.215516 0)
(0.369944 0.216971 0)
(0.389419 0.218135 0)
(0.406897 0.21937 -3.19281e-19)
(0.421788 0.223005 6.51841e-19)
(0.0456766 0.281329 -0.00996418)
(0.0717069 0.246969 -0.0102497)
(0.103804 0.218578 -0.0103604)
(0.129985 0.200722 -0.0104228)
(0.153664 0.192744 -0.0104139)
(0.17079 0.19181 -0.0103821)
(0.182628 0.194801 -0.0103121)