/*--------------------------------*- C++ -*----------------------------------*\
  =========                 |
  \\      /  F ield         | OpenFOAM: The Open Source CFD Toolbox
   \\    /   O peration     | Website:  https://openfoam.org
    \\  /    A nd           | Version:  7
     \\/     M anipulation  |
\*---------------------------------------------------------------------------*/
FoamFile
{
    version     2.0;
    format      ascii;
    class       volVectorField;
    location    "1.3";
    object      U;
}
// * * * * * * * * * * * * * * * * * * * * * * * * * * * * * * * * * * * * * //

dimensions      [0 1 -1 0 0 0 0];

internalField   nonuniform List<vector> 
2000
(
(0.000494575 0.0258518 -4.83525e-21)
(0.00908921 0.0556889 0)
(0.0261533 0.0753299 0)
(0.0456168 0.0889138 -3.26929e-20)
(0.0655874 0.0988574 1.0975e-20)
(0.0845942 0.106631 1.72259e-22)
(0.10174 0.113205 -2.05449e-20)
(0.11659 0.119249 0)
(0.129025 0.125229 0)
(0.138959 0.131467 0)
(-0.00102777 0.0230171 0)
(0.00668934 0.0477148 -2.1447e-20)
(0.0241797 0.063649 2.15984e-20)
(0.0446373 0.074745 4.36908e-20)
(0.0658861 0.0833731 0)
(0.0862677 0.0908492 4.23714e-20)
(0.104766 0.0979417 -4.09244e-20)
(0.120873 0.105122 0)
(0.134432 0.112705 7.70001e-20)
(0.1453 0.120924 -1.58217e-19)
(-0.00199765 0.0198815 0)
(0.0059116 0.0390964 1.68897e-19)
(0.024727 0.0511711 0)
(0.0468237 0.0597011 1.73146e-19)
(0.0697403 0.066978 0)
(0.0916603 0.0741434 -1.6774e-19)
(0.111497 0.0817532 0)
(0.128728 0.0900751 1.58753e-19)
(0.143218 0.0992777 -1.52585e-19)
(0.154783 0.109518 -1.56792e-19)
(-0.00232947 0.0164583 -3.82617e-20)
(0.00694986 0.0299726 -8.49099e-20)
(0.0280445 0.0381848 -4.27001e-20)
(0.0524516 0.0442044 -8.63104e-20)
(0.0774323 0.0501981 -8.49264e-20)
(0.101048 0.0571055 8.37762e-20)
(0.122195 0.0652546 8.10882e-20)
(0.1404 0.0747032 -7.7817e-22)
(0.155609 0.085482 1.51792e-19)
(0.167617 0.0976899 1.56639e-19)
(-0.00193275 0.0127803 -3.74762e-20)
(0.00997981 0.0205231 -8.42309e-20)
(0.0343366 0.0250286 -1.71717e-19)
(0.0617275 0.0287322 8.52144e-20)
(0.0891569 0.0336171 0)
(0.114609 0.0403889 0)
(0.137022 0.0491295 -1.623e-19)
(0.156035 0.059678 -1.57089e-19)
(0.171748 0.0719377 1.50776e-19)
(0.183955 0.0859653 4.64678e-19)
(-0.000706879 0.00889285 3.76143e-20)
(0.015168 0.0109547 4.27303e-20)
(0.0437616 0.012073 -2.52108e-19)
(0.0747732 0.0137932 4.25608e-19)
(0.104991 0.0178479 -8.3892e-20)
(0.13238 0.0246744 0)
(0.155985 0.0340907 0)
(0.175625 0.0457077 7.78708e-19)
(0.191625 0.0593089 -7.51642e-19)
(0.203812 0.0749188 1.53936e-19)
(0.00145173 0.0048579 2.91974e-19)
(0.0226498 0.00150759 0)
(0.0564002 -0.000281418 3.38341e-19)
(0.091589 -8.7136e-05 -3.39837e-19)
(0.124853 0.00350302 0)
(0.15421 0.0106275 1.6482e-19)
(0.178884 0.0208275 -4.77506e-19)
(0.19894 0.033475 -6.20336e-19)
(0.215004 0.0482338 2.97903e-19)
(0.226988 0.0651056 3.06704e-19)
(0.00464357 0.000760077 -5.806e-19)
(0.0325145 -0.00754359 -8.22267e-20)
(0.0722357 -0.011616 -1.6578e-19)
(0.11203 -0.0123917 -4.17811e-19)
(0.148475 -0.00884336 -1.6711e-19)
(0.179731 -0.00115025 -1.62408e-19)
(0.205275 0.00995316 2.55335e-21)
(0.225477 0.023593 0)
(0.241342 0.0393014 0)
(0.252979 0.0570497 -3.36954e-22)
(0.00895603 -0.00328717 2.88631e-19)
(0.0447865 -0.0158918 -3.21519e-19)
(0.091132 -0.021508 2.4932e-19)
(0.135785 -0.0226398 5.84675e-19)
(0.175392 -0.0186976 -1.63892e-19)
(0.208362 -0.0101761 1.6503e-19)
(0.234494 0.00194934 1.59119e-19)
(0.254491 0.0165962 0)
(0.269757 0.0331815 0)
(0.280805 0.0515225 -2.16956e-21)
(0.0144524 -0.00714198 -3.54537e-20)
(0.0594061 -0.023206 4.0235e-19)
(0.112816 -0.0295498 -8.13189e-20)
(0.162368 -0.0304171 0)
(0.204943 -0.0256935 0)
(0.239343 -0.0161627 3.21798e-19)
(0.265799 -0.00295953 0)
(0.28539 0.0127634 -3.02157e-19)
(0.299789 0.0303996 -1.22078e-21)
(0.309798 0.0493183 2.9826e-19)
(0.154648 0.146433 6.96118e-21)
(0.1591 0.166491 -7.08155e-21)
(0.156678 0.186688 -7.21937e-21)
(0.146254 0.205391 -7.34046e-21)
(0.126537 0.222077 -7.49171e-21)
(0.115717 0.236813 -3.20286e-23)
(0.0768667 0.247873 3.74542e-21)
(0.0802435 0.26004 1.158e-20)
(0.0181719 0.267976 0)
(0.0334927 0.28904 -7.85299e-21)
(0.162286 0.141008 2.73547e-20)
(0.166019 0.165075 -2.85709e-20)
(0.163342 0.188596 5.02811e-20)
(0.152416 0.209476 7.3437e-21)
(0.131984 0.227472 1.47485e-20)
(0.120307 0.243413 2.25765e-20)
(0.0806618 0.254885 -7.56548e-21)
(0.0828409 0.267773 -7.72246e-21)
(0.0196815 0.27634 1.53374e-20)
(0.0337354 0.296542 7.83436e-21)
(0.172243 0.134926 0)
(0.174256 0.163162 -2.82585e-20)
(0.170926 0.190145 -1.43917e-20)
(0.159269 0.213349 0)
(0.137966 0.232774 -4.436e-20)
(0.125356 0.250048 1.47037e-20)
(0.0847571 0.262003 1.47664e-20)
(0.0858564 0.275735 4.56218e-20)
(0.0212846 0.284949 -1.52774e-20)
(0.0344261 0.304284 3.08811e-20)
(0.184645 0.128356 0)
(0.183902 0.16079 2.83834e-20)
(0.179455 0.191309 0)
(0.166831 0.216974 5.81386e-20)
(0.144504 0.237936 -5.82259e-20)
(0.130876 0.256696 -2.96596e-20)
(0.089172 0.269172 -5.79048e-23)
(0.0893106 0.283917 -4.54107e-20)
(0.0229908 0.293757 -7.54782e-21)
(0.0355761 0.312329 -3.82841e-20)
(0.199627 0.121494 1.11807e-21)
(0.19508 0.158023 -8.31861e-20)
(0.188951 0.19207 6.09522e-22)
(0.175094 0.220315 -5.72794e-20)
(0.151592 0.24291 0)
(0.136853 0.263332 -2.94047e-20)
(0.0939028 0.276333 -2.34567e-22)
(0.0931923 0.292308 5.96212e-20)
(0.0247906 0.302715 7.46948e-21)
(0.0371854 0.320739 -7.50881e-21)
(0.217265 0.114568 -2.19907e-19)
(0.207925 0.155001 1.4002e-19)
(0.199426 0.192467 5.71604e-20)
(0.18402 0.223371 -5.69593e-20)
(0.159193 0.247664 -2.86732e-20)
(0.143231 0.269947 0)
(0.0989169 0.28343 -5.82577e-20)
(0.0974568 0.300908 2.92242e-20)
(0.026644 0.311771 2.93902e-20)
(0.0392495 0.329572 2.958e-20)
(0.237457 0.107831 -2.71789e-20)
(0.22252 0.151928 0)
(0.210868 0.192579 0)
(0.193541 0.226163 0)
(0.167237 0.252177 -2.88867e-20)
(0.149911 0.276534 5.72025e-20)
(0.10415 0.290411 5.76969e-20)
(0.102018 0.309721 -8.69154e-20)
(0.0284803 0.320863 1.44776e-20)
(0.0417498 0.338875 -4.36928e-20)
(0.259741 0.101305 1.65441e-19)
(0.238782 0.148707 1.13763e-19)
(0.22321 0.192222 -1.12463e-19)
(0.203546 0.228509 1.13825e-19)
(0.175625 0.256269 -1.40862e-19)
(0.15674 0.282993 0)
(0.109509 0.297134 -2.81847e-20)
(0.106749 0.318716 1.87069e-22)
(0.0301993 0.329891 -2.8237e-20)
(0.0446491 0.348662 -2.84381e-20)
(0.282989 0.0944662 -1.39301e-19)
(0.256314 0.144517 0)
(0.236316 0.190706 -1.27593e-19)
(0.213911 0.229854 2.24967e-19)
(0.18426 0.259479 -8.3416e-20)
(0.163525 0.289028 -1.40037e-20)
(0.11489 0.303331 2.79413e-20)
(0.111495 0.327766 1.25032e-22)
(0.0316854 0.33872 4.1696e-20)
(0.0478925 0.358893 4.18619e-20)
(0.305157 0.0887272 -1.22178e-19)
(0.274407 0.140859 1.21195e-19)
(0.250018 0.189573 1.52173e-20)
(0.224509 0.231379 0)
(0.193062 0.262832 0)
(0.170011 0.295126 1.48863e-20)
(0.120166 0.309568 5.9067e-20)
(0.116053 0.336973 -5.80931e-20)
(0.0328176 0.347505 -1.44873e-20)
(0.0514137 0.369607 1.43418e-20)
(0.344687 0.0963417 0)
(0.311622 0.151936 0)
(0.279828 0.204097 0)
(0.247505 0.248685 0)
(0.212526 0.282467 0)
(0.182935 0.316785 0)
(0.131464 0.331114 0)
(0.125201 0.362393 0)
(0.0340734 0.370517 0)
(0.0601957 0.397139 0)
(0.386442 0.14374 0)
(0.35338 0.19127 0)
(0.321917 0.238651 0)
(0.287772 0.282156 0)
(0.249974 0.319238 0)
(0.212721 0.3535 0)
(0.157943 0.375004 0)
(0.144792 0.403953 0)
(0.042927 0.414988 0)
(0.0684714 0.446163 0)
(0.42941 0.180299 0)
(0.396795 0.227076 0)
(0.365176 0.274578 0)
(0.329049 0.319208 0)
(0.288206 0.359015 0)
(0.245483 0.394764 0)
(0.186755 0.421977 0)
(0.166238 0.450568 0)
(0.0546097 0.465625 0)
(0.0742526 0.500885 0)
(0.477052 0.213902 0)
(0.444748 0.263007 0)
(0.411973 0.313115 0)
(0.372944 0.361131 0)
(0.328225 0.405048 0)
(0.280276 0.444427 0)
(0.216688 0.476781 0)
(0.188036 0.507535 0)
(0.0669901 0.52686 0)
(0.0793339 0.568101 0)
(0.529335 0.246132 0)
(0.496685 0.29849 0)
(0.462746 0.352225 0)
(0.421225 0.404974 0)
(0.372679 0.454566 0)
(0.319568 0.499661 0)
(0.250293 0.538223 0)
(0.213029 0.572795 0)
(0.0832982 0.594634 0)
(0.0862664 0.635366 0)
(0.584935 0.275703 0)
(0.552531 0.33335 0)
(0.51815 0.392295 0)
(0.475062 0.451149 0)
(0.423256 0.507814 0)
(0.365287 0.560447 0)
(0.289299 0.606996 0)
(0.241354 0.649313 0)
(0.0988659 0.682238 0)
(0.0913408 0.74686 0)
(0.648953 0.310655 0)
(0.615696 0.370976 0)
(0.580603 0.434745 0)
(0.536484 0.500384 0)
(0.481927 0.565536 0)
(0.419172 0.627605 0)
(0.335676 0.684163 0)
(0.276289 0.732102 0)
(0.123392 0.757971 0)
(0.0998814 0.783491 0)
(0.706165 0.326185 0)
(0.678218 0.398249 0)
(0.647153 0.472102 0)
(0.605681 0.548276 0)
(0.551725 0.625194 0)
(0.48893 0.70076 0)
(0.40266 0.772108 0)
(0.340327 0.84274 0)
(0.179928 0.909051 0)
(0.128355 1.02926 0)
(0.791215 0.383674 0)
(0.764541 0.445473 0)
(0.730652 0.518806 0)
(0.686035 0.600568 0)
(0.625622 0.687179 0)
(0.55024 0.773001 0)
(0.441314 0.855404 0)
(0.342429 0.91782 0)
(0.141421 0.954389 0)
(0.0973428 0.98568 0)
(0.773862 0.312112 0)
(0.809615 0.426364 0)
(0.816657 0.53741 0)
(0.800917 0.649198 0)
(0.76336 0.764835 0)
(0.712163 0.887553 0)
(0.619765 1.01309 0)
(0.53379 1.14738 0)
(0.322109 1.25781 0)
(0.172705 1.37887 0)
(0.38262 0.0752256 1.10452e-19)
(0.422908 0.118005 -1.09839e-19)
(0.464159 0.153016 1.21552e-20)
(0.510401 0.184179 0)
(0.561303 0.21394 0)
(0.615451 0.239645 7.91235e-21)
(0.676538 0.274414 -2.16899e-20)
(0.731971 0.281477 2.12908e-20)
(0.797158 0.350048 1.40038e-21)
(0.731094 0.238064 -1.39357e-21)
(0.401462 0.0703107 -1.3314e-19)
(0.438381 0.111561 0)
(0.477916 0.144786 7.63711e-20)
(0.523212 0.174283 -1.64708e-19)
(0.573155 0.202527 9.49423e-20)
(0.626868 0.226694 -7.69776e-21)
(0.686051 0.260343 1.19842e-20)
(0.74192 0.265158 1.47486e-20)
(0.794795 0.335029 -3.19007e-22)
(0.708625 0.206069 -1.91024e-21)
(0.417853 0.068516 1.55072e-19)
(0.452662 0.107272 -9.40618e-20)
(0.490962 0.13796 9.29557e-20)
(0.535505 0.165251 -7.63523e-20)
(0.58466 0.191553 5.76176e-20)
(0.637991 0.214078 0)
(0.695462 0.246058 -1.2088e-20)
(0.751422 0.249201 -4.13683e-22)
(0.790972 0.318693 -5.25247e-21)
(0.682699 0.173742 7.11737e-22)
(0.432979 0.0678928 -2.51267e-20)
(0.466159 0.103103 0)
(0.503413 0.130916 0)
(0.547225 0.155779 0)
(0.595679 0.180019 4.93085e-20)
(0.648577 0.200973 -3.18715e-20)
(0.70456 0.231077 1.83792e-21)
(0.760051 0.23308 -5.53213e-21)
(0.785349 0.300687 -8.5387e-22)
(0.652823 0.141334 2.63751e-21)
(0.446619 0.0675165 -4.05327e-21)
(0.478329 0.0983525 -7.26808e-20)
(0.514712 0.123117 -4.10843e-20)
(0.557889 0.145481 4.09335e-20)
(0.6058 0.167673 -1.72642e-20)
(0.658313 0.187181 0)
(0.713076 0.215295 -1.14979e-20)
(0.767566 0.216593 1.33486e-20)
(0.777854 0.280774 -5.93295e-21)
(0.619167 0.10919 -1.80737e-21)
(0.458474 0.0668749 -1.89923e-19)
(0.488896 0.0927702 2.7137e-20)
(0.524681 0.114395 3.63015e-21)
(0.567366 0.134271 4.03251e-20)
(0.614926 0.154478 0)
(0.667128 0.172655 0)
(0.720919 0.198689 0)
(0.773809 0.199588 6.74745e-21)
(0.768781 0.258711 0)
(0.582926 0.0779007 0)
(0.468316 0.0656235 0)
(0.497674 0.0862636 6.58084e-20)
(0.533218 0.104711 -4.34257e-20)
(0.575579 0.122157 -3.54298e-20)
(0.62299 0.140461 3.54801e-20)
(0.674965 0.157395 1.22483e-20)
(0.727971 0.181274 -1.42007e-20)
(0.778556 0.181899 -2.46486e-20)
(0.75865 0.234012 2.62728e-21)
(0.546237 0.0485848 4.19747e-21)
(0.475952 0.0635053 0)
(0.504504 0.0788028 -2.23326e-20)
(0.540232 0.0940677 -1.03136e-20)
(0.582455 0.109185 0)
(0.629925 0.125672 6.79129e-21)
(0.681762 0.14143 -2.16916e-20)
(0.734077 0.163118 1.48687e-20)
(0.781537 0.163346 2.29041e-21)
(0.747713 0.205833 -1.77378e-21)
(0.507566 0.0230205 -4.18506e-21)
(0.481229 0.0603102 2.35847e-20)
(0.509271 0.0703891 2.12825e-20)
(0.545654 0.0824942 -5.94992e-21)
(0.587943 0.0954264 4.62486e-21)
(0.635674 0.110187 8.13225e-21)
(0.687473 0.12483 1.00537e-20)
(0.739107 0.144364 -2.54518e-21)
(0.782612 0.143876 -1.52292e-21)
(0.735564 0.173986 1.78071e-21)
(0.451784 0.00247102 -1.03993e-21)
(0.484042 0.0558488 -5.61422e-21)
(0.511922 0.0610498 5.69828e-21)
(0.549439 0.0700468 -5.12189e-21)
(0.592012 0.0809791 -4.62185e-21)
(0.640204 0.0941089 3.65233e-21)
(0.692079 0.107706 -6.99316e-21)
(0.743001 0.125196 3.55175e-21)
(0.781936 0.123738 5.16486e-22)
(0.722477 0.141347 0)
(0.42242 -0.0152508 1.04212e-21)
(0.484352 0.0499452 5.63682e-21)
(0.512483 0.0508463 -5.7149e-21)
(0.551568 0.056818 -5.12921e-21)
(0.594667 0.0659693 -4.6095e-21)
(0.643508 0.0775655 -3.63069e-21)
(0.695587 0.0901914 3.7528e-22)
(0.74577 0.105792 1.48144e-21)
(0.779846 0.103269 2.44462e-21)
(0.708086 0.110638 0)
(0.391385 -0.0333339 7.61948e-22)
(0.482186 0.0424576 0)
(0.511053 0.0398844 -2.13649e-20)
(0.552044 0.0429449 3.69051e-20)
(0.595929 0.050549 4.60946e-21)
(0.645591 0.0607071 8.00223e-21)
(0.698018 0.0724284 9.79376e-21)
(0.747454 0.0862932 -2.4634e-21)
(0.776715 0.0827292 -1.45239e-21)
(0.692619 0.0815961 1.36169e-21)
(0.362897 -0.052371 -7.60002e-22)
(0.47767 0.0333317 0)
(0.507771 0.0283209 -2.26177e-20)
(0.550879 0.0286061 -1.03331e-20)
(0.595823 0.034883 0)
(0.646458 0.043688 -2.24958e-20)
(0.69939 0.054552 8.0324e-21)
(0.748125 0.0667887 5.85488e-21)
(0.772853 0.0623453 9.47694e-21)
(0.676892 0.0536812 -1.35633e-21)
(0.337884 -0.0721998 -2.37398e-21)
(0.470973 0.022681 0)
(0.502815 0.0163594 2.27059e-20)
(0.548089 0.0140031 0)
(0.594375 0.0191308 3.48067e-20)
(0.646117 0.0266453 -3.48651e-20)
(0.699721 0.0366658 -1.13314e-20)
(0.747967 0.0473223 1.70141e-21)
(0.768348 0.0421411 -9.16488e-21)
(0.661968 0.0265584 -1.98549e-21)
(0.314935 -0.0927462 2.32589e-21)
(0.462294 0.0108341 1.97998e-19)
(0.496438 0.00420322 -7.53606e-20)
(0.543764 -0.000657399 -4.27618e-21)
(0.59168 0.00342366 -4.02566e-20)
(0.644653 0.00968675 0)
(0.699115 0.0188099 -1.13508e-20)
(0.747175 0.0279442 3.79061e-21)
(0.763294 0.021988 1.3107e-20)
(0.648085 5.30795e-05 4.04736e-23)
(0.293375 -0.113908 -4.02732e-23)
(0.451975 -0.00169164 5.98236e-21)
(0.489017 -0.0079955 1.22301e-19)
(0.538169 -0.0151969 4.10093e-20)
(0.587968 -0.0121484 -4.0873e-20)
(0.642274 -0.00712205 -1.65633e-20)
(0.69778 0.00101546 0)
(0.745877 0.00870926 -1.71818e-20)
(0.758003 0.00183052 9.234e-21)
(0.63496 -0.0259409 3.81588e-21)
(0.273545 -0.135408 -1.68345e-21)
(0.440451 -0.0143064 -2.65828e-20)
(0.480837 -0.0201542 0)
(0.531473 -0.0294649 0)
(0.583293 -0.0275148 0)
(0.638958 -0.0237259 -1.35272e-20)
(0.695638 -0.0166735 2.99087e-20)
(0.743978 -0.0103517 1.71317e-20)
(0.752576 -0.018299 -1.85411e-20)
(0.622314 -0.0515074 1.00939e-22)
(0.255564 -0.157029 1.56136e-21)
(0.427458 -0.0263987 -5.70058e-20)
(0.471093 -0.0321734 9.62849e-20)
(0.522799 -0.043293 -9.51938e-20)
(0.576642 -0.0425695 7.44491e-20)
(0.633657 -0.0400339 -9.10133e-20)
(0.691659 -0.0341815 0)
(0.740603 -0.0292089 -9.89896e-21)
(0.746429 -0.038388 -1.47641e-22)
(0.609866 -0.0767712 -1.88319e-21)
(0.239408 -0.178635 1.37733e-21)
(0.411468 -0.03711 -2.80066e-20)
(0.457926 -0.0438368 0)
(0.51059 -0.0564922 -1.00843e-19)
(0.566527 -0.0571728 1.64437e-19)
(0.625096 -0.0559442 -5.85011e-20)
(0.684791 -0.0514569 -7.02005e-21)
(0.734976 -0.0479154 9.81094e-21)
(0.739041 -0.0585884 1.8067e-21)
(0.597454 -0.102011 5.45344e-21)
(0.22483 -0.200221 -1.22346e-21)
(0.395171 -0.0453723 -1.31032e-19)
(0.444659 -0.0549553 1.2949e-19)
(0.498754 -0.0690005 1.40577e-20)
(0.556973 -0.0712854 0)
(0.617485 -0.0714649 0)
(0.679132 -0.0685397 8.37822e-21)
(0.730664 -0.0665799 1.89524e-20)
(0.732861 -0.079088 -1.86631e-20)
(0.58617 -0.127441 -1.71868e-22)
(0.211174 -0.22188 1.61421e-22)
(0.378352 -0.0597422 0)
(0.432747 -0.0796637 0)
(0.490024 -0.0974935 0)
(0.552593 -0.104458 0)
(0.617163 -0.108523 0)
(0.682131 -0.109651 0)
(0.734281 -0.111356 0)
(0.728198 -0.128459 0)
(0.563747 -0.187781 0)
(0.179627 -0.273364 0)
(0.367617 -0.125386 0)
(0.42918 -0.141719 0)
(0.489557 -0.161632 0)
(0.55437 -0.171173 0)
(0.621841 -0.177964 0)
(0.685928 -0.181636 0)
(0.725551 -0.188093 0)
(0.685228 -0.218061 0)
(0.479907 -0.294312 0)
(0.112193 -0.374106 0)
(0.349575 -0.182664 0)
(0.410345 -0.202011 0)
(0.472686 -0.225293 0)
(0.541126 -0.23957 0)
(0.612554 -0.250773 0)
(0.677118 -0.259011 0)
(0.705259 -0.2735 0)
(0.63514 -0.318877 0)
(0.401314 -0.405794 0)
(0.0615919 -0.475547 0)
(0.329456 -0.240319 0)
(0.389719 -0.264541 0)
(0.454497 -0.292561 0)
(0.526652 -0.313183 0)
(0.601746 -0.330366 0)
(0.664285 -0.344884 0)
(0.67473 -0.370349 0)
(0.569696 -0.433187 0)
(0.315245 -0.527358 0)
(0.0209776 -0.585042 0)
(0.302772 -0.295481 0)
(0.360348 -0.327178 0)
(0.42645 -0.36264 0)
(0.502075 -0.392339 0)
(0.58085 -0.418673 0)
(0.640104 -0.443618 0)
(0.630016 -0.48519 0)
(0.492042 -0.566438 0)
(0.23016 -0.661395 0)
(-0.00829291 -0.704614 0)
(0.266257 -0.348199 0)
(0.320578 -0.388607 0)
(0.388041 -0.434829 0)
(0.467828 -0.477955 0)
(0.550955 -0.519052 0)
(0.605605 -0.561349 0)
(0.572269 -0.624976 0)
(0.405574 -0.722555 0)
(0.151042 -0.808934 0)
(-0.0255002 -0.835022 0)
(0.222554 -0.391889 0)
(0.275193 -0.447512 0)
(0.342576 -0.508673 0)
(0.423978 -0.570863 0)
(0.50749 -0.634261 0)
(0.551826 -0.702164 0)
(0.493307 -0.793045 0)
(0.309792 -0.902287 0)
(0.0825272 -0.970208 0)
(-0.0307005 -0.978112 0)
(0.184412 -0.441156 0)
(0.222673 -0.500328 0)
(0.277407 -0.576557 0)
(0.347893 -0.661188 0)
(0.420926 -0.753144 0)
(0.451077 -0.85659 0)
(0.379637 -0.985873 0)
(0.208043 -1.10987 0)
(0.0319905 -1.15688 0)
(-0.0254324 -1.14968 0)
(0.0746486 -0.44275 0)
(0.0999291 -0.516291 0)
(0.142957 -0.607278 0)
(0.204556 -0.717485 0)
(0.272793 -0.850115 0)
(0.303398 -1.01337 0)
(0.246714 -1.20559 0)
(0.11772 -1.35173 0)
(0.0046953 -1.37732 0)
(-0.015036 -1.36073 0)
(0.0786566 -0.426727 0)
(0.0906374 -0.502601 0)
(0.111287 -0.603639 0)
(0.140251 -0.740545 0)
(0.167568 -0.925205 0)
(0.164013 -1.16199 0)
(0.108961 -1.40911 0)
(0.0333051 -1.54902 0)
(-0.00780758 -1.54228 0)
(-0.00339561 -1.52493 0)
(0.345326 -0.063757 1.38465e-19)
(0.326979 -0.125289 -1.37073e-19)
(0.312924 -0.181068 1.72296e-20)
(0.292484 -0.234913 0)
(0.266632 -0.284247 0)
(0.233503 -0.331355 1.7324e-20)
(0.189248 -0.365172 -6.99021e-20)
(0.15838 -0.409552 6.92195e-20)
(0.0603395 -0.404631 1.75493e-20)
(0.0687961 -0.385161 -1.73601e-20)
(0.328584 -0.0716579 -1.55197e-19)
(0.309816 -0.129687 0)
(0.297945 -0.183238 1.07569e-19)
(0.277744 -0.234212 -2.43197e-19)
(0.252521 -0.280388 1.51106e-19)
(0.220931 -0.32458 -1.51563e-20)
(0.176547 -0.355645 3.08023e-20)
(0.148412 -0.395849 6.12941e-20)
(0.0551325 -0.390406 1.59182e-20)
(0.0641185 -0.368579 1.53277e-20)
(0.310688 -0.0811004 1.85442e-19)
(0.293661 -0.13569 -1.23217e-19)
(0.283855 -0.186759 1.21781e-19)
(0.263958 -0.234349 -1.22853e-19)
(0.239409 -0.277206 9.1124e-20)
(0.209197 -0.318052 0)
(0.164981 -0.347071 -3.10759e-20)
(0.139218 -0.38215 5.25326e-23)
(0.0503576 -0.377379 -3.14974e-20)
(0.0591209 -0.353017 -3.12841e-20)
(0.292437 -0.0893109 -3.06954e-20)
(0.278362 -0.140269 0)
(0.270408 -0.189075 0)
(0.250961 -0.233467 0)
(0.227152 -0.273363 9.28137e-20)
(0.198222 -0.311089 -6.15999e-20)
(0.154446 -0.338204 7.0713e-23)
(0.13073 -0.368815 -3.11363e-20)
(0.0458784 -0.364718 -1.58703e-20)
(0.0539754 -0.338542 -1.57721e-20)
(0.274525 -0.0967815 -7.76712e-23)
(0.263869 -0.143699 -9.16832e-20)
(0.257445 -0.190058 -6.14295e-20)
(0.238598 -0.231367 6.1214e-20)
(0.215574 -0.268583 -3.09167e-20)
(0.187901 -0.303503 0)
(0.144754 -0.328803 -3.16502e-20)
(0.122845 -0.355781 6.33414e-20)
(0.0416359 -0.35219 -3.18183e-20)
(0.0488658 -0.325213 3.2091e-20)
(0.257371 -0.103801 -2.44826e-19)
(0.250165 -0.146538 3.06314e-20)
(0.244929 -0.190144 -3.36489e-22)
(0.226809 -0.228429 6.14258e-20)
(0.204582 -0.263126 0)
(0.178169 -0.295476 0)
(0.135772 -0.319086 0)
(0.115508 -0.343023 3.17596e-20)
(0.0376417 -0.339852 0)
(0.0440067 -0.313052 0)
(0.241249 -0.110244 0)
(0.237238 -0.148865 9.17146e-20)
(0.232894 -0.189487 -6.12246e-20)
(0.215597 -0.22487 -6.20698e-20)
(0.194156 -0.257195 6.21679e-20)
(0.169009 -0.287179 3.1731e-20)
(0.127441 -0.309232 -3.18707e-20)
(0.108727 -0.33058 -1.12068e-19)
(0.0339508 -0.327779 8.03513e-21)
(0.0395903 -0.302027 -2.44115e-20)
(0.226378 -0.115981 0)
(0.225115 -0.150635 -3.04422e-20)
(0.221418 -0.188108 -1.53787e-20)
(0.205 -0.220775 0)
(0.184321 -0.250883 1.57256e-20)
(0.160445 -0.278702 -4.72909e-20)
(0.119744 -0.299328 4.81956e-20)
(0.10254 -0.318492 1.60114e-20)
(0.0306161 -0.316016 -1.63567e-20)
(0.0357429 -0.292054 3.28206e-20)
(0.21294 -0.120954 3.05495e-20)
(0.213857 -0.151851 3.05757e-20)
(0.210611 -0.186068 -7.65188e-21)
(0.195077 -0.216226 7.75475e-21)
(0.175122 -0.244268 1.5682e-20)
(0.152513 -0.270119 2.37229e-20)
(0.112683 -0.289449 -8.05353e-21)
(0.0969832 -0.306788 -8.03888e-21)
(0.0276564 -0.304603 1.64212e-20)
(0.0325156 -0.283019 8.21342e-21)
(0.20109 -0.125129 -7.59878e-21)
(0.203539 -0.152548 7.65434e-21)
(0.200583 -0.183465 -7.69073e-21)
(0.185888 -0.211321 -7.75317e-21)
(0.166605 -0.237446 7.86767e-21)
(0.145245 -0.261509 -1.58192e-20)
(0.106256 -0.279677 1.20812e-20)
(0.0920733 -0.295495 4.01563e-21)
(0.0250506 -0.293576 0)
(0.0299021 -0.2748 -8.23256e-21)
(0.190953 -0.12847 7.61006e-21)
(0.194234 -0.15275 -7.66974e-21)
(0.191433 -0.180399 -7.71682e-21)
(0.17748 -0.206153 -7.77108e-21)
(0.158805 -0.230508 -7.86908e-21)
(0.138658 -0.252942 -5.22235e-24)
(0.100452 -0.270094 4.03493e-21)
(0.0878043 -0.284629 1.20631e-20)
(0.02275 -0.282966 0)
(0.0278652 -0.267276 -8.19909e-21)
(0.18262 -0.130948 0)
(0.185997 -0.152468 -3.07523e-20)
(0.183225 -0.176956 5.40673e-20)
(0.169879 -0.200793 7.77447e-21)
(0.151737 -0.223533 1.57206e-20)
(0.132748 -0.244476 2.37054e-20)
(0.095246 -0.26077 -8.03984e-21)
(0.0841512 -0.274189 -8.01892e-21)
(0.0206955 -0.272793 1.62795e-20)
(0.0263604 -0.260339 8.17967e-21)
(0.176138 -0.132544 0)
(0.178856 -0.151706 -3.08437e-20)
(0.175986 -0.173216 -1.54914e-20)
(0.163083 -0.195298 0)
(0.14539 -0.216588 -4.71534e-20)
(0.127485 -0.236153 1.57559e-20)
(0.0905936 -0.251762 1.60417e-20)
(0.0810734 -0.264165 4.78715e-20)
(0.018829 -0.263071 -1.62159e-20)
(0.0253515 -0.253886 3.24198e-20)
(0.171508 -0.133264 0)
(0.172807 -0.150466 3.09801e-20)
(0.169688 -0.16925 0)
(0.157051 -0.189717 6.25209e-20)
(0.139715 -0.20973 -6.26155e-20)
(0.122806 -0.228005 -3.16266e-20)
(0.0864309 -0.24312 -2.0632e-22)
(0.0785137 -0.254541 -4.74384e-20)
(0.0170988 -0.25381 -7.96172e-21)
(0.0248185 -0.247829 -4.02573e-20)
(0.168691 -0.133115 2.4921e-19)
(0.167805 -0.148729 -9.36837e-20)
(0.16425 -0.165112 8.32137e-23)
(0.151696 -0.184088 -6.23869e-20)
(0.134623 -0.203007 0)
(0.118612 -0.220053 -3.1494e-20)
(0.0826668 -0.234889 -5.13218e-23)
(0.0763945 -0.245297 6.30124e-20)
(0.0154591 -0.245025 7.92676e-21)
(0.0247593 -0.242083 -7.96881e-21)
(0.167629 -0.132083 3.18677e-22)
(0.163772 -0.14643 1.57264e-19)
(0.159539 -0.160823 6.26984e-20)
(0.146892 -0.178427 -6.24766e-20)
(0.129986 -0.196445 -3.12777e-20)
(0.114762 -0.212303 0)
(0.0791826 -0.227098 -6.26979e-20)
(0.0746139 -0.236416 3.10493e-20)
(0.0138678 -0.236737 3.12482e-20)
(0.0251863 -0.236567 3.13101e-20)
(0.168229 -0.130153 -3.18496e-20)
(0.160596 -0.143503 0)
(0.155378 -0.156402 0)
(0.142473 -0.172762 0)
(0.125649 -0.190081 -3.11631e-20)
(0.11108 -0.204768 6.2053e-20)
(0.0758412 -0.219787 6.22168e-20)
(0.0730483 -0.22789 -9.2454e-20)
(0.0122866 -0.228987 1.54472e-20)
(0.0261193 -0.231208 -4.63729e-20)
(0.170267 -0.127491 -6.44025e-20)
(0.158108 -0.140047 1.28182e-19)
(0.151573 -0.15199 -1.26696e-19)
(0.138266 -0.167217 1.25626e-19)
(0.121458 -0.184034 -1.55506e-19)
(0.107384 -0.197502 0)
(0.0725129 -0.213053 -3.08181e-20)
(0.0715697 -0.219748 6.90474e-23)
(0.0106888 -0.221852 -3.04526e-20)
(0.0275735 -0.225948 -3.02769e-20)
(0.17321 -0.124344 -3.28687e-20)
(0.156067 -0.136116 0)
(0.14795 -0.14764 -1.436e-19)
(0.13412 -0.161847 2.51535e-19)
(0.117308 -0.17836 -9.29847e-20)
(0.10351 -0.1905 -1.52855e-20)
(0.0691087 -0.206975 3.05509e-20)
(0.0700769 -0.212033 -9.49178e-23)
(0.00907024 -0.215415 4.49228e-20)
(0.0295398 -0.220748 4.46873e-20)
(0.176203 -0.11928 -1.43738e-19)
(0.154143 -0.130402 1.42017e-19)
(0.144357 -0.142265 1.74021e-20)
(0.129897 -0.155872 0)
(0.113148 -0.172295 0)
(0.0993196 -0.183404 1.64682e-20)
(0.0655764 -0.201044 6.49628e-20)
(0.0684973 -0.204633 -6.40569e-20)
(0.00745628 -0.209538 -1.58219e-20)
(0.0319489 -0.215469 1.56881e-20)
(0.180932 -0.100034 0)
(0.149128 -0.111719 0)
(0.135993 -0.125704 0)
(0.119721 -0.139096 0)
(0.103188 -0.154982 0)
(0.0882706 -0.165889 0)
(0.0566409 -0.184854 0)
(0.0641325 -0.187014 0)
(0.00369159 -0.195858 0)
(0.0382717 -0.202066 0)
(0.160323 -0.0921824 0)
(0.138558 -0.106339 0)
(0.126116 -0.120963 0)
(0.11084 -0.133789 0)
(0.0954576 -0.146409 0)
(0.080313 -0.156878 0)
(0.0506482 -0.168966 0)
(0.0613324 -0.17461 0)
(0.00116926 -0.179671 0)
(0.0410683 -0.183784 0)
(0.141905 -0.0718283 0)
(0.124212 -0.085736 0)
(0.111933 -0.100837 0)
(0.0980041 -0.114785 0)
(0.0840391 -0.128124 0)
(0.0703889 -0.140264 0)
(0.0421709 -0.151038 0)
(0.0558988 -0.160737 0)
(-0.00341941 -0.164338 0)
(0.0389185 -0.16711 0)
(0.12684 -0.0610336 0)
(0.110875 -0.0736978 0)
(0.0985966 -0.0869407 0)
(0.0852262 -0.099594 0)
(0.0718012 -0.112087 0)
(0.0595225 -0.124294 0)
(0.0312581 -0.134267 0)
(0.0477516 -0.146763 0)
(-0.00958714 -0.150393 0)
(0.0350659 -0.153558 0)
(0.112222 -0.0513257 0)
(0.0983827 -0.0629218 0)
(0.0863097 -0.0747998 0)
(0.0731832 -0.0864251 0)
(0.0597426 -0.0982642 0)
(0.0487839 -0.110636 0)
(0.0192652 -0.120253 0)
(0.0380613 -0.135097 0)
(-0.0166358 -0.140201 0)
(0.0304698 -0.14527 0)
(0.0994894 -0.0418161 0)
(0.0872778 -0.0517399 0)
(0.0751386 -0.06209 0)
(0.0617902 -0.0726789 0)
(0.0476272 -0.0840063 0)
(0.0377134 -0.0968695 0)
(0.00599052 -0.107334 0)
(0.0260493 -0.124059 0)
(-0.0257623 -0.135048 0)
(0.0248563 -0.142851 0)
(0.0897119 -0.0331026 0)
(0.0788567 -0.0407119 0)
(0.0662375 -0.0490705 0)
(0.0520592 -0.0582535 0)
(0.0362752 -0.0687571 0)
(0.0262882 -0.0816464 0)
(-0.00808739 -0.0953007 0)
(0.00950501 -0.112352 0)
(-0.0401672 -0.133947 0)
(0.0180542 -0.149304 0)
(0.0907245 -0.0246369 0)
(0.0810755 -0.0292541 0)
(0.0673401 -0.0351156 0)
(0.0516028 -0.0423412 0)
(0.0334138 -0.0512711 0)
(0.0200574 -0.0626128 0)
(-0.0174336 -0.0817411 0)
(-0.0064192 -0.0983061 0)
(-0.0624738 -0.133862 0)
(0.00659916 -0.168499 0)
(0.15422 -0.0157169 0)
(0.146717 -0.0166513 0)
(0.131786 -0.019537 0)
(0.114528 -0.0238548 0)
(0.0943068 -0.0296523 0)
(0.0729017 -0.0382454 0)
(0.0300314 -0.0591389 0)
(0.0277498 -0.0705635 0)
(-0.0582332 -0.131874 0)
(0.00103396 -0.238233 0)
(0.510382 -0.00503014 0)
(0.504754 -0.00500752 0)
(0.493028 -0.00596165 0)
(0.480146 -0.00751265 0)
(0.463786 -0.00994383 0)
(0.441801 -0.0147286 0)
(0.409733 -0.0251299 0)
(0.373833 -0.0344778 0)
(0.258145 -0.081173 0)
(0.252577 -0.157358 0)
(0.186728 -0.0937539 1.47801e-19)
(0.161654 -0.0791949 -1.45678e-19)
(0.144423 -0.0609349 1.78742e-20)
(0.128677 -0.0510731 0)
(0.11427 -0.0420543 0)
(0.10204 -0.0338122 1.68296e-20)
(0.093098 -0.0263764 -6.6062e-20)
(0.0965538 -0.0192014 6.51287e-20)
(0.166373 -0.0144766 1.61653e-20)
(0.522354 -0.00609933 -1.63622e-20)
(0.189458 -0.0901879 -1.61696e-19)
(0.161956 -0.0729911 0)
(0.145231 -0.0560499 1.10621e-19)
(0.129166 -0.0466178 -2.49e-19)
(0.114959 -0.0380404 1.53456e-19)
(0.103037 -0.0304385 -1.51262e-20)
(0.0946429 -0.0236596 2.99417e-20)
(0.099488 -0.0171476 5.92734e-20)
(0.172475 -0.0140109 1.47217e-20)
(0.528532 -0.00659923 1.44087e-20)
(0.191446 -0.0856014 1.90211e-19)
(0.162622 -0.0663252 -1.26922e-19)
(0.146151 -0.0509067 1.25491e-19)
(0.129693 -0.0419109 -1.24294e-19)
(0.115673 -0.0339214 9.23335e-20)
(0.104031 -0.0270475 0)
(0.0961876 -0.0210412 -3.02056e-20)
(0.102302 -0.015345 4.72643e-23)
(0.178424 -0.0135565 -2.98493e-20)
(0.534936 -0.00706129 -2.93003e-20)
(0.192955 -0.0796938 -3.11661e-20)
(0.163877 -0.0591932 0)
(0.147237 -0.0454078 0)
(0.130351 -0.0369338 0)
(0.116414 -0.0297091 9.25794e-20)
(0.104974 -0.0236519 -6.13642e-20)
(0.0975841 -0.0185048 3.45074e-23)
(0.104716 -0.0137228 -3.03652e-20)
(0.183592 -0.0130179 -1.51239e-20)
(0.540982 -0.00741047 -1.48826e-20)
(0.19429 -0.0721328 4.30307e-22)
(0.165618 -0.0515345 -9.29544e-20)
(0.148347 -0.0395093 -6.22093e-20)
(0.131067 -0.031722 6.20008e-20)
(0.117119 -0.0254354 -3.09168e-20)
(0.105816 -0.020274 0)
(0.0987848 -0.0160413 -3.0747e-20)
(0.106731 -0.0122109 6.13766e-20)
(0.187993 -0.0123225 -3.06677e-20)
(0.546598 -0.00758928 3.01685e-20)
(0.19551 -0.0627592 -2.44059e-19)
(0.167678 -0.0433178 3.04101e-20)
(0.14938 -0.0332134 -1.30522e-22)
(0.131775 -0.0263392 6.19628e-20)
(0.117737 -0.0211369 0)
(0.106524 -0.0169345 0)
(0.0997661 -0.0136425 0)
(0.10836 -0.0107605 3.10036e-20)
(0.191689 -0.0114378 0)
(0.551766 -0.00756265 0)
(0.196591 -0.0516748 0)
(0.16983 -0.034592 9.23615e-20)
(0.150266 -0.026559 -6.16979e-20)
(0.132419 -0.0208506 -6.20284e-20)
(0.118231 -0.0168377 6.21287e-20)
(0.107065 -0.0136415 3.1132e-20)
(0.10052 -0.0112927 -3.12303e-20)
(0.1096 -0.00933054 -1.09281e-19)
(0.194664 -0.0103552 7.83159e-21)
(0.556397 -0.00731439 -2.3165e-20)
(0.197501 -0.0391868 0)
(0.171821 -0.0254687 -3.0625e-20)
(0.150945 -0.0196084 -1.54345e-20)
(0.132944 -0.0153072 0)
(0.118574 -0.012543 1.5564e-20)
(0.107428 -0.0103921 -4.68877e-20)
(0.101025 -0.00897147 4.69831e-20)