/*--------------------------------*- C++ -*----------------------------------*\
  =========                 |
  \\      /  F ield         | OpenFOAM: The Open Source CFD Toolbox
   \\    /   O peration     | Website:  https://openfoam.org
    \\  /    A nd           | Version:  7
     \\/     M anipulation  |
\*---------------------------------------------------------------------------*/
FoamFile
{
    version     2.0;
    format      ascii;
    class       volScalarField;
    location    "87.3";
    object      p;
}
// * * * * * * * * * * * * * * * * * * * * * * * * * * * * * * * * * * * * * //

dimensions      [0 2 -2 0 0 0 0];

internalField   nonuniform List<scalar> 
2000
(
0.00875286
0.00883984
0.00900661
0.00921468
0.00943555
0.00965146
0.00985023
0.010026
0.0101779
0.0102931
0.00877739
0.00890771
0.00909202
0.00931788
0.00955636
0.00978891
0.0100022
0.0101893
0.0103487
0.0104592
0.00877597
0.00895976
0.00916201
0.00940418
0.00965718
0.00990242
0.0101263
0.0103213
0.0104869
0.0105916
0.00875361
0.00899825
0.00921871
0.0094747
0.00973779
0.00999012
0.0102185
0.0104158
0.0105831
0.01068
0.00871706
0.00902808
0.00926551
0.00953155
0.00979894
0.0100512
0.0102763
0.0104681
0.0106302
0.0107151
0.00867535
0.00905476
0.00930657
0.00957771
0.00984249
0.0100863
0.010299
0.0104759
0.0106236
0.01069
0.00863891
0.00908437
0.00934667
0.00961693
0.00987143
0.0100977
0.0102883
0.0104403
0.0105634
0.0106034
0.00861915
0.00912356
0.00939113
0.00965377
0.00989003
0.0100901
0.0102493
0.0103672
0.0104562
0.0104621
0.00862797
0.0091793
0.00944577
0.00969353
0.00990383
0.0100698
0.0101903
0.0102681
0.0103193
0.0102876
0.00867707
0.00925871
0.00951687
0.00974231
0.00991943
0.0100448
0.0101214
0.0101569
0.0101745
0.0101191
0.0104468
0.0112726
0.0121968
0.013712
0.0153335
0.0172567
0.0185835
0.0204927
0.0205124
0.0218399
0.010528
0.011274
0.0119634
0.0132743
0.0147246
0.0165039
0.0177282
0.0194979
0.019624
0.0207696
0.0105598
0.0112636
0.0117365
0.0128498
0.0141381
0.0157835
0.0169127
0.0185803
0.0187534
0.0197808
0.0105351
0.0112266
0.0115144
0.0124398
0.0135749
0.0150948
0.0161406
0.0177219
0.0179091
0.0188774
0.0104509
0.0111474
0.011293
0.0120444
0.013036
0.0144388
0.0154118
0.0169163
0.0171143
0.0180578
0.0103093
0.0110131
0.0110655
0.0116621
0.0125217
0.0138142
0.0147198
0.0161502
0.0163602
0.0173036
0.0101197
0.0108176
0.0108231
0.0112903
0.0120331
0.0132244
0.0140724
0.0154383
0.0156691
0.0166212
0.00989151
0.010552
0.0105537
0.0109258
0.0115654
0.0126558
0.0134456
0.0147393
0.0149922
0.0159859
0.00961686
0.0102026
0.0102311
0.010561
0.0111398
0.01215
0.0128987
0.0141278
0.0144036
0.0154247
0.0093998
0.00990929
0.00993382
0.0101843
0.0106737
0.0115852
0.0122875
0.0134309
0.0137625
0.0148764
0.00992493
0.0104279
0.0106719
0.0108056
0.0109647
0.0114167
0.0118853
0.0126813
0.012946
0.0137803
0.00789792
0.00836145
0.00875845
0.00912758
0.00950159
0.0099937
0.0104558
0.0110859
0.011299
0.0117782
0.00633754
0.00676694
0.00713675
0.00747034
0.00782192
0.00830416
0.00876274
0.00933652
0.00952418
0.00984015
0.00477098
0.00520859
0.00563624
0.00600098
0.00633675
0.00676266
0.00716753
0.00767171
0.0078335
0.00807999
0.00330535
0.00371797
0.00419403
0.00462645
0.00500288
0.00540205
0.00575338
0.00617779
0.00631223
0.00652301
0.00203734
0.00240735
0.00288861
0.00335914
0.00378068
0.00418625
0.0045156
0.00487815
0.00498698
0.00515524
0.00102169
0.00134169
0.00179621
0.00225598
0.00267593
0.00306833
0.00337636
0.00369269
0.00378494
0.00392004
0.000284053
0.000543781
0.000946392
0.00136089
0.00173728
0.0020831
0.00235066
0.00261753
0.00268203
0.00277475
-0.000108677
5.32828e-05
0.000368229
0.000681509
0.000950662
0.00119514
0.00137693
0.00157467
0.00160694
0.00166587
-0.000627541
-0.000292345
-1.65175e-05
0.000182883
0.000318251
0.000433343
0.000499175
0.000594769
0.00057569
0.000575234
0.0093267
0.00760748
0.00610931
0.00459275
0.0031883
0.00196738
0.000991135
0.000256745
-8.477e-05
-0.000631372
0.00898009
0.00733471
0.00585946
0.00438715
0.00303936
0.00187211
0.000943216
0.000243992
-7.33526e-05
-0.000550147
0.00864011
0.00709023
0.00563832
0.00421096
0.00291453
0.00179738
0.000912877
0.000251003
-5.09285e-05
-0.000446113
0.00837604
0.00692036
0.00548879
0.00410042
0.00284827
0.00177058
0.000919173
0.000284912
-1.2867e-05
-0.000347157
0.00819136
0.0068077
0.00539282
0.00404039
0.00282471
0.00178009
0.000954586
0.00034037
3.79802e-05
-0.000255913
0.00808957
0.00674954
0.00534815
0.00402339
0.00283807
0.00182001
0.0010138
0.0004127
9.837e-05
-0.00017263
0.00807753
0.00674203
0.00535244
0.00404722
0.00288551
0.00188709
0.00109338
0.000498278
0.000165546
-9.8137e-05
0.00814163
0.00678211
0.00540155
0.00410782
0.00296296
0.00197747
0.00118966
0.000593681
0.000237062
-3.26098e-05
0.00827033
0.00686526
0.00549029
0.0042004
0.00306586
0.00208698
0.00129887
0.000695769
0.000310846
2.45643e-05
0.00845043
0.0069856
0.00561255
0.00431987
0.00318952
0.00221153
0.0014175
0.000801863
0.00038527
7.43935e-05
0.0086659
0.00713439
0.00576044
0.00446016
0.00332872
0.00234699
0.00154227
0.00090972
0.000459098
0.000117915
0.00890512
0.00730482
0.00592798
0.00461696
0.00347965
0.00249032
0.0016708
0.00101781
0.000531578
0.000156093
0.00916095
0.00749371
0.00611155
0.004788
0.00363999
0.0026397
0.00180162
0.0011253
0.000602402
0.000189882
0.00942647
0.00769819
0.00630737
0.00497103
0.00380766
0.00279356
0.00193369
0.0012317
0.000671493
0.000220088
0.00969602
0.00791663
0.00651233
0.00516423
0.0039811
0.00295073
0.0020663
0.00133679
0.000738935
0.000247366
0.00996461
0.00814817
0.00672371
0.00536585
0.00415908
0.00311028
0.00219903
0.0014405
0.000804901
0.000272252
0.0102247
0.00839018
0.00693821
0.00557353
0.00434031
0.00327125
0.00233154
0.00154283
0.000869613
0.000295221
0.0104714
0.00864638
0.00715868
0.0057892
0.00452668
0.0034349
0.00246481
0.00164453
0.000933626
0.000316768
0.0107271
0.00894922
0.00740649
0.00602715
0.00472852
0.00360786
0.00260299
0.00174799
0.000998098
0.000337056
0.0109166
0.00924554
0.00764784
0.00625762
0.00492751
0.003776
0.00273768
0.00184797
0.00106061
0.000354545
0.0104719
0.00934678
0.0078996
0.006565
0.00525436
0.00407362
0.00299737
0.00204786
0.00119162
0.000397123
0.0104167
0.00930098
0.00790567
0.00665173
0.00538505
0.00423799
0.0031636
0.0021968
0.0012971
0.000439962
0.0106599
0.00952078
0.00811201
0.00687472
0.00560137
0.00444647
0.00334493
0.00234602
0.00140174
0.00048736
0.0111473
0.00987794
0.00840815
0.00714291
0.00583853
0.00465914
0.00352163
0.00249029
0.00150758
0.000542477
0.0118725
0.0103951
0.00882143
0.00747962
0.00611739
0.00489066
0.00370684
0.00264012
0.001622
0.000606827
0.0127797
0.0110566
0.00934892
0.00788656
0.00644355
0.00514697
0.00390813
0.00279897
0.00174282
0.000672434
0.0137622
0.0117946
0.009942
0.0083358
0.00680047
0.0054205
0.00412243
0.00296013
0.001853
0.000717721
0.0146865
0.0125005
0.0105107
0.00876588
0.00714366
0.00568376
0.00432911
0.00310373
0.0019304
0.000727407
0.0154128
0.013054
0.0109549
0.00910336
0.00741553
0.00589503
0.00449473
0.00320924
0.00196971
0.00071037
0.0158154
0.0133558
0.0111956
0.0092871
0.00756553
0.00601374
0.00458859
0.00326499
0.00198174
0.000690518
0.0114723
0.0114307
0.01174
0.0123083
0.0131229
0.0141172
0.0152033
0.0162514
0.0171016
0.0175852
0.0116413
0.0117509
0.0121578
0.0128168
0.0137129
0.0147734
0.0159123
0.0169985
0.0178722
0.018369
0.0116674
0.0119528
0.0125003
0.0132939
0.0143121
0.0154789
0.0167001
0.017833
0.0187187
0.0192143
0.0117451
0.0121661
0.0128293
0.0137422
0.0148717
0.0161454
0.0174628
0.0186675
0.0195936
0.020109
0.0118707
0.012432
0.013202
0.0142207
0.0154468
0.0168147
0.0182228
0.0195063
0.0204898
0.0210403
0.0120109
0.012727
0.0136182
0.0147476
0.0160715
0.0175303
0.0190223
0.0203793
0.0214191
0.0220054
0.0121633
0.0130365
0.0140638
0.0153136
0.0167448
0.0183009
0.0198774
0.0213035
0.0223926
0.0230081
0.0123359
0.0133623
0.0145347
0.0159101
0.0174566
0.0191177
0.0207839
0.0222796
0.023414
0.0240526
0.0125334
0.0137074
0.0150322
0.0165343
0.0182012
0.0199727
0.0217339
0.0233028
0.0244824
0.0251409
0.0127574
0.0140702
0.0155559
0.0171845
0.0189765
0.0208622
0.022723
0.0243692
0.0255963
0.0262737
0.0130098
0.014446
0.0161031
0.0178568
0.0197797
0.0217835
0.023749
0.0254774
0.0267549
0.0274513
0.0132885
0.0148292
0.0166684
0.0185448
0.020606
0.0227328
0.0248095
0.0266262
0.0279583
0.0286745
0.0135842
0.015216
0.0172422
0.0192424
0.0214493
0.0237062
0.0259023
0.027814
0.0292082
0.0299453
0.0138793
0.0156071
0.0178109
0.0199441
0.0223012
0.0246985
0.0270236
0.0290385
0.0305096
0.0312688
0.0141365
0.0160022
0.0183651
0.0206492
0.023158
0.0257064
0.028171
0.0302991
0.0318525
0.0326406
0.014359
0.0163903
0.0188927
0.0213367
0.0240059
0.026718
0.0293358
0.0315901
0.0332332
0.034059
0.0145354
0.0167543
0.0193842
0.0219958
0.0248362
0.0277272
0.0305142
0.0329095
0.0346531
0.0355263
0.0146398
0.0170847
0.0198292
0.0226148
0.0256342
0.0287178
0.0316911
0.0342463
0.0361076
0.0370415
0.0146485
0.017377
0.0202287
0.0232016
0.0264144
0.0297079
0.0328824
0.0356111
0.0376023
0.0386105
0.0144915
0.0175634
0.020511
0.0236581
0.0270613
0.0305805
0.0339921
0.0369421
0.0391073
0.0402208
0.0151388
0.019061
0.0223528
0.0258706
0.0296112
0.0334718
0.0372229
0.0405035
0.0429475
0.0442517
0.0189802
0.0227724
0.0262862
0.0303723
0.0347152
0.0391971
0.0435152
0.047255
0.0500139
0.0514649
0.0232201
0.0271974
0.0311158
0.0358252
0.0407877
0.0459109
0.0507664
0.0549002
0.0579067
0.0594909
0.0277053
0.0321081
0.0366663
0.0420913
0.0477243
0.0535098
0.058857
0.0633092
0.0664667
0.0680626
0.0324699
0.0374174
0.0427168
0.0489011
0.0552391
0.0616839
0.0674661
0.0721655
0.075399
0.0770561
0.037608
0.0431202
0.0492211
0.0561793
0.0632414
0.070336
0.0765118
0.0813795
0.0844871
0.0857813
0.0426464
0.048834
0.0556791
0.0633275
0.0710723
0.0787439
0.0852785
0.0902612
0.093104
0.0943134
0.0477134
0.0543116
0.0618741
0.0702307
0.0786952
0.0869594
0.0939771
0.0992352
0.101596
0.100687
0.0505058
0.057943
0.0661575
0.0750961
0.0841215
0.0928125
0.10012
0.105399
0.10663
0.108208
0.054067
0.0616335
0.0703114
0.0797564
0.0894951
0.098935
0.107605
0.114932
0.117577
0.100991
0.0139355
0.0176421
0.0214642
0.0256137
0.0298889
0.034819
0.039168
0.0443406
0.046453
0.0499604
0.0135259
0.0174037
0.0211651
0.0252392
0.0293485
0.0341263
0.0381862
0.0432277
0.0450093
0.0484693
0.0133412
0.0174166
0.0211542
0.0252113
0.029214
0.0338082
0.0376334
0.0423634
0.0439365
0.0471602
0.0131101
0.0172667
0.0209694
0.0249715
0.0289094
0.0333358
0.0369973
0.0414358
0.0429822
0.0458578
0.0128545
0.0170102
0.0206697
0.0245852
0.0284524
0.0327162
0.0362619
0.0404308
0.0420457
0.0445764
0.0125979
0.016724
0.0203526
0.0241902
0.0279764
0.0320673
0.0355544
0.0394244
0.0411563
0.0433765
0.0123381
0.0164213
0.0200365
0.0238187
0.0275348
0.0314786
0.0348991
0.038519
0.0403238
0.0422911
0.012076
0.0161048
0.0197184
0.0234625
0.0271258
0.0309598
0.0343024
0.0377375
0.0395745
0.0413241
0.0118185
0.0157831
0.0194032
0.0231222
0.0267461
0.0305013
0.0337711
0.0370667
0.0389091
0.0405024
0.0115737
0.0154662
0.0191007
0.0228072
0.0264032
0.0301021
0.033314
0.0364973
0.0383348
0.0398273
0.0113485
0.0151622
0.0188199
0.0225273
0.0261078
0.0297682
0.0329396
0.03603
0.0378614
0.0392886
0.0111402
0.0148716
0.0185637
0.0222855
0.0258658
0.0295051
0.0326533
0.035669
0.0374954
0.0388761
0.0109388
0.0145919
0.0183314
0.0220812
0.0256788
0.0293157
0.0324585
0.0354177
0.0372402
0.0385865
0.0107354
0.0143258
0.0181229
0.0219151
0.0255478
0.0292017
0.0323566
0.0352774
0.0370938
0.0384193
0.0105189
0.0140761
0.0179367
0.0217867
0.0254724
0.0291637
0.0323482
0.0352491
0.0370553
0.0383802
0.0102742
0.0138418
0.0177684
0.0216929
0.0254503
0.0291993
0.0324312
0.0353312
0.0371143
0.0384722
0.00998423
0.0136178
0.0176103
0.0216286
0.0254784
0.0293063
0.0326066
0.0355273
0.0372741
0.0387102
0.0096334
0.0133947
0.017452
0.0215837
0.0255455
0.0294718
0.0328618
0.0358262
0.0375007
0.0390977
0.00917583
0.0131494
0.0172906
0.021562
0.0256625
0.029713
0.0332171
0.0362543
0.037839
0.0396612
0.00861192
0.0128039
0.0170444
0.0214712
0.0257265
0.0299209
0.0335724
0.0367285
0.0381662
0.0403796
0.00964009
0.0139176
0.0180489
0.0225754
0.0270757
0.0314651
0.0352963
0.0386679
0.0399496
0.0425512
0.0121403
0.0166555
0.0210378
0.0259825
0.0309376
0.0358084
0.0401346
0.0437842
0.0454951
0.047775
0.0156352
0.0204768
0.0252805
0.030799
0.0363436
0.0418726
0.0468284
0.0509108
0.053313
0.0552621
0.0197587
0.0250315
0.0304023
0.0366731
0.0430447
0.0495216
0.0554104
0.0603479
0.0638094
0.0661593
0.0240929
0.0298885
0.0359875
0.0431868
0.0506208
0.0583669
0.0656267
0.072101
0.0773448
0.0814915
0.0286031
0.0349146
0.0419121
0.0501748
0.0589047
0.0682689
0.0775121
0.0867302
0.0957904
0.104506
0.0322635
0.0393392
0.0473037
0.0566689
0.0669259
0.0783199
0.0903867
0.104134
0.120237
0.139211
0.0362382
0.0438959
0.0528175
0.0633518
0.0753149
0.0891992
0.105249
0.126355
0.156077
0.196553
0.0373233
0.0451971
0.0545463
0.0658106
0.0794515
0.0965714
0.119144
0.152166
0.204689
0.284483
0.0398508
0.0490833
0.0599632
0.0734314
0.0907112
0.113652
0.145953
0.195943
0.281399
0.41262
0.00946114
0.011757
0.0146248
0.018062
0.0215103
0.0255947
0.0284821
0.0323107
0.0332352
0.0350143
0.00930411
0.011609
0.0143756
0.0176509
0.020844
0.0247061
0.0272921
0.0309815
0.0317385
0.0336825
0.00931528
0.0115676
0.014251
0.0174141
0.0204621
0.0240876
0.0264525
0.0298843
0.0304122
0.0327596
0.00940346
0.0115061
0.0140281
0.0170318
0.0199158
0.0233219
0.0255131
0.0287114
0.0290344
0.0315114
0.00952903
0.0114376
0.0137487
0.0165698
0.0192453
0.0224245
0.0244382
0.0274505
0.0275947
0.0299372
0.00967967
0.0113789
0.0134705
0.0160907
0.0185649
0.0215074
0.0233338
0.0261864
0.0261704
0.0282836
0.00984525
0.0113325
0.013203
0.0155876
0.0179229
0.0206174
0.0222727
0.0249753
0.0248259
0.0267407
0.0100152
0.0112988
0.0129421
0.0150975
0.0172717
0.0197476
0.0212783
0.0238186
0.0235855
0.0253648
0.0101792
0.0112788
0.0126866
0.0146235
0.0166133
0.0188789
0.0203568
0.0226878
0.0224541
0.0241247
0.0103267
0.0112713
0.0124377
0.0141619
0.015964
0.0180463
0.0194643
0.0215676
0.0214352
0.022963
0.00877878
0.00936958
0.00961156
0.00980718
0.0099444
0.0100232
0.0100508
0.0100385
0.0100148
0.00994912
0.00895036
0.00952193
0.00973787
0.00989587
0.00998709
0.0100144
0.00998802
0.00992086
0.00984025
0.00971841
0.00919712
0.00972064
0.00990185
0.0100157
0.0100564
0.0100294
0.00994705
0.0098241
0.00968836
0.00951362
0.00952429
0.00997103
0.0101096
0.0101738
0.0101606
0.010078
0.00994001
0.00976276
0.00957421
0.00935031
0.00993499
0.0102771
0.0103658
0.0103755
0.0103063
0.010168
0.00997589
0.00974687
0.00950785
0.00923866
0.0104282
0.0106403
0.0106725
0.0106238
0.0104972
0.0103039
0.01006
0.00978228
0.00949583
0.00919029
0.010998
0.0110584
0.0110286
0.0109184
0.0107336
0.0104865
0.0101933
0.00987115
0.00954151
0.00918595
0.0116343
0.0115256
0.0114296
0.0112552
0.0110119
0.0107128
0.0103735
0.0100104
0.00964094
0.00924616
0.0123211
0.0120322
0.0118663
0.0116263
0.011325
0.010976
0.0105938
0.0101937
0.00978856
0.0093638
0.0130314
0.0125619
0.0123253
0.0120199
0.0116622
0.0112661
0.0108448
0.0104115
0.00997574
0.00952819
0.0137274
0.0130909
0.0127887
0.0124211
0.0120105
0.0115711
0.0111147
0.0106526
0.0101917
0.00972782
0.0144182
0.0136131
0.0132445
0.0128163
0.0123559
0.0118775
0.0113908
0.0109048
0.0104245
0.00995085
0.0150697
0.014104
0.0136727
0.0131888
0.0126841
0.0121722
0.0116608
0.0111564
0.0106629
0.0101862
0.0156512
0.0145406
0.014054
0.013522
0.0129806
0.0124425
0.011913
0.0113962
0.010896
0.0104234
0.0161372
0.0149026
0.014371
0.0138011
0.0132324
0.0126767
0.0121368
0.0116143
0.0111143
0.0106531
0.0165055
0.0151715
0.0146078
0.0140127
0.0134282
0.0128649
0.0123233
0.0118026
0.0113093
0.0108675
0.0167373
0.0153318
0.0147517
0.0141465
0.0135594
0.0129998
0.012466
0.0119549
0.0114747
0.0110586
0.0168186
0.0153718
0.014793
0.0141948
0.01362
0.0130766
0.0125613
0.0120681
0.0116049
0.0112163
0.0167408
0.0152844
0.0147261
0.0141536
0.0136073
0.0130935
0.0126076
0.0121388
0.011689
0.011322
0.0165011
0.0150669
0.0145491
0.0140223
0.0135221
0.0130531
0.0126087
0.0121714
0.0117331
0.0113824
0.016101
0.0147209
0.0142632
0.0138023
0.0133674
0.0129631
0.0125861
0.0122282
0.0119029
0.0117069
0.0155402
0.0142495
0.0138718
0.0134955
0.0131421
0.0128151
0.0125133
0.0122345
0.0119944
0.0118524
0.0148354
0.0136646
0.0133831
0.0131069
0.0128474
0.0126063
0.0123832
0.0121792
0.0120064
0.0118916
0.0140064
0.0129815
0.0128083
0.0126444
0.0124894
0.0123424
0.0122043
0.0120791
0.0119761
0.0119061
0.0130758
0.0122178
0.0121615
0.0121191
0.0120773
0.0120323
0.0119863
0.0119454
0.0119177
0.0119071
0.0120694
0.0113939
0.011459
0.0115444
0.0116224
0.0116859
0.0117381
0.0117869
0.0118394
0.011897
0.0110148
0.0105319
0.010719
0.0109346
0.0111368
0.0113138
0.0114691
0.0116122
0.0117501
0.0118834
0.00993991
0.00965362
0.00995965
0.0103049
0.0106329
0.0109263
0.0111885
0.0114297
0.0116575
0.0118735
0.00887206
0.00878001
0.00919876
0.00966969
0.0101223
0.0105331
0.0109044
0.0112463
0.0115673
0.0118719
0.0078472
0.00793467
0.00845459
0.00904305
0.00961595
0.0101427
0.0106233
0.0110672
0.0114835
0.0118809
0.00691664
0.00715172
0.00775031
0.00844175
0.00912581
0.0097637
0.0103514
0.0108967
0.0114084
0.011901
0.00603072
0.00641481
0.00708368
0.00786936
0.00865619
0.0093996
0.0100912
0.010736
0.0113415
0.0119289
0.00521827
0.00574137
0.00647012
0.00733407
0.00821343
0.00905449
0.00984441
0.0105853
0.0112808
0.0119577
0.00449876
0.00514443
0.00591824
0.00684478
0.00780253
0.00873079
0.00961154
0.0104431
0.0112245
0.0119772
0.00387948
0.00462978
0.00543332
0.0064057
0.00742659
0.00843
0.00939229
0.0103062
0.0111642
0.0119977
0.00336318
0.00419956
0.00501842
0.00601957
0.00708748
0.00815268
0.00918615
0.0101745
0.0111009
0.0119997
0.00294981
0.00385358
0.0046746
0.00568784
0.00678611
0.00789886
0.00899225
0.0100464
0.0110322
0.0119796
0.00263656
0.0035895
0.00440102
0.00541057
0.00652257
0.00766814
0.00880993
0.00992242
0.0109607
0.0119389
0.00241833
0.00340323
0.00419525
0.00518663
0.0062961
0.00745962
0.00863846
0.0098045
0.010898
0.0118948
0.0022887
0.00328952
0.00405364
0.00501383
0.00610503
0.00727117
0.00847398
0.00968689
0.0108526
0.0118877
0.00223859
0.00324125
0.00397066
0.00488829
0.0059463
0.00710024
0.0083169
0.00958465
0.0109284
0.0122766
0.00224935
0.00324682
0.00393908
0.00480589
0.00581596
0.00693639
0.00813613
0.00939523
0.010736
0.0120715
0.00232115
0.00330371
0.0039557
0.00476446
0.00571296
0.00677889
0.00793365
0.00914919
0.0104337
0.0117096
0.00244767
0.00340586
0.0040157
0.00476196
0.00563971
0.00663736
0.00773223
0.00889677
0.0101322
0.0113599
0.00261989
0.00354604
0.00411367
0.00479613
0.0055985
0.00651995
0.00754579
0.00865259
0.00983776
0.0110222
0.00282924
0.00371752
0.00424422
0.00486404
0.00558983
0.00643071
0.00738064
0.00842135
0.00954841
0.0106885
0.00306795
0.0039141
0.00440202
0.00496216
0.00561274
0.00637155
0.00724114
0.00820916
0.0092707
0.0103623
0.00332888
0.00412992
0.00458171
0.00508636
0.00566519
0.00634296
0.00713032
0.00802125
0.00901131
0.0100495
0.00360575
0.0043596
0.00477803
0.00523207
0.00574405
0.00634386
0.0070493
0.00786068
0.00877467
0.00975468
0.0038948
0.00460032
0.00498768
0.00539583
0.00584639
0.00637247
0.00699785
0.00772883
0.00856352
0.0094812
0.00419473
0.0048528
0.00521134
0.00557787
0.00597223
0.00642915
0.00697704
0.00762763
0.00838039
0.00923135
0.00449129
0.0051032
0.00543577
0.00576597
0.00611089
0.00650521
0.00698052
0.00755316
0.00822322
0.00900276
0.00478493
0.00535233
0.005661
0.00595911
0.00626046
0.00659838
0.00700614
0.0075037
0.00809081
0.00879319
0.0050751
0.00559946
0.00588573
0.00615519
0.00641815
0.00670551
0.00705091
0.00747676
0.00798128
0.00860047
0.00536072
0.00584313
0.00610805
0.00635169
0.00658083
0.00682324
0.00711162
0.00746964
0.00789252
0.00842214
0.00564138
0.00608245
0.00632673
0.00654679
0.00674611
0.00694879
0.0071856
0.00748015
0.00782294
0.00825591
0.00591726
0.00631716
0.0065413
0.00673961
0.00691253
0.00708037
0.00727117
0.00750744
0.007773
0.00810145
0.00618887
0.00654739
0.0067519
0.00693017
0.00707985
0.00721742
0.00736784
0.00755214
0.00774558
0.00796046
0.00645667
0.00677347
0.00695925
0.00711961
0.00724966
0.00736212
0.00747824
0.0076168
0.007743
0.0078277
0.00672064
0.00699564
0.00716429
0.00730992
0.00742585
0.00752236
0.0076178
0.00773015
0.00782556
0.00781003
0.00698061
0.00721397
0.00736759
0.00750241
0.00761129
0.00770518
0.00780687
0.00795626
0.00822503
0.00865798
0.00723751
0.00742839
0.00756892
0.00769656
0.007803
0.00789802
0.00800294
0.0081541
0.00841747
0.00880256
0.00748711
0.00763725
0.00776727
0.00789122
0.00799869
0.00809638
0.00820133
0.00834167
0.008563
0.00886099
0.00772557
0.00783854
0.00796109
0.00808493
0.00819716
0.00830085
0.00840868
0.00854273
0.00873506
0.00897658
0.00794972
0.00802934
0.00814837
0.00827568
0.00839631
0.00850952
0.00862347
0.00875456
0.00892514
0.00912718
0.0081541
0.00820823
0.0083267
0.00846096
0.00859325
0.00871902
0.00884192
0.00897292
0.00912717
0.00930035
0.00833484
0.00837235
0.00849366
0.00863797
0.00878481
0.00892581
0.00906045
0.00919488
0.00933891
0.00949146
0.00848838
0.00851933
0.00864691
0.00880403
0.00896778
0.00912619
0.00927505
0.00941646
0.00955617
0.00969422
0.00861171
0.00864749
0.00878451
0.00895674
0.00913892
0.00931625
0.00948124
0.00963261
0.00977303
0.00990097
0.00870137
0.00875509
0.00890489
0.00909411
0.00929551
0.00949233
0.00967437
0.00983767
0.00998267
0.0101035
)
;

boundaryField
{
    inlet
    {
        type            zeroGradient;
    }
    outlet
    {
        type            fixedValue;
        value           uniform 0;
    }
    cylinder
    {
        type            zeroGradient;
    }
    top
    {
        type            symmetryPlane;
    }
    bottom
    {
        type            symmetryPlane;
    }
    defaultFaces
    {
        type            empty;
    }
}


// ************************************************************************* //
