/*--------------------------------*- C++ -*----------------------------------*\
  =========                 |
  \\      /  F ield         | OpenFOAM: The Open Source CFD Toolbox
   \\    /   O peration     | Website:  https://openfoam.org
    \\  /    A nd           | Version:  7
     \\/     M anipulation  |
\*---------------------------------------------------------------------------*/
FoamFile
{
    version     2.0;
    format      ascii;
    class       surfaceScalarField;
    location    "80.5";
    object      phi;
}
// * * * * * * * * * * * * * * * * * * * * * * * * * * * * * * * * * * * * * //

dimensions      [0 3 -1 0 0 0 0];

internalField   nonuniform List<scalar> 
3880
(
-2.11032e-05
-0.000546096
0.000567199
-1.79874e-05
-0.00129713
0.00129402
2.3656e-05
-0.00172286
0.00168121
0.000111793
-0.00186979
0.00178165
0.00025394
-0.00176858
0.00162643
0.000458568
-0.00143998
0.00123535
0.000734107
-0.000899214
0.000623675
0.00108655
-0.000159805
-0.000192638
0.00151643
0.000763036
-0.00119292
0.00185066
0.00201548
-0.00234971
-1.02302e-05
-0.000535866
1.51558e-05
-0.00132252
8.45778e-05
-0.00179228
0.000202114
-0.00198733
0.000372787
-0.00193925
0.000603988
-0.00167118
0.000904456
-0.00119968
0.0012818
-0.000537152
0.00173918
0.000305661
0.00131855
0.00227129
5.76476e-06
-0.000541631
6.19907e-05
-0.00137874
0.000170417
-0.0019007
0.00032993
-0.00214684
0.000542019
-0.00215134
0.00081188
-0.00194104
0.00114752
-0.00153532
0.00155742
-0.000947054
0.00204722
-0.000184139
0.000750475
0.0026153
2.58653e-05
-0.000567496
0.000121347
-0.00147423
0.000279134
-0.00205849
0.00049247
-0.00236018
0.00075869
-0.00241756
0.00108003
-0.00226238
0.00146288
-0.00191817
0.00191573
-0.00139991
0.00244614
-0.00071455
0.000140268
0.00305635
4.99144e-05
-0.000617411
0.000190997
-0.00161531
0.000406296
-0.00227379
0.000682931
-0.00263681
0.00101385
-0.00274847
0.00139801
-0.00264655
0.0018397
-0.00235986
0.00234673
-0.00190694
0.00292774
-0.00129556
-0.000520445
0.00358845
7.67246e-05
-0.000694135
0.000267454
-0.00180604
0.000544961
-0.0025513
0.000890152
-0.002982
0.00129172
-0.00315005
0.00174554
-0.00310036
0.00225375
-0.00286807
0.00282323
-0.00247642
0.00346309
-0.00193541
-0.00123864
0.00418129
0.000104879
-0.000799014
0.000346159
-0.00204732
0.000685938
-0.00289108
0.00109903
-0.00339509
0.00157026
-0.00362128
0.00209286
-0.00362296
0.00266725
-0.00344246
0.00329965
-0.00310882
0.00399958
-0.00263534
-0.00201483
0.00477576
0.00013272
-0.000931733
0.000421765
-0.00233636
0.000818427
-0.00328774
0.00129169
-0.00386835
0.00182303
-0.00415262
0.00240357
-0.00420351
0.00303252
-0.00407141
0.00371603
-0.00379233
0.0044651
-0.0033844
-0.00283848
0.00528875
0.000158443
-0.00109018
0.000488506
-0.00266642
0.000930906
-0.00373014
0.00144928
-0.00438672
0.00202237
-0.00472571
0.00263972
-0.00482086
0.0032995
-0.00473119
0.00400781
-0.00450064
0.00477853
-0.00415512
-0.00368752
0.00562757
0.000180193
-0.00127037
0.000540606
-0.00302684
0.00101214
-0.00420168
0.00155397
-0.00492855
0.00214298
-0.00531472
0.00276794
-0.00544581
0.00342609
-0.00538934
0.00412209
-0.00519665
0.0048709
-0.00490393
0.00571701
-0.00453363
0.00349604
0.0167541
-0.0182347
0.00489732
0.0381092
-0.0395105
0.00539285
0.059513
-0.0600085
0.00520449
0.0790358
-0.0788475
0.00461706
0.0984364
-0.097849
0.0037663
0.119105
-0.118254
0.00273565
0.142335
-0.141304
0.00154111
0.172451
-0.171256
0.000506693
0.216937
-0.215903
0.270301
-0.269794
0.00383267
0.0151928
0.00554677
0.0363951
0.00634308
0.0587167
0.00634409
0.0790348
0.00584401
0.0989365
0.00499177
0.119957
0.00387726
0.143449
0.0025196
0.173808
0.00111877
0.218338
0.27142
0.00417538
0.0136327
0.00615605
0.0344144
0.00726613
0.0576066
0.00747442
0.0788265
0.00707163
0.0993393
0.00622126
0.120808
0.00502266
0.144648
0.00349617
0.175335
0.00173543
0.220099
0.273155
0.00453172
0.0121573
0.00670581
0.0322403
0.00813524
0.0561772
0.00857005
0.0783917
0.00827858
0.0996308
0.00743728
0.121649
0.00615853
0.145926
0.00446447
0.177029
0.00234524
0.222218
0.275501
0.00491056
0.0108352
0.00718372
0.0299672
0.00892538
0.0544355
0.0096062
0.0777109
0.00944358
0.0997934
0.00862293
0.12247
0.00727141
0.147278
0.00541382
0.178886
0.00294331
0.224689
0.278444
0.00531337
0.00970309
0.00758538
0.0276952
0.00961498
0.0524059
0.0105594
0.0767665
0.0105458
0.099807
0.00976001
0.123255
0.00834642
0.148692
0.00633292
0.1809
0.00352245
0.227499
0.281966
0.00572461
0.00875424
0.00791078
0.025509
0.0101874
0.0501293
0.0114086
0.0755453
0.0115681
0.0996474
0.010836
0.123987
0.00937483
0.150153
0.00721585
0.183059
0.00408172
0.230633
0.286048
0.00609964
0.00794336
0.0081553
0.0234534
0.0106303
0.0476543
0.012134
0.0740416
0.0124862
0.0992952
0.0118251
0.124648
0.010333
0.151645
0.00804553
0.185346
0.00460893
0.23407
0.290657
0.00635713
0.00721379
0.00829594
0.0215145
0.010929
0.0450212
0.0127316
0.0722391
0.0133139
0.0987129
0.0127488
0.125214
0.0112424
0.153151
0.00883426
0.187755
0.00511252
0.237792
0.295769
0.00645088
0.00647991
0.0083724
0.019593
0.01109
0.0423036
0.0131391
0.07019
0.0139588
0.0978933
0.0135197
0.125653
0.0120538
0.154617
0.00953411
0.190274
0.00560151
0.241724
0.301371
0.0194863
0.0114996
-0.024506
0.0151027
0.0239766
0.0131927
0.0442136
0.0120199
0.0713628
0.010453
0.0994601
0.0084097
0.127696
0.00585143
0.157175
0.00282747
0.193298
0.000316977
0.244235
0.301688
0.0203275
0.0151284
-0.0239562
0.015768
0.0285361
0.0129711
0.0470104
0.0115036
0.0728303
0.00995521
0.101009
0.00795317
0.129698
0.00544304
0.159686
0.00256811
0.196173
0.000241491
0.246561
0.301929
0.0199378
0.0172087
-0.0220181
0.0161574
0.0323165
0.0129784
0.0501894
0.0110465
0.0747622
0.0093512
0.102704
0.00739878
0.13165
0.0050213
0.162063
0.00230676
0.198888
0.000168824
0.248699
0.302098
0.0186357
0.0182124
-0.0196394
0.015796
0.0351562
0.0128252
0.0531601
0.0107211
0.0768663
0.00892475
0.1045
0.00699201
0.133583
0.00470529
0.16435
0.00216378
0.201429
0.000168077
0.250695
0.302266
0.016942
0.0184261
-0.0171557
0.0149186
0.0371796
0.0123615
0.0557172
0.0102887
0.0789392
0.00848123
0.106308
0.00658385
0.135481
0.00438653
0.166547
0.00197545
0.20384
0.000117713
0.252553
0.302384
0.0150248
0.0179378
-0.0145365
0.0137346
0.0384697
0.0116235
0.0578283
0.009779
0.0807837
0.00811529
0.107971
0.00630917
0.137287
0.00419676
0.168659
0.00191052
0.206127
0.000148254
0.254315
0.302532
0.0130643
0.0167724
-0.0118989
0.0125267
0.0390073
0.0108638
0.0594912
0.00917031
0.0824772
0.00762717
0.109515
0.00595139
0.138962
0.00396197
0.170649
0.00177637
0.208312
0.000114443
0.255977
0.302647
0.0110186
0.0150114
-0.00925752
0.0111291
0.0388968
0.0100306
0.0605897
0.0086888
0.083819
0.00731466
0.110889
0.00574536
0.140532
0.00384172
0.172553
0.00177442
0.210379
0.00018027
0.257571
0.302827
0.00952405
0.0124652
-0.00697783
0.0103142
0.0381067
0.00950644
0.0613974
0.00824297
0.0850825
0.00695524
0.112176
0.0054951
0.141992
0.00368086
0.174367
0.00168798
0.212372
0.00016028
0.259099
0.302987
0.00706162
-0.00397037
0.00899752
0.00911124
0.00817858
0.00695569
0.00547674
0.00372087
0.00174347
0.000275953
0.00574522
-0.0247804
-0.00547077
0.00536759
-0.0235786
0.00466643
-0.021317
0.00386857
-0.0188415
0.0030313
-0.0163184
0.00217081
-0.013676
0.00129152
-0.0110196
0.000427775
-0.00839378
-0.000576656
-0.0059734
-0.0031732
0.00483268
-0.0246701
-0.00494305
0.00418423
-0.0229301
0.0033352
-0.020468
0.00243989
-0.0179462
0.0015284
-0.0154069
0.000610717
-0.0127583
-0.000311724
-0.0100972
-0.0012092
-0.00749631
-0.0021727
-0.0050099
-0.00242541
0.00374067
-0.0242382
-0.00417251
0.00286728
-0.0220567
0.0019027
-0.0195034
0.000928006
-0.0169715
-4.21856e-05
-0.0144367
-0.000989493
-0.011811
-0.00192204
-0.00916463
-0.00281736
-0.00660099
-0.00370537
-0.00412189
-0.0017731
0.00246599
-0.0235455
-0.00315878
0.00142866
-0.0210194
0.00038403
-0.0184588
-0.000640216
-0.0159472
-0.00163433
-0.0134426
-0.00259297
-0.0108524
-0.00350635
-0.00825125
-0.00435924
-0.0057481
-0.00514319
-0.00333794
-0.00123724
0.00102691
-0.0226388
-0.00193359
-0.000115761
-0.0198767
-0.00119882
-0.0173757
-0.00224293
-0.0149031
-0.00323384
-0.0124517
-0.00416715
-0.00991909
-0.0050308
-0.0073876
-0.00580859
-0.00497031
-0.00646909
-0.00267744
-0.000823842
-0.00051963
-0.0215739
-0.000545234
-0.00172256
-0.0186738
-0.00281336
-0.0162849
-0.0038432
-0.0138733
-0.00480028
-0.0114946
-0.00567956
-0.00903981
-0.00646725
-0.0065999
-0.00714596
-0.0042916
-0.00767498
-0.00214842
-0.000528903
-0.0021331
-0.0203775
0.00093667
-0.00334471
-0.0174622
-0.00441161
-0.015218
-0.00539963
-0.0128853
-0.00629753
-0.0105967
-0.00709981
-0.00823753
-0.007793
-0.00590672
-0.00835928
-0.00372531
-0.00875916
-0.00174855
-0.000341371
-0.00374034
-0.0190967
0.00245958
-0.00492808
-0.0162744
-0.00594818
-0.0141979
-0.0068727
-0.0119608
-0.00769309
-0.00977631
-0.00840329
-0.00752733
-0.00899236
-0.00531765
-0.00944347
-0.00327421
-0.00972482
-0.00146719
-0.000245768
-0.00528605
-0.017776
0.00396537
-0.00642485
-0.0151356
-0.00738234
-0.0132404
-0.0082287
-0.0111144
-0.00896122
-0.00904379
-0.00957276
-0.00691579
-0.0100571
-0.00483334
-0.0103994
-0.00293192
-0.0105786
-0.00128795
-0.00022435
-0.00672149
-0.0164538
0.00539925
-0.00779523
-0.0140619
-0.00868149
-0.0123542
-0.0094422
-0.0103537
-0.0100844
-0.00840157
-0.0105988
-0.00640142
-0.0109855
-0.00444663
-0.0112322
-0.00268519
-0.0113292
-0.00119099
-0.000258638
-0.00800901
-0.0151609
0.00671612
-0.00900927
-0.0130616
-0.00982262
-0.0115408
-0.0104968
-0.00967948
-0.0110534
-0.00784495
-0.011479
-0.00597585
-0.0117813
-0.00414432
-0.0119503
-0.00251618
-0.0119862
-0.00115513
-0.000330358
-0.00912856
-0.01392
0.00788765
-0.0100503
-0.0121399
-0.0107941
-0.010797
-0.0113864
-0.00908719
-0.0118673
-0.00736409
-0.0122174
-0.00562577
-0.0124522
-0.00390946
-0.0125636
-0.00240478
-0.0125595
-0.0011593
-0.000421911
-0.0100671
-0.0127464
0.00889343
-0.0109094
-0.0112975
-0.0115915
-0.0101149
-0.0121112
-0.00856744
-0.01253
-0.00694535
-0.0128215
-0.0053343
-0.013008
-0.00372294
-0.0130827
-0.00233003
-0.0130588
-0.00118326
-0.000516556
-0.0108225
-0.0116474
0.00972352
-0.0115872
-0.0105328
-0.012218
-0.00948417
-0.012678
-0.00810742
-0.0130502
-0.00657315
-0.0133018
-0.0050827
-0.0134596
-0.00356508
-0.0135183
-0.00227139
-0.0134934
-0.00120813
-0.000598441
-0.0114006
-0.0106215
0.0103748
-0.0120913
-0.00984209
-0.0126821
-0.00889336
-0.0130978
-0.00769177
-0.0134394
-0.0062315
-0.0136704
-0.00485167
-0.0138188
-0.00341669
-0.0138809
-0.00220933
-0.0138726
-0.00121643
-0.000652521
-0.0118127
-0.00965683
0.010848
-0.012435
-0.00921981
-0.0129961
-0.00833233
-0.0133843
-0.00730356
-0.0137107
-0.00590512
-0.01394
-0.00462228
-0.0140971
-0.00325967
-0.0141808
-0.00212563
-0.0142052
-0.001192
-0.00066445
-0.0120719
-0.00872983
0.0111449
-0.0126354
-0.00865629
-0.0131736
-0.00779418
-0.0135522
-0.006925
-0.0138774
-0.00557992
-0.014123
-0.00437665
-0.0143055
-0.0030772
-0.0144276
-0.00200344
-0.0144999
-0.00111978
-0.00062046
-0.0121833
-0.00781349
0.011267
-0.0127062
-0.00813339
-0.0132261
-0.00727428
-0.013614
-0.00653712
-0.0139517
-0.00524219
-0.0142306
-0.00409783
-0.0144542
-0.00285351
-0.0146307
-0.00182701
-0.014765
-0.000985502
-0.000507204
-0.0121439
-0.00689247
0.0112228
-0.0126607
-0.00761651
-0.0131663
-0.00676873
-0.0135822
-0.00612123
-0.013946
-0.00487842
-0.0142736
-0.00377017
-0.0145533
-0.00257383
-0.0147987
-0.00158164
-0.0150087
-0.000775464
-0.000311548
-0.0120032
-0.00594559
0.0110563
-0.0125498
-0.00706986
-0.0130255
-0.006293
-0.0134723
-0.00567444
-0.013872
-0.00447878
-0.0142597
-0.00338241
-0.0146102
-0.00222337
-0.014939
-0.00125279
-0.0152402
-0.000474276
-2.13312e-05
-0.05318
-0.00569382
0.0529283
-0.0545537
-0.00569619
-0.0559854
-0.00486129
-0.0574101
-0.00424974
-0.0585847
-0.00330422
-0.0595035
-0.0024636
-0.0601216
-0.00160526
-0.0604712
-0.000903237
-0.0605996
-0.000345805
-2.62407e-05
-0.0626266
-0.00556883
0.0625016
-0.0634793
-0.00484355
-0.0642979
-0.00404265
-0.0652046
-0.00334298
-0.0659442
-0.00256468
-0.0665273
-0.00188051
-0.0669086
-0.00122394
-0.0671124
-0.00069947
-0.0671765
-0.000281641
-3.25875e-05
-0.0741598
-0.00558211
0.0741731
-0.0745901
-0.00441327
-0.0750396
-0.00359309
-0.0755887
-0.00279391
-0.0760248
-0.00212863
-0.0763897
-0.00151553
-0.0766099
-0.00100379
-0.0767264
-0.000582913
-0.0767498
-0.000258274
-3.60716e-05
-0.0885335
-0.00558877
0.0885401
-0.0888104
-0.00413633
-0.0890704
-0.00333314
-0.0894241
-0.00244021
-0.0896823
-0.00187039
-0.089922
-0.0012758
-0.0900509
-0.00087487
-0.0901316
-0.000502298
-0.0901408
-0.000249072
-3.38228e-05
-0.10592
-0.00537361
0.105705
-0.10622
-0.00383632
-0.106463
-0.00309007
-0.106756
-0.00214785
-0.106957
-0.00166922
-0.107155
-0.00107718
-0.107263
-0.000767232
-0.107352
-0.000412882
-0.10738
-0.000221901
-1.72493e-05
-0.125267
-0.00483555
0.124729
-0.12572
-0.00338355
-0.126082
-0.00272827
-0.126406
-0.00182318
-0.126643
-0.00143256
-0.126853
-0.000867469
-0.126988
-0.000631703
-0.127112
-0.000288989
-0.127174
-0.00016016
9.76838e-06
-0.144368
-0.0039492
0.143482
-0.145023
-0.00272882
-0.145555
-0.00219602
-0.145951
-0.00142743
-0.146259
-0.00112398
-0.146491
-0.000635494
-0.146666
-0.000456781
-0.146803
-0.000151888
-0.146885
-7.9035e-05
3.5127e-05
-0.160583
-0.00277973
0.159413
-0.161411
-0.0019001
-0.162084
-0.00152374
-0.162539
-0.000972278
-0.1629
-0.000762416
-0.163133
-0.000402744
-0.163313
-0.000276509
-0.163418
-4.68401e-05
-0.163481
-1.60073e-05
4.21882e-05
-0.171972
-0.00143365
0.170626
-0.172905
-0.000967
-0.173655
-0.000773869
-0.17414
-0.000487526
-0.174521
-0.000381816
-0.174732
-0.000191279
-0.174883
-0.000125327
-0.174929
-9.39506e-07
-0.174952
6.47833e-06
2.80035e-05
-0.177763
0.176329
-0.17873
-0.179504
-0.179991
-0.180373
-0.180564
-0.18069
-0.180691
-0.180684
-0.0122417
0.0539375
0.0112325
-0.0129361
0.0631961
-0.0134976
0.0747346
-0.0137924
0.0888349
-0.0135926
0.105505
-0.0126106
0.123747
-0.0106504
0.141522
-0.00772757
0.15649
-0.00406568
0.166964
0.172264
-0.0115994
0.0546766
0.0108603
-0.0122486
0.0638453
-0.012744
0.0752299
-0.0129518
0.0890427
-0.0126734
0.105227
-0.011665
0.122739
-0.00977866
0.139635
-0.0070529
0.153764
-0.00369587
0.163607
0.168568
-0.0109972
0.0553552
0.0103186
-0.0115833
0.0644315
-0.0120023
0.0756489
-0.0121358
0.0891762
-0.0118062
0.104897
-0.0108052
0.121738
-0.00901469
0.137845
-0.00647941
0.151229
-0.00338815
0.160516
0.16518
-0.0103004
0.0560122
0.00964339
-0.0108277
0.0649588
-0.0111656
0.0759868
-0.0112253
0.0892359
-0.0108532
0.104525
-0.00987456
0.120759
-0.00819805
0.136168
-0.00587154
0.148903
-0.0030636
0.157708
0.162116
-0.0094912
0.0566396
0.00886379
-0.0099632
0.0654308
-0.0102285
0.0762521
-0.0102262
0.0892336
-0.00982748
0.104126
-0.00888936
0.119821
-0.00734378
0.134623
-0.00524017
0.146799
-0.00272763
0.155196
0.159388
-0.00858915
0.0572267
0.00800204
-0.0089986
0.0658402
-0.00919513
0.0764487
-0.0091421
0.0891806
-0.00873322
0.103717
-0.0078547
0.118942
-0.00645763
0.133226
-0.00459063
0.144932
-0.00238346
0.152988
0.157005
-0.00761334
0.0577642
0.0070758
-0.00795452
0.0661814
-0.0080832
0.0765773
-0.00798737
0.0890847
-0.0075816
0.103312
-0.00677885
0.11814
-0.00554557
0.131992
-0.00392706
0.143314
-0.00203333
0.151095
0.154972
-0.00657915
0.0582408
0.00610257
-0.00685056
0.0664528
-0.00691331
0.0766401
-0.00678156
0.088953
-0.00638938
0.102919
-0.00567473
0.117425
-0.00461647
0.130934
-0.00325481
0.141952
-0.00167978
0.14952
0.153292
-0.00550348
0.0586434
0.0051009
-0.0057061
0.0666555
-0.00570541
0.0766394
-0.00554436
0.0887919
-0.00517415
0.102549
-0.00455664
0.116807
-0.00368063
0.130058
-0.00258029
0.140852
-0.00132584
0.148265
0.151966
-0.00440426
0.0589574
0.00409028
-0.00454206
0.0667932
-0.0044791
0.0765764
-0.00429482
0.0886077
-0.00395258
0.102207
-0.00343829
0.116293
-0.00274825
0.129368
-0.0019101
0.140013
-0.000974789
0.14733
0.150991
-0.00331121
0.0591735
0.00309514
-0.00338448
0.0668665
-0.00325911
0.0764511
-0.0030556
0.0884042
-0.00274395
0.101895
-0.00233547
0.115885
-0.00183126
0.128864
-0.00125201
0.139434
-0.000630494
0.146708
0.150361
-0.00224686
0.0592937
0.00212659
-0.00224928
0.0668689
-0.00206787
0.0762697
-0.00184472
0.088181
-0.00156466
0.101615
-0.00125931
0.115579
-0.000936949
0.128542
-0.000611928
0.139109
-0.000295877
0.146392
0.150065
-0.00124382
0.059333
0.00120457
-0.00116355
0.0667887
-0.000938926
0.0760451
-0.000694523
0.0879366
-0.000449167
0.10137
-0.000243613
0.115374
-9.71642e-05
0.128395
-1.67692e-05
0.139029
1.37569e-05
0.146362
0.150079
-0.000334985
0.0593316
0.000336333
-0.000157368
0.066611
8.98532e-05
0.0757978
0.000387963
0.0876385
0.000618626
0.101139
0.00074138
0.115251
0.00072862
0.128408
0.00058097
0.139176
0.000325635
0.146617
0.150404
0.00054133
0.0592601
-0.000469774
0.000812476
0.0663399
0.0011266
0.0754837
0.00142943
0.0873357
0.00163283
0.100936
0.00166842
0.115215
0.00150003
0.128576
0.00113311
0.139543
0.000612934
0.147137
0.151017
0.00135835
0.0591137
-0.00121198
0.00169574
0.0660025
0.00204886
0.0751306
0.00237388
0.0870106
0.00255892
0.100751
0.00251971
0.115255
0.00221061
0.128885
0.00164218
0.140112
0.000877038
0.147903
0.151894
0.00207859
0.0589304
-0.00189527
0.00248552
0.0655956
0.00287376
0.0747423
0.00322167
0.0866627
0.00339543
0.100577
0.00329384
0.115356
0.00285998
0.129319
0.00210832
0.140863
0.00111817
0.148893
0.153012
0.00271356
0.0587453
-0.00252852
0.00318017
0.065129
0.00359624
0.0743263
0.00396171
0.0862972
0.0041261
0.100413
0.00397177
0.11551
0.00342984
0.129861
0.00251727
0.141776
0.00132831
0.150082
0.154341
0.00328675
0.0585899
-0.00313134
0.00379712
0.0646186
0.00424018
0.0738832
0.00462358
0.0859138
0.00478568
0.100251
0.0045892
0.115707
0.00395107
0.130499
0.00289084
0.142836
0.00151892
0.151454
0.15586
0.00369558
0.0585987
-0.00370432
0.00420707
0.0641071
0.00467497
0.0734153
0.00506617
0.0855226
0.00522611
0.100091
0.00500511
0.115928
0.00430589
0.131198
0.00314573
0.143996
0.00164514
0.152954
0.157505
-0.0394339
0.0538168
0.0442157
-0.0356702
0.0603434
-0.0331917
0.0709368
-0.0306082
0.0829392
-0.0275624
0.0970448
-0.0236856
0.112051
-0.0188229
0.126336
-0.0130714
0.138245
-0.00668641
0.146569
0.150818
-0.0480671
0.0497192
0.0521647
-0.0446778
0.0569541
-0.0416257
0.0678847
-0.0381593
0.0794727
-0.0341727
0.0930582
-0.0291902
0.107069
-0.0230951
0.120241
-0.0160105
0.13116
-0.00822513
0.138784
0.142593
-0.0579103
0.0457976
0.0618319
-0.0544621
0.0535059
-0.0507258
0.0641484
-0.0463744
0.0751214
-0.0412661
0.0879499
-0.0349211
0.100724
-0.0273904
0.11271
-0.0188317
0.122602
-0.00954222
0.129494
0.133051
-0.0698001
0.0420755
0.0735221
-0.0658375
0.0495433
-0.0612579
0.0595688
-0.0559068
0.0697703
-0.0494869
0.08153
-0.0415806
0.0928173
-0.0324224
0.103552
-0.0222202
0.112399
-0.0113473
0.118621
0.121704
-0.0830766
0.0377469
0.0874053
-0.0782948
0.0447614
-0.0726325
0.0539066
-0.0658492
0.0629869
-0.057628
0.0733088
-0.0478026
0.082992
-0.0367872
0.0925363
-0.0247946
0.100407
-0.0123152
0.106142
0.109388
-0.0984476
0.0333902
0.102804
-0.0925209
0.0388348
-0.0855354
0.0469211
-0.0770362
0.0544877
-0.0669146
0.0631872
-0.0552266
0.071304
-0.0423041
0.0796138
-0.0284443
0.0865471
-0.0144205
0.0921181
0.094968
-0.113142
0.0271932
0.119339
-0.10595
0.0316427
-0.0972795
0.038251
-0.0865946
0.0438028
-0.0742465
0.050839
-0.0602065
0.057264
-0.0448081
0.0642154
-0.0285823
0.0703214
-0.0128851
0.0764209
0.0820829
-0.128808
0.0210482
0.134953
-0.120405
0.0232393
-0.110249
0.0280949
-0.0981239
0.0316782
-0.0843704
0.0370856
-0.0687449
0.0416385
-0.0518141
0.0472845
-0.0342116
0.0527189
-0.0180276
0.0602369
0.0640553
-0.14287
0.010201
0.153717
-0.131276
0.011646
-0.117427
0.014246
-0.101866
0.0161167
-0.0839497
0.0191694
-0.0640668
0.0217556
-0.0421497
0.0253674
-0.0191048
0.029674
0.00252822
0.0386039
0.0665835
-0.243162
0.253364
-0.231516
-0.21727
-0.201154
-0.181984
-0.160229
-0.134861
-0.105187
-0.0665835
0.00187949
0.0457764
-0.00344013
0.000483286
0.0535609
-0.000536392
0.0628516
-0.00125797
0.0742437
-0.00170422
0.0878515
-0.0018665
0.102967
-0.0016388
0.119111
-0.00124102
0.134555
-0.00179897
0.154275
0.251565
0.00225522
0.0473043
-0.00378315
0.000897546
0.0549186
-0.000171837
0.063921
-0.000922966
0.0749949
-0.0014148
0.0883434
-0.00161048
0.103162
-0.00146397
0.118964
-0.00111368
0.134205
-0.00159353
0.154754
0.249971
0.00270885
0.0487315
-0.00413609
0.00139063
0.0562368
0.000342759
0.0649688
-0.000438764
0.0757764
-0.000950087
0.0888547
-0.0011892
0.103401
-0.00111663
0.118892
-0.000872627
0.133961
-0.00138838
0.15527
0.248583
0.00316277
0.0500615
-0.00449277
0.00188936
0.0575102
0.000879075
0.0659791
6.6794e-05
0.0765887
-0.000417959
0.0893395
-0.00070297
0.103686
-0.000683176
0.118872
-0.000574107
0.133852
-0.00112412
0.15582
0.247459
0.00360924
0.0512929
-0.00484058
0.00239973
0.0587198
0.00143534
0.0669435
0.000679257
0.0773447
0.000154219
0.0898645
-0.000180621
0.104021
-0.00019067
0.118882
-0.000231985
0.133893
-0.000813673
0.156402
0.246645
0.00406449
0.0523967
-0.00516835
0.00294217
0.0598421
0.00203144
0.0678542
0.00131625
0.0780599
0.000806206
0.0903745
0.00044859
0.104379
0.000343237
0.118987
0.000182884
0.134054
-0.000462807
0.157048
0.246182
0.00452742
0.0533374
-0.00546809
0.00351478
0.0608547
0.00266755
0.0687015
0.00199749
0.07873
0.00149922
0.0908728
0.00113128
0.104747
0.000927107
0.119192
0.000677338
0.134303
-6.70619e-05
0.157792
0.246115
0.00499085
0.0540791
-0.00573251
0.00410707
0.0617385
0.00333399
0.0694746
0.0027161
0.0793479
0.00223342
0.0913555
0.00184895
0.105131
0.00155945
0.119481
0.00119354
0.134669
0.000322754
0.158663
0.246438
0.00544748
0.054585
-0.00595339
0.00470769
0.0624783
0.00401944
0.0701628
0.00346079
0.0799065
0.00300069
0.0918156
0.00259926
0.105533
0.00222726
0.119853
0.00173873
0.135158
0.000744129
0.159657
0.247182
0.00588414
0.0548221
-0.0061213
0.00530414
0.0630583
0.00471216
0.0707548
0.00421972
0.080399
0.00379039
0.0922449
0.00337272
0.10595
0.00292078
0.120305
0.00230886
0.13577
0.0011878
0.160778
0.24837
0.00628173
0.0547641
-0.00622367
0.00587835
0.0634617
0.00539605
0.0712371
0.00497591
0.0808191
0.00458411
0.0926367
0.00415426
0.10638
0.00362731
0.120832
0.00289413
0.136503
0.00164359
0.162029
0.250013
0.00663179
0.0543947
-0.00626237
0.00642246
0.063671
0.00606255
0.071597
0.00572152
0.0811601
0.00537355
0.0929847
0.00493752
0.106816
0.00434132
0.121428
0.00349024
0.137354
0.00210813
0.163411
0.252121
0.00691557
0.0537124
-0.00623331
0.00691727
0.0636693
0.00669047
0.0718238
0.00643591
0.0814147
0.0061388
0.0932818
0.00570519
0.10725
0.00504799
0.122085
0.00408602
0.138316
0.00257414
0.164923
0.254696
0.00712102
0.0527322
-0.00614079
0.0073476
0.0634427
0.0072634
0.071908
0.00710227
0.0815758
0.00686369
0.0935204
0.00644259
0.107671
0.00573486
0.122793
0.00467216
0.139379
0.00303486
0.16656
0.25773
0.00723929
0.0514876
-0.00599469
0.00770025
0.0629817
0.00776633
0.0718419
0.00770461
0.0816376
0.00753296
0.093692
0.0071354
0.108068
0.00639027
0.123538
0.00523991
0.140529
0.00348452
0.168316
0.261215
0.00726685
0.0500322
-0.00581142
0.00796514
0.0622835
0.00818547
0.0716216
0.00822827
0.0815948
0.00813208
0.0937882
0.00776874
0.108432
0.00700147
0.124305
0.00577933
0.141751
0.0039143
0.170181
0.265129
0.00720882
0.0484362
-0.00561287
0.00813579
0.0613565
0.0085106
0.0712468
0.00866228
0.0814431
0.008649
0.0938015
0.00833286
0.108748
0.00756139
0.125077
0.0062854
0.143027
0.00432057
0.172146
0.26945
0.00708159
0.0467747
-0.00542007
0.00820947
0.0602286
0.00873384
0.0707224
0.00899341
0.0811835
0.00906583
0.0937291
0.00880673
0.109007
0.00804858
0.125835
0.00674258
0.144333
0.00468873
0.174199
0.274139
0.00689616
0.0451045
-0.00522602
0.00819319
0.0589316
0.00887034
0.0700452
0.00924073
0.0808131
0.00940432
0.0935655
0.00921385
0.109198
0.00848302
0.126566
0.00716509
0.145651
0.00502639
0.176338
0.279165
0.00660807
0.0434154
-0.00491898
0.00797247
0.0575672
0.00880065
0.0692171
0.00927899
0.0803348
0.00954107
0.0933034
0.00943299
0.109306
0.00877018
0.127229
0.00746889
0.146952
0.00532384
0.178483
0.284489
-0.0201746
0.0427218
0.0208682
-0.0176879
0.0550805
-0.0147024
0.0662315
-0.0114765
0.0771089
-0.00823515
0.090062
-0.00481369
0.105884
-0.00127729
0.123692
0.00148586
0.144189
0.0013903
0.178579
0.285879
-0.0339287
0.0407183
0.0359322
-0.0306677
0.0518195
-0.0264124
0.0619763
-0.0217348
0.0724313
-0.0168849
0.0852121
-0.0116268
0.100626
-0.00613564
0.118201
-0.00149548
0.139549
1.28595e-05
0.17707
0.285892
-0.0488754
0.0379512
0.0516425
-0.0445298
0.0474738
-0.0389361
0.0563827
-0.0328824
0.0663776
-0.0264309
0.0787606
-0.0191988
0.0933938
-0.0115346
0.110537
-0.00477396
0.132788
-0.00148408
0.173781
0.284408
-0.065222
0.034379
0.0687942
-0.0595135
0.0417653
-0.0527903
0.0496595
-0.0454627
0.05905
-0.0372335
0.0705314
-0.0277985
0.0839589
-0.0177957
0.100534
-0.00874133
0.123734
-0.00322116
0.16826
0.281187
-0.083297
0.02946
0.088216
-0.0764768
0.0349452
-0.068945
0.0421277
-0.0601451
0.0502501
-0.0498841
0.0602704
-0.0381563
0.0722311
-0.0257259
0.0881038
-0.0140846
0.112093
-0.00570279
0.159879
0.275484
-0.103857
0.0240597
0.109257
-0.0961295
0.027218
-0.087498
0.0334962
-0.0769285
0.0396805
-0.0647392
0.0480811
-0.0509524
0.0584443
-0.0362752
0.0734266
-0.0219566
0.0977742
-0.0101453
0.148067
0.265339
-0.12714
0.0168442
0.134355
-0.118954
0.0190325
-0.109425
0.023967
-0.0977849
0.0280401
-0.0845954
0.0348915
-0.0693809
0.0432298
-0.0530422
0.0570879
-0.0359528
0.0806848
-0.0189569
0.131071
0.246382
-0.15818
0.00949632
0.165528
-0.149456
0.0103084
-0.139117
0.0136279
-0.127086
0.0160097
-0.113303
0.0211082
-0.0975125
0.0274392
-0.0800203
0.0395957
-0.0607286
0.0613931
-0.0367222
0.107065
0.209659
-0.213593
0.00273784
0.220352
-0.206562
0.00327764
-0.197689
0.00475486
-0.187894
0.00621396
-0.175907
0.00912153
-0.161817
0.013349
-0.143659
0.0214385
-0.118121
0.0358549
-0.0758096
0.0647534
0.13385
-0.292614
0.295351
-0.289336
-0.284581
-0.278367
-0.269246
-0.255897
-0.234458
-0.198603
-0.13385
0.00232164
0.0218345
-0.00328798
0.000599022
0.0376549
-0.00109666
0.0533382
-0.00259321
0.0702907
-0.00379812
0.0894209
-0.00476772
0.110227
-0.00530406
0.134892
-0.0056452
0.165869
-0.00445123
0.219158
0.2909
0.00208951
0.0224515
-0.00270652
0.000679449
0.0390649
-0.000884702
0.0549023
-0.00233445
0.0717404
-0.0035373
0.0906238
-0.00449432
0.111184
-0.00505742
0.135455
-0.00541473
0.166226
-0.00424718
0.21799
0.286653
0.00197253
0.0227737
-0.00229468
0.000861768
0.0401757
-0.000530475
0.0562946
-0.00187042
0.0730804
-0.00302188
0.0917752
-0.00395133
0.112113
-0.00455109
0.136055
-0.00489132
0.166567
-0.00387997
0.216979
0.282773
0.00194032
0.0228424
-0.00200902
0.00111449
0.0410015
-0.000111272
0.0575203
-0.00131183
0.0742809
-0.00238644
0.0928498
-0.00329467
0.113021
-0.00391949
0.136679
-0.00429408
0.166941
-0.00345524
0.21614
0.279318
0.00198656
0.0226721
-0.00181628
0.00144998
0.0415381
0.000444226
0.0585261
-0.000667512
0.0753927
-0.00166204
0.0938444
-0.00254754
0.113907
-0.00320312
0.137335
-0.00363231
0.16737
-0.00298203
0.21549
0.276336
0.00211126
0.0222598
-0.001699
0.00187371
0.0417756
0.00109191
0.0593079
6.31645e-05
0.0764214
-0.000833715
0.0947412
-0.00170571
0.114779
-0.00239955
0.138029
-0.00290415
0.167875
-0.00246793
0.215053
0.273868
0.00230547
0.0216014
-0.00164704
0.00237855
0.0417026
0.00182894
0.0598575
0.000984727
0.0772656
0.000101002
0.095625
-0.000774351
0.115654
-0.00150086
0.138755
-0.00211255
0.168487
-0.00191914
0.21486
0.271949
0.00255619
0.0206991
-0.00165384
0.0029519
0.0413069
0.00264424
0.0601651
0.00195532
0.0779546
0.00114231
0.096438
0.000245044
0.116551
-0.000502283
0.139503
-0.00126941
0.169254
-0.00133997
0.214931
0.270609
0.00284847
0.0195667
-0.00171611
0.00357723
0.0405781
0.00352215
0.0602202
0.00299233
0.0784844
0.0022492
0.0971811
0.00139522
0.117405
0.000542719
0.140355
-0.000398546
0.170195
-0.000731955
0.215264
0.269877
0.00316678
-0.00183478
0.00423441
0.00444611
0.00408305
0.00341513
0.00256632
0.00161765
0.000556577
-8.2397e-05
0.000196859
-0.00146723
0.000573266
-0.00340324
0.00105201
-0.00468042
0.00158947
-0.00546601
0.00216234
-0.0058876
0.00276017
-0.00604364
0.00338073
-0.0060099
0.00402804
-0.00584396
0.00471455
-0.00559044
-0.00528985
0.000203443
-0.00167067
0.000577579
-0.00377738
0.0010392
-0.00514204
0.00154343
-0.00597024
0.00206824
-0.00641241
0.00260553
-0.00658094
0.00315545
-0.00655982
0.00372306
-0.00641156
0.00431639
-0.00618377
-0.00591651
0.000200686
-0.00187136
0.000553044
-0.00412974
0.000971255
-0.00556025
0.00141166
-0.00641065
0.00185539
-0.00685613
0.00229813
-0.00702369
0.00274365
-0.00700534
0.00319954
-0.00686745
0.00367396
-0.0066582
-0.00641505
0.000187439
-0.0020588
0.000497605
-0.0044399
0.00084637
-0.00590902
0.00119414
-0.00675841
0.00152699
-0.00718899
0.00184547
-0.00734216
0.00215745
-0.00731732
0.00247361
-0.00718361
0.00280447
-0.00698905
-0.00676936
0.000163107
-0.0022219
0.000411059
-0.00468785
0.000666463
-0.00616442
0.000896761
-0.00698871
0.00109456
-0.00738679
0.00126576
-0.00751337
0.00142229
-0.00747385
0.0015776
-0.00733891
0.00174411
-0.00715557
-0.00695884
0.000127731
-0.00234963
0.000295117
-0.00485524
0.000436966
-0.00630627
0.000530554
-0.0070823
0.000576135
-0.00743237
0.000584882
-0.00752211
0.000572196
-0.00746116
0.000553357
-0.00732008
0.000541494
-0.00714371
-0.00696258
8.20341e-05
-0.00243167
0.000153295
-0.0049265
0.000166308
-0.00631928
0.000110389
-0.00702638
-6.20839e-06
-0.00731577
-0.000167
-0.00736132
-0.000354722
-0.00727344
-0.00055351
-0.00712129
-0.000750738
-0.00694648
-0.00677665
2.7502e-05
-0.00245917
-9.00286e-06
-0.00489
-0.000134871
-0.00619342
-0.000346405
-0.00681485
-0.000627459
-0.00703472
-0.000958247
-0.00703053
-0.00131998
-0.00691171
-0.00169761
-0.00674366
-0.00208001
-0.00656408
-0.00639708
-3.45506e-05
-0.00242462
-0.000186402
-0.00473815
-0.000454761
-0.00592506
-0.000821754
-0.00644785
-0.00126384
-0.00659263
-0.00175848
-0.00653589
-0.0022871
-0.00638309
-0.0028362
-0.00619457
-0.00339696
-0.00600331
-0.00582867
-0.000100904
-0.00232372
-0.000371226