/*--------------------------------*- C++ -*----------------------------------*\
  =========                 |
  \\      /  F ield         | OpenFOAM: The Open Source CFD Toolbox
   \\    /   O peration     | Website:  https://openfoam.org
    \\  /    A nd           | Version:  7
     \\/     M anipulation  |
\*---------------------------------------------------------------------------*/
FoamFile
{
    version     2.0;
    format      ascii;
    class       volScalarField;
    location    "22";
    object      p;
}
// * * * * * * * * * * * * * * * * * * * * * * * * * * * * * * * * * * * * * //

dimensions      [0 2 -2 0 0 0 0];

internalField   nonuniform List<scalar> 
2000
(
-0.0131514
-0.00927381
-0.00671339
-0.00374223
-0.000456016
0.00302463
0.00661748
0.0102461
0.0138638
0.0174611
-0.0119518
-0.00841245
-0.00613088
-0.00355876
-0.000742759
0.00226406
0.00542187
0.00867417
0.0119707
0.0153045
-0.0107218
-0.00757136
-0.00554043
-0.00331666
-0.000934059
0.00159828
0.00428129
0.00709222
0.00999649
0.0130005
-0.00950138
-0.0067729
-0.00497104
-0.00304426
-0.00103949
0.00104866
0.00324584
0.00556312
0.00799556
0.0105772
-0.00833028
-0.00603587
-0.00444451
-0.00276652
-0.00107413
0.000627647
0.00236515
0.00416675
0.00605696
0.00808128
-0.00724065
-0.00537057
-0.00397201
-0.00250104
-0.00105614
0.000333872
0.00167476
0.00298433
0.00430258
0.0055834
-0.00625943
-0.00478178
-0.00355714
-0.00225872
-0.00100542
0.000149457
0.00118135
0.00207417
0.00286168
0.00318197
-0.00541049
-0.00427427
-0.00320161
-0.00204737
-0.000942893
4.15743e-05
0.000855085
0.00144938
0.00181909
0.00103048
-0.00471249
-0.00385866
-0.00290943
-0.00187499
-0.00088958
-3.09487e-05
0.000637096
0.00106264
0.00114292
-0.000799831
-0.00419258
-0.00354001
-0.00268678
-0.00175088
-0.00086397
-0.000102654
0.000475806
0.000850295
0.000814593
-0.00174322
0.0250694
0.0361489
0.0451604
0.0518965
0.0567957
0.0603482
0.06206
0.0636652
0.0633195
0.0646724
0.0224523
0.0335983
0.0425508
0.049097
0.0538786
0.0573196
0.058886
0.0603591
0.060079
0.0613204
0.0195522
0.0309838
0.0399014
0.0462879
0.0510177
0.0543735
0.0558119
0.0571672
0.0568905
0.0580967
0.0164123
0.0283484
0.0371979
0.0434826
0.0482316
0.0515175
0.0528471
0.0540805
0.0537868
0.0550149
0.0131568
0.0257772
0.0344527
0.0407153
0.0455367
0.0487614
0.0499989
0.051101
0.050801
0.0520771
0.00997395
0.0232477
0.0316134
0.0379967
0.042936
0.0461159
0.0472763
0.0482271
0.0479307
0.0492795
0.007215
0.020825
0.0287513
0.0353856
0.0404361
0.0435862
0.0446867
0.045473
0.0452011
0.0466204
0.00506742
0.0181766
0.0257684
0.032839
0.0380202
0.0411864
0.0422418
0.0428206
0.0425709
0.044101
0.00400037
0.0156007
0.022971
0.0304203
0.0356882
0.0389036
0.0399452
0.0403204
0.0401128
0.0417236
0.00247124
0.012159
0.0199603
0.0278872
0.0334076
0.0367815
0.0378226
0.0378914
0.037707
0.0394681
0.00676677
0.00814479
0.0146712
0.0222851
0.0280132
0.0316305
0.0329874
0.0328166
0.0327443
0.0343127
0.00115526
0.0018289
0.00852392
0.0157131
0.0213043
0.0249907
0.0266957
0.0257425
0.02591
0.0272395
-0.00392404
-0.00204587
0.00485222
0.0113691
0.0163127
0.0196504
0.0211328
0.0208244
0.020725
0.0223028
-0.0066205
-0.00395138
0.0024724
0.00821626
0.0126523
0.0157895
0.0174342
0.0177517
0.0179634
0.0202476
-0.00672281
-0.00370089
0.00159111
0.00604893
0.00995234
0.0129012
0.0147911
0.0158529
0.0168482
0.0197049
-0.0057522
-0.002509
0.00123489
0.00470778
0.00800782
0.0106514
0.0126708
0.0142593
0.0157193
0.0183278
-0.00300891
-0.00044031
0.00131312
0.00370276
0.00622971
0.00843571
0.0103324
0.0120412
0.0135529
0.0155244
-0.000281066
0.00150152
0.0019771
0.00335534
0.004789
0.00619559
0.00758548
0.00897004
0.0101557
0.0114294
0.0017096
0.00195212
0.00178142
0.00242325
0.0031727
0.00395656
0.00475962
0.00558228
0.0062451
0.0069163
0.00198096
0.00210946
0.0014513
0.00102802
0.00112416
0.00140847
0.00170391
0.00198128
0.00211604
0.00224401
0.000564134
-0.000628108
-0.00404852
-0.00636329
-0.00630271
-0.00483769
-0.00193707
-4.93362e-05
0.00226061
0.00157872
0.000274379
-0.00111953
-0.00451925
-0.00677422
-0.00674707
-0.00534232
-0.00245684
-0.000331811
0.00209641
0.00127931
0.000291493
-0.00182322
-0.00533841
-0.00755536
-0.00747334
-0.00594086
-0.00299229
-0.000684422
0.00182031
0.00100115
-4.48154e-05
-0.00289442
-0.00649254
-0.00861043
-0.00836339
-0.00660776
-0.00352661
-0.00105236
0.00155612
0.000766009
-0.000870163
-0.00438846
-0.0080365
-0.00994723
-0.00941816
-0.00736991
-0.00409421
-0.00143744
0.00129566
0.000565449
-0.00229049
-0.00633818
-0.00991651
-0.0114954
-0.0105783
-0.00818053
-0.00467893
-0.00183278
0.00102393
0.000397453
-0.00424987
-0.00865878
-0.0119674
-0.0131142
-0.011749
-0.00898572
-0.00526121
-0.00222915
0.000735525
0.000254886
-0.00650515
-0.0111103
-0.0139623
-0.0146423
-0.0128367
-0.00973874
-0.00582044
-0.00261547
0.000431195
0.000123045
-0.00867623
-0.0133658
-0.0156789
-0.0159377
-0.0137628
-0.0103963
-0.00632995
-0.00297497
0.000121199
-1.36595e-06
-0.0104016
-0.0151338
-0.016951
-0.0169034
-0.0144666
-0.0109161
-0.00673247
-0.00330334
-0.000180352
-7.08769e-05
-0.0114664
-0.0162636
-0.0176895
-0.017492
-0.0149065
-0.0112627
-0.00706232
-0.00357575
-0.000495424
-7.09439e-05
-0.0118039
-0.0167382
-0.0178944
-0.017698
-0.0150746
-0.011442
-0.0072857
-0.00378621
-0.000789535
-9.6149e-05
-0.0114537
-0.0165928
-0.0176669
-0.0175299
-0.0149996
-0.0114391
-0.00740285
-0.00394858
-0.00104967
-0.000154698
-0.0105622
-0.0159371
-0.0170635
-0.0170671
-0.0147143
-0.0113005
-0.00743226
-0.00406981
-0.00127871
-0.000230375
-0.00926475
-0.0149214
-0.0161836
-0.0163767
-0.014273
-0.0110587
-0.00739637
-0.00415715
-0.00147861
-0.000310304
-0.00769883
-0.0136629
-0.015131
-0.0155263
-0.0137291
-0.0107504
-0.00731614
-0.004218
-0.00165057
-0.000387331
-0.00599299
-0.0122559
-0.0139941
-0.0145809
-0.0131245
-0.0104021
-0.0072075
-0.00425782
-0.00179641
-0.000457633
-0.00420534
-0.0107513
-0.0128285
-0.013599
-0.0124899
-0.0100054
-0.00708314
-0.00428068
-0.00191871
-0.000519839
-0.00229003
-0.00910125
-0.0116388
-0.0126076
-0.0118584
-0.00984308
-0.00696572
-0.0042946
-0.00202252
-0.00057381
-0.000683802
-0.00736573
-0.0104169
-0.0115492
-0.0111728
-0.00940626
-0.00684771
-0.00429069
-0.00210914
-0.000614543
0.000441853
-0.00386598
-0.00745552
-0.00888925
-0.00912373
-0.00792107
-0.00614318
-0.00408017
-0.00220441
-0.000663631
0.00192385
-0.00160257
-0.00443571
-0.00582559
-0.00641388
-0.00584799
-0.0047717
-0.00332356
-0.00187119
-0.000541748
0.00455841
0.00117595
-0.00163437
-0.00317919
-0.00410886
-0.00404105
-0.00352384
-0.0025281
-0.00140362
-0.000302233
0.00708454
0.00383389
0.000980548
-0.000804567
-0.0020658
-0.00243053
-0.00233235
-0.00167413
-0.000814342
2.17752e-05
0.00974033
0.00632167
0.00336315
0.00133162
-0.000259443
-0.000996958
-0.00123902
-0.000821048
-9.75368e-05
0.000478119
0.012566
0.00885143
0.00558934
0.00321861
0.00131657
0.000241044
-0.000253813
7.26472e-05
0.000748299
0.00104664
0.0153453
0.0112262
0.00761705
0.00488742
0.00267169
0.00130923
0.0006769
0.000987335
0.00164391
0.00164625
0.0178977
0.013223
0.0093759
0.00633494
0.00386151
0.00229301
0.00160254
0.00189174
0.00244646
0.00208002
0.0201925
0.0156376
0.011181
0.007564
0.00483549
0.0031683
0.00245708
0.00255813
0.00273369
0.00193774
0.0226678
0.0159912
0.0112956
0.00783934
0.00532781
0.00376333
0.00303057
0.00282849
0.0025265
0.00145647
0.00373992
0.00544814
0.00751147
0.00965165
0.0124654
0.0153556
0.018273
0.0215678
0.022937
0.028267
0.00519872
0.00708025
0.00901756
0.0111349
0.0141054
0.017043
0.020093
0.0234424
0.0250395
0.0295092
0.00651969
0.00843619
0.0104481
0.0128313
0.0160875
0.0192126
0.0225069
0.0258688
0.0279991
0.0301875
0.00761993
0.00946213
0.01158
0.0142832
0.0178186
0.0211978
0.0247589
0.0282507
0.0307748
0.0316705
0.00855945
0.0103958
0.0126409
0.0156155
0.0193739
0.0229824
0.0267742
0.0304341
0.0332389
0.0340023
0.00935266
0.0113251
0.0137845
0.0170188
0.0209761
0.0247786
0.02876
0.0325613
0.0355948
0.0367734
0.00999173
0.0122284
0.0150085
0.0185385
0.0227205
0.0267219
0.0308874
0.0348117
0.0380383
0.0396698
0.0104795
0.0130883
0.0162737
0.0201382
0.0245914
0.028826
0.0332037
0.0372691
0.0406628
0.0425948
0.0108274
0.0139139
0.0175682
0.0217863
0.0265542
0.0310549
0.0356837
0.0399292
0.0434841
0.0455834
0.0110483
0.0147201
0.0189002
0.0234723
0.0285966
0.0333775
0.0382932
0.0427534
0.0464846
0.0486958
0.0111548
0.0155163
0.0202776
0.0251902
0.0307236
0.03578
0.0410184
0.0457144
0.0496493
0.05197
0.0111544
0.0162982
0.0216926
0.0269278
0.0329299
0.0382589
0.0438561
0.0487988
0.0529688
0.0554137
0.0110456
0.0170464
0.0231096
0.0286835
0.035185
0.0408309
0.046804
0.052027
0.0564492
0.0590269
0.0108131
0.0177295
0.0244818
0.0304647
0.037443
0.0434977
0.0498623
0.055403
0.060089
0.0628044
0.0104207
0.0183108
0.0257637
0.0322768
0.0397211
0.0462459
0.0530131
0.05892
0.0638962
0.0667562
0.00981609
0.0187584
0.0269767
0.0340512
0.041982
0.0490078
0.0562141
0.0625381
0.0678522
0.0708783
0.00898287
0.0191028
0.0280906
0.0357449
0.0442126
0.0517803
0.0594862
0.0662842
0.0719779
0.075195
0.00784412
0.0192671
0.0290113
0.0372828
0.0463188
0.0544709
0.0627293
0.0700733
0.0762272
0.079691
0.00648551
0.0193639
0.0298082
0.0387543
0.0483723
0.0571634
0.0660228
0.0739755
0.0806397
0.084411
0.00434491
0.0187834
0.0300301
0.0396877
0.049891
0.0593799
0.0689231
0.0776603
0.0850556
0.0893079
0.00386725
0.0200827
0.032486
0.0437799
0.0551701
0.0662409
0.0772965
0.087737
0.0966052
0.101925
0.0139402
0.0297901
0.0423261
0.0550759
0.0684233
0.0818986
0.095649
0.108871
0.120214
0.12685
0.026384
0.0424319
0.0553317
0.0695981
0.0849645
0.101379
0.118234
0.134676
0.148863
0.157304
0.0393734
0.0556656
0.0696508
0.0859891
0.104099
0.124229
0.144801
0.16512
0.182638
0.192947
0.0519529
0.0688474
0.0845748
0.103552
0.125429
0.15012
0.175325
0.200196
0.22141
0.234077
0.0643796
0.0823828
0.100569
0.12286
0.149321
0.179346
0.210076
0.240103
0.26529
0.279805
0.0769135
0.0965002
0.117766
0.144044
0.175584
0.211392
0.24809
0.283587
0.312598
0.329825
0.0906222
0.111477
0.136141
0.166927
0.203705
0.245262
0.288074
0.32944
0.361878
0.378217
0.102071
0.124307
0.152041
0.1866
0.227642
0.273833
0.32199
0.369023
0.404635
0.423526
0.110245
0.133506
0.16349
0.200719
0.244611
0.293982
0.346767
0.40031
0.441093
0.445945
-0.00193285
0.00732197
0.0176257
0.0294089
0.0408059
0.0528391
0.0645761
0.0789545
0.0905261
0.0992379
-0.00387717
0.00609726
0.016041
0.0274272
0.0384205
0.0502524
0.061851
0.0761622
0.087599
0.0961605
-0.00460514
0.00614021
0.0162988
0.0276969
0.038673
0.0505025
0.0622364
0.0763984
0.0871326
0.0951472
-0.00496938
0.00590339
0.016114
0.0276665
0.0388211
0.0508631
0.062907
0.0769771
0.0871364
0.0945754
-0.00492068
0.00566778
0.0157386
0.0273253
0.0385969
0.0508496
0.0631689
0.0771519
0.0869415
0.0938945
-0.00437528
0.00583412
0.0158063
0.0273717
0.0386811
0.0510679
0.0635185
0.0773352
0.0867801
0.0932754
-0.00332762
0.00649934
0.01655
0.0281376
0.0395308
0.0520473
0.0645495
0.0781113
0.0871235
0.0931103
-0.00176061
0.00770534
0.017978
0.0296373
0.0412205
0.0539216
0.0664895
0.079754
0.0882533
0.0936627
0.000355226
0.00951591
0.0200847
0.0318285
0.0436797
0.0566041
0.0692634
0.0822239
0.0901726
0.0949662
0.00303514
0.0119673
0.0228719
0.0346881
0.0468364
0.0599769
0.0727007
0.0853532
0.0927274
0.0968975
0.00626602
0.0150292
0.026308
0.0381753
0.0506202
0.0639426
0.0766495
0.0889844
0.0957529
0.0992969
0.00999019
0.01858
0.0302927
0.0421845
0.0549276
0.068395
0.0809856
0.0930028
0.099135
0.102043
0.0140485
0.0224617
0.0346496
0.0465662
0.0596291
0.0731982
0.0856087
0.0973168
0.102796
0.105083
0.0182398
0.0265403
0.0392026
0.0511816
0.0645818
0.0782199
0.0904317
0.101823
0.106656
0.108401
0.0223699
0.0306978
0.043792
0.0559089
0.069646
0.0833422
0.0953764
0.106415
0.110661
0.111968
0.026254
0.034806
0.0482578
0.0606174
0.0746752
0.0884408
0.100341
0.110971
0.114777
0.115684
0.0297408
0.0387547
0.0524751
0.0652013
0.0795603
0.0934239
0.105244
0.115412
0.119009
0.119471
0.032646
0.0423826
0.0562816
0.0694895
0.084142
0.0981476
0.109958
0.11962
0.123261
0.123269
0.035003
0.0457179
0.0597216
0.0734956
0.0884308
0.102608
0.114468
0.123717
0.127396
0.127074
0.0362547
0.048158
0.0622352
0.0766067
0.0918885
0.106342
0.118396
0.127482
0.131169
0.130865
0.0417249
0.0562933
0.070364
0.0857354
0.101317
0.116026
0.128264
0.136914
0.140351
0.140052
0.0586981
0.0731216
0.0871113
0.10262
0.117552
0.131571
0.142995
0.150795
0.153898
0.153761
0.0732163
0.0878907
0.10224
0.117573
0.131717
0.145012
0.155593
0.162924
0.166196
0.166587
0.0845551
0.0992963
0.114035
0.129057
0.142872
0.155831
0.166189
0.173933
0.178381
0.180119
0.0930917
0.107897
0.122757
0.137481
0.151436
0.164473
0.175449
0.184786
0.191837
0.196444
0.099731
0.114445
0.129303
0.143909
0.158277
0.171866
0.184477
0.197134
0.209524
0.220477
0.104035
0.119019
0.133857
0.148482
0.16347
0.178279
0.193732
0.212013
0.233808
0.257541
0.108027
0.12311
0.138153
0.153363
0.16925
0.186147
0.206156
0.233968
0.272676
0.32072
0.108848
0.123856
0.138931
0.154544
0.17177
0.192188
0.220163
0.262894
0.328557
0.418631
0.111356
0.127422
0.144191
0.162403
0.183885
0.211586
0.251439
0.31384
0.41482
0.558568
0.0350988
0.0499317
0.0637132
0.0748965
0.0834191
0.0907836
0.0946403
0.0988241
0.0992742
0.101498
0.0350302
0.0490796
0.0619827
0.0724718
0.0805369
0.0876848
0.0911579
0.0952056
0.0953771
0.0977667
0.036581
0.0505036
0.0623194
0.0716774
0.0788997
0.0852374
0.0881689
0.0918193
0.0916413
0.094287
0.0364773
0.0502884
0.0615076
0.0701629
0.0768671
0.0825522
0.0851068
0.0884002
0.0879371
0.0905747
0.0354774
0.0487689
0.0595671
0.0677734
0.0742578
0.0795158
0.0818616
0.0848868
0.0842181
0.0866604
0.034284
0.0469358
0.0572314
0.0652414
0.0714151
0.0763156
0.0785444
0.0813218
0.0805116
0.0827279
0.0329652
0.0450955
0.0549443
0.0626546
0.0685162
0.0730678
0.07525
0.0777498
0.0768659
0.0789053
0.0313933
0.0431269
0.052642
0.0600526
0.0656054
0.0698211
0.0719476
0.074184
0.073321
0.0752214
0.0295355
0.040955
0.0502361
0.0573953
0.0626801
0.0666128
0.0686256
0.0706177
0.0699004
0.0716425
0.0274218
0.0386094
0.0477283
0.0546692
0.0597388
0.0634515
0.0653161
0.0670906
0.0665857
0.0681257
-0.00386875
-0.00332235
-0.00254072
-0.00168454
-0.000881955
-0.000199777
0.000328598
0.00075235
0.00122983
0.00135619
-0.00374331
-0.00320715
-0.00247259
-0.00168082
-0.000957461
-0.000364496
6.96827e-05
0.000359764
0.000525951
0.000418458
-0.00380726
-0.00318328
-0.00247205
-0.00173023
-0.00108063
-0.000581983
-0.000261388
-0.000126629
-0.000244034
-0.000672536
-0.00403414
-0.00322867
-0.00251734
-0.00181009
-0.00122538
-0.000815621
-0.000601488
-0.00059047
-0.000860257
-0.00145655
-0.0043706
-0.00332367
-0.00258323
-0.0018958
-0.0013694
-0.00104663
-0.00093716
-0.00103731
-0.00138785
-0.00201904
-0.00477565
-0.00343601
-0.00264862
-0.00197307
-0.0015073
-0.00128244
-0.00129226
-0.0015157
-0.00194253
-0.00256382
-0.0051986
-0.00354469
-0.00270334
-0.00204274
-0.00165278
-0.00155229
-0.00171498
-0.00209926
-0.00265618
-0.00331933
-0.00558908
-0.00363444
-0.00274494
-0.00211395
-0.0018253
-0.00188437
-0.00224194
-0.00283414
-0.00358629
-0.00438756
-0.00589953
-0.00369053
-0.00276988
-0.00218942
-0.00202781
-0.00227489
-0.00285615
-0.00368462
-0.00466369
-0.00567396
-0.00609283
-0.00369932
-0.00276753
-0.00225383
-0.00223121
-0.00267107
-0.00347205
-0.00452421
-0.0057135
-0.00693972
-0.00615012
-0.00365037
-0.00271703
-0.00226925
-0.00237293
-0.00297845
-0.00395754
-0.00518001
-0.00652499
-0.00791213
-0.0059757
-0.00347567
-0.00255159
-0.00216006
-0.00236129
-0.00308473
-0.00417846
-0.00549846
-0.00692838
-0.0083913
-0.00553821
-0.00314165
-0.00222408
-0.001864
-0.00212055
-0.00290431
-0.00404523
-0.00539292
-0.00684029
-0.00829792
-0.00481157
-0.00260967
-0.00168627
-0.00132799
-0.00159885
-0.00239323
-0.00352875
-0.00485328
-0.00626669
-0.00766414
-0.00378036
-0.00184693
-0.000905254
-0.000525126
-0.000781706
-0.00155653
-0.00265753
-0.00393162
-0.00527799
-0.00658486
-0.00245022
-0.000839162
0.000126227
0.00053928
0.000308014
-0.000439348
-0.00149903
-0.00271645
-0.00398273
-0.00518916
-0.000851254
0.000401684
0.00138963
0.0018307
0.00161789
0.000890807
-0.000138538
-0.00130967
-0.00250172
-0.00361422
0.000963052
0.00183868
0.00284271
0.00329323
0.00308286
0.0023578
0.00133786
0.000189205
-0.000957349
-0.00199684
0.00291963
0.00342257
0.00441491
0.00486055
0.00463779
0.00389588
0.00285795
0.00168553
0.000513075
-0.000488534
0.00492619
0.00507377
0.0060325
0.00646306
0.00622868
0.00547409
0.00441111
0.00316775
0.00185705
0.000827003
0.00689188
0.00670921
0.00761476
0.00802574
0.00779949
0.00707934
0.0060758
0.00491706
0.0037539
0.00317676
0.00874521
0.00824984
0.00907783
0.00946273
0.00925535
0.0085902
0.00766816
0.00661869
0.00559855
0.00509162
0.0103763
0.00960934
0.0103445
0.0106956
0.010505
0.00989257
0.00904494
0.00808618
0.0071554
0.00662932
0.0117068
0.0107226
0.0113564
0.0116661
0.0114856
0.0109179
0.0101362
0.00926301
0.00841604
0.00788594
0.0126863
0.0115455
0.0120761
0.0123398
0.0121636
0.011635
0.0109172
0.0101334
0.0093845
0.00888864
0.0132886
0.0120548
0.0124865
0.0127037
0.0125291
0.012038
0.0113869
0.0106998
0.0100654
0.00964036
0.013511
0.0122472
0.012589
0.0127617
0.0125883
0.0121358
0.011556
0.010974
0.0104688
0.0101458
0.0133718
0.0121361
0.0123987
0.0125298
0.0123576
0.011945
0.0114407
0.0109706
0.0106066
0.010414
0.0129056
0.0117481
0.0119412
0.0120316
0.0118588
0.0114854
0.0110589
0.0107049
0.0104911
0.0104546
0.0121572
0.0111183
0.0112503
0.0112974
0.0111183
0.0107795
0.0104291
0.0101921
0.0101337
0.0102762
0.0111776
0.0102878
0.0103673
0.0103672
0.0101717
0.00985744
0.00957627
0.00945187
0.0095481
0.00988645
0.0100382
0.00930276
0.00932078
0.00925835
0.0090314
0.00872988
0.00851042
0.00849421
0.00874118
0.00928596
0.00879032
0.0082048
0.00814996
0.00800704
0.0077299
0.00742433
0.00725456
0.00733826
0.00772553
0.00847149
0.00748878
0.00703512
0.00689198
0.00664695
0.00629816
0.00596763
0.00583215
0.00600477
0.00651869
0.0074349
0.00618682
0.00583348
0.00558193
0.00521029
0.00476857
0.00438513
0.00426813
0.00451599
0.00514373
0.00619108
0.0049304
0.00464099
0.00425462
0.00373033
0.00318158
0.00269945
0.00259312
0.00289301
0.00360656
0.00479589
0.00377175
0.00348902
0.00294206
0.00223599
0.00152943
0.000996468
0.000850334
0.00117621
0.00194309
0.00320493
0.00275198
0.00241396
0.00168401
0.000774058
-0.000100607
-0.000731466
-0.000929626
-0.000598494
0.000195846
0.00145363
0.00190825
0.00145079
0.000519766
-0.000610223
-0.00166733
-0.00242324
-0.00269612
-0.00238473
-0.0015678
-0.000346373
0.00127146
0.000631961
-0.000509659
-0.00186676
-0.00311474
-0.00401313
-0.00438804
-0.00415449
-0.00332161
-0.00205019
0.00086581
-1.506e-05
-0.00136548
-0.00294391
-0.00437763
-0.00541678
-0.0058839
-0.00577063
-0.00475893
-0.00287248
0.000706601
-0.000470052
-0.00201546
-0.00378629
-0.00538702
-0.00656761
-0.00717829
-0.00714758
-0.00629684
-0.00443084
0.000788123
-0.000718747
-0.00242768
-0.00435126
-0.00608094
-0.00737415
-0.00809878
-0.00817808
-0.00749573
-0.00611573
0.00108438
-0.000753696
-0.00258818
-0.00461193
-0.00641689
-0.00777387
-0.0085643
-0.00871754
-0.00815702
-0.0070336
0.0015622
-0.000595688
-0.00250236
-0.00456425
-0.00638248
-0.00774524
-0.00854816
-0.00873424
-0.00826271
-0.00727885
0.00216886
-0.000277754
-0.00219478
-0.00422782
-0.0059947
-0.00730438
-0.00806955
-0.00825425
-0.00785055
-0.00695573
0.0028319
0.000152169
-0.001707
-0.00364161
-0.00529248
-0.00649166
-0.0071705
-0.00731695
-0.00695013
-0.00610591
0.00347434
0.000633829
-0.00109353
-0.00285805
-0.00432851
-0.00536053
-0.00590335
-0.00596676
-0.00558986
-0.00475142
0.00401352
0.00109981
-0.000416752
-0.00193767
-0.0031631
-0.00397069
-0.00432434
-0.00424991
-0.00379887
-0.0029055
0.00437913
0.00148546
0.000259909
-0.000943787
-0.00185988
-0.00238493
-0.00249233
-0.00221586
-0.00161223
-0.000589075
0.00453087
0.00174244
0.000881342
6.47572e-05
-0.000480323
-0.000665823
-0.000468571
7.85962e-05
0.000919537
0.00215411
0.00435385
0.0017856
0.00137233
0.00101538
0.000902542
0.00111262
0.0016723
0.00255768
0.00371643
0.00524103
0.00381846
0.00157802
0.00168611
0.00185319
0.00222638
0.00288066
0.00385236
0.00513242
0.00667286
0.00854718
0.00291538
0.00109895
0.00178709
0.0025305
0.00343258
0.00456855
0.00598889
0.0077031
0.00966669
0.011927
0.00165284
0.000342048
0.00165114
0.00300833
0.00446898
0.00611074
0.00800104
0.0101695
0.0125741
0.0152339
6.34925e-05
-0.000678923
0.00127013
0.0032606
0.00529415
0.0074506
0.0098148
0.0124354
0.0152722
0.0183225
-0.00179536
-0.00192884
0.000653749
0.00327648
0.00588041
0.00854467
0.0113705
0.0144221
0.0176598
0.0210708
-0.00384567
-0.00335319
-0.000170914
0.00306094
0.0062154
0.00936476
0.0126238
0.0160648
0.0196391
0.0233472
-0.00599384
-0.00488158
-0.00116124
0.00263374
0.00630161
0.00989794
0.013549
0.0173322
0.0211723
0.0251009
-0.00813666
-0.0064322
-0.00226204
0.00202805
0.00615699
0.0101501
0.0141398
0.0182167
0.0222462
0.0261768
-0.0101772
-0.00791902
-0.00341256
0.00128556
0.00580921
0.0101391
0.0143987
0.0187077
0.0229494
0.0267997
-0.0120568
-0.00926637
-0.00455528
0.000454377
0.00529504
0.00989861
0.0143628
0.0188208
0.0232586
0.0273545
-0.0136555
-0.0103896
-0.00560981
-0.000410007
0.00465761
0.00946885
0.0140921
0.0186504
0.0231966
0.0275728
-0.0148955
-0.0112327
-0.00650913
-0.00125102
0.00394074
0.0088855
0.0136185
0.0182386
0.022818
0.0272469
-0.0157361
-0.0117571
-0.00720871
-0.00202276
0.00318504
0.00817875
0.0129567
0.0175892
0.0221406
0.026529
-0.0161639
-0.0119527
-0.00767654
-0.00268693
0.00242583
0.00737983
0.0121327
0.0167231
0.0212004
0.0254869
-0.0161903
-0.0118384
-0.00789794
-0.00321245
0.00169596
0.00652088
0.0111818
0.0156855
0.0200737
0.0242882
-0.0158496
-0.0114574
-0.0078795
-0.00357981
0.00102357
0.00563072
0.0101329
0.0145037
0.0187689
0.0228906
-0.0151951
-0.0108688
-0.00764983
-0.00378436
0.000430675
0.00473463
0.00900696
0.0131909
0.0172867
0.0212729
-0.0142814
-0.0101302
-0.00725163
-0.0038372
-6.9867e-05
0.00385423
0.00782354
0.0117622
0.0156435
0.019455
)
;

boundaryField
{
    inlet
    {
        type            zeroGradient;
    }
    outlet
    {
        type            fixedValue;
        value           uniform 0;
    }
    cylinder
    {
        type            zeroGradient;
    }
    top
    {
        type            symmetryPlane;
    }
    bottom
    {
        type            symmetryPlane;
    }
    defaultFaces
    {
        type            empty;
    }
}


// ************************************************************************* //
