/*--------------------------------*- C++ -*----------------------------------*\
  =========                 |
  \\      /  F ield         | OpenFOAM: The Open Source CFD Toolbox
   \\    /   O peration     | Website:  https://openfoam.org
    \\  /    A nd           | Version:  7
     \\/     M anipulation  |
\*---------------------------------------------------------------------------*/
FoamFile
{
    version     2.0;
    format      ascii;
    class       surfaceScalarField;
    location    "22";
    object      phi;
}
// * * * * * * * * * * * * * * * * * * * * * * * * * * * * * * * * * * * * * //

dimensions      [0 3 -1 0 0 0 0];

internalField   nonuniform List<scalar> 
3880
(
0.000830222
0.00202301
-0.00285323
0.00282624
0.00804547
-0.0100415
0.00555903
0.0145165
-0.0172493
0.00852609
0.0205541
-0.0235211
0.0113374
0.0256633
-0.0284746
0.0137858
0.0297043
-0.0321528
0.0158187
0.0327613
-0.0347941
0.0174759
0.0350115
-0.0366686
0.0188323
0.0366436
-0.0380001
0.0378062
0.0199636
-0.0389374
0.000721114
0.00130189
0.0025837
0.00618288
0.00531331
0.0117869
0.00850172
0.0173657
0.0117501
0.0224149
0.0147722
0.0266822
0.0174189
0.0301146
0.0196532
0.0327772
0.0215071
0.0347897
0.0362708
0.0230425
0.000601651
0.000700241
0.00226928
0.00451525
0.00486571
0.00919046
0.00810688
0.0141245
0.0116444
0.0188774
0.0151615
0.0231651
0.018429
0.0268471
0.0213189
0.0298873
0.0237891
0.0323195
0.0342061
0.0258537
0.000478713
0.000221528
0.00191065
0.00308331
0.0042657
0.00683541
0.00738482
0.0110054
0.0110118
0.0152504
0.0148581
0.0193189
0.0186604
0.0230448
0.0222158
0.0263319
0.0253953
0.02914
0.0314678
0.0281336
0.000357433
-0.000135905
0.00153305
0.0019077
0.00357116
0.0047973
0.00641651
0.00816003
0.00991805
0.0117489
0.0138601
0.0153768
0.0180026
0.0189023
0.0221144
0.0222201
0.0260026
0.0252518
0.0279503
0.0295201
0.000241642
-0.000377547
0.00115778
0.000991562
0.00283867
0.0031164
0.00530204
0.00569666
0.0084893
0.00856162
0.012275
0.0115912
0.0164858
0.0146914
0.0209205
0.0177854
0.0253731
0.0207992
0.0236649
0.0296585
0.000134712
-0.000512259
0.000802626
0.000323649
0.00211808
0.00180095
0.00414161
0.00367313
0.00688106
0.00582218
0.0102929
0.00817935
0.0142878
0.0106965
0.0187396
0.0133336
0.0234869
0.0160519
0.0187864
0.0283654
4.10853e-05
-0.000553344
0.000484155
-0.00011942
0.0014533
0.000831805
0.00302651
0.00209992
0.00524973
0.00359896
0.0081388
0.00529028
0.0116825
0.00715275
0.0158491
0.00916704
0.0205679
0.0113332
0.0136161
0.0257382
-3.72634e-05
-0.000516081
0.000219704
-0.000376388
0.000886421
0.000165089
0.00204073
0.000945609
0.00374171
0.00189798
0.00603715
0.00299484
0.00897181
0.00421809
0.0125997
0.00553914
0.0169851
0.0069478
0.00840292
0.0221982
-9.14306e-05
-0.00042465
2.95289e-05
-0.000497347
0.000460859
-0.000266241
0.00126707
0.000139396
0.00249846
0.000666584
0.00420377
0.00128954
0.00643965
0.00198221
0.00928957
0.00268922
0.0129857
0.00325168
0.0180505
0.00333812
0.0175479
0.143739
-0.141323
0.0148324
0.144043
-0.141327
0.0122587
0.141356
-0.138782
0.00979785
0.138471
-0.13601
0.00755476
0.135911
-0.133668
0.00557674
0.134959
-0.132981
0.00376804
0.14064
-0.138831
0.00217951
0.166576
-0.164988
0.000855467
0.221559
-0.220235
0.287351
-0.286496
0.0204543
0.146327
0.0174167
0.147081
0.0144792
0.144294
0.0116474
0.141303
0.00907179
0.138486
0.00680501
0.137226
0.00481082
0.142634
0.0031046
0.168282
0.00147576
0.223188
0.288827
0.0233424
0.148838
0.0200588
0.150364
0.0167569
0.147596
0.0135456
0.144514
0.0106237
0.141408
0.00804952
0.1398
0.00585195
0.144832
0.00401412
0.17012
0.00208901
0.225113
0.290916
0.0261327
0.150839
0.0227232
0.153774
0.0190606
0.151258
0.0154729
0.148102
0.0121989
0.144682
0.00930429
0.142695
0.00688392
0.147252
0.00490293
0.172101
0.00268808
0.227328
0.293604
0.028722
0.151638
0.0254006
0.157095
0.0213872
0.155272
0.0174215
0.152067
0.0137826
0.148321
0.0105506
0.145927
0.00788839
0.149914
0.00575052
0.174239
0.00326361
0.229815
0.296868
0.0309198
0.150376
0.0279574
0.160058
0.0236677
0.159561
0.0193694
0.156366
0.0153704
0.15232
0.0117911
0.149506
0.00886949
0.152836
0.00656387
0.176545
0.00381363
0.232565
0.300681
0.0326672
0.146074
0.0304382
0.162287
0.0259498
0.16405
0.0213108
0.161005
0.0169292
0.156702
0.0129878
0.153447
0.00978848
0.156035
0.00730565
0.179027
0.0043222
0.235549
0.305003
0.0335627
0.13825
0.0324129
0.163436
0.0280582
0.168404
0.0232198
0.165843
0.0184984
0.161423
0.0141994
0.157746
0.0106998
0.159535
0.00801261
0.181715
0.00479959
0.238762
0.309803
0.0341234
0.126325
0.0343773
0.163182
0.0301786
0.172603
0.02504
0.170982
0.0199392
0.166524
0.0152732
0.162412
0.0114757
0.163332
0.00859796
0.184592
0.00520861
0.242151
0.315012
0.0329109
0.111464
0.0353997
0.160694
0.0321482
0.175855
0.0270062
0.176124
0.0216313
0.171899
0.0165812
0.167462
0.0124092
0.167504
0.00922454
0.187777
0.0056576
0.245718
0.320669
0.0311994
0.0971184
-0.0168535
0.0337688
0.158124
0.0298127
0.179811
0.0230932
0.182843
0.0157689
0.179223
0.00893957
0.174292
0.0029141
0.17353
-0.00122896
0.19192
-0.00191602
0.246405
0.318753
0.0227986
0.0923836
-0.0180638
0.025221
0.155702
0.0228113
0.18222
0.0182995
0.187355
0.0129365
0.184586
0.00690734
0.180321
0.000362649
0.180075
-0.00420811
0.196491
-0.00372233
0.245919
0.315031
0.0162028
0.093443
-0.0172622
0.0173915
0.154513
0.0147021
0.18491
0.00936462
0.192693
0.00327771
0.190673
-0.00287567
0.186474
-0.00864791
0.185847
-0.0119409
0.199784
-0.00831457
0.242293
0.306716
0.00739728
0.0977502
-0.0117045
0.00879276
0.153118
0.00978867
0.183914
0.0080218
0.19446
0.00358352
0.195111
-0.00304052
0.193098
-0.0104667
0.193273
-0.0154362
0.204753
-0.0120046
0.238861
0.294712
0.00141682
0.102407
-0.00607412
0.000867319
0.153667
-0.000519594
0.185301
-0.00271
0.19665
-0.00634449
0.198746
-0.0115191
0.198273
-0.0174665
0.19922
-0.0210812
0.208368
-0.0164092
0.234189
0.278303
-0.00401609
0.106442
-1.86589e-05
-0.00110379
0.150755
0.00108343
0.183114
0.00079968
0.196934
-0.00246642
0.202012
-0.00801435
0.203821
-0.014564
0.20577
-0.0191417
0.212946
-0.0160256
0.231073
0.262277
-0.00731315
0.113715
4.00455e-05
-0.00784534
0.151287
-0.00824769
0.183516
-0.00819861
0.196885
-0.0087997
0.202613
-0.0109535
0.205975
-0.0144556
0.209272
-0.0170238
0.215514
-0.0139985
0.228048
0.248278
-0.00377563
0.119906
-0.00241551
-0.000575592
0.148087
0.00130426
0.181636
-0.000659501
0.198848
-0.00345507
0.205408
-0.0062201
0.20874
-0.00899452
0.212047
-0.0108704
0.21739
-0.00913025
0.226308
0.239148
-0.00561901
0.134146
-0.00862024
-0.00922712
0.151695
-0.00506109
0.17747
-0.00249099
0.196278
-0.00272947
0.205647
-0.00438139
0.210392
-0.00633073
0.213996
-0.00751418
0.218573
-0.00617715
0.224971
0.232971
0.0124485
-0.0193604
0.00431925
0.00196061
0.00197426
0.00174534
0.000740426
-0.000738807
-0.0020584
-0.00216888
0.0133381
-0.0197771
-0.0104145
0.0164818
-0.0212075
0.0187852
-0.0195656
0.0207024
-0.0136217
0.022361
-0.00773268
0.0246699
-0.00232753
0.0272516
-0.0025417
0.0299378
-0.00510166
0.0325303
-0.0112127
-0.0193488
0.0118876
-0.023785
-0.00787965
0.0160854
-0.0254053
0.0188365
-0.0223167
0.0208728
-0.015658
0.0225735
-0.00943338
0.024829
-0.00458307
0.0271015
-0.00481419
0.0292938
-0.00729395
0.0305691
-0.012488
-0.0183309
0.0131829
-0.0290958
-0.00787217
0.0174836
-0.0297059
0.019982
-0.0248152
0.0216783
-0.0173543
0.0231014
-0.0108565
0.0249761
-0.00645769
0.0266501
-0.00648821
0.02793
-0.00857385
0.0278631
-0.0124212
-0.0165195
0.0159258
-0.0351182
-0.0099034
0.019732
-0.0335121
0.0215812
-0.0266644
0.0226601
-0.0184332
0.0235583
-0.0117548
0.0247732
-0.00767249
0.0255873
-0.00730232
0.0257537
-0.00874026
0.0245025
-0.01117
-0.014178
0.0190183
-0.041002
-0.0131345
0.0218421
-0.0363359
0.0228339
-0.0276562
0.0231833
-0.0187826
0.0234256
-0.011997
0.0238189
-0.00806578
0.0236643
-0.00714772
0.0227464
-0.00782239
0.020629
-0.00905254
-0.0115818
0.0214068
-0.0458567
-0.0165521
0.0229665
-0.0378956
0.0230576
-0.0277473
0.0227006
-0.0184257
0.0222808
-0.0115772
0.0218458
-0.00763084
0.020795
-0.0060969
0.0190193
-0.00604665
0.0164307
-0.00646395
-0.00898795
0.0223086
-0.0490291
-0.0191362
0.0225684
-0.0381554
0.0218605
-0.0270394
0.0209184
-0.0174836
0.0199357
-0.0105945
0.0188042
-0.00649935
0.017079
-0.00437164
0.0147928
-0.00376043
0.0121255
-0.00379666
-0.00660576
0.0213402
-0.0502888
-0.0200805
0.0204802
-0.0372954
0.0191827
-0.0257418
0.0178357
-0.0161366
0.0164588
-0.00921754
0.0148555
-0.00489609
0.0127626
-0.00227876
0.0103467
-0.00134457
0.00792716
-0.00137707
-0.00457952
0.0185401
-0.0498269
-0.019002
0.0168737
-0.035629
0.0152436
-0.0241117
0.0136905
-0.0145835
0.0121175
-0.00764453
0.0103078
-0.00308637
0.00816993
-0.000140912
0.00596399
0.000861375
0.00400916
0.00057776
-0.00298933
0.0142984
-0.0480875
-0.0160377
0.0121619
-0.0334925
0.0104411
-0.0223909
0.00886707
-0.0130096
0.00728889
-0.00606635
0.00553075
-0.00132823
0.00363207
0.00175777
0.00188835
0.0026051
0.000454871
0.00201124
-0.0018915
0.00919425
-0.0455589
-0.0117229
0.00689159
-0.0311899
0.00524131
-0.0207407
0.003797
-0.0115652
0.00237576
-0.0046451
0.000893573
0.000153961
-0.000583138
0.00323448
-0.0017519
0.00377386
-0.00254844
0.00280778
-0.00115619
0.00378724
-0.042631
-0.0067151
0.00158135
-0.028984
6.99724e-05
-0.0192293
-0.00111782
-0.0103775
-0.00226973
-0.0034932
-0.00336162
0.00124585
-0.00428315
0.00415601
-0.0048825
0.0043732
-0.00514408
0.00306936
-0.0007424
-0.00151321
-0.0395134
-0.00160441
-0.00344359
-0.0270536
-0.00470945
-0.0179634
-0.00563924
-0.00944766
-0.00640875
-0.00272369
-0.00702441
0.00186151
-0.00739435
0.00452596
-0.00748294
0.00446179
-0.00735963
0.00294605
-0.000563467
-0.00616709
-0.0365231
0.00317682
-0.00787433
-0.0253464
-0.00887663
-0.0169611
-0.00948944
-0.00883484
-0.00987635
-0.00233679
-0.010029
0.00201412
-0.00992413
0.00442112
-0.00963013
0.00416779
-0.0092676
0.00258353
-0.000530048
-0.0101275
-0.0337626
0.00736691
-0.0115173
-0.0239566
-0.0122966
-0.0161818
-0.0125995
-0.00853198
-0.0126373
-0.00229897
-0.0124037
0.00178052
-0.0119492
0.00396662
-0.0114204
0.00363899
-0.010948
0.00211117
-0.000566387
-0.0132816
-0.031291
0.01081
-0.0143499
-0.0228882
-0.0149425
-0.0155892
-0.0149856
-0.00848887
-0.0147414
-0.00254323
-0.0142386
0.00127779
-0.0135766
0.00330457
-0.012951
0.00301343
-0.0124702
0.00163032
-0.000613215
-0.0156388
-0.0291072
0.013455
-0.0164332
-0.0220939
-0.0168628
-0.0151596
-0.0167283
-0.00862336
-0.016289
-0.00298246
-0.0156502
0.000638989
-0.0149138
0.00256816
-0.0143034
0.00240305
-0.0138866
0.00121351
-0.000625246
-0.0172558
-0.0271782
0.0153269
-0.017862
-0.0214877
-0.0181507
-0.0148709
-0.0179412
-0.00883292
-0.0173993
-0.00352433
-0.016751
-9.23804e-06
-0.0160504
0.00186752
-0.0155368
0.00188943
-0.0152334
0.000910117
-0.000566619
-0.0182058
-0.0255005
0.0165281
-0.0187463
-0.0209472
-0.0189147
-0.0147024
-0.018734
-0.00901369
-0.0181764
-0.00408186
-0.0176401
-0.000545607
-0.0170504
0.00127787
-0.0166888
0.00152781
-0.0165334
0.000754736
-0.00040654
-0.0185588
-0.0242292
0.0172876
-0.0191447
-0.0203613
-0.019197
-0.0146501
-0.0191326
-0.00907811
-0.0186687
-0.00454576
-0.0183407
-0.000873631
-0.0179412
0.000878432
-0.0177816
0.00136821
-0.0177945
0.000767662
-0.000110555
-0.0779529
-0.0202928
0.0740165
-0.0832212
-0.015093
-0.0857303
-0.012141
-0.0868528
-0.00795568
-0.0855142
-0.00588432
-0.0841382
-0.00224964
-0.0819793
-0.00128043
-0.0805404
-7.07374e-05
-0.0794959
-0.000276811
-9.2944e-05
-0.100175
-0.0168896
0.0967721
-0.102292
-0.0129766
-0.103474
-0.0109582
-0.103955
-0.00747502
-0.103734
-0.0061051
-0.103101
-0.00288333
-0.102027
-0.00235429
-0.101333
-0.000764025
-0.100795
-0.000815329
6.34844e-06
-0.118877
-0.0142995
0.116287
-0.120814
-0.0110391
-0.122067
-0.00970588
-0.122712
-0.00683002
-0.123204
-0.00561252
-0.122953
-0.00313467
-0.122721
-0.00258647
-0.12236
-0.00112519
-0.122221
-0.000954019
5.60105e-05
-0.140148
-0.0126723
0.138521
-0.14161
-0.00957716
-0.143013
-0.00830313
-0.143901
-0.00594198
-0.144591
-0.00492205
-0.144688
-0.00303798
-0.144766
-0.00250796
-0.144602
-0.0012896
-0.144639
-0.000916853
-1.43523e-06
-0.165057
-0.0106076
0.162992
-0.166499
-0.00813513
-0.167797
-0.00700465
-0.168681
-0.00505763
-0.169407
-0.00419634
-0.169658
-0.00278742
-0.169836
-0.0023293
-0.169772
-0.00135356
-0.169739
-0.000950129
-5.38428e-05
-0.194612
-0.00885048
0.192855
-0.19615
-0.00659726
-0.197488
-0.00566639
-0.198427
-0.00411868
-0.199101
-0.00352306
-0.199491
-0.00239742
-0.199756
-0.00206391
-0.199856
-0.00125341
-0.199962
-0.000843736
-4.33938e-05
-0.231739
-0.00686553
0.229754
-0.233545
-0.00479192
-0.235014
-0.00419729
-0.236049
-0.0030829
-0.236878
-0.00269489
-0.237463
-0.00181224
-0.237973
-0.00155322
-0.238373
-0.000853576
-0.238668
-0.000549222
2.44335e-05
-0.27881
-0.00424945
0.276194
-0.280181
-0.00342115
-0.281477
-0.00290162
-0.28257
-0.00198954
-0.283568
-0.00169736
-0.284333
-0.001047
-0.285074
-0.000812473
-0.285692
-0.000235414
-0.286159
-8.18082e-05
0.000134782
-0.323316
-0.00207673
0.321143
-0.325663
-0.00107423
-0.327625
-0.000939607
-0.328903
-0.000711299
-0.329919
-0.00068146
-0.330577
-0.000388672
-0.331181
-0.000208259
-0.331543
0.000126386
-0.331791
0.000166249
0.000143309
-0.354812
0.352735
-0.355886
-0.356826
-0.357537
-0.358219
-0.358607
-0.358815
-0.358689
-0.358523
-0.0211118
0.0763324
0.0187958
-0.0222127
0.097873
-0.0225975
0.116672
-0.022504
0.138427
-0.0218
0.162288
-0.0204569
0.191512
-0.0183261
0.227623
-0.0139224
0.27179
-0.00832729
0.315548
0.344408
-0.0199897
0.0778446
0.0184776
-0.0208628
0.098746
-0.0211407
0.11695
-0.0209121
0.138199
-0.0201089
0.161485
-0.0186977
0.190101
-0.0164474
0.225373
-0.0125311
0.267874
-0.00722759
0.310244
0.33718
-0.0189144
0.0790842
0.0176748
-0.0196467
0.0994783
-0.0198097
0.117113
-0.0195198
0.137909
-0.0186913
0.160656
-0.0173207
0.18873
-0.0151401
0.223193
-0.0115875
0.264322
-0.00651932
0.305176
0.330661
-0.0176781
0.0802131
0.0165493
-0.0183039
0.100104
-0.0183396
0.117148
-0.0179727
0.137542
-0.0171218
0.159805
-0.0157903
0.187399
-0.013719
0.221121
-0.0104919
0.261094
-0.00577923
0.300464
0.324882
-0.016285
0.081298
0.0152
-0.0168279
0.100647
-0.0167569
0.117077
-0.0163249
0.13711
-0.0154609
0.158941
-0.014171
0.186109
-0.0122311
0.219181
-0.00930279
0.258166
-0.00506652
0.296227
0.319815
-0.0147364
0.0823466
0.0136878
-0.0152017
0.101112
-0.0150439
0.116919
-0.014568
0.136634
-0.0137075
0.158081
-0.0124738
0.184875
-0.0106856
0.217393
-0.00806265
0.255543
-0.00437306
0.292538
0.315442
-0.0130591
0.083349
0.0120567
-0.0134496
0.101503
-0.0132137
0.116684
-0.0127063
0.136127
-0.0118618
0.157236
-0.0107008
0.183714
-0.00908476
0.215777
-0.00679125
0.25325
-0.00367252
0.289419
0.31177
-0.0112886
0.0842925
0.0103451
-0.0116123
0.101826
-0.011302
0.116373
-0.0107676
0.135592
-0.00994428
0.156413
-0.0088672
0.182637
-0.00743974
0.21435
-0.00549928
0.251309
-0.00295775
0.286877
0.308812
-0.00946075
0.0851613
0.00859199
-0.00972829
0.102094
-0.00934497
0.11599
-0.0087876
0.135035
-0.00798488
0.15561
-0.00699921
0.181651
-0.00576909
0.21312
-0.00419529
0.249735
-0.0022315
0.284914
0.30658
-0.00761233
0.0859339
0.00683965
-0.00783346
0.102315
-0.00737196
0.115529
-0.00680077
0.134464
-0.00601023
0.15482
-0.00512546
0.180766
-0.00409365
0.212088
-0.00289336
0.248535
-0.00150535
0.283526
0.305075
-0.00578803
0.0865829
0.00513904
-0.00597033
0.102497
-0.00542616
0.114984
-0.00484715
0.133885
-0.00406431
0.154037
-0.0032775
0.17998
-0.0024342
0.211245
-0.00160778
0.247709
-0.00078644
0.282704
0.304289
-0.00401408
0.0870702
0.00352677
-0.00416241
0.102646
-0.00355425
0.114376
-0.00294401
0.133274
-0.002189
0.153282
-0.0014723
0.179263
-0.000831046
0.210603
-0.000349568
0.247227
-8.38185e-05
0.282439
0.304205
-0.00233414
0.0873525
0.00205188
-0.00245385
0.102765
-0.00181228
0.113735
-0.00113916
0.132601
-0.000453741
0.152596
0.000222735
0.178586
0.00070938
0.210117
0.00086886
0.247068
0.000601143
0.282706
0.304806
-0.00078288
0.0873946
0.000740751
-0.000883384
0.102866
-0.000265827
0.113117
0.000531352
0.131804
0.00125508
0.151873
0.00188256
0.177959
0.00220042
0.209799
0.00203138
0.247237
0.00125025
0.283487
0.306056
0.000608169
0.0871682
-0.000381708
0.000551332
0.102923
0.00127882
0.11239
0.00211902
0.130964
0.00284693
0.151145
0.0034211
0.177385
0.00360225
0.209618
0.00314352
0.247695
0.00187949
0.284751
0.307936
0.00181421
0.0865959
-0.00124189
0.00187846
0.102858
0.00263429
0.111634
0.00352891
0.130069
0.00426716
0.150407
0.00480812
0.176844
0.0048719
0.209554
0.00415492
0.248412
0.00244884
0.286457
0.310385
0.00282343
0.0856535
-0.00188109
0.00304282
0.102639
0.00381566
0.110861
0.00478072
0.129104
0.00554564
0.149642
0.00607802
0.176311
0.00605862
0.209573
0.00511972
0.249351
0.00300487
0.288572
0.313389
0.00358386
0.0843654
-0.00229575
0.00399525
0.102228
0.00476931
0.110087
0.00579993
0.128074
0.0065891
0.148852
0.00711796
0.175783
0.00703638
0.209655
0.00592243
0.250465
0.00346191
0.291033
0.316851
0.00425299
0.0826548
-0.00254238
0.00492196
0.101559
0.00567223
0.109337
0.00676255
0.126983
0.00758376
0.148031
0.00812643
0.17524
0.00800221
0.209779
0.00672796
0.25174
0.00393635
0.293824
0.320788
0.00437298
0.0807798
-0.002498
0.00528228
0.100649
0.00604321
0.108576
0.00718866
0.125838
0.00803775
0.147182
0.00860761
0.17467
0.00848657
0.2099
0.00716814
0.253058
0.00418679
0.296806
0.324974
-0.065817
0.0750453
0.0715516
-0.0598121
0.0946445
-0.0524047
0.101168
-0.045759
0.119192
-0.039505
0.140928
-0.0330677
0.168233
-0.0261052
0.202938
-0.0183351
0.245288
-0.00940854
0.287879
0.315566
-0.0836332
0.0695355
0.089143
-0.0750428
0.0860541
-0.0651818
0.0913073
-0.0569119
0.110922
-0.0499175
0.133934
-0.0419416
0.160257
-0.0336224
0.194618
-0.0240309
0.235696
-0.012883
0.276731
0.302683
-0.100872
0.062849
0.107559
-0.0896096
0.0747917
-0.0788687
0.0805664
-0.069915
0.101969
-0.0613998
0.125419
-0.0517031
0.15056
-0.0414605
0.184376
-0.0294284
0.223664
-0.0150197
0.262323
0.287663
-0.117198
0.0550595
0.124987
-0.105577
0.0631705
-0.0959409
0.0709307
-0.0863083
0.092336
-0.0762618
0.115372
-0.0656447
0.139943
-0.0531033
0.171834
-0.0382387
0.2088
-0.0205981
0.244682
0.267065
-0.135374
0.0453618
0.145071
-0.124832
0.0526287
-0.116087
0.0621859
-0.105653
0.0819019
-0.093868
0.103587
-0.0814922
0.127567
-0.0654385
0.155781
-0.0464054
0.189767
-0.0236999
0.221976
0.243365
-0.161873
0.035355
0.171879
-0.152679
0.043435
-0.143954
0.0534616
-0.132831
0.0707781
-0.119165
0.0899216
-0.103663
0.112065
-0.0834499
0.135568
-0.0598285
0.166145
-0.0323779
0.194526
0.210988
-0.197239
0.0249834
0.20761
-0.187899
0.0340958
-0.177557
0.0431191
-0.164272
0.0574931
-0.147088
0.0727381
-0.126415
0.0913917
-0.10073
0.109882
-0.0703863
0.135802
-0.0351253
0.159265
0.175862
-0.243515
0.0161623
0.252336
-0.233305
0.0238858
-0.221027
0.0308416
-0.204875
0.0413406
-0.184067
0.0519297
-0.158219
0.0655445
-0.126929
0.0785919
-0.0896489
0.0985218
-0.0483752
0.117991
0.127487
-0.283389
0.00761361
0.291938
-0.271183
0.0116796
-0.255649
0.0153079
-0.235071
0.0207627
-0.209321
0.0261792
-0.177231
0.0334542
-0.138953
0.0403143
-0.0918092
0.0513779
-0.0380527
0.0642344
0.0894343
-0.352745
0.360358
-0.341065
-0.325757
-0.304994
-0.278815
-0.245361
-0.205047
-0.153669
-0.0894343
-0.0019084
0.0737605
-0.000300534
-0.00400785
0.0912424
-0.00548277
0.109033
-0.00679563
0.1263
-0.00812932
0.146405
-0.00939106
0.173141
-0.0102489
0.208468
-0.00820482
0.250292
-0.00581001
0.289543
0.354548
-0.00254863
0.0757193
0.000589781
-0.00456176
0.0932555
-0.0061402
0.110612
-0.00757021
0.12773
-0.0090493
0.147884
-0.0102712
0.174363
-0.0104779
0.208675
-0.00872765
0.248542
-0.00539562
0.286211
0.349153
-0.00329303
0.0772474
0.00176496
-0.0050267
0.0949892
-0.00656924
0.112154
-0.00801396
0.129175
-0.0094813
0.149352
-0.0105823
0.175464
-0.0105538
0.208646
-0.00861142
0.246599
-0.00520563
0.282805
0.343947
-0.00420226
0.0782825
0.00316716
-0.00569027
0.0964772
-0.00706115
0.113525
-0.00841383
0.130528
-0.00977295
0.150711
-0.0106901
0.176381
-0.0104324
0.208389
-0.00831834
0.244485
-0.00491571
0.279402
0.339031
-0.00535826
0.0789604
0.00468034
-0.00669133
0.0978103
-0.00786361
0.114698
-0.00904456
0.131708
-0.0101858
0.151852
-0.0108238
0.177019
-0.0102729
0.207838
-0.00797784
0.24219
-0.00457212
0.275997
0.334459
-0.00671332
0.079415
0.00625878
-0.00792274
0.0990197
-0.00885244
0.115627
-0.00982173
0.132678
-0.0106741
0.152704
-0.0109735
0.177318
-0.0100847
0.206949
-0.00760265
0.239708
-0.00419009
0.272584
0.330269
-0.00823906
0.0797701
0.00788391
-0.00927648
0.100057
-0.00991675
0.116268
-0.0106198
0.133381
-0.0111339
0.153218
-0.0110609
0.177245
-0.0098244
0.205712
-0.00716149
0.237045
-0.00376477
0.269187
0.326504
-0.00988953
0.0801154
0.00954428
-0.0106996
0.100867
-0.0110033
0.116571
-0.0113822
0.13376
-0.0115135
0.15335
-0.0110439
0.176776
-0.00946504
0.204134
-0.00663371
0.234214
-0.00329039
0.265844
0.323214
-0.0115831
0.0804866
0.0112119
-0.0121191
0.101403
-0.0120544
0.116507
-0.0120708
0.133776
-0.0117921
0.153071
-0.0109142
0.175898
-0.00900694
0.202226
-0.00602196
0.231229
-0.00276885
0.262591
0.320445
-0.0132062
0.0808604
0.0128324
-0.0134405
0.101637
-0.012995
0.116061
-0.0126382
0.133419
-0.0119497
0.152382
-0.0106684
0.174617
-0.0084612
0.200019
-0.00534264
0.22811
-0.00220786
0.259456
0.318237
-0.0146234
0.0811439
0.0143399
-0.0145725
0.101587
-0.0137506
0.115239
-0.013044
0.132713
-0.0119681
0.151306
-0.0103065
0.172955
-0.00784247
0.197555
-0.00461587
0.224884
-0.00161716
0.256458
0.31662
-0.015813
0.0813094
0.0156476
-0.0154653
0.101239
-0.0143084
0.114082
-0.0132773
0.131682
-0.0118254
0.149855
-0.00983845
0.170968
-0.00715005
0.194867
-0.00384963
0.221583
-0.00101857
0.253627
0.315602
-0.0167268
0.0813601
0.0166761
-0.0160865
0.100598
-0.0146536
0.11265
-0.0133275
0.130355
-0.0115493
0.148076
-0.00927898
0.168698
-0.0063948
0.191983
-0.00305918
0.218248
-0.000427837
0.250995
0.315174
-0.0172835
0.0812983
0.0173453
-0.0163848
0.0996998
-0.0147534
0.111018
-0.0131782
0.12878
-0.0111362
0.146034
-0.00863775
0.166199
-0.0055874
0.188932
-0.00226304
0.214923
0.000149044
0.248583
0.315323
-0.0174391
0.081143
0.0175943
-0.0163343
0.098595
-0.0145905
0.109274
-0.01282
0.12701
-0.0105844
0.143799
-0.0079199
0.163535
-0.00474767
0.18576
-0.00147074
0.211646
0.000782421
0.24633
0.316105
-0.0171909
0.0809369
0.017397
-0.0159432
0.0973473
-0.0141738
0.107505
-0.0122692
0.125105
-0.00991487
0.141444
-0.00715081
0.160771
-0.00390801
0.182517
-0.000723552
0.208462
0.00137574
0.244231
0.317481
-0.0165477
0.0807407
0.0167439
-0.0152232
0.0960228
-0.0135035
0.105785
-0.0115243
0.123126
-0.00911944
0.13904
-0.00631658
0.157968
-0.00304783
0.179248
-3.80639e-05
0.205452
0.00196622
0.242226
0.319447
-0.0155961
0.0806469
0.0156899
-0.0142606
0.0946873
-0.0126613
0.104186
-0.0106785
0.121143
-0.00829039
0.136651
-0.00550914
0.155187
-0.00226351
0.176003
0.000765156
0.202424
0.00249744
0.240494
0.321945
-0.0142444
0.0806927
0.0141985
-0.0129678
0.0934107
-0.0115267
0.102745
-0.00959467
0.119211
-0.00727533
0.134332
-0.00456611
0.152477
-0.00140805
0.172845
0.00155063
0.199465
0.00304162
0.239003
0.324986
-0.0130609
0.0812394
0.0125142
-0.0118778
0.0922277
-0.0106528
0.10152
-0.00884671
0.117405
-0.00662769
0.132113
-0.00400044
0.14985
-0.000908609
0.169753
0.00201499
0.196541
0.0033778
0.23764
0.328364
-0.13316
0.076509
0.137891
-0.123148
0.0822148
-0.113809
0.092181
-0.100697
0.104294
-0.0847605
0.116176
-0.0659995
0.131089
-0.0450164
0.14877
-0.0240694
0.175594
-0.0079977
0.221569
0.320366
-0.130035
0.0702735
0.13627
-0.118596
0.0707765
-0.108434
0.082019
-0.093282
0.0891414
-0.0771344
0.100028
-0.0584082
0.112363
-0.0386704
0.129032
-0.0199402
0.156864
-0.00643235
0.208061
0.313934
-0.124471
0.0611613
0.133583
-0.113022
0.0593273
-0.101874
0.0708713
-0.0858516
0.073119
-0.0701216
0.0842983
-0.0518792
0.0941206
-0.033809
0.110962
-0.0173029
0.140358
-0.00562061
0.196378
0.308313
-0.120047
0.0504936
0.130715
-0.108897
0.0481768
-0.0966617
0.0586363
-0.080794
0.0572513
-0.0655393
0.0690437
-0.0480769
0.0766582
-0.0312954
0.0941803
-0.0161538
0.125217
-0.00554915
0.185774
0.302764
-0.117317
0.0392076
0.128603
-0.106733
0.0375928
-0.0936642
0.0455679
-0.079073
0.04266
-0.0641922
0.0541628
-0.047849
0.060315
-0.0323452
0.0786765
-0.0181808
0.111052
-0.00716291
0.174756
0.295601
-0.116887
0.0294649
0.12663
-0.106742
0.0274474
-0.093978
0.0328042
-0.081368
0.03005
-0.0671174
0.0399123
-0.0521994
0.0453971
-0.037673
0.06415
-0.0236252
0.0970043
-0.0108624
0.161993
0.284739
-0.120552
0.0194903
0.130526
-0.111647
0.0185428
-0.100394
0.0215508
-0.0904763
0.0201326
-0.0780571
0.0274931
-0.0657771
0.033117
-0.0528023
0.0511752
-0.0382587
0.0824608
-0.0206389
0.144373
0.2641
-0.14457
0.0109036
0.153157
-0.135965
0.00993732
-0.125692
0.0112787
-0.116878
0.0113179
-0.105874
0.0164894
-0.0953748
0.0226178
-0.0826896
0.03849
-0.0656832
0.0654544
-0.0400136
0.118704
0.224086
-0.211726
0.00336192
0.219268
-0.20494
0.00315128
-0.197475
0.00381399
-0.190983
0.00482561
-0.1822
0.00770602
-0.172083
0.0125008
-0.155889
0.0222962
-0.129626
0.039191
-0.0825384
0.0716163
0.141548
-0.306649
0.310011
-0.303498
-0.299684
-0.294858
-0.287152
-0.274651
-0.252355
-0.213164
-0.141548
-0.00885237
0.136417
0.0103266
-0.0072676
0.134685
-0.00599744
0.132313
-0.00497278
0.12969
-0.0041587
0.127789
-0.0037729
0.126244
-0.00386235
0.130616
-0.00484425
0.154139
-0.00461139
0.219035
0.3054
-0.00699207
0.135705
0.00770391
-0.00588896
0.133582
-0.00494691
0.131371
-0.00417844
0.128922
-0.00358503
0.127195
-0.00334487
0.126004
-0.00358999
0.130861
-0.00460251
0.155151
-0.00410876
0.218541
0.301291
-0.00427308
0.135077
0.00490087
-0.00373898
0.133048
-0.00329043
0.130922
-0.00293245
0.128564
-0.00266774
0.12693
-0.00266452
0.126001
-0.00308455
0.131281
-0.00410039
0.156167
-0.00371562
0.218157
0.297575
-0.00163938
0.134695
0.00202145
-0.00157327
0.132982
-0.00155793
0.130907
-0.00159243
0.128598
-0.00163757
0.126976
-0.00188872
0.126252
-0.0024721
0.131864
-0.0035212
0.157216
-0.0032637
0.217899
0.294312
0.000886481
0.134776
-0.000967682
0.000479878
0.133389
5.69095e-05
0.13133
-0.000293319
0.128948
-0.000579558
0.127262
-0.00105591
0.126728
-0.00177782
0.132586
-0.00287244
0.158311
-0.00276249
0.217789
0.291549
0.00357221
0.13527
-0.00406616
0.00277171
0.134189
0.00202254
0.132079
0.00128394
0.129687
0.000619189
0.127927
-0.00019036
0.127538
-0.00100678
0.133403
-0.00215949
0.159464
-0.00222124
0.217851
0.289328
0.00628158
0.136183
-0.00719483
0.00507793
0.135393
0.0039542
0.133203
0.00288768
0.130754
0.00192487
0.128889
0.000913382
0.128549
-0.000161851
0.134478
-0.00139085
0.160693
-0.00164574
0.218106
0.287682
0.0090414
0.137505
-0.0103635
0.00744518
0.136989
0.005948
0.1347
0.00454185
0.13216
0.00326976
0.130161
0.00203535
0.129784
0.000767285
0.135746
-0.000583955
0.162044
-0.00103783
0.21856
0.286644
0.0118455
0.139225
-0.0135654
0.00986438
0.13897
0.00800169
0.136563
0.00625147
0.13391
0.00466171
0.131751
0.00318603
0.131259
0.0017313
0.137201
0.000279476
0.163496
-0.000396118
0.219235
0.286248
0.0146853
-0.0167833
0.012328
0.0101084
0.0080082
0.00609179
0.00437009
0.00273932
0.00124736
0.000247394
-0.000115496
-0.000309154
-6.86468e-05
-0.000544197
0.000219232
-0.000554121
0.000788907
-0.000430278
0.00166728
-0.000211788
0.00287509
8.17269e-05
0.00442487
0.000432428
0.00629932
0.000814769
0.00838387
0.00116712
0.00130752
-0.000105994
-0.00020316
-6.00275e-05
-0.000590163
0.000194065
-0.000808213
0.000674421
-0.000910634
0.00138439
-0.000921758
0.00231997
-0.000853848
0.0034695
-0.000717107
0.00481026
-0.000525986
0.00630165
-0.000324274
-0.000270476
-6.17088e-05
-0.000141451
5.83606e-05
-0.000710232
0.000395056
-0.00114491
0.000948946
-0.00146452
0.00170603
-0.00167885
0.0026476
-0.00179541
0.00375427
-0.00182377
0.00500952
-0.00178124
0.00639924
-0.001714
-0.0017434
1.62343e-05
-0.000157686
0.000275508
-0.000969506
0.000799791
-0.00166919
0.00157389
-0.00223862
0.00257067
-0.00267562
0.00375977
-0.00298452
0.00511305
-0.00317705
0.00660763
-0.00327581
0.00822454
-0.00333092
-0.00342225
0.00011377
-0.000271455
0.000567187
-0.00142292
0.00135674
-0.00245874
0.00245419
-0.00333608
0.00381883
-0.00404026
0.00540626
-0.00457195
0.00717425
-0.00494504
0.00908371
-0.00518527
0.0110933
-0.00534053
-0.00546343
0.000227052
-0.000498508
0.00090239
-0.00209826
0.00199622
-0.00355257
0.00345998
-0.00479983
0.00523306
-0.00581334
0.00725126
-0.00659016
0.00945309
-0.00714686
0.0117803
-0.00751248
0.0141701
-0.00773033
-0.00784538
0.000344741
-0.000843249
0.00124735
-0.00300087
0.00264243
-0.00494765
0.00445007
-0.00660747
0.00657988
-0.00794316
0.00894119
-0.00895146
0.0114505
-0.0096562
0.0140336
-0.0100956
0.0166192
-0.0103159
-0.0103624
0.000457581
-0.00130083
0.00156935
-0.00411263
0.0032214
-0.00659971
0.00528873
-0.0086748
0.00764128
-0.0102957
0.0101579
-0.0114681
0.0127355
-0.0122338
0.0152914
-0.0126514
0.0177598
-0.0127844
-0.012683
0.000557129
-0.00185796
0.0018378
-0.00539331
0.00366515
-0.00842705
0.00585688
-0.0108665
0.00823842
-0.0126772
0.0106615
-0.0138911
0.013013
-0.0145853
0.0152156
-0.014854
0.0172215
-0.0147903
-0.0144635
0.000635182
-0.00249314
0.00202444
-0.00678256
0.00391553
-0.0103181
0.00606396
-0.013015
0.00825606
-0.0148693
0.0103299
-0.015965
0.0121802
-0.0164356
0.0137524
-0.0164263
0.0150316
-0.0160694
-0.0154697
0.000699918
-0.00319306
0.00213133
-0.00821397
0.0039625
-0.0121493
0.00589525
-0.0149477
0.00769576
-0.0166699
0.00921139
-0.0174806
0.010366
-0.0175902
0.0111444
-0.0172047
0.0115749
-0.0165
-0.0156176
0.000721413
-0.00391447
0.00210447
-0.00959703
0.00374517
-0.01379
0.00531212
-0.0165147
0.00657746
-0.0179352
0.00742059
-0.0183238
0.00780929
-0.0179789
0.00777328
-0.0171687
0.00737975
-0.0161064
-0.014953
0.0007037
-0.00461817
0.00195316
-0.0108465
0.0032942
-0.0151311
0.00439282
-0.0176133
0.00505387
-0.0185962
0.00520436
-0.0184743
0.00485917
-0.0176337
0.00408572
-0.0163952
0.00297356
-0.0149943
-0.0135838
0.00064457
-0.00526274
0.00168458
-0.0118865
0.00264927
-0.0160957
0.00323339
-0.0181974