/*--------------------------------*- C++ -*----------------------------------*\
  =========                 |
  \\      /  F ield         | OpenFOAM: The Open Source CFD Toolbox
   \\    /   O peration     | Website:  https://openfoam.org
    \\  /    A nd           | Version:  7
     \\/     M anipulation  |
\*---------------------------------------------------------------------------*/
FoamFile
{
    version     2.0;
    format      ascii;
    class       volVectorField;
    location    "22";
    object      U;
}
// * * * * * * * * * * * * * * * * * * * * * * * * * * * * * * * * * * * * * //

dimensions      [0 1 -1 0 0 0 0];

internalField   nonuniform List<vector> 
2000
(
(0.00526679 0.0244086 3.19283e-22)
(0.0281394 0.0915146 0)
(0.0644486 0.161866 0)
(0.0979606 0.225346 4.88751e-22)
(0.124107 0.27712 1.67942e-22)
(0.141719 0.316561 2.37344e-22)
(0.151816 0.345366 -2.99006e-22)
(0.156285 0.365952 0)
(0.157032 0.38055 0)
(0.155879 0.390772 0)
(0.00315323 0.0168703 0)
(0.0195042 0.0736613 6.73152e-22)
(0.0499234 0.138395 -6.20619e-22)
(0.0809192 0.201112 -5.72147e-22)
(0.107789 0.255975 0)
(0.128077 0.30054 5.12229e-22)
(0.141429 0.334871 -4.76327e-22)
(0.148792 0.360349 0)
(0.151571 0.378783 2.96945e-21)
(0.15163 0.391816 -6.24148e-21)
(0.00200887 0.0103428 0)
(0.0130113 0.0567022 -5.29153e-21)
(0.0372419 0.114099 0)
(0.064302 0.173538 -1.99391e-21)
(0.0901851 0.229242 0)
(0.111914 0.27769 -7.10014e-22)
(0.128076 0.317484 0)
(0.13859 0.348719 3.96936e-21)
(0.144074 0.372343 -3.71765e-21)
(0.146087 0.389657 -4.8106e-21)
(0.00159525 0.0049616 1.58744e-21)
(0.00847782 0.0413429 2.69657e-21)
(0.0267917 0.0903095 1.00227e-21)
(0.0490587 0.144192 1.34808e-21)
(0.0723616 0.198033 5.96555e-22)
(0.0939023 0.248115 1.38516e-22)
(0.111758 0.292152 5.31411e-22)
(0.125039 0.329101 -8.83971e-22)
(0.133509 0.358823 2.94907e-21)
(0.138055 0.381932 4.80024e-21)
(0.00165304 0.000785555 1.61752e-21)
(0.0055525 0.0280681 1.9402e-21)
(0.0186368 0.0681904 2.30632e-21)
(0.0359129 0.114844 -1.13585e-21)
(0.0555391 0.164212 0)
(0.0753014 0.213073 0)
(0.0933049 0.258974 -1.62303e-21)
(0.108261 0.300245 -2.41487e-21)
(0.119343 0.335852 2.25841e-21)
(0.126276 0.36547 1.02925e-20)
(0.00193135 -0.00221127 -1.22951e-21)
(0.0038056 0.017119 -5.61566e-22)
(0.0125743 0.0485842 3.85416e-21)
(0.0252249 0.0871206 -3.54664e-21)
(0.0407545 0.130008 5.1894e-22)
(0.0576202 0.174846 0)
(0.0742853 0.219579 0)
(0.0894388 0.262517 7.40489e-21)
(0.102238 0.302324 -9.73241e-21)
(0.110313 0.337344 3.03946e-21)
(0.00221301 -0.00412034 -9.06466e-21)
(0.00281582 0.00853111 0)
(0.00825322 0.031983 -5.12307e-21)
(0.0170075 0.0622699 2.98519e-21)
(0.028634 0.0975379 0)
(0.0421575 0.136199 3.5291e-22)
(0.0564969 0.176847 -1.34436e-21)
(0.0705658 0.218181 -4.6494e-21)
(0.0841488 0.259376 2.14807e-21)
(0.0914133 0.29634 3.574e-21)
(0.00233754 -0.0050801 1.69288e-20)
(0.0022474 0.00219399 1.38402e-21)
(0.00531893 0.0185919 1.98531e-21)
(0.0110772 0.0411135 3.2873e-21)
(0.019404 0.0684959 2.65867e-22)
(0.0297371 0.0997728 -2.52037e-22)
(0.0414142 0.134139 2.71653e-22)
(0.0537721 0.170844 0)
(0.0674826 0.21016 0)
(0.0725082 0.244653 -1.54592e-21)
(0.00221403 -0.00525418 -7.86425e-21)
(0.00191134 -0.00210191 5.46074e-21)
(0.00353452 0.00842589 -3.34147e-21)
(0.00724587 0.0241378 -4.08754e-21)
(0.0130787 0.0441131 8.06315e-22)
(0.0207477 0.0677512 2.3744e-22)
(0.0299494 0.0946228 5.96189e-22)
(0.0406411 0.124487 0)
(0.0542501 0.158555 0)
(0.0576274 0.185569 2.26345e-22)
(0.00183434 -0.00483631 8.14443e-22)
(0.00178558 -0.00462002 -6.61471e-21)
(0.0028556 0.00140228 1.06317e-21)
(0.00547253 0.0116289 0)
(0.00968661 0.0252945 0)
(0.0153591 0.0419173 -7.1749e-23)
(0.0224378 0.0611482 0)
(0.03146 0.0828924 -7.76071e-22)
(0.044547 0.107856 1.11872e-21)
(0.051447 0.123396 -3.70859e-22)
(0.147494 0.40607 4.67331e-22)
(0.126859 0.406526 -4.75339e-22)
(0.105669 0.399317 -6.86775e-22)
(0.0870911 0.391417 -7.97778e-22)
(0.0676271 0.384562 -9.33694e-22)
(0.052681 0.382401 -4.13662e-24)
(0.0342057 0.399007 4.71283e-22)
(0.0250793 0.473543 1.53032e-21)
(0.00399981 0.63091 0)
(0.00709459 0.819259 -1.05197e-21)
(0.145101 0.410371 1.03375e-21)
(0.124296 0.411937 -2.37221e-21)
(0.103291 0.404904 4.37418e-21)
(0.0849923 0.397113 7.99202e-22)
(0.0657757 0.389903 1.67378e-21)
(0.050983 0.387146 2.74367e-21)
(0.0328866 0.403238 -9.81145e-22)
(0.0238155 0.476915 -1.01462e-21)
(0.00387192 0.633393 1.93006e-21)
(0.00661991 0.820426 1.04948e-21)
(0.14289 0.414154 0)
(0.122108 0.417351 -1.85833e-21)
(0.101311 0.410697 -1.30025e-21)
(0.0832052 0.402966 0)
(0.0640986 0.395244 -5.04762e-21)
(0.0493891 0.391744 1.59572e-21)
(0.0315651 0.406972 1.69158e-21)
(0.0225073 0.479391 5.47834e-21)
(0.00365332 0.635165 -1.92381e-21)
(0.00616482 0.821203 3.75138e-21)
(0.14033 0.416437 0)
(0.120133 0.422098 1.87465e-21)
(0.099665 0.41632 0)
(0.0816796 0.408767 5.85435e-21)
(0.0625855 0.400521 -5.88333e-21)
(0.0479109 0.396227 -3.36408e-21)
(0.0302548 0.410262 -1.38861e-22)
(0.0211761 0.481007 -5.2916e-21)
(0.00337228 0.636043 -8.75122e-22)
(0.00568787 0.821578 -4.62186e-21)
(0.136527 0.415836 2.58251e-21)
(0.118237 0.426555 -2.69536e-21)
(0.0984672 0.422465 9.5739e-22)
(0.0804382 0.414821 -4.82921e-21)
(0.0612154 0.405839 0)
(0.0465059 0.400625 -3.18745e-21)
(0.028898 0.413156 -7.56958e-23)
(0.0197167 0.481902 6.69205e-21)
(0.00290062 0.636283 8.36629e-22)
(0.00521317 0.821536 -8.39662e-22)
(0.130672 0.409725 -5.96183e-21)
(0.115942 0.428472 5.90245e-21)
(0.0974318 0.427683 4.51302e-21)
(0.0793884 0.420441 -4.50833e-21)
(0.0600507 0.411047 -2.69656e-21)
(0.0452833 0.404992 0)
(0.0276228 0.41575 -6.05575e-21)
(0.0182617 0.48201 3.00419e-21)
(0.00236705 0.635428 3.1036e-21)
(0.00469099 0.821099 3.09695e-21)
(0.122044 0.397056 -4.01823e-22)
(0.113371 0.430454 0)
(0.0968489 0.434193 0)
(0.0785247 0.426595 0)
(0.0589236 0.4164 -2.75603e-21)
(0.0439961 0.409273 5.44283e-21)
(0.026164 0.418049 5.8724e-21)
(0.0164791 0.481708 -8.73889e-21)
(0.00147686 0.634365 1.46831e-21)
(0.00414807 0.820239 -4.52141e-21)
(0.110935 0.37273 1.25862e-21)
(0.109337 0.425389 5.93161e-21)
(0.0958357 0.437271 -5.87227e-21)
(0.0778803 0.431455 9.37677e-21)
(0.0582931 0.421581 -1.17015e-20)
(0.0432248 0.413725 0)
(0.0251477 0.420268 -2.64446e-21)
(0.0149776 0.480473 1.64447e-22)
(0.000641339 0.631613 -2.61701e-21)
(0.00357584 0.818988 -2.69715e-21)
(0.0982015 0.345363 -4.23605e-22)
(0.10582 0.425115 0)
(0.0951342 0.443686 -8.00268e-21)
(0.07692 0.437732 1.60269e-20)
(0.0570504 0.426969 -6.30007e-21)
(0.0416529 0.417777 -1.23184e-21)
(0.0232647 0.422204 2.63881e-21)
(0.0125432 0.479752 8.5522e-23)
(-0.000894776 0.629923 3.82353e-21)
(0.00287992 0.817297 3.91973e-21)
(0.0839551 0.291957 -2.05084e-21)
(0.0985715 0.405629 1.98667e-21)
(0.0933438 0.440976 7.11227e-22)
(0.0771376 0.441291 0)
(0.0577188 0.43233 0)
(0.0422196 0.422815 1.19107e-21)
(0.0234436 0.424333 4.6845e-21)
(0.0115862 0.476668 -4.57477e-21)
(-0.00193423 0.62455 -1.12578e-21)
(0.00231388 0.815232 1.0842e-21)
(0.0589846 0.247538 0)
(0.0899888 0.404993 0)
(0.0859774 0.45504 0)
(0.0689337 0.457203 0)
(0.0485537 0.444279 0)
(0.0317288 0.430312 0)
(0.0129087 0.428754 0)
(0.00114675 0.478862 0)
(-0.00826067 0.622523 0)
(-0.000106059 0.809409 0)
(0.0402554 0.230195 0)
(0.0687744 0.397128 0)
(0.0652327 0.46062 0)
(0.0537431 0.472843 0)
(0.0397259 0.465911 0)
(0.0265295 0.454646 0)
(0.0083473 0.452956 0)
(-0.00674302 0.496823 0)
(-0.0160014 0.629164 0)
(-0.000926925 0.809668 0)
(0.0301508 0.234986 0)
(0.0487095 0.398807 0)
(0.0444829 0.47129 0)
(0.0316718 0.484314 0)
(0.0157193 0.47484 0)
(0.0012538 0.46214 0)
(-0.0161941 0.460582 0)
(-0.0293438 0.500027 0)
(-0.0339353 0.618524 0)
(-0.00504427 0.790573 0)
(0.0140592 0.238393 0)
(0.0226582 0.386619 0)
(0.0250795 0.468216 0)
(0.0246823 0.495249 0)
(0.0162113 0.495427 0)
(0.00225938 0.487289 0)
(-0.0180351 0.485572 0)
(-0.0359931 0.516924 0)
(-0.0451305 0.614442 0)
(-0.0117548 0.769746 0)
(0.00236079 0.25989 0)
(0.0054827 0.393818 0)
(-0.000248116 0.468408 0)
(-0.00268879 0.493937 0)
(-0.0105585 0.496829 0)
(-0.0214817 0.494292 0)
(-0.0375252 0.496417 0)
(-0.0514488 0.522624 0)
(-0.0577506 0.598178 0)
(-0.0212719 0.725963 0)
(-0.0123601 0.258204 0)
(-0.00573459 0.383714 0)
(0.000440969 0.469205 0)
(0.00505157 0.504187 0)
(-0.000632821 0.513408 0)
(-0.0119009 0.514178 0)
(-0.0290796 0.517114 0)
(-0.0447597 0.537236 0)
(-0.0537139 0.592093 0)
(-0.0244625 0.68717 0)
(-0.0136719 0.287796 0)
(-0.0205046 0.386269 0)
(-0.0210416 0.463181 0)
(-0.0200608 0.496303 0)
(-0.0209358 0.511669 0)
(-0.0235536 0.519875 0)
(-0.0320996 0.526822 0)
(-0.04091 0.54304 0)
(-0.0461995 0.580283 0)
(-0.0228715 0.643719 0)
(-0.00899726 0.288813 0)
(-0.00835695 0.382369 0)
(0.00489353 0.471062 0)
(0.00229176 0.506499 0)
(-0.00550051 0.519515 0)
(-0.0119467 0.527641 0)
(-0.0196068 0.536735 0)
(-0.0257309 0.551761 0)
(-0.0297633 0.577856 0)
(-0.0155395 0.617292 0)
(0.00261057 0.324895 0)
(-0.0301449 0.370931 0)
(-0.0184098 0.450705 0)
(-0.0068073 0.501529 0)
(-0.00555377 0.522767 0)
(-0.00824245 0.532218 0)
(-0.0139557 0.540082 0)
(-0.0179615 0.552123 0)
(-0.0203753 0.571242 0)
(-0.0104628 0.597211 0)
(0.0466894 0.357846 0)
(0.0166705 0.40548 0)
(0.00433096 0.456376 0)
(0.00514637 0.49822 0)
(0.00508933 0.522648 0)
(0.00399863 0.536659 0)
(-0.000141042 0.547008 0)
(-0.0035251 0.558224 0)
(-0.00701236 0.57141 0)
(-0.00394098 0.585952 0)
(0.0438515 0.0951095 -8.71121e-24)
(0.0493887 0.126286 8.5712e-24)
(0.047842 0.165252 -1.50864e-22)
(0.0323098 0.191397 0)
(0.0169034 0.221956 0)
(0.00273061 0.232874 -1.70005e-22)
(0.00293359 0.267607 1.30663e-22)
(0.0089437 0.271858 -1.28162e-22)
(0.0256748 0.311363 6.05426e-23)
(0.0498006 0.306346 -5.83757e-23)
(0.0546307 0.0641916 -1.26406e-22)
(0.0606977 0.108449 0)
(0.0551272 0.154 -1.38737e-21)
(0.037661 0.18368 3.31824e-21)
(0.0207206 0.214111 -2.25085e-21)
(0.00698972 0.227599 1.65349e-22)
(0.00747982 0.260608 -1.74658e-22)
(0.0144657 0.264256 2.35622e-23)
(0.0298948 0.298152 1.20323e-22)
(0.048005 0.278418 1.80244e-23)
(0.0687527 0.0636999 -9.1359e-23)
(0.0735915 0.114971 9.63091e-22)
(0.062648 0.159003 -9.53778e-22)
(0.042631 0.186414 1.98406e-21)
(0.0245743 0.212692 -1.50122e-21)
(0.0119849 0.225507 0)
(0.0122514 0.253166 1.75066e-22)
(0.0187821 0.253505 -2.29811e-23)
(0.0310927 0.27696 -1.23948e-22)
(0.0444494 0.245466 -7.07581e-23)
(0.0851148 0.0824054 -8.35194e-24)
(0.0857956 0.134123 0)
(0.0692925 0.171787 0)
(0.0468136 0.193618 0)
(0.0279619 0.213341 -1.55027e-21)
(0.0162966 0.22274 9.68676e-22)
(0.0157758 0.242355 -9.7865e-23)
(0.0209532 0.236931 -1.14284e-23)
(0.0295711 0.248238 -3.71342e-23)
(0.0394657 0.208822 -5.35957e-24)
(0.103236 0.109483 -2.2565e-22)
(0.0962034 0.155163 3.34629e-22)
(0.0740541 0.183773 1.1638e-21)
(0.049363 0.198514 -1.16286e-21)
(0.0299952 0.210808 5.74211e-22)
(0.0188766 0.215015 0)
(0.0171242 0.225284 2.45925e-22)
(0.0204096 0.212989 -8.48957e-23)
(0.025515 0.213116 4.57155e-24)
(0.0334866 0.169935 4.2638e-23)
(0.120566 0.135289 1.72455e-21)
(0.10367 0.169977 2.77516e-22)
(0.0764811 0.188273 3.30018e-22)
(0.0500487 0.19566 -1.3739e-21)
(0.0303886 0.20075 0)
(0.0194141 0.199157 0)
(0.0160991 0.200303 0)
(0.0173002 0.181717 -1.31705e-22)
(0.0196562 0.1734 0)
(0.0270918 0.130402 0)
(0.134207 0.152569 0)
(0.107495 0.173644 -1.92612e-21)
(0.0765157 0.181486 1.30898e-21)
(0.0490135 0.182136 1.58543e-21)
(0.0292127 0.180947 -1.59352e-21)
(0.0179696 0.173998 -4.58821e-22)
(0.0129504 0.167513 5.77602e-22)
(0.012263 0.144579 5.57949e-22)
(0.0129534 0.131369 -3.2494e-23)
(0.0208365 0.0918288 -4.27937e-24)
(0.142197 0.156865 0)
(0.107615 0.164219 6.18354e-22)
(0.0744592 0.162508 4.67049e-22)
(0.0465852 0.157657 0)
(0.0267213 0.151507 -2.96375e-22)
(0.0148798 0.140395 1.05057e-21)
(0.00825876 0.128574 -4.95887e-22)
(0.00619599 0.103961 -2.05208e-23)
(0.00633162 0.0894108 -9.08582e-24)
(0.0152002 0.0556202 1.25163e-23)
(0.144133 0.146733 -3.88326e-22)
(0.104544 0.142355 -9.04347e-22)
(0.0708752 0.132762 1.90652e-22)
(0.0431797 0.123971 -2.59785e-22)
(0.0232892 0.114326 -4.24291e-22)
(0.0106898 0.100653 -4.95282e-22)
(0.00281379 0.0861115 1.05945e-22)
(4.02598e-05 0.0625768 5.13547e-23)
(0.00051096 0.0496269 9.11552e-24)
(0.0105034 0.022807 -6.02453e-25)
(0.140917 0.123655 1.95148e-22)
(0.0991285 0.110695 -1.98244e-22)
(0.0664061 0.0951652 2.55449e-22)
(0.0392292 0.0839999 2.59387e-22)
(0.0193571 0.0722837 -2.02231e-22)
(0.00603805 0.0577684 3.75419e-22)
(-0.00263037 0.0430495 -1.46675e-22)
(-0.00537713 0.0229382 -1.03439e-23)
(-0.004121 0.0135211 0)
(0.00656115 -0.00605791 6.01921e-25)
(0.134084 0.091124 -2.12172e-22)
(0.0923476 0.0728896 2.15257e-22)
(0.0615826 0.0532123 2.78583e-22)
(0.0351431 0.0410229 2.77947e-22)
(0.0153436 0.0285257 2.08493e-22)
(0.0015128 0.014808 -2.78052e-23)
(-0.00737382 0.0020404 -7.32861e-23)
(-0.00948131 -0.013045 -1.03808e-22)
(-0.00726805 -0.0180846 0)
(0.00401942 -0.0309682 1.39105e-24)
(0.125087 0.0531997 0)
(0.0851657 0.0326146 1.07793e-21)
(0.0567436 0.0102554 -1.9239e-21)
(0.0312778 -0.00192202 -2.78353e-22)
(0.0116073 -0.0140511 -4.7973e-22)
(-0.00225532 -0.0256271 -5.50663e-22)
(-0.0108443 -0.034949 1.16374e-22)
(-0.0120487 -0.0442955 6.02195e-23)
(-0.0088409 -0.0450307 -3.03473e-23)
(0.00228615 -0.0524161 -1.38725e-24)
(0.114971 0.01349 0)
(0.0782343 -0.00704285 1.01776e-21)
(0.0521838 -0.0309281 5.60276e-22)
(0.0278494 -0.0423767 0)
(0.00853076 -0.0532057 1.32536e-21)
(-0.00486751 -0.0616979 -4.82585e-22)
(-0.0128197 -0.0667741 -2.97013e-22)
(-0.0131326 -0.070576 -4.4708e-22)
(-0.00915484 -0.0677322 3.02481e-23)
(0.00120293 -0.0710895 -1.27238e-23)
(0.104673 -0.0251388 0)
(0.0718278 -0.0438037 -1.02615e-21)
(0.0481363 -0.0683123 0)
(0.0250645 -0.078622 -2.02605e-21)
(0.00641955 -0.0874405 2.03662e-21)
(-0.00623702 -0.0924353 6.03285e-22)
(-0.0133499 -0.0932059 -1.2608e-22)
(-0.0129654 -0.0923344 4.41877e-22)
(-0.00862431 -0.086978 7.5146e-23)
(0.000612491 -0.0877005 2.50054e-23)
(0.0948318 -0.0606192 -4.9111e-21)
(0.0661056 -0.0763442 2.01349e-21)
(0.0446888 -0.100678 -9.3063e-23)
(0.0231095 -0.109761 2.08855e-21)
(0.00535659 -0.11609 0)
(-0.00638576 -0.117737 5.95035e-22)
(-0.0126811 -0.114734 -2.23161e-22)
(-0.0119067 -0.11044 -6.41395e-22)
(-0.00761263 -0.103675 -1.454e-23)
(0.000334752 -0.102878 1.45371e-23)
(0.0858498 -0.0915669 1.27381e-21)
(0.0613136 -0.104305 -3.68907e-21)
(0.0418448 -0.127493 -1.98275e-21)
(0.0220175 -0.135651 1.98171e-21)
(0.00529799 -0.139248 8.67333e-22)
(-0.00553879 -0.138184 0)
(-0.0111636 -0.1323 8.41144e-22)
(-0.0103357 -0.125905 -4.56398e-22)
(-0.00640237 -0.118655 -1.89382e-22)
(0.000227607 -0.117122 -2.71712e-23)
(0.0780153 -0.117278 3.36786e-22)
(0.057531 -0.128066 0)
(0.0396231 -0.148815 0)
(0.021681 -0.156752 0)
(0.00607947 -0.157582 6.56461e-22)
(-0.00402544 -0.15476 -1.5222e-21)
(-0.00916113 -0.147001 -8.37347e-22)
(-0.00856981 -0.13966 9.14078e-22)
(-0.00518437 -0.132571 -3.6052e-23)
(0.000203146 -0.130795 6.2618e-23)
(0.0712907 -0.137578 1.23372e-22)
(0.0546772 -0.148493 -3.16933e-21)
(0.0380491 -0.165166 3.13995e-21)
(0.0219411 -0.173884 -3.44318e-21)
(0.00746986 -0.172074 4.20862e-21)
(-0.00233095 -0.16856 0)
(-0.00698444 -0.159849 4.51627e-22)
(-0.00682581 -0.152435 1.17236e-24)
(-0.00406223 -0.145884 1.24726e-22)
(0.000217207 -0.14415 3.42167e-23)
(0.0648313 -0.152536 2.26177e-22)
(0.052152 -0.166704 0)
(0.03697 -0.177449 3.66292e-21)
(0.022594 -0.187997 -6.51297e-21)
(0.00931761 -0.183741 2.42315e-21)
(-0.000374232 -0.18057 3.12767e-22)
(-0.00478579 -0.171674 -4.50598e-22)
(-0.0051853 -0.164731 -7.13514e-23)
(-0.00305892 -0.158889 -2.80418e-22)
(0.000257348 -0.157355 -7.36913e-23)
(0.0592159 -0.161984 1.20558e-21)
(0.0492176 -0.183847 -1.17361e-21)
(0.0359638 -0.186952 -3.93315e-22)
(0.0229213 -0.200046 0)
(0.0113076 -0.193643 0)
(0.00190962 -0.191519 -3.21698e-22)
(-0.00260651 -0.182913 -7.30844e-22)
(-0.0036745 -0.176838 7.17379e-22)
(-0.00214411 -0.171754 4.31285e-23)
(0.000308779 -0.17052 -4.22093e-23)
(0.0627196 -0.170151 0)
(0.0462479 -0.221722 0)
(0.0346785 -0.205834 0)
(0.0218023 -0.225514 0)
(0.0136986 -0.215209 0)
(0.00441465 -0.216507 0)
(0.000641705 -0.209201 0)
(-0.00125025 -0.205933 0)
(-0.000430583 -0.202528 0)
(0.000312509 -0.201876 0)
(0.043331 -0.233704 0)
(0.0344083 -0.26871 0)
(0.0290625 -0.253217 0)
(0.0197097 -0.26871 0)
(0.0162817 -0.259621 0)
(0.00686628 -0.264569 0)
(0.00550921 -0.258199 0)
(0.00154659 -0.2587 0)
(0.00167472 -0.255563 0)
(0.00011389 -0.256157 0)
(0.0398152 -0.283023 0)
(0.0300242 -0.316109 0)
(0.026268 -0.30053 0)
(0.018529 -0.315899 0)
(0.0150119 -0.308358 0)
(0.00794945 -0.314786 0)
(0.00658267 -0.309628 0)
(0.0024479 -0.312144 0)
(0.00245388 -0.308722 0)
(-0.000153576 -0.310441 0)
(0.0342439 -0.338123 0)
(0.0264596 -0.369548 0)
(0.0231505 -0.352429 0)
(0.0162126 -0.370684 0)
(0.0135187 -0.361305 0)
(0.00799407 -0.370767 0)
(0.00650122 -0.364571 0)
(0.00313762 -0.368871 0)
(0.00233677 -0.364631 0)
(-0.000104607 -0.367106 0)
(0.0292409 -0.401144 0)
(0.0224275 -0.433054 0)
(0.0193126 -0.414667 0)
(0.0140638 -0.434451 0)
(0.0114532 -0.42341 0)
(0.00741357 -0.435153 0)
(0.00609522 -0.427124 0)
(0.00343308 -0.433492 0)
(0.00238819 -0.427036 0)
(0.000110505 -0.430881 0)
(0.0247186 -0.476364 0)
(0.0184311 -0.508778 0)
(0.0159868 -0.489205 0)
(0.011573 -0.51096 0)
(0.00989999 -0.497944 0)
(0.00671687 -0.511794 0)
(0.00581981 -0.502194 0)
(0.0034792 -0.51008 0)
(0.00231156 -0.501983 0)
(0.000127896 -0.507823 0)
(0.0194235 -0.571463 0)
(0.0146424 -0.603227 0)
(0.0127477 -0.584111 0)
(0.00933821 -0.606768 0)
(0.00805635 -0.593247 0)
(0.00561672 -0.608816 0)
(0.00481434 -0.59815 0)
(0.00280157 -0.60766 0)
(0.0017963 -0.598606 0)
(4.28362e-05 -0.606286 0)
(0.014796 -0.691259 0)
(0.0106259 -0.718553 0)
(0.00907155 -0.703598 0)
(0.00634854 -0.723898 0)
(0.00557044 -0.712465 0)
(0.00362792 -0.727227 0)
(0.00298431 -0.71739 0)
(0.00130584 -0.726974 0)
(0.000732351 -0.718491 0)
(-0.000221746 -0.726991 0)
(0.00771299 -0.81506 0)
(0.00520887 -0.831049 0)
(0.00448676 -0.825195 0)
(0.00313542 -0.838339 0)
(0.00272788 -0.83276 0)
(0.00148405 -0.842165 0)
(0.000927454 -0.835979 0)
(-0.000214383 -0.84212 0)
(-0.000310019 -0.836387 0)
(-0.000370967 -0.842535 0)
(0.00140624 -0.891821 0)
(0.000978357 -0.901703 0)
(0.000943777 -0.902478 0)
(0.000846792 -0.908586 0)
(0.000670023 -0.907342 0)
(0.000300825 -0.911134 0)
(-4.25863e-06 -0.908235 0)
(-0.000358726 -0.910274 0)
(-0.000344637 -0.907248 0)
(-0.000172504 -0.909937 0)
(0.0546413 -0.194124 1.4097e-21)
(0.0430877 -0.251957 -1.3862e-21)
(0.0411738 -0.301125 3.06961e-22)
(0.0352659 -0.35779 0)
(0.0311807 -0.420184 0)
(0.0264133 -0.495645 5.82311e-22)
(0.0211782 -0.589653 -2.84637e-21)
(0.0157591 -0.703769 2.83853e-21)
(0.00957446 -0.820643 9.08969e-22)
(0.00301829 -0.888924 -9.02349e-22)
(0.051845 -0.201383 -1.84384e-21)
(0.0433959 -0.257819 0)
(0.041712 -0.306649 2.44771e-21)
(0.0357796 -0.363567 -6.05226e-21)
(0.0320808 -0.425629 4.30988e-21)
(0.027173 -0.501267 -5.25106e-22)
(0.0219709 -0.594816 1.36348e-21)
(0.0162298 -0.707365 3.0929e-21)
(0.010423 -0.821202 9.95312e-22)
(0.00375373 -0.888858 1.00427e-21)
(0.0497298 -0.208253 2.67309e-21)
(0.0440588 -0.264135 -2.53345e-21)
(0.0424757 -0.31212 2.50941e-21)
(0.036578 -0.368652 -3.80754e-21)
(0.0331962 -0.430169 2.78955e-21)
(0.0280751 -0.505739 0)
(0.0228369 -0.598697 -1.36689e-21)
(0.0168278 -0.709868 1.53219e-22)
(0.010951 -0.820705 -1.67788e-21)
(0.00410101 -0.889097 -1.87836e-21)
(0.0481879 -0.214994 -4.67822e-22)
(0.0449665 -0.270579 0)
(0.0435422 -0.31767 0)
(0.0377191 -0.373728 0)
(0.0345758 -0.434682 3.73574e-21)
(0.0291767 -0.509997 -2.51994e-21)
(0.0238395 -0.602271 -4.77371e-23)
(0.0175606 -0.71197 -1.91695e-21)
(0.0112599 -0.82021 -9.98148e-22)
(0.00415428 -0.88828 -1.09971e-21)
(0.047199 -0.221405 1.72563e-22)
(0.0460891 -0.276382 -1.74863e-21)
(0.0448996 -0.322555 -1.82488e-21)
(0.0391632 -0.3783 1.82374e-21)
(0.0361972 -0.438805 -1.19926e-21)
(0.0304761 -0.51388 0)
(0.0249988 -0.605505 -1.66132e-21)
(0.018421 -0.713784 3.94577e-21)
(0.0115644 -0.819787 -2.0544e-21)
(0.00412934 -0.886471 2.1229e-21)
(0.0468107 -0.227375 -5.07723e-21)
(0.0474955 -0.281309 3.43693e-22)
(0.0465746 -0.326379 -3.63862e-22)
(0.040881 -0.381882 1.97356e-21)
(0.0380284 -0.442018 0)
(0.0319505 -0.516925 0)
(0.0263011 -0.608005 0)
(0.0194016 -0.715055 2.18334e-21)
(0.0120039 -0.819155 0)
(0.00417107 -0.884138 0)
(0.0470637 -0.232815 0)
(0.0492803 -0.285387 2.51544e-21)
(0.0486345 -0.329126 -1.7262e-21)
(0.0428899 -0.384344 -2.62828e-21)
(0.040072 -0.444105 2.642e-21)
(0.0335979 -0.518864 1.85424e-21)
(0.0277368 -0.609491 -1.81198e-21)
(0.0204915 -0.715546 -7.86096e-21)
(0.0125987 -0.818105 5.56363e-22)
(0.00430734 -0.881627 -2.07121e-21)
(0.0479904 -0.23759 0)
(0.051523 -0.288605 -7.91587e-22)
(0.0511415 -0.33083 -5.32794e-22)
(0.0452258 -0.385712 0)
(0.0423579 -0.445053 8.89577e-22)
(0.0354439 -0.519632 -2.6815e-21)
(0.0293207 -0.609861 3.21829e-21)
(0.0216974 -0.715115 1.20247e-21)
(0.0133334 -0.816501 -1.38375e-21)
(0.00453006 -0.879004 2.72961e-21)
(0.0496352 -0.241551 6.50916e-22)
(0.0542916 -0.290896 9.79689e-22)
(0.0541348 -0.331458 -1.71055e-22)
(0.0479179 -0.385997 3.57826e-22)
(0.0449175 -0.444888 8.15445e-22)
(0.0375194 -0.519267 1.48078e-21)
(0.0310763 -0.609154 -5.99802e-22)
(0.0230233 -0.713807 -6.76172e-22)
(0.0141635 -0.814371 1.38833e-21)
(0.0047969 -0.87625 7.85535e-22)
(0.0520613 -0.244542 -1.98307e-22)
(0.0576505 -0.292186 1.99994e-22)
(0.057639 -0.330932 -2.85443e-22)
(0.050985 -0.385161 -3.57393e-22)
(0.0477757 -0.443571 4.93867e-22)
(0.039853 -0.517763 -1.01632e-21)
(0.0330326 -0.607362 9.28948e-22)
(0.0244984 -0.711597 3.45135e-22)
(0.0151055 -0.811663 0)
(0.00512049 -0.873248 -7.87255e-22)
(0.0553454 -0.246424 2.05203e-22)
(0.0616612 -0.292435 -2.07065e-22)
(0.0616715 -0.329199 -3.28645e-22)
(0.0544451 -0.383197 -4.11724e-22)
(0.0509473 -0.441088 -5.30102e-22)
(0.042454 -0.515163 -6.05485e-23)
(0.0352008 -0.604551 3.36805e-22)
(0.0261168 -0.70862 1.12908e-21)
(0.016126 -0.808498 0)
(0.00546352 -0.870021 -8.96579e-22)
(0.0595722 -0.247061 0)
(0.0663759 -0.291644 -1.18328e-21)
(0.0662398 -0.32628 2.22576e-21)
(0.058311 -0.38009 4.12453e-22)
(0.0544542 -0.437398 1.08708e-21)
(0.0453437 -0.511381 1.86845e-21)
(0.0376093 -0.600612 -6.88612e-22)
(0.0279243 -0.704719 -7.73258e-22)
(0.0172959 -0.804723 1.80549e-21)
(0.00588543 -0.866468 8.9445e-22)
(0.0648238 -0.246346 0)
(0.0718223 -0.289866 -1.08932e-21)
(0.0713608 -0.322262 -7.06547e-22)
(0.0626054 -0.37584 0)
(0.0583068 -0.432661 -3.52055e-21)
(0.0485141 -0.506523 1.17476e-21)
(0.0402412 -0.595742 1.53266e-21)
(0.0298735 -0.70014 5.12346e-21)
(0.018533 -0.800574 -1.79965e-21)
(0.00630643 -0.862722 4.04035e-21)
(0.0711711 -0.244208 0)
(0.0780067 -0.287162 1.09871e-21)
(0.077047 -0.317346 0)
(0.0673254 -0.3704 4.33441e-21)
(0.0625389 -0.426832 -4.35658e-21)
(0.0520245 -0.500376 -3.01002e-21)
(0.0431549 -0.589634 -1.07151e-22)
(0.0320694 -0.694444 -5.34211e-21)
(0.0199748 -0.795683 -8.84688e-22)
(0.006849 -0.858592 -5.02489e-21)
(0.0786545 -0.240637 5.47579e-21)
(0.0849017 -0.283653 -2.04068e-21)
(0.0833578 -0.311589 8.94719e-22)
(0.0725175 -0.363812 -3.72819e-21)
(0.06714 -0.420047 0)
(0.0558475 -0.49331 -3.20427e-21)
(0.0462716 -0.582848 -4.10171e-22)
(0.034362 -0.688355 7.34181e-21)
(0.0214132 -0.790604 1.06253e-21)
(0.00732833 -0.854349 -1.06634e-21)
(0.0871751 -0.235631 -2.15708e-21)
(0.0925386 -0.27911 4.90789e-21)
(0.0903404 -0.30485 3.95407e-21)
(0.078218 -0.356074 -3.95139e-21)
(0.0721458 -0.412058 -2.78923e-21)
(0.0600686 -0.484897 0)
(0.0497495 -0.574561 -7.57679e-21)
(0.0370263 -0.68079 3.78497e-21)
(0.0231724 -0.784508 4.20864e-21)
(0.00801658 -0.84958 4.71676e-21)
(0.0967247 -0.229317 -5.55649e-22)
(0.100879 -0.273838 0)
(0.0979113 -0.297642 0)
(0.0843506 -0.347847 0)
(0.0774638 -0.403694 -3.44161e-21)
(0.0645194 -0.476327 6.21951e-21)
(0.0533252 -0.566399 7.78956e-21)
(0.0396349 -0.673613 -1.25578e-20)
(0.0247701 -0.778679 2.35353e-21)
(0.00850376 -0.844862 -7.003e-21)
(0.107215 -0.221158 2.42128e-22)
(0.110072 -0.266673 6.5071e-21)
(0.106185 -0.289222 -6.44399e-21)
(0.0911463 -0.338031 1.10563e-20)
(0.0833406 -0.39348 -1.40588e-20)
(0.0695745 -0.465513 0)
(0.057527 -0.555611 -4.14566e-21)
(0.0429251 -0.663861 -2.45578e-22)
(0.0269574 -0.771188 -4.96548e-21)
(0.00940171 -0.839319 -5.15653e-21)
(0.118305 -0.213737 -5.00116e-22)
(0.119499 -0.260879 0)
(0.11458 -0.282296 -1.03442e-20)
(0.0979453 -0.329793 2.08644e-20)
(0.0891531 -0.385223 -8.37955e-21)
(0.0744306 -0.457075 -1.89814e-21)
(0.0613822 -0.547543 4.13691e-21)
(0.0456915 -0.656627 -3.34054e-22)
(0.0286048 -0.765054 7.16413e-21)
(0.00979029 -0.834214 7.62674e-21)
(0.131362 -0.198207 -3.29859e-21)
(0.13137 -0.248019 3.21512e-21)
(0.124833 -0.270586 1.01837e-21)
(0.10663 -0.316156 0)
(0.0964447 -0.371293 0)
(0.0808299 -0.442421 1.83048e-21)
(0.0667622 -0.533042 8.93956e-21)
(0.0499916 -0.64385 -8.66897e-21)
(0.0314798 -0.755805 -2.50288e-21)
(0.0110646 -0.827656 2.44603e-21)
(0.161385 -0.2044 0)
(0.160425 -0.251256 0)
(0.1468 -0.269112 0)
(0.121702 -0.311781 0)
(0.109717 -0.365529 0)
(0.0915966 -0.434504 0)
(0.0752685 -0.523105 0)
(0.056032 -0.631668 0)
(0.0350151 -0.742157 0)
(0.0112301 -0.814715 0)
(0.201604 -0.188361 0)
(0.208619 -0.235997 0)
(0.178729 -0.250411 0)
(0.151759 -0.297029 0)
(0.138129 -0.353439 0)
(0.115106 -0.421817 0)
(0.0957248 -0.509042 0)
(0.0721022 -0.614525 0)
(0.0458613 -0.719827 0)
(0.0170344 -0.785962 0)
(0.245802 -0.170128 0)
(0.253739 -0.206168 0)
(0.208001 -0.218256 0)
(0.190408 -0.270434 0)
(0.16727 -0.329108 0)
(0.142126 -0.39324 0)
(0.11786 -0.47928 0)
(0.0888066 -0.581501 0)
(0.0556051 -0.68436 0)
(0.0174109 -0.752641 0)
(0.288606 -0.151907 0)
(0.296106 -0.175847 0)
(0.2461 -0.193291 0)
(0.238754 -0.24934 0)
(0.202858 -0.30944 0)
(0.18026 -0.372283 0)
(0.149984 -0.456978 0)
(0.114472 -0.5542 0)
(0.0732791 -0.648092 0)
(0.027249 -0.706102 0)
(0.336728 -0.125282 0)
(0.343376 -0.142928 0)
(0.295499 -0.164863 0)
(0.29245 -0.217055 0)
(0.246976 -0.274177 0)
(0.223999 -0.336356 0)
(0.185503 -0.414345 0)
(0.140145 -0.505744 0)
(0.0881288 -0.594708 0)
(0.0271145 -0.655112 0)
(0.405224 -0.104821 0)
(0.411927 -0.124105 0)
(0.367468 -0.151187 0)
(0.363014 -0.19939 0)
(0.313362 -0.253237 0)
(0.284389 -0.313991 0)
(0.235859 -0.380769 0)
(0.179545 -0.463103 0)
(0.115127 -0.539321 0)
(0.0436014 -0.583186 0)
(0.499495 -0.0721183 0)
(0.501413 -0.0949156 0)
(0.456709 -0.11959 0)
(0.444539 -0.160585 0)
(0.3899 -0.205396 0)
(0.347857 -0.258783 0)
(0.286046 -0.312644 0)
(0.215023 -0.385982 0)
(0.133094 -0.454864 0)
(0.0381477 -0.503835 0)
(0.620929 -0.0598347 0)
(0.615715 -0.0832752 0)
(0.573091 -0.105433 0)
(0.548831 -0.139364 0)
(0.489677 -0.174013 0)
(0.434437 -0.217582 0)
(0.359248 -0.259558 0)
(0.271161 -0.319787 0)
(0.171794 -0.37096 0)
(0.071279 -0.395379 0)
(0.72863 -0.0243059 0)
(0.713733 -0.0397886 0)
(0.666512 -0.0539426 0)
(0.629944 -0.0746329 0)
(0.560159 -0.0950607 0)
(0.492116 -0.121714 0)
(0.397231 -0.146396 0)
(0.290691 -0.186045 0)
(0.165016 -0.226833 0)
(0.0233971 -0.27737 0)
(0.906664 -0.0178602 0)
(0.887435 -0.0236708 0)
(0.847147 -0.0291169 0)
(0.805323 -0.0376442 0)
(0.739737 -0.0461881 0)
(0.667617 -0.0583249 0)
(0.568461 -0.0712528 0)
(0.449797 -0.0926483 0)
(0.301559 -0.122262 0)
(0.17928 -0.175118 0)
(0.193106 -0.158694 8.15883e-22)
(0.242159 -0.14338 -8.05709e-22)
(0.288764 -0.129352 6.24661e-22)
(0.332672 -0.112953 0)
(0.38326 -0.0896947 0)
(0.451481 -0.0710956 1.83912e-21)
(0.542957 -0.0432994 -1.01661e-20)
(0.652386 -0.0362471 1.01321e-20)
(0.752321 -0.010108 3.33173e-21)
(0.920853 -0.0138356 -3.3397e-21)
(0.202994 -0.138144 1.49131e-21)
(0.252021 -0.123265 0)
(0.298456 -0.11145 5.30993e-21)
(0.343359 -0.0958157 -1.45745e-20)
(0.395565 -0.0739504 1.11917e-20)
(0.464637 -0.0563278 -1.67247e-21)
(0.555223 -0.0308692 3.97342e-21)
(0.661009 -0.0260826 1.00055e-20)
(0.758638 -0.00403094 3.21696e-21)
(0.924364 -0.0121032 3.06765e-21)
(0.210288 -0.114594 -2.16632e-21)
(0.258834 -0.100414 -3.00908e-21)
(0.304495 -0.0912141 2.98052e-21)
(0.349809 -0.0765999 -8.73902e-21)
(0.403193 -0.056471 6.14622e-21)
(0.472908 -0.0403097 0)
(0.562392 -0.0177216 -3.98327e-21)
(0.665006 -0.0157613 2.59337e-23)
(0.761372 0.00186432 -5.52802e-21)
(0.925398 -0.0104508 -5.99558e-21)
(0.216452 -0.0888504 3.15705e-22)
(0.266204 -0.0751181 0)
(0.311867 -0.0685214 0)
(0.357418 -0.0551163 0)
(0.411448 -0.0371619 8.3271e-21)
(0.481049 -0.0230244 -5.7928e-21)
(0.568706 -0.00390472 -4.44055e-22)
(0.667961 -0.00535846 -5.37521e-21)
(0.762876 0.00751303 -2.90455e-21)
(0.925616 -0.00889465 -3.10307e-21)
(0.221046 -0.0614108 1.83838e-21)
(0.273111 -0.0478055 2.75e-22)
(0.319366 -0.0436021 -2.78134e-21)
(0.365568 -0.0315559 2.77969e-21)
(0.420235 -0.0162091 -2.49748e-21)
(0.489413 -0.00463518 0)
(0.574878 0.0104557 -4.06539e-21)
(0.670635 0.00509651 1.02629e-20)
(0.763834 0.01295 -5.29453e-21)
(0.925546 -0.00741905 6.06659e-21)
(0.22426 -0.0323903 1.43388e-21)
(0.278906 -0.0187368 -1.55955e-21)
(0.325521 -0.0167335 -1.37636e-21)
(0.372603 -0.0062963 2.76681e-21)
(0.42793 0.00600948 0)
(0.496609 0.0145175 0)
(0.579866 0.0251136 0)
(0.672248 0.015482 5.03796e-21)
(0.763845 0.0181511 0)
(0.924974 -0.00602078 0)
(0.226605 -0.0018465 0)
(0.283661 0.0118602 1.90153e-21)
(0.329988 0.0118039 -1.46133e-21)
(0.377868 0.0202613 -4.31103e-21)
(0.433593 0.0291085 4.33354e-21)
(0.50158 0.0340805 3.75311e-21)
(0.582611 0.0398003 -3.39683e-21)
(0.671884 0.025624 -1.75269e-20)
(0.762264 0.0230367 1.22937e-21)
(0.92349 -0.00471709 -4.65057e-21)
(0.228455 0.0300854 0)
(0.287381 0.0436257 -4.43984e-22)
(0.332806 0.0416022 -5.99202e-22)
(0.381311 0.0476772 0)
(0.437018 0.0527204 1.68357e-21)
(0.504011 0.0537491 -4.83867e-21)
(0.582687 0.0542906 6.61544e-21)
(0.669102 0.035363 2.76587e-21)
(0.758705 0.0275269 -2.93414e-21)
(0.920829 -0.00352188 6.16973e-21)
(0.229944 0.0631445 -1.35094e-22)
(0.28987 0.0760363 9.21485e-22)
(0.333905 0.0720917 4.62634e-24)
(0.382904 0.0754303 5.2589e-22)
(0.438218 0.0764418 1.35365e-21)
(0.503944 0.0732232 2.71437e-21)
(0.580155 0.0683861 -1.15106e-21)