/*--------------------------------*- C++ -*----------------------------------*\
  =========                 |
  \\      /  F ield         | OpenFOAM: The Open Source CFD Toolbox
   \\    /   O peration     | Website:  https://openfoam.org
    \\  /    A nd           | Version:  7
     \\/     M anipulation  |
\*---------------------------------------------------------------------------*/
FoamFile
{
    version     2.0;
    format      ascii;
    class       volVectorField;
    location    "14.6";
    object      U;
}
// * * * * * * * * * * * * * * * * * * * * * * * * * * * * * * * * * * * * * //

dimensions      [0 1 -1 0 0 0 0];

internalField   nonuniform List<vector> 
2000
(
(0.00407326 -1.70894e-05 -1.75315e-22)
(0.0254652 0.048502 0)
(0.066482 0.120278 0)
(0.112094 0.200294 -1.85485e-21)
(0.154085 0.275842 1.00381e-21)
(0.186485 0.338514 4.10354e-22)
(0.207181 0.384999 -1.81516e-21)
(0.217141 0.415821 0)
(0.218331 0.433704 0)
(0.215465 0.441832 0)
(0.00408877 -0.0059021 0)
(0.0196171 0.0309416 -1.24574e-21)
(0.050787 0.0930192 1.14851e-21)
(0.0872715 0.167354 2.56958e-21)
(0.123524 0.242801 0)
(0.1542 0.310364 3.55528e-21)
(0.176232 0.364742 -3.30592e-21)
(0.189192 0.404317 0)
(0.193783 0.430181 1.02144e-20)
(0.193747 0.444946 -2.05247e-20)
(0.00498052 -0.0107359 0)
(0.0166281 0.0156966 1.07612e-20)
(0.0396357 0.0679208 0)
(0.0673521 0.134727 1.07812e-20)
(0.0966293 0.207001 0)
(0.123461 0.276364 -1.16692e-20)
(0.144733 0.336527 0)
(0.159144 0.384089 1.65737e-20)
(0.166348 0.418323 -1.55226e-20)
(0.168637 0.440906 -1.76958e-20)
(0.0064505 -0.0145794 -2.72147e-21)
(0.0157012 0.00285136 -5.26567e-21)
(0.0321785 0.045583 -2.68337e-21)
(0.052117 0.103845 -5.08361e-21)
(0.0741472 0.170472 -5.2628e-21)
(0.0957294 0.238432 5.5024e-21)
(0.114341 0.301484 5.73493e-21)
(0.128411 0.355184 -1.80065e-21)
(0.137017 0.397199 1.40453e-20)
(0.140566 0.427976 1.76934e-20)
(0.00818836 -0.0174607 -2.83221e-21)
(0.0159878 -0.0076263 -6.2067e-21)
(0.0273001 0.0262337 -1.23558e-20)
(0.0407238 0.0756066 5.53937e-21)
(0.0560303 0.134926 0)
(0.0718669 0.198701 0)
(0.0865379 0.261482 -1.26402e-20)
(0.0986581 0.318615 -1.37678e-20)
(0.1073 0.366784 1.3447e-20)
(0.110561 0.404875 4.75821e-20)
(0.00986497 -0.0193789 3.2732e-21)
(0.0166481 -0.015849 3.47418e-21)
(0.023809 0.00980507 -1.93968e-20)
(0.0319661 0.0503522 3.0069e-20)
(0.0415383 0.101457 -5.54531e-21)
(0.0519462 0.159006 0)
(0.0622226 0.218651 0)
(0.0713781 0.276169 6.21407e-20)
(0.0789246 0.328081 -6.54967e-20)
(0.0802739 0.37136 1.50188e-20)
(0.0111376 -0.0203087 2.89565e-20)
(0.0169231 -0.0219609 0)
(0.0206308 -0.00392547 2.53987e-20)
(0.0246058 0.0280281 -2.40686e-20)
(0.0295808 0.0705315 0)
(0.0353926 0.120571 1.18917e-20)
(0.0415642 0.174861 -3.44291e-20)
(0.0475351 0.229922 -4.90375e-20)
(0.0534273 0.282851 2.35393e-20)
(0.0516862 0.328115 2.69482e-20)
(0.0116719 -0.0202236 -6.02939e-20)
(0.0162147 -0.0261064 -7.35015e-21)
(0.0169733 -0.015185 -1.43974e-20)
(0.0176767 0.00845761 -3.28972e-20)
(0.0191422 0.0422655 -1.26005e-20)
(0.021382 0.0840742 -1.29784e-20)
(0.0241956 0.131465 -1.10615e-21)
(0.0274482 0.181766 0)
(0.0317675 0.233033 0)
(0.026973 0.27722 -2.55595e-21)
(0.0111867 -0.0191386 3.13383e-20)
(0.0141549 -0.0284094 -3.14325e-20)
(0.0124395 -0.0240816 2.08127e-20)
(0.0106908 -0.00838714 4.70974e-20)
(0.00963256 0.0168234 -1.27983e-20)
(0.00929665 0.0500477 1.1461e-20)
(0.00963624 0.0895029 1.22925e-20)
(0.0109626 0.133262 0)
(0.0143845 0.18023 0)
(0.00812243 0.219895 2.63667e-21)
(0.00951441 -0.0171405 -4.31945e-21)
(0.0106653 -0.0289724 3.9556e-20)
(0.00707352 -0.0305426 -7.48504e-21)
(0.00371818 -0.0221949 0)
(0.00106635 -0.00519398 0)
(-0.000957605 0.0194413 2.63232e-20)
(-0.00234906 0.0503344 0)
(-0.00241482 0.0859717 -2.85502e-20)
(0.000817804 0.125125 -1.43126e-21)
(-0.00079614 0.156616 2.66997e-20)
(0.191343 0.443348 1.21468e-21)
(0.151467 0.421676 -1.23808e-21)
(0.117147 0.404256 -1.54426e-21)
(0.0908477 0.394543 -1.68496e-21)
(0.061678 0.389976 -1.85069e-21)
(0.0393879 0.388794 -7.00984e-24)
(0.0124771 0.391894 9.45976e-22)
(-0.00243133 0.40293 2.98437e-21)
(-0.0215306 0.422822 0)
(-0.0120266 0.461202 -2.06199e-21)
(0.178995 0.452943 3.30171e-21)
(0.143852 0.431543 -5.65466e-21)
(0.112325 0.413077 1.02325e-20)
(0.0879768 0.402747 1.68798e-21)
(0.0605772 0.397671 3.47878e-21)
(0.0399925 0.395919 5.52105e-21)
(0.0146976 0.398207 -1.93406e-21)
(0.000932503 0.407667 -1.98493e-21)
(-0.0171557 0.424449 3.93228e-21)
(-0.00952193 0.456442 2.05718e-21)
(0.164668 0.459519 0)
(0.135652 0.440325 -4.95138e-21)
(0.1075 0.421525 -2.99789e-21)
(0.0851791 0.410501 0)
(0.059532 0.404811 -1.049e-20)
(0.040647 0.40248 3.40457e-21)
(0.0169017 0.40395 3.57615e-21)
(0.00414662 0.411958 1.12983e-20)
(-0.0131136 0.425983 -3.91952e-21)
(-0.00722833 0.452702 7.78333e-21)
(0.148182 0.461687 0)
(0.126623 0.447122 4.99501e-21)
(0.102499 0.429161 0)
(0.082323 0.4176 1.28926e-20)
(0.0584536 0.411311 -1.29564e-20)
(0.0412693 0.408455 -7.08727e-21)
(0.0190318 0.409151 -1.94339e-22)
(0.00719159 0.41588 -1.10878e-20)
(-0.00935225 0.427547 -1.85118e-21)
(-0.0051136 0.449938 -9.62915e-21)
(0.129412 0.458444 5.59041e-21)
(0.116808 0.4524 -1.04465e-20)
(0.0974799 0.436557 1.33866e-21)
(0.0794863 0.424312 -1.16046e-20)
(0.0573731 0.417322 0)
(0.0418482 0.413937 -6.89603e-21)
(0.0210472 0.4139 -1.7278e-22)
(0.0100113 0.419473 1.43812e-20)
(-0.00594988 0.429147 1.82617e-21)
(-0.00323486 0.447822 -1.83319e-21)
(0.108735 0.447621 -2.48321e-20)
(0.105784 0.453713 2.0056e-20)
(0.0919088 0.442172 1.12641e-20)
(0.0763657 0.43001 -1.1252e-20)
(0.0561122 0.422597 -6.21118e-21)
(0.0422524 0.418761 0)
(0.0229228 0.418157 -1.35961e-20)
(0.012729 0.422853 6.74897e-21)
(-0.00273426 0.430983 6.99026e-21)
(-0.00152817 0.446639 7.0051e-21)
(0.0865226 0.430507 -2.93411e-21)
(0.0945351 0.454573 0)
(0.086546 0.448154 0)
(0.0733554 0.435692 0)
(0.0549207 0.427701 -6.35706e-21)
(0.0426137 0.423302 1.25457e-20)
(0.0245844 0.422055 1.33845e-20)
(0.0150345 0.425848 -2.01224e-20)
(-4.44685e-05 0.432562 3.4062e-21)
(-0.000112142 0.445634 -1.03131e-20)
(0.0635958 0.401676 1.51063e-20)
(0.0812323 0.447319 1.88759e-20)
(0.0797482 0.449866 -1.86849e-20)
(0.0697536 0.439517 2.33406e-20)
(0.0533091 0.431631 -2.9012e-20)
(0.042603 0.426888 0)
(0.0261976 0.425445 -6.32314e-21)
(0.0176603 0.428949 1.77256e-22)
(0.00295566 0.434946 -6.44877e-21)
(0.00133735 0.446257 -6.46133e-21)
(0.0416912 0.374207 -1.25047e-20)
(0.0703201 0.445779 0)
(0.0739979 0.454222 -2.35117e-20)
(0.0665232 0.444634 4.36407e-20)
(0.0520628 0.436434 -1.65944e-20)
(0.0426729 0.43093 -2.99771e-21)
(0.0271108 0.428551 6.30966e-21)
(0.0188581 0.431049 4.82553e-23)
(0.00450164 0.435825 9.46753e-21)
(0.00219634 0.445213 9.48124e-21)
(0.0183215 0.319707 -1.39762e-20)
(0.0532831 0.424333 1.35637e-20)
(0.0652185 0.449493 2.35743e-21)
(0.0624616 0.445765 0)
(0.0498955 0.438205 0)
(0.0422502 0.432899 2.89427e-21)
(0.0292077 0.431355 1.17975e-20)
(0.0227169 0.434789 -1.15946e-20)
(0.00853465 0.440169 -2.93537e-21)
(0.00387247 0.449245 2.88812e-21)
(-0.00769374 0.296221 0)
(0.0344721 0.423975 0)
(0.046029 0.456536 0)
(0.0510683 0.459786 0)
(0.0465974 0.453591 0)
(0.0403412 0.444137 0)
(0.0239693 0.435775 0)
(0.0152497 0.433489 0)
(0.0035806 0.433921 0)
(0.00275986 0.437977 0)
(-0.0293658 0.256766 0)
(0.0218148 0.399591 0)
(0.0284705 0.442081 0)
(0.0328495 0.446472 0)
(0.0302298 0.44227 0)
(0.0366347 0.444753 0)
(0.036421 0.450344 0)
(0.036005 0.457008 0)
(0.0223166 0.46547 0)
(0.0103184 0.47422 0)
(-0.020837 0.265492 0)
(0.0046105 0.368189 0)
(0.0204395 0.435355 0)
(0.0410277 0.460532 0)
(0.0380492 0.457932 0)
(0.0288278 0.449793 0)
(0.0145884 0.446725 0)
(0.010855 0.446295 0)
(0.0019852 0.448115 0)
(0.00289949 0.452733 0)
(0.0283668 0.318966 0)
(0.00577433 0.350962 0)
(0.00149778 0.395281 0)
(0.0192051 0.424904 0)
(0.0303684 0.443906 0)
(0.0404561 0.456663 0)
(0.0350586 0.46562 0)
(0.0298415 0.476172 0)
(0.0138144 0.484715 0)
(0.00616444 0.49084 0)
(0.0979934 0.393314 0)
(0.0529912 0.39619 0)
(0.034231 0.421117 0)
(0.0359069 0.438185 0)
(0.029742 0.444959 0)
(0.0281355 0.451148 0)
(0.0194147 0.45446 0)
(0.0166825 0.459042 0)
(0.00696719 0.462076 0)
(0.00419063 0.463335 0)
(0.162326 0.441302 0)
(0.109908 0.424601 0)
(0.0653554 0.414188 0)
(0.0533299 0.42179 0)
(0.0507685 0.44008 0)
(0.0550562 0.462032 0)
(0.0484834 0.481307 0)
(0.0420919 0.49783 0)
(0.02703 0.508429 0)
(0.0121266 0.513184 0)
(0.21026 0.479242 0)
(0.188136 0.497621 0)
(0.14767 0.487294 0)
(0.109283 0.465409 0)
(0.0755612 0.451717 0)
(0.0583831 0.452741 0)
(0.0431787 0.461442 0)
(0.0345623 0.473278 0)
(0.0223207 0.483833 0)
(0.0113865 0.490901 0)
(0.225137 0.45325 0)
(0.216448 0.485584 0)
(0.191527 0.490909 0)
(0.166265 0.486911 0)
(0.13583 0.486375 0)
(0.112786 0.496484 0)
(0.0879542 0.512061 0)
(0.0676323 0.528164 0)
(0.0414273 0.543037 0)
(0.0174472 0.55737 0)
(0.242896 0.459554 0)
(0.263633 0.535965 0)
(0.243744 0.547557 0)
(0.20972 0.528105 0)
(0.165236 0.504379 0)
(0.127824 0.495304 0)
(0.0925403 0.500286 0)
(0.0670569 0.512138 0)
(0.0382217 0.525308 0)
(0.0147624 0.540004 0)
(0.198412 0.340727 0)
(0.253728 0.470853 0)
(0.269604 0.539928 0)
(0.262282 0.565563 0)
(0.231937 0.569386 0)
(0.194943 0.571465 0)
(0.150238 0.579071 0)
(0.109011 0.591511 0)
(0.0635349 0.605149 0)
(0.0223692 0.618674 0)
(-0.0321619 0.146854 1.54504e-20)
(-0.0106282 0.177013 -1.51594e-20)
(0.0380746 0.251374 2.06812e-21)
(0.0980927 0.333799 0)
(0.151867 0.403365 0)
(0.189974 0.431784 1.17696e-21)
(0.210188 0.438326 -3.25477e-21)
(0.207689 0.391185 3.19707e-21)
(0.196163 0.356473 2.1854e-22)
(0.15049 0.23045 -2.13856e-22)
(-0.0121307 0.099101 -1.56018e-20)
(0.0183268 0.163877 0)
(0.0710781 0.26327 1.27949e-20)
(0.124376 0.349702 -2.71099e-20)
(0.166165 0.408523 1.5096e-20)
(0.192986 0.423363 -1.17613e-21)
(0.202314 0.414184 1.74599e-21)
(0.19295 0.357142 2.27852e-21)
(0.174706 0.312868 -4.1496e-23)
(0.131854 0.188072 -1.89707e-22)
(0.0124547 0.0782989 1.92481e-20)
(0.0526394 0.178016 -1.55216e-20)
(0.103087 0.28714 1.53784e-20)
(0.146052 0.365587 -1.1573e-20)
(0.175816 0.40783 8.75878e-21)
(0.192006 0.407623 0)
(0.191764 0.383976 -1.74991e-21)
(0.176506 0.318974 -7.66518e-23)
(0.152452 0.266909 -7.90471e-22)
(0.112975 0.146098 -1.25131e-23)
(0.0436119 0.0914863 -3.50704e-21)
(0.0919892 0.211069 0)
(0.132669 0.313892 0)
(0.162696 0.375697 0)
(0.180209 0.399254 6.68969e-21)
(0.186178 0.384345 -4.36356e-21)
(0.177467 0.347815 1.69487e-22)
(0.157224 0.276705 -9.14172e-22)
(0.129587 0.219562 -1.81044e-22)
(0.0945121 0.105317 2.09113e-22)
(0.0861657 0.132659 2.10657e-21)
(0.129913 0.250785 -1.0649e-20)
(0.156247 0.335553 -5.73112e-21)
(0.172618 0.376712 5.72715e-21)
(0.178937 0.381898 -2.29387e-21)
(0.175913 0.353677 0)
(0.160232 0.306422 -1.53941e-21)
(0.136269 0.231501 1.99414e-21)
(0.10704 0.172055 -8.88232e-22)
(0.077156 0.0667311 -2.97609e-23)
(0.13162 0.185703 -2.43956e-20)
(0.160859 0.285653 3.69153e-21)
(0.171915 0.346937 9.14406e-22)
(0.17587 0.367181 5.14711e-21)
(0.172592 0.355852 0)
(0.161903 0.316369 0)
(0.140741 0.260888 0)
(0.114418 0.184628 9.60263e-22)
(0.0854481 0.125522 0)
(0.0612589 0.0313778 0)
(0.172905 0.235588 0)
(0.182735 0.308917 8.10637e-21)
(0.179646 0.345882 -5.39296e-21)
(0.17319 0.347186 -3.86779e-21)
(0.161947 0.321949 3.88736e-21)
(0.144953 0.273552 1.38712e-21)
(0.119837 0.212539 -1.51029e-21)
(0.0925776 0.137475 -3.34267e-21)
(0.0653375 0.0810283 3.18081e-22)
(0.0453165 0.000209136 1.03106e-22)
(0.204398 0.273351 0)
(0.195324 0.317903 -2.71717e-21)
(0.180322 0.332465 -1.00987e-21)
(0.16559 0.317809 0)
(0.147911 0.281495 7.262e-22)
(0.125972 0.226646 -2.14383e-21)
(0.0984284 0.162874 1.71117e-21)
(0.0716457 0.0914815 3.88692e-22)
(0.0471876 0.0398537 -2.87442e-22)
(0.0337266 -0.0264 -2.96181e-23)
(0.223874 0.294803 2.23848e-21)
(0.199609 0.312596 2.02574e-21)
(0.17532 0.308124 -6.02396e-22)
(0.154191 0.280696 3.76342e-22)
(0.131446 0.236075 7.53491e-22)
(0.10591 0.177252 9.44715e-22)
(0.0774366 0.113456 -2.50528e-22)
(0.0524726 0.0480267 -1.898e-22)
(0.0317361 0.00317718 2.88381e-22)
(0.0243184 -0.0485841 1.07883e-23)
(0.232121 0.299431 -4.80025e-22)
(0.197201 0.294709 4.90525e-22)
(0.166104 0.274991 -4.33376e-22)
(0.140102 0.237752 -3.75734e-22)
(0.113518 0.187422 2.93249e-22)
(0.0857292 0.12705 -5.88567e-22)
(0.057725 0.0658018 3.55318e-22)
(0.0357229 0.00822345 8.43288e-23)
(0.0194314 -0.0286289 0)
(0.0167392 -0.0670239 -1.08085e-23)
(0.231539 0.289446 4.12091e-22)
(0.189805 0.266813 -4.20882e-22)
(0.154022 0.235391 -3.15551e-22)
(0.124382 0.190948 -2.81922e-22)
(0.0950903 0.137307 -2.59894e-22)
(0.0663602 0.0776924 2.74659e-23)
(0.0400283 0.0212784 1.11409e-22)
(0.0217863 -0.027076 2.58838e-22)
(0.0102629 -0.0553723 0)
(0.0110267 -0.0823288 -2.23192e-23)
(0.224753 0.268192 0)
(0.178944 0.23156 -1.25123e-21)
(0.140228 0.191563 2.11594e-21)
(0.108001 0.142205 2.82318e-22)
(0.0770778 0.087443 4.5416e-22)
(0.0486284 0.0306906 6.57675e-22)
(0.024908 -0.0190136 -2.07156e-22)
(0.0108545 -0.0574102 -1.61966e-22)
(0.00391893 -0.0773189 2.10308e-22)
(0.00701077 -0.0951489 2.22625e-23)
(0.213824 0.238799 0)
(0.165888 0.191357 -1.09626e-21)
(0.125668 0.145559 -5.40419e-22)
(0.0918028 0.0932992 0)
(0.0602696 0.0393713 -1.28051e-21)
(0.0330663 -0.0127073 4.08422e-22)
(0.0127374 -0.0543952 3.73608e-22)
(0.00296499 -0.0827852 8.91143e-22)
(9.55854e-07 -0.0951326 -2.09621e-22)
(0.0043386 -0.106181 1.04828e-22)
(0.200185 0.203822 0)
(0.151716 0.14834 1.10522e-21)
(0.111169 0.0991801 0)
(0.0764831 0.0457644 1.55873e-21)
(0.0451473 -0.00560223 -1.56694e-21)
(0.0200544 -0.0516156 -7.01336e-22)
(0.00367044 -0.0846136 6.86818e-24)
(-0.00215111 -0.103604 -8.61161e-22)
(-0.00221249 -0.109698 -1.71305e-22)
(0.00263097 -0.116071 -1.6494e-22)
(0.184926 0.165424 9.4502e-21)
(0.137425 0.104375 -3.58228e-21)
(0.0974707 0.0539245 -2.38178e-22)
(0.062395 0.000882394 -1.48753e-21)
(0.032109 -0.0465326 0)
(0.00985492 -0.0855832 -6.54655e-22)
(-0.0024974 -0.109795 8.52302e-23)
(-0.00509511 -0.120509 1.10101e-21)
(-0.00329542 -0.121999 5.74994e-23)
(0.00156355 -0.125454 -5.746e-23)
(0.169056 0.125577 8.32772e-22)
(0.123946 0.0610111 5.20457e-21)
(0.0847956 0.0110229 1.36671e-21)
(0.0499385 -0.040435 -1.36613e-21)
(0.0215061 -0.0828725 -6.26579e-22)
(0.00241537 -0.114479 0)
(-0.00629935 -0.130395 -1.12677e-21)
(-0.00637284 -0.134429 6.09727e-22)
(-0.00352421 -0.132991 4.09953e-22)
(0.000888949 -0.134775 1.03096e-22)
(0.153467 0.0861386 -1.26842e-21)
(0.111565 0.0195162 0)
(0.073528 -0.028668 0)
(0.0395705 -0.0776419 0)
(0.013364 -0.114329 -5.99232e-22)
(-0.00252709 -0.138482 1.22419e-21)
(-0.00817463 -0.147178 1.10302e-21)
(-0.00643326 -0.146385 -1.4509e-21)
(-0.00332376 -0.143434 1.04082e-22)
(0.000440321 -0.144352 -2.05095e-22)
(0.138468 0.0490884 -2.78022e-21)
(0.100299 -0.0193083 3.25631e-21)
(0.0641906 -0.0646577 -3.22681e-21)
(0.031399 -0.110382 2.4108e-21)
(0.00753643 -0.140928 -2.97873e-21)
(-0.00546969 -0.158099 0)
(-0.00854416 -0.161033 -5.48264e-22)
(-0.00581004 -0.157276 1.26697e-23)
(-0.00297436 -0.153892 -2.93371e-22)
(0.000125521 -0.154392 -9.68338e-23)
(0.123869 0.0163183 -1.39693e-21)
(0.0899935 -0.0552997 0)
(0.0568383 -0.0968737 -2.99598e-21)
(0.0255514 -0.138619 5.00144e-21)
(0.00389478 -0.162888 -1.7781e-21)
(-0.00687824 -0.173993 -2.93446e-22)
(-0.00804926 -0.172892 5.47019e-22)
(-0.00494507 -0.167843 7.80845e-23)
(-0.0026384 -0.164726 5.51907e-22)
(-9.46322e-05 -0.165004 1.89089e-22)
(0.113262 -0.0102203 -5.54322e-21)
(0.0809775 -0.0885572 5.39191e-21)
(0.050569 -0.125558 3.82395e-22)
(0.0211203 -0.16258 0)
(0.00195555 -0.18059 0)
(-0.0072513 -0.186842 3.01433e-22)
(-0.00722993 -0.183558 9.89349e-22)
(-0.00416026 -0.178621 -9.71684e-22)
(-0.00238713 -0.176123 -9.37796e-23)
(-0.000229032 -0.176227 9.1763e-23)
(0.114126 -0.0572773 0)
(0.0642321 -0.157469 0)
(0.0320096 -0.185004 0)
(0.0064716 -0.210524 0)
(-0.00352005 -0.214089 0)
(-0.00636863 -0.212059 0)
(-0.00370771 -0.207976 0)
(-0.00159763 -0.205878 0)
(-0.00133602 -0.20498 0)
(-0.000255534 -0.204333 0)
(0.0335777 -0.24749 0)
(-0.000171933 -0.300923 0)
(0.019112 -0.273853 0)
(0.00571051 -0.285753 0)
(0.00514503 -0.268383 0)
(-0.00194145 -0.269012 0)
(-0.00172916 -0.263617 0)
(-0.00117653 -0.264439 0)
(-0.000202868 -0.262473 0)
(-6.97432e-05 -0.26156 0)
(0.0588604 -0.297027 0)
(0.0357129 -0.321594 0)
(0.0345566 -0.301902 0)
(0.0105618 -0.326971 0)
(0.00979637 -0.31286 0)
(-0.00202266 -0.322292 0)
(0.00147536 -0.313183 0)
(0.000553645 -0.316119 0)
(0.00141796 -0.313362 0)
(-0.000163935 -0.3136 0)
(0.0336405 -0.346432 0)
(0.0193723 -0.377553 0)
(0.0149222 -0.36554 0)
(0.00656508 -0.383292 0)
(0.00797375 -0.368849 0)
(-0.000480585 -0.377963 0)
(0.00521959 -0.366933 0)
(-2.51578e-05 -0.373356 0)
(0.00248601 -0.368024 0)
(-0.00032685 -0.36983 0)
(0.030548 -0.408137 0)
(0.0191182 -0.443315 0)
(0.0158969 -0.424223 0)
(0.0104901 -0.442493 0)
(0.00783569 -0.430393 0)
(0.00240453 -0.439433 0)
(0.00526468 -0.431911 0)
(0.000184656 -0.43831 0)
(0.00380654 -0.431218 0)
(-0.00101767 -0.435393 0)
(0.0221488 -0.482681 0)
(0.0148411 -0.515018 0)
(0.0135868 -0.493906 0)
(0.00705212 -0.516162 0)
(0.00639559 -0.501487 0)
(0.00337398 -0.514627 0)
(0.00417985 -0.505858 0)
(0.00141019 -0.512286 0)
(0.00307716 -0.505697 0)
(-0.00119419 -0.510303 0)
(0.0167533 -0.573384 0)
(0.0113781 -0.606497 0)
(0.00956039 -0.5858 0)
(0.00628278 -0.607739 0)
(0.00530965 -0.591623 0)
(0.0027952 -0.6083 0)
(0.00336493 -0.595829 0)
(0.00171803 -0.605942 0)
(0.00239964 -0.596072 0)
(-0.00045332 -0.601925 0)
(0.0129149 -0.698155 0)
(0.00897388 -0.727617 0)
(0.00717252 -0.70744 0)
(0.00424677 -0.729022 0)
(0.00417693 -0.713949 0)
(0.00248823 -0.729946 0)
(0.00281091 -0.717834 0)
(0.00188366 -0.728773 0)
(0.00154275 -0.717417 0)
(-0.000468211 -0.726517 0)
(0.0073998 -0.849026 0)
(0.00511065 -0.86711 0)
(0.00430834 -0.856052 0)
(0.00263574 -0.870383 0)
(0.00239708 -0.861779 0)
(0.00118871 -0.873749 0)
(0.00146502 -0.865646 0)
(0.000221843 -0.873071 0)
(-0.000226272 -0.865488 0)
(-0.000472012 -0.873133 0)
(0.00207206 -0.960587 0)
(0.00148672 -0.969074 0)
(0.00115663 -0.967576 0)
(0.000537606 -0.973821 0)
(0.000365224 -0.971572 0)
(0.000125398 -0.976546 0)
(0.000320838 -0.973051 0)
(-0.000279509 -0.975398 0)
(-0.000515243 -0.971428 0)
(-0.000210915 -0.974843 0)
(0.102132 -0.0899014 9.214e-21)
(0.0395464 -0.263276 -9.25708e-21)
(0.058829 -0.311026 1.27008e-21)
(0.0335382 -0.360433 0)
(0.0340145 -0.424385 0)
(0.0231443 -0.500688 1.39163e-21)
(0.0191174 -0.591669 -5.91923e-21)
(0.0136899 -0.713485 5.90874e-21)
(0.00812361 -0.857294 1.58487e-21)
(0.00273445 -0.960219 -1.58004e-21)
(0.0979934 -0.104357 -1.15027e-20)
(0.041654 -0.270679 0)
(0.057817 -0.31558 8.39408e-21)
(0.0338281 -0.36437 -1.92266e-20)
(0.035424 -0.429089 1.22702e-20)
(0.0236138 -0.506172 -1.25353e-21)
(0.0201787 -0.597018 2.80476e-21)
(0.0140566 -0.718073 5.82728e-21)
(0.00843364 -0.858416 1.63507e-21)
(0.00299819 -0.959213 1.63892e-21)
(0.0937212 -0.119864 1.44683e-20)
(0.0436413 -0.281678 -9.89157e-21)
(0.0568068 -0.321376 9.79851e-21)
(0.0347675 -0.368295 -1.02761e-20)
(0.0369733 -0.433449 7.61552e-21)
(0.0242842 -0.510754 0)
(0.0213821 -0.601262 -2.81177e-21)
(0.0146764 -0.721574 1.81082e-22)
(0.00884391 -0.858125 -3.04712e-21)
(0.00315134 -0.957114 -3.1495e-21)
(0.089449 -0.132883 -2.35963e-21)
(0.0454669 -0.291445 0)
(0.0561322 -0.32703 0)
(0.0364328 -0.372245 0)
(0.0387437 -0.437801 8.45927e-21)
(0.0252626 -0.514918 -5.6159e-21)
(0.0227725 -0.605132 -1.25673e-23)
(0.0155651 -0.724541 -3.34325e-21)
(0.00943086 -0.857957 -1.74936e-21)
(0.00327931 -0.954813 -1.9055e-21)
(0.086043 -0.143428 -5.20249e-22)
(0.047259 -0.298177 -7.50764e-21)
(0.0557033 -0.331287 -5.20107e-21)
(0.0387072 -0.375561 5.19815e-21)
(0.0407318 -0.441589 -2.80579e-21)
(0.0265749 -0.518479 0)
(0.024342 -0.60855 -3.16808e-21)
(0.0166491 -0.727065 6.92048e-21)
(0.0101921 -0.858125 -3.56179e-21)
(0.00345435 -0.952762 3.69853e-21)
(0.0839874 -0.151576 -2.13858e-20)
(0.0492876 -0.302659 2.61857e-21)
(0.0555463 -0.33416 -1.65701e-22)
(0.0414847 -0.377915 5.40306e-21)
(0.0429221 -0.444329 0)
(0.0282156 -0.521084 0)
(0.0260582 -0.611179 0)
(0.0178618 -0.728914 3.72376e-21)
(0.0110876 -0.858216 0)
(0.00370138 -0.950899 0)
(0.0833816 -0.156839 0)
(0.0517262 -0.305629 8.04587e-21)
(0.0558587 -0.33616 -5.38213e-21)
(0.0447483 -0.379405 -6.00134e-21)
(0.0453502 -0.445859 6.03258e-21)
(0.0301939 -0.52253 3.44614e-21)
(0.0279016 -0.612797 -3.45043e-21)
(0.0191735 -0.729885 -1.33599e-20)
(0.0120637 -0.85786 9.43677e-22)
(0.0039964 -0.948992 -3.32259e-21)
(0.084341 -0.15876 0)
(0.0546288 -0.307093 -2.66978e-21)
(0.0568615 -0.337509 -1.43631e-21)
(0.0485239 -0.380184 0)
(0.0480961 -0.44617 1.69111e-21)
(0.0325396 -0.522758 -5.17005e-21)
(0.0298851 -0.613307 5.63981e-21)
(0.0206106 -0.729824 1.97558e-21)
(0.0131176 -0.856773 -2.20515e-21)
(0.00433484 -0.946754 4.39993e-21)
(0.0872112 -0.157014 2.97417e-21)
(0.0580376 -0.306795 2.82656e-21)
(0.058744 -0.338088 -6.74055e-22)
(0.0528276 -0.380258 8.08177e-22)
(0.0512465 -0.445244 1.66533e-21)
(0.0352841 -0.521772 2.72567e-21)
(0.0320331 -0.612725 -1.0199e-21)
(0.0222035 -0.728783 -1.08927e-21)
(0.0142419 -0.854999 2.21246e-21)
(0.00470085 -0.944133 1.21564e-21)
(0.0925448 -0.15129 -7.10573e-22)
(0.0620553 -0.304536 7.15126e-22)
(0.0616844 -0.337685 -7.43688e-22)
(0.0576645 -0.379527 -8.07196e-22)
(0.0548719 -0.443015 9.23079e-22)
(0.0384524 -0.519535 -1.87049e-21)
(0.0343854 -0.610993 1.55878e-21)
(0.0240101 -0.726684 5.47305e-22)
(0.0154919 -0.852432 0)
(0.00512263 -0.941026 -1.21829e-21)
(0.100978 -0.141377 7.28298e-22)
(0.0668557 -0.300089 -7.33021e-22)
(0.0658591 -0.336126 -8.06836e-22)
(0.0630522 -0.377906 -8.80566e-22)
(0.0590236 -0.439434 -9.68447e-22)
(0.0420568 -0.516061 -5.83752e-23)
(0.0369601 -0.608152 5.59166e-22)
(0.0260332 -0.723717 1.77431e-21)
(0.0168466 -0.849321 0)
(0.00558781 -0.93761 -1.34512e-21)
(0.113069 -0.127207 0)
(0.0727081 -0.293001 -3.09029e-21)
(0.0713998 -0.333256 5.60871e-21)
(0.0690352 -0.375351 8.82122e-22)
(0.0637336 -0.434496 2.00768e-21)
(0.0461153 -0.511248 3.20902e-21)
(0.0398109 -0.604072 -1.12434e-21)
(0.0283315 -0.719619 -1.20272e-21)
(0.0183894 -0.845369 2.69604e-21)
(0.00613135 -0.933721 1.34191e-21)
(0.129102 -0.108949 0)
(0.0799959 -0.282574 -2.99836e-21)
(0.0783388 -0.329001 -1.69195e-21)
(0.0756777 -0.371861 0)
(0.0690393 -0.428261 -6.28e-21)
(0.0506234 -0.505205 2.12387e-21)
(0.0429309 -0.598942 2.45298e-21)
(0.0308542 -0.714762 7.7992e-21)
(0.0200284 -0.841036 -2.68733e-21)
(0.00672177 -0.929656 5.89493e-21)
(0.148843 -0.0871333 0)
(0.089259 -0.268044 3.02402e-21)
(0.0866173 -0.323327 0)
(0.0830896 -0.36729 8.23769e-21)
(0.0749541 -0.420868 -8.27977e-21)
(0.0556157 -0.497705 -4.84771e-21)
(0.0464288 -0.592367 -6.41152e-23)
(0.0337161 -0.708518 -8.03488e-21)
(0.0219048 -0.835625 -1.33251e-21)
(0.00739589 -0.92498 -7.3282e-21)
(0.171396 -0.0624376 2.87031e-20)
(0.101224 -0.248799 -9.74076e-21)
(0.0961515 -0.316133 9.35768e-22)
(0.0913422 -0.36172 -7.90314e-21)
(0.0815185 -0.412294 0)
(0.0611124 -0.488879 -5.08355e-21)
(0.0502128 -0.584985 -3.64373e-22)
(0.0367445 -0.701905 1.09939e-20)
(0.0238187 -0.830148 1.52753e-21)
(0.00811367 -0.920277 -1.53294e-21)
(0.19526 -0.0354123 2.1271e-21)
(0.116608 -0.224546 1.74046e-20)
(0.106852 -0.306985 8.25098e-21)
(0.100633 -0.354667 -8.24529e-21)
(0.0888433 -0.402251 -4.87011e-21)
(0.067144 -0.478537 0)
(0.0544727 -0.575801 -1.13558e-20)
(0.0402466 -0.693391 5.66952e-21)
(0.0260751 -0.823074 6.07012e-21)
(0.00891933 -0.914642 6.63838e-21)
(0.218567 -0.00895475 -4.08334e-21)
(0.135811 -0.195572 0)
(0.118854 -0.295359 0)
(0.110835 -0.346568 0)
(0.09667 -0.391728 -5.49086e-21)
(0.073558 -0.467762 1.03437e-20)
(0.058928 -0.566684 1.16e-20)
(0.0437547 -0.685603 -1.82259e-20)
(0.0282633 -0.816702 3.30713e-21)
(0.00975966 -0.909355 -9.85061e-21)
(0.239284 0.0152153 -1.04871e-20)
(0.159725 -0.162876 1.61375e-20)
(0.132541 -0.279884 -1.59962e-20)
(0.122174 -0.336141 2.01489e-20)
(0.105472 -0.379476 -2.53068e-20)
(0.0807582 -0.454647 0)
(0.0642208 -0.554341 -6.12332e-21)
(0.0480339 -0.674378 -2.8385e-22)
(0.0309999 -0.807612 -6.89689e-21)
(0.0107067 -0.9025 -7.11142e-21)
(0.255731 0.0361162 -4.56276e-21)
(0.188152 -0.127039 0)
(0.14843 -0.262183 -2.13294e-20)
(0.13334 -0.32693 3.99935e-20)
(0.11408 -0.368874 -1.54975e-20)
(0.0878591 -0.443546 -2.9695e-21)
(0.0691813 -0.545219 6.11037e-21)
(0.0518988 -0.66676 -3.63308e-22)
(0.0334475 -0.801029 1.00192e-20)
(0.0116425 -0.896857 1.05139e-20)
(0.266468 0.0527327 -1.99888e-20)
(0.21934 -0.0880041 1.89945e-20)
(0.170607 -0.234103 2.26509e-21)
(0.147667 -0.31008 0)
(0.125275 -0.353184 0)
(0.0970036 -0.425977 2.87118e-21)
(0.0761427 -0.527913 1.2778e-20)
(0.0572506 -0.651507 -1.23696e-20)
(0.0368344 -0.789275 -3.40303e-21)
(0.0127942 -0.888321 3.31552e-21)
(0.27642 0.0995452 0)
(0.277714 -0.0433515 0)
(0.194931 -0.207416 0)
(0.161466 -0.299555 0)
(0.143535 -0.340021 0)
(0.112661 -0.412115 0)
(0.0876284 -0.517815 0)
(0.0669799 -0.640775 0)
(0.0433028 -0.775987 0)
(0.0150521 -0.87486 0)
(0.340084 0.0903835 0)
(0.341287 -0.012957 0)
(0.258752 -0.145815 0)
(0.199228 -0.265012 0)
(0.169324 -0.31738 0)
(0.146536 -0.385122 0)
(0.114235 -0.492675 0)
(0.0851893 -0.617947 0)
(0.0550329 -0.746289 0)
(0.020302 -0.836387 0)
(0.385507 0.106942 0)
(0.391751 0.0284544 0)
(0.331457 -0.0823904 0)
(0.263575 -0.208138 0)
(0.208416 -0.286625 0)
(0.183497 -0.357989 0)
(0.148522 -0.459903 0)
(0.110485 -0.586348 0)
(0.0716569 -0.710263 0)
(0.0221726 -0.799654 0)
(0.413602 0.0971724 0)
(0.430359 0.0459023 0)
(0.398822 -0.0303665 0)
(0.34297 -0.141991 0)
(0.273988 -0.239382 0)
(0.231227 -0.326899 0)
(0.189357 -0.427961 0)
(0.143047 -0.549525 0)
(0.0945878 -0.661983 0)
(0.0332777 -0.740457 0)
(0.422451 0.0758396 0)
(0.447633 0.0449546 0)
(0.443257 -0.00142353 0)
(0.413649 -0.0831022 0)
(0.354006 -0.175944 0)
(0.296291 -0.27344 0)
(0.239353 -0.378278 0)
(0.17756 -0.493793 0)
(0.114073 -0.599115 0)
(0.0388993 -0.671699 0)
(0.420005 0.0473195 0)
(0.447074 0.026607 0)
(0.458262 -0.00122855 0)
(0.453124 -0.0540654 0)
(0.418707 -0.125822 0)
(0.365793 -0.215679 0)
(0.300383 -0.319153 0)
(0.221324 -0.427025 0)
(0.13954 -0.520587 0)
(0.0500673 -0.573146 0)
(0.410966 0.0246399 0)
(0.434789 0.0102371 0)
(0.449468 -0.00710836 0)
(0.455257 -0.0384772 0)
(0.4397 -0.0843579 0)
(0.401185 -0.148342 0)
(0.340728 -0.231364 0)
(0.254184 -0.32383 0)
(0.154943 -0.411465 0)
(0.0428685 -0.479125 0)
(0.402242 -0.00524223 0)
(0.423735 -0.0153849 0)
(0.433995 -0.0286093 0)
(0.443455 -0.0497902 0)
(0.436279 -0.0803967 0)
(0.410897 -0.121455 0)
(0.362496 -0.179363 0)
(0.283425 -0.247695 0)
(0.183791 -0.310352 0)
(0.0820042 -0.350882 0)
(0.42132 -0.00936273 0)
(0.436272 -0.0142348 0)
(0.420574 -0.0213347 0)
(0.419833 -0.03112 0)
(0.395304 -0.0459005 0)
(0.363731 -0.0660131 0)
(0.310332 -0.0942541 0)
(0.235344 -0.129986 0)
(0.130659 -0.173481 0)
(0.0155984 -0.236588 0)
(0.697854 -0.0143136 0)
(0.693119 -0.019093 0)
(0.667969 -0.0247961 0)
(0.649357 -0.0317822 0)
(0.608455 -0.0408947 0)
(0.563787 -0.0527472 0)
(0.49266 -0.0671089 0)
(0.400185 -0.0867081 0)
(0.274155 -0.118175 0)
(0.177568 -0.174138 0)
(0.316248 0.118967 3.01958e-20)
(0.369355 0.115052 -2.94976e-20)
(0.40063 0.120667 4.54573e-21)
(0.416031 0.0998708 0)
(0.416207 0.0761009 0)
(0.409396 0.0480563 5.91954e-21)
(0.399851 0.0256273 -2.54264e-20)
(0.394011 -0.00275968 2.49112e-20)
(0.431204 -0.00717746 6.48822e-21)
(0.709621 -0.0121457 -6.60244e-21)
(0.32429 0.124502 -3.34271e-20)
(0.370565 0.122447 0)
(0.395769 0.123334 3.11601e-20)
(0.407603 0.0995162 -7.35138e-20)
(0.406633 0.0757077 4.84522e-20)
(0.400416 0.048196 -5.41276e-21)
(0.392398 0.0260192 1.14033e-20)
(0.389407 -0.00172462 2.36706e-20)
(0.434622 -0.00623543 6.04827e-21)
(0.713744 -0.0112196 5.98951e-21)
(0.331032 0.130038 4.03327e-20)
(0.369867 0.128375 -3.25596e-20)
(0.387827 0.124199 3.22624e-20)
(0.395601 0.0983087 -3.9457e-20)
(0.393987 0.0747867 2.9001e-20)
(0.389101 0.0478742 0)
(0.383315 0.0260117 -1.14313e-20)
(0.384084 -0.0010044 -4.92534e-23)
(0.437369 -0.0053976 -1.19506e-20)
(0.717532 -0.0102899 -1.20883e-20)
(0.337146 0.134836 -6.75262e-21)
(0.370818 0.132675 0)
(0.382628 0.12405 0)
(0.386529 0.097026 0)
(0.383918 0.0738363 3.17475e-20)
(0.379549 0.0474228 -2.12944e-20)
(0.375286 0.025808 -2.18061e-22)
(0.379347 -0.000466837 -1.20631e-20)
(0.439857 -0.0047128 -6.03393e-21)
(0.72138 -0.00941736 -6.0561e-21)
(0.34143 0.13853 2.51615e-21)
(0.370542 0.135198 -2.15516e-20)
(0.377918 0.12322 -1.82492e-20)
(0.379138 0.0959871 1.82428e-20)
(0.375804 0.0731388 -1.03166e-20)
(0.371583 0.0471154 0)
(0.368324 0.0256433 -1.1498e-20)
(0.375243 6.64774e-05 2.38258e-20)
(0.442152 -0.00416437 -1.19314e-20)
(0.725134 -0.00864031 1.22065e-20)
(0.34393 0.14138 -5.74493e-20)
(0.36774 0.136344 5.42304e-21)
(0.371698 0.122 -1.62101e-21)
(0.37131 0.0952214 1.83446e-20)
(0.367862 0.0726934 0)
(0.363966 0.0470017 0)
(0.361663 0.0255961 0)
(0.371356 0.000657151 1.1836e-20)
(0.444109 -0.00372431 0)
(0.728561 -0.00796388 0)
(0.345058 0.14376 0)
(0.363086 0.136802 2.4818e-20)
(0.364188 0.120803 -1.68415e-20)
(0.362671 0.09477 -1.99464e-20)
(0.359471 0.0724531 2.0053e-20)
(0.356104 0.0470456 1.12069e-20)
(0.354878 0.0256539 -1.11002e-20)
(0.367381 0.00129282 -4.1367e-20)
(0.445548 -0.00337142 2.96354e-21)
(0.731537 -0.00737654 -9.12754e-21)
(0.344948 0.14599 0)
(0.357369 0.137169 -8.00068e-21)
(0.356221 0.119987 -4.46491e-21)
(0.353753 0.0947179 0)
(0.350857 0.0724379 5.45302e-21)
(0.348045 0.0472393 -1.62491e-20)
(0.347943 0.0258057 1.72854e-20)
(0.36322 0.00195893 6.0186e-21)
(0.446362 -0.00308941 -6.00526e-21)
(0.734041 -0.00686482 1.22406e-20)
(0.343614 0.148383 6.9735e-21)
(0.35094 0.137854 8.51231e-21)
(0.34819 0.119753 -1.88688e-21)
(0.344932 0.0951195 2.44092e-21)
(0.34229 0.0726987 5.20473e-21)
(0.339974 0.047609 8.25908e-21)
(0.340946 0.026066 -2.86402e-21)
(0.358855 0.0026622 -2.95252e-21)
(0.446477 -0.00286015 6.02505e-21)
(0.736098 -0.00641965 3.03996e-21)
(0.341084 0.151255 -1.94404e-21)
(0.343942 0.139117 1.95291e-21)
(0.340118 0.120184 -2.24424e-21)