/*--------------------------------*- C++ -*----------------------------------*\
  =========                 |
  \\      /  F ield         | OpenFOAM: The Open Source CFD Toolbox
   \\    /   O peration     | Website:  https://openfoam.org
    \\  /    A nd           | Version:  7
     \\/     M anipulation  |
\*---------------------------------------------------------------------------*/
FoamFile
{
    version     2.0;
    format      ascii;
    class       volScalarField;
    location    "4";
    object      p;
}
// * * * * * * * * * * * * * * * * * * * * * * * * * * * * * * * * * * * * * //

dimensions      [0 2 -2 0 0 0 0];

internalField   nonuniform List<scalar> 
18000
(
1.08137
1.08014
1.08014
1.08043
1.08107
1.08202
1.08326
1.0848
1.08662
1.08871
1.09106
1.09364
1.09644
1.09945
1.10264
1.10597
1.1094
1.11291
1.11647
1.12005
1.12364
1.1272
1.13071
1.13416
1.13752
1.14078
1.14396
1.14704
1.15001
1.15274
1.07878
1.07764
1.07768
1.07801
1.07867
1.07961
1.08082
1.08229
1.08401
1.08597
1.08813
1.0905
1.09306
1.0958
1.0987
1.10173
1.10486
1.10806
1.11131
1.1146
1.1179
1.12121
1.12448
1.12771
1.13088
1.13398
1.137
1.13995
1.14282
1.14546
1.07604
1.07502
1.07511
1.07547
1.07617
1.07711
1.07829
1.0797
1.08132
1.08312
1.0851
1.08725
1.08956
1.09202
1.09461
1.09733
1.10014
1.10302
1.10595
1.10893
1.11194
1.11497
1.118
1.12101
1.12398
1.12691
1.1298
1.13263
1.13539
1.13796
1.07318
1.07227
1.07242
1.07283
1.07356
1.07451
1.07567
1.07702
1.07853
1.08018
1.08197
1.08389
1.08594
1.08811
1.09039
1.09278
1.09526
1.0978
1.10041
1.10306
1.10577
1.10851
1.11128
1.11406
1.11684
1.11961
1.12235
1.12507
1.12774
1.13024
1.07023
1.06945
1.06965
1.07012
1.07087
1.07184
1.07297
1.07426
1.07566
1.07716
1.07875
1.08044
1.08221
1.08409
1.08605
1.0881
1.09023
1.09243
1.09469
1.09701
1.0994
1.10185
1.10436
1.10691
1.10949
1.11209
1.1147
1.11731
1.1199
1.12234
1.06718
1.06653
1.06679
1.06732
1.06811
1.06909
1.0702
1.07142
1.07271
1.07405
1.07545
1.0769
1.0784
1.07996
1.0816
1.0833
1.08508
1.08692
1.08883
1.09081
1.09287
1.09503
1.09726
1.09957
1.10195
1.10438
1.10686
1.10937
1.11189
1.11429
1.06404
1.06355
1.06387
1.06445
1.06529
1.06628
1.06737
1.06851
1.06969
1.07088
1.07208
1.07329
1.07451
1.07577
1.07707
1.07842
1.07984
1.08132
1.08286
1.08449
1.08623
1.08807
1.09003
1.09211
1.09428
1.09654
1.09889
1.10131
1.10376
1.10611
1.06083
1.0605
1.06089
1.06154
1.06241
1.06341
1.06447
1.06555
1.06662
1.06766
1.06866
1.06962
1.07057
1.07151
1.07248
1.07349
1.07454
1.07565
1.07683
1.07811
1.07951
1.08105
1.08273
1.08456
1.08652
1.08862
1.09083
1.09315
1.09556
1.09788
1.05756
1.05741
1.05786
1.05857
1.05948
1.06049
1.06153
1.06254
1.06351
1.0644
1.0652
1.06592
1.06659
1.06724
1.06788
1.06853
1.06922
1.06996
1.07078
1.0717
1.07277
1.074
1.0754
1.07699
1.07875
1.08067
1.08275
1.08498
1.08733
1.08962
1.05424
1.05427
1.05479
1.05557
1.05651
1.05754
1.05855
1.05951
1.06037
1.06111
1.06172
1.06221
1.06261
1.06295
1.06327
1.06359
1.06392
1.06429
1.06475
1.06533
1.06607
1.06699
1.06812
1.06946
1.07101
1.07277
1.07471
1.07684
1.07915
1.08141
1.05089
1.0511
1.05168
1.05252
1.05351
1.05454
1.05554
1.05644
1.05721
1.0578
1.05823
1.05849
1.05864
1.0587
1.05871
1.05869
1.05867
1.05869
1.05879
1.05903
1.05945
1.06008
1.06094
1.06204
1.06339
1.06497
1.06678
1.06881
1.07106
1.0733
1.04753
1.04791
1.04856
1.04945
1.05048
1.05153
1.05251
1.05337
1.05404
1.0545
1.05475
1.05481
1.05471
1.0545
1.0542
1.05386
1.05351
1.05319
1.05296
1.05287
1.05298
1.05333
1.05392
1.05479
1.05593
1.05734
1.05901
1.06094
1.06313
1.06534
1.04416
1.04471
1.04541
1.04636
1.04743
1.0485
1.04948
1.05029
1.05088
1.05122
1.0513
1.05116
1.05084
1.05037
1.04979
1.04915
1.04848
1.04784
1.04729
1.04689
1.04671
1.04677
1.04712
1.04776
1.0487
1.04994
1.05147
1.05328
1.0554
1.05758
1.0408
1.0415
1.04226
1.04326
1.04437
1.04546
1.04644
1.04722
1.04774
1.04796
1.0479
1.04758
1.04704
1.04633
1.04549
1.04457
1.0436
1.04266
1.04181
1.04112
1.04066
1.04047
1.04057
1.04099
1.04174
1.04281
1.0442
1.04589
1.04792
1.05005
1.03745
1.03829
1.0391
1.04015
1.0413
1.04242
1.04341
1.04416
1.04461
1.04475
1.04456
1.04407
1.04334
1.04241
1.04133
1.04014
1.0389
1.03768
1.03655
1.03559
1.03487
1.03443
1.03431
1.03452
1.03508
1.03599
1.03723
1.03879
1.04071
1.04278
1.03411
1.03508
1.03593
1.03704
1.03824
1.03939
1.04038
1.04112
1.04152
1.04158
1.04127
1.04064
1.03974
1.03861
1.03731
1.03588
1.03439
1.03291
1.03153
1.03032
1.02935
1.02869
1.02835
1.02836
1.02874
1.02948
1.03057
1.032
1.0338
1.0358
1.0308
1.03187
1.03277
1.03393
1.03517
1.03636
1.03737
1.03809
1.03847
1.03845
1.03805
1.03729
1.03623
1.03493
1.03342
1.03178
1.03007
1.02835
1.02673
1.02529
1.02411
1.02323
1.02269
1.02251
1.02271
1.02329
1.02423
1.02552
1.02718
1.02909
1.02751
1.02867
1.02961
1.03082
1.0321
1.03333
1.03436
1.03509
1.03543
1.03536
1.03488
1.03402
1.03282
1.03136
1.02967
1.02784
1.02591
1.02399
1.02216
1.02051
1.01912
1.01804
1.01731
1.01695
1.01699
1.01741
1.0182
1.01933
1.02086
1.02266
1.02424
1.02546
1.02644
1.0277
1.02903
1.0303
1.03136
1.0321
1.03243
1.03231
1.03176
1.0308
1.02949
1.02789
1.02604
1.02403
1.02192
1.0198
1.01778
1.01594
1.01436
1.0131
1.01219
1.01166
1.01154
1.0118
1.01244
1.01343
1.0148
1.01648
1.02099
1.02226
1.02327
1.02458
1.02596
1.02727
1.02837
1.02911
1.02943
1.02928
1.02867
1.02764
1.02622
1.02449
1.0225
1.02033
1.01804
1.01575
1.01356
1.01154
1.00979
1.00836
1.00728
1.0066
1.00632
1.00644
1.00694
1.00778
1.00898
1.01054
1.01776
1.01905
1.02009
1.02145
1.02288
1.02423
1.02536
1.02612
1.02643
1.02626
1.0256
1.0245
1.02299
1.02114
1.01902
1.0167
1.01426
1.01181
1.00945
1.00728
1.00537
1.00378
1.00255
1.00172
1.0013
1.00128
1.00163
1.00233
1.00338
1.00481
1.01453
1.01583
1.01691
1.0183
1.01978
1.02118
1.02233
1.02311
1.02342
1.02322
1.02253
1.02136
1.01976
1.01781
1.01556
1.0131
1.01052
1.00792
1.00542
1.00311
1.00105
0.999311
0.997945
0.996977
0.996419
0.996266
0.996492
0.997051
0.997947
0.999248
1.0113
1.0126
1.0137
1.01514
1.01666
1.0181
1.01928
1.02007
1.02037
1.02016
1.01942
1.01819
1.01651
1.01445
1.01209
1.00949
1.00678
1.00405
1.00142
0.998968
0.996777
0.994909
0.993413
0.992319
0.991638
0.991361
0.991464
0.991897
0.99265
0.993829
1.00806
1.00934
1.01047
1.01195
1.01351
1.01498
1.01618
1.01698
1.01728
1.01704
1.01625
1.01495
1.01319
1.01104
1.00856
1.00584
1.003
1.00016
0.997399
0.994826
0.992513
0.990526
0.988911
0.9877
0.986903
0.986512
0.986501
0.986819
0.987445
0.988517
1.00479
1.00605
1.00721
1.00872
1.01032
1.01182
1.01304
1.01383
1.01411
1.01384
1.013
1.01163
1.00979
1.00753
1.00494
1.00211
0.999154
0.996192
0.993324
0.99064
0.988218
0.986121
0.984397
0.983075
0.982167
0.981667
0.981549
0.981765
0.982285
0.983277
1.00148
1.00271
1.0039
1.00545
1.00708
1.0086
1.00982
1.01061
1.01086
1.01054
1.00965
1.0082
1.00626
1.0039
1.0012
0.998258
0.995198
0.992133
0.989164
0.986381
0.983859
0.981661
0.979832
0.978402
0.977383
0.976772
0.97655
0.976672
0.977109
0.978056
0.998122
0.999331
1.00054
1.00212
1.00378
1.00531
1.00652
1.00729
1.00751
1.00713
1.00616
1.00463
1.0026
1.00013
0.997319
0.994274
0.991117
0.987959
0.9849
0.982027
0.979413
0.977118
0.975186
0.973642
0.972503
0.971771
0.971435
0.971467
0.971841
0.972787
0.994698
0.995887
0.997126
0.998734
1.00041
1.00193
1.00313
1.00387
1.00403
1.00359
1.00254
1.00091
0.998771
0.996197
0.993283
0.990143
0.986897
0.983657
0.980519
0.977565
0.974866
0.972475
0.970432
0.968763
0.967482
0.9666
0.966125
0.966052
0.966382
0.967376
0.991191
0.992371
0.993638
0.995272
0.996955
0.99847
0.999639
1.00032
1.00043
0.999901
0.998751
0.997021
0.994776
0.992097
0.989085
0.985858
0.982536
0.979226
0.97602
0.972993
0.970211
0.967723
0.96556
0.963742
0.962283
0.961198
0.96051
0.960261
0.960563
0.961743
0.987594
0.988777
0.990075
0.991731
0.993415
0.994905
0.996031
0.996653
0.996676
0.996056
0.994802
0.992963
0.99061
0.987829
0.984728
0.981425
0.978039
0.974672
0.971408
0.968317
0.965456
0.962867
0.960572
0.958582
0.956903
0.955533
0.954479
0.953776
0.953589
0.954765
1.16129
1.17498
1.18307
1.19031
1.1949
1.19825
1.20035
1.20161
1.20216
1.20213
1.20162
1.20074
1.19958
1.19817
1.19655
1.19479
1.19291
1.19095
1.18892
1.18684
1.18467
1.18243
1.1801
1.17773
1.17524
1.17279
1.17022
1.16798
1.16589
1.16518
1.15395
1.16848
1.17711
1.18476
1.18959
1.19312
1.19536
1.19672
1.19735
1.1974
1.19698
1.19617
1.19506
1.1937
1.19215
1.19043
1.18858
1.18666
1.18466
1.18259
1.18043
1.17821
1.17587
1.1735
1.171
1.16854
1.16594
1.16368
1.16156
1.16081
1.14635
1.16184
1.17105
1.17914
1.18424
1.18796
1.19035
1.19181
1.19252
1.19265
1.19233
1.19159
1.19053
1.18922
1.18774
1.18607
1.18426
1.18237
1.1804
1.17835
1.17621
1.174
1.17167
1.1693
1.16681
1.16433
1.16173
1.15945
1.1573
1.15652
1.13852
1.15508
1.1649
1.17346
1.17886
1.18277
1.1853
1.18687
1.18768
1.1879
1.18766
1.18698
1.186
1.18475
1.18332
1.18169
1.17993
1.17808
1.17614
1.17412
1.172
1.16981
1.1675
1.16514
1.16265
1.16018
1.15758
1.15528
1.1531
1.1523
1.13047
1.1482
1.15865
1.16773
1.17345
1.17756
1.18024
1.18193
1.18283
1.18314
1.18297
1.18237
1.18146
1.18027
1.17889
1.17732
1.17561
1.17379
1.17189
1.1699
1.1678
1.16564
1.16335
1.16102
1.15854
1.15608
1.15348
1.15117
1.14897
1.14814
1.12221
1.14122
1.15234
1.16195
1.168
1.17232
1.17516
1.17697
1.17797
1.17837
1.17827
1.17776
1.17691
1.17579
1.17446
1.17294
1.17128
1.16951
1.16765
1.16569
1.16363
1.1615
1.15924
1.15693
1.15448
1.15203
1.14944
1.14713
1.14491
1.14406
1.11378
1.13413
1.14596
1.15613
1.16253
1.16707
1.17006
1.17199
1.1731
1.1736
1.17357
1.17313
1.17236
1.17131
1.17003
1.16857
1.16697
1.16524
1.16341
1.1615
1.15947
1.15737
1.15515
1.15287
1.15045
1.14803
1.14546
1.14315
1.14091
1.14004
1.1052
1.12696
1.13952
1.15026
1.15702
1.16179
1.16495
1.16701
1.16823
1.16881
1.16887
1.16851
1.1678
1.16682
1.1656
1.1642
1.16265
1.16097
1.15919
1.15732
1.15533
1.15328
1.1511
1.14886
1.14647
1.14408
1.14153
1.13923
1.13698
1.13608
1.09653
1.11971
1.13303
1.14435
1.1515
1.1565
1.15984
1.16203
1.16335
1.16403
1.16417
1.16388
1.16324
1.16233
1.16118
1.15983
1.15834
1.15671
1.15498
1.15316
1.15122
1.1492
1.14707
1.14488
1.14253
1.14017
1.13765
1.13537
1.13311
1.13219
1.08782
1.11241
1.1265
1.13842
1.14595
1.1512
1.15471
1.15704
1.15847
1.15924
1.15947
1.15926
1.15869
1.15785
1.15676
1.15547
1.15404
1.15247
1.15078
1.14901
1.14712
1.14516
1.14307
1.14093
1.13863
1.13632
1.13383
1.13157
1.12931
1.12837
1.07911
1.10507
1.11995
1.13246
1.14039
1.14589
1.14959
1.15205
1.1536
1.15446
1.15477
1.15464
1.15414
1.15337
1.15234
1.15112
1.14974
1.14823
1.14659
1.14488
1.14305
1.14113
1.1391
1.13701
1.13477
1.13251
1.13006
1.12783
1.12558
1.12462
1.07048
1.09772
1.11339
1.12648
1.13482
1.14057
1.14446
1.14706
1.14872
1.14969
1.15008
1.15003
1.1496
1.1489
1.14794
1.14677
1.14545
1.14401
1.14242
1.14077
1.13899
1.13714
1.13516
1.13313
1.13095
1.12875
1.12635
1.12416
1.12191
1.12094
1.06197
1.09038
1.10683
1.12049
1.12924
1.13526
1.13934
1.14208
1.14386
1.14492
1.14539
1.14543
1.14507
1.14444
1.14354
1.14244
1.14118
1.1398
1.13827
1.13668
1.13495
1.13316
1.13125
1.12929
1.12717
1.12503
1.12269
1.12054
1.11832
1.11733
1.05363
1.08306
1.10029
1.11449
1.12365
1.12994
1.13422
1.13711
1.139
1.14016
1.14072
1.14084
1.14056
1.13999
1.13916
1.13812
1.13691
1.1356
1.13413
1.13259
1.13093
1.12921
1.12736
1.12547
1.12342
1.12135
1.11909
1.11699
1.11479
1.11379
1.04551
1.07579
1.09377
1.1085
1.11806
1.12463
1.12911
1.13216
1.13416
1.13542
1.13607
1.13626
1.13605
1.13555
1.13478
1.13381
1.13267
1.13141
1.13
1.12853
1.12693
1.12528
1.1235
1.12168
1.11971
1.11773
1.11554
1.11351
1.11134
1.11033
1.03765
1.0686
1.08729
1.10251
1.11248
1.11933
1.12402
1.12722
1.12934
1.1307
1.13142
1.1317
1.13156
1.13113
1.13042
1.12951
1.12843
1.12724
1.12589
1.12448
1.12295
1.12136
1.11966
1.11792
1.11604
1.11414
1.11204
1.11009
1.10797
1.10696
1.03008
1.0615
1.08087
1.09654
1.10691
1.11405
1.11895
1.1223
1.12454
1.126
1.12681
1.12716
1.12709
1.12672
1.12608
1.12523
1.12421
1.12308
1.12179
1.12044
1.11899
1.11747
1.11585
1.11419
1.1124
1.1106
1.1086
1.10674
1.10467
1.10367
1.02281
1.05451
1.07451
1.0906
1.10136
1.10878
1.1139
1.11741
1.11976
1.12132
1.12221
1.12264
1.12264
1.12232
1.12175
1.12097
1.12
1.11893
1.1177
1.11642
1.11504
1.1136
1.11205
1.11048
1.10879
1.1071
1.10521
1.10345
1.10145
1.10046
1.01585
1.04766
1.06823
1.08468
1.09582
1.10354
1.10887
1.11254
1.11502
1.11667
1.11764
1.11814
1.1182
1.11795
1.11744
1.11672
1.11581
1.1148
1.11363
1.11241
1.1111
1.10974
1.10828
1.1068
1.10522
1.10363
1.10186
1.10023
1.09833
1.09736
1.00922
1.04096
1.06202
1.07881
1.09031
1.09832
1.10387
1.10771
1.1103
1.11205
1.1131
1.11366
1.11379
1.1136
1.11314
1.11248
1.11163
1.11068
1.10958
1.10842
1.10718
1.10589
1.10452
1.10314
1.10167
1.1002
1.09857
1.09708
1.09529
1.09435
1.0029
1.03444
1.05592
1.07298
1.08483
1.09314
1.09891
1.10291
1.10562
1.10746
1.10859
1.10922
1.10941
1.10927
1.10887
1.10827
1.10747
1.10657
1.10554
1.10444
1.10327
1.10206
1.10078
1.09949
1.09814
1.09681
1.09532
1.09399
1.09234
1.09146
0.996897
1.02811
1.04991
1.06722
1.07939
1.088
1.09399
1.09815
1.10099
1.10291
1.10411
1.1048
1.10505
1.10497
1.10462
1.10406
1.10333
1.10248
1.10151
1.10047
1.09937
1.09824
1.09706
1.09586
1.09463
1.09344
1.09211
1.09097
1.08949
1.08868
0.991205
1.02198
1.04403
1.06152
1.07401
1.08291
1.08912
1.09344
1.0964
1.0984
1.09967
1.10041
1.10072
1.10069
1.10038
1.09988
1.0992
1.0984
1.09749
1.09651
1.09548
1.09443
1.09334
1.09225
1.09113
1.0901
1.08894
1.08801
1.08675
1.08604
0.985824
1.01607
1.03826
1.05591
1.0687
1.07787
1.08431
1.08879
1.09185
1.09394
1.09527
1.09606
1.09641
1.09643
1.09617
1.09571
1.09508
1.09433
1.09348
1.09257
1.0916
1.09063
1.08962
1.08864
1.08765
1.08677
1.08581
1.08511
1.08411
1.08355
0.980761
1.01039
1.03263
1.05039
1.06346
1.07291
1.07956
1.08419
1.08737
1.08952
1.09091
1.09175
1.09214
1.0922
1.09198
1.09157
1.09098
1.09027
1.08948
1.08863
1.08773
1.08683
1.08591
1.08504
1.08417
1.08345
1.0827
1.08226
1.08157
1.08122
0.976028
1.00494
1.02716
1.04499
1.05831
1.06802
1.07488
1.07966
1.08294
1.08516
1.0866
1.08747
1.0879
1.08799
1.08781
1.08744
1.08689
1.08623
1.08549
1.0847
1.08386
1.08304
1.08221
1.08144
1.08069
1.08014
1.07961
1.07947
1.07915
1.07909
0.97165
0.99975
1.02184
1.03973
1.05327
1.06323
1.07028
1.0752
1.07858
1.08086
1.08234
1.08324
1.0837
1.08382
1.08367
1.08333
1.08282
1.08221
1.08151
1.08078
1.08
1.07925
1.0785
1.07783
1.07722
1.07684
1.07653
1.07671
1.07684
1.07718
0.967648
0.994732
1.01661
1.03452
1.04828
1.05847
1.06572
1.07078
1.07425
1.07658
1.0781
1.07903
1.07951
1.07966
1.07953
1.07923
1.07875
1.07818
1.07753
1.07685
1.07613
1.07545
1.07478
1.07422
1.07373
1.07351
1.07345
1.07398
1.07463
1.07553
0.963881
0.989655
1.01123
1.02917
1.04315
1.05359
1.06106
1.06627
1.06984
1.07224
1.07381
1.07476
1.07527
1.07545
1.07535
1.07508
1.07464
1.07412
1.07351
1.07289
1.07223
1.07162
1.07103
1.07057
1.0702
1.07016
1.07034
1.07125
1.0725
1.0742
0.960385
0.984865
1.00619
1.02411
1.03821
1.04882
1.05645
1.06178
1.06544
1.06791
1.06951
1.0705
1.07104
1.07124
1.07117
1.07093
1.07053
1.07005
1.06949
1.06892
1.06832
1.06777
1.06725
1.06688
1.06664
1.06675
1.06717
1.06846
1.07041
1.0732
0.948881
0.972774
0.994136
1.01211
1.02624
1.03693
1.04466
1.05003
1.05367
1.0561
1.05768
1.05866
1.05918
1.05938
1.05932
1.05909
1.05872
1.05829
1.0578
1.05731
1.05682
1.0564
1.05605
1.0559
1.05595
1.05645
1.05749
1.05982
1.06383
1.07063
0.924806
0.948087
0.968533
0.985443
0.998953
1.00955
1.01752
1.02331
1.02744
1.03035
1.03237
1.03376
1.03467
1.03523
1.03552
1.03563
1.03559
1.03548
1.0353
1.03512
1.03495
1.03485
1.03486
1.03508
1.03557
1.03659
1.03832
1.04166
1.04728
1.05616
0.899873
0.922259
0.941594
0.957664
0.970792
0.981384
0.989599
0.995779
1.00037
1.00375
1.00624
1.00806
1.00939
1.01035
1.01104
1.01153
1.01186
1.01211
1.01228
1.01245
1.01262
1.01287
1.01322
1.01381
1.01468
1.01612
1.01831
1.02217
1.02837
1.03793
0.873821
0.895296
0.913703
0.929202
0.942097
0.952709
0.961134
0.967656
0.972658
0.976483
0.979411
0.981668
0.983421
0.984798
0.985887
0.986768
0.987489
0.98811
0.988655
0.989186
0.989712
0.990317
0.99102
0.991954
0.993163
0.994934
0.997425
1.00153
1.00779
1.01741
0.846878
0.867541
0.885199
0.900232
0.912917
0.923526
0.93213
0.938963
0.944355
0.948607
0.951976
0.954674
0.956861
0.958663
0.960164
0.961449
0.962562
0.963569
0.96449
0.965388
0.966271
0.967223
0.968258
0.969508
0.97101
0.973042
0.975726
0.979892
0.985959
0.995332
0.819041
0.839029
0.856066
0.870693
0.883183
0.893781
0.902542
0.909658
0.915414
0.920079
0.923884
0.927026
0.929652
0.931887
0.93381
0.935505
0.937017
0.938411
0.939705
0.940963
0.942192
0.943472
0.944815
0.946346
0.948096
0.950324
0.95312
0.95725
0.963023
0.97205
0.790304
0.80973
0.826251
0.840537
0.852863
0.863459
0.872368
0.879747
0.885849
0.890912
0.895143
0.898721
0.901786
0.904453
0.9068
0.908907
0.910817
0.912595
0.914257
0.915865
0.917424
0.919012
0.920636
0.922416
0.924371
0.926749
0.929603
0.933651
0.939116
0.947784
0.760666
0.779624
0.795719
0.809729
0.821933
0.832547
0.841604
0.849236
0.855669
0.861115
0.865757
0.869761
0.873256
0.87635
0.879116
0.881632
0.883936
0.886091
0.88811
0.890056
0.89193
0.893807
0.895691
0.897693
0.899825
0.902319
0.905203
0.909153
0.914322
0.922634
0.730137
0.748702
0.764454
0.778249
0.790371
0.801022
0.810227
0.818104
0.824855
0.830667
0.835707
0.840125
0.84404
0.847553
0.850732
0.853649
0.85634
0.858863
0.861231
0.863503
0.86568
0.867831
0.869957
0.872161
0.87445
0.87704
0.879939
0.883785
0.888672
0.896624
0.69873
0.716964
0.732441
0.746076
0.758147
0.768849
0.778207
0.786323
0.793377
0.799543
0.804966
0.809785
0.814109
0.818032
0.821616
0.824926
0.827996
0.830879
0.833588
0.836176
0.838644
0.841057
0.843413
0.845806
0.848238
0.85091
0.853816
0.857557
0.862171
0.869758
0.666467
0.684417
0.69967
0.713184
0.725232
0.736001
0.745516
0.753865
0.761214
0.767719
0.773511
0.778717
0.783437
0.787758
0.791736
0.795431
0.798869
0.802105
0.805145
0.808041
0.810791
0.813457
0.816031
0.818603
0.821166
0.82391
0.826814
0.830449
0.834799
0.842007
0.633368
0.651062
0.66613
0.679555
0.691603
0.702453
0.71213
0.720708
0.728341
0.735173
0.74132
0.746898
0.752
0.756705
0.761063
0.765129
0.768927
0.772505
0.775867
0.779061
0.782084
0.784995
0.78778
0.790523
0.793213
0.796027
0.798931
0.802462
0.806555
0.813376
0.599442
0.616905
0.631816
0.645177
0.657243
0.668185
0.678026
0.686829
0.694736
0.701881
0.708369
0.714304
0.719772
0.724844
0.729567
0.73399
0.738133
0.742041
0.745714
0.749196
0.752484
0.75563
0.758617
0.761521
0.764327
0.7672
0.770097
0.773524
0.777375
0.783789
0.56471
0.581952
0.596723
0.610038
0.622138
0.633179
0.643184
0.652206
0.660377
0.667822
0.674634
0.680909
0.686724
0.692146
0.697216
0.701979
0.706451
0.710673
0.714644
0.718404
0.721947
0.725321
0.728504
0.731568
0.734495
0.737435
0.740334
0.743662
0.747271
0.753291
0.529182
0.546206
0.560847
0.57413
0.586271
0.597415
0.607582
0.616818
0.625242
0.632972
0.640093
0.646689
0.652828
0.658578
0.663974
0.669057
0.67384
0.67836
0.682613
0.686636
0.69042
0.694006
0.697369
0.700573
0.703597
0.706581
0.709471
0.712711
0.716115
0.721693
0.492875
0.509671
0.524189
0.537444
0.549633
0.560879
0.571206
0.580647
0.589311
0.597311
0.604721
0.611615
0.618056
0.62411
0.629807
0.635186
0.640256
0.645054
0.649571
0.653842
0.657854
0.661646
0.665191
0.668546
0.671683
0.674724
0.677603
0.680735
0.68392
0.689149
0.455803
0.472355
0.486747
0.499977
0.512214
0.523559
0.534038
0.543676
0.552565
0.560815
0.568493
0.575661
0.582379
0.588708
0.594676
0.600321
0.605652
0.610701
0.615458
0.61995
0.624161
0.628124
0.631812
0.635275
0.638488
0.641572
0.644461
0.64753
0.65053
0.65524
0.417974
0.434256
0.448522
0.461725
0.474007
0.485445
0.496067
0.505887
0.514986
0.523466
0.531387
0.5388
0.545764
0.552335
0.558541
0.564418
0.569977
0.575246
0.580215
0.584911
0.589316
0.593458
0.597305
0.60089
0.604171
0.607249
0.610067
0.613009
0.615879
0.620351
0.379395
0.395373
0.409513
0.42269
0.43501
0.446529
0.457279
0.467268
0.476558
0.485244
0.493379
0.501007
0.508181
0.514955
0.521358
0.527427
0.533171
0.538614
0.543748
0.548592
0.553129
0.557381
0.561324
0.565001
0.568384
0.57156
0.574436
0.57729
0.579837
0.583622
0.340084
0.355711
0.369733
0.382882
0.395222
0.406803
0.417666
0.427807
0.437268
0.446134
0.454452
0.46226
0.469602
0.476531
0.483082
0.489292
0.495173
0.500754
0.506029
0.511019
0.515696
0.520067
0.524085
0.527768
0.531078
0.534119
0.536858
0.539637
0.542286
0.545967
0.300096
0.315307
0.329217
0.342321
0.354651
0.366264
0.377219
0.387498
0.397111
0.406127
0.414593
0.422539
0.43
0.437031
0.443669
0.449956
0.4559
0.461533
0.46685
0.471877
0.476598
0.481038
0.485169
0.489002
0.492468
0.495584
0.498233
0.500675
0.502757
0.505692
0.259585
0.274276
0.288045
0.301055
0.313312
0.324916
0.335942
0.346343
0.356085
0.365217
0.373787
0.38182
0.389341
0.396408
0.403066
0.409362
0.41532
0.420977
0.426329
0.431382
0.436095
0.440464
0.444454
0.448108
0.451425
0.454489
0.457216
0.459791
0.462013
0.464633
0.218948
0.232913
0.246403
0.259183
0.271252
0.282781
0.293849
0.304353
0.314196
0.323407
0.332036
0.340101
0.347618
0.354643
0.361221
0.367407
0.373233
0.378757
0.384002
0.389006
0.393758
0.398243
0.402365
0.406053
0.409208
0.411882
0.414071
0.416084
0.417897
0.419984
0.178988
0.191842
0.204679
0.21692
0.228594
0.239938
0.250994
0.26156
0.271456
0.280691
0.289317
0.297343
0.304775
0.311674
0.3181
0.324119
0.329774
0.335108
0.340125
0.344847
0.349275
0.353446
0.357354
0.361009
0.364342
0.367302
0.369692
0.371579
0.372891
0.374164
0.140931
0.152091
0.163598
0.174734
0.185636
0.196579
0.207499
0.218042
0.227933
0.237143
0.245708
0.253614
0.260851
0.267477
0.273565
0.279211
0.28451
0.289562
0.294412
0.299068
0.30344
0.307428
0.310933
0.313988
0.31667
0.319112
0.321211
0.32292
0.323995
0.324428
0.106182
0.114982
0.1243
0.133566
0.143117
0.153231
0.163679
0.173949
0.183663
0.192724
0.201119
0.208808
0.215769
0.22205
0.22772
0.232866
0.237575
0.241965
0.246149
0.250237
0.254263
0.258183
0.261836
0.265057
0.267701
0.269805
0.271366
0.272405
0.272747
0.272333
0.0758325
0.081816
0.0882236
0.0948646
0.10239
0.111027
0.120381
0.129885
0.139106
0.147818
0.15587
0.163138
0.169579
0.175272
0.180344
0.184937
0.189152
0.193057
0.196669
0.200017
0.203145
0.206132
0.208999
0.211705
0.214129
0.216192
0.217738
0.21852
0.218025
0.216137
0.0500721
0.053249
0.0566089
0.0602375
0.0651822
0.0714781
0.0786834
0.0864426
0.0944255
0.102292
0.109702
0.116368
0.122123
0.126973
0.131043
0.134546
0.137711
0.140743
0.143775
0.14683
0.149789
0.152474
0.154746
0.156609
0.158159
0.159552
0.16079
0.161509
0.160675
0.157811
0.0281043
0.028906
0.0296369
0.0306274
0.0333573
0.0370303
0.0413482
0.0463817
0.0519995
0.057893
0.063716
0.0691551
0.0739519
0.0779383
0.0810433
0.0833364
0.0850254
0.0864455
0.0879533
0.0897822
0.0919043
0.0940699
0.095956
0.0973751
0.0983254
0.0989747
0.0994922
0.0997957
0.0986911
0.0950031
0.00864844
0.00760685
0.00353434
0.00255165
0.00485574
0.00655115
0.00801554
0.00990641
0.0123021
0.015052
0.0179695
0.020875
0.0235924
0.0259738
0.0278983
0.0293218
0.030279
0.0309132
0.0314123
0.0319627
0.0326624
0.0334934
0.0343307
0.0350486
0.0355618
0.0358593
0.0359664
0.0360349
0.035528
0.032488
0.931366
0.906946
0.881899
0.855778
0.828963
0.801261
0.772652
0.743152
0.71278
0.68154
0.649452
0.616558
0.582855
0.548364
0.513118
0.477135
0.440447
0.403083
0.365083
0.326512
0.287507
0.248299
0.209316
0.171319
0.135309
0.102434
0.0735924
0.0490123
0.0278951
0.00905378
0.925573
0.900743
0.875688
0.84962
0.822922
0.795338
0.766839
0.737442
0.707175
0.676044
0.644064
0.611281
0.577692
0.543316
0.508195
0.472342
0.435798
0.39859
0.360766
0.322391
0.283615
0.244683
0.206039
0.168475
0.132991
0.100709
0.072477
0.0484534
0.0277311
0.00912422
0.919605
0.894706
0.869652
0.843635
0.817036
0.789563
0.761177
0.731883
0.70172
0.670698
0.638831
0.606159
0.572686
0.538427
0.503434
0.467715
0.431315
0.394264
0.356617
0.318439
0.279891
0.241233
0.20292
0.165758
0.130737
0.0989611
0.0712723
0.0477939
0.0275014
0.00914467
0.913514
0.888739
0.863719
0.837761
0.811257
0.783888
0.755605
0.726409
0.696348
0.665428
0.63367
0.601102
0.567741
0.533597
0.498729
0.463139
0.42688
0.389985
0.352512
0.314528
0.276205
0.237819
0.199837
0.163087
0.128549
0.0973067
0.0701657
0.0471966
0.0272919
0.00914556
0.907404
0.882868
0.857923
0.832028
0.805605
0.778333
0.750144
0.721039
0.691074
0.660251
0.628591
0.596123
0.562871
0.528837
0.494089
0.458626
0.422505
0.385761
0.348457
0.310666
0.272565
0.234451
0.196807
0.160476
0.126431
0.095734
0.0691474
0.0466666
0.0271126
0.00913413
0.901312
0.877078
0.852255
0.826432
0.800079
0.772893
0.744794
0.715774
0.685897
0.655163
0.623596
0.591223
0.558074
0.524148
0.489514
0.454176
0.41819
0.381592
0.344452
0.306853
0.268972
0.23113
0.193827
0.157921
0.124381
0.0942371
0.0682036
0.0461912
0.0269592
0.00911222
0.895271
0.871372
0.846703
0.820969
0.794679
0.767568
0.739555
0.710615
0.680817
0.650166
0.618686
0.586404
0.553353
0.519531
0.485007
0.449792
0.413936
0.377481
0.3405
0.30309
0.265429
0.22786
0.190902
0.155427
0.122399
0.0928156
0.0673306
0.0457661
0.0268284
0.00909919
0.889304
0.865754
0.841262
0.815631
0.789407
0.762363
0.734426
0.705562
0.675835
0.645261
0.613864
0.581667
0.548707
0.514987
0.48057
0.445474
0.409745
0.373429
0.336604
0.29938
0.26194
0.224645
0.188038
0.153001
0.120493
0.0914717
0.0665268
0.0453895
0.0267182
0.00906414
0.883426
0.860231
0.83593
0.810416
0.78426
0.757278
0.729409
0.700614
0.670953
0.640453
0.609131
0.577014
0.54414
0.510518
0.476205
0.441223
0.405615
0.369436
0.332766
0.295727
0.258506
0.22149
0.185242
0.150649
0.118667
0.0902066
0.0657907
0.0450588
0.0266268
0.00902507
0.877655
0.854808
0.830711
0.805323
0.779237
0.752313
0.724504
0.695773
0.666176
0.635742
0.604489
0.572446
0.539654
0.506127
0.471912
0.43704
0.40155
0.365505
0.328987
0.292129
0.255129
0.218396
0.182516
0.148374
0.116921
0.0890191
0.0651193
0.04477
0.0265514
0.00898385
0.872003
0.849495
0.825606
0.800352
0.774338
0.747469
0.719714
0.691043
0.661503
0.63113
0.59994
0.567968
0.535254
0.501815
0.467693
0.432926
0.39755
0.361636
0.325266
0.288586
0.251809
0.215363
0.179858
0.146174
0.115253
0.0879055
0.0645083
0.0445187
0.0264894
0.00894126
0.866483
0.844301
0.820617
0.795503
0.769561
0.742744
0.71504
0.686424
0.656936
0.626617
0.595487
0.563581
0.53094
0.497585
0.46355
0.428883
0.393618
0.35783
0.321605
0.285099
0.248544
0.212389
0.177265
0.144045
0.11366
0.086862
0.0639531
0.0443004
0.0264357
0.00889872
0.861104
0.839232
0.815748
0.790773
0.764907
0.73814
0.710482
0.681915
0.652475
0.622204
0.591132
0.559289
0.526716
0.493437
0.459485
0.424913
0.389756
0.354088
0.318003
0.281668
0.245336
0.209474
0.174735
0.141987
0.11214
0.0858851
0.0634497
0.0441117
0.0263888
0.00885765
0.855875
0.834296
0.811001
0.786165
0.760376
0.733656
0.70604
0.677515
0.648119
0.617893
0.586875
0.555091
0.522582
0.489374
0.455502
0.42102
0.385966
0.350413
0.314464
0.278298
0.242189
0.206623
0.172273
0.140001
0.110692
0.0849732
0.0629949
0.0439504
0.0263967
0.00881987
0.850806
0.829499
0.806384
0.781681
0.755969
0.729293
0.701715
0.673226
0.643871
0.613686
0.582718
0.550989
0.518538
0.485398
0.451604
0.417206
0.38225
0.346808
0.310992
0.274994
0.239109
0.203839
0.169883
0.13809
0.109318
0.0841267
0.0625863
0.0438126
0.026363
0.00878399
0.845906
0.824848
0.801902
0.777324
0.751689
0.725053
0.697509
0.669051
0.639733
0.609585
0.578662
0.546983
0.514589
0.481512
0.447792
0.413474
0.37861
0.343276
0.307591
0.27176
0.236099
0.201129
0.167568
0.136257
0.108017
0.083343
0.0622214
0.0436965
0.0263354
0.00875123
0.841185
0.820352
0.797561
0.7731
0.747537
0.720938
0.693425
0.664992
0.635708
0.605592
0.57471
0.543077
0.510735
0.477719
0.444068
0.409824
0.375046
0.339818
0.304261
0.268597
0.233161
0.198493
0.165331
0.134502
0.10679
0.0826199
0.061897
0.0435991
0.0263131
0.00872221
0.83665
0.816016
0.793368
0.769012
0.743518
0.716951
0.689466
0.661054
0.631798
0.60171
0.570863
0.539272
0.506978
0.474018
0.44043
0.406255
0.371559
0.336433
0.301002
0.265503
0.230294
0.19593
0.16317
0.132823
0.105634
0.0819542
0.0616097
0.0435176
0.0262929
0.00869718
0.832308
0.811847
0.789326
0.765064
0.739634
0.713096
0.685634
0.657239
0.628007
0.597942
0.567123
0.53557
0.50332
0.47041
0.43688
0.402768
0.368148
0.33312
0.297812
0.262477
0.227495
0.193439
0.161082
0.131218
0.104545
0.0813425
0.061356
0.0434498
0.0262742
0.00867638
0.828167
0.807849
0.785441
0.761259
0.735888
0.709375
0.681933
0.65355
0.624335
0.594289
0.563494
0.531974
0.499762
0.466895
0.433415
0.399363
0.364815
0.329878
0.29469
0.259517
0.224763
0.191017
0.159067
0.129685
0.10352
0.0807819
0.0611335
0.0433923
0.0262567
0.00865997
0.824231
0.804029
0.781718
0.757603
0.732283
0.70579
0.678363
0.649989
0.620785
0.590755
0.559979
0.528485
0.496305
0.463474
0.43004
0.396043
0.36156
0.326711
0.291638
0.256624
0.2221
0.188666
0.157125
0.128224
0.102559
0.0802704
0.0609402
0.043344
0.0262408
0.00864808
0.820507
0.800391
0.778162
0.754101
0.728824
0.702345
0.674928
0.646558
0.617361
0.587343
0.556579
0.525106
0.49295
0.460151
0.426755
0.392809
0.358388
0.32362
0.288659
0.253803
0.219509
0.186388
0.155255
0.126834
0.101661
0.0798066
0.0607751
0.0433505
0.0262271
0.00864047
0.817001
0.796942
0.77478
0.750756
0.725513
0.699042
0.67163
0.643259
0.614063
0.584053
0.553297
0.521837
0.489701
0.456927
0.423565
0.389666
0.355302
0.32061
0.285759
0.251059
0.216994
0.184187
0.153462
0.125516
0.100825
0.0793893
0.0606353
0.0433204
0.0262135
0.00863671
0.813718
0.793688
0.771575
0.747573
0.722354
0.695883
0.66847
0.640095
0.610895
0.580887
0.550134
0.518682
0.486558
0.453806
0.420473
0.386615
0.352304
0.317683
0.28294
0.248394
0.214558
0.182065
0.151746
0.124271
0.100051
0.0790167
0.0605191
0.0432989
0.0262001
0.00863611
0.810662
0.790634
0.768553
0.744557
0.719351
0.692872
0.665452
0.637067
0.607858
0.577847
0.54709
0.51564
0.483525
0.450789
0.417481
0.383657
0.349395
0.314843
0.280204
0.245812
0.212202
0.180023
0.150108
0.123099
0.0993378
0.0786865
0.0604243
0.0432845
0.0261864
0.00863818
0.807837
0.787783
0.765717
0.74171
0.716507
0.690013
0.662578
0.634177
0.604952
0.574931
0.544167
0.512712
0.480602
0.447876