/*--------------------------------*- C++ -*----------------------------------*\
  =========                 |
  \\      /  F ield         | OpenFOAM: The Open Source CFD Toolbox
   \\    /   O peration     | Website:  https://openfoam.org
    \\  /    A nd           | Version:  7
     \\/     M anipulation  |
\*---------------------------------------------------------------------------*/
FoamFile
{
    version     2.0;
    format      ascii;
    class       surfaceScalarField;
    location    "4";
    object      phi;
}
// * * * * * * * * * * * * * * * * * * * * * * * * * * * * * * * * * * * * * //

dimensions      [0 3 -1 0 0 0 0];

internalField   nonuniform List<scalar> 
35640
(
-4.1502e-05
0.000659948
-0.000618446
-0.000135513
0.00186049
-0.00176648
-0.000265872
0.00298519
-0.00285483
-0.000419474
0.00399035
-0.00383675
-0.000585733
0.00487331
-0.00470705
-0.000755831
0.00564544
-0.00547534
-0.000922485
0.00632031
-0.00615365
-0.00107979
0.00690921
-0.00675191
-0.00122292
0.00741984
-0.00727671
-0.00134803
0.00785676
-0.00773165
-0.00145211
0.00822216
-0.00811808
-0.00153274
0.00851703
-0.00843641
-0.00158795
0.00874211
-0.0086869
-0.00161619
0.00889857
-0.00887032
-0.0016162
0.00898826
-0.00898826
-0.0015869
0.00901401
-0.00904331
-0.00152741
0.0089795
-0.00903899
-0.00143698
0.00888919
-0.00897962
-0.00131501
0.00874827
-0.00887023
-0.00116107
0.00856241
-0.00871635
-0.000974852
0.00833763
-0.00852385
-0.000756322
0.00808024
-0.00829877
-0.000505743
0.00779664
-0.00804722
-0.000223758
0.00749333
-0.00777532
8.84719e-05
0.00717684
-0.00748907
0.000429087
0.0068537
-0.00719432
0.00079535
0.0065305
-0.00689676
0.00118334
0.00621364
-0.00660163
0.00158774
0.00591234
-0.00631674
0.00563761
0.00200134
-0.00605121
-3.96094e-05
0.000699555
-0.000129358
0.00195024
-0.000254199
0.00311003
-0.000401884
0.00413804
-0.000562391
0.00503382
-0.000727272
0.00581033
-0.000889364
0.0064824
-0.00104274
0.00706259
-0.00118261
0.0075597
-0.00130509
0.00797925
-0.0014071
0.00832417
-0.00148615
0.00859608
-0.00154021
0.00879617
-0.00156761
0.00892597
-0.00156693
0.00898758
-0.00153694
0.00898402
-0.00147657
0.00891913
-0.00138491
0.00879753
-0.00126114
0.0086245
-0.0011046
0.00840587
-0.000914819
0.00814786
-0.000691599
0.00785702
-0.000435047
0.00754009
-0.000145675
0.00720396
0.000175475
0.00685569
0.000526617
0.00650256
0.000905076
0.00615204
0.00130694
0.00581177
0.00172669
0.00549259
0.00520776
0.00215653
-3.70696e-05
0.000736624
-0.00012112
0.00203429
-0.000238534
0.00322745
-0.000378059
0.00427756
-0.000530358
0.00518612
-0.000687355
0.00596732
-0.000842088
0.00663713
-0.000988705
0.00720921
-0.00112242
0.00769342
-0.0012393
0.00809613
-0.00133622
0.00842109
-0.00141062
0.00867047
-0.00146038
0.00884594
-0.00148375
0.00894933
-0.00147918
0.00898301
-0.00144531
0.00895015
-0.00138093
0.00885475
-0.00128495
0.00870154
-0.00115639
0.00849594
-0.000994471
0.00824395
-0.000798598
0.00795198
-0.000568439
0.00762686
-0.000303988
0.00727564
-5.66535e-06
0.00690563
0.000325579
0.00652444
0.000688129
0.00614001
0.00107942
0.00576075
0.00149562
0.00539557
0.00193116
0.00505705
0.00476108
0.00237785
-3.39181e-05
0.000770542
-0.000111085
0.00211146
-0.00021929
0.00333565
-0.000348481
0.00440675
-0.000490063
0.0053277
-0.000636455
0.00611372
-0.000780969
0.00678165
-0.000917812
0.00734605
-0.00104223
0.00781783
-0.0011503
0.0082042
-0.00123881
0.0085096
-0.00130515
0.00873681
-0.00134714
0.00888793
-0.00136294
0.00896513
-0.00135092
0.00897098
-0.00130959
0.00890883
-0.00123765
0.00878281
-0.00113389
0.00859778
-0.000997255
0.0083593
-0.000826856
0.00807355
-0.000622038
0.00774716
-0.000382414
0.00738724
-0.000107933
0.00700116
0.000201048
0.00659665
0.000543675
0.00618182
0.000918464
0.00576522
0.00132304
0.00535617
0.0017538
0.00496481
0.00220534
0.00460552
0.00429725
0.00266916
-3.0242e-05
0.000800784
-9.93029e-05
0.00218052
-0.000196562
0.00343291
-0.000313268
0.00452346
-0.000441692
0.00545612
-0.000574764
0.00624679
-0.000706098
0.00691298
-0.000830078
0.00747003
-0.000941976
0.00792973
-0.00103785
0.00830007
-0.00111444
0.0085862
-0.0011691
0.00879147
-0.00119961
0.00891844
-0.00120404
0.00896955
-0.00118068
0.00894762
-0.00112802
0.00885618
-0.00104468
0.00869946
-0.000929378
0.00848248
-0.000781034
0.00821096
-0.000598748
0.00789126
-0.000381864
0.00753028
-0.000129998
0.00713537
0.000156887
0.00671427
0.000478431
0.00627511
0.000833844
0.0058264
0.00122176
0.00537731
0.00164006
0.00493787
0.00208544
0.00451942
0.00255281
0.00413815
0.00381641
0.00303366
-2.60726e-05
0.000826856
-8.59306e-05
0.00224038
-0.000170679
0.00351766
-0.000272909
0.00462569
-0.000385798
0.00556901
-0.000502871
0.00636386
-0.000618113
0.00702822
-0.000726095
0.00757801
-0.000822134
0.00802577
-0.000902297
0.00838024
-0.000963322
0.00864722
-0.00100251
0.00883066
-0.00101758
0.00893351
-0.00100659
0.00895856
-0.000967805
0.00890884
-0.000899685
0.00878806
-0.000800818
0.00860059
-0.000669956
0.00835162
-0.00050604
0.00804704
-0.00030822
0.00769344
-7.59002e-05
0.00729796
0.00019122
0.00686825
0.000493097
0.0064124
0.000829323
0.00593888
0.0011991
0.00545663
0.00160116
0.00497525
0.00203362
0.00450541
0.00249358
0.00405946
0.00297643
0.0036553
0.00331894
0.0034739
-2.15122e-05
0.000848368
-7.12231e-05
0.00229009
-0.000142035
0.00358847
-0.000227903
0.00471156
-0.000323002
0.00566411
-0.000421494
0.00646235
-0.000517748
0.00712448
-0.00060658
0.00766685
-0.000683406
0.0081026
-0.000744305
0.00844114
-0.000786009
0.00868893
-0.000805802
0.00885045
-0.000801396
0.00892911
-0.000770822
0.00892798
-0.000712364
0.00885038
-0.000624497
0.00870019
-0.000505859
0.00848196
-0.000355268
0.00820103
-0.000171759
0.00786353
4.54043e-05
0.00747627
0.000296685
0.00704668
0.000582236
0.0065827
0.00090187
0.00609276
0.00125506
0.00558569
0.00164095
0.00507074
0.00205831
0.00455789
0.00250545
0.00405826
0.00297991
0.00358501
0.0034777
0.00315751
0.00280556
0.00399108
-1.6666e-05
0.000865035
-5.54442e-05
0.00232887
-0.000111083
0.00364411
-0.000178923
0.0047794
-0.000254134
0.00573932
-0.000331568
0.00653979
-0.000406047
0.00719896
-0.000472656
0.00773346
-0.000526931
0.00815687
-0.00056501
0.00847922
-0.000583646
0.00870756
-0.000580121
0.00884693
-0.000552147
0.00890113
-0.00049779
0.00887363
-0.00041538
0.00876797
-0.000303454
0.00858826
-0.000160754
0.00833926
1.3765e-05
0.00802651
0.00022092
0.00765638
0.000461275
0.00723592
0.000735094
0.00677286
0.00104232
0.00627547
0.00138257
0.00575251
0.00175514
0.00521312
0.00215901
0.00466687
0.00259294
0.00412395
0.00305539
0.00359582
0.00354428
0.00309612
0.00405634
0.00264544
0.00227723
0.00458467
-1.16285e-05
0.000876663
-3.89031e-05
0.00235614
-7.83741e-05
0.00368358
-0.000126748
0.00482777
-0.000180196
0.00579277
-0.000234299
0.00659389
-0.000284372
0.00724903
-0.000325805
0.00777489
-0.000354306
0.00818537
-0.000366105
0.00849102
-0.000357998
0.00869945
-0.000327296
0.00881623
-0.000271753
0.00884559
-0.000189489
0.00879136
-7.89246e-05
0.00865741
6.12826e-05
0.00844806
0.000232231
0.00816831
0.000434782
0.00782396
0.000669545
0.00742161
0.000936847
0.00696862
0.0012367
0.006473
0.0015688
0.00594338
0.00193249
0.00538882
0.00232684
0.00481877
0.00275064
0.00424307
0.00320251
0.00367208
0.00368097
0.00311736
0.00418427
0.00259282
0.0047099
0.00211982
0.00173513
0.005252
-6.51298e-06
0.000883176
-2.19326e-05
0.00237156
-4.45157e-05
0.00370617
-7.22748e-05
0.00485553
-0.000102367
0.00582287
-0.000131122
0.00662264
-0.000154386
0.0072723
-0.000167899
0.0077884
-0.000167592
0.00818507
-0.000149826
0.00847325
-0.000111478
0.00866111
-4.99193e-05
0.00875467
3.7018e-05
0.00875865
0.000151112
0.00867727
0.000293814
0.00851471
0.000466298
0.00827557
0.000669452
0.00796515
0.000903896
0.00758951
0.00116998
0.00715553
0.00146775
0.00667085
0.00179691
0.00614384
0.00215686
0.00558343
0.00254666
0.00499901
0.00296508
0.00440035
0.00341067
0.00379748
0.00388185
0.0032009
0.00437709
0.00262212
0.00489486
0.00207505
0.00543333
0.00158134
0.00118056
0.0059879
-1.4483e-06
0.000884625
-4.882e-06
0.002375
-1.01623e-05
0.00371145
-1.64926e-05
0.00486186
-2.19703e-05
0.00582834
-2.36811e-05
0.00662436
-1.8039e-05
0.00726665
-1.1788e-06
0.00777154
3.06941e-05
0.00815319
8.1039e-05
0.00842291
0.000152855
0.00858929
0.000248661
0.00865886
0.000370508
0.00863681
0.000520038
0.00852774
0.000698524
0.00833622
0.000906914
0.00806718
0.00114585
0.00772622
0.00141566
0.0073197
0.00171639
0.0068548
0.00204775
0.00633949
0.00240912
0.00578246
0.00279956
0.00519299
0.0032178
0.00458076
0.00366232
0.00395584
0.00413136
0.00332845
0.0046231
0.00270915
0.00513587
0.00210935
0.00566821
0.00154271
0.00621888
0.00103068
0.000614877
0.00678456
3.502e-06
0.000881123
1.18837e-05
0.00236662
2.39935e-05
0.00369934
3.95425e-05
0.00484631
5.95543e-05
0.00580833
8.61953e-05
0.00659772
0.000122465
0.00723038
0.000171784
0.00772223
0.000237614
0.00808737
0.00032318
0.00833734
0.000431307
0.00848116
0.000564357
0.00852581
0.000724219
0.00847694
0.000912343
0.00833961
0.00112978
0.00811878
0.00137722
0.00781974
0.001655
0.00744845
0.00196312
0.00701158
0.00230129
0.00651664
0.00266883
0.00597194
0.0030648
0.0053865
0.00348788
0.0047699
0.00393648
0.00413217
0.00440872
0.00348359
0.00490256
0.00283461
0.0054159
0.00219582
0.00594682
0.00157843
0.00649385
0.000995682
0.00705611
0.000468414
3.94166e-05
0.00763157
8.17095e-06
0.000872952
2.80055e-05
0.00234678
5.72594e-05
0.00367008
9.47434e-05
0.00480883
0.000140691
0.00576239
0.000196552
0.00654186
0.000264722
0.00716222
0.00034813
0.00763882
0.000449853
0.00798564
0.000572822
0.00821437
0.000719628
0.00833436
0.000892417
0.00835302
0.00109287
0.00827649
0.00132219
0.00811029
0.00158117
0.0078598
0.00187019
0.00753073
0.00218925
0.00712939
0.00253799
0.00666283
0.00291574
0.00613889
0.00332146
0.00556622
0.00375379
0.00495417
0.00421109
0.00431261
0.0046914
0.00365186
0.00519253
0.00298246
0.00571211
0.00231503
0.00624774
0.00166018
0.00679725
0.00102892
0.00735899
0.000433935
0.00793231
-0.000104903
-0.00054455
0.00851628
1.24732e-05
0.00086048
4.31349e-05
0.00231612
8.89498e-05
0.00362427
0.000148019
0.00474976
0.000219893
0.00569051
0.000305356
0.00645639
0.000406191
0.00706138
0.000524798
0.00752021
0.000663814
0.00784663
0.000825816
0.00805237
0.0010131
0.00814707
0.00122753
0.00813859
0.00147052
0.0080335
0.001743
0.00783781
0.00204544
0.00755736
0.00237787
0.0071983
0.00273994
0.00676732
0.00313091
0.00627186
0.00354969
0.00572011
0.00399486
0.00512105
0.00446469
0.00448434
0.00495716
0.00382014
0.00546998
0.00313904
0.00600063
0.00245181
0.00654642
0.00176923
0.00710467
0.00110193
0.0076729
0.000460687
0.00824925
-0.000142415
0.00883307
-0.000688724
-0.00113582
0.00942434
1.63091e-05
0.000844171
5.69508e-05
0.00227548
0.00011842
0.0035628
0.000198318
0.00466986
0.000295642
0.00559319
0.00041057
0.00634147
0.000544283
0.00692767
0.000698619
0.00736588
0.000875731
0.00766952
0.00107778
0.00785032
0.00130669
0.00791816
0.00156401
0.00788127
0.00185081
0.00774671
0.00216769
0.00752093
0.00251476
0.00721028
0.00289171
0.00682135
0.00329778
0.00636125
0.00373183
0.0058378
0.00419239
0.00525955
0.00467762
0.00463582
0.00518544
0.00397652
0.00571344
0.00329213
0.006259
0.00259348
0.00681928
0.00189153
0.00739131
0.0011972
0.00797209
0.000521151
0.00855885
-0.000126078
0.00914945
-0.000733019
0.00974313
-0.0012824
-0.00173317
0.0103405
1.95931e-05
0.000824578
6.91712e-05
0.0022259
0.000145088
0.00348688
0.000244674
0.00457028
0.000366509
0.00547135
0.000510241
0.00619773
0.000676469
0.00676144
0.000866453
0.00717589
0.00108182
0.00745415
0.00132426
0.00760788
0.00159527
0.00764715
0.001896
0.00758054
0.00222714
0.00741556
0.00258893
0.00715915
0.00298109
0.00681812
0.00340291
0.00639953
0.00385325
0.00591092
0.00433056
0.00536048
0.00483297
0.00475715
0.00535826
0.00411052
0.00590396
0.00343082
0.00646733
0.00272877
0.00704537
0.00201543
0.00763495
0.00130195
0.00823279
0.000599364
0.00883561
-8.16656e-05
0.00944033
-0.000730805
0.0100445
-0.00133722
0.0106472
-0.00188508
-0.00233531
0.0112494
2.22574e-05
0.000802321
7.95664e-05
0.00216859
0.00016847
0.00339798
0.000286253
0.00445249
0.000431224
0.00532638
0.00060259
0.00602637
0.000800399
0.00656363
0.00102533
0.00695096
0.00127847
0.00720101
0.00156096
0.00732538
0.00187384
0.00733428
0.00221779
0.00723658
0.00259311
0.00704024
0.0029996
0.00675266
0.00343659
0.00638112
0.00390298
0.00593314
0.00439721
0.00541669
0.00491735
0.00484034
0.00546113
0.00421337
0.00602596
0.00354569
0.00660899
0.00284779
0.00720711
0.00213065
0.00781698
0.00140555
0.00843513
0.000683805
0.00905797
-2.34738e-05
0.00968192
-0.00070562
0.0103036
-0.00135253
0.0109204
-0.00195398
0.0115309
-0.00249561
-0.00294077
0.0121364
2.42549e-05
0.000778066
8.79713e-05
0.00210488
0.000188197
0.00329775
0.000322395
0.0043183
0.000488748
0.00516003
0.000686113
0.00582901
0.000914035
0.00633571
0.00117264
0.00669236
0.00146241
0.00691123
0.00178398
0.00700382
0.00213782
0.00698043
0.00252415
0.00685025
0.00294281
0.00662158
0.00339317
0.0063023
0.00387415
0.00590014
0.00438423
0.00542307
0.00492147
0.00487945
0.00548355
0.00427826
0.00606781
0.00362911
0.00667129
0.0029422
0.00729076
0.00222833
0.0079227
0.00149871
0.00856341
0.000764839
0.00920905
3.81683e-05
0.00985569
-0.000670114
0.0104995
-0.0013494
0.0111368
-0.00198982
0.0117646
-0.00258181
0.0123814
-0.00311247
-0.00354782
0.0129885
2.55628e-05
0.000752504
9.42954e-05
0.00203615
0.000204045
0.003188
0.000352659
0.00416968
0.000538335
0.00497435
0.000759677
0.00560766
0.00101579
0.0060796
0.00130626
0.00640189
0.00163101
0.00658649
0.00199007
0.00664476
0.0023834
0.0065871
0.00281071
0.00642294
0.00327135
0.00616095
0.00376424
0.0058094
0.0042879
0.00537648
0.0048404
0.00487056
0.00541943
0.00430042
0.00602227
0.00367542
0.00664588
0.0030055
0.0072869
0.00230119
0.00794165
0.00157357
0.00860623
0.000834139
0.00927649
9.45798e-05
0.00994817
-0.000633517
0.010617
-0.00133894
0.0112788
-0.0020112
0.0119297
-0.00264074
0.0125666
-0.00321868
0.0131877
-0.00373359
-0.00415434
0.0137942
2.61841e-05
0.000726319
9.85309e-05
0.0019638
0.000215949
0.00307058
0.000376858
0.00400877
0.000579597
0.00477161
0.000822616
0.00536465
0.00110465
0.00579757
0.00142479
0.00608175
0.0017824
0.00622888
0.00217696
0.0062502
0.00260787
0.00615619
0.00307432
0.00595648
0.00357519
0.00566008
0.00410897
0.00527562
0.00467375
0.00481171
0.00526721
0.0042771
0.00588664
0.00368099
0.00652894
0.00303313
0.00719063
0.0023438
0.00786792
0.0016239
0.00855665
0.000884834
0.00925241
0.000138377
0.00995059
-0.000603592
0.0106465
-0.00132938
0.0113353
-0.00202783
0.0120128
-0.00268865
0.0126748
-0.00330272
0.013318
-0.00386192
0.0139407
-0.00435632
-0.00475776
0.0145442
2.61503e-05
0.000700169
0.000100759
0.00188919
0.00022402
0.00294732
0.000395084
0.00383771
0.000612547
0.00455415
0.000874798
0.0051024
0.00118028
0.00549209
0.00152765
0.00573438
0.00191575
0.00584077
0.00234352
0.00582243
0.00280984
0.00568987
0.0033134
0.00545292
0.0038526
0.00512088
0.0044255
0.00470273
0.00502977
0.00420743
0.00566271
0.00364417
0.00632116
0.00302254
0.00700159
0.0023527
0.00770006
0.00164533
0.00841223
0.000911734
0.00913339
0.000163673
0.00985855
-0.000586788
0.0105825
-0.00132759
0.0113002
-0.00204701
0.0120064
-0.00273402
0.0126964
-0.00337869
0.0133662
-0.00397248
0.0140124
-0.00450818
0.0146335
-0.00497741
-0.00535502
0.0152308
2.55215e-05
0.000674648
0.00010115
0.00181356
0.00022855
0.00281992
0.000407724
0.00365854
0.000637629
0.00432424
0.00091668
0.00482335
0.00124311
0.00516566
0.00161521
0.00536228
0.00203136
0.00542462
0.00249002
0.00536377
0.00298955
0.00519033
0.00352818
0.0049143
0.00410385
0.00454521
0.00471419
0.00409239
0.00535646
0.00356516
0.00602748
0.00297314
0.00672366
0.00232636
0.00744093
0.00163543
0.00817477
0.000911494
0.00892021
0.000166296
0.00967188
-0.000588003
0.0104242
-0.00133906
0.0111712
-0.00207468
0.0119075
-0.00278323
0.0126274
-0.00345396
0.0133262
-0.00407749
0.0139998
-0.00464604
0.014645
-0.00515346
0.0152607
-0.00559303
-0.00594268
0.0158483
2.43853e-05
0.000650262
9.99627e-05
0.00173799
0.000230005
0.00268988
0.000415458
0.00347308
0.000655723
0.00408398
0.00094932
0.00452975
0.00129436
0.00482063
0.00168883
0.0049678
0.00213076
0.00498269
0.00261813
0.0048764
0.00314888
0.00465958
0.00372076
0.00434241
0.00433129
0.00393467
0.00497765
0.00344603
0.00565663
0.00288619
0.00636454
0.00226523
0.00709721
0.00159369
0.00784994
0.000882695
0.00861751
0.000143929
0.00939419
-0.000610385
0.0101739
-0.00136769
0.0109502
-0.00211541
0.0117169
-0.00284133
0.0124677
-0.00353403
0.013197
-0.00418327
0.0138999
-0.00478042
0.0145726
-0.00531869
0.0152123
-0.0057932
0.0158182
-0.00619896
-0.00651704
0.0163926
2.28542e-05
0.000627408
9.75361e-05
0.0016633
0.000229015
0.0025584
0.000419239
0.00328286
0.000668117
0.0038351
0.00097435
0.00422352
0.001336
0.00445898
0.00175087
0.00455294
0.00221664
0.00451692
0.00273094
0.0043621
0.00329129
0.00409923
0.00389502
0.00373868
0.00453918
0.00329051
0.00522046
0.00276474
0.0059351
0.00217155
0.00667878
0.00152154
0.00744663
0.000825841
0.00823317
9.61565e-05
0.00903233
-0.000655231
0.00983754
-0.0014156
0.0106419
-0.00217205
0.0114384
-0.00291187
0.01222
-0.00362301
0.0129805
-0.00429447
0.013714
-0.00491676
0.0144158
-0.00548222
0.0150824
-0.0059853
0.0157117
-0.00642254
0.0163036
-0.0067908
-0.00707439
0.0168609
2.10618e-05
0.000606346
9.42755e-05
0.00159009
0.000226345
0.00242633
0.000420251
0.00308895
0.000676456
0.0035789
0.000993906
0.00390607
0.00137069
0.00408219
0.00180448
0.00411915
0.00229273
0.00402868
0.00283272
0.0038221
0.0034216
0.00351035
0.00405625
0.00310403
0.00473322
0.00261355
0.0054486
0.00204936
0.00619796
0.00142219
0.00697622
0.000743292
0.00777761
2.44458e-05
0.00859574
-0.000721967
0.00942357
-0.00148307
0.0102537
-0.00224568
0.0110783
-0.00299668
0.0118898
-0.00372343
0.0126811
-0.00441424
0.0134454
-0.0050588
0.0141773
-0.00564862
0.0148723
-0.00617727
0.0155276
-0.00664061
0.0161418
-0.0070367
0.0167153
-0.00736434
-0.00761121
0.0172521
1.91569e-05
0.00058719
9.06346e-05
0.00151861
0.000222864
0.0022941
0.000419857
0.00289196
0.000682659
0.0033161
0.00101051
0.00357822
0.00140159
0.00369111
0.00185351
0.00366724
0.00236351
0.00351868
0.00292859
0.00325702
0.0035455
0.00289344
0.00421062
0.00243891
0.00491989
0.00190428
0.0056687
0.00130055
0.00645173
0.000639157
0.00726297
-6.79428e-05
0.00809562
-0.000808208
0.00894222
-0.00156857
0.00979476
-0.0023356
0.0106449
-0.00309581
0.0114843
-0.00383605
0.0123048
-0.00454401
0.0130993
-0.00520867
0.0138612
-0.0058207
0.0145854
-0.00637283
0.0152682
-0.00686005
0.0159072
-0.0072797
0.0165019
-0.0076314
0.0170535
-0.0079159
-0.00812426
0.0175665
1.7297e-05
0.000569893
8.70943e-05
0.00144881
0.000219496
0.0021617
0.000419522
0.00269193
0.000688805
0.00304681
0.00102691
0.00324011
0.00143216
0.00328586
0.00190211
0.00319729
0.00243384
0.00298694
0.00302405
0.00266681
0.00366899
0.0022485
0.00436447
0.00174343
0.00510566
0.00116308
0.00588705
0.00051917
0.00670228
-0.000176076
0.0075442
-0.000909861
0.00840486
-0.00166887
0.0092757
-0.0024394
0.0101477
-0.00320762
0.0110119
-0.00395995
0.0118593
-0.00468353
0.012682
-0.00536671
0.0134728
-0.00599946
0.0142259
-0.00657372
0.0149366
-0.00708361
0.0156022
-0.00752562
0.016221
-0.00789854
0.0167931
-0.00820345
0.0173199
-0.00844275
-0.00861046
0.0178062
1.56398e-05
0.000554253
8.41372e-05
0.00138032
0.000217177
0.00202866
0.000420731
0.00248838
0.000697008
0.00277054
0.0010459
0.00289121
0.00146588
0.00286588
0.00195447
0.0027087
0.00250854
0.00243287
0.00312439
0.00205096
0.00379771
0.00157517
0.00452353
0.00101761
0.00529609
0.000390522
0.00610875
-0.000293484
0.00695393
-0.00102126
0.00782322
-0.00177915
0.00870746
-0.00255311
0.009597
-0.00332895
0.0104821
-0.00409269
0.0113531
-0.004831
0.0122013
-0.00553169
0.0130187
-0.00618415
0.0137989
-0.00677969
0.014537
-0.00731175
0.0152294
-0.00777601
0.0158741
-0.00817031
0.0164702
-0.00849465
0.0170178
-0.00875112
0.0175187
-0.0089436
-0.00906715
0.0179754
1.43357e-05
0.000539917
8.22233e-05
0.00131243
0.000216798
0.00189408
0.000424902
0.00228028
0.00070928
0.00248616
0.00107013
0.00253036
0.00150604
0.00242997
0.00201444
0.0022003
0.00259192
0.0018554
0.00323423
0.00140865
0.00393633
0.00087307
0.00469228
0.00026167
0.00549513
-0.000412334
0.00633695
-0.0011353
0.0072088
-0.00189311
0.00810094
-0.00267128
0.00900303
-0.00345521
0.00990456
-0.00423047
0.0107952
-0.00498331
0.0116652
-0.00570106
0.0125062
-0.00637263
0.0133109
-0.00698887
0.014074
-0.00754276
0.0147917
-0.0080295
0.0154621
-0.0084464
0.0160843
-0.00879254
0.0166581
-0.00906841
0.0171825
-0.00927546
0.0176548
-0.00941598
-0.00949255
0.0180802
1.35188e-05
0.000526398
8.17676e-05
0.00124418
0.000219161
0.00175669
0.000433301
0.00206614
0.000727401
0.00219206
0.0011019
0.00215586
0.00155542
0.00197646
0.00208521
0.00167051
0.00268738
0.00125323
0.00335699
0.000739033
0.00408802
0.000142038
0.00487332
-0.000523632
0.00570459
-0.0012436
0.00657242
-0.00200313
0.00746646
-0.00278715
0.00837568
-0.0035805
0.00928876
-0.00436829
0.0101946
-0.00513627
0.0110826
-0.00587132
0.0119434
-0.00656192
0.0127693
-0.00719851
0.0135542
-0.00777378
0.0142942
-0.00828271
0.0149872
-0.00872253
0.0156332
-0.00909239
0.0162336
-0.00939298
0.0167909
-0.00962568
0.0173067
-0.00979125
0.0177758
-0.00988507
0.0181584
-0.00987511
0.00387966
0.0266962
-0.0285746
0.00559292
0.0220936
-0.0238068
0.00686572
0.0212235
-0.0224963
0.0077504
0.0223907
-0.0232754
0.0083039
0.0245507
-0.0251042
0.00859889
0.0269441
-0.0272391
0.00870113
0.0291305
-0.0292328
0.00866707
0.0309956
-0.0309616
0.00853997
0.0326054
-0.0324783
0.00834962
0.0340798
-0.0338894
0.00811477
0.0354903
-0.0352555
0.00784665
0.0368671
-0.036599
0.00755241
0.0382048
-0.0379106
0.00723647
0.0394891
-0.0391732
0.00690278
0.0407076
-0.0403739
0.0065544
0.041849
-0.0415006
0.00619383
0.0429131
-0.0425525
0.00582348
0.0438977
-0.0435274
0.00544522
0.0448003
-0.044422
0.00506067
0.0456262
-0.0452416
0.00467127
0.0463652
-0.0459758
0.00427796
0.0470316
-0.0466383
0.00388172
0.0476084
-0.0472122
0.00348312
0.0481114
-0.0477128
0.00308223
0.0485237
-0.0481228
0.00267933
0.0488618
-0.0484589
0.00227313
0.0491075
-0.0487013
0.00186515
0.0492923
-0.0488843
0.00145558
0.0494238
-0.0490142
0.0495516
-0.0491489
0.00407285
0.0247799
0.00580384
0.0203626
0.00708494
0.0199424
0.00797037
0.0215053
0.00852116
0.0239999
0.00881236
0.0266529
0.00891029
0.0290326
0.0088713
0.0310346
0.00873889
0.0327378
0.00854291
0.0342758
0.0083027
0.0357305
0.00802844
0.0371414
0.00772792
0.0385053
0.00740517
0.0398119
0.00706453
0.0410482
0.00670827
0.0422052
0.00633949
0.0432819
0.00596023
0.044277
0.00557264
0.0451879
0.00517824
0.0460206
0.00477828
0.0467652
0.00437425
0.0474356
0.00396666
0.048016
0.00355648
0.0485216
0.00314368
0.0489365
0.00272864
0.0492768
0.00231019
0.049526
0.00188984
0.0497127
0.00146776
0.0498458
0.0499675
0.00431016
0.0228476
0.00603975
0.018633
0.00731773
0.0186644
0.00819704
0.020626
0.00874145
0.0234555
0.0090268
0.0263676
0.00911942
0.02894
0.00907523
0.0310788
0.00893754
0.0328755
0.00873595
0.0344774
0.00849031
0.0359762
0.00821013
0.0374216
0.00790353
0.0388119
0.00757412
0.0401413
0.00722655
0.0413958
0.00686254
0.0425692
0.00648568
0.0436587
0.00609757
0.0446651
0.00570075
0.0455847
0.00529649
0.0464248
0.00488602
0.0471757
0.0044713
0.0478504
0.00405236
0.0484349
0.00363061
0.0489434
0.00320592
0.0493612
0.00277867
0.0497041
0.00234796
0.0499567
0.00191509
0.0501456
0.00148033
0.0502806
0.0503967
0.00459333
0.0209234
0.00630126
0.0169251
0.0075642
0.0174014
0.00843014
0.01976
0.00896438
0.0229213
0.00924191
0.0260901
0.00932835
0.0288535
0.00927865
0.0311285
0.00913549
0.0330186
0.00892847
0.0346844
0.00867743
0.0362272
0.00839167
0.0377073
0.00807903
0.0391246
0.00774316
0.0404772
0.00738867
0.0417503
0.00701721
0.0429407
0.00663231
0.0440436
0.00623543
0.045062
0.00582944
0.0459907
0.00541533
0.0468389
0.00499452
0.0475965
0.00456901
0.0482759
0.00413883
0.0488651
0.00370546
0.0493768
0.00326886
0.0497978
0.0028294
0.0501435
0.00238634
0.0503998
0.00194088
0.050591
0.00149327
0.0507282
0.0508395
0.00492377
0.0190333
0.00658909
0.0152597
0.00782419
0.0161663
0.00866924
0.018915
0.00918954
0.022401
0.00945739
0.0258222
0.00953662
0.0287743
0.00948106
0.0311841
0.00933254
0.0331671
0.0091204
0.0348966
0.00886386
0.0364838
0.00857267
0.0379985
0.00825423
0.039443
0.00791219
0.0408192
0.00755079
0.0421117
0.00717204
0.0433194
0.00677921
0.0444364
0.00637372
0.0454675
0.00595859
0.0464058
0.00553467
0.0472629
0.00510366
0.0480275
0.0046673
0.0487122
0.00422596
0.0493064
0.00378096
0.0498218
0.00333241
0.0502464
0.00288078
0.0505951
0.0024253
0.0508552
0.00196717
0.0510491
0.00150657
0.0511888
0.051296
0.00530234
0.0172049
0.00690361
0.0136585
0.00809761
0.0149723
0.00891416
0.0180984
0.00941649
0.0218986
0.00967276
0.025566
0.00974397
0.0287031
0.00968231
0.0312457
0.00952844
0.033321
0.00931131
0.0351137
0.00904949
0.0367456
0.00875303
0.038295
0.00842897
0.0397671
0.00808094
0.0411672
0.00771285
0.0424798
0.00732691
0.0437054
0.00692629
0.0448371
0.00651233
0.0458814
0.00608811
0.04683
0.00565451
0.0476965
0.00521333
0.0484686
0.00476613
0.0491594
0.00431367
0.0497589
0.00385706
0.0502784
0.00339655
0.0507069
0.00293274
0.051059
0.00246482
0.0513232
0.00199393
0.05152
0.00152023
0.0516625
0.0517664
0.00572933
0.0154666
0.00724505
0.0121427
0.00838426
0.0138331
0.00916457
0.0173181
0.00964482
0.0214184
0.00988762
0.0253232
0.0099501
0.0286406
0.00988213
0.0313137
0.00972294
0.0334802
0.00950093
0.0353357
0.00923408
0.0370125
0.00893257
0.0385965
0.00860306
0.0400966
0.00824922
0.0415211
0.00787467
0.0428543
0.00748169
0.0440983
0.00707342
0.0452453
0.00665115
0.0463037
0.0062179
0.0472633
0.00577474
0.0481396
0.00532341
0.04892
0.00486547
0.0496174
0.00440188
0.0502225
0.00393371
0.0507465
0.00346125
0.0511794
0.00298523
0.051535
0.00250485
0.0518035
0.00202116
0.0520037
0.00153421
0.0521495
0.0522507
0.00620422
0.0138471
0.00761331
0.0107337
0.00868391
0.0127625
0.00942013
0.0165819
0.00987419
0.0209643
0.0101016
0.0250957
0.0101547
0.0285876
0.0100802
0.0313882
0.00991578
0.0336446
0.00968903
0.0355624
0.00941741
0.0372841
0.00911106
0.0389028
0.00877633
0.0404313
0.00841688
0.0418805
0.0080361
0.0432351
0.00763626
0.0444982
0.00722048
0.0456611
0.00679008
0.0467341
0.00634788
0.0477055
0.00589528
0.0485922
0.00543386
0.0493814
0.00496525
0.050086
0.00449054
0.0506972
0.00401084
0.0512262
0.00352645
0.0516637
0.00303822
0.0520232
0.00254536
0.0522964
0.00204883
0.0525003
0.00154854
0.0526498
0.0527492
0.0067254
0.0123737
0.00800784
0.00945121
0.00899618
0.0117742
0.00968049
0.0158976
0.0101042
0.0205406
0.0103145
0.0248855
0.0103574
0.0285446
0.0102763
0.0314693
0.0101067
0.0338142
0.00987539
0.0357938
0.00959925
0.0375602
0.00928831
0.0392138
0.0089486
0.040771
0.00858375
0.0422454
0.00819697
0.0436219
0.00779048
0.0449047
0.00736733
0.0460843
0.00692899
0.0471724
0.00647796
0.0481565
0.00601602
0.0490542
0.00554459
0.0498528
0.0050654
0.0505652
0.00457958
0.051183
0.0040884
0.0517174
0.00359212
0.05216
0.00309167
0.0525236
0.00258631
0.0528018
0.00207692
0.0530096
0.00156322
0.0531635
0.0532619
0.00729001
0.0110716
0.00842744
0.00831378
0.00932044
0.0108812
0.00994526
0.0152728
0.0103347
0.0201512
0.0105258
0.0246944
0.010558
0.0285123
0.0104701
0.0315573
0.0102955
0.0339888
0.0100598
0.0360295
0.0097794
0.0378406
0.0094641
0.0395291
0.00911967
0.0411154
0.00874968
0.0426154
0.00835713
0.0440144
0.00794423
0.0453176
0.00751386
0.0465147
0.00706776
0.0476185
0.00660805
0.0486162
0.00613688
0.0495254
0.00565553
0.0503342
0.00516585
0.0510548
0.00466897
0.0516799
0.00416633
0.05222
0.0036582
0.0526682
0.00314556
0.0530363
0.00262767
0.0533197
0.0021054
0.0535319
0.00157825
0.0536906
0.0537891
0.00789381
0.00996232
0.00887018
0.0073374
0.00965581
0.0100956
0.010214
0.0147146
0.0105651
0.0198
0.0107354
0.0245241
0.0107563
0.0284915
0.0106614
0.0316522
0.0104819
0.0341682
0.010242
0.0362695
0.00995763
0.0381249
0.00963825
0.0398485
0.00928937
0.0414643
0.0089145
0.0429902
0.00851641
0.0444125
0.00809734
0.0457366
0.00765994
0.0469521
0.00720627
0.0480722
0.00673805
0.0490844
0.00625778
0.0500056
0.00576659
0.0508254
0.00526653
0.0515549
0.00475864
0.0521878
0.00424458
0.0527341
0.00372462
0.0531881
0.00319983
0.0535611
0.00266942
0.0538501
0.00213426
0.0540671
0.00159363
0.0542312
0.0543308
0.0085311
0.0090628
0.00933334
0.00653515
0.010001
0.00942788
0.010486
0.0142297
0.0107952
0.0194909
0.0109429
0.0243763
0.0109518
0.0284825
0.01085
0.031754
0.0106657
0.0343524
0.0104218
0.0365134
0.0101337
0.038413
0.00981054
0.0401716
0.0094575
0.0418173
0.00907801
0.0433697
0.00867464
0.0448159
0.00824967
0.0461616
0.00780545
0.0473963
0.00734439
0.0485333
0.00686786
0.049561
0.00637861
0.0504949
0.00587771
0.0513263
0.00536734
0.0520653
0.00484853
0.0527066
0.00432311
0.0532595
0.00379133
0.0537199
0.00325443
0.054098
0.00271155
0.0543929
0.00216348
0.0546152
0.00160936
0.0547854
0.0548871
0.00919497
0.00838411
0.00981335
0.00591677
0.0103545
0.00888676
0.0107606
0.0138236
0.0110245
0.0192269
0.0111482
0.0242527
0.0111446
0.0284861
0.0110357
0.0318629
0.0108468
0.0345413
0.0105991
0.036761
0.0103075
0.0387047
0.00998078
0.0404983
0.00962385
0.0421743
0.00924003
0.0437535
0.00883164
0.0452243
0.00840104
0.0465922
0.00795026
0.0478471
0.007482
0.0490015
0.00699734
0.0500456
0.00649928
0.0509929
0.0059888
0.0518368
0.00546822
0.0525858
0.00493857
0.0532363
0.00440186
0.0537962
0.0038583
0.0542634
0.00330931
0.054647
0.00275401
0.0549482
0.00219305
0.0551761
0.00162542
0.055353
0.0554582
0.00987727
0.00793118
0.0103059
0.00548813
0.0107141
0.00847856
0.0110368
0.0135009
0.0112527
0.019011
0.0113509
0.0241545
0.0113342
0.0285027
0.0112183
0.0319789
0.0110248
0.0347348
0.0107736
0.0370122
0.0104787
0.0389996
0.0101488
0.0408283
0.00978823
0.0425348
0.00940038
0.0441414
0.00898727
0.0456374
0.0085513
0.0470282
0.00809423
0.0483041
0.00761898
0.0494768
0.00712641
0.0505382
0.00661969
0.0514996