/*--------------------------------*- C++ -*----------------------------------*\
  =========                 |
  \\      /  F ield         | OpenFOAM: The Open Source CFD Toolbox
   \\    /   O peration     | Website:  https://openfoam.org
    \\  /    A nd           | Version:  7
     \\/     M anipulation  |
\*---------------------------------------------------------------------------*/
FoamFile
{
    version     2.0;
    format      ascii;
    class       volVectorField;
    location    "4";
    object      U;
}
// * * * * * * * * * * * * * * * * * * * * * * * * * * * * * * * * * * * * * //

dimensions      [0 1 -1 0 0 0 0];

internalField   nonuniform List<vector> 
18000
(
(-0.00124715 0.0191465 1.23772e-20)
(-0.00618521 0.0543104 0)
(-0.0141397 0.0874233 0)
(-0.0228252 0.117128 0)
(-0.0316453 0.143318 -4.07358e-21)
(-0.0400203 0.166318 2.06056e-20)
(-0.0475865 0.186518 -4.17163e-21)
(-0.0541206 0.20424 4.20041e-21)
(-0.0594969 0.219701 0)
(-0.0636562 0.233023 -1.27237e-20)
(-0.0665875 0.244261 -4.25861e-21)
(-0.0683108 0.253435 0)
(-0.0688665 0.26056 8.50898e-21)
(-0.0683057 0.265665 8.53155e-21)
(-0.0666859 0.268801 -1.70328e-20)
(-0.0640683 0.270048 -1.69929e-20)
(-0.0605116 0.269514 0)
(-0.0560727 0.26733 -2.53448e-20)
(-0.0508082 0.263649 8.40601e-21)
(-0.0447724 0.258638 -2.5107e-20)
(-0.0380192 0.252474 8.31916e-21)
(-0.0306047 0.245342 0)
(-0.0225863 0.237429 -8.1722e-21)
(-0.0140248 0.228922 -8.16139e-21)
(-0.00498834 0.22001 0)
(0.00444409 0.210875 0)
(0.0141772 0.201701 -1.59307e-20)
(0.0241174 0.19266 -1.57994e-20)
(0.0341381 0.184004 -1.57327e-20)
(0.0438532 0.176028 1.74564e-20)
(-0.00175177 0.0203667 1.76051e-20)
(-0.00746099 0.0569797 3.06264e-20)
(-0.0159851 0.0909415 -3.13371e-20)
(-0.0251347 0.1211 -3.19438e-20)
(-0.0343483 0.147434 -8.12717e-21)
(-0.0430756 0.17033 2.46305e-20)
(-0.0509695 0.190231 -3.3229e-20)
(-0.0578119 0.207505 -3.35035e-20)
(-0.0634761 0.222403 3.37131e-20)
(-0.0679026 0.23508 3.38687e-20)
(-0.0710753 0.245613 -1.69746e-20)
(-0.0730081 0.254041 -3.40141e-20)
(-0.0737378 0.260392 -1.70658e-20)
(-0.0733105 0.264703 3.39976e-20)
(-0.0717789 0.267033 -3.39313e-20)
(-0.0691996 0.267468 3.3927e-20)
(-0.0656279 0.266117 -6.75925e-20)
(-0.061119 0.263115 5.05e-20)
(-0.0557276 0.258618 -3.34396e-20)
(-0.0495064 0.252795 1.67146e-20)
(-0.04251 0.245828 -3.30701e-20)
(-0.0347967 0.237908 0)
(-0.0264264 0.229229 1.65553e-20)
(-0.017464 0.21999 -3.24618e-20)
(-0.0079817 0.210392 3.21705e-20)
(0.00193611 0.20064 0)
(0.0121869 0.190938 -1.57325e-20)
(0.0226714 0.181495 1.56584e-20)
(0.0332418 0.172605 6.23212e-20)
(0.0434963 0.164611 3.45826e-20)
(-0.00229658 0.0214447 -2.82162e-20)
(-0.00877699 0.0593393 -3.06257e-20)
(-0.0178093 0.0941324 4.69884e-20)
(-0.0273325 0.124755 7.97256e-20)
(-0.0368322 0.151257 0)
(-0.045793 0.174084 -3.28819e-20)
(-0.0538853 0.193722 3.32281e-20)
(-0.0609056 0.21058 1.00344e-19)
(-0.0667306 0.224946 -3.37122e-20)
(-0.0712946 0.237003 -3.38632e-20)
(-0.0745793 0.246854 1.01692e-19)
(-0.0765956 0.254555 3.40132e-20)
(-0.0773738 0.260146 0)
(-0.0769563 0.263677 -6.79749e-20)
(-0.0753916 0.26521 1.01474e-19)
(-0.0727332 0.264836 -3.36837e-20)
(-0.0690347 0.262669 3.3735e-20)
(-0.0643477 0.258846 3.3565e-20)
(-0.058726 0.253525 1.25322e-22)
(-0.0522251 0.24688 0)
(-0.0449008 0.239096 9.91207e-20)
(-0.0368134 0.230371 -6.54519e-20)
(-0.0280277 0.220908 3.26424e-20)
(-0.018613 0.210915 0)
(-0.00864639 0.200609 -3.21698e-20)
(0.00178097 0.190213 1.27155e-19)
(0.012564 0.179957 -9.42949e-20)
(0.0235968 0.170085 -3.13983e-20)
(0.0347123 0.160937 3.07168e-20)
(0.04549 0.152919 3.43818e-20)
(-0.00288111 0.02247 0)
(-0.010139 0.0615804 1.52558e-20)
(-0.0196231 0.0971357 4.0582e-24)
(-0.0294355 0.128189 -7.96412e-20)
(-0.0391092 0.154856 0)
(-0.0481775 0.177625 -6.54459e-20)
(-0.0563395 0.197019 0)
(-0.0634023 0.213481 -1.00242e-19)
(-0.0692468 0.227338 3.35588e-20)
(-0.0738089 0.238798 -6.73579e-20)
(-0.0770676 0.247988 -6.77289e-20)
(-0.0790289 0.254982 -3.38884e-20)
(-0.0797186 0.259834 3.38229e-20)
(-0.0791759 0.262601 3.36553e-20)
(-0.0774468 0.263352 -3.39091e-20)
(-0.0745811 0.262183 -6.7073e-20)
(-0.0706299 0.259209 6.69488e-20)
(-0.0656457 0.254573 0)
(-0.0596837 0.248432 0)
(-0.0528006 0.240965 0)
(-0.0450549 0.232364 0)
(-0.0365119 0.222831 0)
(-0.0272423 0.212579 0)
(-0.0173212 0.201826 -6.40208e-20)
(-0.00683098 0.190802 -6.38123e-20)
(0.00413176 0.179747 -2.84714e-22)
(0.0154562 0.168919 -6.26488e-20)
(0.0270331 0.158594 -2.97964e-22)
(0.0386846 0.149162 -6.21266e-20)
(0.0499644 0.141104 1.36327e-19)
(-0.00349263 0.0233446 0)
(-0.011522 0.0635182 1.36765e-19)
(-0.0213995 0.0997735 4.82437e-24)
(-0.0314137 0.131246 -4.76253e-20)
(-0.0411545 0.158093 1.61109e-19)
(-0.0502108 0.180833 9.81429e-20)
(-0.0583106 0.200021 9.89188e-20)
(-0.0652776 0.21613 0)
(-0.0710018 0.229517 0)
(-0.0754194 0.240418 1.01011e-19)
(-0.078507 0.248983 5.12351e-23)
(-0.0802685 0.255304 -2.36042e-19)
(-0.0807264 0.259446 2.02134e-19)
(-0.0799164 0.261477 -6.75041e-20)
(-0.0778819 0.261473 6.68763e-20)
(-0.0746709 0.259531 6.70066e-20)
(-0.0703347 0.255772 -6.64655e-20)
(-0.0649272 0.250339 6.64621e-20)
(-0.0585055 0.243395 1.3185e-19)
(-0.0511297 0.235121 -6.55678e-20)
(-0.0428633 0.225716 -1.30041e-19)
(-0.0337783 0.215389 1.29132e-19)
(-0.0239522 0.204358 -1.28183e-19)
(-0.0134667 0.192855 6.40188e-20)
(-0.00241174 0.181119 0)
(0.00911103 0.169407 0)
(0.020986 0.157999 5.83244e-22)
(0.0330994 0.147205 -2.46392e-19)
(0.0452697 0.137467 1.21971e-19)
(0.057022 0.129349 -1.35358e-19)
(-0.00412529 0.0241014 0)
(-0.0129163 0.0651977 -1.21547e-19)
(-0.0231293 0.102078 1.24049e-19)
(-0.0332659 0.133941 0)
(-0.0429719 0.160969 -2.57384e-19)
(-0.0518952 0.183704 -3.26136e-20)
(-0.059803 0.20272 -6.60449e-20)
(-0.0665375 0.218514 -3.31842e-20)
(-0.0719961 0.23147 0)
(-0.0761204 0.241853 -6.7109e-20)
(-0.0788877 0.249831 6.71755e-20)
(-0.0802991 0.255514 1.34766e-19)
(-0.0803736 0.258983 -1.34709e-19)
(-0.0791459 0.260312 0)
(-0.0766581 0.259584 -1.3415e-19)
(-0.0729576 0.256901 1.33087e-19)
(-0.0680966 0.252387 1.33111e-19)
(-0.0621323 0.246187 1.97888e-19)
(-0.0551257 0.238468 -1.97326e-19)
(-0.047142 0.229418 2.60802e-19)
(-0.0382514 0.219238 1.29765e-19)
(-0.0285338 0.208144 -1.29127e-19)
(-0.0180753 0.196364 2.55524e-19)
(-0.00696569 0.184137 0)
(0.00469765 0.171713 1.25322e-19)
(0.0168061 0.159362 2.49144e-19)
(0.0292388 0.147381 -1.2265e-19)
(0.0418793 0.136114 1.23045e-19)
(0.0545477 0.126052 -3.07313e-22)
(0.0667376 0.117851 -1.34357e-19)
(-0.00476766 0.0247085 -1.39321e-20)
(-0.0143052 0.0665641 0)
(-0.0247998 0.103983 -1.55024e-19)
(-0.0349789 0.136202 3.15671e-20)
(-0.0445512 0.163416 9.64184e-20)
(-0.0532283 0.186171 3.24951e-20)
(-0.0608162 0.205051 1.3122e-19)
(-0.0671792 0.220575 0)
(-0.0722279 0.23315 6.66458e-20)
(-0.0759108 0.24306 6.6702e-20)
(-0.0782053 0.250496 -6.70442e-20)
(-0.0791116 0.255587 2.00867e-19)
(-0.0786483 0.258426 0)
(-0.0768496 0.259096 0)
(-0.0737566 0.257686 1.99721e-19)
(-0.0694178 0.254305 -3.31908e-19)
(-0.0638894 0.249077 1.31825e-19)
(-0.0572327 0.242153 -1.31768e-19)
(-0.0495133 0.233702 -1.30265e-19)
(-0.0408041 0.223918 -3.89403e-19)
(-0.0311845 0.213008 -4.97524e-22)
(-0.0207428 0.201193 1.2749e-19)
(-0.00957472 0.18871 -2.53834e-19)
(0.00221949 0.175804 1.25474e-19)
(0.0145344 0.162734 -8.80264e-22)
(0.0272545 0.14978 -1.24276e-19)
(0.0402523 0.137252 1.23222e-19)
(0.053408 0.12552 0)
(0.06655 0.115123 1.20188e-19)
(0.0791407 0.106816 2.8564e-22)
(-0.00541141 0.0251607 -2.77798e-20)
(-0.0156737 0.0675964 3.01781e-20)
(-0.0263969 0.10546 -1.85119e-19)
(-0.0365465 0.137994 -9.43e-20)
(-0.0458928 0.16539 1.27825e-19)
(-0.0542135 0.188185 -1.94387e-19)
(-0.0613574 0.20697 -6.57305e-20)
(-0.0672144 0.222271 -1.31892e-19)
(-0.0717104 0.234512 1.32638e-19)
(-0.0748026 0.244001 -2.66647e-19)
(-0.0764714 0.250947 -1.33365e-19)
(-0.0767181 0.255497 -4.60032e-22)
(-0.0755617 0.257755 6.67722e-20)
(-0.0730365 0.257816 -1.99477e-19)
(-0.0691854 0.255777 -2.65471e-19)
(-0.0640604 0.251748 2.3931e-22)
(-0.057722 0.245859 -3.88841e-22)
(-0.0502368 0.238263 1.30388e-19)
(-0.0416783 0.229137 1.3026e-19)
(-0.0321281 0.218677 2.98654e-22)
(-0.0216759 0.207096 -1.74232e-22)
(-0.0104206 0.194622 1.26154e-19)
(0.00153172 0.181498 1.26488e-19)
(0.0140701 0.167976 -3.22237e-22)
(0.0270788 0.154322 -3.72415e-19)
(0.0404345 0.140819 2.453e-19)
(0.0540031 0.127789 2.44e-19)
(0.0676607 0.115617 -2.41351e-19)
(0.0812493 0.104888 -1.20183e-19)
(0.0942027 0.0964541 -1.30767e-19)
(-0.00604568 0.0254511 -2.48898e-19)
(-0.0170059 0.0682791 -3.00906e-20)
(-0.0279098 0.106481 1.54136e-19)
(-0.0379636 0.139278 1.25777e-19)
(-0.046999 0.166845 -1.27823e-19)
(-0.0548607 0.1897 1.29508e-19)
(-0.0614427 0.208424 -6.53677e-20)
(-0.0666637 0.223547 1.97707e-19)
(-0.0704678 0.235509 -1.32634e-19)
(-0.0728234 0.24463 1.33117e-19)
(-0.073716 0.251143 6.67659e-20)
(-0.0731501 0.255207 -6.68337e-20)
(-0.071147 0.256943 -3.98498e-19)
(-0.0677429 0.256453 2.65515e-19)
(-0.062984 0.253842 1.32446e-19)
(-0.0569277 0.249225 0)
(-0.0496404 0.242737 0)
(-0.0411956 0.234537 -1.08413e-21)
(-0.0316762 0.224803 -1.28482e-19)
(-0.021175 0.213738 0)
(-0.00979286 0.20156 0)
(0.00236053 0.188503 -1.26652e-19)
(0.0151667 0.174816 0)
(0.0285032 0.160757 -2.47442e-19)
(0.0422435 0.146596 0)
(0.0562561 0.13262 -1.22479e-19)
(0.0703991 0.119151 2.42173e-19)
(0.0845427 0.106587 -2.39544e-19)
(0.0985481 0.0955435 0)
(0.111827 0.0869695 0)
(-0.00666056 0.0255774 2.21202e-19)
(-0.0182862 0.0685996 0)
(-0.0293278 0.107022 -3.07147e-20)
(-0.0392277 0.140021 3.12989e-20)
(-0.0478763 0.167741 -1.90537e-19)
(-0.0551854 0.190666 6.20627e-23)
(-0.0610957 0.20936 -6.51203e-20)
(-0.065558 0.224352 0)
(-0.0685373 0.236085 0)
(-0.0700159 0.244898 -6.62677e-20)
(-0.0699872 0.251036 6.63329e-20)
(-0.0684611 0.254676 -1.32715e-19)
(-0.0654627 0.255952 1.33449e-19)
(-0.0610331 0.254975 0)
(-0.0552241 0.251859 0)
(-0.0480986 0.246723 0)
(-0.039731 0.239709 1.29519e-19)
(-0.0302043 0.230978 -6.8424e-22)
(-0.0196121 0.220717 1.29181e-19)
(-0.00805906 0.209129 -2.5416e-19)
(0.00434152 0.196439 1.26501e-19)
(0.0174673 0.18289 -6.26303e-19)
(0.0311877 0.168732 7.03654e-22)
(0.045368 0.154229 2.4743e-19)
(0.0598707 0.139654 -1.06951e-21)
(0.0745554 0.125294 2.42064e-19)
(0.0892718 0.111469 -2.3923e-19)
(0.103883 0.0985783 -2.38234e-19)
(0.118272 0.0872594 6.30846e-22)
(0.131842 0.0785459 -2.54918e-19)
(-0.00724671 0.0255404 -2.75191e-20)
(-0.0194999 0.0685531 0)
(-0.030642 0.10707 6.12498e-20)
(-0.0403385 0.140198 -6.24147e-20)
(-0.0485347 0.168039 5.71179e-19)
(-0.0552083 0.191036 6.19357e-23)
(-0.0603473 0.209726 -6.49342e-20)
(-0.0639377 0.224627 6.54928e-20)
(-0.0659686 0.236185 -3.28701e-19)
(-0.0664382 0.244746 0)
(-0.0653513 0.250572 0)
(-0.0627257 0.253853 -1.31752e-19)
(-0.0585933 0.254736 1.32487e-19)
(-0.0530014 0.253342 -1.31573e-19)
(-0.0460094 0.249792 1.31014e-19)
(-0.0376883 0.244214 0)
(-0.0281217 0.236753 -5.18151e-19)
(-0.0174035 0.227578 2.56638e-19)
(-0.00563979 0.216876 1.27716e-19)
(0.00705226 0.204859 3.80121e-19)
(0.020546 0.191756 0)
(0.0347057 0.177812 2.49989e-19)
(0.0493879 0.163286 2.46906e-19)
(0.064446 0.148444 2.44711e-19)
(0.0797315 0.13356 -1.7209e-21)
(0.0950946 0.118921 -2.39628e-19)
(0.110377 0.104839 2.39217e-19)
(0.125432 0.0917061 0)
(0.140168 0.0801698 6.39886e-22)
(0.153996 0.0713347 5.06223e-19)
(-0.00779589 0.0253446 -2.19094e-19)
(-0.0206343 0.0681423 0)
(-0.0318449 0.106616 -2.43806e-19)
(-0.041298 0.139788 -3.10948e-19)
(-0.0489874 0.167707 -1.90229e-19)
(-0.0549544 0.190766 6.41443e-20)
(-0.0592351 0.209469 5.66283e-23)
(-0.0618524 0.224316 -6.52504e-20)
(-0.0628223 0.235746 7.87894e-22)
(-0.0621627 0.244114 1.3168e-19)
(-0.0598924 0.249691 1.31409e-19)
(-0.0560402 0.25268 -1.30834e-19)
(-0.0506474 0.253239 1.31493e-19)
(-0.0437699 0.251501 -3.92602e-19)
(-0.0354765 0.247596 3.90825e-19)
(-0.0258482 0.241657 2.58876e-19)
(-0.0149796 0.233838 6.44483e-19)
(-0.00297732 0.224309 -1.29316e-19)
(0.0100399 0.213264 -2.53298e-19)
(0.0239411 0.200918 -1.45254e-21)
(0.0385857 0.187505 -2.49803e-19)
(0.0538242 0.173276 7.41986e-19)
(0.0695008 0.158492 -4.92373e-19)
(0.0854565 0.143423 4.85395e-19)
(0.101532 0.128345 -2.41796e-19)
(0.117569 0.11354 4.77532e-19)
(0.133401 0.0993127 1.05639e-21)
(0.148872 0.086038 -4.68909e-19)
(0.163913 0.0743621 4.63585e-19)
(0.177969 0.0654439 2.48748e-19)
(-0.00830085 0.0249977 2.19093e-19)
(-0.0216787 0.0673768 0)
(-0.0329313 0.105663 5.47762e-19)
(-0.0421101 0.13878 1.86614e-19)
(-0.04925 0.16672 0)
(-0.0544526 0.18982 0)
(-0.0578015 0.208542 0)
(-0.0593587 0.22336 0)
(-0.0591695 0.234706 1.31225e-19)
(-0.0572745 0.242935 1.31229e-19)
(-0.0537103 0.248324 -2.63208e-19)
(-0.0485198 0.251089 2.63047e-19)
(-0.041756 0.251397 3.92496e-19)
(-0.0334862 0.249392 1.31009e-19)
(-0.0237906 0.245213 1.28782e-19)
(-0.0127621 0.239001 -3.88045e-19)
(-0.000507762 0.230914 -5.13121e-19)
(0.0128521 0.221127 -2.55293e-19)
(0.0271848 0.20984 2.53284e-19)
(0.0423458 0.197272 -5.01616e-19)
(0.05818 0.183661 2.48281e-19)
(0.0745244 0.16926 -4.92853e-19)
(0.0912105 0.154335 2.43011e-19)
(0.108068 0.139157 -1.40846e-21)
(0.124928 0.124003 -2.39174e-19)
(0.141622 0.109152 -4.75145e-19)
(0.157977 0.0948974 4.70442e-19)
(0.173827 0.0815934 0)
(0.189126 0.0698719 -6.07516e-22)
(0.203377 0.0609308 -4.93822e-19)
(-0.00875627 0.0245113 2.72544e-20)
(-0.0226245 0.0662729 0)
(-0.0338981 0.104219 -2.4307e-19)
(-0.0427804 0.137171 6.19213e-20)
(-0.0493397 0.16506 -6.28745e-20)
(-0.0537335 0.188164 0)
(-0.0560924 0.206898 -6.44247e-20)
(-0.056518 0.221706 6.48686e-20)
(-0.0550879 0.233003 1.30471e-19)
(-0.0518685 0.241141 -3.92104e-19)
(-0.0469173 0.246402 -1.30939e-19)
(-0.0402948 0.249007 5.35711e-23)
(-0.0320684 0.249137 -4.83071e-22)
(-0.0223191 0.246944 -2.6003e-19)
(-0.0111407 0.242575 -1.29841e-19)
(0.00136031 0.236178 0)
(0.0150627 0.227917 7.10955e-22)
(0.0298322 0.217973 2.53989e-19)
(0.0455218 0.206549 -2.51369e-19)
(0.0619727 0.193869 0)
(0.0790155 0.180172 0)
(0.0964741 0.165716 0)
(0.114168 0.150768 0)
(0.131916 0.135602 -1.52558e-21)
(0.149539 0.120494 0)
(0.16686 0.105719 0)
(0.183703 0.0915584 2.32469e-19)
(0.199888 0.0783441 2.30306e-19)
(0.215389 0.0666829 2.29218e-19)
(0.229801 0.0577988 -5.94943e-22)
(-0.00915876 0.0238996 2.71667e-20)
(-0.0234665 0.0648532 -5.91016e-20)
(-0.0347442 0.102303 3.62588e-19)
(-0.0433155 0.134968 -6.16724e-20)
(-0.0492742 0.16272 6.27564e-20)
(-0.0528285 0.185776 6.41224e-23)
(-0.0541545 0.2045 1.92298e-19)
(-0.0533941 0.219302 -2.58431e-19)
(-0.0506592 0.230576 3.8982e-19)
(-0.0460452 0.238664 4.2171e-22)
(-0.0396336 0.24385 -1.30114e-19)
(-0.0315054 0.246361 2.60373e-19)
(-0.0217456 0.246383 -2.5966e-19)
(-0.0104512 0.244079 2.58579e-19)
(0.00226861 0.239602 0)
(0.0162922 0.233109 2.55517e-19)
(0.0314835 0.22477 0)
(0.047693 0.214769 1.18417e-21)
(0.0647598 0.203314 -2.49378e-19)
(0.0825108 0.190632 -2.471e-19)
(0.100763 0.176965 2.4477e-19)
(0.119327 0.162571 -2.42418e-19)
(0.138012 0.14772 -2.40065e-19)
(0.156624 0.132687 -4.76913e-19)
(0.174976 0.117745 -2.35423e-19)
(0.192884 0.103167 2.34031e-19)
(0.210165 0.0892236 -4.63994e-19)
(0.226633 0.0762204 -2.30293e-19)
(0.242272 0.0647323 0)
(0.2568 0.0560003 -2.4151e-19)
(-0.00950695 0.0231794 0)
(-0.0242019 0.063146 2.35221e-19)
(-0.0354701 0.0999407 -1.81258e-19)
(-0.0437225 0.132187 -3.07194e-19)
(-0.0490701 0.159701 0)
(-0.0517669 0.182641 0)
(-0.0520322 0.201319 -3.84575e-19)
(-0.0500486 0.216105 5.16031e-19)
(-0.045964 0.22737 -3.89064e-19)
(-0.0399052 0.235442 0)
(-0.0319806 0.240599 1.30572e-19)
(-0.0222945 0.243072 -1.30357e-19)
(-0.0109522 0.243053 8.85985e-22)
(0.00193086 0.240712 -1.29898e-19)
(0.0162286 0.23621 -1.27775e-19)
(0.0318031 0.22971 -1.02897e-21)
(0.0485025 0.221386 2.52537e-19)
(0.0661628 0.211428 2.51557e-19)
(0.0846085 0.200048 7.51142e-22)
(0.103652 0.187473 4.93687e-19)
(0.123098 0.173948 -4.8878e-19)
(0.142745 0.159733 4.84212e-19)
(0.162389 0.145097 2.40051e-19)
(0.181827 0.130315 2.37715e-19)
(0.200862 0.11566 1.41081e-21)
(0.219303 0.101399 0)
(0.236965 0.0877926 2.30336e-19)
(0.253654 0.0751209 -6.84225e-19)
(0.269358 0.0639206 2.24324e-19)
(0.283944 0.0554462 2.38193e-19)
(-0.00980159 0.0223692 -1.61613e-19)
(-0.0248312 0.0611846 -5.28453e-19)
(-0.036078 0.0971655 -5.98512e-23)
(-0.0440076 0.128854 6.67767e-22)
(-0.0487415 0.156018 -1.86727e-19)
(-0.0505737 0.178759 0)
(-0.0497647 0.197338 -1.27266e-19)
(-0.0465371 0.212085 -7.7187e-19)
(-0.0410762 0.223341 3.88242e-19)
(-0.0335423 0.231416 -2.58899e-19)
(-0.0240727 0.236582 3.88705e-19)
(-0.0127979 0.239068 -1.29593e-19)
(0.000154267 0.23907 2.58755e-19)
(0.0146484 0.236763 -6.42849e-19)
(0.0305401 0.232313 3.84127e-19)
(0.0476742 0.225891 -7.14367e-22)
(0.0658829 0.217674 -7.56221e-19)
(0.0849874 0.207856 2.49661e-19)
(0.104798 0.196653 -2.47787e-19)
(0.125114 0.184292 0)
(0.145725 0.171021 2.42254e-19)
(0.166419 0.157098 0)
(0.186981 0.142793 -2.38006e-19)
(0.207196 0.128381 2.35665e-19)
(0.226857 0.114129 2.33986e-19)
(0.245768 0.100301 2.30335e-19)
(0.263741 0.0871481 0)
(0.280575 0.0749247 0)
(0.29626 0.0641249 -4.50668e-19)
(0.310831 0.0560185 7.06019e-19)
(-0.0100455 0.021489 1.61756e-19)
(-0.0253571 0.0590063 2.92992e-19)
(-0.0365709 0.0940184 -2.3939e-19)
(-0.0441755 0.125005 4.89201e-19)
(-0.048298 0.151696 6.29441e-20)
(-0.0492668 0.174142 6.31011e-20)
(-0.0473815 0.192555 8.47404e-22)
(-0.042904 0.207225 -2.55782e-19)
(-0.0360571 0.218458 -1.28562e-19)
(-0.0270358 0.226545 7.6616e-22)
(-0.0160088 0.231747 -7.85594e-22)
(-0.00313386 0.234287 -3.86923e-19)
(0.0114365 0.234364 -1.2824e-19)
(0.0275456 0.232155 8.74658e-22)
(0.0450297 0.227832 2.54315e-19)
(0.0637162 0.221568 2.52511e-19)
(0.0834211 0.213545 9.96696e-22)
(0.103951 0.203962 -2.48277e-19)
(0.125102 0.193034 2.46278e-19)
(0.146659 0.180992 -2.44283e-19)
(0.168399 0.168082 -4.83328e-19)
(0.190096 0.154563 -2.39117e-19)
(0.211523 0.140703 4.73016e-19)
(0.232455 0.126773 0)
(0.252675 0.11304 -2.31359e-19)
(0.271979 0.0997581 -4.5935e-19)
(0.290178 0.0871694 -4.55034e-19)
(0.307071 0.0755051 2.25575e-19)
(0.32264 0.0652125 -6.70163e-19)
(0.337102 0.0575821 2.33019e-19)
(-0.0102435 0.0205594 -2.67907e-19)
(-0.0257847 0.0566509 5.83153e-20)
(-0.0369516 0.090546 2.39392e-19)
(-0.0442281 0.120686 -1.83227e-19)
(-0.0477429 0.146774 6.23179e-20)
(-0.0478547 0.168817 -1.42322e-22)
(-0.0448994 0.186985 6.34634e-19)
(-0.0391771 0.201524 2.56177e-19)
(-0.0309481 0.212708 2.57453e-19)
(-0.0204426 0.220803 3.8696e-19)
(-0.00786131 0.226056 -3.87199e-19)
(0.00660909 0.228684 2.57858e-19)
(0.0227907 0.228882 5.13462e-19)
(0.0405045 0.226829 2.55214e-19)
(0.059567 0.222699 -6.97157e-22)
(0.0797879 0.216669 -5.04784e-19)
(0.100967 0.208924 5.00196e-19)
(0.122896 0.199666 2.50433e-22)
(0.145356 0.18911 -2.45188e-19)
(0.168116 0.177487 2.43201e-19)
(0.190941 0.165042 2.41075e-19)
(0.213589 0.152035 -2.37472e-19)
(0.235821 0.138731 -4.71655e-19)
(0.257398 0.125396 7.54278e-23)
(0.278093 0.11229 2.31958e-19)
(0.297699 0.0996633 2.29016e-19)
(0.316024 0.0877441 4.5241e-19)
(0.33287 0.0767416 -4.46226e-19)
(0.34821 0.0670538 0)
(0.362449 0.059998 2.31082e-19)
(-0.0104016 0.0196008 6.79166e-22)
(-0.0261204 0.0541591 0)
(-0.0372222 0.0867989 -1.78308e-19)
(-0.0441628 0.11595 -6.07418e-20)
(-0.0470714 0.141302 -2.46824e-19)
(-0.0463329 0.162829 0)
(-0.0423178 0.18066 -3.80127e-19)
(-0.0353626 0.195004 1.27486e-19)
(-0.0257643 0.2061 0)
(-0.0137879 0.214189 -2.56605e-19)
(0.000333537 0.219499 0)
(0.0163842 0.222237 -3.84513e-19)
(0.0341603 0.222594 3.8339e-19)
(0.0534604 0.220748 -2.54977e-19)
(0.0740808 0.216874 -2.52543e-19)
(0.0958131 0.211149 0)
(0.118441 0.203761 0)
(0.141739 0.194913 2.46499e-19)
(0.165472 0.184821 -5.07739e-22)
(0.189395 0.173714 2.40959e-19)
(0.213253 0.161838 -2.39626e-19)
(0.236791 0.149449 4.74242e-19)
(0.259752 0.136807 -2.34534e-19)
(0.281886 0.124175 0)
(0.302956 0.111804 6.89202e-19)
(0.322749 0.0999328 -1.13532e-18)
(0.341078 0.0887795 2.25336e-19)
(0.357753 0.0785306 2.23227e-19)
(0.372736 0.0695321 2.19802e-19)
(0.386615 0.0631334 4.56293e-19)
(-0.0105273 0.0186323 -2.12204e-19)
(-0.0263711 0.0515719 4.63163e-19)
(-0.0373827 0.0828313 2.37921e-19)
(-0.0439716 0.110858 5.44658e-19)
(-0.0462687 0.135342 6.77418e-19)
(-0.0446825 0.156236 1.24962e-19)
(-0.039616 0.173636 -6.30191e-19)
(-0.0314406 0.187713 0)
(-0.0204885 0.198673 -5.10415e-19)
(-0.00705846 0.20673 -2.55091e-19)
(0.00858479 0.212094 0)
(0.0261967 0.214957 -2.54697e-19)
(0.0455479 0.215504 -6.31849e-22)
(0.0664141 0.21391 -7.60555e-19)
(0.0885714 0.210347 2.52537e-19)
(0.111793 0.204994 2.49915e-19)
(0.135843 0.19804 -4.95868e-19)
(0.16048 0.189685 -4.91612e-19)
(0.185449 0.180146 5.46048e-22)
(0.210485 0.169652 -2.48649e-22)
(0.235316 0.158443 0)
(0.259666 0.146774 -2.35677e-19)
(0.283263 0.134898 -2.32083e-19)
(0.305843 0.12307 0)
(0.327161 0.111532 0)
(0.347003 0.100511 6.7863e-19)
(0.365189 0.0902085 -6.69169e-19)
(0.381545 0.0807906 0)
(0.396026 0.0725499 6.56058e-19)
(0.40939 0.0668688 -4.52013e-19)
(-0.0106285 0.0176716 1.38686e-21)
(-0.0265436 0.0489286 -4.63103e-19)
(-0.03743 0.0786985 -5.91713e-20)
(-0.0436397 0.105476 -6.04934e-19)
(-0.0453086 0.128969 -3.69403e-19)
(-0.0428677 0.149116 1.24592e-19)
(-0.0367506 0.165988 2.52428e-19)
(-0.0273618 0.179721 6.33141e-19)
(-0.0150671 0.190492 5.10415e-19)
(-0.00019709 0.198487 5.11692e-19)
(0.016953 0.203893 0)
(0.0361108 0.206892 1.57662e-21)
(0.0570218 0.207655 0)
(0.0794387 0.206353 5.06598e-19)
(0.103116 0.203155 0)
(0.127807 0.198238 -2.49006e-19)
(0.153257 0.191789 2.49318e-19)
(0.1792 0.18401 0)
(0.20536 0.175111 0)
(0.231449 0.16532 -7.1842e-19)
(0.257173 0.154875 2.37572e-19)
(0.282235 0.144023 0)
(0.306346 0.133011 4.64678e-19)
(0.32923 0.122081 4.60589e-19)
(0.350639 0.111465 -9.091e-19)
(0.370362 0.101373 8.99488e-19)
(0.388232 0.0919909 1.19872e-21)
(0.4041 0.0834633 4.39298e-19)
(0.417919 0.076029 -4.37164e-19)
(0.4306 0.0710999 0)
(-0.010713 0.0167341 5.30392e-19)
(-0.0266433 0.0462661 -5.75844e-20)
(-0.037357 0.0744558 -4.71386e-19)
(-0.0431449 0.0998753 0)
(-0.0441529 0.122264 -4.89168e-19)
(-0.0408347 0.141558 0)
(-0.0336538 0.157809 -6.2656e-19)
(-0.0230457 0.171126 -3.80041e-19)
(-0.00940762 0.181654 -5.07379e-19)
(0.00689969 0.189554 0)
(0.0255526 0.194992 1.27301e-19)
(0.0462516 0.198131 1.2846e-19)
(0.0687172 0.199135 -2.5358e-19)
(0.0926783 0.198164 -5.03246e-19)
(0.117867 0.195382 -2.49827e-19)
(0.144012 0.190963 -9.9281e-19)
(0.170835 0.185092 4.94082e-19)
(0.198044 0.177964 6.51244e-22)
(0.225336 0.16979 6.13209e-22)
(0.252397 0.16079 7.1795e-19)
(0.278906 0.151199 0)
(0.304548 0.141253 0)
(0.329015 0.131191 -1.30792e-21)
(0.352026 0.121241 8.1999e-22)
(0.373334 0.111619 -4.51229e-19)
(0.39274 0.102519 -4.47497e-19)
(0.410098 0.0941086 1.0851e-21)
(0.425291 0.0865095 -4.39287e-19)
(0.438281 0.0799074 -4.33909e-19)
(0.450106 0.0757359 9.2447e-22)
(-0.0107881 0.0158321 0)
(-0.0266731 0.043617 4.5875e-19)
(-0.0371519 0.0701565 4.12523e-19)
(-0.0424564 0.0941283 5.9991e-20)
(-0.0427505 0.115316 9.76825e-19)
(-0.0385124 0.133666 -1.23843e-19)
(-0.0302344 0.149214 1.00047e-18)
(-0.0183817 0.162047 5.03277e-19)
(-0.00338068 0.172285 7.60655e-19)
(0.0143795 0.180061 3.80071e-19)
(0.0345482 0.185521 1.26902e-19)
(0.0567995 0.18881 6.34218e-19)
(0.080828 0.190079 -4.87929e-22)
(0.106337 0.189477 2.51775e-19)
(0.133032 0.187162 4.99883e-19)
(0.160615 0.183303 4.95953e-19)
(0.188777 0.178078 0)
(0.217196 0.171678 0)
(0.245535 0.164306 0)
(0.273453 0.156179 0)
(0.300602 0.14752 4.69564e-19)
(0.326648 0.138558 0)
(0.351274 0.129516 -7.69844e-22)
(0.374196 0.120609 9.09453e-19)
(0.39518 0.112035 4.50226e-19)
(0.414045 0.103969 4.45363e-19)
(0.430678 0.0965573 8.81064e-19)
(0.445003 0.0899011 0)
(0.456997 0.084134 -8.61846e-19)
(0.467801 0.0806973 8.84847e-19)
(-0.0108594 0.0149748 4.2034e-19)
(-0.0266329 0.0410093 -4.5876e-19)
(-0.0367968 0.0658508 0)
(-0.0415354 0.0883072 -4.77985e-19)
(-0.0410388 0.10822 -1.23361e-19)
(-0.035813 0.12555 -3.69467e-19)
(-0.0263796 0.140331 -1.12224e-18)
(-0.0132321 0.152628 -1.64641e-21)
(0.00317547 0.162538 -3.77989e-19)
(0.022427 0.17017 -8.85971e-19)
(0.0441454 0.175649 -1.26629e-19)
(0.0679778 0.179102 -5.04452e-19)
(0.0935906 0.180663 -5.02505e-19)
(0.120658 0.180473 0)
(0.148855 0.178677 -4.96288e-19)
(0.177849 0.175437 -7.38505e-19)
(0.207295 0.170923 2.4474e-19)
(0.236836 0.165319 -4.82979e-19)
(0.266101 0.15882 -4.77938e-19)
(0.294716 0.151633 0)
(0.322314 0.143972 -9.37055e-19)
(0.348544 0.136051 0)
(0.373088 0.12808 -9.16933e-19)
(0.395672 0.120257 -4.52661e-19)
(0.416084 0.11276 -8.95926e-19)
(0.434173 0.105744 4.43052e-19)
(0.449865 0.0993352 -1.31495e-18)
(0.463132 0.0936137 4.32531e-19)
(0.473976 0.0886632 2.25768e-21)
(0.483611 0.0859134 -4.38827e-19)
(-0.0109307 0.0141677 -4.20349e-19)
(-0.0265181 0.0384652 5.70966e-20)
(-0.0362682 0.0615836 4.08407e-19)
(-0.0403347 0.0824818 4.77996e-19)
(-0.0389446 0.101069 -4.8612e-19)
(-0.0326358 0.117331 1.58823e-21)
(-0.02196 0.131299 4.97977e-19)
(-0.00743929 0.143026 -1.00194e-18)
(0.0104457 0.152587 -1.24193e-19)
(0.0312517 0.160068 1.13537e-18)
(0.0545746 0.165573 -7.55896e-19)
(0.080032 0.169211 1.25914e-18)
(0.107258 0.1711 1.25373e-18)
(0.135893 0.171364 -2.49715e-19)
(0.165574 0.170139 4.96284e-19)
(0.195929 0.167575 7.37537e-19)
(0.226572 0.163833 2.42032e-19)
(0.257105 0.159084 1.99982e-21)
(0.287124 0.153514 2.398e-19)
(0.316227 0.147317 2.36198e-19)
(0.344031 0.140697 -2.30883e-19)
(0.370182 0.133852 2.30853e-19)
(0.39437 0.126975 -4.54881e-19)
(0.416345 0.120248 4.51894e-19)
(0.435927 0.11383 2.20394e-21)
(0.453007 0.107857 4.39734e-19)
(0.467554 0.102433 2.25815e-21)
(0.479593 0.0976192 -4.3128e-19)
(0.489155 0.09345 1.22643e-21)
(0.497502 0.0913222 0)
(-0.0110034 0.0134125 0)
(-0.0263198 0.0360005 0)
(-0.0355367 0.0573941 -5.25137e-19)
(-0.0388006 0.0767175 5.94092e-20)
(-0.0363866 0.0939561 0)
(-0.0288702 0.109126 4.91193e-19)
(-0.0168357 0.122263 1.2394e-19)
(-0.000834409 0.133408 3.75377e-19)
(0.0186253 0.142617 5.026e-19)
(0.0410717 0.149957 -5.03766e-19)
(0.0660702 0.15551 5.03763e-19)
(0.0932046 0.159365 -5.02705e-19)
(0.122072 0.161621 -5.00711e-19)
(0.15227 0.162386 0)
(0.183391 0.161782 0)
(0.215019 0.159945 0)
(0.246724 0.157021 -4.85809e-19)
(0.278066 0.153171 7.2057e-19)
(0.308612 0.148566 -2.37803e-19)
(0.337941 0.143389 0)
(0.365664 0.137826 6.973e-19)
(0.391437 0.132061 -2.29794e-19)
(0.414975 0.126273 4.54874e-19)
(0.436064 0.120626 -8.95851e-19)
(0.454568 0.115262 8.88471e-19)
(0.470427 0.1103 -1.20402e-21)
(0.483659 0.105827 1.06669e-21)
(0.494335 0.101884 4.28971e-19)
(0.502517 0.0984539 -2.87835e-22)
(0.509483 0.0968812 4.33578e-19)
(-0.0110756 0.0127073 5.21351e-20)
(-0.0260239 0.033625 -5.66435e-20)
(-0.0345673 0.0533143 1.16211e-19)
(-0.0368737 0.071073 -7.10264e-19)
(-0.0332786 0.0869689 1.20435e-19)
(-0.0244021 0.101052 0)
(-0.0108642 0.113365 4.93052e-19)
(0.00675122 0.12394 -4.96777e-19)
(0.0279053 0.132819 0)
(0.052094 0.140045 6.25451e-19)
(0.0788465 0.145681 -1.25337e-19)
(0.107707 0.149793 0)
(0.138226 0.152461 -2.48626e-19)
(0.169954 0.153773 4.9497e-19)
(0.202433 0.153834 -2.46081e-19)
(0.235197 0.152764 2.43256e-19)
(0.26777 0.150692 -4.82747e-19)
(0.299681 0.147764 7.74712e-22)
(0.330472 0.144137 7.34461e-22)
(0.359717 0.139978 -2.32301e-19)
(0.387039 0.135459 -4.61619e-19)
(0.412118 0.13075 1.04177e-21)
(0.434712 0.126013 1.61115e-21)
(0.454657 0.121398 4.4749e-19)
(0.471869 0.117038 -4.41055e-19)
(0.48634 0.113039 4.37578e-19)
(0.498131 0.109476 -8.62917e-19)
(0.50735 0.106373 -1.17967e-21)
(0.51409 0.103663 -8.43258e-19)
(0.519595 0.102603 4.31148e-19)
(-0.011142 0.0120465 0)
(-0.0256109 0.0313418 -4.51016e-19)
(-0.0333198 0.0493685 0)
(-0.0344911 0.0655987 1.66218e-21)
(-0.0295331 0.0801862 1.20214e-19)
(-0.0191186 0.0932162 1.63868e-22)
(-0.00390917 0.104741 -9.84261e-19)
(0.0154743 0.114786 3.72851e-19)
(0.0384566 0.123374 0)
(0.064495 0.130532 -6.24992e-19)
(0.0930751 0.136298 1.24871e-19)
(0.123692 0.140716 0)
(0.155844 0.143841 -2.47617e-19)
(0.189026 0.145742 2.46819e-19)
(0.222727 0.146502 2.43998e-19)
(0.25643 0.146223 4.85187e-19)
(0.289621 0.145016 -2.40711e-19)
(0.321804 0.14301 0)
(0.352513 0.140345 0)
(0.381334 0.137175 4.66401e-19)
(0.407918 0.133656 -4.59386e-19)
(0.431993 0.129943 4.55213e-19)
(0.45337 0.126188 4.50441e-19)
(0.471949 0.122531 4.43717e-19)
(0.487711 0.119099 -4.39218e-19)
(0.500698 0.115997 4.35047e-19)
(0.511005 0.113303 4.28852e-19)
(0.518736 0.111045 -4.24206e-19)
(0.523946 0.109158 1.01408e-21)
(0.527684 0.108746 8.57883e-19)
(-0.0111965 0.0114244 5.17804e-20)
(-0.0250588 0.0291511 3.9489e-19)
(-0.0317524 0.0455752 0)
(-0.0315898 0.0603371 4.71689e-19)
(-0.0250658 0.0736773 0)
(-0.0129157 0.0857161 0)
(0.00415043 0.0965139 3.68725e-19)
(0.025467 0.106089 -4.03058e-23)
(0.0504146 0.11445 1.24109e-19)
(0.0784027 0.1216 1.24283e-19)
(0.108864 0.127553 -3.728e-19)
(0.141236 0.132327 2.48245e-19)
(0.174958 0.135953 0)
(0.209464 0.138475 0)
(0.244189 0.139955 -4.88304e-19)
(0.278574 0.140472 0)
(0.312078 0.140119 -2.38801e-19)
(0.344192 0.139007 2.37162e-19)
(0.374463 0.137262 2.3381e-19)
(0.402507 0.135021 -7.11704e-22)
(0.428024 0.132428 -2.29205e-19)
(0.450805 0.129626 0)
(0.470732 0.126757 -4.46534e-19)
(0.48778 0.123954 4.42142e-19)
(0.502 0.121344 0)
(0.513505 0.11904 0)
(0.52244 0.117152 0)
(0.528929 0.115767 0)
(0.532911 0.114917 -4.1683e-19)
(0.535083 0.115929 8.52537e-19)
(0.0748878 0.150715 -0.0130143)
(0.120232 0.125128 -0.0133355)
(0.160736 0.119165 -0.0134361)
(0.187285 0.124459 -0.0134928)
(0.205983 0.135329 -0.013479)
(0.2166 0.147673 -0.0134459)
(0.221691 0.159074 -0.0133858)
(0.22257 0.168878 -0.0133143)
(0.220573 0.177403 -0.0132292)
(0.216608 0.185272 -0.0131354)
(0.211278 0.192849 -0.0130369)
(0.20495 0.200272 -0.0129366)
(0.197815 0.207499 -0.0128341)
(0.190053 0.214446 -0.0127293)
(0.181714 0.221047 -0.0126252)
(0.172968 0.227236 -0.0125224)
(0.163772 0.23301 -0.0124219)
(0.154343 0.238357 -0.012323)
(0.144542 0.243261 -0.0122243)
(0.134667 0.247752 -0.0121223)
(0.124438 0.251774 -0.0120165)