/*--------------------------------*- C++ -*----------------------------------*\
  =========                 |
  \\      /  F ield         | OpenFOAM: The Open Source CFD Toolbox
   \\    /   O peration     | Website:  https://openfoam.org
    \\  /    A nd           | Version:  7
     \\/     M anipulation  |
\*---------------------------------------------------------------------------*/
FoamFile
{
    version     2.0;
    format      ascii;
    class       volScalarField;
    location    "48.5";
    object      p;
}
// * * * * * * * * * * * * * * * * * * * * * * * * * * * * * * * * * * * * * //

dimensions      [0 2 -2 0 0 0 0];

internalField   nonuniform List<scalar> 
2000
(
0.0391542
0.0391125
0.0394633
0.0399635
0.0405682
0.0412445
0.0419673
0.0427197
0.0434841
0.0442745
0.039339
0.0393587
0.0397677
0.0403312
0.040994
0.0417139
0.0424581
0.0432014
0.0439162
0.044596
0.0393985
0.0395161
0.039988
0.0406137
0.0413308
0.0420903
0.0428557
0.0435969
0.044282
0.044872
0.0393301
0.0395827
0.0401194
0.040802
0.0415603
0.0423473
0.0431237
0.0438588
0.0445249
0.0450467
0.0391376
0.0395617
0.0401619
0.0408892
0.0416721
0.0424652
0.0432317
0.0439438
0.0445865
0.0450574
0.038831
0.0394613
0.0401192
0.0408767
0.0416612
0.042432
0.0431583
0.0438181
0.0444137
0.0448393
0.0384339
0.0392876
0.0399986
0.0407682
0.0415274
0.0422425
0.0428916
0.0434598
0.0439673
0.0443331
0.0379654
0.0390559
0.039809
0.0405693
0.0412729
0.0418949
0.0424257
0.0428597
0.043232
0.0435063
0.0374517
0.0387799
0.0395596
0.0402857
0.0409006
0.0413891
0.041756
0.0420103
0.0422063
0.0423692
0.0369224
0.0384735
0.0392604
0.0399255
0.040418
0.0407314
0.0408815
0.0408863
0.0408175
0.0408061
0.0464584
0.0509584
0.0558419
0.0610331
0.0658581
0.0705238
0.0740811
0.0778564
0.079274
0.0811798
0.0463918
0.0503288
0.0545107
0.0592307
0.0637217
0.068124
0.0714212
0.0749962
0.0763849
0.0781344
0.0462061
0.0497686
0.0531784
0.0574249
0.0616006
0.0657627
0.0688443
0.0722506
0.0735636
0.0752251
0.0458467
0.0492526
0.0518514
0.0556289
0.0595018
0.0634371
0.0663414
0.0695964
0.0708338
0.0724427
0.0452761
0.0487116
0.0505397
0.0538586
0.0574374
0.061162
0.0639198
0.0670434
0.0682299
0.0697937
0.044478
0.0480409
0.0492542
0.0521192
0.0554003
0.0589227
0.0615502
0.0645554
0.0657184
0.0672545
0.0434575
0.0471376
0.0479958
0.0504246
0.0534216
0.056757
0.0592752
0.0621783
0.0633304
0.0648343
0.0422337
0.0459409
0.0467356
0.0487386
0.0514461
0.0545922
0.0570125
0.0598214
0.0609863
0.0624899
0.040848
0.0444185
0.0454379
0.0471622
0.0496179
0.0525698
0.0549023
0.0576085
0.0587746
0.0602434
0.0395073
0.0427104
0.0439136
0.0454171
0.0476308
0.0503968
0.0526694
0.0552849
0.056529
0.0580122
0.0376209
0.0407427
0.0425281
0.0435176
0.0447486
0.0466482
0.0485762
0.050636
0.0518565
0.0528957
0.0286034
0.0312217
0.0333285
0.0351872
0.0370066
0.0390763
0.0410189
0.0428285
0.0439664
0.0447043
0.0194823
0.0216904
0.0236838
0.0258029
0.0281075
0.0306514
0.0328668
0.0347889
0.0360264
0.0367753
0.0108425
0.012653
0.0145446
0.0167928
0.0194515
0.02241
0.0249046
0.0269693
0.0283064
0.0291542
0.00342808
0.00478016
0.00646672
0.00868289
0.0115103
0.0147493
0.0175347
0.0198108
0.0212704
0.0221701
-0.00216151
-0.00126525
0.000112997
0.00221649
0.00507555
0.00834514
0.0111607
0.0134915
0.0150391
0.0160123
-0.00552067
-0.00511155
-0.00422719
-0.00245315
0.000281131
0.00351225
0.0062509
0.00844323
0.0098721
0.0107955
-0.00651894
-0.00644669
-0.00603229
-0.00480327
-0.0026045
0.000233999
0.00268981
0.00462601
0.00583932
0.00661056
-0.00553327
-0.00569308
-0.00558085
-0.00479634
-0.00323157
-0.00114995
0.000636684
0.00203992
0.00283671
0.0033796
-0.00239685
-0.00267338
-0.00288965
-0.00271395
-0.00204056
-0.00100982
-0.000152167
0.000523101
0.000801757
0.00105309
0.0340588
0.0257823
0.0174599
0.00957572
0.00283496
-0.00225966
-0.00529289
-0.0061531
-0.00516071
-0.00215086
0.0321898
0.0240236
0.0160038
0.00850419
0.00218369
-0.00254106
-0.00528676
-0.00599503
-0.00496316
-0.00204922
0.0303554
0.0225734
0.014871
0.00770681
0.00173194
-0.00269542
-0.00520747
-0.00579145
-0.00473433
-0.00189265
0.0287599
0.0213934
0.0140003
0.00715575
0.00149616
-0.00268053
-0.00501514
-0.00553006
-0.0044884
-0.00182655
0.0274839
0.020489
0.0133846
0.00682213
0.0014407
-0.00252833
-0.00472421
-0.00521414
-0.00421741
-0.00174927
0.0265691
0.0198639
0.0130237
0.00670071
0.00156382
-0.00224262
-0.00434916
-0.00484712
-0.00392166
-0.0016478
0.0260163
0.0195166
0.0129092
0.00679034
0.00184727
-0.00183671
-0.00389234
-0.00442971
-0.00360146
-0.00152576
0.0258088
0.0194376
0.0130267
0.00707098
0.00228072
-0.00132089
-0.00336194
-0.00396579
-0.00325754
-0.00138495
0.0259367
0.0195998
0.0133578
0.00752464
0.00284664
-0.000708508
-0.00276782
-0.00346066
-0.00289196
-0.00122748
0.0263481
0.0199839
0.0138766
0.00812682
0.00352396
-1.53885e-05
-0.00212072
-0.00292074
-0.00250815
-0.00105726
0.0269726
0.0205391
0.0145409
0.00884296
0.00428673
0.000740064
-0.00143259
-0.00235356
-0.0021107
-0.000879036
0.027764
0.021226
0.0153186
0.00964802
0.00511366
0.00154205
-0.000715261
-0.00176746
-0.00170493
-0.000697891
0.0286971
0.0220249
0.0161903
0.0105268
0.00598891
0.00237754
2.03636e-05
-0.00117076
-0.00129641
-0.000518978
0.0297439
0.022916
0.0171343
0.0114633
0.00689732
0.00323408
0.000764389
-0.000571254
-0.000890003
-0.000345855
0.0308805
0.0238852
0.0181312
0.0124436
0.00782586
0.0041006
0.00150832
2.4324e-05
-0.000489714
-0.000180738
0.0320829
0.0249192
0.0191609
0.0134534
0.00876291
0.00496713
0.00224511
0.000610549
-9.85876e-05
-2.47598e-05
0.0333101
0.0259947
0.0202004
0.0144778
0.00969866
0.00582551
0.00296958
0.00118359
0.000281766
0.000121929
0.0345567
0.0271351
0.0212695
0.015529
0.0106415
0.0066783
0.0036819
0.00174241
0.000651457
0.000259977
0.0359788
0.0285024
0.0224716
0.0166742
0.0116329
0.00754602
0.00439082
0.0022899
0.00101275
0.000390004
0.0371892
0.0298499
0.023605
0.0177698
0.0125901
0.00837848
0.00507521
0.00281785
0.001365
0.000508588
0.0366552
0.0309662
0.0249528
0.0194312
0.014345
0.010061
0.00658209
0.0040172
0.00216887
0.000761482
0.0360348
0.0307321
0.0252124
0.0201813
0.015463
0.0114047
0.00797081
0.00526993
0.00308343
0.00114226
0.0367672
0.0315445
0.0261446
0.0212668
0.0166355
0.0126172
0.00911841
0.00626491
0.00381329
0.00147466
0.0377983
0.0325259
0.0271659
0.0223454
0.0177248
0.0136756
0.010084
0.0071039
0.00445986
0.00180649
0.0393129
0.0338041
0.0283507
0.0234621
0.0187667
0.0146313
0.0109346
0.00785589
0.00507488
0.00215234
0.0412542
0.035393
0.0297284
0.0246467
0.0198125
0.0155479
0.0117426
0.00856869
0.00566566
0.0024918
0.0434803
0.0372101
0.0312226
0.0258658
0.020871
0.0164598
0.0125431
0.00924065
0.00616464
0.00270492
0.0456617
0.0387341
0.0325826
0.0270431
0.0219183
0.0173614
0.0133149
0.00979972
0.0064357
0.00268041
0.047387
0.0406008
0.0340694
0.0281417
0.0228078
0.018108
0.0139199
0.0101396
0.00643495
0.00245849
0.0488312
0.0410851
0.0344091
0.028517
0.0232392
0.0185337
0.0142719
0.0103118
0.006391
0.00230033
0.0403277
0.0399062
0.0405482
0.0414928
0.0431535
0.0452644
0.0476406
0.050684
0.0518788
0.0543694
0.0413382
0.0413811
0.0421668
0.0432242
0.045061
0.047318
0.0498488
0.0528363
0.0543032
0.0564298
0.0419409
0.0424126
0.0435203
0.0449368
0.0471192
0.0496669
0.0524701
0.0552841
0.057149
0.0585161
0.0427176
0.0434195
0.0447527
0.0465221
0.0490241
0.0518592
0.0549383
0.0577907
0.059936
0.0609635
0.0436415
0.0445904
0.0460967
0.0481404
0.0508794
0.0539351
0.0572381
0.060272
0.0626139
0.0637037
0.0445886
0.0458612
0.0475934
0.0498917
0.0528301
0.0560656
0.0595458
0.0627815
0.0652856
0.0665862
0.0455418
0.047161
0.0491863
0.0517631
0.054914
0.0583374
0.0619849
0.0653974
0.0680445
0.0695307
0.0465301
0.0484843
0.05084
0.0537127
0.057103
0.060744
0.0645782
0.0681541
0.0709301
0.0725301
0.0475714
0.049844
0.0525527
0.0557179
0.0593674
0.06325
0.0672972
0.0710444
0.0739431
0.0756069
0.048669
0.0512391
0.0543288
0.0577704
0.0616952
0.0658297
0.0701117
0.0740461
0.0770706
0.0787796
0.0498256
0.0526533
0.0561664
0.0598594
0.0640826
0.0684707
0.0730064
0.0771437
0.0803025
0.0820556
0.0510416
0.0540604
0.0580537
0.0619664
0.0665219
0.0711635
0.0759737
0.0803279
0.0836333
0.0854349
0.0522935
0.0554425
0.0599626
0.0640753
0.068996
0.0739078
0.0790139
0.083599
0.0870675
0.0889233
0.0535375
0.0567936
0.0618489
0.0661776
0.0714809
0.0767033
0.0821198
0.0869561
0.0906083
0.0925371
0.05472
0.0581167
0.063663
0.0682739
0.0739583
0.0795661
0.0852965
0.0904044
0.0942553
0.0962626
0.0557783
0.059417
0.0653326
0.0704135
0.0764174
0.082422
0.0885009
0.0939159
0.0979915
0.10009
0.0566494
0.0607122
0.0669449
0.0724692
0.0788297
0.0852536
0.0917302
0.097491
0.101818
0.104029
0.0572264
0.0620199
0.0684062
0.0743568
0.0811137
0.0879881
0.0949149
0.101079
0.105711
0.108073
0.0576084
0.0632112
0.0697403
0.0761508
0.0833341
0.0906965
0.0981071
0.104711
0.109685
0.112248
0.0575509
0.0639545
0.0706375
0.0774909
0.0850941
0.0929922
0.100986
0.10818
0.113648
0.116518
0.0593822
0.0676335
0.0747048
0.0824388
0.0908682
0.099795
0.10888
0.11721
0.123663
0.1272
0.0689085
0.0768715
0.084415
0.0935307
0.103456
0.114089
0.124912
0.134814
0.142462
0.146584
0.079039
0.0875755
0.0962096
0.106918
0.118489
0.131034
0.143631
0.155005
0.163694
0.168389
0.0894336
0.0990174
0.109305
0.121858
0.135368
0.15012
0.16453
0.17735
0.186968
0.192017
0.100108
0.111098
0.123332
0.137906
0.153614
0.170711
0.186903
0.201145
0.211563
0.217112
0.111422
0.123911
0.138266
0.154979
0.173045
0.192447
0.210345
0.225906
0.236793
0.242147
0.122839
0.136986
0.153391
0.172205
0.192598
0.214022
0.233532
0.250133
0.261106
0.266736
0.134123
0.149716
0.168028
0.188841
0.211412
0.234549
0.255787
0.273377
0.283922
0.287508
0.142506
0.15935
0.179099
0.201428
0.225623
0.250077
0.272938
0.291319
0.301414
0.305952
0.148521
0.165976
0.186727
0.210125
0.235444
0.261044
0.285752
0.307098
0.32036
0.308467
0.0568292
0.0656692
0.0746409
0.0842777
0.0940231
0.104741
0.115166
0.126019
0.133633
0.139555
0.0564177
0.0655917
0.0742555
0.0836065
0.0930053
0.103397
0.113359
0.12383
0.130764
0.136472
0.0566063
0.0662765
0.0748868
0.0841418
0.0933606
0.103443
0.112968
0.122825
0.128902
0.134127
0.0565385
0.0663966
0.0749287
0.0841472
0.0932316
0.10308
0.112241
0.121607
0.127137
0.1319
0.0563735
0.0661889
0.0746028
0.0836956
0.0925902
0.102179
0.110991
0.119983
0.125228
0.129663
0.0562123
0.0659297
0.0743061
0.0832146
0.091891
0.101178
0.10963
0.118281
0.12333
0.127538
0.0560345
0.0656784
0.0740913
0.082847
0.0913485
0.100352
0.108476
0.116798
0.121659
0.125677
0.0558348
0.0654496
0.0738986
0.0825584
0.0909613
0.0997367
0.107617
0.115628
0.120335
0.124161
0.0556341
0.0652545
0.0737356
0.0823331
0.0906818
0.0992803
0.107044
0.114725
0.119387
0.122991
0.055461
0.0651099
0.07363
0.0821958
0.0905016
0.0989846
0.106675
0.114092
0.118762
0.12214
0.0553425
0.0650298
0.0736027
0.0821657
0.0904423
0.0988584
0.10649
0.113735
0.118405
0.121612
0.0552695
0.064998
0.0736482
0.0822396
0.0905137
0.0989054
0.106501
0.113645
0.118306
0.121404
0.0552067
0.0649827
0.0737482
0.0824027
0.0907116
0.0991262
0.106722
0.113822
0.118476
0.121509
0.0551357
0.0649769
0.0738959
0.0826455
0.0910305
0.099516
0.107153
0.114256
0.118918
0.121914
0.0550414
0.0649866
0.0740883
0.0829639
0.0914699
0.100072
0.107794
0.114951
0.119637
0.122613
0.0548911
0.0650058
0.0743082
0.0833429
0.0920152
0.100774
0.108628
0.115882
0.120612
0.123598
0.0546476
0.0650321
0.0745429
0.0837772
0.0926662
0.101628
0.109671
0.117058
0.121854
0.124868
0.0542245
0.0650082
0.0747305
0.0842065
0.0933559
0.102562
0.110853
0.11842
0.123319
0.126416
0.0536802
0.0650103
0.0749354
0.0846907
0.0941481
0.103642
0.112235
0.120009
0.125046
0.128249
0.0525111
0.0645749
0.0747636
0.0848389
0.0946425
0.10448
0.113486
0.121601
0.126901
0.130359
0.0532478
0.0660289
0.0765591
0.087196
0.09772
0.108175
0.117965
0.126617
0.132519
0.136236
0.0631559
0.0747916
0.0848944
0.0961861
0.107634
0.119266
0.130398
0.140178
0.146933
0.150743
0.0734688
0.0852019
0.0959345
0.108416
0.121117
0.134419
0.147249
0.158538
0.166314
0.170376
0.083382
0.095822
0.108066
0.122362
0.137029
0.15283
0.168029
0.181565
0.191061
0.195823
0.0928613
0.106539
0.12083
0.137308
0.154589
0.173623
0.191981
0.2089
0.221316
0.227694
0.102209
0.117427
0.134147
0.153068
0.173597
0.196426
0.218847
0.240622
0.258
0.268361
0.110913
0.128002
0.147027
0.168641
0.192828
0.219623
0.247192
0.275732
0.301143
0.320375
0.119281
0.138008
0.159307
0.183765
0.211574
0.242589
0.276692
0.31418
0.352426
0.390444
0.123987
0.144054
0.167106
0.193713
0.224644
0.260226
0.301899
0.350947
0.410217
0.481804
0.127529
0.149759
0.174535
0.203366
0.237617
0.278406
0.328484
0.392315
0.481546
0.600095
0.0493742
0.0584669
0.0671365
0.0761665
0.0846815
0.0936395
0.100903
0.10893
0.113065
0.114806
0.0483683
0.0574687
0.0659291
0.0745503
0.0825967
0.0912293
0.097878
0.105687
0.109317
0.111566
0.048029
0.0572839
0.0657276
0.0741156
0.0817653
0.0899178
0.0960257
0.103352
0.106372
0.10996
0.0476069
0.0566904
0.0649199
0.0731262
0.0804338
0.088141
0.0937995
0.100622
0.103165
0.107472
0.0472085
0.0558351
0.0636722
0.0715725
0.0785302
0.0857711
0.0910008
0.0973507
0.0994946
0.103768
0.0469103
0.0549562
0.0623764
0.0697967
0.0764715
0.0831789
0.0879815
0.0938558
0.0956267
0.0994615
0.0466993
0.0540952
0.061107
0.0680474
0.0743604
0.0806033
0.0850407
0.0904182
0.0918679
0.0951963
0.0465636
0.0532481
0.0598206
0.0663316
0.0722414
0.0780167
0.0822657
0.0871269
0.0883789
0.0912784
0.0464953
0.0524296
0.0585042
0.0645953
0.0701225
0.0754638
0.0795387
0.083935
0.0851836
0.0877103
0.0464733
0.0516606
0.0571734
0.0628243
0.0679955
0.0729665
0.0768001
0.0808353
0.0821928
0.0843628
0.0364108
0.0381538
0.0389261
0.0395041
0.0398456
0.0399519
0.0398448
0.0395329
0.039027
0.0382339
0.0359589
0.0378453
0.0385787
0.0390477
0.0392203
0.0391092
0.038749
0.0381592
0.0373752
0.0364095
0.0356061
0.0375732
0.0382469
0.0385929
0.0385921
0.038271
0.0376813
0.036861
0.0358742
0.034762
0.035395
0.0373706
0.0379689
0.0381869
0.0380191
0.0375072
0.036719
0.0357089
0.0345571
0.0332919
0.0353693
0.037276
0.0377891
0.0378813
0.0375608
0.0368833
0.03593
0.0347673
0.0334813
0.0320777
0.0355695
0.0373303
0.0377532
0.0377262
0.0372696
0.0364521
0.0353644
0.0340806
0.0326855
0.0311666
0.0360298
0.0375721
0.0379021
0.0377627
0.0371847
0.0362487
0.0350514
0.0336717
0.0321882
0.0305797
0.0367741
0.0380337
0.0382666
0.0380178
0.0373285
0.0362893
0.0350012
0.0335432
0.0319892
0.0303173
0.0378108
0.0387347
0.0388622
0.0385016
0.0377048
0.0365722
0.0352075
0.033681
0.0320722
0.0303504
0.0391141
0.039671
0.0396841
0.0392055
0.0383002
0.0370784
0.0356416
0.0340666
0.0324121
0.0306576
0.0406162
0.0408112
0.0407086
0.0401042
0.039089
0.0377799
0.036278
0.0346591
0.0329729
0.0312036
0.0423632
0.0421607
0.0419139
0.041167
0.0400345
0.0386385
0.0370764
0.0354199
0.0337143
0.0319429
0.04428
0.0436633
0.04325
0.0423473
0.0410933
0.0396121
0.0379949
0.0363083
0.0345949
0.0328324
0.046289
0.0452568
0.0446607
0.0435936
0.0422173
0.0406552
0.0389897
0.0372815
0.0355723
0.0338314
0.0483124
0.0468748
0.046086
0.0448518
0.0433572
0.0417218
0.0400172
0.0382977
0.0366063
0.0349027
0.050268
0.0484471
0.0474643
0.0460685
0.0444656
0.0427684
0.0410366
0.0393177
0.0376588
0.0360111
0.0520737
0.0499035
0.0487371
0.0471944
0.0454993
0.0437561
0.0420116
0.0403062
0.0386932
0.0371172
0.0536518
0.0511789
0.0498517
0.0481872
0.0464226
0.0446532
0.0429131
0.0412329
0.0396703
0.0381746
0.0549334
0.0522163
0.0507643
0.0490131
0.0472088
0.0454371
0.0437191
0.0420677
0.0405429
0.0391468
0.0558615
0.0529695
0.0514403
0.0496486
0.0478435
0.0461009
0.0444271
0.0428061
0.0413038
0.040048
0.0563931
0.0534037
0.0518543
0.050077
0.048321
0.0466581
0.0450938
0.0436031
0.0422626
0.0413963
0.0564982
0.0534945
0.0519871
0.0502812
0.0486206
0.047072
0.0456391
0.0442915
0.0430784
0.0422775
0.056162
0.0532325
0.0518305
0.0502513
0.0487289
0.0473239
0.046039
0.0448441
0.0437614
0.0429841
0.0553928
0.052624
0.0513887
0.0499895
0.0486466
0.0474174
0.0463052
0.0452843
0.0443624
0.0436792
0.0542182
0.0516899
0.0506779
0.0495088
0.048386
0.0473652
0.0464529
0.0456283
0.0448902
0.0443483
0.052683
0.0504642
0.0497252
0.0488322
0.0479671
0.0471858
0.0464992
0.0458918
0.0453564
0.0449787
0.050845
0.0489911
0.0485659
0.0479888
0.0474154
0.0469017
0.046464
0.0460935
0.0457796
0.045586
0.0487707
0.0473215
0.0472406
0.0470117
0.0467587
0.0465367
0.0463679
0.0462509
0.0461761
0.0461881
0.0465319
0.0455093
0.0457917
0.0459348
0.0460245
0.0461135
0.0462296
0.0463796
0.0465577
0.0467952
0.0442162
0.0436131
0.0442628
0.0447909
0.0452386
0.0456522
0.046065
0.0464917
0.0469328
0.0474119
0.0419389
0.0417062
0.0427034
0.043615
0.0444264
0.0451719
0.0458879
0.0465968
0.0473064
0.0480392
0.0396515
0.0397948
0.041134
0.0424263
0.0436031
0.0446832
0.0457053
0.0466979
0.0476765
0.0486708
0.0374268
0.0379272
0.0395883
0.0412477
0.0427839
0.0441957
0.0455214
0.0467946
0.0480361
0.0492908
0.0353231
0.0361443
0.0380962
0.0400978
0.0419799
0.0437145
0.0453366
0.0468822
0.0483735
0.0498759
0.033371
0.0344772
0.0366793
0.0389906
0.0411984
0.0432414
0.045148
0.046954
0.0486761
0.0503996
0.0316032
0.032965
0.0353356
0.0379362
0.040444
0.0427759
0.0449513
0.0470038
0.0489356
0.0508335
0.0300332
0.0315987
0.0341079
0.036942
0.0397187
0.0423168
0.0447423
0.0470275
0.0491586
0.0511569
0.0286702
0.0303918
0.0329977
0.0360164
0.0390234
0.0418617
0.0445172
0.0470202
0.0493663
0.0513734
0.0275178
0.0293534
0.0320075
0.0351605
0.0383577
0.0414079
0.0442764
0.0469863
0.049505
0.051706
0.0265749
0.0284858
0.0311408
0.0343759
0.0377193
0.0409484
0.0440057
0.0469129
0.0496584
0.0521036
0.0258324
0.0277851
0.0303982
0.0336626
0.0371051
0.040478
0.0437022
0.0468072
0.049913
0.052984
0.0252568
0.0272364
0.0297756
0.0330202
0.0365099
0.0399752
0.0433069
0.0464957
0.0496385
0.0527019
0.0248582
0.0268417
0.0292752
0.0324519
0.0359358
0.0394397
0.0428244
0.0460439
0.0491561
0.0521418
0.0246299
0.0265948
0.0288964
0.0319632
0.0353948
0.0388955
0.042304
0.0455545
0.0486811
0.0516453
0.024557
0.0264846
0.0286363
0.03156
0.0349008
0.0383655
0.0417771
0.0450539
0.0482107
0.0511876
0.0246234
0.0264994
0.0284909
0.0312462
0.0344641
0.0378636
0.0412569
0.0445456
0.047725
0.0507276
0.0248134
0.0266266
0.028454
0.0310235
0.034092
0.0373999
0.0407538
0.0440394
0.0472315
0.0502617
0.025111
0.0268527
0.0285175
0.0308908
0.0337896
0.0369829
0.0402783
0.0435473
0.0467441
0.0497997
0.0255004
0.0271635
0.0286715
0.030845
0.0335597
0.0366195
0.0398389
0.0430789
0.046273
0.0493525
0.0259748
0.0275505
0.0289081
0.0308821
0.033403
0.0363135
0.0394411
0.04264
0.045825
0.0489287
0.0265398
0.0280189
0.0292314
0.0310072
0.0333264
0.0360728
0.0390923
0.042237
0.0454051
0.0485327
0.027134
0.0285215
0.0296053
0.0311958
0.0333163
0.0358917
0.038791
0.0418698
0.0450117
0.0481578
0.0277594
0.0290577
0.0300256
0.0314433
0.0333696
0.0357689
0.0385364
0.0415364
0.0446398
0.0477915
0.0284134
0.0296231
0.030486
0.0317429
0.0334814
0.0357013
0.0383264
0.0412335
0.0442837
0.0474237
0.0290887
0.0302097
0.0309775
0.0320868
0.0336457
0.0356859
0.0381593
0.0409592
0.0439388
0.0470454
0.0297787
0.0308107
0.0314925
0.0324674
0.0338572
0.0357198
0.0380344
0.040713
0.0436018
0.0466449
0.0304788
0.031421
0.032025
0.0328785
0.034111
0.0358007
0.037952
0.0404972
0.0432738
0.0462142
0.0311854
0.0320367
0.0325702
0.0333152
0.0344033
0.0359272
0.0379137
0.0403171
0.0429637
0.0457518
0.0318959
0.0326551
0.0331249
0.0337736
0.0347308
0.0360983
0.0379222
0.0401831
0.0427015
0.0453007
0.0326084
0.0332741
0.0336865
0.0342509
0.0350913
0.0363133
0.0379764
0.0400911
0.0425095
0.0449333
0.0333213
0.0338919
0.0342527
0.0347442
0.0354819
0.0365719
0.0380835
0.0400662
0.0425466
0.0452579
0.0340325
0.0345052
0.0348208
0.0352517
0.0359008
0.0368683
0.0382224
0.0400069
0.042272
0.0448104
0.0347393
0.0351135
0.035391
0.0357732
0.0363477
0.037203
0.0384013
0.0399773
0.0419749
0.0442622
0.0354369
0.0357141
0.0359615
0.0363079
0.0368242
0.0375846
0.0386445
0.0400392
0.0418107
0.0438568
0.0361183
0.0363026
0.0365292
0.0368539
0.0373303
0.0380169
0.0389608
0.0401975
0.0417678
0.0435903
0.0367739
0.0368726
0.0370892
0.0374073
0.0378629
0.0384977
0.0393485
0.0404472
0.0418306
0.0434446
0.037391
0.0374164
0.0376349
0.0379618
0.0384156
0.0390209
0.0398023
0.0407848
0.0419983
0.0434168
0.0379545
0.0379239
0.0381569
0.0385082
0.0389784
0.0395757
0.0403116
0.0412017
0.0422662
0.0435029
0.0384477
0.0383834
0.0386437
0.0390338
0.0395369
0.040146
0.0408591
0.0416812
0.0426202
0.0436909
0.0388529
0.0387831
0.0390831
0.0395237
0.0400733
0.0407103
0.0414207
0.0421978
0.0430367
0.0439582
)
;

boundaryField
{
    inlet
    {
        type            zeroGradient;
    }
    outlet
    {
        type            fixedValue;
        value           uniform 0;
    }
    cylinder
    {
        type            zeroGradient;
    }
    top
    {
        type            symmetryPlane;
    }
    bottom
    {
        type            symmetryPlane;
    }
    defaultFaces
    {
        type            empty;
    }
}


// ************************************************************************* //
