/*--------------------------------*- C++ -*----------------------------------*\
  =========                 |
  \\      /  F ield         | OpenFOAM: The Open Source CFD Toolbox
   \\    /   O peration     | Website:  https://openfoam.org
    \\  /    A nd           | Version:  7
     \\/     M anipulation  |
\*---------------------------------------------------------------------------*/
FoamFile
{
    version     2.0;
    format      ascii;
    class       volScalarField;
    location    "0.0375";
    object      p;
}
// * * * * * * * * * * * * * * * * * * * * * * * * * * * * * * * * * * * * * //

dimensions      [0 2 -2 0 0 0 0];

internalField   nonuniform List<scalar> 
400
(
5.12043e-08
-0.0049222
-0.0104793
-0.0142928
-0.0149968
-0.0120142
-0.0053683
0.00450911
0.0169164
0.0309708
0.0456698
0.059945
0.072721
0.0829926
0.0899282
0.0930078
0.0922006
0.0881686
0.0824179
0.077474
0.00481846
-0.000241764
-0.00452535
-0.00699301
-0.00698687
-0.00409391
0.00169581
0.010069
0.0204858
0.0322434
0.0445286
0.0564686
0.0671898
0.0758883
0.0819165
0.084887
0.0848014
0.0821409
0.0776931
0.0726214
0.0107202
0.00373127
-0.000944675
-0.00321173
-0.00307703
-0.00031646
0.00502798
0.0126579
0.0220968
0.0327321
0.0438514
0.0546849
0.064456
0.0724435
0.0780527
0.0809003
0.0809274
0.0784245
0.0735292
0.0664882
0.0157584
0.00613142
0.00024919
-0.00242796
-0.00245664
0.000212929
0.00545047
0.0129156
0.022134
0.0325221
0.0434065
0.054054
0.0637122
0.0716608
0.0772732
0.0800907
0.0799453
0.0769544
0.0707369
0.0609594
0.0186662
0.00618984
-0.00116304
-0.0044311
-0.00464788
-0.00191943
0.00352556
0.0112804
0.0208426
0.0316246
0.0429569
0.0541047
0.0642961
0.0727642
0.0787984
0.0818184
0.0815182
0.0778522
0.0699938
0.0571804
0.0184972
0.00299376
-0.00595433
-0.00982799
-0.0101136
-0.0070671
-0.0010252
0.00752124
0.0180201
0.0298568
0.042341
0.0547084
0.0661349
0.0757668
0.0827647
0.0863789
0.0861289
0.0817936
0.0721128
0.0559563
0.0143909
-0.00439845
-0.0150072
-0.0193773
-0.0194826
-0.0157452
-0.00862682
0.0012802
0.0133591
0.0269549
0.0413436
0.0557156
0.0691722
0.0807414
0.0894095
0.0942021
0.0944064
0.0895777
0.0779571
0.0580205
0.00536005
-0.0170694
-0.0293462
-0.0339676
-0.0334963
-0.0285645
-0.0197875
-0.00787722
0.00647702
0.0225792
0.0396739
0.0569063
0.0732971
0.0877342
0.0989874
0.105789
0.107108
0.102179
0.0885839
0.0642864
-0.00987988
-0.036383
-0.0502432
-0.0546903
-0.053055
-0.0462584
-0.0351116
-0.0204652
-0.00308002
0.0163213
0.0369731
0.0579983
0.0783514
0.0967771
0.111792
0.121757
0.125203
0.120878
0.105429
0.076073
-0.0330693
-0.0641215
-0.0793005
-0.0828655
-0.0791993
-0.0696343
-0.0552353
-0.0370088
-0.0157733
0.00775614
0.03285
0.0586604
0.0841226
0.107864
0.128135
0.14284
0.149916
0.147381
0.1305
0.0953436
-0.0666087
-0.102658
-0.118538
-0.12004
-0.11304
-0.0994629
-0.0806949
-0.0579073
-0.0319421
-0.00344583
0.0269671
0.0585681
0.0903647
0.120944
0.148315
0.169872
0.182775
0.183962
0.166635
0.125029
-0.113901
-0.155217
-0.170492
-0.167939
-0.155618
-0.136282
-0.111709
-0.0832158
-0.0515975
-0.0173338
0.0191953
0.0575179
0.0968656
0.135934
0.172604
0.203765
0.225637
0.233635
0.217871
0.169545
-0.180021
-0.226284
-0.238308
-0.228333
-0.207633
-0.180079
-0.147853
-0.112335
-0.0741408
-0.0334289
0.00982361
0.0555919
0.103554
0.152763
0.201216
0.245454
0.280703
0.300357
0.289999
0.235721
-0.273163
-0.322289
-0.325754
-0.302685
-0.268969
-0.229792
-0.187612
-0.143634
-0.0980521
-0.0504699
-0.000237269
0.0533102
0.110586
0.171368
0.234204
0.295717
0.350362
0.389167
0.391405
0.334646
-0.407772
-0.452638
-0.436867
-0.391317
-0.337806
-0.282575
-0.227827
-0.174078
-0.120657
-0.0662796
-0.00939124
0.0516346
0.118279
0.191513
0.271106
0.354625
0.436601
0.505989
0.534266
0.485303
-0.610259
-0.630955
-0.575014
-0.492042
-0.409439
-0.332991
-0.263289
-0.19911
-0.138213
-0.0779701
-0.0156252
0.0516643
0.126759
0.212338
0.310299
0.420634
0.539903
0.656823
0.73565
0.720272
-0.929345
-0.875254
-0.74128
-0.59919
-0.475857
-0.373118
-0.287251
-0.213424
-0.146771
-0.0827978
-0.0172986
0.0539334
0.135341
0.231788
0.348405
0.489846
0.658144
0.845954
1.01716
1.09503
-1.47821
-1.20243
-0.923978
-0.69716
-0.522612
-0.391508
-0.291671
-0.211845
-0.143329
-0.0794246
-0.0144912
0.0568913
0.140677
0.244141
0.376731
0.550619
0.77823
1.06421
1.40023
1.73303
-2.57286
-1.60553
-1.04964
-0.722861
-0.50629
-0.360743
-0.260374
-0.185691
-0.124181
-0.0676936
-0.0100481
0.0543544
0.13206
0.231824
0.367068
0.559083
0.836959
1.24017
1.8842
2.95986
-4.44849
-2.023
-0.97879
-0.576043
-0.369836
-0.25094
-0.178559
-0.128442
-0.0875288
-0.0488137
-0.00770946
0.039941
0.0989208
0.176624
0.286489
0.454645
0.729679
1.2296
2.38938
4.93236
)
;

boundaryField
{
    movingWall
    {
        type            zeroGradient;
    }
    fixedWalls
    {
        type            zeroGradient;
    }
    frontAndBack
    {
        type            empty;
    }
}


// ************************************************************************* //
