/*--------------------------------*- C++ -*----------------------------------*\
  =========                 |
  \\      /  F ield         | OpenFOAM: The Open Source CFD Toolbox
   \\    /   O peration     | Website:  https://openfoam.org
    \\  /    A nd           | Version:  7
     \\/     M anipulation  |
\*---------------------------------------------------------------------------*/
FoamFile
{
    version     2.0;
    format      ascii;
    class       volVectorField;
    location    "0.0375";
    object      U;
}
// * * * * * * * * * * * * * * * * * * * * * * * * * * * * * * * * * * * * * //

dimensions      [0 1 -1 0 0 0 0];

internalField   nonuniform List<vector> 
400
(
(0.000196154 -0.000191186 0)
(4.52257e-05 0.000122186 0)
(-0.00112513 0.000490513 0)
(-0.00308003 0.000740332 0)
(-0.00548443 0.00085666 0)
(-0.00801418 0.000856695 0)
(-0.0103874 0.000763894 0)
(-0.0123785 0.000601297 0)
(-0.0138185 0.000389263 0)
(-0.0145922 0.000145872 0)
(-0.014635 -0.000111587 0)
(-0.0139341 -0.000364915 0)
(-0.0125328 -0.000593558 0)
(-0.0105364 -0.000773816 0)
(-0.00811888 -0.000879033 0)
(-0.00552508 -0.000881435 0)
(-0.00306355 -0.000756637 0)
(-0.00108133 -0.000491894 0)
(7.9462e-05 -0.000112151 0)
(0.000206833 0.000199843 0)
(-8.86689e-05 -6.73499e-05 0)
(-0.00144515 0.00148083 0)
(-0.00491986 0.00308293 0)
(-0.00993343 0.00419063 0)
(-0.015813 0.00470508 0)
(-0.0218969 0.00466189 0)
(-0.0275713 0.0041462 0)
(-0.0323209 0.00325932 0)
(-0.0357496 0.0021029 0)
(-0.0375835 0.000775428 0)
(-0.0376716 -0.000624913 0)
(-0.035989 -0.00199516 0)
(-0.0326451 -0.0032232 0)
(-0.0278934 -0.00418666 0)
(-0.0221383 -0.00475727 0)
(-0.0159303 -0.00481379 0)
(-0.00993354 -0.00426691 0)
(-0.00485537 -0.00309832 0)
(-0.00138452 -0.00144449 0)
(-6.74234e-05 0.000104781 0)
(-0.000450771 0.00104326 0)
(-0.00314757 0.00495847 0)
(-0.0088985 0.0085964 0)
(-0.0166477 0.0110831 0)
(-0.0254296 0.0121972 0)
(-0.0343598 0.0119843 0)
(-0.0426112 0.0106186 0)
(-0.0494812 0.00832955 0)
(-0.0544262 0.00536248 0)
(-0.0570685 0.00196463 0)
(-0.0571995 -0.00161311 0)
(-0.0547851 -0.00510804 0)
(-0.0499758 -0.00823844 0)
(-0.0431186 -0.0107039 0)
(-0.0347647 -0.0121998 0)
(-0.0256609 -0.0124512 0)
(-0.0167025 -0.0112725 0)
(-0.0088407 -0.00865279 0)
(-0.00307249 -0.00489181 0)
(-0.000421074 -0.000960824 0)
(-0.000763909 0.00305633 0)
(-0.00473971 0.010364 0)
(-0.0127264 0.0166023 0)
(-0.0231052 0.0207266 0)
(-0.034584 0.0224543 0)
(-0.0460756 0.0218784 0)
(-0.0565875 0.0192947 0)
(-0.0652858 0.0150952 0)
(-0.07153 0.00970488 0)
(-0.0748754 0.00355686 0)
(-0.0750741 -0.00290752 0)
(-0.0720794 -0.00922641 0)
(-0.0660587 -0.0149065 0)
(-0.05741 -0.0194244 0)
(-0.0467765 -0.0222526 0)
(-0.0350447 -0.0229173 0)
(-0.0232973 -0.021096 0)
(-0.0127193 -0.0167467 0)
(-0.00466283 -0.010281 0)
(-0.000726076 -0.00291869 0)
(-0.00104242 0.00588263 0)
(-0.0062621 0.0176123 0)
(-0.0164989 0.0269975 0)
(-0.0295246 0.0329539 0)
(-0.0436794 0.0352373 0)
(-0.0576624 0.0340593 0)
(-0.0703316 0.0298893 0)
(-0.0807528 0.0233204 0)
(-0.0882209 0.0149854 0)
(-0.0922497 0.00552448 0)
(-0.0925625 -0.0044126 0)
(-0.0890939 -0.0141467 0)
(-0.0820054 -0.0229501 0)
(-0.0717107 -0.0300456 0)
(-0.0589057 -0.03464 0)
(-0.044586 -0.0360062 0)
(-0.0300134 -0.033618 0)
(-0.0166329 -0.0273248 0)
(-0.00621461 -0.0175593 0)
(-0.000999938 -0.00568821 0)
(-0.00131878 0.00950124 0)
(-0.00782311 0.0267421 0)
(-0.0204167 0.0398715 0)
(-0.036209 0.047859 0)
(-0.0531283 0.0506102 0)
(-0.0696427 0.0485519 0)
(-0.0844684 0.0424001 0)
(-0.096594 0.0329976 0)
(-0.105278 0.0212134 0)
(-0.110014 0.0079075 0)
(-0.110506 -0.00605771 0)
(-0.106663 -0.0197825 0)
(-0.0986137 -0.0322943 0)
(-0.0867541 -0.0425359 0)
(-0.0717944 -0.0494007 0)
(-0.0548124 -0.0518343 0)
(-0.0372489 -0.0490098 0)
(-0.0208451 -0.0405573 0)
(-0.00786415 -0.0268249 0)
(-0.0012808 -0.00926922 0)
(-0.00162353 0.0139584 0)
(-0.00953516 0.0378833 0)
(-0.0246891 0.0553929 0)
(-0.043444 0.0655974 0)
(-0.0632644 0.0686832 0)
(-0.0823747 0.065415 0)
(-0.0993646 0.0568497 0)
(-0.113177 0.0441388 0)
(-0.123069 0.0284151 0)
(-0.128542 0.0107622 0)
(-0.129292 -0.00775606 0)
(-0.125193 -0.0260332 0)
(-0.116319 -0.042856 0)
(-0.103 -0.0568689 0)
(-0.0859129 -0.0665994 0)
(-0.0661759 -0.0705723 0)
(-0.0453952 -0.0675289 0)
(-0.0256401 -0.0567288 0)
(-0.0097591 -0.038302 0)
(-0.00160685 -0.013746 0)
(-0.00198406 0.0193627 0)
(-0.0115006 0.0512576 0)
(-0.0294968 0.0737983 0)
(-0.051442 0.0863509 0)
(-0.0742746 0.0895535 0)
(-0.0959774 0.084668 0)
(-0.11505 0.07321 0)
(-0.130441 0.0567093 0)
(-0.141462 0.036587 0)
(-0.147661 0.0141399 0)
(-0.14875 -0.00939692 0)
(-0.144564 -0.0327467 0)
(-0.135087 -0.0544812 0)
(-0.120531 -0.0729433 0)
(-0.10146 -0.0862439 0)
(-0.0789643 -0.092376 0)
(-0.0547683 -0.0894773 0)
(-0.0312801 -0.0762275 0)
(-0.0120435 -0.0523452 0)
(-0.00201535 -0.0192865 0)
(-0.00242718 0.0258787 0)
(-0.0138118 0.0671639 0)
(-0.034977 0.0953597 0)
(-0.0603036 0.11027 0)
(-0.0861367 0.113227 0)
(-0.110246 0.106201 0)
(-0.131113 0.0913144 0)
(-0.147784 0.0705522 0)
(-0.1597 0.0456394 0)
(-0.166525 0.0180577 0)
(-0.168017 -0.0108436 0)
(-0.163976 -0.0396843 0)
(-0.154266 -0.0668786 0)
(-0.138901 -0.0904915 0)
(-0.118235 -0.108181 0)
(-0.0932035 -0.117288 0)
(-0.0655479 -0.115127 0)
(-0.0379806 -0.0995042 0)
(-0.0148571 -0.0694269 0)
(-0.00254574 -0.0261389 0)
(-0.00298562 0.0337241 0)
(-0.0165634 0.0859553 0)
(-0.0412226 0.120323 0)
(-0.0699871 0.137375 0)
(-0.0985506 0.139494 0)
(-0.124549 0.129645 0)
(-0.146579 0.110737 0)
(-0.163912 0.0852862 0)
(-0.176244 0.055323 0)
(-0.183436 0.0224572 0)
(-0.185348 -0.0119381 0)
(-0.181761 -0.0464849 0)
(-0.172383 -0.0795405 0)
(-0.156952 -0.108961 0)
(-0.135469 -0.131951 0)
(-0.108532 -0.145083 0)
(-0.0777068 -0.144588 0)
(-0.0458916 -0.12699 0)
(-0.0183434 -0.0901082 0)
(-0.00324689 -0.0346338 0)
(-0.00371095 0.0431813 0)
(-0.0198782 0.108015 0)
(-0.0482901 0.148824 0)
(-0.0802704 0.16742 0)
(-0.110848 0.167768 0)
(-0.137698 0.154211 0)
(-0.15974 0.130646 0)
(-0.176671 0.10019 0)
(-0.188589 0.0651432 0)
(-0.195663 0.0271515 0)
(-0.197926 -0.0125172 0)
(-0.195169 -0.0526378 0)
(-0.186926 -0.0916657 0)
(-0.172579 -0.127382 0)
(-0.15161 -0.156602 0)
(-0.124027 -0.17506 0)
(-0.0909105 -0.177617 0)
(-0.0550717 -0.158965 0)
(-0.0226687 -0.114997 0)
(-0.00419055 -0.0451966 0)
(-0.00469838 0.0546354 0)
(-0.0239519 0.133735 0)
(-0.0562057 0.18076 0)
(-0.0906808 0.199691 0)
(-0.121851 0.196867 0)
(-0.147755 0.178489 0)
(-0.167963 0.149649 0)
(-0.18285 0.114082 0)
(-0.193089 0.0742749 0)
(-0.199276 0.0317692 0)
(-0.201689 -0.0124417 0)
(-0.200175 -0.0574772 0)
(-0.194109 -0.102102 0)
(-0.182464 -0.144238 0)
(-0.164043 -0.180485 0)
(-0.13796 -0.20577 0)
(-0.104352 -0.213333 0)
(-0.0654365 -0.195355 0)
(-0.02805 -0.144685 0)
(-0.00549632 -0.058385 0)
(-0.006134 0.0686618 0)
(-0.029121 0.163479 0)
(-0.0649372 0.215584 0)
(-0.100332 0.232717 0)
(-0.129609 0.224731 0)
(-0.151748 0.200229 0)
(-0.167425 0.16564 0)
(-0.177977 0.125232 0)
(-0.184816 0.0815057 0)
(-0.189041 0.0357083 0)
(-0.191236 -0.0116384 0)
(-0.191362 -0.0602122 0)
(-0.188689 -0.109341 0)
(-0.181803 -0.157386 0)
(-0.168741 -0.201054 0)
(-0.147426 -0.234691 0)
(-0.116462 -0.249823 0)
(-0.0766348 -0.235403 0)
(-0.0347898 -0.179634 0)
(-0.00737676 -0.0749674 0)
(-0.00837597 0.0861962 0)
(-0.0359372 0.197488 0)
(-0.0742337 0.251931 0)
(-0.107523 0.263831 0)
(-0.130893 0.248072 0)
(-0.145189 0.216143 0)
(-0.152745 0.175728 0)
(-0.156105 0.131357 0)
(-0.157472 0.0852552 0)
(-0.158438 0.0381353 0)
(-0.159886 -0.0101453 0)
(-0.161942 -0.0600132 0)
(-0.163891 -0.111605 0)
(-0.164074 -0.164085 0)
(-0.159847 -0.214748 0)
(-0.147791 -0.257891 0)
(-0.124373 -0.283614 0)
(-0.0877394 -0.277117 0)
(-0.0432781 -0.219927 0)
(-0.0102073 -0.0960596 0)
(-0.0120511 0.108792 0)
(-0.0451204 0.235559 0)
(-0.0830519 0.286932 0)
(-0.108792 0.288555 0)
(-0.120212 0.262046 0)
(-0.12129 0.221842 0)
(-0.116503 0.176364 0)
(-0.109616 0.129827 0)
(-0.103446 0.0837551 0)
(-0.0998774 0.0380768 0)
(-0.0999748 -0.00814446 0)
(-0.104042 -0.0561768 0)
(-0.111551 -0.107121 0)
(-0.120918 -0.161272 0)
(-0.1292 -0.21713 0)
(-0.131864 -0.26985 0)
(-0.122917 -0.309053 0)
(-0.0964676 -0.316403 0)
(-0.0537791 -0.264701 0)
(-0.0145749 -0.123285 0)
(-0.0179835 0.139026 0)
(-0.0568739 0.276108 0)
(-0.0878237 0.314913 0)
(-0.0968162 0.299808 0)
(-0.0880184 0.260111 0)
(-0.0697703 0.212172 0)
(-0.0486537 0.163884 0)
(-0.0291452 0.118214 0)
(-0.0140966 0.0754862 0)
(-0.00522395 0.0346676 0)
(-0.00349894 -0.00594916 0)
(-0.0093492 -0.048371 0)
(-0.0226266 -0.0946049 0)
(-0.0423122 -0.146224 0)
(-0.0659335 -0.203503 0)
(-0.0887351 -0.263681 0)
(-0.10279 -0.317767 0)
(-0.0972892 -0.34569 0)
(-0.0654094 -0.310866 0)
(-0.0210537 -0.159009 0)
(-0.0262838 0.181535 0)
(-0.0681366 0.313644 0)
(-0.0778935 0.324734 0)
(-0.0561206 0.286793 0)
(-0.017809 0.234275 0)
(0.0246154 0.182144 0)
(0.0638605 0.135594 0)
(0.096108 0.0952535 0)
(0.119521 0.0598852 0)
(0.133245 0.0275619 0)
(0.136796 -0.00391512 0)
(0.12976 -0.0369096 0)
(0.111765 -0.0739448 0)
(0.0827401 -0.117618 0)
(0.0436117 -0.170162 0)
(-0.00235631 -0.232023 0)
(-0.0474405 -0.298306 0)
(-0.077271 -0.351719 0)
(-0.0730127 -0.350359 0)
(-0.028945 -0.207092 0)
(-0.0318578 0.241346 0)
(-0.0640487 0.332444 0)
(-0.0250627 0.296367 0)
(0.0444812 0.235239 0)
(0.117672 0.177244 0)
(0.183145 0.129437 0)
(0.236636 0.0918841 0)
(0.277184 0.0623602 0)
(0.305196 0.0383239 0)
(0.321318 0.0174662 0)
(0.325877 -0.00231125 0)
(0.318643 -0.0230802 0)
(0.298755 -0.0471455 0)
(0.264803 -0.0773062 0)
(0.215273 -0.117034 0)
(0.149804 -0.17005 0)
(0.0716508 -0.237984 0)
(-0.00790193 -0.313817 0)
(-0.0590857 -0.363894 0)
(-0.0312054 -0.269298 0)
(0.0023744 0.286627 0)
(0.0140631 0.293767 0)
(0.138379 0.208951 0)
(0.261391 0.141219 0)
(0.358061 0.0945799 0)
(0.431049 0.0630931 0)
(0.484546 0.0418032 0)
(0.522144 0.0269537 0)
(0.546804 0.0159363 0)
(0.560551 0.0069804 0)
(0.564401 -0.00122592 0)
(0.558375 -0.00986014 0)
(0.541445 -0.0202508 0)
(0.511379 -0.0342705 0)
(0.464571 -0.0548953 0)
(0.396173 -0.0869039 0)
(0.300187 -0.137279 0)
(0.171363 -0.213881 0)
(0.034197 -0.310007 0)
(0.0119592 -0.304628 0)
(0.293296 0.149039 0)
(0.389898 0.127977 0)
(0.557479 0.0756588 0)
(0.67386 0.0430702 0)
(0.741778 0.0248239 0)
(0.783782 0.0145097 0)
(0.810893 0.00858562 0)
(0.828287 0.00504011 0)
(0.838929 0.00273903 0)
(0.844495 0.00104906 0)
(0.84576 -0.000415886 0)
(0.842822 -0.00196683 0)
(0.835114 -0.00394408 0)
(0.821175 -0.00690392 0)
(0.798161 -0.0119119 0)
(0.760812 -0.0210885 0)
(0.697759 -0.0385875 0)
(0.583689 -0.0720958 0)
(0.40923 -0.128235 0)
(0.302238 -0.152263 0)
)
;

boundaryField
{
    movingWall
    {
        type            fixedValue;
        value           uniform (1 0 0);
    }
    fixedWalls
    {
        type            noSlip;
    }
    frontAndBack
    {
        type            empty;
    }
}


// ************************************************************************* //
