/*--------------------------------*- C++ -*----------------------------------*\
  =========                 |
  \\      /  F ield         | OpenFOAM: The Open Source CFD Toolbox
   \\    /   O peration     | Website:  https://openfoam.org
    \\  /    A nd           | Version:  7
     \\/     M anipulation  |
\*---------------------------------------------------------------------------*/
FoamFile
{
    version     2.0;
    format      ascii;
    class       volScalarField;
    location    "57";
    object      p;
}
// * * * * * * * * * * * * * * * * * * * * * * * * * * * * * * * * * * * * * //

dimensions      [0 2 -2 0 0 0 0];

internalField   nonuniform List<scalar> 
2000
(
0.0253514
0.0253685
0.0255592
0.0257858
0.026021
0.0262581
0.0265033
0.0267694
0.0270653
0.0274348
0.0256857
0.0257034
0.0259205
0.0261868
0.026466
0.0267419
0.0270116
0.0272789
0.0275434
0.0278413
0.0259587
0.0259989
0.0262495
0.0265619
0.0268916
0.0272145
0.0275191
0.0278016
0.0280531
0.0282919
0.0261617
0.0262502
0.0265406
0.0269032
0.0272866
0.0276604
0.0280065
0.0283155
0.0285729
0.0287681
0.0262921
0.0264556
0.0267898
0.027204
0.0276387
0.0280621
0.0284511
0.0287928
0.0290734
0.0292455
0.0263518
0.0266169
0.0269974
0.0274577
0.0279379
0.0284033
0.028829
0.029202
0.0295164
0.0296881
0.0263486
0.0267393
0.0271642
0.0276635
0.0281768
0.0286697
0.0291183
0.0295115
0.0298571
0.0300481
0.0262987
0.0268286
0.0272946
0.0278216
0.028351
0.0288511
0.0293017
0.0296953
0.0300576
0.030279
0.0262192
0.0268957
0.0273952
0.0279345
0.0284582
0.0289396
0.0293655
0.0297361
0.0301007
0.0303657
0.0261319
0.0269521
0.0274736
0.0280061
0.0284984
0.0289291
0.0292928
0.0295998
0.0299221
0.0302167
0.028768
0.0318064
0.0354808
0.0394926
0.0433076
0.0472489
0.0503219
0.0537968
0.0550118
0.056952
0.0289791
0.0315099
0.0347469
0.0384231
0.0419635
0.0456686
0.04853
0.0518014
0.0530398
0.054793
0.0291909
0.031297
0.0340553
0.0373929
0.0406745
0.0441591
0.04683
0.0499379
0.0511331
0.0527686
0.0293748
0.031179
0.0334107
0.0364109
0.0394444
0.0427174
0.0452216
0.0481806
0.0493158
0.0508801
0.0295025
0.03115
0.0328172
0.0354868
0.0382789
0.0413496
0.0437081
0.046531
0.0476158
0.0491272
0.029552
0.0311738
0.0322783
0.0346255
0.0371746
0.0400472
0.0422692
0.0449631
0.0460122
0.0474927
0.0295138
0.0311839
0.0318006
0.0338341
0.0361449
0.0388305
0.0409303
0.0435069
0.0445263
0.0459734
0.0293782
0.0311017
0.0313872
0.0330935
0.0351557
0.0376496
0.0396314
0.0420935
0.0430982
0.0445437
0.029147
0.0308427
0.0310341
0.0324572
0.0342962
0.0366045
0.0384777
0.0408172
0.0417931
0.043208
0.0290471
0.0304876
0.0306259
0.0317267
0.0333336
0.0354519
0.0372389
0.0394666
0.0404785
0.0419176
0.0302632
0.0315602
0.0317899
0.0320376
0.0327887
0.0341149
0.03547
0.0370872
0.0379756
0.0389803
0.0262593
0.0279626
0.029025
0.0297024
0.0303866
0.0312811
0.0322017
0.033269
0.0338935
0.0344877
0.0219757
0.0239196
0.0253354
0.0263267
0.0271356
0.027991
0.0287148
0.0294616
0.0298474
0.0302153
0.0172593
0.0193833
0.0212039
0.0225709
0.0235374
0.0244137
0.025102
0.0257129
0.0259338
0.0261637
0.0123848
0.0145151
0.0166618
0.0184379
0.0196962
0.0206675
0.0213679
0.0219336
0.0220948
0.0222448
0.00781004
0.00984956
0.0121396
0.0141592
0.0156616
0.0167841
0.0175428
0.018095
0.0182621
0.0183904
0.00398001
0.00576698
0.00795125
0.0100386
0.0116755
0.0128844
0.01366
0.0141708
0.0143177
0.014431
0.00123958
0.00263879
0.00443702
0.00627762
0.00784729
0.0090451
0.00979045
0.010241
0.0103378
0.0104029
-0.00030391
0.000629614
0.00189483
0.00323538
0.00442884
0.0053528
0.00589432
0.00622039
0.00625198
0.00628609
-0.0010313
-0.000575932
5.16461e-05
0.000756363
0.00139132
0.00187651
0.0020996
0.00224974
0.00219212
0.00218937
0.0283308
0.0243036
0.0201666
0.0156659
0.0111033
0.00683949
0.0033071
0.00079215
-0.000455131
-0.00121391
0.02739
0.0232618
0.0191338
0.0147147
0.0103086
0.00623353
0.00290708
0.000566606
-0.000518005
-0.00127895
0.0262867
0.0222707
0.0182032
0.0138858
0.0096319
0.00572926
0.00258738
0.000404187
-0.000550489
-0.00123619
0.0252429
0.0214154
0.0174179
0.0132094
0.00910892
0.00536555
0.00238766
0.000338863
-0.000539954
-0.00107775
0.0243372
0.0206931
0.0167689
0.012666
0.00871727
0.00511425
0.00228787
0.000352278
-0.000479648
-0.000899408
0.023618
0.020115
0.0162622
0.0122564
0.0084405
0.00498636
0.00227934
0.000433955
-0.000375479
-0.00072213
0.023107
0.0196869
0.0158937
0.0119848
0.00829104
0.00496106
0.00235552
0.000576892
-0.000234111
-0.000548378
0.0228033
0.0193984
0.0156758
0.0118433
0.00825726
0.00503156
0.00250752
0.000772448
-6.23773e-05
-0.000381375
0.0227003
0.0192551
0.0155922
0.0118226
0.00832899
0.00518814
0.00272461
0.00101097
0.00013252
-0.000224146
0.0227673
0.0192458
0.0156325
0.0119105
0.00849291
0.005418
0.00299476
0.00128248
0.000343468
-7.82671e-05
0.0229664
0.0193461
0.0157746
0.0120868
0.00873016
0.00570523
0.00330461
0.00157698
0.000563888
5.58312e-05
0.0232699
0.019536
0.0160006
0.0123362
0.00902584
0.006037
0.00364306
0.00188609
0.000788424
0.000178419
0.02366
0.0198045
0.0162992
0.0126491
0.00936949
0.00640372
0.00400138
0.0022032
0.00101306
0.000290248
0.0241182
0.0201395
0.0166566
0.0130149
0.0097503
0.00679604
0.00437193
0.00252302
0.001235
0.00039235
0.0246291
0.0205324
0.0170609
0.0134245
0.0101591
0.00720608
0.00474869
0.00284163
0.00145252
0.000485867
0.0251784
0.0209766
0.0175005
0.0138693
0.0105883
0.00762727
0.00512714
0.0031563
0.00166478
0.000571945
0.0257443
0.0214608
0.0179621
0.0143396
0.011031
0.00805391
0.00550389
0.00346526
0.00187159
0.000651756
0.0263167
0.0219926
0.0184517
0.014839
0.0114901
0.00848722
0.00587973
0.00376906
0.00207387
0.000726659
0.0269683
0.0226567
0.0190253
0.0154069
0.0119937
0.0089441
0.00626424
0.00407262
0.00227443
0.000797254
0.0275054
0.0233313
0.0195811
0.0159628
0.0124889
0.00938624
0.00663591
0.00436432
0.00246941
0.000859021
0.0267288
0.02365
0.0200824
0.0166497
0.0132513
0.0101522
0.0073582
0.00496537
0.00288764
0.000997689
0.0262883
0.0232564
0.019867
0.0166698
0.0134681
0.0105346
0.00782254
0.0054323
0.00325371
0.00116355
0.0267434
0.0236715
0.0202743
0.0171258
0.0139406
0.0110219
0.00828417
0.00584946
0.00357495
0.00132422
0.027544
0.0242858
0.02081
0.0176339
0.014424
0.0114837
0.00870035
0.00622135
0.00387946
0.00150111
0.0287745
0.0251982
0.0215512
0.0182535
0.0149557
0.0119442
0.00909724
0.00658039
0.0041929
0.00170025
0.030356
0.0263872
0.0225002
0.0189934
0.0155578
0.0124327
0.00950992
0.00694463
0.00451265
0.0019006
0.032127
0.0277605
0.0235863
0.0198148
0.0162148
0.0129533
0.00994751
0.00730551
0.00478407
0.00201833
0.033906
0.0290452
0.0246032
0.0206033
0.0168684
0.013484
0.0103864
0.0076113
0.00492325
0.00199001
0.03524
0.0301596
0.0254956
0.0212777
0.0174199
0.0139325
0.0107415
0.00780325
0.00491494
0.00185009
0.0362227
0.030703
0.0258816
0.0215912
0.0177054
0.0141866
0.0109462
0.00789841
0.00487725
0.00174114
0.0287873
0.0285027
0.0290174
0.0298794
0.0313069
0.0330911
0.0350885
0.0372176
0.0388215
0.0401306
0.0292387
0.0292924
0.0299819
0.0309866
0.0325827
0.034503
0.0366267
0.0388121
0.0404985
0.0417121
0.0294127
0.0298154
0.0308005
0.0321049
0.0339789
0.0361271
0.0384433
0.0406745
0.0423956
0.0433861
0.02972
0.0303581
0.0315689
0.0331548
0.0352828
0.0376585
0.0401845
0.0425386
0.0443416
0.0452607
0.0301418
0.0310338
0.0324327
0.0342456
0.0365732
0.0391364
0.0418489
0.0443645
0.0462961
0.0472872
0.0305934
0.0317877
0.0334077
0.0354398
0.0379477
0.0406769
0.0435507
0.0462218
0.048289
0.0494
0.0310666
0.0325726
0.0344539
0.0367247
0.0394268
0.042331
0.0453627
0.0481741
0.0503592
0.0515727
0.0315829
0.033388
0.0355519
0.0380737
0.0409893
0.0440896
0.0472924
0.0502412
0.0525269
0.0538101
0.0321537
0.0342425
0.0367032
0.0394746
0.0426168
0.0459294
0.0493196
0.0524135
0.0547942
0.0561255
0.032781
0.0351333
0.0379107
0.0409232
0.0443021
0.0478356
0.0514262
0.0546759
0.0571553
0.0585272
0.0334668
0.0360469
0.0391715
0.0424115
0.0460419
0.049801
0.0536039
0.0570196
0.0596057
0.0610176
0.034209
0.0369653
0.0404755
0.0439262
0.0478285
0.0518183
0.0558473
0.0594402
0.0621432
0.0635966
0.0349868
0.0378769
0.041798
0.0454554
0.0496486
0.0538845
0.0581548
0.0619386
0.0647715
0.0662685
0.0357629
0.0387802
0.0431056
0.0469922
0.0514852
0.0559918
0.0605182
0.0645158
0.0674975
0.069043
0.0364883
0.0396814
0.0443503
0.0485421
0.0533377
0.0581377
0.0629378
0.0671653
0.0703091
0.071914
0.0370872
0.0406016
0.0455499
0.0500622
0.0551664
0.0602861
0.065388
0.069869
0.073195
0.0748756
0.037555
0.0414948
0.0466759
0.0515242
0.0569566
0.0624293
0.0678664
0.072629
0.0761588
0.0779343
0.0378828
0.0422967
0.0476815
0.0528839
0.0586582
0.0645134
0.0703233
0.0754116
0.0791846
0.0810848
0.0380567
0.0430265
0.0486032
0.054186
0.0603233
0.0665899
0.0727981
0.0782408
0.0822859
0.0843449
0.0378649
0.0434516
0.0491943
0.0551411
0.0616417
0.068359
0.075048
0.0809625
0.0853912
0.0876871
0.0391464
0.0462198
0.052353
0.0590144
0.0662115
0.0737554
0.0813026
0.0880896
0.0932596
0.096056
0.0465485
0.0534543
0.0600225
0.0678348
0.0762659
0.0851687
0.0940495
0.102
0.108026
0.111234
0.0546663
0.0620691
0.0695289
0.0786608
0.0884238
0.0987968
0.108988
0.117975
0.124703
0.128297
0.0632357
0.0715072
0.0802984
0.090938
0.102213
0.114225
0.125706
0.135652
0.142954
0.146734
0.0722459
0.0816552
0.0920018
0.10425
0.117168
0.130878
0.143573
0.154405
0.162154
0.166237
0.0818961
0.0925244
0.104573
0.118465
0.133089
0.148433
0.162238
0.173838
0.181735
0.18549
0.0916222
0.103589
0.117242
0.132671
0.148945
0.165684
0.180503
0.192685
0.200441
0.204251
0.101227
0.114238
0.12935
0.146238
0.164089
0.182023
0.197977
0.210798
0.218032
0.219691
0.107971
0.122102
0.138344
0.156346
0.175395
0.194217
0.211238
0.224484
0.23093
0.233965
0.113165
0.127687
0.144708
0.163548
0.183526
0.203289
0.221961
0.237887
0.246964
0.233127
0.0370184
0.0438951
0.0510405
0.0589438
0.0670731
0.0761966
0.0850444
0.0944038
0.100389
0.105541
0.0364604
0.0437027
0.0506247
0.0583079
0.0661353
0.0749754
0.0834039
0.0924376
0.0978019
0.102801
0.0363854
0.0440378
0.0509538
0.0585694
0.066256
0.0748316
0.0828592
0.0913298
0.0959814
0.100575
0.0361765
0.0439496
0.0508575
0.0584112
0.065986
0.0743544
0.0820511
0.0900749
0.0943102
0.0984871
0.0359026
0.043615
0.0505018
0.0579161
0.0653311
0.0734679
0.0808583
0.08855
0.092597
0.0964626
0.0356264
0.0432725
0.0501163
0.0574053
0.0646455
0.0725149
0.0796078
0.0869964
0.0909324
0.0945748
0.0353408
0.04295
0.0497659
0.0569557
0.0640847
0.0716952
0.0785377
0.0856169
0.0894627
0.0929115
0.0350455
0.0426311
0.0494484
0.0565599
0.0636201
0.0710289
0.0777131
0.0844637
0.0882732
0.0915129
0.0347554
0.0423262
0.049164
0.0562242
0.0632285
0.0704976
0.0770826
0.0835397
0.0873661
0.0903755
0.0344901
0.0420556
0.0489258
0.0559621
0.0629209
0.0700994
0.0766051
0.0828525
0.0866888
0.0895083
0.0342687
0.0418342
0.048748
0.0557854
0.0627181
0.0698405
0.0762853
0.0823953
0.0862222
0.088914
0.0340853
0.0416537
0.0486294
0.055693
0.0626267
0.069726
0.0761385
0.0821609
0.0859733
0.0885857
0.0339162
0.0414951
0.0485591
0.0556763
0.0626431
0.0697583
0.0761734
0.082148
0.085955
0.0885155
0.033749
0.0413537
0.0485332
0.0557303
0.0627633
0.0699358
0.0763882
0.0823536
0.0861678
0.0886961
0.0335692
0.0412323
0.0485487
0.0558515
0.0629863
0.0702568
0.0767827
0.082779
0.0866129
0.0891244
0.0333504
0.0411277
0.048593
0.056029
0.0633027
0.0707067
0.0773443
0.0834091
0.0872733
0.0897959
0.0330578
0.041034
0.0486532
0.0562562
0.0637108
0.0712883
0.0780839
0.0842491
0.0881573
0.0907139
0.0326377
0.0409167
0.0486882
0.0564911
0.0641623
0.0719486
0.0789516
0.0852546
0.0892245
0.0918751
0.0321034
0.0408152
0.0487407
0.0567778
0.0647081
0.0727424
0.0799988
0.0864642
0.0905173
0.09329
0.0311405
0.0404044
0.0485197
0.0568155
0.0650319
0.0733597
0.0809621
0.0876974
0.091911
0.0949469
0.032113
0.0417984
0.0501057
0.0588044
0.0675796
0.0763915
0.0845975
0.0917252
0.0963488
0.0996232
0.0393677
0.0484542
0.0566596
0.0660353
0.0756609
0.0854901
0.0948011
0.102794
0.10813
0.111281
0.0472297
0.0565868
0.0654862
0.0759747
0.0867691
0.0980404
0.108761
0.117944
0.12409
0.12733
0.055143
0.0652364
0.075475
0.0875631
0.100086
0.113451
0.126126
0.137131
0.144689
0.148562
0.0630253
0.0742469
0.0862117
0.1002
0.114947
0.130981
0.146268
0.160071
0.170176
0.175721
0.0710456
0.0836081
0.0975987
0.113698
0.131121
0.150281
0.168985
0.186953
0.2017
0.211407
0.0785296
0.0926815
0.108622
0.126938
0.147302
0.169805
0.192979
0.217044
0.239558
0.258537
0.0858751
0.101325
0.119152
0.139744
0.163081
0.189231
0.218149
0.250684
0.286314
0.324903
0.0896299
0.106062
0.125212
0.14748
0.173475
0.203727
0.239797
0.284097
0.34131
0.415041
0.0930233
0.111279
0.132
0.156387
0.185724
0.2213
0.266079
0.325695
0.41364
0.535842
0.0297918
0.036418
0.0428788
0.0499447
0.0567116
0.0642283
0.0704689
0.0775448
0.0808618
0.0828637
0.0291119
0.0357311
0.0420683
0.0487783
0.0551197
0.0623247
0.0680471
0.0749037
0.0778188
0.0802134
0.0288974
0.0355752
0.0419067
0.0483957
0.0544586
0.0612807
0.0665673
0.0729668
0.0753865
0.0787669
0.0286894
0.035188
0.0413359
0.0476145
0.0534243
0.0598907
0.0648146
0.0707699
0.0728012
0.0766711
0.0285188
0.0346505
0.0404698
0.0465056
0.0519916
0.0580788
0.0626457
0.0682162
0.0699267
0.0737194
0.0284164
0.0341053
0.0395787
0.0453051
0.0504756
0.0561401
0.0603382
0.0655496
0.0669583
0.0703931
0.0283715
0.0335813
0.038727
0.0440839
0.049021
0.0542534
0.058112
0.0629804
0.0641129
0.0671688
0.028383
0.033077
0.037891
0.0428939
0.0475714
0.0524271
0.0560369
0.0605566
0.0614996
0.0642581
0.028455
0.0326025
0.0370627
0.041733
0.0461256
0.050635
0.0540869
0.058219
0.059143
0.0616484
0.0285862
0.032174
0.0362547
0.0405972
0.0446991
0.0489038
0.0521832
0.0559397
0.0570263
0.0592351
0.0260619
0.0270103
0.0275393
0.0280439
0.0284777
0.028824
0.0290815
0.0292533
0.0293506
0.0292554
0.0260413
0.0270868
0.0276048
0.0280598
0.0284118
0.02865
0.0287804
0.0288105
0.0287606
0.028568
0.026094
0.0271955
0.0276835
0.0280699
0.0283222
0.0284379
0.0284319
0.0283207
0.028143
0.0278675
0.0262451
0.0273527
0.0277928
0.0280953
0.0282364
0.028223
0.0280794
0.0278306
0.027527
0.0271459
0.0265184
0.0275766
0.0279527
0.0281599
0.0281846
0.0280429
0.0277674
0.0273903
0.0269666
0.0264698
0.0269338
0.0278852
0.0281835
0.0282884
0.0281964
0.0279321
0.0275346
0.0270414
0.0265062
0.0258961
0.0275051
0.0282943
0.0285034
0.0285019
0.0282956
0.0279167
0.027409
0.0268124
0.0261761
0.0254659
0.0282388
0.0288155
0.0289257
0.0288149
0.0284976
0.0280124
0.0274053
0.0267172
0.0259912
0.0252005
0.0291306
0.0294531
0.0294556
0.0292327
0.0288074
0.0282227
0.0275257
0.0267568
0.0259507
0.025079
0.0301549
0.030197
0.0300863
0.0297494
0.0292185
0.0285404
0.027762
0.0269213
0.0260456
0.0251139
0.0312593
0.0310204
0.0307992
0.0303489
0.0297154
0.0289497
0.0280971
0.0271929
0.0262586
0.0252851
0.0324649
0.031924
0.0315802
0.0310117
0.0302766
0.0294277
0.0285081
0.0275485
0.0265671
0.025566
0.0337173
0.0328668
0.0323954
0.0317078
0.0308742
0.0299485
0.0289694
0.0279632
0.0269467
0.0259311
0.0349594
0.0338064
0.0332076
0.0324037
0.0314778
0.0304833
0.029454
0.0284112
0.0273719
0.0263552
0.0361368
0.034699
0.0339777
0.0330648
0.032056
0.0310035
0.0299351
0.028867
0.0278181
0.0268149
0.0371945
0.0354995
0.0346664
0.033657
0.0325791
0.0314822
0.0303877
0.0293068
0.0282623
0.0272883
0.0380798
0.0361641
0.035237
0.0341498
0.0330205
0.0318957
0.0307904
0.0297105
0.0286835
0.027753
0.0387457
0.036654
0.0356578
0.0345174
0.0333588
0.0322255
0.0311268
0.0300619
0.0290605
0.0281804
0.0391533
0.0369372
0.0359037
0.0347407
0.033579
0.0324592
0.0313848
0.0303447
0.0293643
0.0285386
0.0392741
0.0369903
0.0359572
0.0348077
0.0336742
0.0325935
0.0315628
0.0305552
0.029589
0.0288277
0.0390895
0.0367989
0.0358077
0.0347126
0.0336447
0.032641
0.031702
0.0308084
0.0299986
0.0294747
0.0385869
0.0363548
0.03545
0.0344506
0.0334828
0.0325834
0.0317549
0.0309839
0.0302986
0.029842
0.0377736
0.035664
0.0348878
0.0340224
0.0331855
0.0324121
0.0317064
0.0310591
0.030485
0.0300648
0.0366699
0.0347419
0.0341325
0.0334365
0.032759
0.0321342
0.0315688
0.0310582
0.0306093
0.0302705
0.0353076
0.0336127
0.0332031
0.0327082
0.0322169
0.031763
0.0313571
0.0309984
0.0306894
0.030464
0.0337281
0.0323087
0.0321252
0.0318584
0.0315773
0.031315
0.031086
0.0308936
0.0307376
0.0306422
0.0319805
0.0308677
0.030929
0.0309119
0.0308614
0.0308084
0.0307717
0.0307587
0.0307688
0.0308184
0.0301175
0.0293307
0.0296473
0.0298951
0.0300909
0.030262
0.0304303
0.030608
0.030796
0.0310064
0.0281933
0.0277389
0.0283133
0.0288344
0.0292873
0.029693
0.0300762
0.0304533
0.0308289
0.0312135
0.0262753
0.0261371
0.0269604
0.0277549
0.0284699
0.0291166
0.0297212
0.0303037
0.0308732
0.0314429
0.0244548
0.0245834
0.025628
0.0266842
0.0276584
0.0285471
0.0293753
0.0301658
0.0309322
0.0316945
0.0226732
0.0230709
0.0243265
0.0256344
0.0268627
0.0279913
0.0290426
0.0300409
0.031003
0.0319612
0.0209826
0.0216364
0.0230799
0.0246221
0.0260937
0.0274555
0.0287255
0.0299277
0.031079
0.0322284
0.0194272
0.0203103
0.021905
0.0236608
0.025359
0.0269427
0.028423
0.0298223
0.0311514
0.0324731
0.0180277
0.019108
0.0208214
0.0227582
0.0246631
0.0264534
0.028132
0.0297195
0.0312177
0.0326679
0.016796
0.0180388
0.0198393
0.0219237
0.0240082
0.0259867
0.0278483
0.0296123
0.0312887
0.0327879
0.0157392
0.0171105
0.0189644
0.0211605
0.0233961
0.0255413
0.0275697
0.0294873
0.0312795
0.0329588
0.0148591
0.0163263
0.0182001
0.020471
0.0228265
0.0251151
0.0272945
0.0293603
0.031273
0.0330474
0.0141523
0.0156853
0.0175478
0.019856
0.0222981
0.024705
0.0270192
0.0292308
0.0312779
0.0331166
0.0136127
0.0151838
0.0170066
0.0193153
0.0218086
0.024305
0.0267315
0.0290767
0.031291
0.0332513
0.0132289
0.0148142
0.0165727
0.0188464
0.0213543
0.0239101
0.0264287
0.0289086
0.0314178
0.0338652
0.0129707
0.0145606
0.016239
0.0184468
0.0209307
0.0235036
0.0260632
0.0285787
0.0311064
0.0335509
0.0128425
0.0144213
0.0160042
0.018117
0.0205387
0.0230854
0.0256392
0.0281406
0.0306168
0.0329982
0.012836
0.0143883
0.0158643
0.0178589
0.0201871
0.0226747
0.0251966
0.0276797
0.030132
0.0324797
0.0129373
0.0144508
0.0158141
0.0176742
0.0198853
0.0222895
0.0247612
0.0272194
0.0296561
0.0319875
0.0131323
0.0145978
0.0158472
0.0175632
0.0196398
0.0219408
0.0243447
0.0267644
0.0291776
0.0314982
0.013408
0.0148185
0.0159565
0.0175243
0.0194543
0.021636
0.0239564
0.0263245
0.0287048
0.0310137
0.0137513
0.0151017
0.0161337
0.017554
0.0193307
0.0213812
0.0236049
0.02591
0.0282493
0.0305429
0.0141504
0.0154366
0.0163699
0.0176473
0.0192686
0.0211798
0.0232964
0.0255286
0.0278193
0.0300941
0.0145994
0.0158169
0.0166583
0.0177993
0.0192663
0.0210334
0.0230343
0.0251849
0.0274203
0.0296736
0.0151006
0.016246
0.0170014
0.0180125
0.0193273
0.0209466
0.0228242
0.0248843
0.0270569
0.0292851
0.0156135
0.0166904
0.0173711
0.0182651
0.0194368
0.0209109
0.0226617
0.0246251
0.0267276
0.0289238
0.0161391
0.0171504
0.0177652
0.0185536
0.0195914
0.0209237
0.0225454
0.0244058
0.0264295
0.0285819
0.0166757
0.0176234
0.0181796
0.0188729
0.0197861
0.0209812
0.0224725
0.0242239
0.026159
0.0282531
0.0172182
0.0181041
0.0186082
0.0192164
0.0200151
0.0210792
0.0224402
0.0240772
0.0259131
0.0279308
0.0177626
0.0185884
0.0190458
0.0195787
0.0202731
0.0212135
0.0224462
0.0239646
0.0256899
0.027608
0.0183061
0.0190733
0.0194889
0.019955
0.0205556
0.0213806
0.0224889
0.023887
0.0254912
0.0272806
0.0188469
0.0195568
0.0199346
0.0203419
0.0208587
0.0215779
0.0225678
0.023848
0.0253261
0.0269539
0.0193839
0.0200377
0.0203811
0.0207368
0.0211797
0.0218028
0.0226824
0.0238525
0.0252148
0.0266605
0.0199167
0.0205152
0.0208274
0.0211383
0.0215167
0.0220546
0.0228325
0.0238999
0.0251808
0.0264746
0.020446
0.0209892
0.0212728
0.0215447
0.0218681
0.0223342
0.0230295
0.0240364
0.0254362
0.0271218
0.0209742
0.0214593
0.0217164
0.0219553
0.0222318
0.0226323
0.023241
0.0241349
0.025406
0.0269601
0.0215007
0.0219262
0.0221591
0.0223701
0.0226062
0.0229456
0.0234654
0.0242318
0.0253206
0.02667
0.0220252
0.0223896
0.0226008
0.0227892
0.0229927
0.0232796
0.0237202
0.0243766
0.0253151
0.0264874
0.0225468
0.0228489
0.0230413
0.0232128
0.0233922
0.0236374
0.0240115
0.0245732
0.0253814
0.0263999
0.0230632
0.0233027
0.0234798
0.0236405
0.0238047
0.0240194
0.0243394
0.0248182
0.0255073
0.0263887
0.0235706
0.0237487
0.0239149
0.0240718
0.0242299
0.0244253
0.0247039
0.0251122
0.0256944
0.0264518
0.0240635
0.0241834
0.0243443
0.024505
0.0246667
0.0248545
0.0251047
0.0254561
0.0259448
0.02659
0.0245333
0.0246026
0.0247647
0.0249375
0.025113
0.0253053
0.0255404
0.0258489
0.0262584
0.0268021
0.0249683
0.0250005
0.0251713
0.0253657
0.0255657
0.0257744
0.0260079
0.026288
0.026633
0.0270849
)
;

boundaryField
{
    inlet
    {
        type            zeroGradient;
    }
    outlet
    {
        type            fixedValue;
        value           uniform 0;
    }
    cylinder
    {
        type            zeroGradient;
    }
    top
    {
        type            symmetryPlane;
    }
    bottom
    {
        type            symmetryPlane;
    }
    defaultFaces
    {
        type            empty;
    }
}


// ************************************************************************* //
