/*--------------------------------*- C++ -*----------------------------------*\
  =========                 |
  \\      /  F ield         | OpenFOAM: The Open Source CFD Toolbox
   \\    /   O peration     | Website:  https://openfoam.org
    \\  /    A nd           | Version:  7
     \\/     M anipulation  |
\*---------------------------------------------------------------------------*/
FoamFile
{
    version     2.0;
    format      ascii;
    class       volVectorField;
    location    "57";
    object      U;
}
// * * * * * * * * * * * * * * * * * * * * * * * * * * * * * * * * * * * * * //

dimensions      [0 1 -1 0 0 0 0];

internalField   nonuniform List<vector> 
2000
(
(-0.000444426 -0.00864253 -6.15517e-22)
(-0.00115153 -0.0152606 0)
(-0.00123879 -0.0155975 0)
(-8.73921e-05 -0.0112983 -3.06068e-21)
(0.00231633 -0.0032013 9.55432e-22)
(0.00589844 0.00821477 1.61983e-23)
(0.0105101 0.0225706 -1.64686e-21)
(0.0159211 0.0394392 0)
(0.0217663 0.0582629 0)
(0.0276829 0.0783035 0)
(2.58191e-05 -0.0080222 0)
(-0.000380642 -0.0148048 -2.38098e-21)
(-0.000629679 -0.015835 2.19575e-21)
(1.5559e-05 -0.0125466 4.07609e-21)
(0.0016382 -0.00568934 0)
(0.00423727 0.00433796 3.6083e-21)
(0.00774665 0.0172584 -3.35542e-21)
(0.0120212 0.0327758 0)
(0.0167546 0.0504808 6.04365e-21)
(0.0215849 0.0698054 -1.16552e-20)
(0.000452982 -0.00729662 0)
(0.000553559 -0.0141759 1.92794e-20)
(0.000481993 -0.0158318 0)
(0.000963225 -0.0134996 1.67718e-20)
(0.00211543 -0.00786326 0)
(0.00398507 0.000728165 -1.47348e-20)
(0.00657178 0.0120763 0)
(0.00981169 0.026011 1.30153e-20)
(0.0134756 0.0422942 -1.21894e-20)
(0.0171767 0.0605758 -1.19232e-20)
(0.000858829 -0.00653815 -5.08853e-21)
(0.00172374 -0.0134608 -9.57528e-21)
(0.00222318 -0.0156255 -4.49024e-21)
(0.00293878 -0.0141133 -8.27304e-21)
(0.00399268 -0.00956758 -7.85011e-21)
(0.00545505 -0.00233073 7.26151e-21)
(0.00736967 0.00744098 6.94906e-21)
(0.0097432 0.0196781 5.2008e-23)
(0.0124411 0.0343184 1.24147e-20)
(0.0150304 0.0512615 1.19243e-20)
(0.00128767 -0.00582987 -5.10544e-21)
(0.00322593 -0.0127563 -9.8216e-21)
(0.00472664 -0.0152659 -1.84293e-20)
(0.00611109 -0.0143578 8.46698e-21)
(0.00748369 -0.0106683 0)
(0.00891664 -0.00456795 0)
(0.0104813 0.00378207 -1.42917e-20)
(0.012236 0.0143662 -1.34837e-20)
(0.0141567 0.027278 1.27865e-20)
(0.0157694 0.0426679 3.68103e-20)
(0.00180496 -0.00525169 5.14212e-21)
(0.0051708 -0.0121542 5.00415e-21)
(0.00811415 -0.014808 -2.76768e-20)
(0.0106038 -0.0142334 4.32671e-20)
(0.0127204 -0.0110841 -8.02429e-21)
(0.0145293 -0.00578279 0)
(0.0161142 0.0014567 0)
(0.0175678 0.0106132 6.82407e-20)
(0.0189875 0.0218899 -6.42539e-20)
(0.0199087 0.0356468 1.22482e-20)
(0.00249397 -0.00486973 4.08944e-20)
(0.0076729 -0.0117256 0)
(0.012475 -0.0143068 3.68593e-20)
(0.0164672 -0.0137732 -3.45806e-20)
(0.0197128 -0.0108066 0)
(0.0222748 -0.0058992 1.55141e-20)
(0.024246 0.000652943 -4.35996e-20)
(0.0257429 0.00876527 -5.50293e-20)
(0.0269852 0.0186783 2.59109e-20)
(0.0276153 0.0308903 2.4948e-20)
(0.00344638 -0.00472022 -8.16924e-20)
(0.0108383 -0.01151 -9.98366e-21)
(0.0178511 -0.0138065 -1.86376e-20)
(0.023656 -0.0130339 -4.36224e-20)
(0.0283183 -0.00991153 -1.65724e-20)
(0.0319156 -0.00499982 -1.5677e-20)
(0.0345597 0.00131784 -1.2342e-22)
(0.0363867 0.00885373 0)
(0.0377332 0.0178053 0)
(0.0384828 0.0287226 2.1758e-22)
(0.00474848 -0.00480434 4.07988e-20)
(0.0147451 -0.0115034 -3.97421e-20)
(0.024222 -0.0133254 2.78093e-20)
(0.0320185 -0.0120856 6.13445e-20)
(0.038237 -0.00854761 -1.63379e-20)
(0.042998 -0.00332332 1.56116e-20)
(0.0464507 0.00314064 1.47405e-20)
(0.0487483 0.0105614 0)
(0.0503026 0.0190526 0)
(0.0513716 0.0290923 -2.1596e-22)
(0.00647411 -0.00508845 -5.0762e-21)
(0.0194264 -0.0116489 4.97896e-20)
(0.03149 -0.0128482 -9.25941e-21)
(0.0412929 -0.0109985 0)
(0.0490265 -0.00691379 0)
(0.0549018 -0.00123559 3.10779e-20)
(0.0591467 0.00557381 0)
(0.0619555 0.0132134 -2.77399e-20)
(0.0637022 0.0217626 -2.69542e-22)
(0.064828 0.0314749 2.50593e-20)
(0.0424696 0.12412 4.64587e-22)
(0.0590164 0.198654 -4.7018e-22)
(0.0615222 0.2569 -5.49862e-22)
(0.058123 0.311437 -6.15472e-22)
(0.0500651 0.370593 -7.2179e-22)
(0.0441437 0.438125 -1.89173e-23)
(0.0305414 0.515503 3.79666e-22)
(0.0268122 0.606389 1.29101e-21)
(0.00420659 0.726036 0)
(0.00873228 0.865952 -9.33008e-22)
(0.0342157 0.115421 1.72955e-21)
(0.0528876 0.193388 -2.06312e-21)
(0.0573015 0.255381 3.71115e-21)
(0.0549854 0.311737 6.1653e-22)
(0.047609 0.371709 1.31863e-21)
(0.0421793 0.439761 2.19288e-21)
(0.0291999 0.517634 -8.01962e-22)
(0.0256983 0.609031 -8.63915e-22)
(0.00403331 0.728564 1.71892e-21)
(0.00823951 0.867401 9.30791e-22)
(0.0268497 0.105384 0)
(0.0470156 0.186091 -1.95623e-21)
(0.0534132 0.252323 -1.08471e-21)
(0.0521914 0.310845 0)
(0.0454454 0.371766 -4.03421e-21)
(0.0404747 0.440434 1.2858e-21)
(0.0280437 0.518905 1.41606e-21)
(0.0247234 0.610925 4.78519e-21)
(0.00392329 0.730696 -1.71337e-21)
(0.00779402 0.868655 3.43748e-21)
(0.0209118 0.0945118 0)
(0.0413973 0.176713 1.97281e-21)
(0.0498439 0.24765 0)
(0.0497184 0.308715 4.84067e-21)
(0.0435599 0.370739 -4.86562e-21)
(0.0390145 0.440081 -2.83487e-21)
(0.0270609 0.519154 -1.3305e-22)
(0.0238952 0.611802 -4.69246e-21)
(0.00388022 0.731986 -7.75835e-22)
(0.00737373 0.86951 -4.23919e-21)
(0.0172338 0.083497 2.59715e-22)
(0.0361137 0.165356 -5.65288e-21)
(0.0465772 0.241297 2.77804e-22)
(0.0475383 0.305317 -4.38642e-21)
(0.0419343 0.368703 0)
(0.0377746 0.438888 -2.74546e-21)
(0.0262288 0.51873 -1.67685e-22)
(0.0231846 0.612223 6.00083e-21)
(0.00387027 0.733083 7.86754e-22)
(0.00699065 0.870278 -7.89572e-22)
(0.0168137 0.0731524 -1.55074e-20)
(0.0314023 0.152396 9.88853e-21)
(0.0435993 0.233226 4.33313e-21)
(0.0456305 0.300569 -4.33077e-21)
(0.0405595 0.365506 -2.37137e-21)
(0.0367507 0.43653 0)
(0.0255497 0.517067 -5.50668e-21)
(0.0226096 0.611321 2.73607e-21)
(0.00392213 0.73299 2.9364e-21)
(0.00661676 0.870555 3.01821e-21)
(0.0204477 0.0642891 -1.94257e-21)
(0.0277247 0.138553 0)
(0.0409007 0.223436 0)
(0.0439623 0.294594 0)
(0.0394165 0.361578 -2.49337e-21)
(0.0359135 0.433794 4.85718e-21)
(0.0249902 0.515345 5.40661e-21)
(0.0221043 0.610673 -8.30223e-21)
(0.00396111 0.733342 1.44722e-21)
(0.00628476 0.870971 -4.42254e-21)
(0.0282555 0.0574335 1.21082e-20)
(0.0257646 0.124824 8.41357e-21)
(0.0385363 0.211991 -8.33779e-21)
(0.0425356 0.286904 9.02367e-21)
(0.0384892 0.355897 -1.12174e-20)
(0.035278 0.429119 0)
(0.0245825 0.511445 -2.51406e-21)
(0.0217579 0.607688 8.58526e-23)
(0.00409705 0.731683 -2.687e-21)
(0.00594267 0.870693 -2.75754e-21)
(0.0393132 0.0523534 -1.04222e-20)
(0.026304 0.111675 0)
(0.036556 0.199498 -9.67932e-21)
(0.0413426 0.27915 1.74508e-20)
(0.0377957 0.35114 -6.52349e-21)
(0.0347805 0.42603 -1.17296e-21)
(0.0242379 0.509547 2.50873e-21)
(0.0213788 0.60695 9.4486e-24)
(0.00412274 0.731942 3.9113e-21)
(0.00565708 0.870954 4.02804e-21)
(0.0514111 0.0493361 -8.70687e-21)
(0.030045 0.0989166 8.50227e-21)
(0.0354417 0.182887 1.06454e-21)
(0.0402406 0.265627 0)
(0.0372017 0.34043 0)
(0.034543 0.417033 1.13534e-21)
(0.0241301 0.50183 4.69717e-21)
(0.0213135 0.60077 -4.56037e-21)
(0.00438509 0.728117 -1.18637e-21)
(0.00533138 0.870108 1.14975e-21)
(0.0698638 0.0587886 0)
(0.0410291 0.0952362 0)
(0.0372454 0.171623 0)
(0.0404861 0.260399 0)
(0.036724 0.340085 0)
(0.0336093 0.419031 0)
(0.02342 0.504467 0)
(0.0202068 0.604329 0)
(0.00410082 0.731261 0)
(0.00477441 0.871043 0)
(0.0850362 0.0887071 0)
(0.0597659 0.12341 0)
(0.0432534 0.18013 0)
(0.0416446 0.262934 0)
(0.0366032 0.344981 0)
(0.0316613 0.42624 0)
(0.0216846 0.513619 0)
(0.0183423 0.615305 0)
(0.00384455 0.74204 0)
(0.00417134 0.877561 0)
(0.089606 0.101023 0)
(0.0737283 0.144801 0)
(0.0530076 0.194068 0)
(0.0449992 0.268807 0)
(0.0393422 0.350573 0)
(0.0335988 0.431941 0)
(0.0228905 0.518973 0)
(0.0181931 0.62049 0)
(0.00419565 0.746383 0)
(0.00386186 0.878502 0)
(0.087193 0.106422 0)
(0.0797654 0.160636 0)
(0.0615737 0.209975 0)
(0.0485669 0.278872 0)
(0.0396504 0.359653 0)
(0.0327448 0.442 0)
(0.0225097 0.530044 0)
(0.017614 0.632636 0)
(0.00457955 0.757992 0)
(0.00361117 0.885755 0)
(0.0809745 0.107359 0)
(0.0794194 0.170804 0)
(0.0666214 0.223522 0)
(0.0539999 0.288634 0)
(0.04431 0.367423 0)
(0.0357612 0.448791 0)
(0.024298 0.535346 0)
(0.0181476 0.636719 0)
(0.00522706 0.761079 0)
(0.00351669 0.886153 0)
(0.0712556 0.105524 0)
(0.0738706 0.176549 0)
(0.0662215 0.235708 0)
(0.0541368 0.300635 0)
(0.0436369 0.378549 0)
(0.0351177 0.461015 0)
(0.0242942 0.548747 0)
(0.0180714 0.650705 0)
(0.00590351 0.773783 0)
(0.00345601 0.894458 0)
(0.0591981 0.100849 0)
(0.0653052 0.176428 0)
(0.0645238 0.242248 0)
(0.0575502 0.310121 0)
(0.0477121 0.387391 0)
(0.0378077 0.467853 0)
(0.0257753 0.55335 0)
(0.0184472 0.653808 0)
(0.00629815 0.776032 0)
(0.00338678 0.894734 0)
(0.0459503 0.094144 0)
(0.0539695 0.172905 0)
(0.05606 0.244383 0)
(0.0523328 0.316896 0)
(0.0452616 0.397914 0)
(0.0371266 0.481917 0)
(0.0262646 0.569279 0)
(0.0188372 0.669952 0)
(0.00713456 0.790395 0)
(0.00340606 0.904601 0)
(0.0342188 0.0852778 0)
(0.0460283 0.166716 0)
(0.0538202 0.245311 0)
(0.0538953 0.322925 0)
(0.0474151 0.40435 0)
(0.0384473 0.486521 0)
(0.0269073 0.572104 0)
(0.0189588 0.671589 0)
(0.00733893 0.791609 0)
(0.00338221 0.904776 0)
(0.019511 0.0684735 0)
(0.0309257 0.148697 0)
(0.04153 0.23275 0)
(0.0469986 0.321024 0)
(0.0453006 0.412822 0)
(0.0389151 0.502186 0)
(0.0283805 0.590602 0)
(0.0198792 0.690037 0)
(0.00838885 0.807652 0)
(0.00347074 0.915965 0)
(0.0896114 0.0478538 7.65375e-21)
(0.0962929 0.0625126 -7.52501e-21)
(0.0951744 0.0662139 6.87991e-22)
(0.0897873 0.0661245 0)
(0.081416 0.0631329 0)
(0.0696467 0.0586514 2.16387e-22)
(0.0556039 0.0524674 -2.67273e-22)
(0.0406523 0.0448638 2.62954e-22)
(0.0274461 0.0366272 -2.62483e-23)
(0.0138774 0.0217059 2.58836e-23)
(0.0952001 0.0431749 -9.75162e-21)
(0.0970911 0.0517388 0)
(0.0936598 0.0517703 3.9313e-21)
(0.0871691 0.0493727 -7.88001e-21)
(0.0782658 0.0447108 3.95902e-21)
(0.066302 0.0390859 -2.1261e-22)
(0.0523159 0.0321806 1.76315e-22)
(0.0375693 0.0242275 3.23789e-23)
(0.0243031 0.0161882 -6.3101e-23)
(0.0117067 0.00210252 -5.01439e-23)
(0.0981971 0.0372758 1.09913e-20)
(0.0968217 0.0405911 -5.4488e-21)
(0.0920681 0.0375878 5.39623e-21)
(0.0848027 0.0330551 -3.10641e-21)
(0.0754224 0.0266775 2.42553e-21)
(0.0632004 0.0197955 0)
(0.0491919 0.0120205 -1.76717e-22)
(0.0346231 0.00369578 -7.27483e-24)
(0.0213063 -0.00422855 3.3812e-23)
(0.00931083 -0.017134 7.88978e-23)
(0.0994912 0.0293057 -1.69899e-21)
(0.0955277 0.0281239 0)
(0.089905 0.02269 0)
(0.0820862 0.0163808 0)
(0.072404 0.00851881 1.52023e-21)
(0.0600689 0.000560592 -9.3676e-22)
(0.0461401 -0.00797943 6.27705e-23)
(0.0318078 -0.0165615 4.15125e-23)
(0.0185924 -0.0244001 2.5859e-23)
(0.00755181 -0.03581 3.7162e-23)
(0.0991582 0.0193825 -8.9391e-22)
(0.0932395 0.0144977 -4.51147e-21)
(0.0871001 0.00707524 -1.90494e-21)
(0.0788973 -0.000691105 1.90351e-21)
(0.0690355 -0.00979469 -5.76133e-22)
(0.0567609 -0.0185999 0)
(0.0430173 -0.0277215 -1.50954e-22)
(0.029026 -0.036404 1.8193e-23)
(0.016146 -0.0440676 4.11165e-24)
(0.00597331 -0.0538454 -6.36621e-23)
(0.097454 0.00789131 -1.19931e-20)
(0.0901726 9.15685e-05 1.9589e-21)
(0.0837955 -0.00901534 5.03013e-22)
(0.0753589 -0.0179621 1.82976e-21)
(0.065439 -0.0281017 0)
(0.0533171 -0.0375323 0)
(0.0398619 -0.0470363 0)
(0.0263083 -0.0556649 3.27728e-23)
(0.0139405 -0.0630078 0)
(0.00461942 -0.0711517 0)
(0.094614 -0.00473574 0)
(0.086474 -0.0147115 3.47998e-21)
(0.0801151 -0.0253025 -2.25735e-21)
(0.0715383 -0.03518 -1.29276e-21)
(0.0616906 -0.0461613 1.29937e-21)
(0.0497756 -0.0560198 2.3561e-22)
(0.0367267 -0.0657329 -2.99417e-22)
(0.0237029 -0.0741565 -1.77793e-22)
(0.0119743 -0.081032 1.20017e-23)
(0.00352183 -0.0876238 2.40838e-23)
(0.090834 -0.0181 0)
(0.0823075 -0.0295784 -1.22358e-21)
(0.0760984 -0.0415039 -4.92787e-22)
(0.0674823 -0.0520667 0)
(0.0578167 -0.0637249 1.59533e-22)
(0.0462152 -0.073839 -5.92075e-22)
(0.0336549 -0.0836012 2.10769e-22)
(0.021246 -0.091688 -9.45872e-24)
(0.0102475 -0.0979777 -1.15294e-24)
(0.00265824 -0.103156 -3.07004e-23)
(0.0862529 -0.0318777 1.51427e-21)
(0.0777842 -0.0442101 1.08462e-21)
(0.0717736 -0.0573486 -3.57819e-22)
(0.0632555 -0.0683799 1.87742e-22)
(0.053874 -0.0805541 2.64587e-22)
(0.0426854 -0.0907711 2.49688e-22)
(0.0306841 -0.100437 -4.63862e-23)
(0.0189654 -0.108085 -1.87586e-23)
(0.00875254 -0.113712 1.15671e-24)
(0.00199242 -0.117654 -2.50693e-24)
(0.0810224 -0.0457361 -3.22971e-22)
(0.0729539 -0.0583661 3.26008e-22)
(0.0672389 -0.0726052 -2.44458e-22)
(0.0589297 -0.0839013 -1.87452e-22)
(0.049915 -0.0964345 1.10813e-22)
(0.039231 -0.106624 -1.97089e-22)
(0.0278493 -0.116065 6.37429e-23)
(0.0168808 -0.123206 1.27912e-24)
(0.00747518 -0.128138 0)
(0.00148811 -0.131041 2.51188e-24)
(0.075381 -0.0594129 3.25469e-22)
(0.0679504 -0.0718652 -3.28306e-22)
(0.0626062 -0.087082 -2.48758e-22)
(0.0546078 -0.0984576 -1.92898e-22)
(0.0460142 -0.111192 -1.1499e-22)
(0.0359101 -0.121251 2.16095e-23)
(0.0251874 -0.130354 3.65812e-23)
(0.0150051 -0.136959 4.83282e-23)
(0.00639635 -0.141204 0)
(0.00111131 -0.14327 -1.94517e-24)
(0.0695873 -0.0727237 0)
(0.0629481 -0.0845844 -1.10585e-21)
(0.058008 -0.100629 1.87097e-21)
(0.0504112 -0.11193 1.93178e-22)
(0.0422567 -0.1247 2.93437e-22)
(0.0327834 -0.134558 2.94557e-22)
(0.0227322 -0.14323 -5.63503e-23)
(0.0133432 -0.149308 -2.83272e-23)
(0.00549422 -0.152906 2.9724e-23)
(0.000831968 -0.154328 1.94031e-24)
(0.0638366 -0.0855452 0)
(0.0580764 -0.0964652 -1.25002e-21)
(0.053534 -0.113139 -5.08913e-22)
(0.0464226 -0.124261 0)
(0.0386994 -0.136889 -7.97877e-22)
(0.0298888 -0.146516 3.07314e-22)
(0.0205021 -0.154679 1.70939e-22)
(0.0118894 -0.160275 2.55589e-22)
(0.00474565 -0.163283 -2.96271e-23)
(0.00062507 -0.164239 2.25101e-23)
(0.0582667 -0.0977966 0)
(0.0534236 -0.107522 1.26035e-21)
(0.0492358 -0.124556 0)
(0.0426879 -0.135464 1.45108e-21)
(0.0353737 -0.147753 -1.45863e-21)
(0.0272405 -0.157158 -3.59634e-22)
(0.0185009 -0.164753 9.0382e-23)
(0.0106289 -0.169936 -2.6739e-22)
(0.00412802 -0.17242 -4.81717e-23)
(0.000470552 -0.173064 -3.56747e-23)
(0.0529901 -0.109429 1.24743e-20)
(0.0490703 -0.117846 -4.68888e-21)
(0.0451618 -0.134871 -4.54714e-22)
(0.0392408 -0.145615 -1.95519e-21)
(0.0323049 -0.157351 0)
(0.0248416 -0.166575 -3.8542e-22)
(0.0167246 -0.173556 1.41112e-22)
(0.00954222 -0.17841 4.20081e-22)
(0.00362076 -0.180434 1.57562e-23)
(0.000352798 -0.180895 -1.57271e-23)
(0.0480842 -0.120402 9.66791e-22)
(0.0450927 -0.127599 7.31736e-21)
(0.0413661 -0.144119 2.0288e-21)
(0.0361073 -0.15484 -2.02761e-21)
(0.0295177 -0.165793 -6.9847e-22)
(0.0226892 -0.174903 0)
(0.0151655 -0.181235 -6.10596e-22)
(0.00860889 -0.185848 3.25465e-22)
(0.00320652 -0.187468 1.55579e-22)
(0.00026007 -0.187852 3.92925e-23)
(0.0436247 -0.130648 -1.72696e-21)
(0.0415946 -0.137006 0)
(0.0379351 -0.152377 0)
(0.0333206 -0.163294 0)
(0.0270474 -0.173233 -5.37582e-22)
(0.0207833 -0.182299 1.23475e-21)
(0.0138173 -0.18796 6.31538e-22)
(0.00781142 -0.192412 -7.32621e-22)
(0.00287189 -0.193679 4.03566e-23)
(0.000183605 -0.194068 -7.88121e-23)
(0.0396359 -0.140036 -3.96316e-21)
(0.0386235 -0.146322 5.43825e-21)
(0.0349172 -0.159757 -5.38714e-21)
(0.0308692 -0.171135 3.47507e-21)
(0.0249019 -0.179853 -4.21223e-21)
(0.0191062 -0.188934 0)
(0.0126638 -0.193908 -3.90469e-22)
(0.00713024 -0.198269 -1.93731e-23)
(0.00260465 -0.199223 -1.37612e-22)
(0.000115375 -0.199686 -4.76245e-23)
(0.0355857 -0.148279 -1.86914e-21)
(0.0357012 -0.155784 0)
(0.0320285 -0.166414 -5.32783e-21)
(0.0284816 -0.178518 8.26905e-21)
(0.022911 -0.185856 -2.8386e-21)
(0.0175283 -0.194983 -2.97954e-22)
(0.0116251 -0.199263 3.89582e-22)
(0.0065169 -0.203578 4.72374e-23)
(0.00238186 -0.204256 2.86624e-22)
(4.91033e-05 -0.204848 9.41674e-23)
(0.0315484 -0.154722 -7.59809e-21)
(0.032681 -0.1656 7.41688e-21)
(0.0293624 -0.172604 6.88793e-22)
(0.0261564 -0.185616 0)
(0.0210697 -0.191488 0)
(0.0160459 -0.200651 3.07136e-22)
(0.0106866 -0.204224 7.23103e-22)
(0.0059611 -0.208503 -7.09387e-22)
(0.00219302 -0.208924 -5.27251e-23)
(8.53557e-06 -0.209694 5.15281e-23)
(0.0333077 -0.163371 0)
(0.032937 -0.18858 0)
(0.0291361 -0.186457 0)
(0.0250504 -0.201923 0)
(0.0199455 -0.204531 0)
(0.0147122 -0.213833 0)
(0.00977331 -0.215709 0)
(0.00534756 -0.219844 0)
(0.00205927 -0.219584 0)
(5.80852e-05 -0.220728 0)
(0.0249195 -0.200072 0)
(0.0205197 -0.224547 0)
(0.0188266 -0.217503 0)
(0.015133 -0.231624 0)
(0.0124723 -0.23017 0)
(0.00897562 -0.238197 0)
(0.00620496 -0.237494 0)
(0.00341464 -0.241044 0)
(0.00146943 -0.239666 0)
(0.00010086 -0.241046 0)
(0.0234213 -0.238208 0)
(0.0182682 -0.261809 0)
(0.0159981 -0.251098 0)
(0.0121067 -0.264748 0)
(0.00987799 -0.260187 0)
(0.00680391 -0.267933 0)
(0.00485254 -0.26525 0)
(0.00266373 -0.26882 0)
(0.00131319 -0.266443 0)
(0.000110852 -0.268197 0)
(0.0209446 -0.282047 0)
(0.0155244 -0.30569 0)
(0.0134109 -0.292147 0)
(0.00968445 -0.306114 0)
(0.00801989 -0.299026 0)
(0.00534215 -0.307189 0)
(0.00403753 -0.302815 0)
(0.00221609 -0.30687 0)
(0.00126212 -0.303492 0)
(0.00010365 -0.30582 0)
(0.0190331 -0.33516 0)
(0.0138072 -0.358971 0)
(0.0115796 -0.343925 0)
(0.00810111 -0.358528 0)
(0.00671565 -0.349775 0)
(0.00435314 -0.358725 0)
(0.00344885 -0.353071 0)
(0.0018519 -0.357885 0)
(0.00117439 -0.353625 0)
(6.09237e-05 -0.356729 0)
(0.0170781 -0.398671 0)
(0.0121027 -0.420973 0)
(0.00999107 -0.406836 0)
(0.00674636 -0.421224 0)
(0.00559995 -0.412336 0)
(0.00346051 -0.421617 0)
(0.00280397 -0.41552 0)
(0.00134374 -0.420884 0)
(0.000905967 -0.416202 0)
(-4.65925e-05 -0.419982 0)
(0.0142369 -0.467244 0)
(0.00987981 -0.485391 0)
(0.00810672 -0.475042 0)
(0.00529378 -0.487353 0)
(0.00435786 -0.480286 0)
(0.0024726 -0.488548 0)
(0.00193917 -0.48326 0)
(0.00064929 -0.488272 0)
(0.00044078 -0.484025 0)
(-0.000176019 -0.487865 0)
(0.0107147 -0.529097 0)
(0.00737907 -0.541772 0)
(0.0059147 -0.536612 0)
(0.00372606 -0.54527 0)
(0.00296248 -0.541193 0)
(0.00145107 -0.547041 0)
(0.00100588 -0.54351 0)
(-1.37045e-05 -0.547071 0)
(-5.62214e-06 -0.544019 0)
(-0.000248278 -0.546941 0)
(0.00653852 -0.573599 0)
(0.00437904 -0.580987 0)
(0.00349152 -0.58041 0)
(0.00212946 -0.585406 0)
(0.00165925 -0.58427 0)
(0.000671863 -0.58736 0)
(0.000372319 -0.58573 0)
(-0.000288437 -0.587405 0)
(-0.000182365 -0.585754 0)
(-0.00021116 -0.587233 0)
(0.00209498 -0.595814 0)
(0.00130486 -0.600947 0)
(0.00111344 -0.602866 0)
(0.000661593 -0.605751 0)
(0.000544068 -0.606158 0)
(0.000190001 -0.607617 0)
(9.39167e-05 -0.607055 0)
(-0.000144015 -0.607618 0)
(-8.76887e-05 -0.606802 0)
(-8.04099e-05 -0.60739 0)
(0.0308355 -0.175608 8.76496e-21)
(0.0256484 -0.213215 -8.59884e-21)
(0.0253886 -0.25291 1.08917e-21)
(0.0231698 -0.298255 0)
(0.021569 -0.35163 0)
(0.019417 -0.413228 1.20026e-21)
(0.0163324 -0.477404 -5.08159e-21)
(0.012347 -0.533645 5.02341e-21)
(0.00775217 -0.573545 1.35255e-21)
(0.00265142 -0.593169 -1.33211e-21)
(0.0303697 -0.181736 -1.03672e-20)
(0.0263466 -0.218816 0)
(0.0263436 -0.258337 7.25661e-21)
(0.0242013 -0.303723 -1.66154e-20)
(0.0226993 -0.356882 1.05503e-20)
(0.0204497 -0.417635 -1.09628e-21)
(0.0172609 -0.480193 2.40401e-21)
(0.0130883 -0.534636 5.02397e-21)
(0.00829585 -0.572995 1.39768e-21)
(0.0028852 -0.592091 1.36221e-21)
(0.0303452 -0.188071 1.2128e-20)
(0.027552 -0.224942 -8.13588e-21)
(0.0276432 -0.263955 8.05881e-21)
(0.0255293 -0.308942 -8.70504e-21)
(0.0240518 -0.361589 6.45596e-21)
(0.0216422 -0.421307 0)
(0.0182735 -0.482217 -2.40994e-21)
(0.013859 -0.535004 1.18769e-22)
(0.00878774 -0.572021 -2.62265e-21)
(0.00305302 -0.590785 -2.67706e-21)
(0.030788 -0.193492 -1.95784e-21)
(0.0291419 -0.230483 0)
(0.0292633 -0.269219 0)
(0.0271632 -0.313873 0)
(0.0256433 -0.366027 7.062e-21)
(0.0230255 -0.424706 -4.71246e-21)
(0.0194157 -0.484018 -2.23969e-23)
(0.0146989 -0.53515 -2.80255e-21)
(0.00927429 -0.570873 -1.43234e-21)
(0.00318646 -0.589117 -1.5238e-21)
(0.0318121 -0.198241 5.14035e-23)
(0.0310749 -0.235128 -5.87922e-21)
(0.0311517 -0.27366 -4.30734e-21)
(0.0290561 -0.318119 4.3047e-21)
(0.0274429 -0.369886 -2.318e-21)
(0.02459 -0.427644 0)
(0.0207078 -0.485518 -2.64541e-21)
(0.0156477 -0.535095 5.72723e-21)
(0.0098206 -0.569596 -2.92533e-21)
(0.00333267 -0.587179 2.99108e-21)
(0.0334804 -0.202504 -1.57523e-20)
(0.0333887 -0.239011 1.79535e-21)
(0.0333223 -0.277213 -2.33436e-22)
(0.0311931 -0.321479 4.41175e-21)
(0.0294328 -0.372901 0)
(0.0263218 -0.429846 0)
(0.0221481 -0.486478 0)
(0.0167183 -0.534701 3.0596e-21)
(0.0104583 -0.568128 0)
(0.00351725 -0.585071 0)
(0.0358029 -0.206159 0)
(0.0361119 -0.242164 6.30647e-21)
(0.035818 -0.279924 -4.24827e-21)
(0.0335947 -0.323939 -4.85143e-21)
(0.0316257 -0.374998 4.87671e-21)
(0.0282266 -0.431202 2.82285e-21)
(0.023735 -0.486764 -2.80942e-21)
(0.0179083 -0.533858 -1.09222e-20)
(0.0111877 -0.566403 7.78465e-22)
(0.0037438 -0.582825 -2.63328e-21)
(0.0387823 -0.20902 0)
(0.0392479 -0.244486 -2.06296e-21)
(0.0386683 -0.281764 -1.13778e-21)
(0.0362846 -0.325505 0)
(0.034047 -0.376187 1.3825e-21)
(0.0303244 -0.431712 -4.1851e-21)
(0.025478 -0.486359 4.5827e-21)
(0.0192178 -0.532532 1.62061e-21)
(0.012001 -0.564387 -1.76489e-21)
(0.00400792 -0.580428 3.49637e-21)
(0.0424283 -0.210954 1.94054e-21)
(0.0427959 -0.245881 2.20762e-21)
(0.0418881 -0.282659 -5.07305e-22)
(0.0392753 -0.326147 6.35708e-22)
(0.0367175 -0.376472 1.33314e-21)
(0.0326352 -0.431409 2.20137e-21)
(0.0273906 -0.485299 -8.16905e-22)
(0.0206509 -0.530743 -8.7582e-22)
(0.0128926 -0.562079 1.77071e-21)
(0.0043057 -0.577854 9.55237e-22)
(0.0467506 -0.211861 -5.22486e-22)
(0.0467587 -0.246304 5.27015e-22)
(0.0454886 -0.282543 -5.8405e-22)
(0.0425718 -0.325831 -6.34912e-22)
(0.0396507 -0.375832 7.34206e-22)
(0.0351738 -0.430297 -1.49468e-21)
(0.0294878 -0.483598 1.24778e-21)
(0.0222195 -0.528504 4.42412e-22)
(0.0138674 -0.559478 0)
(0.0046383 -0.575086 -9.5736e-22)
(0.0517538 -0.211656 5.34701e-22)
(0.051138 -0.245757 -5.39556e-22)
(0.0494818 -0.281382 -6.23639e-22)
(0.0461775 -0.324543 -6.82024e-22)
(0.0428577 -0.374257 -7.63904e-22)
(0.0379481 -0.428388 -4.6417e-23)
(0.0317768 -0.481281 4.393e-22)
(0.0239274 -0.525839 1.40657e-21)
(0.0149261 -0.556597 0)
(0.00500576 -0.572122 -1.04046e-21)
(0.0574373 -0.210309 0)
(0.0559306 -0.244254 -2.41149e-21)
(0.0538787 -0.279184 4.34782e-21)
(0.0500921 -0.32229 6.83203e-22)
(0.0463486 -0.37174 1.55554e-21)
(0.0409673 -0.425664 2.51842e-21)
(0.034273 -0.478317 -8.87948e-22)
(0.0257921 -0.522722 -9.5276e-22)
(0.016082 -0.553419 2.09416e-21)
(0.00541295 -0.56895 1.03802e-21)
(0.0637961 -0.207879 0)
(0.0611287 -0.241794 -2.40079e-21)
(0.0586858 -0.276004 -1.29727e-21)
(0.0543211 -0.319091 0)
(0.0501322 -0.368334 -4.86952e-21)
(0.0442329 -0.422174 1.63222e-21)
(0.0369711 -0.474772 1.9014e-21)
(0.0278023 -0.5192 6.09155e-21)
(0.0173248 -0.549959 -2.08737e-21)
(0.0058542 -0.565569 4.4878e-21)
(0.0708247 -0.204487 0)
(0.0667279 -0.238363 2.42135e-21)
(0.0638923 -0.271996 0)
(0.0588614 -0.314958 6.28433e-21)
(0.0542159 -0.364038 -6.31653e-21)
(0.047762 -0.417863 -3.75577e-21)
(0.0398978 -0.47056 -7.01048e-23)
(0.029995 -0.515185 -6.25727e-21)
(0.0186821 -0.546157 -1.04337e-21)
(0.00633939 -0.561935 -5.58193e-21)
(0.0785086 -0.200353 1.82267e-20)
(0.0727101 -0.233917 -6.92969e-21)
(0.0694957 -0.267176 5.6755e-22)
(0.0637537 -0.309888 -5.96552e-21)
(0.0585982 -0.358904 0)
(0.0515458 -0.412848 -3.9078e-21)
(0.0430271 -0.465828 -2.9211e-22)
(0.0323339 -0.510816 8.49324e-21)
(0.0201221 -0.542109 1.15657e-21)
(0.00685086 -0.558105 -1.16093e-21)
(0.0868361 -0.19559 -1.31102e-21)
(0.0791264 -0.228416 1.26747e-20)
(0.0754527 -0.26149 6.19339e-21)
(0.0689937 -0.303933 -6.18918e-21)
(0.063288 -0.352891 -3.62719e-21)
(0.0556202 -0.406977 0)
(0.0464193 -0.460344 -8.67542e-21)
(0.0348946 -0.505884 4.3495e-21)
(0.0217106 -0.537688 4.61744e-21)
(0.0074201 -0.553993 4.93519e-21)
(0.0956016 -0.190249 -2.49479e-21)
(0.0859971 -0.222105 0)
(0.0817076 -0.255194 0)
(0.074548 -0.29741 0)
(0.0682431 -0.346422 -4.11954e-21)
(0.0599128 -0.400797 7.73346e-21)
(0.0499594 -0.45469 8.82853e-21)
(0.037538 -0.500838 -1.38422e-20)
(0.0233326 -0.533138 2.46403e-21)
(0.00798601 -0.549741 -7.32958e-21)
(0.104721 -0.184268 -4.15015e-21)
(0.0933133 -0.21491 1.2124e-20)
(0.0882684 -0.248028 -1.20084e-20)
(0.0804739 -0.289814 1.4748e-20)
(0.073573 -0.338711 -1.8512e-20)
(0.0646078 -0.393276 0)
(0.0539047 -0.447802 -4.60681e-21)
(0.0405482 -0.494875 -1.79133e-22)
(0.0252151 -0.528017 -5.11075e-21)
(0.00866015 -0.545068 -5.19946e-21)
(0.113942 -0.178601 -2.65574e-21)
(0.100885 -0.20792 0)
(0.0948888 -0.241391 -1.56422e-20)
(0.0864776 -0.282988 2.91151e-20)
(0.0789208 -0.33207 -1.11927e-20)
(0.0692469 -0.386999 -2.19711e-21)
(0.0577072 -0.442051 4.59695e-21)
(0.043373 -0.489634 -2.17258e-22)
(0.0269388 -0.523161 7.46785e-21)
(0.00922797 -0.540452 7.69419e-21)
(0.123684 -0.170459 -1.16751e-20)
(0.109932 -0.197613 1.14246e-20)
(0.102607 -0.231181 1.67498e-21)
(0.0935501 -0.272244 0)
(0.0852955 -0.321235 0)
(0.0749523 -0.376638 2.13855e-21)
(0.0625703 -0.432947 9.64139e-21)
(0.0471403 -0.48219 -9.41915e-21)
(0.0293308 -0.517117 -2.55895e-21)
(0.010099 -0.535001 2.51534e-21)
(0.134915 -0.171453 0)
(0.129373 -0.194032 0)
(0.118073 -0.228913 0)
(0.107454 -0.269259 0)
(0.0976067 -0.317313 0)
(0.0854128 -0.370979 0)
(0.070966 -0.425128 0)
(0.0532646 -0.472276 0)
(0.0329907 -0.505907 0)
(0.0110417 -0.523585 0)
(0.158064 -0.155854 0)
(0.163044 -0.183306 0)
(0.14516 -0.22124 0)
(0.134299 -0.260967 0)
(0.121634 -0.308213 0)
(0.106202 -0.35941 0)
(0.0880144 -0.409902 0)
(0.0660179 -0.45293 0)
(0.0410904 -0.48268 0)
(0.0143992 -0.497116 0)
(0.18944 -0.140454 0)
(0.199212 -0.169245 0)
(0.174326 -0.206685 0)
(0.164659 -0.24482 0)
(0.147812 -0.290668 0)
(0.128567 -0.338562 0)
(0.105824 -0.385367 0)
(0.0788327 -0.425389 0)
(0.0485348 -0.453969 0)
(0.0159202 -0.469641 0)
(0.229114 -0.129731 0)
(0.240488 -0.157471 0)
(0.209214 -0.193555 0)
(0.201643 -0.230508 0)
(0.178814 -0.274631 0)
(0.155633 -0.318249 0)
(0.127457 -0.360727 0)
(0.0946656 -0.396015 0)
(0.0585818 -0.419904 0)
(0.0207115 -0.430622 0)
(0.276218 -0.115823 0)
(0.285776 -0.141151 0)
(0.249169 -0.174649 0)
(0.242155 -0.208679 0)
(0.210274 -0.248082 0)
(0.182746 -0.285552 0)
(0.147432 -0.323349 0)
(0.108328 -0.354918 0)
(0.0657956 -0.378372 0)
(0.0206641 -0.393005 0)
(0.332464 -0.106503 0)
(0.337796 -0.128784 0)
(0.297235 -0.159707 0)
(0.287974 -0.189303 0)
(0.246036 -0.223527 0)
(0.215691 -0.255809 0)
(0.172168 -0.289396 0)
(0.126367 -0.315516 0)
(0.0775061 -0.3336 0)
(0.0286607 -0.3393 0)
(0.391273 -0.086899 0)
(0.388058 -0.10451 0)
(0.344605 -0.130282 0)
(0.328815 -0.152976 0)
(0.277432 -0.18082 0)
(0.243601 -0.206545 0)
(0.187577 -0.233349 0)
(0.135501 -0.254406 0)
(0.0790793 -0.274906 0)
(0.0207369 -0.294342 0)
(0.453211 -0.0736564 0)
(0.440828 -0.086396 0)
(0.39829 -0.107315 0)
(0.373513 -0.123882 0)
(0.318702 -0.146944 0)
(0.278928 -0.166503 0)
(0.213615 -0.188758 0)
(0.15795 -0.207806 0)
(0.0947897 -0.226809 0)
(0.0432139 -0.225707 0)
(0.498228 -0.0397819 0)
(0.478449 -0.0459666 0)
(0.427709 -0.0585581 0)
(0.393288 -0.066705 0)
(0.329438 -0.0805973 0)
(0.279163 -0.0897563 0)
(0.200613 -0.102861 0)
(0.135496 -0.113782 0)
(0.058059 -0.13558 0)
(-0.0220263 -0.184008 0)
(0.711169 -0.0201016 0)
(0.686566 -0.0235286 0)
(0.642116 -0.0287354 0)
(0.603143 -0.0333523 0)
(0.544402 -0.0403645 0)
(0.488949 -0.0470873 0)
(0.411621 -0.0577117 0)
(0.332211 -0.071866 0)
(0.226131 -0.100444 0)
(0.15819 -0.156899 0)
(0.161717 -0.151196 1.22528e-20)
(0.187509 -0.134445 -1.20713e-20)
(0.220114 -0.119821 1.86521e-21)
(0.259368 -0.109867 0)
(0.306009 -0.0976105 0)
(0.359804 -0.0893728 2.66044e-21)
(0.416655 -0.0723017 -1.24828e-20)
(0.474636 -0.061812 1.23438e-20)
(0.525115 -0.0325339 3.49941e-21)
(0.732485 -0.0172834 -3.52601e-21)
(0.170054 -0.142642 -1.20799e-20)
(0.195003 -0.125469 0)
(0.227452 -0.111551 1.30302e-20)
(0.266737 -0.101999 -3.11417e-20)
(0.313488 -0.0904086 2.07269e-20)
(0.367095 -0.0826077 -2.45305e-21)
(0.423833 -0.0664873 5.3261e-21)
(0.481321 -0.0570958 1.18341e-20)
(0.534717 -0.0296512 3.24806e-21)
(0.740543 -0.0160839 3.1795e-21)
(0.177217 -0.133105 1.40517e-20)
(0.201242 -0.116051 -1.27518e-20)
(0.232908 -0.10313 1.26312e-20)
(0.271917 -0.0940841 -1.64461e-20)
(0.318551 -0.0832504 1.1978e-20)
(0.372098 -0.0760018 0)
(0.428888 -0.0609329 -5.3391e-21)
(0.486501 -0.0527412 -7.52944e-23)
(0.54285 -0.0270816 -6.13121e-21)
(0.747802 -0.0149479 -6.37291e-21)
(0.184482 -0.122952 -2.39008e-21)
(0.208387 -0.10638 0)
(0.239218 -0.0945484 0)
(0.277911 -0.0860922 0)
(0.324288 -0.0760937 1.33657e-20)
(0.377596 -0.0695128 -9.06811e-21)
(0.43427 -0.055595 -2.96304e-22)
(0.491834 -0.0486533 -6.02711e-21)
(0.550499 -0.0247774 -3.08196e-21)
(0.75468 -0.0138971 -3.13241e-21)
(0.191215 -0.112451 1.77155e-21)
(0.215264 -0.0966373 -7.47352e-21)
(0.245431 -0.0859066 -7.00485e-21)
(0.283982 -0.0781286 7.00053e-21)
(0.33024 -0.0689937 -4.23765e-21)
(0.3834 -0.0631569 0)
(0.439946 -0.050431 -5.25465e-21)
(0.497371 -0.044724 1.16052e-20)
(0.557888 -0.0226432 -5.84505e-21)
(0.761231 -0.0129188 6.27452e-21)
(0.197171 -0.101635 -1.82268e-20)
(0.221144 -0.0868729 1.33694e-21)
(0.250823 -0.0772591 -9.03408e-22)
(0.289249 -0.0702506 6.89105e-21)
(0.335451 -0.062023 0)
(0.388651 -0.0569829 0)
(0.445179 -0.0454497 0)
(0.502598 -0.0409278 5.5953e-21)
(0.564797 -0.0206278 0)
(0.767336 -0.0119966 0)
(0.202314 -0.0905091 0)
(0.226013 -0.0770741 8.54644e-21)
(0.255251 -0.0686112 -5.87739e-21)
(0.293533 -0.062442 -7.71216e-21)
(0.33962 -0.0551825 7.75229e-21)
(0.39295 -0.0510056 4.83642e-21)
(0.449504 -0.0406582 -4.60661e-21)
(0.507152 -0.0372739 -1.93448e-20)
(0.570972 -0.0187208 1.37294e-21)
(0.772885 -0.0111266 -4.55567e-21)
(0.206556 -0.0791044 0)
(0.229926 -0.0672208 -2.67708e-21)
(0.258736 -0.0599503 -1.55306e-21)
(0.296847 -0.0546816 0)
(0.342815 -0.0484408 2.27548e-21)
(0.396259 -0.045183 -6.60897e-21)
(0.452834 -0.036042 7.69152e-21)
(0.510929 -0.0337666 2.90509e-21)
(0.57624 -0.0169131 -2.8884e-21)
(0.777809 -0.0103088 6.09188e-21)