-0.362837 	0.362837 	0.5 	0.0203591 	0.0192461 	1.87615e-23
-0.380512 	0.380512 	0.5 	0.0556833 	0.0501189 	7.07412e-21
-0.398188 	0.398188 	0.5 	0.0875195 	0.0742499 	-3.608e-21
-0.415863 	0.415863 	0.5 	0.11594 	0.0931531 	2.91356e-20
-0.433538 	0.433538 	0.5 	0.141439 	0.107649 	0
-0.451213 	0.451213 	0.5 	0.164344 	0.118493 	2.24748e-20
-0.468888 	0.468888 	0.5 	0.184952 	0.126291 	3.79924e-20
-0.486563 	0.486563 	0.5 	0.203517 	0.131549 	2.30112e-20
-0.504238 	0.504238 	0.5 	0.220265 	0.134687 	-1.54529e-20
-0.521913 	0.521913 	0.5 	0.235394 	0.13606 	-3.91395e-20
-0.539588 	0.539588 	0.5 	0.249081 	0.13597 	0
-0.557263 	0.557263 	0.5 	0.261483 	0.134671 	3.17229e-20
-0.574938 	0.574938 	0.5 	0.272743 	0.13238 	1.59816e-20
-0.592613 	0.592613 	0.5 	0.282985 	0.129281 	-9.80427e-23
-0.610288 	0.610288 	0.5 	0.292323 	0.125532 	2.61355e-23
-0.627963 	0.627963 	0.5 	0.300859 	0.121266 	6.44803e-20
-0.645638 	0.645638 	0.5 	0.308683 	0.116597 	-1.61769e-20
-0.663313 	0.663313 	0.5 	0.315877 	0.11162 	4.83986e-20
-0.680988 	0.680988 	0.5 	0.322512 	0.106417 	-1.61754e-20
-0.698663 	0.698663 	0.5 	0.328655 	0.101054 	4.83177e-20
-0.716338 	0.716338 	0.5 	0.334361 	0.095589 	-3.22195e-20
-0.734013 	0.734013 	0.5 	0.339683 	0.0900684 	4.81321e-20
-0.751688 	0.751688 	0.5 	0.344666 	0.0845307 	1.60001e-20
-0.769363 	0.769363 	0.5 	0.349351 	0.0790073 	-4.7799e-20
-0.787038 	0.787038 	0.5 	0.353774 	0.0735235 	0
-0.804713 	0.804713 	0.5 	0.357966 	0.0680993 	-3.15382e-20
-0.822388 	0.822388 	0.5 	0.361956 	0.0627504 	0
-0.840063 	0.840063 	0.5 	0.36577 	0.0574885 	-3.11944e-20
-0.857738 	0.857738 	0.5 	0.369429 	0.0523224 	0
-0.875413 	0.875413 	0.5 	0.372954 	0.0472581 	3.08041e-20
-0.893088 	0.893088 	0.5 	0.376364 	0.0422992 	0
-0.910763 	0.910763 	0.5 	0.379674 	0.0374476 	3.03742e-20
-0.928438 	0.928438 	0.5 	0.382902 	0.0327033 	-3.01463e-20
-0.946113 	0.946113 	0.5 	0.386061 	0.0280645 	0
-0.963788 	0.963788 	0.5 	0.38917 	0.0235277 	-2.96666e-20
-0.981463 	0.981463 	0.5 	0.392247 	0.0190902 	2.94154e-20
-0.999138 	0.999138 	0.5 	0.395318 	0.0147478 	0
-1.01681 	1.01681 	0.5 	0.398459 	0.010462 	0
-1.03449 	1.03449 	0.5 	0.40187 	0.00619232 	-2.85906e-20
-1.05216 	1.05216 	0.5 	0.40574 	0.00238172 	-3.32581e-20
-1.061 	1.061 	0.5 	0.418836 	-0.00410305 	2.74079e-20
-1.12274 	1.12274 	0.5 	0.409977 	-0.00856808 	0
-1.18448 	1.18448 	0.5 	0.411232 	-0.0277519 	0
-1.24621 	1.24621 	0.5 	0.429317 	-0.0359274 	0
-1.30795 	1.30795 	0.5 	0.44707 	-0.0394162 	0
-1.36969 	1.36969 	0.5 	0.443891 	-0.0568442 	0
-1.43142 	1.43142 	0.5 	0.461023 	-0.0591974 	0
-1.49316 	1.49316 	0.5 	0.458682 	-0.0763099 	0
-1.5549 	1.5549 	0.5 	0.457025 	-0.0934828 	0
-1.61664 	1.61664 	0.5 	0.473824 	-0.0949256 	0
-1.67838 	1.67838 	0.5 	0.472616 	-0.111671 	0
