1.11936e-18 	0.5125 	0.5 	0.0274991 	0.000249226 	0
1.11936e-18 	0.5375 	0.5 	0.076756 	0.00219878 	0
1.11936e-18 	0.5625 	0.5 	0.121343 	0.00604199 	-6.58222e-22
1.11936e-18 	0.5875 	0.5 	0.161807 	0.010747 	0
1.11936e-18 	0.6125 	0.5 	0.198609 	0.0160261 	0
1.11936e-18 	0.6375 	0.5 	0.232125 	0.0215656 	-7.10813e-22
1.11936e-18 	0.6625 	0.5 	0.262665 	0.0271482 	0
1.11936e-18 	0.6875 	0.5 	0.290492 	0.0326163 	0
1.11936e-18 	0.7125 	0.5 	0.315836 	0.0378572 	0
1.11936e-18 	0.7375 	0.5 	0.338897 	0.0427926 	0
1.11936e-18 	0.7625 	0.5 	0.359856 	0.047371 	0
1.11936e-18 	0.7875 	0.5 	0.378876 	0.0515613 	-7.8026e-22
1.11936e-18 	0.8125 	0.5 	0.39611 	0.0553477 	0
1.11936e-18 	0.8375 	0.5 	0.411697 	0.0587267 	0
1.11936e-18 	0.8625 	0.5 	0.425767 	0.061704 	0
1.11936e-18 	0.8875 	0.5 	0.438442 	0.064292 	0
1.11936e-18 	0.9125 	0.5 	0.449836 	0.0665084 	-2.0263e-22
1.11936e-18 	0.9375 	0.5 	0.460058 	0.0683739 	2.03048e-22
1.11936e-18 	0.9625 	0.5 	0.469208 	0.069912 	0
1.11936e-18 	0.9875 	0.5 	0.47738 	0.0711477 	0
1.11936e-18 	1.0125 	0.5 	0.484663 	0.0721068 	8.16026e-22
1.11936e-18 	1.0375 	0.5 	0.49114 	0.0728149 	0
1.11936e-18 	1.0625 	0.5 	0.496888 	0.0732973 	0
1.11936e-18 	1.0875 	0.5 	0.501977 	0.0735788 	0
1.11936e-18 	1.1125 	0.5 	0.506475 	0.0736833 	0
1.11936e-18 	1.1375 	0.5 	0.510442 	0.0736332 	0
1.11936e-18 	1.1625 	0.5 	0.513935 	0.0734496 	0
1.11936e-18 	1.1875 	0.5 	0.517005 	0.0731525 	8.03999e-22
1.11936e-18 	1.2125 	0.5 	0.5197 	0.0727605 	0
1.11936e-18 	1.2375 	0.5 	0.522064 	0.0722903 	-7.96227e-22
1.11936e-18 	1.2625 	0.5 	0.524134 	0.071757 	0
1.11936e-18 	1.2875 	0.5 	0.525947 	0.0711748 	0
1.11936e-18 	1.3125 	0.5 	0.527534 	0.0705563 	0
1.11936e-18 	1.3375 	0.5 	0.528926 	0.0699129 	-3.88344e-22
1.11936e-18 	1.3625 	0.5 	0.530146 	0.0692541 	3.86248e-22
1.11936e-18 	1.3875 	0.5 	0.53122 	0.0685891 	0
1.11936e-18 	1.4125 	0.5 	0.532167 	0.0679256 	0
1.11936e-18 	1.4375 	0.5 	0.533005 	0.0672698 	0
1.11936e-18 	1.4625 	0.5 	0.53375 	0.0666262 	0
1.11936e-18 	1.4875 	0.5 	0.534415 	0.0660056 	0
1.11936e-18 	1.55625 	0.5 	0.536062 	0.0644009 	2.70578e-22
1.11936e-18 	1.66875 	0.5 	0.538604 	0.0619173 	0
1.11936e-18 	1.78125 	0.5 	0.541685 	0.0597629 	0
1.11936e-18 	1.89375 	0.5 	0.54578 	0.0582795 	2.60947e-22
1.11936e-18 	2.00625 	0.5 	0.550881 	0.0573757 	2.55882e-22
1.11936e-18 	2.11875 	0.5 	0.556931 	0.057128 	-2.5041e-22
1.11936e-18 	2.23125 	0.5 	0.563775 	0.0574099 	1.20849e-22
1.11936e-18 	2.34375 	0.5 	0.571295 	0.0581801 	-3.59467e-22
