-0.362837 	0.362837 	0.5 	0.633749
-0.380512 	0.380512 	0.5 	0.62491
-0.398188 	0.398188 	0.5 	0.620499
-0.415863 	0.415863 	0.5 	0.616274
-0.433538 	0.433538 	0.5 	0.612897
-0.451213 	0.451213 	0.5 	0.610127
-0.468888 	0.468888 	0.5 	0.607831
-0.486563 	0.486563 	0.5 	0.605898
-0.504238 	0.504238 	0.5 	0.604233
-0.521913 	0.521913 	0.5 	0.60276
-0.539588 	0.539588 	0.5 	0.601419
-0.557263 	0.557263 	0.5 	0.600163
-0.574938 	0.574938 	0.5 	0.598958
-0.592613 	0.592613 	0.5 	0.597778
-0.610288 	0.610288 	0.5 	0.596605
-0.627963 	0.627963 	0.5 	0.595424
-0.645638 	0.645638 	0.5 	0.594226
-0.663313 	0.663313 	0.5 	0.593004
-0.680988 	0.680988 	0.5 	0.591755
-0.698663 	0.698663 	0.5 	0.590478
-0.716338 	0.716338 	0.5 	0.589171
-0.734013 	0.734013 	0.5 	0.587835
-0.751688 	0.751688 	0.5 	0.58647
-0.769363 	0.769363 	0.5 	0.585078
-0.787038 	0.787038 	0.5 	0.583658
-0.804713 	0.804713 	0.5 	0.582213
-0.822388 	0.822388 	0.5 	0.580744
-0.840063 	0.840063 	0.5 	0.579249
-0.857738 	0.857738 	0.5 	0.577731
-0.875413 	0.875413 	0.5 	0.576187
-0.893088 	0.893088 	0.5 	0.574614
-0.910763 	0.910763 	0.5 	0.573009
-0.928438 	0.928438 	0.5 	0.571365
-0.946113 	0.946113 	0.5 	0.569668
-0.963788 	0.963788 	0.5 	0.567905
-0.981463 	0.981463 	0.5 	0.566061
-0.999138 	0.999138 	0.5 	0.564093
-1.01681 	1.01681 	0.5 	0.561758
-1.03449 	1.03449 	0.5 	0.558904
-1.05216 	1.05216 	0.5 	0.557265
-1.061 	1.061 	0.5 	0.556391
-1.12274 	1.12274 	0.5 	0.550254
-1.18448 	1.18448 	0.5 	0.55596
-1.24621 	1.24621 	0.5 	0.544749
-1.30795 	1.30795 	0.5 	0.530877
-1.36969 	1.36969 	0.5 	0.534836
-1.43142 	1.43142 	0.5 	0.520141
-1.49316 	1.49316 	0.5 	0.523681
-1.5549 	1.5549 	0.5 	0.527007
-1.61664 	1.61664 	0.5 	0.512355
-1.67838 	1.67838 	0.5 	0.515616
