1.11936e-18 	0.5125 	0.5 	0.0314489 	0.000235899 	0
1.11936e-18 	0.5375 	0.5 	0.0874012 	0.00211993 	0
1.11936e-18 	0.5625 	0.5 	0.137716 	0.0058112 	-6.03099e-22
1.11936e-18 	0.5875 	0.5 	0.183068 	0.0102744 	0
1.11936e-18 	0.6125 	0.5 	0.224025 	0.0152129 	0
1.11936e-18 	0.6375 	0.5 	0.26105 	0.0203119 	-6.52474e-22
1.11936e-18 	0.6625 	0.5 	0.294527 	0.0253573 	0
1.11936e-18 	0.6875 	0.5 	0.324785 	0.0301979 	0
1.11936e-18 	0.7125 	0.5 	0.352109 	0.0347294 	0
1.11936e-18 	0.7375 	0.5 	0.376752 	0.0388834 	0
1.11936e-18 	0.7625 	0.5 	0.398942 	0.0426191 	0
1.11936e-18 	0.7875 	0.5 	0.418886 	0.0459163 	-7.20082e-22
1.11936e-18 	0.8125 	0.5 	0.436774 	0.0487702 	0
1.11936e-18 	0.8375 	0.5 	0.452783 	0.051188 	0
1.11936e-18 	0.8625 	0.5 	0.467077 	0.0531853 	0
1.11936e-18 	0.8875 	0.5 	0.479807 	0.0547838 	0
1.11936e-18 	0.9125 	0.5 	0.491117 	0.0560093 	-1.88052e-22
1.11936e-18 	0.9375 	0.5 	0.501137 	0.0568904 	1.88439e-22
1.11936e-18 	0.9625 	0.5 	0.509992 	0.057457 	0
1.11936e-18 	0.9875 	0.5 	0.517794 	0.0577397 	0
1.11936e-18 	1.0125 	0.5 	0.524651 	0.0577688 	7.58612e-22
1.11936e-18 	1.0375 	0.5 	0.530658 	0.0575738 	0
1.11936e-18 	1.0625 	0.5 	0.535906 	0.0571832 	0
1.11936e-18 	1.0875 	0.5 	0.540477 	0.0566239 	0
1.11936e-18 	1.1125 	0.5 	0.544447 	0.0559212 	0
1.11936e-18 	1.1375 	0.5 	0.547884 	0.0550986 	0
1.11936e-18 	1.1625 	0.5 	0.550851 	0.0541776 	0
1.11936e-18 	1.1875 	0.5 	0.553404 	0.0531782 	7.49835e-22
1.11936e-18 	1.2125 	0.5 	0.555593 	0.052118 	0
1.11936e-18 	1.2375 	0.5 	0.557466 	0.0510133 	-7.42981e-22
1.11936e-18 	1.2625 	0.5 	0.559063 	0.0498783 	0
1.11936e-18 	1.2875 	0.5 	0.560421 	0.0487257 	0
1.11936e-18 	1.3125 	0.5 	0.561573 	0.0475667 	0
1.11936e-18 	1.3375 	0.5 	0.562549 	0.046411 	-3.62845e-22
1.11936e-18 	1.3625 	0.5 	0.563373 	0.045267 	3.60886e-22
1.11936e-18 	1.3875 	0.5 	0.564069 	0.0441418 	0
1.11936e-18 	1.4125 	0.5 	0.564657 	0.0430416 	0
1.11936e-18 	1.4375 	0.5 	0.565155 	0.0419709 	0
1.11936e-18 	1.4625 	0.5 	0.565578 	0.0409329 	0
1.11936e-18 	1.4875 	0.5 	0.565937 	0.0399369 	0
1.11936e-18 	1.55625 	0.5 	0.566787 	0.0373542 	2.5282e-22
1.11936e-18 	1.66875 	0.5 	0.568371 	0.0334714 	0
1.11936e-18 	1.78125 	0.5 	0.570713 	0.0300855 	0
1.11936e-18 	1.89375 	0.5 	0.574257 	0.0275036 	2.43282e-22
1.11936e-18 	2.00625 	0.5 	0.578885 	0.0255919 	2.38352e-22
1.11936e-18 	2.11875 	0.5 	0.5845 	0.0243968 	-2.33012e-22
1.11936e-18 	2.23125 	0.5 	0.590912 	0.0237705 	1.12286e-22
1.11936e-18 	2.34375 	0.5 	0.597996 	0.0236606 	-3.3379e-22
