0.362837 	0.362837 	0.5 	0.0017881 	-0.00147334 	-1.56967e-23
0.380512 	0.380512 	0.5 	0.00762226 	-0.00472287 	5.16848e-21
0.398188 	0.398188 	0.5 	0.0157595 	-0.00743358 	-2.66175e-21
0.415863 	0.415863 	0.5 	0.0253956 	-0.00990302 	2.20612e-20
0.433538 	0.433538 	0.5 	0.0362194 	-0.0120565 	0
0.451213 	0.451213 	0.5 	0.0479197 	-0.0139151 	1.74003e-20
0.468888 	0.468888 	0.5 	0.0602606 	-0.0154949 	2.96254e-20
0.486563 	0.486563 	0.5 	0.073054 	-0.0168148 	1.81334e-20
0.504238 	0.504238 	0.5 	0.0861481 	-0.0178942 	-1.2324e-20
0.521913 	0.521913 	0.5 	0.0994195 	-0.018752 	-3.122e-20
0.539588 	0.539588 	0.5 	0.112767 	-0.0194057 	0
0.557263 	0.557263 	0.5 	0.126107 	-0.0198711 	2.56463e-20
0.574938 	0.574938 	0.5 	0.139371 	-0.0201623 	1.2964e-20
0.592613 	0.592613 	0.5 	0.152499 	-0.0202917 	3.66297e-23
0.610288 	0.610288 	0.5 	0.165444 	-0.02027 	-3.99636e-23
0.627963 	0.627963 	0.5 	0.178164 	-0.0201064 	5.30395e-20
0.645638 	0.645638 	0.5 	0.190625 	-0.0198088 	-1.33073e-20
0.663313 	0.663313 	0.5 	0.202797 	-0.0193838 	4.02089e-20
0.680988 	0.680988 	0.5 	0.214657 	-0.0188368 	-1.34186e-20
0.698663 	0.698663 	0.5 	0.226184 	-0.0181722 	4.04621e-20
0.716338 	0.716338 	0.5 	0.237362 	-0.0173937 	-2.69918e-20
0.734013 	0.734013 	0.5 	0.248176 	-0.0165041 	4.05623e-20
0.751688 	0.751688 	0.5 	0.258617 	-0.0155055 	1.35291e-20
0.769363 	0.769363 	0.5 	0.268676 	-0.0143995 	-4.0578e-20
0.787038 	0.787038 	0.5 	0.278348 	-0.0131873 	0
0.804713 	0.804713 	0.5 	0.287628 	-0.0118694 	-2.7018e-20
0.822388 	0.822388 	0.5 	0.296515 	-0.0104461 	0
0.840063 	0.840063 	0.5 	0.305008 	-0.00891735 	-2.69098e-20
0.857738 	0.857738 	0.5 	0.313109 	-0.00728294 	0
0.875413 	0.875413 	0.5 	0.320822 	-0.00554247 	2.6757e-20
0.893088 	0.893088 	0.5 	0.32815 	-0.00369553 	0
0.910763 	0.910763 	0.5 	0.335099 	-0.00174185 	2.65692e-20
0.928438 	0.928438 	0.5 	0.341678 	0.00031831 	-2.64654e-20
0.946113 	0.946113 	0.5 	0.347893 	0.00248386 	0
0.963788 	0.963788 	0.5 	0.353757 	0.00475219 	-2.62481e-20
0.981463 	0.981463 	0.5 	0.359278 	0.00711394 	2.61399e-20
0.999138 	0.999138 	0.5 	0.364455 	0.00954313 	0
1.01681 	1.01681 	0.5 	0.369305 	0.0120433 	0
1.03449 	1.03449 	0.5 	0.374007 	0.0147883 	-2.59656e-20
1.05216 	1.05216 	0.5 	0.378528 	0.0175715 	3.01189e-20
1.061 	1.061 	0.5 	0.383374 	0.0186446 	-0.000781631
1.12274 	1.12274 	0.5 	0.40343 	0.0205428 	-0.00151741
1.19698 	1.19698 	0.5 	0.430433 	0.0396809 	-0.0015203
1.25871 	1.25871 	0.5 	0.41798 	0.0489866 	-0.00157472
1.33295 	1.33295 	0.5 	0.438107 	0.0620449 	-0.00155092
1.39469 	1.39469 	0.5 	0.423062 	0.0729077 	-0.00157882
1.46893 	1.46893 	0.5 	0.438713 	0.084786 	-0.00155537
1.53066 	1.53066 	0.5 	0.423735 	0.0974257 	-0.00158069
1.6049 	1.6049 	0.5 	0.43717 	0.108717 	-0.00155566
1.66664 	1.66664 	0.5 	0.423389 	0.12225 	-0.00157407
