/*--------------------------------*- C++ -*----------------------------------*\
  =========                 |
  \\      /  F ield         | OpenFOAM: The Open Source CFD Toolbox
   \\    /   O peration     | Website:  https://openfoam.org
    \\  /    A nd           | Version:  7
     \\/     M anipulation  |
\*---------------------------------------------------------------------------*/
FoamFile
{
    version     2.0;
    format      ascii;
    class       volScalarField;
    location    "61.5";
    object      p;
}
// * * * * * * * * * * * * * * * * * * * * * * * * * * * * * * * * * * * * * //

dimensions      [0 2 -2 0 0 0 0];

internalField   nonuniform List<scalar> 
2000
(
0.0178191
0.0179091
0.0181229
0.0183664
0.0186022
0.0188177
0.019014
0.0192017
0.0193914
0.0196206
0.0180646
0.0181626
0.0183953
0.0186686
0.0189362
0.0191807
0.0193957
0.0195847
0.0197514
0.0199257
0.0182638
0.0183865
0.0186433
0.0189484
0.0192519
0.0195297
0.0197696
0.019969
0.0201253
0.020253
0.018412
0.0185791
0.0188644
0.0192032
0.0195435
0.0198562
0.0201244
0.020341
0.0204994
0.020591
0.0185094
0.0187419
0.0190578
0.0194305
0.0198053
0.0201506
0.0204466
0.0206838
0.0208554
0.0209241
0.0185605
0.0188782
0.0192255
0.019629
0.0200325
0.0204039
0.0207223
0.0209781
0.0211695
0.0212302
0.018576
0.0189927
0.0193712
0.0197996
0.0202225
0.0206088
0.0209391
0.0212049
0.0214145
0.0214804
0.0185683
0.0190941
0.0195005
0.0199448
0.0203742
0.0207606
0.0210876
0.0213499
0.0215691
0.0216497
0.018554
0.0191918
0.0196197
0.0200683
0.0204884
0.0208565
0.0211621
0.0214065
0.0216299
0.0217383
0.0185526
0.0192962
0.0197366
0.0201751
0.0205671
0.0208947
0.0211548
0.0213586
0.0215649
0.0217057
0.0204865
0.0227003
0.0256632
0.0291006
0.0324602
0.0360282
0.0387951
0.0420095
0.0430249
0.0448683
0.0206237
0.0224183
0.0249892
0.0281277
0.0312392
0.0345948
0.0371768
0.0402042
0.041268
0.0429236
0.0207516
0.0221996
0.0243502
0.0271912
0.0300696
0.0332277
0.0356437
0.038525
0.0395679
0.0411085
0.0208509
0.0220518
0.023751
0.0262994
0.0289555
0.0319247
0.0341968
0.036947
0.0379483
0.0394242
0.0209035
0.0219692
0.0231961
0.0254605
0.0279016
0.0306914
0.0328387
0.0354698
0.0364369
0.0378696
0.0208973
0.0219254
0.0226887
0.0246793
0.0269068
0.0295217
0.0315522
0.0340706
0.0350157
0.0364273
0.0208288
0.0218742
0.0222331
0.0239609
0.0259816
0.0284329
0.0303597
0.0327765
0.0337054
0.0350955
0.0206946
0.0217582
0.0218322
0.0232927
0.0250996
0.0273826
0.0292082
0.0315243
0.0324491
0.03385
0.0204979
0.0215099
0.0214795
0.0227161
0.0243371
0.0264606
0.0281948
0.0304041
0.0313125
0.0326984
0.0204339
0.0212304
0.0211087
0.0220671
0.0234862
0.0254426
0.0271034
0.0292129
0.0301635
0.031592
0.0217694
0.0224434
0.022351
0.02251
0.0231659
0.0243993
0.0256647
0.0272191
0.028071
0.0291119
0.0187913
0.019776
0.0203018
0.0207094
0.0212716
0.0221168
0.0230165
0.0240889
0.0247159
0.0253771
0.0159136
0.0171085
0.0178552
0.0183638
0.0189127
0.0196261
0.0203055
0.021083
0.0214823
0.0219119
0.0127343
0.014162
0.0152237
0.0159323
0.0164764
0.0171019
0.0176506
0.018249
0.0184923
0.0187747
0.00938033
0.0109214
0.0123363
0.0133585
0.0140277
0.0146184
0.0150692
0.0155275
0.0156674
0.0158649
0.00615402
0.00771073
0.00934049
0.0106091
0.0114507
0.0120895
0.0125248
0.0129064
0.0129842
0.0131035
0.0033691
0.00482181
0.00650316
0.00791163
0.00885895
0.00950254
0.00989705
0.0102186
0.0102714
0.0103532
0.00128159
0.00247018
0.00395704
0.00531485
0.00628199
0.00691866
0.0072663
0.00751084
0.00751953
0.00756
6.42318e-05
0.000896707
0.00200783
0.00304407
0.00377882
0.00424994
0.00448338
0.00465634
0.00462634
0.00464773
-0.000840185
-0.000268054
0.00040272
0.00100261
0.00139548
0.00161745
0.00166656
0.00173397
0.00165138
0.00163726
0.0206131
0.0176099
0.0147417
0.0116139
0.00841947
0.00538097
0.0028
0.00086776
-7.96527e-05
-0.00110812
0.0199719
0.0169197
0.0140421
0.0109476
0.00784298
0.0049238
0.00248268
0.000676598
-0.000132852
-0.00113076
0.0192031
0.0162478
0.0133964
0.010357
0.00734448
0.00453982
0.0022268
0.000541592
-0.000179491
-0.00100259
0.0184869
0.015682
0.0128599
0.00988304
0.00696288
0.00426812
0.00206448
0.000488128
-0.000183259
-0.000841057
0.0178802
0.0152169
0.0124244
0.00950821
0.00667744
0.00408311
0.00198768
0.000498595
-0.00014307
-0.000678298
0.0174201
0.0148583
0.0120964
0.00923032
0.00648887
0.0039871
0.00198187
0.000563731
-6.71413e-05
-0.000519629
0.0171239
0.0146083
0.0118744
0.00905965
0.00639396
0.00397295
0.00204219
0.000676802
3.76906e-05
-0.000369207
0.0169927
0.0144681
0.0117614
0.0089853
0.00638669
0.00403367
0.0021612
0.00082982
0.000165169
-0.00023041
0.0170174
0.0144346
0.0117505
0.00900185
0.00645942
0.00416056
0.00232973
0.00101431
0.000309185
-0.000104555
0.0171718
0.0144997
0.0118324
0.0091002
0.00660176
0.00434322
0.00253792
0.00122208
0.000464114
8.62365e-06
0.0174257
0.0146457
0.0119904
0.00926539
0.00679964
0.00456932
0.00277536
0.00144541
0.000625076
0.000110154
0.0177555
0.0148572
0.0122109
0.00948577
0.00704175
0.004829
0.0030336
0.00167818
0.000788376
0.000201307
0.0181454
0.0151252
0.0124845
0.00975395
0.00731996
0.00511493
0.00330624
0.00191589
0.000951463
0.000283496
0.0185795
0.0154405
0.0128008
0.0100619
0.00762615
0.00542022
0.00358787
0.00215511
0.00111268
0.000358041
0.0190447
0.0157967
0.0131502
0.0104027
0.00795358
0.00573923
0.00387437
0.00239342
0.00127108
0.000426118
0.0195296
0.0161891
0.0135242
0.0107702
0.00829677
0.00606734
0.00416274
0.00262923
0.00142628
0.000488761
0.0200176
0.0166104
0.0139132
0.0111573
0.00865073
0.0064005
0.00445073
0.0028615
0.00157827
0.000546948
0.0204999
0.0170654
0.0143206
0.0115661
0.00901758
0.0067397
0.00473917
0.00309093
0.00172785
0.000601756
0.0210273
0.0176171
0.0147876
0.0120254
0.00941833
0.00709796
0.00503574
0.0033216
0.00187722
0.000653668
0.0214574
0.0181792
0.0152455
0.0124776
0.00981493
0.00744625
0.0053237
0.00354397
0.00202283
0.000699284
0.0208607
0.0185028
0.0157162
0.013067
0.0104411
0.00805103
0.0058793
0.00399717
0.00233424
0.000802527
0.0206948
0.0183575
0.0156939
0.0132032
0.0106925
0.00839608
0.00625606
0.00435686
0.00260808
0.000926426
0.021228
0.0188297
0.016128
0.0136518
0.0111285
0.00882057
0.0066382
0.00468878
0.00285826
0.00105157
0.0220778
0.0194829
0.0166783
0.0141481
0.0115761
0.00922748
0.00698952
0.00499332
0.00310313
0.00119376
0.0232888
0.0203827
0.0174008
0.0147396
0.0120694
0.00964028
0.00733314
0.00529468
0.00336143
0.00135737
0.0247949
0.0215131
0.0182981
0.0154336
0.0126253
0.0100813
0.00769546
0.005606
0.00362989
0.00152298
0.0264526
0.0227841
0.0193061
0.0161951
0.0132282
0.01055
0.00808032
0.00591696
0.003861
0.00162284
0.028072
0.0239868
0.0202545
0.0169195
0.013817
0.0110186
0.00846263
0.00618358
0.00398806
0.00160698
0.0293333
0.024973
0.0210351
0.0175123
0.0143011
0.0114102
0.00877322
0.00635926
0.00400019
0.00150517
0.0301417
0.0254828
0.0214169
0.0178122
0.0145611
0.0116326
0.00895072
0.00644602
0.00397629
0.00141893
0.022499
0.0224415
0.0230496
0.0239966
0.0254003
0.0270983
0.0289781
0.0308768
0.0324228
0.0334579
0.0228586
0.0230802
0.0238461
0.02493
0.0264824
0.0283019
0.0302895
0.0322529
0.0338411
0.034842
0.0229896
0.0235296
0.0245577
0.0258969
0.0276809
0.0296937
0.0318375
0.0338627
0.035438
0.0363259
0.023214
0.0239835
0.0252226
0.0268002
0.0287981
0.0310058
0.0333256
0.0354684
0.0370959
0.037962
0.0235311
0.0245375
0.0259551
0.0277297
0.029902
0.0322753
0.034757
0.0370427
0.0387795
0.0397104
0.0238782
0.0251568
0.0267768
0.0287439
0.0310789
0.033603
0.0362288
0.0386501
0.0405064
0.041529
0.0242468
0.0258063
0.0276609
0.0298369
0.032348
0.0350315
0.0377997
0.0403446
0.0423046
0.0434048
0.0246525
0.0264842
0.0285923
0.0309878
0.0336919
0.0365521
0.039474
0.0421411
0.0441894
0.0453444
0.0251047
0.0271961
0.0295714
0.0321859
0.0350951
0.0381453
0.0412343
0.0440305
0.0461623
0.0473576
0.0256062
0.0279394
0.0305999
0.0334268
0.0365515
0.0397988
0.0430659
0.0460003
0.0482192
0.0494497
0.0261597
0.0287032
0.0316756
0.0347034
0.0380578
0.0415066
0.0449622
0.048044
0.0503566
0.0516221
0.0267624
0.029473
0.0327899
0.0360037
0.0396071
0.0432618
0.0469188
0.050158
0.052573
0.0538749
0.0273945
0.0302396
0.0339202
0.0373184
0.0411874
0.0450614
0.0489335
0.0523425
0.0548717
0.0562117
0.0280213
0.0310032
0.0350363
0.0386444
0.0427819
0.0468984
0.0509991
0.0545973
0.0572593
0.0586412
0.028595
0.0317693
0.0360838
0.0400015
0.0443864
0.0487686
0.0531144
0.0569171
0.0597237
0.0611577
0.0290552
0.0325511
0.0370964
0.0413166
0.0459708
0.050643
0.0552583
0.0592869
0.0622555
0.0637566
0.0294275
0.0332819
0.0380501
0.0425705
0.0475237
0.0525141
0.0574281
0.0617077
0.0648578
0.066443
0.0296731
0.0339264
0.0389029
0.0437364
0.0490036
0.054337
0.059583
0.0641518
0.0675175
0.0692128
0.0297699
0.0345124
0.039682
0.044854
0.0504538
0.0561559
0.0617576
0.0666405
0.0702464
0.0720808
0.0295314
0.0348362
0.0401734
0.0456737
0.0516064
0.0577123
0.0637428
0.0690414
0.0729826
0.0750224
0.0305873
0.0372338
0.0429764
0.0491267
0.0556967
0.0625295
0.0693046
0.0753502
0.0799247
0.0823902
0.0372468
0.043719
0.0498277
0.0569924
0.0646524
0.0726723
0.0805967
0.0876309
0.0929235
0.095733
0.0445583
0.0514694
0.0583573
0.06668
0.0754992
0.0847819
0.0938183
0.101717
0.107588
0.110713
0.0523209
0.0599947
0.0680515
0.0777006
0.087828
0.0985009
0.108616
0.117294
0.123615
0.126871
0.0605345
0.0691923
0.0786051
0.0896606
0.101195
0.113299
0.124415
0.133791
0.140445
0.143935
0.0693466
0.0790589
0.089956
0.102435
0.115415
0.128895
0.140915
0.150876
0.157582
0.160715
0.0781799
0.0890721
0.101363
0.11515
0.129518
0.144169
0.157005
0.167409
0.173912
0.177043
0.0869105
0.0986657
0.112228
0.127266
0.142985
0.158657
0.172433
0.183371
0.189344
0.190292
0.0928453
0.105654
0.120221
0.136225
0.152982
0.169405
0.184042
0.195287
0.200377
0.202909
0.0976649
0.110791
0.126053
0.14281
0.160435
0.177736
0.193961
0.207755
0.215214
0.200658
0.0284979
0.0347787
0.0411692
0.0483605
0.0557469
0.0641049
0.0721189
0.0807065
0.0858914
0.0906861
0.0279244
0.0344774
0.0407268
0.0477283
0.0548349
0.0629384
0.0705571
0.0788608
0.0834688
0.0881425
0.0277666
0.0346441
0.0409525
0.0478719
0.0548475
0.0627079
0.0699463
0.0777335
0.0817144
0.0860285
0.0274853
0.0344714
0.0407961
0.0476411
0.0545133
0.0621827
0.0691086
0.0764869
0.0801179
0.0840421
0.0271472
0.034112
0.0403718
0.0471229
0.0538483
0.0613052
0.0679476
0.0750253
0.0785075
0.0821302
0.0268085
0.0337344
0.0399262
0.0465756
0.0531638
0.0603727
0.0667514
0.0735494
0.0769527
0.080353
0.0264639
0.0333584
0.0395269
0.0460699
0.0525806
0.0595495
0.0657284
0.0722154
0.0755777
0.0787777
0.0261144
0.0329796
0.0391568
0.0456228
0.0520724
0.0588441
0.0649301
0.0710551
0.0744582
0.07743
0.0257728
0.0326129
0.0388118
0.0452328
0.0516256
0.0582651
0.0642773
0.070123
0.0735699
0.0763037
0.0254563
0.0322773
0.0385056
0.0449068
0.0512551
0.0578123
0.0637471
0.0694165
0.0728698
0.0754243
0.0251814
0.0319858
0.0382529
0.0446558
0.0509804
0.0574883
0.0633598
0.068916
0.0723544
0.0747975
0.0249434
0.0317324
0.0380546
0.0444808
0.0508079
0.0572958
0.0631346
0.068613
0.072037
0.0744148
0.0247225
0.0315025
0.0379026
0.0443764
0.0507348
0.0572367
0.0630784
0.0685095
0.0719303
0.0742661
0.0245068
0.0312934
0.0377938
0.0443396
0.0507584
0.0573112
0.0631885
0.0686056
0.0720341
0.0743436
0.0242833
0.0311068
0.0377257
0.044367
0.0508777
0.0575188
0.0634641
0.0689028
0.0723485
0.0746456
0.0240276
0.0309395
0.0376877
0.0444497
0.0510853
0.0578478
0.0638946
0.0693892
0.0728576
0.0751704
0.0237073
0.0307853
0.0376677
0.0445808
0.0513793
0.0582996
0.0644891
0.0700697
0.0735688
0.075924
0.0232794
0.0306169
0.0376321
0.0447257
0.0517194
0.0588294
0.0652061
0.0709063
0.074443
0.0769055
0.0227405
0.0304596
0.037614
0.044921
0.0521498
0.0594866
0.0660925
0.0719361
0.0755235
0.0781279
0.0218457
0.030043
0.0373647
0.0449066
0.052394
0.059998
0.066916
0.0729983
0.0766878
0.079578
0.0229018
0.0313791
0.0388221
0.0467008
0.0546795
0.0627058
0.0701434
0.076563
0.0805487
0.0837045
0.02901
0.0371432
0.0446088
0.0531363
0.0619081
0.0708579
0.0792781
0.0864434
0.0911067
0.0940116
0.0359181
0.0443749
0.0524966
0.0620572
0.0719189
0.0821732
0.0918547
0.100057
0.105475
0.108374
0.0430456
0.0522177
0.061542
0.0725691
0.0840124
0.0961479
0.107587
0.117411
0.124124
0.127638
0.0502654
0.0604561
0.0713281
0.0841028
0.0975576
0.112093
0.125899
0.138265
0.147358
0.152589
0.0576518
0.0690469
0.0817525
0.0964566
0.112312
0.129679
0.146617
0.162857
0.176456
0.185936
0.0644443
0.0773015
0.0917876
0.108479
0.12698
0.147426
0.168528
0.190592
0.211846
0.230788
0.0711635
0.0851746
0.10137
0.120106
0.141331
0.165176
0.191655
0.222033
0.256562
0.295486
0.0743781
0.0892209
0.106561
0.126785
0.150478
0.178253
0.211773
0.253973
0.310329
0.385193
0.0776265
0.0941739
0.11305
0.135386
0.162455
0.195645
0.238071
0.295877
0.383363
0.507342
0.0211391
0.0266758
0.0323447
0.0385787
0.0446566
0.0515293
0.0571655
0.063655
0.0664782
0.0684798
0.0205905
0.0261157
0.0316369
0.0375587
0.0432326
0.0498022
0.0549574
0.0612383
0.0637025
0.0660458
0.0204271
0.0259613
0.0314402
0.0371724
0.0426023
0.0488156
0.0535692
0.0594173
0.0614349
0.0646296
0.0202952
0.0256249
0.0309118
0.0364421
0.0416401
0.0475226
0.0519449
0.0573801
0.0590455
0.0626446
0.0202006
0.0251735
0.0301454
0.0354443
0.0403381
0.0458678
0.0499647
0.0550523
0.0564292
0.0599359
0.0201576
0.024714
0.0293582
0.0343689
0.0389693
0.0441094
0.0478709
0.0526434
0.0537525
0.0569317
0.0201548
0.0242668
0.0285984
0.0332683
0.0376545
0.042398
0.045852
0.0503277
0.0511946
0.0540405
0.0201882
0.0238315
0.0278476
0.0321906
0.036339
0.0407383
0.0439687
0.0481391
0.0488439
0.051435
0.0202573
0.023417
0.0271008
0.0311369
0.0350239
0.0391063
0.0422009
0.0460236
0.0467222
0.0490957
0.0203593
0.0230361
0.0263689
0.0301049
0.0337256
0.0375314
0.040478
0.0439548
0.0448217
0.0469274
0.0185863
0.0194191
0.0198603
0.0202724
0.0206163
0.0208793
0.0210641
0.02118
0.0212484
0.0211996
0.0186839
0.0195755
0.020002
0.0203706
0.0206484
0.0208285
0.0209201
0.0209361
0.0208998
0.0207662
0.0188642
0.0197767
0.020173
0.0204827
0.0206799
0.0207649
0.0207536
0.0206647
0.0205329
0.0203278
0.0191465
0.0200359
0.0203868
0.0206246
0.0207311
0.0207141
0.0205963
0.020402
0.0201739
0.0198864
0.0195484
0.0203666
0.020658
0.0208135
0.0208234
0.0207027
0.02048
0.0201842
0.0198612
0.0194834
0.0200829
0.0207809
0.0210003
0.0210659
0.0209767
0.0207543
0.0204319
0.0200416
0.0196275
0.01916
0.0207567
0.0212879
0.0214243
0.0213946
0.0212059
0.0208861
0.020471
0.019994
0.0194952
0.0189477
0.0215692
0.0218918
0.0219355
0.0218062
0.021519
0.0211065
0.0206059
0.02005
0.0194739
0.0188595
0.0225105
0.0225895
0.0225324
0.0223
0.0219154
0.0214148
0.0208355
0.0202097
0.0195655
0.0188784
0.023552
0.0233644
0.0232036
0.022866
0.0223859
0.021802
0.0211505
0.0204618
0.019757
0.0190175
0.0246333
0.0241946
0.023928
0.0234863
0.0229139
0.0222517
0.0215347
0.0207898
0.0200331
0.0192559
0.0257777
0.0250682
0.0246889
0.0241408
0.0234781
0.0227427
0.0219667
0.0211729
0.0203742
0.0195711
0.0269309
0.0259472
0.0254542
0.0248014
0.0240531
0.0232512
0.0224238
0.0215894
0.0207591
0.0199419
0.0280392
0.0267925
0.0261896
0.0254379
0.0246118
0.0237522
0.0228825
0.0220169
0.021166
0.0203469
0.0290532
0.0275645
0.0268604
0.0260199
0.025127
0.0242209
0.02332
0.0224338
0.0215745
0.0207665
0.0299252
0.0282241
0.027433
0.0265185
0.0255735
0.0246349
0.0237158
0.0228209
0.0219658
0.0211832
0.0306108
0.0287349
0.0278767
0.0269083
0.0259297
0.0249752
0.0240526
0.0231623
0.0223233
0.0215788
0.0310721
0.0290656
0.0281662
0.0271689
0.0261787
0.0252273
0.0243181
0.0234461
0.0226316
0.0219317
0.0312797
0.029192
0.0282826
0.0272861
0.0263095
0.0253823
0.0245039
0.0236608
0.0228681
0.0222134
0.0312143
0.0290984
0.0282141
0.027252
0.0263181
0.0254391
0.0246098
0.0238039
0.0230275
0.0224229
0.0308657
0.028777
0.0279553
0.0270645
0.026207
0.0254102
0.0246729
0.0239782
0.0233535
0.022965
0.0302272
0.0282253
0.0275056
0.0267227
0.0259724
0.0252819
0.0246532
0.0240761
0.0235728
0.0232553
0.0293135
0.0274547
0.0268727
0.0262307
0.0256139
0.0250486
0.0245386
0.0240785
0.0236802
0.0234032
0.0281497
0.0264839
0.0260707
0.0255989
0.0251397
0.0247186
0.0243422
0.0240096
0.023727
0.023526
0.0267693
0.0253389
0.0251198
0.0248434
0.0245638
0.0243055
0.0240786
0.0238865
0.0237324
0.0236355
0.0252133
0.0240518
0.0240455
0.0239851
0.0239041
0.0238252
0.0237625
0.0237229
0.0237083
0.0237311
0.0235284
0.0226589
0.0228769
0.0230476
0.0231804
0.0232951
0.0234089
0.0235326
0.0236683
0.0238239
0.0217635
0.0211984
0.0216447
0.0220555
0.0224133
0.0227324
0.0230327
0.0233287
0.0236244
0.0239258
0.0199678
0.019708
0.0203796
0.0210332
0.0216221
0.022153
0.0226472
0.0231223
0.0235854
0.0240439
0.0182021
0.0182283
0.0191119
0.0200037
0.0208247
0.0215707
0.022263
0.0229215
0.0235571
0.0241815
0.0165503
0.0168126
0.0178784
0.0189925
0.0200391
0.0209985
0.0218893
0.0227325
0.0235423
0.0243383
0.0149508
0.0154501
0.0166861
0.0180097
0.0192741
0.0204426
0.0215296
0.0225563
0.0235384
0.0245079
0.0134498
0.0141742
0.0155555
0.0170701
0.0185395
0.0199084
0.021186
0.0223916
0.0235396
0.0246767
0.0120866
0.0130107
0.0145022
0.0161848
0.0178423
0.0193987
0.0208576
0.0222347
0.0235389
0.0248252
0.0108764
0.0119682
0.0135441
0.0153642
0.0171851
0.018914
0.0205418
0.0220803
0.0235313
0.024934
0.00982774
0.0110557
0.0126872
0.0146126
0.0165721
0.0184541
0.020236
0.0219222
0.0235041
0.0250261
0.00894458
0.0102783
0.0119355
0.0139332
0.0160039
0.0180177
0.0199383
0.0217601
0.0234582
0.0250783
0.00822591
0.0096363
0.0112909
0.0133277
0.0154799
0.0176025
0.0196453
0.0215928
0.0233971
0.0250825
0.00766655
0.00912657
0.0107532
0.0127965
0.0149993
0.017206
0.019354
0.0214218
0.0233406
0.0250757
0.00725883
0.00874377
0.0103201
0.0123386
0.0145596
0.0168231
0.0190543
0.0212306
0.0232919
0.0251204
0.00699048
0.00847924
0.00998642
0.0119508
0.0141577
0.0164495
0.0187437
0.0210284
0.0233539
0.0256159
0.00683301
0.00831688
0.00974426
0.01163
0.0137893
0.0160709
0.0183806
0.0206812
0.0230144
0.0252721
0.00678868
0.00825396
0.00959107
0.0113759
0.0134556
0.015688
0.0179697
0.0202392
0.0225126
0.0247075
0.00684888
0.00828217
0.00952198
0.0111891
0.0131639
0.0153182
0.0175473
0.0197797
0.0220147
0.0241677
0.00700009
0.00839078
0.0095308
0.0110699
0.0129218
0.0149776
0.0171369
0.0193245
0.0215262
0.02365
0.0072291
0.00856926
0.00961075
0.0110171
0.0127343
0.0146759
0.0167499
0.0188793
0.0210391
0.0231367
0.00752361
0.0088075
0.00975448
0.011028
0.0126039
0.0144196
0.0163949
0.0184539
0.020562
0.022631
0.0078719
0.00909546
0.00995399
0.0110987
0.0125311
0.0142132
0.0160797
0.018058
0.020106
0.0221419
0.00826332
0.00942341
0.0102006
0.0112233
0.0125144
0.0140594
0.0158096
0.0176989
0.0196792
0.0216774
0.0086924
0.00978601
0.0104885
0.011397
0.0125513
0.0139585
0.0155876
0.0173809
0.0192872
0.0212438
0.00916007
0.0101857
0.0108192
0.0116213
0.012644
0.013914
0.015418
0.0171091
0.0189345
0.0208451
0.00963329
0.0105942
0.0111683
0.0118762
0.012778
0.0139165
0.0152958
0.0168811
0.0186197
0.0204773
0.010113
0.0110122
0.0115341
0.0121585
0.0129497
0.0139632
0.0152191
0.0166955
0.0183407
0.0201342
0.0105974
0.0114373
0.0119133
0.0124637
0.0131543
0.01405
0.0151847
0.0165498
0.0180945
0.0198108
0.0110826
0.0118654
0.0123007
0.0127862
0.0133863
0.0141721
0.0151893
0.0164416
0.0178786
0.0195019
0.0115654
0.0122932
0.0126923
0.0131211
0.0136406
0.0143253
0.0152299
0.0163692
0.0176912
0.0192017
0.0120435
0.0127184
0.013085
0.0134645
0.013913
0.0145058
0.0153043
0.0163326
0.0175336
0.0189075
0.0125156
0.0131393
0.0134769
0.0138135
0.0142
0.0147105
0.015411
0.0163339
0.0174137
0.0186252
0.0129809
0.013555
0.0138664
0.0141661
0.0144991
0.0149371
0.0155487
0.0163756
0.0173456
0.0183783
0.013439
0.0139651
0.0142531
0.0145215
0.0148094
0.0151855
0.015719
0.0164613
0.0173573
0.0182434
0.0138903
0.0143694
0.0146363
0.0148786
0.0151302
0.0154581
0.0159361
0.0166449
0.0176762
0.0189795
0.0143372
0.0147676
0.0150155
0.0152366
0.0154588
0.0157445
0.0161645
0.0167941
0.017731
0.0189219
0.0147783
0.0151597
0.0153908
0.0155952
0.0157936
0.0160406
0.0164002
0.0169363
0.0177277
0.0187388
0.0152126
0.0155453
0.015762
0.015954
0.0161346
0.0163499
0.0166568
0.0171135
0.0177868
0.0186486
0.015639
0.0159234
0.0161282
0.0163123
0.0164816
0.0166734
0.0169374
0.0173268
0.0178989
0.0186346
0.0160552
0.0162925
0.0164882
0.016669
0.0168334
0.0170098
0.0172401
0.0175712
0.018052
0.0186774
0.016458
0.0166508
0.0168405
0.0170228
0.0171886
0.0173574
0.017563
0.0178453
0.0182453
0.0187727
0.0168428
0.0169959
0.0171831
0.0173719
0.0175455
0.0177144
0.0179043
0.0181479
0.0184783
0.0189184
0.0172059
0.0173229
0.0175131
0.0177138
0.0179016
0.0180785
0.0182618
0.0184767
0.0187489
0.019111
0.0175357
0.0176295
0.0178277
0.0180461
0.0182545
0.018447
0.0186325
0.0188288
0.0190542
0.0193463
)
;

boundaryField
{
    inlet
    {
        type            zeroGradient;
    }
    outlet
    {
        type            fixedValue;
        value           uniform 0;
    }
    cylinder
    {
        type            zeroGradient;
    }
    top
    {
        type            symmetryPlane;
    }
    bottom
    {
        type            symmetryPlane;
    }
    defaultFaces
    {
        type            empty;
    }
}


// ************************************************************************* //
