/*--------------------------------*- C++ -*----------------------------------*\
  =========                 |
  \\      /  F ield         | OpenFOAM: The Open Source CFD Toolbox
   \\    /   O peration     | Website:  https://openfoam.org
    \\  /    A nd           | Version:  7
     \\/     M anipulation  |
\*---------------------------------------------------------------------------*/
FoamFile
{
    version     2.0;
    format      ascii;
    class       surfaceScalarField;
    location    "9.5";
    object      phi;
}
// * * * * * * * * * * * * * * * * * * * * * * * * * * * * * * * * * * * * * //

dimensions      [0 3 -1 0 0 0 0];

internalField   nonuniform List<scalar> 
35640
(
1.73608e-05
-0.000312913
0.000295552
6.56798e-05
-0.00068775
0.000639431
0.000143718
-0.000833307
0.000755269
0.0002509
-0.000798011
0.000690828
0.000387082
-0.000616579
0.000480398
0.000552348
-0.000315124
0.000149858
0.000746906
8.57252e-05
-0.000280283
0.000970991
0.000569575
-0.00079366
0.00122474
0.00112319
-0.00137694
0.0015081
0.00173559
-0.00201896
0.00182079
0.00239742
-0.0027101
0.00216215
0.00310036
-0.00344172
0.00253111
0.00383674
-0.0042057
0.0029261
0.00459919
-0.00499418
0.00334503
0.00538044
-0.00579937
0.00378529
0.00617319
-0.00661345
0.00424372
0.00697008
-0.00742852
0.00471671
0.00776374
-0.00823672
0.00520025
0.00854682
-0.00903035
0.00569005
0.00931218
-0.00980199
0.00618168
0.010053
-0.0105447
0.00667069
0.0107631
-0.0112521
0.00715277
0.0114368
-0.0119189
0.00762387
0.0120692
-0.0125403
0.0080803
0.0126566
-0.013113
0.00851891
0.0131958
-0.0136344
0.0089371
0.0136847
-0.0141029
0.00933303
0.0141215
-0.0145174
0.00970572
0.0145041
-0.0148768
0.0148258
0.0100554
-0.0151755
1.68728e-05
-0.000329785
6.32615e-05
-0.000734139
0.000137599
-0.000907645
0.000239173
-0.000899585
0.000367835
-0.00074524
0.000523735
-0.000471023
0.00070714
-9.76793e-05
0.000918348
0.000358367
0.0011576
0.000883943
0.00142497
0.00146822
0.00172031
0.00210207
0.00204319
0.00277749
0.00239278
0.00348715
0.00276785
0.00422411
0.00316671
0.00498158
0.00358714
0.00575276
0.00402645
0.00653077
0.0044815
0.00730868
0.00494874
0.00807958
0.00542429
0.00883663
0.00590407
0.00957326
0.00638392
0.0102833
0.00685972
0.010961
0.0073275
0.0116015
0.00778361
0.0122005
0.00822477
0.0127546
0.00864826
0.0132612
0.00905199
0.0137178
0.00943467
0.0141215
0.0144644
0.00979605
1.63329e-05
-0.000346119
6.06085e-05
-0.000778415
0.000130984
-0.00097802
0.000226701
-0.000995302
0.000347664
-0.000866203
0.000494101
-0.000617461
0.000666359
-0.000269937
0.000864824
0.000159902
0.00108982
0.000658945
0.00134153
0.00121651
0.00161994
0.00182366
0.00192477
0.00247266
0.00225542
0.0031565
0.00261093
0.00386861
0.0029899
0.00460261
0.00339051
0.00535214
0.00381048
0.0061108
0.00424707
0.00687209
0.00469717
0.00762948
0.0051573
0.0083765
0.00562377
0.00910679
0.0060927
0.00981432
0.00656021
0.0104935
0.0070225
0.0111392
0.00747596
0.011747
0.0079173
0.0123133
0.00834371
0.0128348
0.00875293
0.0133086
0.00914341
0.013731
0.0140934
0.00951441
1.57015e-05
-0.00036182
5.75649e-05
-0.000820278
0.000123636
-0.00104409
0.00021317
-0.00108484
0.00032615
-0.000979183
0.000462924
-0.000754234
0.000623949
-0.000430962
0.000809696
-2.58451e-05
0.00102059
0.000448053
0.00125691
0.000980193
0.00151874
0.00156183
0.00180593
0.00218546
0.00211808
0.00284435
0.00245442
0.00353227
0.00281383
0.0042432
0.0031948
0.00497117
0.0035954
0.0057102
0.00401328
0.00645421
0.0044457
0.00719706
0.00488959
0.00793261
0.0053416
0.00865478
0.00579819
0.00935773
0.00625573
0.0100359
0.0067106
0.0106843
0.00715933
0.0112983
0.00759866
0.0118739
0.00802575
0.0124077
0.00843822
0.0128961
0.00883432
0.0133349
0.0137149
0.00921285
1.49238e-05
-0.000376744
5.40696e-05
-0.000859424
0.000115432
-0.00110545
0.000198366
-0.00116777
0.000303001
-0.00108382
0.000429817
-0.000881049
0.000579409
-0.000580555
0.000752371
-0.000198807
0.000949215
0.000251209
0.00117031
0.0007591
0.00141584
0.00131631
0.00168577
0.00191553
0.00197982
0.0025503
0.00229742
0.00321468
0.00263765
0.00390296
0.00299927
0.00460955
0.00338064
0.00532883
0.00377974
0.00605511
0.0041942
0.0067826
0.0046213
0.00750551
0.00505803
0.00821805
0.00550118
0.00891459
0.00594738
0.00958973
0.00639324
0.0102384
0.00683543
0.0108561
0.00727081
0.0114385
0.00769652
0.011982
0.00811015
0.0124825
0.00850976
0.0129353
0.0133309
0.00889375
1.3988e-05
-0.000390732
5.00381e-05
-0.000895474
0.000106231
-0.00116165
0.000182087
-0.00124363
0.000277923
-0.00117965
0.000394403
-0.000997528
0.000532288
-0.00071844
0.000692299
-0.000358817
0.000875051
6.84572e-05
0.00108101
0.000553146
0.00131044
0.00108688
0.00156341
0.00166256
0.00183974
0.00227396
0.00213901
0.00291541
0.00246048
0.00358149
0.0028031
0.00426693
0.00316551
0.00496643
0.00354596
0.00567466
0.00394239
0.00638617
0.00435241
0.00709549
0.00477333
0.00779713
0.00520223
0.00848568
0.00563604
0.00915592
0.00607161
0.00980287
0.00650577
0.0104219
0.00693551
0.0110088
0.00735805
0.0115594
0.00777094
0.0120696
0.00817211
0.0125341
0.0129434
0.0085596
1.28577e-05
-0.00040359
4.54087e-05
-0.000928025
9.59211e-05
-0.00121216
0.000164157
-0.00131186
0.000250688
-0.00126618
0.000356392
-0.00110323
0.000482215
-0.000844263
0.000629031
-0.000505633
0.000797574
-0.000100085
0.000988396
0.000362324
0.00120186
0.000873416
0.0014381
0.00142631
0.00169705
0.00201502
0.00197838
0.00263408
0.0022815
0.00327837
0.00260554
0.00394288
0.00294934
0.00462264
0.00331139
0.0053126
0.0036899
0.00600766
0.00408277
0.00670263
0.0044876
0.0073923
0.00490176
0.00807152
0.00532245
0.00873523
0.00574674
0.00937858
0.00617169
0.00999697
0.00659442
0.0105861
0.00701224
0.0111416
0.00742273
0.0116591
0.00782369
0.0121331
0.0125542
0.00821286
1.15124e-05
-0.000415102
4.01228e-05
-0.000956635
8.44067e-05
-0.00125644
0.000144447
-0.0013719
0.000221117
-0.00134285
0.000315549
-0.00119766
0.000428906
-0.000957619
0.000562229
-0.000638955
0.000716375
-0.000254232
0.000892
0.000186699
0.00108955
0.000675869
0.00130924
0.00120662
0.00155107
0.00177318
0.00181482
0.00237033
0.00210001
0.00299319
0.0024059
0.00363699
0.00273149
0.00429705
0.0030755
0.00496859
0.00343635
0.00564681
0.00381218
0.0063268
0.00420086
0.00700362
0.00460003
0.00767235
0.00500714
0.00832813
0.00541949
0.00896623
0.00583435
0.00958211
0.006249
0.0101714
0.00666086
0.0107298
0.00706755
0.0112524
0.00746678
0.0117339
0.012165
0.00785602
9.93404e-06
-0.000425036
3.41415e-05
-0.000980843
7.16233e-05
-0.00129392
0.000122864
-0.00142314
0.00018909
-0.00140908
0.00027173
-0.0012803
0.000372179
-0.00105807
0.000491661
-0.000758438
0.000631176
-0.000393746
0.000791486
2.63884e-05
0.000973121
0.000494234
0.00117638
0.00100337
0.00140132
0.00154824
0.0016478
0.00212385
0.00191543
0.00272555
0.0022036
0.00334882
0.00251144
0.00398921
0.00283782
0.00464221
0.00318137
0.00530326
0.00354043
0.00596774
0.00391311
0.00663095
0.00429727
0.00728819
0.00469059
0.0079348
0.00509062
0.0085662
0.00549481
0.00917793
0.00590061
0.00976561
0.00630556
0.0103248
0.00670733
0.0108506
0.00710357
0.0113377
0.0117771
0.00749148
8.11297e-06
-0.000433149
2.744e-05
-0.00100017
5.75347e-05
-0.00132402
9.93641e-05
-0.00146497
0.000154558
-0.00146427
0.000224871
-0.00135062
0.000311953
-0.00114515
0.000417227
-0.000863712
0.000541843
-0.000518361
0.00068668
-0.000118448
0.000852355
0.000328558
0.00103924
0.000816482
0.00124747
0.00134001
0.00147695
0.00189437
0.00172739
0.00247511
0.00199825
0.00307796
0.00228879
0.00369867
0.00259802
0.00433298
0.0029247
0.00497658
0.00326737
0.00562507
0.00362433
0.00627399
0.00399365
0.00691887
0.00437323
0.00755522
0.0047608
0.00817862
0.00515402
0.00878471
0.0055505
0.00936913
0.0059479
0.00992741
0.00634391
0.0104546
0.00673616
0.0109454
0.0113916
0.0071216
6.04351e-06
-0.000439192
2.00108e-05
-0.00101414
4.21388e-05
-0.00134615
7.3955e-05
-0.00149679
0.000117538
-0.00150786
0.000175
-0.00140808
0.000248262
-0.00121841
0.000338955
-0.000954405
0.000448392
-0.000627798
0.000577574
-0.00024763
0.000727213
0.000178919
0.000897754
0.000645941
0.0010894
0.00114836
0.00130212
0.00168164
0.00153569
0.00224155
0.00178965
0.002824
0.00206334
0.00342498
0.00235589
0.00404043
0.0026662
0.00466627
0.00299295
0.00529832
0.00333461
0.00593233
0.00368943
0.00656404
0.00405549
0.00718916
0.00443071
0.0078034
0.00481291
0.0084025
0.00519987
0.00898217
0.00558934
0.00953794
0.00597907
0.0100649
0.0063666
0.0105579
0.0110095
0.0067487
3.72668e-06
-0.000442919
1.18656e-05
-0.00102228
2.54673e-05
-0.00135975
4.66965e-05
-0.00151802
7.81236e-05
-0.00153928
0.000122239
-0.00145219
0.00018125
-0.00127742
0.000257008
-0.00103016
0.000350994
-0.000721784
0.000464338
-0.000360974
0.00059785
4.5407e-05
0.000752055
0.000491736
0.000927223
0.000973197
0.00112339
0.00148548
0.00134038
0.00202456
0.00157781
0.00258657
0.00183511
0.00316768
0.00211148
0.00376406
0.00240594
0.00437181
0.0027173
0.00498695
0.00304416
0.00560547
0.00338494
0.00622326
0.00373788
0.00683623
0.00410104
0.00744023
0.00447242
0.00803113
0.0048499
0.00860469
0.00523134
0.0091565
0.00561452
0.00968173
0.0059969
0.0101755
0.0106313
0.00637507
1.16961e-06
-0.000444088
3.0343e-06
-0.00102414
7.58712e-06
-0.0013643
1.77025e-05
-0.00152813
3.64784e-05
-0.00155806
6.6802e-05
-0.00148252
0.000111178
-0.0013218
0.000171683
-0.00109067
0.000249973
-0.000800073
0.00034731
-0.000458312
0.00046461
-7.18929e-05
0.000602481
0.000353865
0.000761262
0.000814416
0.000941054
0.00130568
0.00114174
0.00182387
0.001363
0.0023653
0.00160433
0.00292635
0.00186502
0.00350337
0.00214418
0.00409265
0.00244073
0.00469041
0.00275338
0.00529281
0.00308069
0.00589596
0.00342102
0.0064959
0.0037726
0.00708866
0.00413352
0.0076702
0.00450181
0.00823641
0.00487536
0.00878294
0.00525197
0.00930511
0.00562903
0.00979845
0.0102574
0.00600293
-1.61634e-06
-0.000442472
-6.43385e-06
-0.00101932
-1.13989e-05
-0.00135934
-1.28592e-05
-0.00152667
-7.1595e-06
-0.00156376
8.99662e-06
-0.00149867
3.84169e-05
-0.00135122
8.34094e-05
-0.00113566
0.000145805
-0.000862468
0.000227003
-0.00053951
0.000328028
-0.000172918
0.000449577
0.000232315
0.000592065
0.000671928
0.000755657
0.00114209
0.0009403
0.00163923
0.00114574
0.00215987
0.00137152
0.00270057
0.00161703
0.00325786
0.00188144
0.00382823
0.00216378
0.00440808
0.00246285
0.00499374
0.00277732
0.00558149
0.00310568
0.00616754
0.00344627
0.00674807
0.0037973
0.00731917
0.00415685
0.00787686
0.00452288
0.00841691
0.00489316
0.00893484
0.00526496
0.00942664
0.00988786
0.00563454
-4.60879e-06
-0.000437863
-1.64705e-05
-0.00100746
-3.13524e-05
-0.00134445
-4.47677e-05
-0.00151326
-5.24813e-05
-0.00155605
-5.07802e-05
-0.00150037
-3.65508e-05
-0.00136545
-7.25523e-06
-0.00116496
3.91128e-05
-0.000908836
0.000104093
-0.00060449
0.000188822
-0.000257647
0.000294092
0.000127046
0.000420396
0.000545624
0.000567972
0.000994517
0.00073683
0.00147037
0.00092678
0.00196992
0.00113744
0.00248991
0.00136825
0.00302705
0.00161848
0.00357801
0.00188721
0.00413934
0.00217337
0.00470758
0.00247571
0.00527915
0.00279282
0.00585043
0.00312313
0.00641776
0.00346493
0.00697737
0.00381637
0.00752541
0.00417543
0.00805785
0.00453981
0.00857045
0.00490668
0.00905977
0.00952244
0.0052721
-7.78325e-06
-0.000430079
-2.69881e-05
-0.000988255
-5.21003e-05
-0.00131934
-7.77512e-05
-0.00148761
-9.91097e-05
-0.00153469
-0.000112045
-0.00148744
-0.00011314
-0.00136435
-9.96313e-05
-0.00117846
-6.93389e-05
-0.000939128
-2.05828e-05
-0.000653247
4.78898e-05
-0.00032612
0.000136969
3.79669e-05
0.000247233
0.000435359
0.000378998
0.000862753
0.000532344
0.00131702
0.000707148
0.00179511
0.000903097
0.00229396
0.0011197
0.00281045
0.0013563
0.00334141
0.00161206
0.00388358
0.00188599
0.00443365
0.00217693
0.00498821
0.00248355
0.00554382
0.00280436
0.00609694
0.00313773
0.006644
0.00348183
0.00718131
0.00383461
0.00770507
0.00419372
0.00821134
0.00455617
0.00869732
0.00916076
0.00491785
-1.11073e-05
-0.000418972
-3.7881e-05
-0.000961481
-7.34372e-05
-0.00128379
-0.000111489
-0.00144955
-0.000146603
-0.00149957
-0.000174233
-0.00145981
-0.000190667
-0.00134792
-0.000192924
-0.00117621
-0.000178653
-0.000953399
-0.000146036
-0.000685864
-9.37018e-05
-0.000378454
-2.066e-05
-3.50749e-05
7.37606e-05
0.000340938
0.000189957
0.000746556
0.000328089
0.00117889
0.000488104
0.0016351
0.000669762
0.0021123
0.000872647
0.00260756
0.00109617
0.00311788
0.00133959
0.00364016
0.00160198
0.00417126
0.00188226
0.00470793
0.00217919
0.00524689
0.00249135
0.00578478
0.00281714
0.00631821
0.00315475
0.00684371
0.00350209
0.00735773
0.0038567
0.00785673
0.00421545
0.00833858
0.00880219
0.00457401
-1.45425e-05
-0.00040443
-4.90264e-05
-0.000926997
-9.51271e-05
-0.00123768
-0.000145618
-0.00139906
-0.00019446
-0.00145073
-0.000236706
-0.00141756
-0.000268358
-0.00131627
-0.000286229
-0.00115834
-0.000287805
-0.000951823
-0.000271133
-0.000702537
-0.000234724
-0.000414864
-0.000177482
-9.23168e-05
-9.86406e-05
0.000262097
2.28635e-06
0.000645629
0.000125541
0.00105564
0.000271153
0.00148949
0.000438959
0.00194449
0.000628622
0.0024179
0.000839633
0.00290687
0.00107132
0.00340848
0.00132285
0.00391973
0.00159323
0.00443755
0.00188127
0.00495884
0.00218563
0.00548042
0.00250473
0.00599911
0.00283677
0.00651167
0.00317959
0.0070149
0.00353062
0.0075057
0.00388652
0.00798268
0.0084459
0.0042428
-1.80452e-05
-0.000386384
-6.02859e-05
-0.000884756
-0.000116907
-0.00118106
-0.000179731
-0.00133624
-0.000242127
-0.00138834
-0.000298756
-0.00136093
-0.000345357
-0.00126966
-0.000378547
-0.00112515
-0.000395659
-0.000934711
-0.000394609
-0.000703587
-0.000373794
-0.000435679
-0.000332012
-0.000134099
-0.000268397
0.000198482
-0.000182367
0.0005596
-7.35922e-05
0.000946861
5.80436e-05
0.00135785
0.000212463
0.00179007
0.000389412
0.00224095
0.000588465
0.00270782
0.000809035
0.00318791
0.00105037
0.00367839
0.00131156
0.00417637
0.0015915
0.0046789
0.0018889
0.00518303
0.00220222
0.00568579
0.00252962
0.00618426
0.00286891
0.00667562
0.00321736
0.00715725
0.00357142
0.00762861
0.00809089
0.00392644
-2.15663e-05
-0.000364818
-7.15075e-05
-0.000834815
-0.000138489
-0.00111408
-0.000213392
-0.00126134
-0.000289003
-0.00131273
-0.00035962
-0.00129031
-0.000420735
-0.00120855
-0.000468787
-0.00107709
-0.000500968
-0.00090253
-0.000515072
-0.000689483
-0.000509385
-0.000441365
-0.0004826
-0.000160884
-0.000433747
0.000149629
-0.000362149
0.000488001
-0.000267379
0.000852091
-0.000149231
0.0012397
-7.68959e-06
0.00164853
0.000157077
0.00207619
0.000344733
0.00252016
0.00055478
0.00297786
0.000786559
0.00344661
0.00103924
0.00392368
0.00131182
0.00440633
0.00160305
0.0048918
0.00191143
0.0053774
0.00223514
0.00586055
0.00257189
0.00633887
0.00291882
0.00681033
0.00327218
0.00727524
0.00773597
0.0036271
-2.50527e-05
-0.000339765
-8.2528e-05
-0.00077734
-0.000159569
-0.00103704
-0.000246131
-0.00117477
-0.000334451
-0.00122441
-0.000418484
-0.00120628
-0.000493501
-0.00113353
-0.000555783
-0.00101481
-0.000602394
-0.00085592
-0.000631017
-0.00066086
-0.000639834
-0.000432549
-0.000627434
-0.000173285
-0.000592747
0.000114942
-0.000534994
0.000430249
-0.000453654
0.000770751
-0.000348422
0.00113447
-0.000219192
0.0015193
-6.60366e-05
0.00192303
0.000110798
0.00234332
0.000310908
0.00277775
0.000533731
0.00322379
0.000778534
0.00367888
0.00104439
0.00414046
0.00133016
0.00460603
0.00163439
0.00507317
0.00195526
0.00553969
0.00229043
0.00600369
0.00263693
0.00646383
0.00299081
0.00692136
0.00737982
0.00334696
-2.84483e-05
-0.000311317
-9.3176e-05
-0.000712612
-0.000179827
-0.000950391
-0.000277464
-0.00107714
-0.000377806
-0.00112406
-0.000474498
-0.00110959
-0.000562617
-0.00104541
-0.000638305
-0.000939123
-0.000698516
-0.000795709
-0.000740835
-0.000618541
-0.000763349
-0.000410035
-0.00076455
-0.000172084
-0.000743268
9.36602e-05
-0.00069863
0.000385611
-0.000630013
0.000702134
-0.000537017
0.00104147
-0.000419441
0.00140173
-0.000277266
0.00178086
-0.000110644
0.0021767
8.01149e-05
0.00258699
0.000294547
0.00300936
0.000532022
0.0034414
0.000791722
0.00388076
0.0010726
0.00432515
0.0013733
0.00477247
0.00169205
0.00522093
0.00202653
0.00566922
0.00237365
0.00611671
0.0027293
0.00656571
0.00702098
0.00308815
-3.16945e-05
-0.000279623
-0.000103276
-0.000641031
-0.000198935
-0.000854732
-0.000306892
-0.000969179
-0.000418386
-0.00101257
-0.000526788
-0.00100118
-0.000627007
-0.000945195
-0.00071507
-0.000851059
-0.000787842
-0.000722937
-0.000842826
-0.000563558
-0.000878023
-0.000374838
-0.000891836
-0.000158271
-0.000883008
8.48318e-05
-0.000850569
0.000353172
-0.000793803
0.000645368
-0.000712215
0.000959884
-0.000605512
0.00129502
-0.00047359
0.00164893
-0.000316511
0.00201962
-0.000134493
0.00240497
7.20939e-05
0.00280277
0.000302724
0.00321077
0.000556695
0.00362679
0.000833088
0.00404876
0.00113068
0.00447488
0.00144784
0.00490378
0.0017823
0.00533476
0.00213099
0.00576801
0.0024897
0.00620701
0.00665788
0.00285279
-3.47322e-05
-0.00024489
-0.000112649
-0.000563114
-0.000216565
-0.000750816
-0.000333915
-0.000851829
-0.000455505
-0.000890981
-0.000574469
-0.000882219
-0.000685577
-0.000834087
-0.000784767
-0.000751868
-0.000868835
-0.00063887
-0.000935217
-0.000497176
-0.000981846
-0.000328209
-0.00100705
-0.000133066
-0.00100949
8.72713e-05
-0.000988112
0.000331794
-0.000942112
0.000599368
-0.000870908
0.000888681
-0.000774127
0.00119824
-0.000651583
0.00152639
-0.000503263
0.0018713
-0.000329307
0.00223102
-0.000130003
0.00260346
9.42181e-05
0.00298655
0.000342772
0.00337824
0.000614889
0.00377664
0.000909539
0.00418023
0.00122529
0.00458802
0.00156013
0.00499992
0.00191113
0.00541701
0.00227407
0.00584406
0.0062889
0.00264305
-3.75029e-05
-0.000207388
-0.000121123
-0.000479494
-0.000232395
-0.000639544
-0.00035804
-0.000726184
-0.000488483
-0.000760538
-0.00061666
-0.000754043
-0.00073723
-0.000713517
-0.000846068
-0.00064303
-0.000939922
-0.000545016
-0.00101618
-0.000420916
-0.00107273
-0.000271663
-0.00110783
-9.79654e-05
-0.00112008
9.95205e-05
-0.00110835
0.000320066
-0.00107177
0.000562783
-0.00100967
0.000826584
-0.000921618
0.00111019
-0.000807363
0.00141214
-0.000666831
0.00173077
-0.000500111
0.0020643
-0.000307435
0.00241079
-8.91676e-05
0.00276829
0.000154204
0.00313487
0.000422064
0.00350878
0.000713613
0.00388868
0.00102776
0.00427388
0.00136289
0.00466479
0.00171653
0.00506336
0.00208472
0.00547587
0.00591235
0.00246128
-3.99506e-05
-0.000167437
-0.000128531
-0.000390914
-0.000246115
-0.000521959
-0.000378794
-0.000593506
-0.000516665
-0.000622667
-0.000652503
-0.000618205
-0.000780888
-0.000585132
-0.000897655
-0.000526263
-0.000999527
-0.000443144
-0.00108387
-0.000336576
-0.00114852
-0.000207009
-0.00119172
-5.47694e-05
-0.001212
0.000119803
-0.00120819
0.000316255
-0.00117934
0.000533937
-0.00112475
0.000771992
-0.00104392
0.00102936
-0.00093655
0.00130477
-0.000802546
0.00159677
-0.000641971
0.00190372
-0.00045505
0.00222387
-0.000242131
0.00255537
-3.65786e-06
0.00289639
0.00025986
0.00324527
0.000547861
0.00360068
0.000859675
0.00396206
0.00119436
0.00433011
0.00155032
0.0047074
0.00192439
0.0051018
0.00552649
0.00231025
-4.20236e-05
-0.000125413
-0.000134716
-0.000298221
-0.000257437
-0.000399238
-0.000395731
-0.000455212
-0.000539429
-0.000478969
-0.00068118
-0.000476454
-0.000815514
-0.000450799
-0.000938248
-0.00040353
-0.0010461
-0.000335292
-0.00113643
-0.000246248
-0.00120706
-0.000136375
-0.00125621
-5.62103e-06
-0.00128239
0.000145981
-0.00128438
0.000318243
-0.0012612
0.000510758
-0.0012121
0.000722894
-0.00113656
0.000953815
-0.00103426
0.00120247
-0.000905094
0.0014676
-0.000749152
0.00174778
-0.000566701
0.00204142
-0.00035815
0.00234682
-0.000124003
0.00266225
0.000135229
0.00298603
0.000419125
0.00331678
0.000727439
0.00365375
0.0010601
0.00399745
0.001417
0.0043505
0.00179684
0.00472197
0.00512954
0.00219378
-4.36761e-05
-8.17374e-05
-0.000139542
-0.000202355
-0.000266101
-0.000272679
-0.000408451
-0.000312862
-0.000556209
-0.00033121
-0.000701935
-0.000330727
-0.000840134
-0.0003126
-0.000966627
-0.000277036
-0.00107815
-0.000223772
-0.00117206
-0.000152335
-0.00124621
-6.2229e-05
-0.00129879
4.69628e-05
-0.00132832
0.000175513
-0.00133357
0.000323486
-0.00131352
0.000490714
-0.00126742
0.000676797
-0.00119473
0.000881124
-0.00109514
0.00110287
-0.000968545
0.00134101
-0.000815103
0.00159434
-0.000635174
0.00186149
-0.000429313
0.00214095
-0.00019821
0.00243114
5.74252e-05
0.0027304
0.000337067
0.00303714
0.000640661
0.00335016
0.000968958
0.00366915
0.0013238
0.00399565
0.00170754
0.00433824
0.00471926
0.00211781
-4.48693e-05
-3.68682e-05
-0.000142891
-0.000104334
-0.000271886
-0.000143684
-0.000416602
-0.000168146
-0.000566502
-0.000181309
-0.000714089
-0.00018314
-0.000853866
-0.000172824
-0.000981674
-0.000149228
-0.00109427
-0.000111172
-0.00118906
-5.75472e-05
-0.0012639
1.26088e-05
-0.00131701
0.000100077
-0.00134693
0.000205424
-0.0013524
0.000328963
-0.00133245
0.00047076
-0.0012863
0.000630646
-0.00121341
0.000808238
-0.00111349
0.00100295
-0.000986475
0.001214
-0.000832578
0.00144044
-0.000652278
0.00168119
-0.000446324
0.001935
-0.000215698
0.00220052
3.84879e-05
0.00247621
0.000315227
0.0027604
0.000614078
0.0030513
0.000935902
0.00334733
0.00128388
0.00364768
0.00166519
0.00395693
0.00429029
0.00209416
-4.55724e-05
8.7041e-06
-0.000144668
-5.23823e-06
-0.000274609
-1.37431e-05
-0.000419895
-2.28603e-05
-0.000569889
-3.13155e-05
-0.000717065
-3.59643e-05
-0.000855942
-3.39465e-05
-0.000982397
-2.27728e-05
-0.00109323
-3.40253e-07
-0.00118587
3.50978e-05
-0.00125824
8.4971e-05
-0.00130858
0.000150419
-0.00133545
0.000232294
-0.00133764
0.000331156
-0.00131418
0.0004473
-0.00126432
0.000580781
-0.00118752
0.000731443
-0.00108351
0.000898932
-0.000952233
0.00108273
-0.000793951
0.00128216
-0.000609215
0.00149645
-0.000398913
0.0017247
-0.000164272
0.00196588
9.3196e-05
0.00221874
0.000371862
0.00248173
0.000670465
0.0027527
0.000989086
0.00302871
0.00133002
0.00330674
0.00170322
0.00358373
0.00215694
0.00383657
0.0102538
0.0873808
-0.0875792
0.00988702
0.0895448
-0.089178
0.00928289
0.0875673
-0.0869632
0.0086186
0.0840353
-0.083371
0.008008
0.0801973
-0.0795867
0.00748487
0.0766077
-0.0760846
0.00704517
0.0733923
-0.0729526
0.00667228
0.0705385
-0.0701656
0.00634808
0.0680165
-0.0676923
0.00605746
0.0658039
-0.0655133
0.005788
0.0638975
-0.0636281
0.00553133
0.0623053
-0.0620486
0.00528135
0.0610312
-0.0607812
0.005034
0.0600637
-0.0598163
0.00478641
0.0593688
-0.0591212
0.00453647
0.0589019
-0.058652
0.00428252
0.0586157
-0.0583617
0.00402327
0.0584644
-0.0582052
0.00375826
0.0584126
-0.0581476
0.00348705
0.0584313
-0.0581601
0.00321013
0.058498
-0.0582211
0.00292764
0.058597
-0.0583145
0.00264021
0.0587136
-0.0584262
0.00234836
0.0588379
-0.0585461
0.00205235
0.0589594
-0.0586634
0.00175237
0.0590722
-0.0587722
0.00144829
0.0591721
-0.0588681
0.00114029
0.0592609
-0.0589529
0.000829208
0.0593399
-0.0590288
0.0593798
-0.059069
0.0101584
0.0870184
0.00990274
0.0898005
0.00936844
0.0881016
0.00874135
0.0846624
0.00814891
0.0807897
0.00763428
0.0771224
0.00719889
0.0738276
0.00682807
0.0709093
0.00650417
0.0683404
0.00621233
0.0660957
0.00594051
0.0641694
0.00568029
0.0625655
0.00542599
0.0612855
0.00517385
0.0603158
0.00492101
0.0596217
0.00466528
0.0591577
0.00440512
0.0588759
0.0041391
0.0587305
0.0038668
0.0586849
0.00358782
0.0587103
0.00330249
0.0587833
0.00301118
0.0588883
0.00271436
0.0590104
0.00241276
0.0591395
0.0021065
0.0592657
0.00179594
0.0593827
0.0014809
0.0594872
0.00116165
0.0595801
0.000839145
0.0596624
0.0597023
0.0100411
0.0864918
0.00990088
0.0899406
0.00944141
0.0885611
0.00885546
0.0852484
0.00828383
0.0813614
0.0077792
0.077627
0.00734898
0.0742579
0.00698084
0.0712774
0.00665781
0.0686634
0.00636523
0.0663883
0.0060915
0.0644431
0.00582818
0.0628288
0.00556995
0.0615437
0.00531329
0.0605725
0.00505541
0.0598795
0.00479405
0.059419
0.00452778
0.0591421
0.00425505
0.0590032
0.0039755
0.0589644
0.00368878
0.058997
0.00339504
0.0590771
0.00309494
0.0591884
0.00278874
0.0593166
0.00247736
0.0594509
0.00216084
0.0595822
0.00183968
0.0597039
0.00151367
0.0598132
0.00118314
0.0599106
0.000849173
0.0599964
0.0600365
0.00990256
0.0858021
0.00988137
0.0899618
0.00950142
0.088941
0.00896045
0.0857893
0.00841231
0.0819095
0.00791929
0.07812
0.00749512
0.074682
0.00713027
0.0716423
0.00680867
0.068985
0.00651592
0.0666811
0.00624078
0.0647182
0.00597488
0.0630947
0.00571313
0.0618055
0.00545225
0.0608334
0.00518953
0.0601423
0.00492273
0.0596858
0.00465043
0.0594144
0.0043711
0.0592825
0.00408432
0.0592512
0.00378986
0.0592915
0.00348779
0.0593791
0.00317884
0.0594974
0.00286331
0.0596322
0.0025421
0.0597721
0.00221536
0.059909
0.00188356
0.0600357
0.00154656
0.0601502
0.00120476
0.0602525
0.000859275
0.0603419
0.0603826
0.00974391
0.0849519
0.00984443
0.0898613
0.00954823
0.0892372
0.00905594
0.0862816
0.00853394
0.0824315
0.00805415
0.0785998
0.00763692
0.0750993
0.00727598
0.0720032
0.00695648
0.0693045
0.00666422
0.0669733
0.00638814
0.0649943
0.0061202
0.0633627
0.00585542
0.0620703
0.00559067
0.0610981
0.00532333
0.0604096
0.00505129
0.0599579
0.00477303
0.0596927
0.00448721
0.0595683
0.00419324
0.0595452
0.00389103
0.0595937
0.00358067
0.0596895
0.00326285
0.0598152
0.00293801
0.059957
0.00260697
0.0601032
0.00227001
0.0602459
0.00192753
0.0603782
0.00157954
0.0604982
0.00122646
0.0606055
0.000869436
0.0606989
0.0607405
0.00956621
0.0839453
0.00979041
0.0896371
0.00958168
0.0894459
0.0091416
0.0867217
0.00864835
0.0829247
0.00818338
0.0790648
0.00777404
0.0755086
0.00741769
0.0723595
0.0071009
0.0696213
0.0068098
0.0672644
0.00653343
0.0652707
0.00626402
0.0636321
0.00599669
0.0623376
0.00572844
0.0613664
0.00545677
0.0606813
0.00517965
0.060235
0.00489558
0.0599768
0.00460332
0.0598606
0.00430222
0.0598463
0.00399227
0.0599037
0.00367364
0.0600081
0.00334696
0.0601419
0.0030128
0.0602912
0.00267192
0.060444
0.00232474
0.0605931
0.0019716
0.0607313
0.00161262
0.0608572
0.00124824
0.0609699
0.000879649
0.0610675
0.0611104
0.00937079
0.0827874
0.00971984
0.089288
0.00960172
0.0895641
0.00921716
0.0871063
0.00875519
0.0833867
0.00830662
0.0795134
0.00790611
0.0759091
0.00755505
0.0727106
0.00724163
0.0699347
0.00695237
0.0675537
0.00667642
0.0655466
0.00640616
0.0639023
0.00613681
0.0626069
0.00586547
0.0616377
0.00558978
0.060957
0.0053078
0.0605169
0.00501804
0.0602665
0.00471942
0.0601592
0.00441124
0.0601545
0.00409358
0.0602213
0.00376666
0.060335
0.00343114
0.0604774
0.00308765
0.0606347
0.00273693
0.0607948
0.00237953
0.0609505
0.00201573
0.0610951
0.00164576
0.0612271
0.00127008
0.0613456
0.000889908
0.0614477
0.0614922
0.0091591
0.0814843
0.00963343
0.0888137
0.00960847
0.089589
0.00928247
0.0874323
0.00885416
0.083815
0.00842352
0.079944
0.00803278
0.0762999
0.00768773
0.0730557
0.00737834
0.0702441
0.00709165
0.0678404
0.00681688
0.0658214
0.00654646
0.0641728
0.00627567
0.0628777
0.00600168
0.0619117
0.00572229
0.0612364
0.00543568
0.0608036
0.00514038
0.0605618
0.00483547
0.0604641
0.00452027
0.0604697
0.00419492
0.0605467
0.00385972
0.0606702
0.00351535
0.0608218
0.00316253
0.0609875
0.00280198
0.0611553
0.00243433
0.0613182
0.0020599
0.0614696
0.00167894
0.0616081
0.00129195
0.0617326
0.000900199
0.0618394
0.0618861
0.00893275
0.080043
0.00953205
0.0882144
0.00960218
0.0895189
0.00933744
0.087697
0.00894502
0.0842074
0.00853377
0.0803552
0.0081537
0.0766799
0.00781536
0.073394
0.0075107
0.0705488
0.00722736
0.0681237
0.00695456
0.0660942
0.00668471
0.0644426
0.0064131
0.0631493
0.00613696
0.0621879
0.00585423
0.0615191
0.00556323
0.0610946
0.00526257
0.0608625
0.00495146
0.0607752
0.0046293
0.0607918
0.00429628
0.0608797
0.00395281
0.0610137
0.00359959
0.061175
0.00323742
0.0613497
0.00286703
0.0615257
0.00248914
0.061696
0.00210407
0.0618546
0.00171215
0.062
0.00131386
0.0621309
0.000910511
0.0622428
0.0622919
0.00869345
0.0784712
0.00941677
0.0874911
0.00958325
0.0893524
0.00938213
0.0878981
0.00902758
0.084562
0.0086371
0.0807457
0.00826855
0.0770485
0.0079376
0.073725
0.00763837
0.070848
0.00735919
0.0684029
0.00708922
0.0663642
0.00682072
0.0647111
0.00654896
0.0634211
0.0062712
0.0624656
0.00598552
0.0618048
0.0056904
0.0613897
0.00538457
0.0611683
0.00506735
0.0610925
0.00473829
0.0611209
0.00439764
0.0612203
0.00404589
0.0613654
0.00368383
0.0615371
0.0033123
0.0617212
0.00293207
0.0619059
0.00254393
0.0620842
0.00214824
0.0622503
0.00174536
0.0624029
0.00133578
0.0625404
0.000920838
0.0626577
0.0627097
0.00844303
0.0767768
0.00928876
0.0866454
0.00955221
0.089089
0.00941667
0.0880337
0.00910177
0.0848769
0.00873329
0.0811142
0.00837702
0.0774047
0.00805411
0.0740479
0.00776102
0.0711411
0.00748684
0.0686771
0.00722056
0.0666305
0.00695427
0.0649774
0.00668308
0.0636923
0.00640426
0.0627444
0.00611607
0.062093
0.00581713
0.0616886
0.00550633
0.0614791
0.00518313
0.0614157
0.00484724
0.0614568
0.00449899
0.0615686
0.00413898
0.0617255
0.00376806
0.061908
0.00338717
0.0621021
0.00299708
0.062296
0.0025987
0.0624826
0.00219238
0.0626566
0.00177855
0.0628167
0.00135771
0.0629613
0.000931179
0.0630842
0.0631396
0.00818339
0.0749685
0.00914935
0.0856794
0.00950974
0.0887286
0.00944133
0.0881021
0.00916755
0.0851507
0.00882216
0.0814596
0.00847884
0.0777481
0.00816459
0.0743621
0.00787833
0.0714274
0.00760998
0.0689454
0.00734834
0.0668921
0.00708512
0.0652406
0.00681528
0.0639621
0.00653602
0.0630237
0.00624577
0.0623832
0.00594333
0.0619911
0.0056278
0.0617946
0.00529875
0.0617447
0.00495612
0.0617994
0.00460031
0.0619244
0.00423205
0.0620937
0.00385227
0.0622878
0.003462
0.0624923
0.00306206
0.062696
0.00265342
0.0628912
0.00223649
0.0630736
0.00181172
0.0632415
0.00137964
0.0633934
0.000941534
0.0635223
0.0635815
0.00791649
0.073055
0.00899998
0.0845959
0.00945668
0.0882719
0.00945652
0.0881022
0.00922502
0.0853822
0.00890363
0.081781
0.00857379
0.0780779
0.00826873
0.0746672
0.00798996
0.0717061
0.00772831
0.0692071
0.00747225
0.0671482
0.00721304
0.0654998
0.00694535
0.0642298
0.00666632
0.0633027
0.00637451
0.062675
0.00606894
0.0622966
0.00574891
0.0621147
0.00541418
0.0620794
0.00506489
0.0621487
0.00470158