/*--------------------------------*- C++ -*----------------------------------*\
  =========                 |
  \\      /  F ield         | OpenFOAM: The Open Source CFD Toolbox
   \\    /   O peration     | Website:  https://openfoam.org
    \\  /    A nd           | Version:  7
     \\/     M anipulation  |
\*---------------------------------------------------------------------------*/
FoamFile
{
    version     2.0;
    format      ascii;
    class       volVectorField;
    location    "9.5";
    object      U;
}
// * * * * * * * * * * * * * * * * * * * * * * * * * * * * * * * * * * * * * //

dimensions      [0 1 -1 0 0 0 0];

internalField   nonuniform List<vector> 
18000
(
(0.000451332 -0.00913181 3.71047e-21)
(0.00266341 -0.0199004 0)
(0.00683604 -0.0237776 0)
(0.0122102 -0.0222225 0)
(0.0186781 -0.0162703 -1.23344e-21)
(0.0260745 -0.00670291 6.24202e-21)
(0.0342824 0.00586136 -1.26414e-21)
(0.0432094 0.0209296 1.27281e-21)
(0.0527756 0.0381023 0)
(0.0629071 0.0570469 -3.85071e-21)
(0.0735328 0.0774779 -1.28826e-21)
(0.0845791 0.0991401 0)
(0.0959663 0.121796 2.56855e-21)
(0.107608 0.145217 2.57556e-21)
(0.119409 0.169175 -5.14053e-21)
(0.131268 0.193443 -5.13201e-21)
(0.143077 0.21779 0)
(0.154723 0.241988 -7.68699e-21)
(0.166094 0.265807 2.553e-21)
(0.177078 0.289027 -7.67081e-21)
(0.187569 0.311442 2.54711e-21)
(0.197469 0.332859 0)
(0.206696 0.353111 -2.52428e-21)
(0.215178 0.372056 -2.54579e-21)
(0.222862 0.389581 0)
(0.229713 0.405602 0)
(0.235712 0.420061 -5.11022e-21)
(0.240864 0.432918 -5.11614e-21)
(0.245191 0.444119 -5.18018e-21)
(0.248611 0.453478 5.48166e-21)
(0.000706294 -0.00961605 5.28891e-21)
(0.00316327 -0.0212254 9.22948e-21)
(0.00729033 -0.0258688 -9.46252e-21)
(0.0123819 -0.025033 -9.66291e-21)
(0.018367 -0.0197708 -2.46178e-21)
(0.0251158 -0.0108753 7.46476e-21)
(0.0325409 0.00102777 -1.00721e-20)
(0.040574 0.0154432 -1.01522e-20)
(0.0491547 0.0319727 1.02093e-20)
(0.0582271 0.0502864 1.02505e-20)
(0.0677368 0.0701047 -5.12858e-21)
(0.0776254 0.0911807 -1.02729e-20)
(0.0878299 0.113287 -5.15196e-21)
(0.0982812 0.136207 1.02563e-20)
(0.108902 0.159725 -1.02368e-20)
(0.119609 0.183629 1.02432e-20)
(0.130312 0.2077 -2.04425e-20)
(0.140916 0.23172 1.52904e-20)
(0.151323 0.255471 -1.01563e-20)
(0.161435 0.278739 5.10142e-21)
(0.171158 0.301319 -1.01271e-20)
(0.180402 0.323021 0)
(0.189088 0.34367 5.18371e-21)
(0.197148 0.363117 -1.01008e-20)
(0.204525 0.381238 1.0113e-20)
(0.211179 0.397932 0)
(0.217086 0.413127 -5.01423e-21)
(0.222246 0.42676 5.00598e-21)
(0.226651 0.438751 2.02708e-20)
(0.230174 0.448875 1.08764e-20)
(0.000986307 -0.0101048 -8.46905e-21)
(0.00372431 -0.0225167 -9.22927e-21)
(0.00782858 -0.0278673 1.41948e-20)
(0.0126585 -0.0277003 2.41338e-20)
(0.0181866 -0.0230875 0)
(0.0243192 -0.0148337 -9.96549e-21)
(0.030998 -0.00356807 1.0072e-20)
(0.0381802 0.0102118 3.04084e-20)
(0.0458245 0.0261083 -1.02092e-20)
(0.0538906 0.0437954 -1.02462e-20)
(0.0623388 0.0629991 3.07396e-20)
(0.0711253 0.0834798 1.02728e-20)
(0.0802008 0.10502 0)
(0.0895101 0.127412 -2.0506e-20)
(0.0989915 0.150455 3.06086e-20)
(0.108577 0.173946 -1.01698e-20)
(0.118192 0.197682 1.01966e-20)
(0.127758 0.221455 1.0177e-20)
(0.137191 0.245059 5.57358e-23)
(0.146407 0.268286 0)
(0.155323 0.290938 3.03963e-20)
(0.163859 0.312824 -2.00851e-20)
(0.171942 0.33377 1.01128e-20)
(0.179506 0.35362 0)
(0.186495 0.37224 -1.01131e-20)
(0.192868 0.389519 4.03203e-20)
(0.198596 0.405368 -2.99855e-20)
(0.203678 0.419705 -1.01327e-20)
(0.208076 0.432426 9.94359e-21)
(0.211623 0.443272 1.09246e-20)
(0.0012881 -0.0105491 0)
(0.00433135 -0.0236987 4.6096e-21)
(0.00842495 -0.0297142 8.79109e-24)
(0.0130089 -0.0301795 -2.41079e-20)
(0.0180972 -0.0261869 0)
(0.0236368 -0.0185528 -1.98504e-20)
(0.0296007 -0.00790906 0)
(0.035969 0.00524563 -3.03756e-20)
(0.0427196 0.0205146 1.01668e-20)
(0.0498281 0.0375761 -2.03819e-20)
(0.0572678 0.0561616 -2.04731e-20)
(0.0650063 0.0760381 -1.02311e-20)
(0.073006 0.0969959 1.02111e-20)
(0.0812244 0.118838 1.01557e-20)
(0.0896122 0.141374 -1.02293e-20)
(0.0981143 0.164413 -2.02617e-20)
(0.10667 0.187764 2.02197e-20)
(0.115215 0.21123 0)
(0.123678 0.234615 0)
(0.131989 0.257723 0)
(0.140076 0.280358 0)
(0.147867 0.302336 0)
(0.155298 0.323482 0)
(0.162307 0.343637 -1.99209e-20)
(0.168842 0.362661 -2.0084e-20)
(0.17486 0.380433 -1.86913e-22)
(0.180333 0.39685 -2.0113e-20)
(0.185257 0.411814 -4.48981e-22)
(0.18957 0.425198 -2.05397e-20)
(0.193067 0.436713 4.27614e-20)
(0.0016083 -0.0109724 0)
(0.00497643 -0.024804 4.13726e-20)
(0.00906584 -0.0314297 7.95539e-24)
(0.0134089 -0.0324842 -1.44362e-20)
(0.0180676 -0.0290792 4.88785e-20)
(0.0230309 -0.0220402 2.97695e-20)
(0.0283028 -0.0120023 3.00108e-20)
(0.0338879 0.000537236 0)
(0.0397831 0.0151845 0)
(0.0459779 0.0316217 3.0562e-20)
(0.0524571 0.0495856 6.58462e-24)
(0.0591993 0.0688502 -7.13079e-20)
(0.0661765 0.0892132 6.10354e-20)
(0.0733559 0.110487 -2.03678e-20)
(0.0806987 0.13249 2.01899e-20)
(0.0881609 0.155043 2.02118e-20)
(0.0956936 0.177965 -2.0122e-20)
(0.103243 0.201071 2.01565e-20)
(0.110753 0.224176 4.01139e-20)
(0.118162 0.247092 -1.9944e-20)
(0.12541 0.269632 -3.97959e-20)
(0.132436 0.291616 3.97063e-20)
(0.139182 0.312871 -3.96311e-20)
(0.145593 0.333238 1.99211e-20)
(0.15162 0.352572 0)
(0.157222 0.370745 0)
(0.162373 0.387643 3.68709e-22)
(0.167071 0.403153 -7.88609e-20)
(0.171227 0.417127 3.94413e-20)
(0.174603 0.429253 -4.29689e-20)
(0.00194395 -0.0113579 0)
(0.00564727 -0.0258021 -3.6769e-20)
(0.00972976 -0.0329873 3.76235e-20)
(0.0138314 -0.0345916 0)
(0.0180638 -0.0317459 -7.81293e-20)
(0.0224603 -0.0252834 -9.89836e-21)
(0.0270584 -0.0158394 -2.00343e-20)
(0.0318864 -0.0039086 -1.00661e-20)
(0.0369589 0.0101184 0)
(0.0422795 0.0259291 -2.03057e-20)
(0.0478438 0.0432666 2.03253e-20)
(0.0536389 0.0619109 4.07183e-20)
(0.059645 0.0816668 -4.06764e-20)
(0.0658375 0.102355 0)
(0.072186 0.123802 -4.05002e-20)
(0.0786552 0.145839 4.02402e-20)
(0.085206 0.168295 4.02603e-20)
(0.0917953 0.190996 6.0038e-20)
(0.0983762 0.213766 -5.99302e-20)
(0.104899 0.236427 7.96267e-20)
(0.111312 0.258801 3.98158e-20)
(0.117566 0.280713 -3.97069e-20)
(0.123608 0.301993 7.9029e-20)
(0.129391 0.322484 0)
(0.134872 0.342039 3.92585e-20)
(0.140011 0.360523 7.87489e-20)
(0.144786 0.377815 -3.88197e-20)
(0.149198 0.393788 3.94555e-20)
(0.153135 0.408277 3.95666e-23)
(0.156329 0.420951 -4.26254e-20)
(0.00229069 -0.0117042 -4.21317e-21)
(0.00633237 -0.02669 0)
(0.0103987 -0.0343808 -4.7028e-20)
(0.0142506 -0.0364961 9.58372e-21)
(0.018054 -0.0341837 2.92762e-20)
(0.021889 -0.0282807 9.87094e-21)
(0.0258265 -0.0194215 3.98508e-20)
(0.0299186 -0.00809668 0)
(0.0341976 0.00530907 2.01928e-20)
(0.0386804 0.0204897 2.02022e-20)
(0.0433717 0.0371941 -2.02799e-20)
(0.0482664 0.0552085 6.07594e-20)
(0.0533514 0.074345 0)
(0.0586085 0.094431 0)
(0.0640138 0.115302 6.04082e-20)
(0.0695395 0.136797 -1.00412e-19)
(0.0751543 0.158755 3.9965e-20)
(0.0808233 0.181012 -3.99707e-20)
(0.0865085 0.2034 -3.96751e-20)
(0.0921693 0.225752 -1.18975e-19)
(0.0977635 0.247896 -2.06886e-22)
(0.103249 0.269665 3.92889e-20)
(0.108582 0.290895 -7.85816e-20)
(0.113722 0.311429 3.90923e-20)
(0.11863 0.33112 -2.44811e-22)
(0.123273 0.34983 -3.92093e-20)
(0.127631 0.36743 3.91707e-20)
(0.13171 0.383786 0)
(0.135374 0.398714 3.88025e-20)
(0.138333 0.411871 5.61204e-22)
(0.00264415 -0.0120047 -8.41792e-21)
(0.00701869 -0.0274549 9.16779e-21)
(0.0110522 -0.0355981 -5.62841e-20)
(0.0146409 -0.0381869 -2.86969e-20)
(0.0180082 -0.0363837 3.88859e-20)
(0.0212825 -0.0310272 -5.90981e-20)
(0.0245689 -0.0227477 -1.99507e-20)
(0.0279432 -0.0120288 -4.00491e-20)
(0.0314551 0.000751857 4.024e-20)
(0.0351333 0.0152954 -8.08018e-20)
(0.0389911 0.0313575 -4.03969e-20)
(0.0430299 0.0487313 -1.05321e-22)
(0.0472421 0.0672354 2.02011e-20)
(0.0516143 0.0867039 -6.03759e-20)
(0.056128 0.10698 -8.03592e-20)
(0.0607611 0.12791 1.54937e-23)
(0.0654885 0.149342 -1.17219e-22)
(0.0702819 0.17112 3.96819e-20)
(0.0751105 0.193086 3.96757e-20)
(0.0799416 0.21508 -1.98901e-23)
(0.0847411 0.236939 -2.19227e-22)
(0.0894736 0.258504 3.88975e-20)
(0.0941037 0.279614 3.91844e-20)
(0.0985971 0.300117 4.6564e-23)
(0.102921 0.319866 -1.16823e-19)
(0.107046 0.338722 7.73703e-20)
(0.110958 0.356549 7.78945e-20)
(0.114668 0.373208 -7.70499e-20)
(0.118018 0.388501 -3.88031e-20)
(0.120697 0.402077 -4.22733e-20)
(0.0029991 -0.0122531 -7.56607e-20)
(0.00769278 -0.0280864 -9.15559e-21)
(0.0116706 -0.0366273 4.6881e-20)
(0.0149774 -0.0396539 3.82654e-20)
(0.0178974 -0.0383394 -3.88857e-20)
(0.0206089 -0.0335194 3.9383e-20)
(0.0232516 -0.0258173 -1.98644e-20)
(0.0259243 -0.0157078 6.00504e-20)
(0.0286931 -0.00355938 -4.02401e-20)
(0.0315979 0.0103375 4.03521e-20)
(0.0346598 0.0257461 2.02206e-20)
(0.0378853 0.0424665 -2.02216e-20)
(0.0412714 0.0603239 -1.20753e-19)
(0.0448084 0.079159 8.04068e-20)
(0.0484818 0.0988217 4.01212e-20)
(0.052274 0.119166 0)
(0.0561644 0.140046 0)
(0.06013 0.161315 -2.52619e-22)
(0.0641459 0.182823 -3.94063e-20)
(0.0681859 0.204418 0)
(0.0722225 0.225945 0)
(0.076227 0.24725 -3.91099e-20)
(0.0801706 0.26818 0)
(0.0840252 0.288585 -7.74011e-20)
(0.0877636 0.308321 0)
(0.0913615 0.327248 -3.87127e-20)
(0.0948113 0.345227 7.73969e-20)
(0.0981275 0.362115 -7.65576e-20)
(0.101133 0.377702 0)
(0.103498 0.391634 0)
(0.00334996 -0.0124433 6.72502e-20)
(0.00834059 -0.0285736 0)
(0.0122337 -0.0374578 -9.36195e-21)
(0.0152361 -0.0408884 9.53995e-21)
(0.0176951 -0.0400443 -5.81029e-20)
(0.0198402 -0.035754 5.44426e-24)
(0.021845 -0.0286304 -1.98212e-20)
(0.0238311 -0.0191368 0)
(0.0258798 -0.00763048 0)
(0.0280415 0.00560763 -2.01069e-20)
(0.0303435 0.020349 2.01265e-20)
(0.032797 0.0364013 -4.02494e-20)
(0.0354024 0.0535965 4.03586e-20)
(0.0381529 0.0717817 0)
(0.0410371 0.0908133 0)
(0.0440402 0.110551 0)
(0.0471451 0.130857 3.95104e-20)
(0.0503331 0.151591 -1.05171e-22)
(0.0535837 0.172609 3.95269e-20)
(0.0568759 0.193768 -7.82368e-20)
(0.0601878 0.21492 3.91249e-20)
(0.0634963 0.235918 -1.9437e-19)
(0.0667786 0.256613 -9.25536e-23)
(0.0700122 0.276862 7.74026e-20)
(0.0731751 0.296522 -4.64914e-22)
(0.0762483 0.315452 7.64981e-20)
(0.0792295 0.333514 -7.64235e-20)
(0.0821384 0.350561 -7.6785e-20)
(0.084779 0.366374 -1.14609e-22)
(0.0868051 0.380603 -8.26673e-20)
(0.00369043 -0.0125691 -8.39567e-21)
(0.00894737 -0.0289064 0)
(0.0127217 -0.0380797 1.86964e-20)
(0.0153942 -0.0418824 -1.9052e-20)
(0.0173772 -0.0414932 1.74223e-19)
(0.0189515 -0.0377286 3.1589e-24)
(0.0203242 -0.0311874 -1.97835e-20)
(0.0216386 -0.0223187 1.99188e-20)
(0.0229902 -0.011467 -9.99754e-20)
(0.0244384 0.00109774 0)
(0.0260161 0.0151562 0)
(0.0277383 0.0305241 -4.00604e-20)
(0.0296077 0.0470403 4.01902e-20)
(0.0316198 0.0645584 -4.00173e-20)
(0.0337651 0.0829405 3.98471e-20)
(0.0360309 0.102053 0)
(0.0384027 0.121763 -1.58274e-19)
(0.0408646 0.141936 7.87091e-20)
(0.0433998 0.162437 3.93046e-20)
(0.0459912 0.183128 1.17278e-19)
(0.0486213 0.203868 0)
(0.051272 0.224516 7.76192e-20)
(0.0539255 0.244931 7.69726e-20)
(0.0565641 0.264971 7.66804e-20)
(0.0591709 0.284497 -3.04893e-22)
(0.0617312 0.30337 -7.62922e-20)
(0.0642483 0.321452 7.64251e-20)
(0.0667463 0.338596 0)
(0.0690115 0.354575 -1.09995e-22)
(0.0706825 0.369047 1.65102e-19)
(0.00401378 -0.0126246 -6.70885e-20)
(0.00949801 -0.0290755 0)
(0.0131151 -0.0384842 -7.46172e-20)
(0.0154304 -0.0426289 -9.50824e-20)
(0.0169219 -0.0426817 -5.80425e-20)
(0.0179219 -0.0394414 1.95632e-20)
(0.0186692 -0.0334889 -1.1004e-24)
(0.0193279 -0.0252564 -1.9882e-20)
(0.0200059 -0.0150737 1.5651e-22)
(0.0207707 -0.00319882 4.00457e-20)
(0.0216599 0.0101593 4.00091e-20)
(0.0226912 0.024825 -3.99222e-20)
(0.0238691 0.0406442 4.00009e-20)
(0.0251905 0.0574769 -1.1969e-19)
(0.026647 0.0751908 1.1927e-19)
(0.0282273 0.0936577 7.92116e-20)
(0.0299185 0.11275 1.97466e-19)
(0.031707 0.132341 -3.94228e-20)
(0.0335784 0.152299 -7.82003e-20)
(0.0355187 0.172493 -1.7677e-22)
(0.0375139 0.192789 -7.77836e-20)
(0.03955 0.213051 2.31736e-19)
(0.0416131 0.233143 -1.54157e-19)
(0.0436898 0.252928 1.52995e-19)
(0.0457675 0.272271 -7.65363e-20)
(0.0478354 0.291034 1.52306e-19)
(0.0499019 0.30908 4.42889e-22)
(0.0519946 0.326264 -1.51361e-19)
(0.0538832 0.342357 1.50421e-19)
(0.0551912 0.357023 8.21346e-20)
(0.00431273 -0.0126047 6.70883e-20)
(0.00997713 -0.029073 0)
(0.0133952 -0.038664 1.67779e-19)
(0.0153253 -0.0431226 5.70552e-20)
(0.0163107 -0.0436066 0)
(0.0167342 -0.0408914 0)
(0.016865 -0.0355356 0)
(0.0168855 -0.0279521 0)
(0.0169152 -0.0184545 3.99446e-20)
(0.017028 -0.00728716 3.99722e-20)
(0.0172652 0.00535213 -8.0095e-20)
(0.0176466 0.0192966 8.00662e-20)
(0.0181777 0.0343998 1.19761e-19)
(0.0188559 0.0505279 3.99297e-20)
(0.0196736 0.0675544 3.96146e-20)
(0.0206202 0.0853563 -1.18753e-19)
(0.0216839 0.103812 -1.5765e-19)
(0.0228522 0.122797 -7.85503e-20)
(0.0241128 0.142189 7.82019e-20)
(0.0254538 0.161861 -1.55789e-19)
(0.026864 0.181683 7.72643e-20)
(0.0283323 0.201526 -1.54472e-19)
(0.0298483 0.221259 7.66863e-20)
(0.031402 0.24075 2.75458e-22)
(0.0329842 0.259865 -7.59208e-20)
(0.0345879 0.278472 -1.52175e-19)
(0.036225 0.296433 1.51114e-19)
(0.0379257 0.313609 0)
(0.0394447 0.329767 1.28127e-22)
(0.040389 0.344585 -1.64127e-19)
(0.00457966 -0.0125046 8.37698e-21)
(0.0103693 -0.0288923 0)
(0.0135439 -0.0386134 -7.45187e-20)
(0.0150611 -0.0433597 1.89699e-20)
(0.015528 -0.044266 -1.92622e-20)
(0.0153757 -0.042078 0)
(0.0149014 -0.0373283 -1.96739e-20)
(0.0143043 -0.0304077 1.98096e-20)
(0.0137131 -0.021612 3.97925e-20)
(0.0132072 -0.0111705 -1.19632e-19)
(0.0128304 0.000730778 -3.99459e-20)
(0.0126038 0.0139345 -1.62265e-23)
(0.0125333 0.028302 -5.95821e-23)
(0.0126165 0.0437059 -7.95653e-20)
(0.0128457 0.0600254 -3.97413e-20)
(0.0132106 0.0771426 0)
(0.0136999 0.0949403 -3.85788e-23)
(0.014302 0.1133 7.84243e-20)
(0.0150057 0.132104 -7.78893e-20)
(0.0158007 0.151228 0)
(0.0166778 0.17055 0)
(0.0176283 0.189946 0)
(0.0186443 0.209287 0)
(0.0197186 0.228448 -1.46966e-22)
(0.0208447 0.247298 0)
(0.0220182 0.265707 0)
(0.0232538 0.283542 7.53034e-20)
(0.0245826 0.300667 7.50166e-20)
(0.0257457 0.316852 7.51067e-20)
(0.0263321 0.331786 1.64157e-22)
(0.00480667 -0.0123208 8.37109e-21)
(0.0106593 -0.0285288 -1.81747e-20)
(0.0135448 -0.0383288 1.11508e-19)
(0.0146229 -0.0433382 -1.89444e-20)
(0.0145615 -0.0446594 1.92292e-20)
(0.0138376 -0.0430017 -3.41189e-24)
(0.0127734 -0.0388677 5.88565e-20)
(0.0115823 -0.0326242 -7.90271e-20)
(0.0104008 -0.024547 1.19113e-19)
(0.009312 -0.0148496 6.33125e-23)
(0.00836132 -0.00370561 -3.98208e-20)
(0.00757026 0.00873771 7.96829e-20)
(0.00694455 0.0223497 -7.9582e-20)
(0.00648139 0.0370097 7.94071e-20)
(0.00617288 0.0526026 0)
(0.00600854 0.0690153 7.88913e-20)
(0.00597716 0.0861354 0)
(0.00606744 0.103849 7.61945e-23)
(0.00626892 0.122042 -7.78903e-20)
(0.0065724 0.140597 -7.75328e-20)
(0.00697007 0.159395 7.71735e-20)
(0.00745506 0.178316 -7.68169e-20)
(0.00802122 0.197238 -7.64666e-20)
(0.00866344 0.216037 -1.52352e-19)
(0.00937724 0.234588 -7.57907e-20)
(0.0101597 0.252764 7.57716e-20)
(0.0110268 0.270436 -1.5027e-19)
(0.0120094 0.287476 -7.50184e-20)
(0.0128363 0.303655 0)
(0.0130757 0.318675 -8.20146e-20)
(0.00498582 -0.0120506 0)
(0.0108326 -0.0279798 7.25808e-20)
(0.0133827 -0.0378089 -5.57576e-20)
(0.0139979 -0.0430582 -9.45167e-20)
(0.0134026 -0.0447874 0)
(0.0121156 -0.0436633 0)
(0.010481 -0.0401547 -1.17715e-19)
(0.00872377 -0.0346017 1.5793e-19)
(0.00698593 -0.0272588 -1.18986e-19)
(0.00535296 -0.018323 0)
(0.00387084 -0.00795462 3.98685e-20)
(0.00256074 0.00370933 -3.98788e-20)
(0.00142772 0.0165466 9.27143e-23)
(0.000468174 0.0304433 -3.9791e-20)
(-0.000326433 0.04529 -3.95613e-20)
(-0.000966987 0.0609787 -6.40953e-23)
(-0.00146494 0.0774016 7.85229e-20)
(-0.00183158 0.0944494 7.82425e-20)
(-0.00207702 0.112011 -1.07366e-22)
(-0.00220969 0.129974 1.54904e-19)
(-0.00223641 0.148225 -1.54493e-19)
(-0.00216294 0.166647 1.53435e-19)
(-0.00199413 0.185122 7.64685e-20)
(-0.00173374 0.203532 7.61263e-20)
(-0.00138508 0.221755 7.39983e-23)
(-0.000950644 0.239667 0)
(-0.00041461 0.257147 7.53328e-20)
(0.000251889 0.274072 -2.24525e-19)
(0.000766851 0.290219 7.33747e-20)
(0.000674572 0.305302 8.13616e-20)
(0.00510924 -0.0116928 -5.01275e-20)
(0.0108754 -0.0272451 -1.63204e-19)
(0.0130446 -0.0370551 1.04928e-23)
(0.0131765 -0.0425219 1.24336e-22)
(0.0120462 -0.0446526 -5.74418e-20)
(0.0102097 -0.0440647 0)
(0.00802917 -0.0411898 -3.90896e-20)
(0.00573797 -0.0363392 -2.36502e-19)
(0.00348174 -0.0297447 1.18863e-19)
(0.00134679 -0.0215861 -7.93703e-20)
(-0.000621462 -0.0120103 1.1926e-19)
(-0.00240287 -0.00114332 -3.97553e-20)
(-0.00399348 0.0109011 7.94927e-20)
(-0.00539804 0.024016 -1.98263e-19)
(-0.00662602 0.0380978 1.18609e-19)
(-0.00768894 0.0530436 6.15062e-23)
(-0.00859872 0.0687501 -2.35431e-19)
(-0.00936686 0.0851119 7.82992e-20)
(-0.0100033 0.102022 -7.77126e-20)
(-0.0105161 0.119373 0)
(-0.0109113 0.137054 7.71262e-20)
(-0.0111941 0.154954 0)
(-0.0113685 0.172958 -7.66014e-20)
(-0.0114376 0.190954 7.58483e-20)
(-0.0114043 0.208822 7.57205e-20)
(-0.0112719 0.226444 7.53342e-20)
(-0.0110263 0.243704 0)
(-0.0106422 0.26049 0)
(-0.010411 0.276586 -1.49157e-19)
(-0.0108161 0.291714 2.4506e-19)
(0.00516938 -0.0112474 5.0158e-20)
(0.0107752 -0.026327 9.06248e-20)
(0.0125197 -0.036071 -7.40136e-20)
(0.0121522 -0.0417336 1.50851e-19)
(0.0104913 -0.0442586 1.92616e-20)
(0.00812451 -0.0442083 1.93585e-20)
(0.00542764 -0.0419733 1.24288e-22)
(0.00263959 -0.0378344 -7.85831e-20)
(-9.27834e-05 -0.032 -3.94824e-20)
(-0.00268387 -0.0246318 1.08683e-22)
(-0.0050898 -0.0158629 -9.61282e-23)
(-0.00729214 -0.0058083 -1.19156e-19)
(-0.0092885 0.00542699 -3.96783e-20)
(-0.011085 0.0177433 5.40521e-23)
(-0.0126924 0.0310428 7.90095e-20)
(-0.0141228 0.0452278 7.87631e-20)
(-0.0153889 0.0601993 1.2561e-23)
(-0.0165026 0.0758562 -7.81729e-20)
(-0.0174738 0.0920955 7.79759e-20)
(-0.0183101 0.108813 -7.73454e-20)
(-0.0190175 0.125904 -1.54278e-19)
(-0.0196005 0.143259 -7.69552e-20)
(-0.0200631 0.16077 1.52655e-19)
(-0.0204079 0.178327 0)
(-0.0206386 0.195816 -7.57003e-20)
(-0.0207601 0.213125 -1.5067e-19)
(-0.0207619 0.230143 -1.50387e-19)
(-0.0206237 0.24677 7.41556e-20)
(-0.020645 0.262798 -2.23128e-19)
(-0.0213409 0.277959 8.1428e-20)
(0.00515918 -0.0107158 -8.34e-20)
(0.0105211 -0.0252303 1.81115e-20)
(0.0117997 -0.0348631 7.40145e-20)
(0.0109217 -0.0406998 -5.65455e-20)
(0.00874057 -0.0436109 1.91721e-20)
(0.00586874 -0.044097 1.06301e-23)
(0.00269097 -0.0425053 1.95117e-19)
(-0.000551695 -0.0390841 7.86453e-20)
(-0.00371341 -0.0340177 7.90232e-20)
(-0.00671083 -0.0274496 1.18884e-19)
(-0.00950261 -0.0194987 -1.19048e-19)
(-0.0120726 -0.0102689 7.94127e-20)
(-0.0144205 0.000143777 1.58726e-19)
(-0.0165541 0.0116468 7.9252e-20)
(-0.0184852 0.0241486 7.00402e-23)
(-0.0202273 0.0375566 -1.57435e-19)
(-0.0217935 0.0517761 1.57082e-19)
(-0.0231963 0.0667099 1.12252e-22)
(-0.0244455 0.0822596 -7.80041e-20)
(-0.0255486 0.0983249 7.73734e-20)
(-0.0265115 0.114804 7.7152e-20)
(-0.0273387 0.131593 -7.6847e-20)
(-0.0280338 0.148588 -1.53076e-19)
(-0.0286002 0.165683 -3.96677e-22)
(-0.0290425 0.182772 7.54673e-20)
(-0.0293686 0.199744 7.53359e-20)
(-0.0295731 0.2165 1.50385e-19)
(-0.0296423 0.232951 -1.48765e-19)
(-0.0298824 0.248902 0)
(-0.0308445 0.264086 8.20199e-20)
(0.0050723 -0.0101011 6.88857e-23)
(0.0101042 -0.0239626 0)
(0.0108794 -0.0334405 -5.53313e-20)
(0.00948547 -0.0394293 -1.88043e-20)
(0.00680096 -0.042716 -7.62271e-20)
(0.00345565 -0.0437345 0)
(-0.000161726 -0.0427855 -1.16939e-19)
(-0.00381142 -0.0400837 3.92276e-20)
(-0.00735094 -0.0357889 0)
(-0.0107007 -0.0300261 -7.90592e-20)
(-0.0138229 -0.0229 0)
(-0.0167043 -0.0145033 -1.18949e-19)
(-0.0193469 -0.00492311 1.18842e-19)
(-0.0217604 0.0057554 -7.91697e-20)
(-0.0239582 0.0174468 -7.89714e-20)
(-0.0259546 0.0300637 0)
(-0.0277639 0.0435159 0)
(-0.0293987 0.0577104 7.83509e-20)
(-0.030869 0.0725528 2.91165e-22)
(-0.0321824 0.0879469 7.79294e-20)
(-0.0333446 0.103795 -7.70708e-20)
(-0.0343601 0.119997 1.53917e-19)
(-0.0352328 0.136454 -7.6338e-20)
(-0.0359666 0.153065 0)
(-0.0365682 0.169729 2.27731e-19)
(-0.0370492 0.186344 -3.77079e-19)
(-0.0374109 0.20282 7.45579e-20)
(-0.0376473 0.219079 7.46147e-20)
(-0.03807 0.234943 7.4234e-20)
(-0.0392712 0.250143 1.65172e-19)
(0.00490333 -0.00940775 -6.65059e-20)
(0.00951759 -0.0225341 1.44168e-19)
(0.00975645 -0.031815 7.37856e-20)
(0.00784755 -0.037933 1.68718e-19)
(0.00468332 -0.0415823 2.09356e-19)
(0.000902685 -0.043125 3.85298e-20)
(-0.00310691 -0.0428132 -1.94312e-19)
(-0.00711058 -0.0408273 0)
(-0.0109715 -0.0373022 -1.57349e-19)
(-0.0146153 -0.0323444 -7.88544e-20)
(-0.0180086 -0.0260446 0)
(-0.0211418 -0.0184844 -7.91354e-20)
(-0.0240195 -0.00974208 5.29272e-23)
(-0.0266535 0.000104708 -2.37261e-19)
(-0.0290588 0.0109767 7.89736e-20)
(-0.031251 0.0227917 7.88862e-20)
(-0.0332453 0.035464 -1.5684e-19)
(-0.0350546 0.048905 -1.56532e-19)
(-0.0366892 0.0630244 -3.06112e-22)
(-0.0381566 0.0777299 -1.21966e-22)
(-0.0394626 0.0929276 0)
(-0.0406117 0.108522 -7.71661e-20)
(-0.0416081 0.124419 -7.69312e-20)
(-0.0424567 0.140523 0)
(-0.0431663 0.15674 0)
(-0.0437529 0.172976 2.26865e-19)
(-0.0442258 0.189151 -2.25067e-19)
(-0.044588 0.205203 0)
(-0.0451552 0.220971 2.23296e-19)
(-0.0465655 0.236182 -1.64234e-19)
(0.00464805 -0.008642 1.48604e-22)
(0.00875727 -0.0209576 -1.44217e-19)
(0.00843222 -0.030001 -1.84107e-20)
(0.00601588 -0.0362238 -1.87407e-19)
(0.00240254 -0.0402193 -1.14156e-19)
(-0.00176858 -0.0422734 3.84593e-20)
(-0.00611685 -0.0425879 7.77762e-20)
(-0.0104159 -0.041308 1.95356e-19)
(-0.0145367 -0.0385442 1.57353e-19)
(-0.0184117 -0.0343848 1.57919e-19)
(-0.0220129 -0.0289065 0)
(-0.0253347 -0.0221802 1.37109e-22)
(-0.0283848 -0.0142753 0)
(-0.0311773 -0.00526219 1.58222e-19)
(-0.0337289 0.00478613 0)
(-0.0360568 0.0157926 -7.89155e-20)
(-0.0381769 0.0276761 7.8356e-20)
(-0.0401027 0.0403526 0)
(-0.0418446 0.0537359 0)
(-0.0434105 0.0677375 -2.33512e-19)
(-0.0448061 0.0822674 7.72505e-20)
(-0.0460359 0.0972348 0)
(-0.0471044 0.112549 1.53113e-19)
(-0.0480173 0.128123 1.52632e-19)
(-0.0487857 0.143868 -3.04049e-19)
(-0.0494304 0.1597 3.02502e-19)
(-0.0499692 0.175551 2.90821e-22)
(-0.0504148 0.191378 1.49777e-19)
(-0.051086 0.207041 -1.48633e-19)
(-0.0526722 0.222254 0)
(0.0043036 -0.00781146 1.66183e-19)
(0.00782193 -0.0192487 -1.80115e-20)
(0.00691147 -0.0280155 -1.46745e-19)
(0.00400226 -0.034317 0)
(-2.25449e-05 -0.038638 -1.51558e-19)
(-0.00453262 -0.0411852 0)
(-0.0091599 -0.0421083 -1.93586e-19)
(-0.01369 -0.0415178 -1.17242e-19)
(-0.0180041 -0.0394998 -1.56854e-19)
(-0.0220429 -0.0361245 0)
(-0.0257844 -0.0314555 3.95371e-20)
(-0.0292277 -0.0255533 3.982e-20)
(-0.0323841 -0.0184787 -7.90372e-20)
(-0.0352701 -0.0102948 -1.58119e-19)
(-0.0379044 -0.00106853 -7.8833e-20)
(-0.0403058 0.00912819 -3.15267e-19)
(-0.0424913 0.0202191 1.56887e-19)
(-0.0444749 0.0321245 -3.20926e-22)
(-0.0462674 0.0447623 -3.42193e-22)
(-0.047877 0.0580478 2.33267e-19)
(-0.0493096 0.0718946 0)
(-0.0505697 0.0862161 0)
(-0.0516618 0.100927 5.42403e-22)
(-0.0525922 0.115945 2.58621e-22)
(-0.0533741 0.131191 -1.5249e-19)
(-0.0540323 0.146592 -1.51962e-19)
(-0.0545933 0.162092 -5.79902e-22)
(-0.0550794 0.177669 -1.49781e-19)
(-0.0558112 0.193211 -1.49345e-19)
(-0.0575359 0.208418 -5.49601e-22)
(0.00386865 -0.00692522 0)
(0.00671337 -0.0174249 1.43338e-19)
(0.00520268 -0.0258775 1.28436e-19)
(0.00182233 -0.0322295 1.86614e-20)
(-0.00256925 -0.0368509 3.02777e-19)
(-0.00736021 -0.0398665 -3.83054e-20)
(-0.0122007 -0.0413736 3.09326e-19)
(-0.016892 -0.0414481 1.55647e-19)
(-0.0213276 -0.0401518 2.35229e-19)
(-0.0254577 -0.0375382 1.17934e-19)
(-0.0292675 -0.033658 3.94954e-20)
(-0.0327612 -0.0285617 1.97794e-19)
(-0.0359538 -0.0223021 2.09451e-22)
(-0.0388649 -0.0149351 7.91878e-20)
(-0.0415154 -0.00652188 1.57929e-19)
(-0.0439259 0.00287087 1.57642e-19)
(-0.0461144 0.0131716 0)
(-0.048096 0.0243052 0)
(-0.0498821 0.0361935 0)
(-0.0514814 0.0487553 0)
(-0.0529002 0.0619077 1.5547e-19)
(-0.0541431 0.0755679 0)
(-0.0552145 0.0896552 -2.58987e-22)
(-0.0561208 0.104093 3.06525e-19)
(-0.0568761 0.11881 1.52255e-19)
(-0.0575083 0.133745 1.51482e-19)
(-0.058051 0.148859 3.02216e-19)
(-0.058535 0.164153 0)
(-0.0592807 0.17955 -2.99219e-19)
(-0.0611007 0.194733 3.31827e-19)
(0.00334357 -0.00599359 1.32283e-19)
(0.00543662 -0.0155062 -1.43341e-19)
(0.00331808 -0.0236085 0)
(-0.000504455 -0.02998 -1.48654e-19)
(-0.00521124 -0.0348716 -3.81293e-20)
(-0.0102186 -0.0383242 -1.14451e-19)
(-0.0152006 -0.0403831 -3.47268e-19)
(-0.0199776 -0.0410895 -3.67231e-22)
(-0.0244575 -0.0404824 -1.172e-19)
(-0.0286013 -0.0385985 -2.74923e-19)
(-0.0324024 -0.0354771 -3.93613e-20)
(-0.0358707 -0.0311591 -1.57807e-19)
(-0.0390255 -0.0256897 -1.57963e-19)
(-0.0418893 -0.0191181 0)
(-0.0444859 -0.0114999 -1.57892e-19)
(-0.0468377 -0.0028967 -2.36724e-19)
(-0.0489646 0.00662469 7.85373e-20)
(-0.0508825 0.0169936 -1.57104e-19)
(-0.0526042 0.0281357 -1.56701e-19)
(-0.0541394 0.039973 0)
(-0.0554951 0.0524257 -3.11197e-19)
(-0.0566764 0.0654142 0)
(-0.0576874 0.0788614 -3.09056e-19)
(-0.0585344 0.0926954 -1.54153e-19)
(-0.0592308 0.106853 -3.06039e-19)
(-0.0598049 0.121283 1.52689e-19)
(-0.0602949 0.135963 -4.54036e-19)
(-0.0607361 0.150925 1.50866e-19)
(-0.0614447 0.166138 -4.15899e-22)
(-0.0633081 0.181269 -1.67492e-19)
(0.00273047 -0.005028 -1.32286e-19)
(0.00399999 -0.0135142 1.78384e-20)
(0.00127356 -0.0212315 1.27428e-19)
(-0.00295499 -0.0275891 1.48658e-19)
(-0.00791873 -0.0327151 -1.50851e-19)
(-0.0130718 -0.0365665 3.95579e-22)
(-0.0181178 -0.0391366 1.54162e-19)
(-0.0228994 -0.040433 -3.10356e-19)
(-0.0273411 -0.0404725 -3.87435e-20)
(-0.0314159 -0.0392766 3.52878e-19)
(-0.0351262 -0.0368734 -2.36041e-19)
(-0.0384882 -0.0332955 3.94168e-19)
(-0.0415258 -0.0285807 3.94862e-19)
(-0.0442654 -0.0227722 -7.8834e-20)
(-0.0467336 -0.0159203 1.57896e-19)
(-0.0489552 -0.00808181 2.36751e-19)
(-0.050952 0.000681298 7.89413e-20)
(-0.0527419 0.0103027 -1.04304e-22)
(-0.0543391 0.0207117 7.81043e-20)
(-0.0557553 0.0318333 7.79648e-20)
(-0.0569989 0.0435904 -7.83755e-20)
(-0.0580761 0.0559056 7.74328e-20)
(-0.0589915 0.0687037 -1.54851e-19)
(-0.0597507 0.0819157 1.53897e-19)
(-0.0603651 0.0954829 -3.53962e-22)
(-0.0608604 0.109364 1.52841e-19)
(-0.0612735 0.123552 -3.99944e-22)
(-0.0616364 0.138113 -1.50696e-19)
(-0.0622518 0.153075 1.69046e-22)
(-0.0640934 0.168108 0)
(0.00203329 -0.00404069 0)
(0.0024151 -0.0114718 0)
(-0.000911393 -0.0187713 -1.63856e-19)
(-0.00550272 -0.0250786 1.85189e-20)
(-0.0106588 -0.0303978 0)
(-0.015881 -0.0346025 1.52282e-19)
(-0.0209079 -0.0376348 3.84177e-20)
(-0.0256075 -0.03947 1.1632e-19)
(-0.0299231 -0.0401036 1.55968e-19)
(-0.0338407 -0.0395429 -1.56709e-19)
(-0.0373725 -0.0378063 1.5725e-19)
(-0.0405417 -0.0349184 -1.57611e-19)
(-0.0433776 -0.0309105 -1.57815e-19)
(-0.0459105 -0.0258205 0)
(-0.0481704 -0.0196938 0)
(-0.0501851 -0.0125827 0)
(-0.0519787 -0.00454431 -1.57505e-19)
(-0.0535714 0.00435926 2.36059e-19)
(-0.0549802 0.0140607 -7.82522e-20)
(-0.0562193 0.0244883 0)
(-0.0572997 0.035567 2.34228e-19)
(-0.05823 0.0472207 -7.75546e-20)
(-0.0590166 0.0593745 1.54854e-19)
(-0.0596651 0.0719586 -3.0938e-19)
(-0.060184 0.0849147 3.06834e-19)
(-0.060593 0.0982042 6.33484e-22)
(-0.0609204 0.111832 2.44694e-22)
(-0.0611806 0.125894 1.51096e-19)
(-0.061641 0.1405 -7.35973e-22)
(-0.06337 0.155351 1.67759e-19)
(0.00125777 -0.00304454 1.63853e-20)
(0.000696821 -0.00940332 -1.78026e-20)
(-0.00321386 -0.0162537 3.62361e-20)
(-0.00811795 -0.0224719 -2.21177e-19)
(-0.0133958 -0.0279375 3.74596e-20)
(-0.0186051 -0.0324426 0)
(-0.0235244 -0.0358797 1.52933e-19)
(-0.0280503 -0.0381928 -1.54195e-19)
(-0.0321462 -0.0393576 0)
(-0.0358128 -0.0393684 1.95141e-19)
(-0.0390727 -0.0382347 -3.91492e-20)
(-0.0419568 -0.0359742 0)
(-0.0445001 -0.0326124 -7.89255e-20)
(-0.0467376 -0.0281826 1.57693e-19)
(-0.0487031 -0.0227261 -7.86813e-20)
(-0.0504278 -0.0162906 7.90408e-20)
(-0.0519385 -0.0089286 -1.57545e-19)
(-0.0532587 -0.000698263 -4.40218e-22)
(-0.0544088 0.00833693 -4.54336e-22)
(-0.0554064 0.0181083 -7.86222e-20)
(-0.0562667 0.0285433 -1.56741e-19)
(-0.0570023 0.0395665 -9.49224e-22)
(-0.0576236 0.0511018 -5.79479e-22)
(-0.0581385 0.0630753 1.54536e-19)
(-0.0585539 0.0754224 -1.54522e-19)
(-0.0588813 0.0880964 1.5323e-19)
(-0.0591336 0.101096 -3.0534e-19)
(-0.0592875 0.114533 -2.53442e-22)
(-0.0595275 0.128613 -3.02878e-19)
(-0.0609959 0.143129 1.68414e-19)
(0.000411604 -0.00205298 0)
(-0.00113665 -0.00733366 -1.41294e-19)
(-0.00560759 -0.0137058 0)
(-0.010768 -0.0197933 5.07265e-22)
(-0.0160915 -0.0253534 3.73311e-20)
(-0.0212007 -0.030099 1.77975e-23)
(-0.0259192 -0.033875 -3.05349e-19)
(-0.0301744 -0.0365958 1.15732e-19)
(-0.0339519 -0.0382184 0)
(-0.0372681 -0.0387255 -1.95056e-19)
(-0.0401567 -0.0381187 3.90603e-20)
(-0.042657 -0.0364097 0)
(-0.0448103 -0.0336193 -7.88163e-20)
(-0.0466568 -0.0297769 7.85672e-20)
(-0.0482347 -0.0249201 7.84879e-20)
(-0.0495786 -0.0190922 1.57595e-19)
(-0.0507191 -0.0123419 -7.85306e-20)
(-0.0516831 -0.00472303 0)
(-0.0524949 0.00370499 0)
(-0.0531768 0.0128773 1.56736e-19)
(-0.0537491 0.0227243 -1.56902e-19)
(-0.0542304 0.0331725 1.55479e-19)
(-0.0546376 0.0441445 1.55368e-19)
(-0.0549846 0.0555611 1.55408e-19)
(-0.0552813 0.0673459 -1.53831e-19)
(-0.055535 0.0794309 1.53529e-19)
(-0.0557442 0.0917816 1.53493e-19)
(-0.0558389 0.104491 -1.51827e-19)
(-0.0558591 0.117848 -6.48885e-22)
(-0.056882 0.131795 3.39105e-19)
(-0.0004963 -0.001079 1.62802e-20)
(-0.00306474 -0.00528752 1.23648e-19)
(-0.00806383 -0.0111547 0)
(-0.0134179 -0.0170678 1.46891e-19)
(-0.018706 -0.0226654 0)
(-0.0236234 -0.0275851 0)
(-0.028043 -0.0316262 1.14393e-19)
(-0.0319259 -0.0346752 -7.28857e-23)
(-0.0352813 -0.0366721 3.86023e-20)
(-0.0381421 -0.0375893 3.89258e-20)
(-0.0405541 -0.0374213 -1.17173e-19)
(-0.0425656 -0.0361747 7.81648e-20)
(-0.0442246 -0.0338666 0)
(-0.0455772 -0.0305235 0)
(-0.0466663 -0.0261795 -1.57494e-19)
(-0.0475304 -0.0208746 0)
(-0.048204 -0.0146535 -7.89463e-20)