/*--------------------------------*- C++ -*----------------------------------*\
  =========                 |
  \\      /  F ield         | OpenFOAM: The Open Source CFD Toolbox
   \\    /   O peration     | Website:  https://openfoam.org
    \\  /    A nd           | Version:  7
     \\/     M anipulation  |
\*---------------------------------------------------------------------------*/
FoamFile
{
    version     2.0;
    format      ascii;
    class       surfaceScalarField;
    location    "38.9";
    object      phi;
}
// * * * * * * * * * * * * * * * * * * * * * * * * * * * * * * * * * * * * * //

dimensions      [0 3 -1 0 0 0 0];

internalField   nonuniform List<scalar> 
3880
(
0.00014334
-0.000555998
0.000412658
0.000567576
-0.0018535
0.00142926
0.00123814
-0.00270221
0.00203165
0.00212152
-0.0029088
0.00202542
0.00318855
-0.0024488
0.00138177
0.00441055
-0.00137044
0.00014843
0.00575588
0.000244751
-0.00159007
0.00718997
0.00229765
-0.00373175
0.00867883
0.00468029
-0.00616915
0.00727919
0.0101912
-0.00879157
0.000152483
-0.000708481
0.000586267
-0.00228728
0.0012553
-0.00337124
0.00212424
-0.00377774
0.00316917
-0.00349373
0.00437078
-0.00257205
0.00570739
-0.00109185
0.007152
0.000853035
0.00867441
0.00315789
0.00571023
0.0102434
0.000164641
-0.000873122
0.000612983
-0.00273562
0.00128468
-0.00404294
0.00214028
-0.00463334
0.0031598
-0.00451325
0.00433359
-0.00374584
0.00565201
-0.00241027
0.00709845
-0.000593403
0.00864832
0.00160801
0.00408841
0.0102701
0.000181902
-0.00105502
0.000653593
-0.00320731
0.00133738
-0.00472673
0.00218677
-0.00548273
0.00318324
-0.00550972
0.00432572
-0.00488831
0.00561764
-0.00370219
0.00705576
-0.00203153
0.00862406
3.97153e-05
0.00242049
0.010292
0.000206148
-0.00126117
0.000713278
-0.00371444
0.0014233
-0.00543675
0.0022795
-0.00633893
0.0032616
-0.00649182
0.00437463
-0.00600134
0.00563471
-0.00496228
0.00705423
-0.00345105
0.00862992
-0.00153598
0.000715776
0.0103346
0.000238625
-0.0014998
0.000795148
-0.00427097
0.00154822
-0.00618982
0.00242816
-0.00721888
0.00340971
-0.00747337
0.00450065
-0.00709228
0.00572778
-0.0061894
0.0071202
-0.00484347
0.00869158
-0.00310735
-0.00101557
0.0104229
0.000279577
-0.00177937
0.000899018
-0.00489041
0.00171128
-0.00700208
0.00263187
-0.00813947
0.00362818
-0.00846968
0.0047074
-0.00817149
0.00590366
-0.00738567
0.00726207
-0.00620187
0.008817
-0.00466229
-0.00276461
0.010566
0.000328031
-0.00210741
0.00102072
-0.0055831
0.00190343
-0.00788479
0.00287624
-0.00911229
0.00389822
-0.00949165
0.0049733
-0.00924657
0.00613884
-0.00855121
0.00745319
-0.00751623
0.00897508
-0.00618418
-0.00451419
0.0107247
0.000381785
-0.00248919
0.00115214
-0.00635346
0.00210764
-0.00884029
0.00313372
-0.0101384
0.00418149
-0.0105394
0.00524939
-0.0103145
0.00637204
-0.00967386
0.00761458
-0.00875878
0.00906352
-0.00763311
-0.00622192
0.0107713
0.000437538
-0.00292673
0.00128187
-0.00719779
0.00230082
-0.00985924
0.0033677
-0.0112052
0.00442782
-0.0115995
0.00547223
-0.0113589
0.00652231
-0.0107239
0.0076265
-0.00986296
0.00887704
-0.00888365
0.0105168
-0.00786173
0.0126985
0.0495309
-0.0520382
0.0140344
0.0861385
-0.0874743
0.0140894
0.118328
-0.118383
0.0131404
0.146073
-0.145124
0.0115022
0.171951
-0.170313
0.00940243
0.198648
-0.196549
0.00705278
0.228921
-0.226572
0.00458183
0.263729
-0.261258
0.00212148
0.305163
-0.302703
0.350565
-0.348444
0.013129
0.0466452
0.0149407
0.0843268
0.0154279
0.11784
0.0147627
0.146738
0.0132553
0.173458
0.011146
0.200758
0.00865415
0.231413
0.00587425
0.266509
0.00288847
0.308149
0.353454
0.0134784
0.043437
0.0157446
0.0820606
0.0166671
0.116918
0.0163094
0.147096
0.0149601
0.174808
0.0128681
0.20285
0.0102449
0.234036
0.00716144
0.269592
0.00365427
0.311656
0.357108
0.0137403
0.0399887
0.0164263
0.0793745
0.0177786
0.115566
0.0177452
0.147129
0.0165802
0.175973
0.0145303
0.2049
0.0117974
0.236769
0.00843165
0.272958
0.00441288
0.315675
0.361521
0.0139162
0.0364071
0.0169738
0.076317
0.018741
0.113798
0.019046
0.146824
0.0180939
0.176925
0.0161167
0.206877
0.0133005
0.239585
0.00967183
0.276587
0.0051556
0.320191
0.366676
0.0140155
0.0328145
0.0173823
0.0729502
0.0195366
0.111644
0.0201803
0.146181
0.0194568
0.177648
0.0175787
0.208755
0.0147112
0.242453
0.0108592
0.280439
0.00587518
0.325175
0.372551
0.0140535
0.0293271
0.0176543
0.0693493
0.0201676
0.109131
0.0211615
0.145187
0.0206918
0.178118
0.018942
0.210505
0.0160472
0.245348
0.0119931
0.284493
0.00656167
0.330606
0.379113
0.0140383
0.0260134
0.0177902
0.0655975
0.0205983
0.106323
0.0219056
0.143879
0.0216866
0.178337
0.0200964
0.212095
0.0172239
0.24822
0.0130378
0.288679
0.00720916
0.336435
0.386322
0.0139135
0.0228712
0.0178224
0.0616886
0.0209544
0.103191
0.0226018
0.142232
0.0226377
0.178301
0.0211972
0.213535
0.0183383
0.251079
0.0140163
0.293001
0.00780757
0.342644
0.39413
0.013565
0.019823
0.0175629
0.0576908
0.0209028
0.0998506
0.0228555
0.140279
0.0232263
0.17793
0.0220159
0.214746
0.0193195
0.253776
0.0149097
0.297411
0.00844358
0.34911
0.402573
0.0238445
0.032005
-0.0360265
0.0147201
0.0668151
0.0094053
0.105165
0.00728702
0.142398
0.00679615
0.178421
0.0064787
0.215063
0.00590111
0.254353
0.00439223
0.29892
0.0018832
0.351619
0.404457
0.0147912
0.0451567
-0.0279429
0.00464686
0.0769595
-0.00159292
0.111405
-0.00441867
0.145223
-0.0044903
0.178493
-0.00293366
0.213506
-0.000925507
0.252345
0.000172648
0.297821
5.35352e-05
0.351738
0.40451
0.00737808
0.0569855
-0.019207
-0.00289458
0.0872321
-0.0098037
0.118314
-0.0130972
0.148517
-0.0130459
0.178441
-0.0105267
0.210987
-0.00687409
0.248692
-0.00376972
0.294717
-0.00193258
0.349901
0.402578
0.0011559
0.0669704
-0.0111408
-0.00872208
0.0971101
-0.0156652
0.125257
-0.0187539
0.151605
-0.0181791
0.177867
-0.0147765
0.207585
-0.010076
0.243992
-0.00590214
0.290543
-0.00301055
0.347009
0.399567
-0.0031179
0.0749104
-0.00482207
-0.0113782
0.10537
-0.0178663
0.131746
-0.0211417
0.154881
-0.0208306
0.177555
-0.0174097
0.204164
-0.0123107
0.238893
-0.0073899
0.285622
-0.00363927
0.343259
0.395928
-0.00577163
0.0809142
-0.000232205
-0.0125676
0.112166
-0.0179895
0.137167
-0.020678
0.157569
-0.0202962
0.177174
-0.0171383
0.201006
-0.0124078
0.234162
-0.00776753
0.280982
-0.00394517
0.339436
0.391983
-0.00601764
0.0850695
0.00186233
-0.0114073
0.117556
-0.0165472
0.142307
-0.0195751
0.160597
-0.0197316
0.17733
-0.0170641
0.198338
-0.0125756
0.229674
-0.00796031
0.276367
-0.00404783
0.335524
0.387935
-0.00523975
0.0876186
0.0026906
-0.00878226
0.121099
-0.0126783
0.146203
-0.0154382
0.163357
-0.0161882
0.17808
-0.0146006
0.196751
-0.0112568
0.22633
-0.00742657
0.272536
-0.00388623
0.331983
0.384049
-0.00350931
0.0894914
0.00163658
-0.00676451
0.124354
-0.0108375
0.150276
-0.0139929
0.166513
-0.0151796
0.179267
-0.013997
0.195568
-0.0109087
0.223242
-0.00715077
0.268779
-0.00372676
0.328559
0.380322
0.000525384
-0.000816206
-0.00117091
-0.00442767
-0.00789128
-0.0102086
-0.0106953
-0.00919523
-0.00658886
-0.00345945
0.0101932
-0.0370396
-0.00918003
0.0110165
-0.0287661
0.0119302
-0.0201207
0.0130774
-0.012288
0.0143371
-0.00608174
0.0155927
-0.00148784
0.016584
0.000871025
0.0174385
0.00183615
0.0180892
0.00098579
-0.00111634
0.00959408
-0.0377708
-0.00886288
0.0101495
-0.0293216
0.0108902
-0.0208613
0.0118374
-0.0132352
0.0128852
-0.00712957
0.0139083
-0.00251094
0.014692
8.7374e-05
0.0153455
0.00118264
0.01577
0.000561291
-0.00122999
0.00883415
-0.0381742
-0.00843081
0.00909442
-0.0295819
0.0096262
-0.0213931
0.0103609
-0.0139699
0.0111891
-0.00795783
0.0119841
-0.00330585
0.0126057
-0.000534324
0.0130755
0.00071285
0.0133322
0.000304598
-0.00120328
0.00771221
-0.0382925
-0.00759389
0.00773681
-0.0296065
0.00807049
-0.0217268
0.0085979
-0.0144973
0.00921756
-0.00857749
0.00982181
-0.0039101
0.0102871
-0.000999592
0.0106292
0.00037074
0.0107699
0.000163887
-0.0010844
0.00612224
-0.0381662
-0.00624848
0.00596956
-0.0294538
0.00614719
-0.0219044
0.00650237
-0.0148525
0.00695208
-0.0090272
0.00740412
-0.00436214
0.00776357
-0.00135904
0.00801993
0.000114381
0.00809403
8.97886e-05
-0.00091626
0.004062
-0.0378236
-0.00440467
0.00377434
-0.0291661
0.00384038
-0.0219705
0.00407167
-0.0150837
0.00440374
-0.00935928
0.00475927
-0.00471767
0.00505731
-0.00165708
0.00527968
-0.000107994
0.00532716
4.23101e-05
-0.000735403
0.00161501
-0.0372939
-0.00214466
0.00122178
-0.0287729
0.0012066
-0.0219553
0.00136207
-0.0152392
0.00162653
-0.00962374
0.00193961
-0.00503074
0.0022227
-0.00194018
0.00244636
-0.000331653
0.00250229
-1.36168e-05
-0.000571528
-0.00111693
-0.0365955
0.000418503
-0.0015901
-0.0282997
-0.00165308
-0.0218923
-0.00153101
-0.0153613
-0.00129087
-0.00986388
-0.00097302
-0.00534859
-0.000672341
-0.00224086
-0.000416044
-0.00058795
-0.000350732
-7.89288e-05
-0.000461359
-0.00403182
-0.0356941
0.00313039
-0.00452666
-0.0278049
-0.004606
-0.0218129
-0.00450109
-0.0154662
-0.00424967
-0.0101153
-0.00390642
-0.00569184
-0.00356345
-0.00258383
-0.00327418
-0.000877219
-0.00314121
-0.000211895
-0.000391254
-0.00690079
-0.0346695
0.00587617
-0.00741742
-0.0272882
-0.00751387
-0.0217165
-0.00740574
-0.0155743
-0.00713405
-0.010387
-0.00675274
-0.00607316
-0.00636793
-0.00296864
-0.00603937
-0.00120578
-0.00586169
-0.000389574
-0.000382472
-0.00961113
-0.0335821
0.00852383
-0.0101453
-0.0267541
-0.0102628
-0.0215989
-0.010142
-0.0156952
-0.00985325
-0.0106757
-0.00943965
-0.00648676
-0.00902473
-0.00338355
-0.00866668
-0.00156383
-0.00845233
-0.000603933
-0.000432429
-0.0120935
-0.0324732
0.0109846
-0.012623
-0.0262246
-0.0127674
-0.0214545
-0.0126314
-0.0158312
-0.0123392
-0.0109679
-0.0119095
-0.00691644
-0.0114844
-0.00380868
-0.0111133
-0.0019349
-0.0108757
-0.0008416
-0.000528964
-0.0142832
-0.0313789
0.0131889
-0.0147945
-0.0257133
-0.0149714
-0.0212776
-0.0148261
-0.0159765
-0.0145488
-0.0112452
-0.0141255
-0.00733969
-0.0137139
-0.00422036
-0.0133503
-0.00229844
-0.0131071
-0.00108486
-0.00065304
-0.0161506
-0.0303237
0.0150954
-0.0166327
-0.0252312
-0.0168489
-0.0210614
-0.0167066
-0.0161187
-0.0164628
-0.011489
-0.0160714
-0.00773105
-0.0156965
-0.00459525
-0.0153628
-0.00263214
-0.0151345
-0.00131318
-0.000780871
-0.0176925
-0.029313
0.0166819
-0.0181348
-0.0247889
-0.0183966
-0.0207996
-0.0182749
-0.0162405
-0.0180808
-0.0116831
-0.0177469
-0.00806494
-0.0174301
-0.00491202
-0.0171491
-0.00291313
-0.0169579
-0.00150442
-0.00088575
-0.0189231
-0.0283272
0.0179373
-0.0193181
-0.0243939
-0.0196267
-0.020491
-0.019547
-0.0163202
-0.0194148
-0.0118154
-0.0191626
-0.00831712
-0.0189231
-0.00515146
-0.0187179
-0.00311834
-0.0185869
-0.00163548
-0.000939517
-0.0198614
-0.0273194
0.0188535
-0.0202102
-0.0240451
-0.0205577
-0.0201434
-0.0205456
-0.0163323
-0.0204841
-0.011877
-0.0203361
-0.00846503
-0.0201918
-0.00529582
-0.0200854
-0.00322472
-0.0200382
-0.00168267
-0.000913545
-0.0205003
-0.0262419
0.0194229
-0.0208309
-0.0237146
-0.0212057
-0.0197686
-0.0212926
-0.0162454
-0.021311
-0.0118585
-0.0212887
-0.00848736
-0.0212568
-0.00532766
-0.0212722
-0.00320933
-0.0213331
-0.00162178
-0.000779328
-0.0208094
-0.0250863
0.0196538
-0.0211971
-0.0233269
-0.0215882
-0.0193775
-0.0218062
-0.0160274
-0.0219164
-0.0117484
-0.0220396
-0.00836415
-0.0221393
-0.00522797
-0.0223002
-0.00304847
-0.0224947
-0.00142728
-0.000508465
-0.0207833
-0.0239389
0.0196359
-0.0213111
-0.0227991
-0.0216784
-0.0190102
-0.0220452
-0.0156606
-0.0222757
-0.0115178
-0.0225725
-0.00806732
-0.0228415
-0.00495902
-0.0231809
-0.00270905
-0.0235486
-0.00105963
-7.49527e-05
-0.084433
-0.0212944
0.0817885
-0.0889824
-0.0182497
-0.0922644
-0.0157282
-0.09531
-0.012615
-0.0971971
-0.00963072
-0.0984913
-0.00677317
-0.0990294
-0.00442095
-0.0992628
-0.00247559
-0.0992749
-0.00104754
-8.8542e-05
-0.103663
-0.01867
0.101038
-0.106722
-0.0151901
-0.109138
-0.0133122
-0.111458
-0.0102954
-0.112979
-0.00810903
-0.114111
-0.00564121
-0.114668
-0.00386424
-0.114971
-0.00217286
-0.115025
-0.000993508
-9.03884e-05
-0.122477
-0.0163301
0.120137
-0.124794
-0.0128729
-0.126843
-0.0112636
-0.128627
-0.00851159
-0.129902
-0.00683429
-0.130838
-0.00470461
-0.131339
-0.00336322
-0.13162
-0.00189183
-0.131666
-0.000948147
-8.34793e-05
-0.142988
-0.0143239
0.140982
-0.144895
-0.0109658
-0.146626
-0.00953281
-0.14807
-0.00706751
-0.149156
-0.00574858
-0.149942
-0.00391845
-0.150388
-0.00291671
-0.150634
-0.0016463
-0.150671
-0.000911108
-7.49931e-05
-0.167193
-0.0123339
0.165203
-0.168875
-0.00928381
-0.170389
-0.00801956
-0.171628
-0.00582804
-0.172595
-0.00478141
-0.173292
-0.00322131
-0.173731
-0.00247846
-0.173989
-0.00138831
-0.17407
-0.000829777
-4.57829e-05
-0.196679
-0.0102433
0.194588
-0.198274
-0.00768877
-0.199774
-0.00651921
-0.200972
-0.00463022
-0.201919
-0.00383397
-0.202612
-0.00252882
-0.203127
-0.00196317
-0.203495
-0.00102071
-0.203711
-0.000613029
2.15929e-05
-0.230542
-0.00782014
0.228119
-0.232694
-0.00553656
-0.234471
-0.00474225
-0.235698
-0.00340307
-0.236662
-0.00286964
-0.237416
-0.00177473
-0.238058
-0.00132197
-0.238583
-0.000495477
-0.23894
-0.000256022
0.000107427
-0.26713
-0.00543717
0.264747
-0.268378
-0.00428908
-0.269588
-0.00353242
-0.270694
-0.00229666
-0.271729
-0.00183467
-0.272526
-0.000978063
-0.273199
-0.000648439
-0.273678
-1.65361e-05
-0.273982
4.81735e-05
0.000168376
-0.291208
-0.00270294
0.288474
-0.294014
-0.00148352
-0.296275
-0.00127072
-0.297681
-0.000890488
-0.298752
-0.00076421
-0.299319
-0.000411282
-0.299747
-0.000220289
-0.299866
0.000102559
-0.299929
0.000111062
0.000102053
-0.308278
0.305575
-0.309761
-0.311032
-0.311922
-0.312687
-0.313098
-0.313318
-0.313216
-0.313105
-0.0225589
0.0836688
0.0206786
-0.0234051
0.101884
-0.0236478
0.12038
-0.0233586
0.140693
-0.0225638
0.164409
-0.0209328
0.192957
-0.0183494
0.225535
-0.0122443
0.258642
-0.00753966
0.283769
0.298035
-0.0213929
0.0847856
0.0202761
-0.0220819
0.102574
-0.0221836
0.120482
-0.0217624
0.140271
-0.0208421
0.163488
-0.0191681
0.191283
-0.0164652
0.222832
-0.0119603
0.254137
-0.0066206
0.278429
0.291414
-0.0203693
0.0856482
0.0195067
-0.020892
0.103096
-0.0208712
0.120461
-0.0203862
0.139787
-0.0194416
0.162544
-0.0178153
0.189657
-0.0151723
0.220189
-0.0111139
0.250079
-0.0060021
0.273318
0.285412
-0.0192143
0.0863893
0.0184732
-0.0195743
0.103456
-0.0194154
0.120302
-0.0188544
0.139226
-0.0178849
0.161574
-0.0163056
0.188077
-0.0137884
0.217672
-0.010119
0.24641
-0.00536401
0.268563
0.280048
-0.0179085
0.0870438
0.0172539
-0.0181348
0.103683
-0.0178592
0.120026
-0.0172319
0.138598
-0.0162437
0.160586
-0.0147154
0.186549
-0.0123633
0.21532
-0.00903557
0.243082
-0.00474953
0.264277
0.275299
-0.0164542
0.0875976
0.0159004
-0.0165518
0.10378
-0.0161815
0.119656
-0.0155075
0.137924
-0.0145177
0.159596
-0.0130584
0.18509
-0.0108995
0.213161
-0.00791023
0.240093
-0.00414868
0.260515
0.27115
-0.0148829
0.0880301
0.0144504
-0.0148467
0.103744
-0.0143892
0.119198
-0.0136802
0.137215
-0.012704
0.15862
-0.0113353
0.183721
-0.00939245
0.211218
-0.00676485
0.237465
-0.00354278
0.257293
0.267607
-0.0132282
0.0883216
0.0129367
-0.0130591
0.103575
-0.0125162
0.118655
-0.0117761
0.136475
-0.0108216
0.157665
-0.00955949
0.182459
-0.00785
0.209509
-0.00560863
0.235224
-0.00292758
0.254612
0.26468
-0.0115211
0.0884501
0.0113926
-0.0112261
0.10328
-0.0105987
0.118028
-0.00982989
0.135706
-0.0089006
0.156736
-0.00775494
0.181313
-0.00628941
0.208043
-0.00444781
0.233382
-0.00230684
0.252471
0.262373
-0.00978991
0.088387
0.00985306
-0.00938203
0.102872
-0.00866676
0.117313
-0.00787337
0.134913
-0.00696945
0.155832
-0.00594721
0.180291
-0.00473132
0.206827
-0.00329293
0.231944
-0.00168896
0.250867
0.260684
-0.00807069
0.0880959
0.00836179
-0.00756847
0.10237
-0.00675367
0.116498
-0.0059411
0.1341
-0.00505818
0.154949
-0.00416172
0.179395
-0.00319496
0.205861
-0.00215472
0.230904
-0.00108069
0.249793
0.259603
-0.00642625
0.0875784
0.00694374
-0.00582186
0.101765
-0.00491154
0.115588
-0.00407501
0.133264
-0.00321057
0.154085
-0.00243021
0.178614
-0.00169965
0.20513
-0.00104714
0.230251
-0.000488065
0.249234
0.259115
-0.00490677
0.0868508
0.00563438
-0.00418374
0.101042
-0.00319146
0.114595
-0.00232197
0.132394
-0.00148026
0.153243
-0.000806261
0.17794
-0.000304309
0.204628
-2.81959e-05
0.229975
6.25422e-05
0.249143
0.259178
-0.00354153
0.0859404
0.00445196
-0.00267609
0.100177
-0.00163189
0.113551
-0.000723581
0.131486
4.74995e-05
0.152472
0.00073368
0.177254
0.00106045
0.204301
0.00100837
0.230027
0.000611451
0.24954
0.259789
-0.00234977
0.0848872
0.00340292
-0.00131772
0.0991448
-0.00028339
0.112517
0.000787141
0.130416
0.00167285
0.151586
0.00222662
0.1767
0.00235378
0.204174
0.00197104
0.23041
0.00112772
0.250383
0.260917
-0.00134091
0.0837466
0.00248156
-0.000160686
0.0979645
0.00107306
0.111283
0.00219696
0.129292
0.00307214
0.150711
0.00356446
0.176208
0.0035237
0.204215
0.00284556
0.231088
0.00159447
0.251634
0.262511
-0.00051613
0.082596
0.00166668
0.000981883
0.0964665
0.00226758
0.109997
0.00343978
0.128119
0.00433402
0.149817
0.00479157
0.175751
0.00461424
0.204392
0.00367024
0.232032
0.00203803
0.253267
0.264549
0.000134587
0.0815371
0.000924284
0.0019075
0.0946936
0.00323225
0.108673
0.00445359
0.126898
0.00536694
0.148903
0.00580106
0.175316
0.005519
0.204674
0.00435966
0.233191
0.00240461
0.255222
0.266954
0.000979395
0.0803743
0.000183453
0.00278285
0.0928902
0.00415669
0.107299
0.00542476
0.12563
0.00636567
0.147962
0.00678775
0.174894
0.00640934
0.205053
0.00503993
0.234561
0.00277159
0.25749
0.269726
0.00125415
0.0796294
-0.00050923
0.00313366
0.0910107
0.00456372
0.105869
0.00586214
0.124332
0.00682903
0.146996
0.00727114
0.174452
0.00687307
0.205451
0.00541045
0.236023
0.00295929
0.259941
0.272685
-0.0713485
0.0711
0.0798779
-0.0630968
0.082759
-0.0571828
0.0999547
-0.0510002
0.118149
-0.0447844
0.14078
-0.038071
0.167739
-0.0302875
0.197667
-0.0211393
0.226875
-0.0108127
0.249615
0.261872
-0.0829311
0.0642243
0.0898068
-0.0757793
0.0756073
-0.0691948
0.0933702
-0.0619808
0.110935
-0.0549421
0.133741
-0.0470014
0.159798
-0.0376079
0.188274
-0.0264806
0.215748
-0.0138526
0.236987
0.24802
-0.0962698
0.0573847
0.103109
-0.0893072
0.0686447
-0.0820435
0.0861064
-0.0742115
0.103103
-0.066143
0.125673
-0.0564395
0.150095
-0.0450054
0.17684
-0.0314461
0.202189
-0.0159866
0.221527
0.232033
-0.11289
0.0509491
0.119325
-0.105816
0.0615712
-0.0981766
0.0784667
-0.0897463
0.0946728
-0.0802901
0.116216
-0.0685615
0.138366
-0.0547961
0.163074
-0.0384363
0.185829
-0.0200839
0.203175
0.211949
-0.132459
0.0440383
0.13937
-0.125399
0.0545118
-0.11704
0.0701077
-0.107185
0.0848169
-0.0954182
0.10445
-0.0809799
0.123928
-0.0642141
0.146308
-0.044328
0.165943
-0.0222541
0.181101
0.189695
-0.15792
0.0378516
0.164107
-0.150099
0.0466907
-0.140411
0.0604198
-0.128652
0.0730581
-0.114396
0.0901939
-0.0971902
0.106722
-0.0769608
0.126079
-0.0532345
0.142216
-0.027864
0.15573
0.161831
-0.185469
0.0301606
0.19316
-0.17644
0.0376617
-0.164742
0.0487221
-0.150426
0.058742
-0.132881
0.0726486
-0.111669
0.0855101
-0.0863579
0.100768
-0.0576632
0.113522
-0.0279948
0.126062
0.133836
-0.218217
0.0221406
0.226237
-0.207492
0.0269367
-0.193769
0.034999
-0.176827
0.0418
-0.156015
0.0518363
-0.130874
0.0603696
-0.101388
0.0712814
-0.0693044
0.0814383
-0.0366544
0.0934119
0.0971818
-0.243678
0.0107232
0.255096
-0.230028
0.0132866
-0.212509
0.0174803
-0.191567
0.0208579
-0.165844
0.0261127
-0.135816
0.0303419
-0.101031
0.0364959
-0.0614677
0.0418754
-0.0198808
0.051825
0.077301
-0.315577
0.3263
-0.30229
-0.28481
-0.263952
-0.237839
-0.207497
-0.171001
-0.129126
-0.077301
-0.00200802
0.081801
8.48652e-05
-0.00365343
0.0914522
-0.00493132
0.104387
-0.00588562
0.12028
-0.00646377
0.139948
-0.0066144
0.164257
-0.00610982
0.192655
-0.00483309
0.224961
-0.00364648
0.253909
0.322653
-0.00151689
0.083952
-0.000634142
-0.00334403
0.0932793
-0.00472583
0.105769
-0.00570782
0.121262
-0.00632141
0.140561
-0.00646962
0.164405
-0.00602082
0.192207
-0.00476348
0.223703
-0.00333025
0.252476
0.319323
-0.000803325
0.0860572
-0.00130182
-0.00263411
0.0951101
-0.00403367
0.107169
-0.00501779
0.122246
-0.0056586
0.141202
-0.00582289
0.16457
-0.00547197
0.191856
-0.00431066
0.222542
-0.00304666
0.251212
0.316277
-0.000155959
0.0881816
-0.00196842
-0.00190819
0.0968623
-0.00321621
0.108477
-0.00416968
0.123199
-0.00478971
0.141822
-0.00499785
0.164778
-0.00471991
0.191578
-0.00374066
0.221563
-0.0026815
0.250153
0.313595
0.000548843
0.0902974
-0.00266462
-0.00120156
0.0986127
-0.00242513
0.1097
-0.00332219
0.124096
-0.0039016
0.142402
-0.00412373
0.165
-0.00390963
0.191364
-0.00311235
0.220765
-0.00227086
0.249311
0.311324
0.00130433
0.0923757
-0.00338273
-0.000431796
0.100349
-0.00156465
0.110833
-0.00240815
0.12494
-0.0029522
0.142946
-0.00318242
0.16523
-0.00305185
0.191233
-0.00242867
0.220142
-0.0018242
0.248707
0.3095
0.00210919
0.0943835
-0.00411697
0.000475322
0.101983
-0.000606845
0.111915
-0.00139461
0.125728
-0.00190516
0.143456
-0.00214742
0.165472
-0.00210902
0.191195
-0.00168072
0.219714
-0.00133772
0.248364
0.308162
0.00295864
0.0962889
-0.00486402
0.00146994
0.103471
0.000441073
0.112944
-0.00030343
0.126472
-0.000767768
0.143921
-0.00102575
0.16573
-0.00106784
0.191237
-0.000873059
0.219519
-0.000808338
0.248299
0.307354
0.00383826
0.0980656
-0.0056149
0.00248182
0.104828
0.00154229
0.113884
0.000888021
0.127126
0.000452866
0.144356
0.000152542
0.166031
7.96869e-05
0.19131
-4.25491e-05
0.219641
-0.000231903
0.248488
0.307122
0.00473913
0.0996794
-0.00635297
0.00351549
0.106052
0.00266603
0.114733
0.00210018
0.127692
0.00170477
0.144751
0.00141625
0.166319
0.00117297
0.191553
0.000898556
0.219916
0.000339764
0.249047
0.307462
0.0056464
0.101079
-0.00704603
0.0045541
0.107144
0.00380006
0.115487
0.00331687
0.128175
0.00297094
0.145097
0.00266816
0.166622
0.00231923
0.191902
0.0018175
0.220418
0.000914008
0.24995
0.308376
0.00654535
0.102218
-0.00768445
0.00559123
0.108098
0.0049354
0.116143
0.00453412
0.128577
0.00423745
0.145394
0.00392676
0.166933
0.00347601
0.192352
0.00274467
0.221149
0.00150384
0.251191
0.30988
0.0074033
0.103062
-0.00824711
0.00659728
0.108904
0.00604067
0.1167
0.00571961
0.128898
0.00547664
0.145637
0.0051671
0.167242
0.00461939
0.1929
0.0036726
0.222096
0.00209614
0.252768
0.311976
0.00820048
0.103579
-0.00871796
0.00755113
0.109553
0.00708981
0.117161
0.00684516
0.129142
0.00666268
0.145819
0.00635993
0.167545
0.00572722
0.193533
0.00458058
0.223242
0.00267769
0.254671
0.314653
0.0089193
0.103741
-0.00908091
0.0084373
0.110035
0.0080643
0.117534
0.00789039
0.129316
0.0077717
0.145938
0.00748776
0.167829
0.00679215
0.194229
0.00546172
0.224573
0.00324818
0.256884
0.317902
0.00953335
0.103533
-0.00932563
0.00922819
0.11034
0.00893557
0.117827
0.00882481
0.129427
0.00876962
0.145993
0.00851275
0.168086
0.00777675
0.194965
0.00628514
0.226064
0.00378882
0.259381
0.32169
0.0100458
0.102942
-0.00945425
0.00993881
0.110447
0.009716
0.118049
0.00965793
0.129485
0.00966669
0.145984
0.00944998
0.168303
0.00869486
0.19572
0.00706578
0.227693
0.00430942
0.262137
0.326
0.0103809
0.102038
-0.00947692
0.0104786
0.11035
0.0103263
0.118202
0.0103125
0.129499
0.0103794
0.145918
0.0102091
0.168473
0.00946242
0.196466
0.00774212
0.229414
0.0047728
0.265106
0.330773
0.0107553
0.100745
-0.00946288
0.0110668
0.110038
0.0109461
0.118322
0.0109456
0.129499
0.011056
0.145807
0.0109327
0.168596
0.0101981
0.197201
0.00838862
0.231223
0.00521382
0.268281
0.335987
0.0106491
0.0994615
-0.00936522
0.0111144
0.109573
0.0111078
0.118329
0.0111326
0.129475
0.0112943
0.145645
0.0112361
0.168654
0.0105968
0.19784
0.0087876
0.233032
0.00554133
0.271527
0.341528
-0.0485217
0.0943504
0.0536327
-0.0423711
0.103422
-0.0373338
0.113292
-0.0321495
0.12429
-0.0267112
0.140207
-0.0210031
0.162946
-0.0149835
0.191821
-0.00888653
0.226935
-0.00421311
0.266854
0.337315
-0.0687667
0.0880661
0.075051
-0.0621763
0.096832
-0.0550948
0.10621
-0.0471899
0.116385
-0.0394347
0.132452
-0.0314506
0.154962
-0.0228524
0.183222
-0.0140877
0.218171
-0.00667983
0.259446
0.330635
-0.0919466
0.080698
0.0993148
-0.0831116
0.087997
-0.0730094
0.096108
-0.0630139
0.10639
-0.0536276
0.123066
-0.0431303
0.144465
-0.0317058
0.171798
-0.0198276
0.206292
-0.00909958
0.248718
0.321535
-0.116465
0.0719379
0.125225
-0.104319
0.0758511
-0.0924102
0.0841994
-0.0809846
0.0949643
-0.0693557
0.111437
-0.0559849
0.131094
-0.0417491
0.157562
-0.0264104
0.190954
-0.0119999
0.234308
0.309535
-0.140487
0.0606397
0.151786
-0.127272
0.0626353
-0.115105
0.0720328
-0.101729
0.0815881
-0.0876086
0.0973166
-0.0716896
0.115175
-0.054273
0.140146
-0.0345902
0.171271
-0.0153833
0.215101
0.294152
-0.167396
0.0494454
0.17859
-0.154025
0.0492649
-0.141047
0.0590549
-0.125969
0.06651
-0.109723
0.0810705
-0.0909302
0.096382
-0.0694492
0.118665
-0.0450371
0.146859
-0.0208006
0.190864
0.273352
-0.199023
0.0360361
0.212432
-0.186569
0.0368107
-0.172643
0.0451291
-0.156455
0.0503224
-0.137985
0.0625999
-0.115954
0.0743516
-0.0900688
0.0927789
-0.0605547
0.117345
-0.0290599
0.159369
0.244292
-0.239016
0.023735
0.251317
-0.225798
0.0235928
-0.210227
0.0295577
-0.192572
0.0326679
-0.171598
0.0416254
-0.146585
0.0493391
-0.117027
0.063221
-0.0828847
0.0832021
-0.0439234
0.120408
0.200368
-0.290096
0.0103776
0.303453
-0.27696
0.0104567
-0.260676
0.0132745
-0.243011
0.0150026
-0.221049
0.019663
-0.19564
0.0239303
-0.164666
0.0322469
-0.125925
0.0444609
-0.0736402
0.0681238
0.126728
-0.353887
0.364264
-0.34343
-0.330155
-0.315153
-0.29549
-0.27156
-0.239313
-0.194852
-0.126728
0.0072134
0.0552178
-0.00879848
0.00409873
0.0781657
0.000832845
0.102581
-0.00149351
0.127551
-0.00314943
0.153442
-0.00453201
0.179973
-0.00523539
0.213136
-0.00540993
0.251492
-0.00370347
0.301747
0.360561
0.00745738
0.056651
-0.00889063
0.00466853
0.0809545
0.0017289
0.10552
-0.000746736
0.130027
-0.00249741
0.155192
-0.00397768
0.181453
-0.00485389
0.214012
-0.0050758
0.251714
-0.00354198
0.300213
0.357019
0.00799778
0.0576195
-0.00896624
0.0055965
0.0833558
0.0029066
0.10821
0.000437021
0.132496
-0.00138394
0.157013
-0.00295203
0.183021
-0.00398792
0.215048
-0.00428572
0.252011
-0.00317345
0.299101
0.353845
0.00855776
0.0581301
-0.00906835
0.00657927
0.0853343
0.00415741
0.110632
0.00186255
0.134791
-0.000178761
0.159054
-0.00177066
0.184613
-0.00291834
0.216195
-0.00341033
0.252503
-0.00271607
0.298406
0.351129
0.00913459
0.0582081
-0.00921263
0.00759077
0.0868781
0.00545083
0.112772
0.00329815
0.136944
0.00132976
0.161023
-0.000543358
0.186486
-0.00175262
0.217405
-0.00248573
0.253237
-0.0021574
0.298078
0.348972
0.00975167
0.0578505
-0.009394
0.00866294
0.0879668
0.00682578
0.114609
0.00481712
0.138952
0.00287905
0.162961
0.000936801
0.188428
-0.0005042
0.218846
-0.00150292
0.254235
-0.0015343
0.298109
0.347438
0.0103935
0.0570523
-0.00959532
0.00978119
0.0885791
0.00827675
0.116114
0.00642768
0.140802
0.00451435
0.164874
0.00255352
0.190389
0.000895555
0.220504
-0.000466895
0.255598
-0.000855266
0.298498
0.346582
0.0110325
0.0558138
-0.00979399
0.0109097
0.0887019
0.00976651
0.117257
0.00810166
0.142466
0.00622744
0.166748
0.00421265
0.192404
0.00237138
0.222345
0.000745326
0.257224
-0.000110932
0.299354
0.346471
0.0116427
0.0541392
-0.00996814
0.0120132
0.0883314
0.0112525
0.118018
0.00980089
0.143918
0.00798314
0.168566
0.00592116
0.194466
0.00389259
0.224373
0.00202239
0.259094
0.000610989
0.300765
0.347082
0.0122038
-0.0101028
0.0130609
0.0126958
0.0114899
0.00974349
0.00766067
0.00546239
0.00329831
0.00136127
0.000492811
-0.00341954
0.00139776
-0.00810274
0.00245637
-0.0109179
0.00353569
-0.0122846
0.00458126
-0.0126451
0.00558039
-0.012358
0.00653717
-0.0116807
0.00745888
-0.0107847
0.00835126
-0.00977603
-0.00869049
0.000534853
-0.00395439
0.00147502
-0.00904291
0.00253974
-0.0119826
0.00359574
-0.0133406
0.00459641
-0.0136458
0.00553645
-0.013298
0.00642349
-0.0125678
0.00726498
-0.0116262
0.00806731
-0.0105784
-0.00948606
0.000563474
-0.00451787
0.00150605
-0.00998548
0.00253216
-0.0130087
0.00351647
-0.0143249
0.00442769
-0.014557
0.00527562
-0.014146
0.00608107
-0.0133732
0.0068636
-0.0124087
0.00764016
-0.0113549
-0.0102767
0.000573215
-0.00509108
0.00147802
-0.0108903
0.0024145
-0.0139452
0.00327344
-0.0151838
0.00404382
-0.0153274
0.0047531
-0.0148553
0.00543612
-0.0140562
0.00612311
-0.0130957
0.0068369
-0.0120687
-0.0110337
0.000559402
-0.00565048
0.00138198
-0.0117129
0.00217654
-0.0147397
0.00285748
-0.0158648
0.0034364
-0.0159063
0.00395756
-0.0153764
0.00446714
-0.0145658
0.00500259
-0.0136311
0.00559053
-0.0126566
-0.0116917
0.000518682
-0.00616917
0.00121403
-0.0124082
0.0018184
-0.0153441
0.00227576
-0.0163221
0.00262041
-0.016251
0.00291035
-0.0156663
0.00319892
-0.0148544
0.00352686
-0.0139591
0.00392249
-0.0130523
-0.0121738
0.00044951
-0.00661868
0.000975919
-0.0129346
0.00135028
-0.0157184
0.00154996
-0.0165218
0.0016299
-0.0163309
0.0016575
-0.015694
0.00168886
-0.0148857
0.00176357
-0.0140338
0.0019087
-0.0131974
-0.0124098
0.000352464
-0.00697114
0.000674871
-0.013257
0.000790758
-0.0158343
0.000712147
-0.0164432
0.000510807
-0.0161296
0.000258718
-0.0154419
9.89528e-06
-0.0146369
-0.000197772
-0.0138261
-0.000343127
-0.0130521
-0.0123344
0.000230257
-0.0072014
0.000322663
-0.0133494
0.000164091
-0.0156758
-0.000200158
-0.0160789
-0.000685695
-0.015644
-0.00122083
-0.0149067
-0.00175628
-0.0141015
-0.00226294
-0.0133195
-0.00272435
-0.0125906
-0.0119284
8.72054e-05
-0.0072886
-6.45842e-05
-0.0131976
-0.000502594
-0.0152378
-0.00114762
-0.0154339
-0.00190973
-0.0148819
-0.00272099
-0.0140955
-0.00353966
-0.0132828
-0.00434357
-0.0125155
-0.00512273
-0.0118115
-0.0111749
-3.87419e-05
-0.00724986
-0.000432761
-0.0128036
-0.00114223
-0.0145283
-0.00205906
-0.0145171
-0.00308736
-0.0138536
-0.00416463
-0.0130182
-0.00525699
-0.0121904
-0.00634915
-0.0114234
-0.00743689
-0.0107237
-0.010088
-0.000195644
-0.00705422
-0.000834979
-0.0121643
-0.00180195
-0.0135613
-0.00296631
-0.0133527
-0.00423342
-0.0125865
-0.00554896
-0.0117027
-0.00688701
-0.0108524
-0.00823819
-0.0100722
-0.00960217
-0.00935976
-0.00870562
-0.000353027
-0.00670119
-0.00122633
-0.011291
-0.0024296
-0.0123581
-0.00381543