/*--------------------------------*- C++ -*----------------------------------*\
  =========                 |
  \\      /  F ield         | OpenFOAM: The Open Source CFD Toolbox
   \\    /   O peration     | Website:  https://openfoam.org
    \\  /    A nd           | Version:  7
     \\/     M anipulation  |
\*---------------------------------------------------------------------------*/
FoamFile
{
    version     2.0;
    format      ascii;
    class       volScalarField;
    location    "2.6";
    object      p;
}
// * * * * * * * * * * * * * * * * * * * * * * * * * * * * * * * * * * * * * //

dimensions      [0 2 -2 0 0 0 0];

internalField   nonuniform List<scalar> 
18000
(
1.746
1.74512
1.74594
1.74715
1.74868
1.75037
1.75219
1.75416
1.75636
1.75883
1.76163
1.7648
1.76834
1.77226
1.77654
1.78114
1.78598
1.79099
1.79611
1.80128
1.80644
1.81153
1.81649
1.82129
1.82589
1.83029
1.8345
1.83853
1.8424
1.84594
1.73906
1.73851
1.73942
1.74067
1.74215
1.74371
1.74533
1.74705
1.74894
1.75106
1.75349
1.75627
1.75943
1.763
1.76697
1.77128
1.7759
1.78072
1.7857
1.79076
1.79584
1.80088
1.80581
1.81058
1.81517
1.81957
1.82376
1.82777
1.83162
1.83515
1.73193
1.73175
1.73274
1.73404
1.73549
1.73694
1.73838
1.73985
1.74142
1.74319
1.74523
1.74762
1.7504
1.75362
1.75725
1.76129
1.76566
1.7703
1.77513
1.78008
1.78508
1.79006
1.79496
1.79971
1.80429
1.80868
1.81287
1.81686
1.82069
1.8242
1.72471
1.72486
1.72594
1.7273
1.72873
1.73009
1.73135
1.73258
1.73384
1.73525
1.73691
1.7389
1.7413
1.74415
1.74746
1.75121
1.75534
1.75978
1.76445
1.76928
1.77419
1.77912
1.78398
1.78872
1.79329
1.79766
1.80184
1.80582
1.80962
1.81311
1.71743
1.71791
1.71909
1.7205
1.72192
1.72319
1.72429
1.72527
1.72623
1.72729
1.72857
1.73017
1.73218
1.73466
1.73764
1.74109
1.74497
1.74921
1.75372
1.75843
1.76325
1.76811
1.77293
1.77764
1.7822
1.78656
1.79071
1.79466
1.79843
1.8019
1.71011
1.71091
1.71218
1.71365
1.71507
1.71627
1.71722
1.71797
1.71864
1.71935
1.72026
1.72147
1.72309
1.72521
1.72784
1.731
1.73463
1.73866
1.743
1.74758
1.7523
1.75709
1.76186
1.76653
1.77106
1.77539
1.77952
1.78343
1.78715
1.79059
1.70279
1.7039
1.70526
1.7068
1.70822
1.70936
1.71017
1.7107
1.71109
1.71148
1.71202
1.71285
1.71409
1.71584
1.71814
1.721
1.72437
1.72818
1.73235
1.73677
1.74139
1.74609
1.7508
1.75543
1.75991
1.7642
1.76828
1.77214
1.77581
1.7792
1.69549
1.69691
1.69835
1.69997
1.7014
1.70248
1.70316
1.7035
1.70363
1.70371
1.70389
1.70435
1.70521
1.7066
1.70858
1.71114
1.71425
1.71783
1.7218
1.72607
1.73056
1.73517
1.7398
1.74436
1.74878
1.75302
1.75704
1.76083
1.76442
1.76775
1.68824
1.68994
1.69148
1.69316
1.69461
1.69565
1.69623
1.69639
1.69628
1.69606
1.69591
1.696
1.6965
1.69754
1.69919
1.70145
1.70429
1.70763
1.7114
1.71552
1.71987
1.72436
1.7289
1.73337
1.73771
1.74187
1.7458
1.74951
1.75301
1.75627
1.68106
1.68302
1.68464
1.6864
1.68788
1.6889
1.68939
1.6894
1.68906
1.68856
1.68809
1.68783
1.68799
1.68869
1.69002
1.69198
1.69454
1.69764
1.7012
1.70513
1.70934
1.7137
1.71812
1.72249
1.72673
1.73078
1.73461
1.73821
1.74161
1.74477
1.67397
1.67616
1.67785
1.67968
1.68121
1.68221
1.68264
1.68252
1.68198
1.68123
1.68045
1.67987
1.67969
1.68007
1.68108
1.68274
1.68502
1.68787
1.69122
1.69496
1.69899
1.70321
1.70749
1.71173
1.71584
1.71976
1.72347
1.72695
1.73022
1.73327
1.66697
1.66936
1.67112
1.67303
1.6746
1.67562
1.67599
1.67576
1.67505
1.67406
1.673
1.67212
1.67162
1.67168
1.67238
1.67374
1.67575
1.67835
1.68147
1.68501
1.68886
1.69291
1.69703
1.70112
1.70507
1.70885
1.71241
1.71575
1.71887
1.72179
1.66009
1.66263
1.66446
1.66644
1.66807
1.6691
1.66945
1.66913
1.66826
1.66705
1.66574
1.66457
1.66378
1.66353
1.66393
1.665
1.66674
1.66909
1.67197
1.67529
1.67894
1.6828
1.68674
1.69065
1.69444
1.69805
1.70144
1.70461
1.70757
1.71034
1.6533
1.65598
1.65787
1.65992
1.66161
1.66267
1.663
1.6626
1.6616
1.6602
1.65865
1.65722
1.65614
1.6556
1.6557
1.6565
1.65797
1.66006
1.6627
1.6658
1.66924
1.67289
1.67663
1.68034
1.68394
1.68736
1.69057
1.69355
1.69632
1.69893
1.64663
1.64939
1.65134
1.65346
1.65521
1.65632
1.65664
1.65618
1.65505
1.65348
1.65172
1.65004
1.64869
1.64787
1.6477
1.64822
1.64943
1.65128
1.65367
1.65653
1.65975
1.66318
1.6667
1.67019
1.67357
1.67678
1.67979
1.68256
1.68514
1.68756
1.64004
1.64287
1.64487
1.64706
1.64887
1.65002
1.65034
1.64983
1.6486
1.64687
1.64491
1.643
1.6414
1.64032
1.63989
1.64015
1.64111
1.6427
1.64485
1.64748
1.65045
1.65365
1.65693
1.66019
1.66334
1.66632
1.66911
1.67167
1.67403
1.67626
1.63354
1.63641
1.63845
1.6407
1.64257
1.64376
1.64409
1.64353
1.6422
1.64033
1.63819
1.63607
1.63425
1.63292
1.63224
1.63226
1.63297
1.63432
1.63623
1.63861
1.64134
1.64428
1.64731
1.65032
1.65323
1.65597
1.65853
1.66087
1.66301
1.66503
1.62711
1.62998
1.63206
1.63437
1.6363
1.63752
1.63785
1.63725
1.63584
1.63383
1.63152
1.62922
1.62718
1.62563
1.62472
1.62451
1.62498
1.62609
1.62776
1.6299
1.63238
1.63506
1.63782
1.64057
1.64323
1.64573
1.64805
1.65016
1.65208
1.65389
1.62072
1.62358
1.6257
1.62806
1.63004
1.63129
1.63162
1.63097
1.62946
1.62734
1.62488
1.6224
1.62017
1.61842
1.6173
1.61687
1.61712
1.618
1.61944
1.62133
1.62354
1.62596
1.62845
1.63093
1.63333
1.63558
1.63766
1.63955
1.64124
1.64285
1.61436
1.61719
1.61934
1.62174
1.62376
1.62503
1.62534
1.62464
1.62305
1.62081
1.61821
1.61557
1.61318
1.61125
1.60994
1.60931
1.60935
1.61001
1.61121
1.61286
1.61481
1.61695
1.61917
1.62138
1.62352
1.62553
1.62737
1.62903
1.63051
1.63192
1.60801
1.6108
1.61298
1.61541
1.61745
1.61873
1.61901
1.61825
1.61657
1.61422
1.61149
1.60872
1.60618
1.60409
1.60261
1.60179
1.60164
1.60209
1.60306
1.60446
1.60615
1.60801
1.60995
1.6119
1.61378
1.61555
1.61717
1.61862
1.6199
1.62112
1.60164
1.60439
1.60659
1.60905
1.6111
1.61235
1.61259
1.61176
1.60999
1.60753
1.6047
1.6018
1.59913
1.59691
1.59528
1.5943
1.59396
1.5942
1.59496
1.59611
1.59753
1.59911
1.60078
1.60246
1.60409
1.60563
1.60704
1.6083
1.6094
1.61046
1.59523
1.59794
1.60015
1.60263
1.60467
1.60589
1.60607
1.60515
1.60329
1.60073
1.59779
1.5948
1.59202
1.58969
1.58793
1.5868
1.58628
1.58634
1.58687
1.58777
1.58892
1.59024
1.59163
1.59305
1.59444
1.59576
1.59698
1.59808
1.59903
1.59996
1.58876
1.59143
1.59366
1.59613
1.59815
1.59932
1.59942
1.59841
1.59645
1.5938
1.59077
1.58769
1.58483
1.58241
1.58054
1.57927
1.5786
1.57846
1.57877
1.57942
1.58031
1.58135
1.58248
1.58364
1.58479
1.58591
1.58697
1.58794
1.58879
1.58965
1.58221
1.58486
1.58709
1.58955
1.59153
1.59262
1.59263
1.59152
1.58947
1.58673
1.58362
1.58047
1.57755
1.57506
1.5731
1.57171
1.57087
1.57055
1.57064
1.57104
1.57167
1.57244
1.5733
1.5742
1.57513
1.57606
1.57697
1.57784
1.57864
1.5795
1.57556
1.5782
1.58044
1.58287
1.58479
1.58579
1.58569
1.58448
1.58233
1.57951
1.57634
1.57314
1.57017
1.56763
1.56559
1.56408
1.56311
1.5626
1.56247
1.56262
1.56298
1.56348
1.56406
1.56472
1.56542
1.56616
1.56694
1.56773
1.56853
1.56948
1.5688
1.57145
1.57368
1.57608
1.57792
1.57881
1.57859
1.57728
1.57504
1.57215
1.56893
1.56569
1.5627
1.56012
1.55801
1.55641
1.55529
1.55459
1.55424
1.55415
1.55423
1.55445
1.55476
1.55514
1.5556
1.55615
1.55679
1.55753
1.55837
1.5595
1.56192
1.5646
1.56681
1.56917
1.57091
1.57169
1.57135
1.56992
1.5676
1.56466
1.5614
1.55815
1.55515
1.55253
1.55037
1.54867
1.54741
1.54654
1.54597
1.54562
1.54542
1.54535
1.54536
1.54546
1.54565
1.54596
1.54643
1.54709
1.54801
1.54942
1.55489
1.55762
1.55983
1.56213
1.56377
1.56442
1.56395
1.56242
1.56003
1.55703
1.55376
1.55051
1.54751
1.54488
1.54266
1.54087
1.53948
1.53843
1.53764
1.53703
1.53655
1.53617
1.53587
1.53564
1.5355
1.5355
1.53569
1.53618
1.53721
1.5391
1.54774
1.55053
1.55273
1.55497
1.5565
1.55701
1.55641
1.55478
1.55232
1.5493
1.54603
1.5428
1.53981
1.53717
1.53491
1.53304
1.53151
1.53028
1.52926
1.5284
1.52763
1.52694
1.5263
1.52571
1.52518
1.52473
1.52441
1.52431
1.52468
1.52684
1.85621
1.87086
1.88052
1.88916
1.89559
1.90052
1.90399
1.90625
1.90746
1.90771
1.90713
1.90585
1.90407
1.9019
1.8994
1.89664
1.89364
1.89059
1.88736
1.8842
1.88079
1.87754
1.87399
1.87092
1.8675
1.86503
1.86202
1.86112
1.85912
1.862
1.84531
1.86081
1.871
1.88009
1.8868
1.89197
1.89567
1.89814
1.89947
1.89983
1.89938
1.89825
1.89659
1.89449
1.89207
1.88941
1.8865
1.88353
1.88038
1.87729
1.87393
1.87077
1.86732
1.86433
1.86101
1.85862
1.85571
1.85489
1.85297
1.85593
1.83424
1.85062
1.86137
1.87092
1.87794
1.88338
1.88731
1.88998
1.89144
1.89193
1.89161
1.89063
1.88907
1.88706
1.88473
1.88216
1.87935
1.87647
1.8734
1.87038
1.86709
1.86404
1.86069
1.85781
1.85459
1.85229
1.84949
1.84875
1.84691
1.84994
1.82301
1.84033
1.85162
1.86167
1.86905
1.87475
1.8789
1.88175
1.88339
1.88402
1.88382
1.88296
1.88153
1.87963
1.87738
1.87491
1.87219
1.86939
1.86642
1.86348
1.86029
1.85734
1.8541
1.85134
1.84823
1.84606
1.84336
1.84271
1.84093
1.84404
1.81163
1.82993
1.84177
1.85235
1.86011
1.86608
1.87046
1.87349
1.8753
1.87609
1.87603
1.87528
1.87396
1.87218
1.87003
1.86766
1.86503
1.86232
1.85944
1.8566
1.85352
1.85068
1.84756
1.84493
1.84194
1.83989
1.8373
1.83675
1.83504
1.83824
1.8001
1.81916
1.83184
1.84297
1.85112
1.85738
1.86198
1.86521
1.86719
1.86814
1.86821
1.86758
1.86637
1.86472
1.86267
1.8604
1.85787
1.85525
1.85247
1.84973
1.84678
1.84405
1.84106
1.83857
1.83572
1.83381
1.83132
1.83088
1.82923
1.83251
1.78847
1.80854
1.82185
1.83354
1.84209
1.84864
1.85349
1.85691
1.85906
1.86018
1.86038
1.85987
1.85878
1.85726
1.85531
1.85314
1.85071
1.84819
1.84551
1.84289
1.84006
1.83746
1.83461
1.83227
1.82956
1.82779
1.82543
1.82509
1.82351
1.82687
1.77674
1.79785
1.81181
1.82407
1.83303
1.83988
1.84498
1.8486
1.85093
1.8522
1.85254
1.85216
1.85119
1.84978
1.84795
1.84588
1.84356
1.84115
1.83857
1.83607
1.83336
1.83091
1.82821
1.82603
1.82347
1.82185
1.81962
1.81939
1.81787
1.82132
1.76494
1.78711
1.80174
1.81458
1.82395
1.83111
1.83646
1.84028
1.84279
1.84422
1.8447
1.84445
1.84359
1.84231
1.84059
1.83862
1.83642
1.83412
1.83165
1.82928
1.8267
1.8244
1.82185
1.81984
1.81744
1.81598
1.81388
1.81378
1.81233
1.81585
1.75308
1.77633
1.79165
1.80507
1.81486
1.82233
1.82793
1.83196
1.83465
1.83623
1.83686
1.83673
1.836
1.83483
1.83323
1.83138
1.82929
1.8271
1.82475
1.82251
1.82007
1.81793
1.81554
1.81371
1.81148
1.81017
1.80822
1.80825
1.80688
1.81047
1.74119
1.7655
1.78155
1.79555
1.80577
1.81356
1.81942
1.82365
1.82652
1.82825
1.82902
1.82903
1.82841
1.82737
1.82589
1.82414
1.82216
1.8201
1.81786
1.81576
1.81347
1.81149
1.80927
1.80762
1.80558
1.80444
1.80265
1.80281
1.80153
1.80519
1.72928
1.75462
1.77145
1.78604
1.79669
1.8048
1.81091
1.81535
1.8184
1.82028
1.8212
1.82133
1.82084
1.81991
1.81855
1.81692
1.81505
1.81312
1.811
1.80904
1.8069
1.80509
1.80305
1.80159
1.79973
1.79878
1.79715
1.79746
1.79627
1.8
1.71737
1.74374
1.76137
1.77655
1.78763
1.79605
1.80242
1.80706
1.81029
1.81233
1.81339
1.81366
1.81329
1.81247
1.81123
1.80971
1.80796
1.80615
1.80416
1.80235
1.80036
1.79872
1.79686
1.7956
1.79394
1.79319
1.79174
1.7922
1.79111
1.7949
1.70549
1.73288
1.75133
1.76709
1.7786
1.78734
1.79396
1.79881
1.80221
1.8044
1.8056
1.806
1.80576
1.80506
1.80393
1.80251
1.80088
1.7992
1.79734
1.79567
1.79385
1.79239
1.79072
1.78966
1.78821
1.78767
1.78641
1.78704
1.78605
1.78992
1.69364
1.7221
1.74135
1.75767
1.7696
1.77866
1.78553
1.79058
1.79416
1.79651
1.79784
1.79837
1.79825
1.79766
1.79664
1.79534
1.79382
1.79227
1.79054
1.78902
1.78736
1.78608
1.78461
1.78375
1.78253
1.78221
1.78117
1.78197
1.7811
1.78505
1.68185
1.71141
1.73144
1.7483
1.76065
1.77002
1.77714
1.7824
1.78614
1.78864
1.79012
1.79077
1.79076
1.79028
1.78937
1.78819
1.78678
1.78536
1.78376
1.78238
1.78089
1.77981
1.77853
1.77789
1.7769
1.77682
1.776
1.777
1.77627
1.78029
1.67014
1.70082
1.72161
1.739
1.75177
1.76145
1.76881
1.77427
1.77818
1.78082
1.78243
1.78321
1.78331
1.78293
1.78212
1.78106
1.77976
1.77847
1.777
1.77577
1.77445
1.77355
1.77248
1.77207
1.77132
1.77149
1.77092
1.77214
1.77155
1.77566
1.65854
1.69032
1.71189
1.72977
1.74295
1.75293
1.76054
1.7662
1.77027
1.77305
1.77479
1.77568
1.77589
1.7756
1.77491
1.77395
1.77276
1.77159
1.77026
1.76917
1.76803
1.76732
1.76646
1.76627
1.76578
1.76623
1.76592
1.76738
1.76695
1.77116
1.64705
1.6799
1.70227
1.72063
1.7342
1.7445
1.75234
1.75819
1.76242
1.76534
1.7672
1.76819
1.76851
1.76832
1.76772
1.76688
1.76579
1.76473
1.76354
1.7626
1.76163
1.76111
1.76047
1.76051
1.76029
1.76102
1.76099
1.76273
1.76249
1.7668
1.63572
1.66961
1.69277
1.71159
1.72554
1.73616
1.74422
1.75026
1.75464
1.75769
1.75966
1.76076
1.76117
1.76107
1.76057
1.75982
1.75885
1.75789
1.75684
1.75604
1.75524
1.75491
1.75449
1.75477
1.75483
1.75586
1.75614
1.75818
1.75817
1.7626
1.62458
1.65941
1.68341
1.70267
1.71698
1.72791
1.73619
1.74241
1.74694
1.75011
1.75219
1.75337
1.75387
1.75386
1.75344
1.7528
1.75192
1.75107
1.75016
1.7495
1.74887
1.74873
1.74852
1.74905
1.74939
1.75075
1.75136
1.75374
1.75399
1.75856
1.61366
1.64901
1.67421
1.69387
1.70854
1.71977
1.72827
1.73466
1.73933
1.7426
1.74478
1.74604
1.74663
1.7467
1.74636
1.7458
1.74502
1.74427
1.7435
1.74298
1.74251
1.74255
1.74257
1.74335
1.74398
1.74568
1.74665
1.74941
1.74998
1.75471
1.60304
1.63927
1.66519
1.68521
1.70024
1.71176
1.72047
1.72702
1.73182
1.73518
1.73745
1.73878
1.73944
1.73957
1.7393
1.73883
1.73815
1.73749
1.73685
1.73646
1.73615
1.73638
1.73662
1.73765
1.73858
1.74064
1.742
1.74518
1.74613
1.75107
1.5928
1.62991
1.65635
1.67671
1.69209
1.70389
1.7128
1.71949
1.72441
1.72786
1.73019
1.73158
1.7323
1.73249
1.73229
1.73188
1.73129
1.73073
1.7302
1.72996
1.7298
1.73021
1.73066
1.73196
1.73318
1.73561
1.7374
1.74106
1.74245
1.74766
1.58302
1.62082
1.64773
1.6684
1.68412
1.69618
1.70528
1.7121
1.71712
1.72063
1.72301
1.72445
1.72522
1.72546
1.72531
1.72497
1.72446
1.72399
1.72357
1.72346
1.72344
1.72404
1.7247
1.72626
1.72778
1.7306
1.73285
1.73703
1.73896
1.74451
1.57374
1.61205
1.63935
1.6603
1.67634
1.68866
1.69793
1.70486
1.70995
1.71352
1.71593
1.71741
1.7182
1.71848
1.71838
1.71809
1.71765
1.71727
1.71695
1.71697
1.71709
1.71787
1.71873
1.72054
1.72237
1.72558
1.72832
1.73308
1.73566
1.74167
1.56507
1.60364
1.63124
1.65247
1.66879
1.68134
1.69075
1.69777
1.70292
1.70652
1.70895
1.71045
1.71126
1.71156
1.71149
1.71125
1.71087
1.71056
1.71034
1.71048
1.71074
1.71168
1.71274
1.7148
1.71694
1.72055
1.72381
1.72921
1.73255
1.73919
1.557
1.59546
1.62328
1.64477
1.66137
1.67412
1.68368
1.69077
1.69596
1.69958
1.70202
1.70352
1.70433
1.70465
1.7046
1.7044
1.70407
1.70384
1.70371
1.70397
1.70435
1.70545
1.70671
1.70902
1.71147
1.71547
1.71929
1.72538
1.72964
1.73713
1.54921
1.58706
1.61509
1.63687
1.65378
1.66676
1.67647
1.68365
1.68888
1.69254
1.69498
1.69649
1.69731
1.69764
1.69762
1.69746
1.69718
1.69704
1.697
1.69737
1.69789
1.69915
1.70061
1.70315
1.70592
1.71031
1.71471
1.72155
1.72691
1.73559
1.54197
1.57884
1.60702
1.62902
1.64618
1.65933
1.66918
1.67646
1.68174
1.68543
1.68789
1.68942
1.69026
1.69061
1.69062
1.6905
1.69028
1.69022
1.69027
1.69075
1.6914
1.69281
1.69446
1.69722
1.70028
1.70504
1.71002
1.71761
1.72424
1.73457
1.52194
1.55878
1.58708
1.60928
1.62656
1.63975
1.64962
1.65687
1.6621
1.66576
1.66817
1.66966
1.67045
1.67076
1.67077
1.67067
1.67054
1.67061
1.67083
1.67153
1.6725
1.67423
1.67634
1.67963
1.68346
1.68913
1.69566
1.70525
1.71571
1.73186
1.47932
1.51558
1.54349
1.56535
1.5827
1.59623
1.60651
1.6142
1.61987
1.62396
1.62682
1.62876
1.63003
1.63084
1.63138
1.63185
1.63231
1.633
1.63387
1.63525
1.63693
1.63943
1.64238
1.64658
1.65146
1.65838
1.66648
1.678
1.69098
1.70989
1.43779
1.47236
1.49935
1.52078
1.53808
1.55181
1.5624
1.57047
1.57657
1.58111
1.58445
1.58689
1.58867
1.59005
1.59118
1.59225
1.59335
1.59471
1.59626
1.59835
1.60077
1.60404
1.60777
1.6128
1.61855
1.62637
1.63537
1.6478
1.66174
1.6817
1.39603
1.42885
1.45476
1.47565
1.49279
1.5066
1.51743
1.52585
1.53235
1.53733
1.54113
1.54408
1.5464
1.54834
1.55006
1.55175
1.55349
1.5555
1.55774
1.56051
1.56363
1.56762
1.57206
1.5778
1.58422
1.59268
1.6022
1.61507
1.62938
1.64981
1.35369
1.38487
1.40972
1.43002
1.44693
1.46075
1.47176
1.48048
1.48734
1.49275
1.49705
1.50052
1.5034
1.50593
1.50825
1.51057
1.51295
1.5156
1.51849
1.52192
1.52569
1.53031
1.53536
1.54166
1.54859
1.55744
1.56724
1.58029
1.59471
1.61534
1.31042
1.34019
1.36404
1.38372
1.40034
1.41412
1.42526
1.43423
1.44146
1.44731
1.4521
1.45611
1.45957
1.4627
1.46564
1.46858
1.47159
1.47488
1.4784
1.48244
1.4868
1.49198
1.49755
1.5043
1.51159
1.5207
1.53063
1.54371
1.55808
1.57876
1.26603
1.2946
1.31752
1.3366
1.35293
1.36666
1.37791
1.38712
1.3947
1.40099
1.40627
1.41082
1.41486
1.41858
1.42213
1.4257
1.42933
1.43323
1.43735
1.44197
1.44687
1.45254
1.45855
1.46567
1.47324
1.48251
1.49247
1.5055
1.51972
1.54033
1.2204
1.24793
1.27005
1.28859
1.30464
1.31831
1.32966
1.3391
1.34702
1.35373
1.3595
1.36459
1.36919
1.37351
1.37767
1.38184
1.38608
1.39057
1.39526
1.40042
1.40582
1.41194
1.41833
1.42575
1.43355
1.44293
1.45288
1.46579
1.47978
1.50023
1.17347
1.20011
1.22153
1.23959
1.25538
1.269
1.28044
1.29011
1.29836
1.30548
1.31173
1.31735
1.32252
1.32742
1.33217
1.33694
1.34177
1.34683
1.35205
1.35772
1.36359
1.37011
1.37686
1.38455
1.39254
1.402
1.41192
1.42467
1.43836
1.45855
1.1252
1.15108
1.1719
1.18953
1.2051
1.21867
1.23021
1.24009
1.24867
1.25619
1.26291
1.26905
1.27477
1.28024
1.28558
1.29092
1.29632
1.30192
1.30767
1.31382
1.32012
1.32704
1.33411
1.34206
1.35021
1.35974
1.36961
1.38218
1.3955
1.41536
1.0756
1.1008
1.1211
1.13835
1.15371
1.16726
1.17891
1.189
1.19789
1.20581
1.21298
1.21962
1.22588
1.23191
1.23781
1.24372
1.24967
1.2558
1.26205
1.26865
1.27538
1.28266
1.29004
1.29823
1.30655
1.31613
1.32595
1.33833
1.35126
1.37072
1.02465
1.04924
1.06909
1.08601
1.10119
1.11473
1.12649
1.13678
1.14597
1.15427
1.16189
1.16902
1.17581
1.18238
1.18883
1.19528
1.20176
1.2084
1.21512
1.22217
1.2293
1.23693
1.24462
1.25304
1.26152
1.27116
1.28093
1.29312
1.30564
1.32466
0.972359
0.996395
1.01584
1.03247
1.04749
1.06103
1.0729
1.08339
1.09287
1.10154
1.10959
1.1172
1.12449
1.13159
1.13857
1.14554
1.15252
1.15966
1.16684
1.17431
1.18183
1.18981
1.19779
1.20643
1.21508
1.22479
1.23452
1.24652
1.25862
1.27716
0.918739
0.942246
0.961331
0.97769
0.992565
1.00612
1.0181
1.02879
1.03855
1.04758
1.05604
1.0641
1.07188
1.07948
1.08696
1.09444
1.10191
1.10951
1.11713
1.12502
1.13291
1.14122
1.14948
1.15836
1.16716
1.17695
1.18666
1.19849
1.21018
1.2282
0.863803
0.88679
0.905537
0.921657
0.936396
0.949956
0.96205
0.972931
0.98296
0.992329
1.00119
1.00968
1.01792
1.026
1.03397
1.04192
1.04986
1.0579
1.06594
1.07422
1.08247
1.09109
1.09963
1.10872
1.11769
1.12756
1.13725
1.14891
1.16022
1.17772
0.807573
0.830033
0.848455
0.86435
0.878954
0.892521
0.904729
0.91579
0.92607
0.93576
0.944991
0.953897
0.96257
0.971101
0.979526
0.987928
0.996295
1.00475
1.01319
1.02183
1.03042
1.03934
1.04814
1.05745
1.06658
1.07653
1.08623
1.09775
1.10871
1.12567
0.750074
0.771985
0.79008
0.805751
0.820219
0.833786
0.846103
0.85733
0.867841
0.877829
0.887408
0.896696
0.905778
0.914729
0.923574
0.932391
0.941159
0.950003
0.958803
0.96778
0.976671
0.985865
0.994908
1.0044
1.01368
1.02369
1.03339
1.04476
1.05541
1.07182
0.691328
0.71265
0.730401
0.74585
0.760176
0.773733
0.786147
0.797525
0.808246
0.818506
0.828402
0.838039
0.847493
0.856827
0.866054
0.875247
0.884378
0.893563
0.902682
0.911952
0.921114
0.930548
0.939809
0.949481
0.958912
0.969005
0.978742
0.990007
1.00037
1.01623
0.631352
0.65203
0.669416
0.68464
0.698816
0.712348
0.724844
0.736353
0.747256
0.757757
0.767936
0.777884
0.787669
0.797341
0.806907
0.816429
0.825871
0.835344
0.844729
0.854241
0.863621
0.873243
0.882666
0.892452
0.90196
0.91205
0.921739
0.932841
0.943017
0.958355
0.570165
0.590131
0.607128
0.62212
0.636132
0.649619
0.662179
0.673798
0.684852
0.695557
0.70598
0.716197
0.726263
0.736223
0.746073
0.755866
0.765557
0.775254
0.78484
0.794529
0.80407
0.813832
0.823396
0.833303
0.842943
0.853115
0.862855
0.87382
0.883654
0.898381
0.507779
0.52696
0.543553
0.5583
0.57213
0.585544
0.598144
0.60985
0.621022
0.631892
0.642514
0.652947
0.663237
0.673425
0.683496
0.693489
0.703352
0.713194
0.722894
0.732664
0.742258
0.752036
0.761589
0.771434
0.78099
0.791024
0.800646
0.811456
0.821327
0.8355
0.44423
0.462545
0.478724
0.493208
0.506824
0.520131
0.532744
0.544511
0.555767
0.566755
0.57752
0.588107
0.598554
0.6089
0.619113
0.629221
0.639167
0.64906
0.658784
0.668551
0.678143
0.687917
0.697498
0.707366
0.716951
0.726908
0.736352
0.746746
0.7561
0.769762
0.379686
0.397028
0.412756
0.426915
0.440258
0.453412
0.466003
0.477798
0.489096
0.500142
0.510984
0.521654
0.532185
0.542606
0.552868
0.562991
0.572908
0.582721
0.592306
0.601873
0.611211
0.620679
0.629943
0.639495
0.648872
0.658726
0.668263
0.678665
0.687892
0.700139
0.314718
0.330866
0.345952
0.359606
0.372558
0.385479
0.397984
0.40975
0.421026
0.432064
0.44291
0.45358
0.464099
0.47449
0.484694
0.494722
0.504504
0.514137
0.523516
0.532856
0.541965
0.551179
0.560154
0.569297
0.578101
0.587147
0.59576
0.605291
0.614469
0.626893
0.250717
0.265171
0.279037
0.291749
0.304062
0.316573
0.328846
0.34048
0.351652
0.362595
0.373345
0.38391
0.39431
0.404557
0.414569
0.42434
0.433771
0.442947
0.451765
0.460451
0.468881
0.47744
0.485946
0.494842
0.50374
0.512998
0.521735
0.530583
0.537651
0.546807
0.19017
0.201991
0.213542
0.224491
0.235641
0.247329
0.259033
0.270303
0.281193
0.291867
0.30235
0.31265
0.322781
0.332742
0.342445
0.351878
0.360926
0.369652
0.377927
0.385931
0.393491
0.400944
0.408115
0.415513
0.422944
0.430945
0.438973
0.447602
0.455745
0.46482
0.13576
0.143896
0.15192
0.160093
0.169239
0.179335
0.189783
0.200135
0.210312
0.22037
0.230306
0.24011
0.249748
0.259172
0.26825
0.276933
0.285115
0.292895
0.300237
0.30738
0.314263
0.321168
0.327876
0.334596
0.340916
0.347142
0.352863
0.358916
0.364434
0.371134
0.0890674
0.0931212
0.0971143
0.101826
0.108082
0.115517
0.123583
0.131937
0.140409
0.148955
0.1576
0.166374
0.175204
0.183952
0.19237
0.200283
0.207458
0.213914
0.219589
0.224779
0.22955
0.23436
0.239308
0.244784
0.250681
0.257068
0.263213
0.268822
0.272249
0.274938
0.0498011
0.0505435
0.0510507
0.0524718
0.0556971
0.0598721
0.0646753
0.0699202
0.0754274
0.0811387
0.087114
0.0934348
0.100102
0.107036
0.114009
0.120818
0.127143
0.132783
0.13746
0.141209
0.143932
0.146019
0.147731
0.149804
0.15263
0.156644
0.161379
0.166318
0.169245
0.169116
0.0158489
0.0146657
0.0118186
0.0109272
0.0121714
0.0134027
0.0148061
0.0164555
0.0182845
0.0202824
0.0225015
0.0250029
0.027821
0.0309673
0.0343423
0.0378847
0.0413813
0.0447313
0.0476806
0.0501801
0.0520102
0.0532875
0.0539895
0.0545067
0.0550136
0.0559195
0.0571859
0.0589381
0.0600151
0.0581436
1.49065
1.44819
1.4077
1.36669
1.32521
1.28262
1.2388
1.19368
1.14725
1.09947
1.05033
0.999894
0.948124
0.895035
0.840688
0.785095
0.728302
0.670343
0.611255
0.551076
0.489887
0.427821
0.365155
0.302588
0.241375
0.183741
0.131915
0.0872981
0.0493202
0.016478
1.47981
1.43769
1.39767
1.357
1.31586
1.27356
1.23
1.18512
1.13891
1.09135
1.04242
0.992197
0.940643
0.887766
0.833646
0.778289
0.721747
0.664056
0.605261
0.545394
0.48455
0.422872
0.360644
0.298591
0.237993
0.181092
0.130084
0.086308
0.0489633
0.0165633
1.46894
1.42756
1.38797
1.34762
1.3068
1.26481
1.22151
1.17686
1.13088
1.08355
1.03485
0.984833
0.933497
0.88084
0.826952
0.771832
0.715544
0.658121
0.599617
0.540059
0.479552
0.418252
0.356445
0.294876
0.234835
0.178558
0.128226
0.085191
0.0485035
0.01656
1.45808
1.41763
1.37848
1.33845
1.29794
1.25622
1.21317
1.16876
1.12299
1.07587
1.02739
0.977584
0.926461
0.874021
0.820363
0.765478
0.709438
0.652281
0.594064
0.534811
0.474635
0.413704
0.352307
0.291209
0.231718
0.17608
0.126457
0.0841494
0.0480769
0.0165308
1.44734
1.40793
1.36924
1.32952
1.28929
1.24783
1.20502
1.16082
1.11527
1.06836
1.02008
0.970471
0.919559
0.86733
0.813894
0.75924
0.703443
0.646545
0.588608
0.529657
0.469803
0.409233
0.348239
0.287608
0.228667
0.17367
0.124764
0.0831802
0.0476952
0.0164886
1.43677
1.39843
1.36025
1.32083
1.28085
1.23964
1.19706
1.15306
1.10771
1.06099
1.01291
0.963494
0.912786
0.860764
0.807542
0.753117
0.697559
0.640913
0.583245
0.524591
0.465051
0.40483
0.34423
0.28406
0.22567
0.17132
0.123138
0.08227
0.0473505
0.016434
1.4264
1.38912
1.35147
1.31238
1.27263
1.23164
1.18928
1.14548
1.10032
1.05378
1.00589
0.956656
0.906143
0.854324
0.801312
0.747113
0.691787
0.635386
0.577979
0.519618
0.460385
0.400501
0.340285
0.280572
0.222735
0.169038
0.121582
0.0814175
0.0470387
0.016369
1.41625
1.38001
1.34289
1.30414
1.26462
1.22385
1.18169
1.13808
1.09308
1.04673
0.999012
0.949961
0.899633
0.848015
0.795207
0.741227
0.686127
0.629967
0.572815
0.51474
0.455805
0.396251
0.336417
0.277157
0.219876
0.166832
0.120099
0.0806235
0.0467588
0.0162954
1.40634
1.37109
1.33451
1.29611
1.25682
1.21625
1.17428
1.13085
1.08602
1.03984
0.992291
0.94341
0.893261
0.841839
0.789228
0.735461
0.68058
0.624657
0.567754
0.509956
0.451313
0.392085
0.332632
0.273824
0.217102
0.164709
0.11869
0.0798865
0.0465092
0.0162145
1.39669
1.36238
1.32634
1.28829
1.24923
1.20885
1.16706
1.12381
1.07914
1.03311
0.985725
0.93701
0.887032
0.8358
0.783379
0.729815
0.675147
0.619456
0.562797
0.505264
0.446906
0.388
0.32893
0.270574
0.214413
0.162669
0.117355
0.079203
0.046287
0.0161269
1.3873
1.35388
1.31836
1.28067
1.24184
1.20165
1.16002
1.11694
1.07243
1.02656
0.979321
0.930765
0.880953
0.8299
0.77766
0.724292
0.669832
0.614365
0.557941
0.50066
0.442581
0.383991
0.325302
0.267399
0.2118
0.160706
0.116089
0.0785688
0.0460894
0.0160336
1.3782
1.34559
1.31058
1.27326
1.23466
1.19464
1.15318
1.11026
1.0659
1.02017
0.973081
0.92468
0.875027
0.824144
0.772076
0.718897
0.664638
0.609385
0.553184
0.496143
0.438334
0.380052
0.32174
0.264292
0.20926
0.158816
0.114891
0.0779809
0.0459144
0.0159362
1.3694
1.33753
1.30301
1.26605
1.22767
1.18784
1.14654
1.10377
1.05954
1.01395
0.967009
0.918758
0.869256
0.818533
0.766631
0.713633
0.659569
0.604518
0.54853
0.491717
0.434169
0.376184
0.318245
0.261256
0.206793
0.157001
0.113759
0.0774376
0.0457618
0.0158365
1.36089
1.32971
1.29565
1.25904
1.22089
1.18123
1.14008
1.09745
1.05337
1.00791
0.961106
0.912998
0.863641
0.81307
0.761331
0.708506
0.654628
0.599768
0.543984
0.487388
0.430093
0.372398
0.314824
0.258296
0.204405
0.155264
0.112694
0.0769383
0.0456327
0.0157362
1.35269
1.32213
1.2885
1.25223
1.21431
1.17482
1.13382
1.09132
1.04737
1.00204
0.955372
0.907402
0.858184
0.807761
0.75618
0.703519
0.649816
0.59514
0.539551
0.483167
0.426116
0.368704
0.311488
0.255423
0.202104
0.153609
0.111696
0.0764822
0.0455159
0.0156361
1.34481
1.3148
1.28158
1.24564
1.20794
1.16861
1.12775
1.08538
1.04156
0.996346
0.949811
0.901972
0.852887
0.802608
0.75118
0.698672
0.645135
0.590635
0.535235
0.479055
0.422242
0.365107
0.308246
0.252642
0.199895
0.152034
0.110764
0.0760677
0.0454142
0.0155373
1.33724
1.30773
1.2749
1.23926
1.20179
1.16261
1.12188
1.07963
1.03594
0.990838
0.944423
0.896709
0.847754
0.797611
0.746329
0.693964
0.640583
0.586253
0.531035
0.475052
0.418469
0.361606
0.305096
0.24995
0.197775
0.150538
0.109896
0.0756922
0.0453256
0.0154406
1.33001
1.30093
1.26845
1.23311
1.19585
1.15682
1.11623
1.07409
1.03051
0.985517
0.939213
0.891617
0.842786
0.79277
0.741624
0.689393
0.636158
0.58199
0.526944
0.47115
0.41479
0.358194
0.302031
0.247342
0.195731
0.149121
0.109087
0.075353
0.0452486
0.0153469
1.3231
1.2944
1.26225
1.22718
1.19013
1.15125
1.11078
1.06875
1.02528
0.980386
0.934186
0.8867
0.837984
0.788084
0.737062
0.684958
0.631858
0.577842
0.522956
0.467341
0.411197
0.354865
0.299047
0.244812
0.193764
0.147777
0.108335
0.0750478
0.0451822
0.0152572
1.31652
1.28816
1.25631
1.22149
1.18464
1.1459
1.10556
1.06362
1.02025
0.97545
0.929345
0.88196
0.833349
0.783553
0.732645
0.680659
0.627684
0.573806
0.51907
0.463624
0.407689
0.351616
0.29614
0.242359
0.191871
0.146503
0.107638
0.0747756
0.045126
0.0151724
1.31027
1.28221
1.25062
1.21604
1.17937
1.14077
1.10054
1.0587
1.01543
0.970713
0.924695
0.8774
0.828881
0.779179
0.728374
0.6765
0.623638
0.569886
0.515289
0.460003
0.40427
0.348451
0.293314
0.23999
0.190056
0.145302
0.106997
0.0745358
0.0450798
0.0150935
1.30437
1.27656
1.24521
1.21084
1.17435
1.13587
1.09575
1.054
1.01081
0.966178
0.920237
0.873021
0.824584
0.774967
0.724255
0.672485
0.619727
0.566089
0.511622
0.456487
0.400949
0.345379
0.290577
0.237709
0.188322
0.144174
0.106411
0.0743277
0.0450436
0.0150209
1.29881
1.27121
1.24007
1.20589
1.16956
1.13119
1.09118
1.04951
1.0064
0.961846
0.915974
0.868825
0.820461
0.770921
0.720294
0.668619
0.615957
0.562422
0.508079
0.453086
0.397736
0.342407
0.287935
0.235519
0.186677
0.143122
0.10588
0.07415
0.0450161
0.0149546
1.29361
1.26617
1.23522
1.20119
1.16501
1.12676
1.08684
1.04524
1.00221
0.957716
0.911903
0.864813
0.816514
0.767044
0.716493
0.664904
0.61233
0.558892
0.504664
0.449806
0.394634
0.33954
0.28539
0.233421
0.185119
0.142142
0.105402
0.0739998
0.0449958
0.0148943
1.28875
1.26145
1.23065
1.19677
1.16072
1.12255
1.08272
1.04119
0.998219
0.953786
0.908026
0.860985
0.812743
0.763337
0.712853
0.661339
0.608848
0.555498
0.501379
0.446648
0.391641
0.336778
0.282945
0.231414
0.183644
0.141231
0.104973
0.0738737
0.0449806
0.0148399
1.28426
1.25705
1.22638
1.1926
1.15667
1.11859
1.07883
1.03736
0.99444
0.950056
0.90434
0.857342
0.80915
0.759797
0.709372
0.657923
0.605506
0.552237
0.498218
0.443605
0.388753
0.334114
0.280596
0.229491
0.182248
0.140383
0.104587
0.0737684
0.0449687
0.0147911
1.28012
1.25298
1.2224
1.18871
1.15288
1.11486
1.07517
1.03375
0.990871
0.946524
0.900847
0.853883
0.805734
0.756424
0.706048
0.654653
0.602302
0.549105
0.495175
0.440669
0.385962
0.331544
0.278337
0.227647
0.180924
0.139594
0.104241
0.0736813
0.0449592
0.0147483
1.27634
1.24922
1.21872
1.18509
1.14935
1.11138
1.07175
1.03036
0.987514
0.943193
0.897546
0.850608
0.802493
0.753216
0.702878
0.651526
0.599232
0.546097
0.492243
0.437835
0.383264
0.329062
0.276161
0.225881
0.17967
0.13886
0.103932
0.0736106
0.0449518
0.0147124
1.27293
1.2458
1.21535
1.18175
1.14607
1.10815
1.06855
1.0272
0.98437
0.940066
0.894442
0.847521
0.799428
0.750174
0.699865
0.648548
0.596298
0.543213
0.489422
0.435103
0.38066
0.32667
0.274064
0.22419
0.178481
0.138179
0.103658
0.0735556
0.0449472
0.0146825
1.26988
1.2427
1.21228
1.17869