/*--------------------------------*- C++ -*----------------------------------*\
  =========                 |
  \\      /  F ield         | OpenFOAM: The Open Source CFD Toolbox
   \\    /   O peration     | Website:  https://openfoam.org
    \\  /    A nd           | Version:  7
     \\/     M anipulation  |
\*---------------------------------------------------------------------------*/
FoamFile
{
    version     2.0;
    format      ascii;
    class       surfaceScalarField;
    location    "2.6";
    object      phi;
}
// * * * * * * * * * * * * * * * * * * * * * * * * * * * * * * * * * * * * * //

dimensions      [0 3 -1 0 0 0 0];

internalField   nonuniform List<scalar> 
35640
(
-4.5715e-05
0.00174374
-0.00169803
-0.000151192
0.00424679
-0.00414131
-0.000299585
0.00610112
-0.00595272
-0.000473197
0.00738113
-0.00720751
-0.000654739
0.00819545
-0.00801391
-0.000828275
0.0086471
-0.00847357
-0.000980075
0.00881906
-0.00866726
-0.00109886
0.0087734
-0.00865461
-0.0011756
0.00855563
-0.00847888
-0.00120341
0.00820014
-0.00817233
-0.00117735
0.00773449
-0.00776055
-0.00109414
0.0071826
-0.00726581
-0.000952064
0.00656651
-0.00670859
-0.000750894
0.00590713
-0.0061083
-0.000491791
0.00522434
-0.00548345
-0.000177202
0.00453686
-0.00485145
0.000189289
0.00386166
-0.00422815
0.000603132
0.00321369
-0.00362753
0.00105898
0.00260554
-0.00306139
0.00155092
0.00204717
-0.00253911
0.00207277
0.00154581
-0.00206765
0.00261825
0.00110604
-0.00165153
0.00318124
0.000729972
-0.00129296
0.00375591
0.000417524
-0.000992194
0.00433692
0.000166844
-0.000747857
0.00491951
-2.53072e-05
-0.000557282
0.00549947
-0.000162851
-0.000417113
0.00607314
-0.000249697
-0.000323964
0.00663716
-0.000285633
-0.000278395
-0.000259047
0.00718731
-0.000291096
-3.58573e-05
0.00177961
-0.00012159
0.00433252
-0.000245166
0.00622469
-0.00039186
0.00752782
-0.000546191
0.00834978
-0.000693237
0.00879415
-0.000819624
0.00894545
-0.000914126
0.0088679
-0.000967748
0.00860925
-0.000973564
0.00820596
-0.000926556
0.00768748
-0.000823391
0.00707944
-0.000662344
0.00640546
-0.000443197
0.00568799
-0.000167136
0.00494828
0.000163358
0.00420636
0.000544626
0.00348039
0.000971979
0.00278633
0.00143999
0.00213753
0.00194269
0.00154447
0.00247379
0.00101471
0.00302695
0.000552879
0.00359601
0.000160911
0.00417517
-0.000161642
0.00475916
-0.000417147
0.00534327
-0.00060942
0.00592351
-0.000743092
0.00649651
-0.000822692
0.00705932
-0.000848446
-0.000808158
0.00760844
-2.57544e-05
0.00180536
-9.06605e-05
0.00439743
-0.000187628
0.00632166
-0.000305049
0.00764524
-0.000429414
0.00847415
-0.000546839
0.00891158
-0.00064448
0.00904309
-0.000711354
0.00893477
-0.000738547
0.00863644
-0.000719132
0.00818654
-0.000648098
0.00761645
-0.000522143
0.00695349
-0.000339577
0.00622289
-0.000100236
0.00544864
0.000194604
0.00465344
0.000542365
0.0038586
0.000939291
0.00308346
0.00138062
0.002345
0.00186083
0.00165732
0.00237383
0.00103147
0.0029133
0.000475237
0.00347289
-6.71939e-06
0.00404649
-0.000412688
0.00462836
-0.000743507
0.00521331
-0.0010021
0.00579685
-0.00119296
0.00637518
-0.00132143
0.00694521
-0.00139272
0.00750451
-0.00140775
-0.00135402
0.00805037
-1.55325e-05
0.00182089
-5.9006e-05
0.0044409
-0.000127956
0.00639061
-0.000214115
0.0077314
-0.000305975
0.00856601
-0.000390909
0.00899651
-0.000456765
0.00910894
-0.000492832
0.00897084
-0.000490389
0.008634
-0.000442645
0.0081388
-0.000344633
0.00751844
-0.000193146
0.006802
1.33919e-05
0.00601636
0.000275024
0.00518701
0.000590354
0.00433811
0.000956691
0.00349226
0.00137015
0.00267001
0.00182584
0.00188931
0.00231814
0.00116502
0.00284093
0.000508674
0.00338787
-7.1702e-05
0.00395264
-0.00057149
0.00452919
-0.000989239
0.00511192
-0.00132624
0.00569584
-0.00158603
0.00627667
-0.00177379
0.00685088
-0.00189563
0.00741574
-0.00195757
0.00796932
-0.00196133
-0.00189444
0.00850973
-5.41791e-06
0.00182631
-2.7136e-05
0.00446262
-6.71219e-05
0.0064306
-0.000120435
0.00778472
-0.000177715
0.00862329
-0.000227646
0.00904645
-0.000258886
0.00914019
-0.000261221
0.00897318
-0.000226196
0.00859897
-0.000147184
0.00805979
-1.93876e-05
0.00739064
0.00016022
0.00662239
0.000393044
0.00578353
0.000678971
0.00490108
0.00101644
0.00400064
0.00140256
0.00310614
0.0018333
0.00223926
0.00230368
0.00141893
0.00280797
0.00066073
0.00334001
-2.33628e-05
0.00389346
-0.000625153
0.00446209
-0.00114012
0.00504
-0.00156715
0.00562178
-0.00190802
0.00620269
-0.00216694
0.00677874
-0.00234984
0.00734672
-0.00246362
0.00790429
-0.00251514
0.00845001
-0.00250705
-0.00242734
0.00898291
4.50403e-06
0.00182181
4.46021e-06
0.00446266
-6.12674e-06
0.00644118
-2.55297e-05
0.00780412
-4.65492e-05
0.00864431
-5.93478e-05
0.00905924
-5.35438e-05
0.00913438
-1.95195e-05
0.00893915
5.08179e-05
0.00852864
0.000163791
0.00794682
0.000323934
0.0072305
0.000534058
0.00641227
0.000795338
0.00552225
0.00110741
0.00458901
0.00146849
0.00363956
0.00187551
0.00269912
0.00232424
0.00179053
0.00280955
0.000933618
0.00332564
0.000144641
0.00386632
-0.000564044
0.00442531
-0.00118415
0.00499652
-0.00171133
0.00557422
-0.00214485
0.00615328
-0.00248708
0.00672928
-0.00274294
0.00729857
-0.00291913
0.00785833
-0.00302338
0.00840662
-0.00306343
0.00894254
-0.00304297
-0.00295079
0.009466
1.39323e-05
0.00180787
3.51659e-05
0.00444143
5.3962e-05
0.00642239
6.9102e-05
0.00778898
8.55229e-05
0.00862789
0.000111517
0.00903325
0.000156408
0.00908949
0.00022906
0.0088665
0.000337062
0.00842064
0.000486365
0.00779752
0.00068117
0.0070357
0.000923967
0.00616947
0.00121563
0.00523059
0.0015555
0.00424913
0.00194155
0.00325351
0.00237043
0.00227024
0.00283772
0.00132324
0.00333814
0.000433199
0.00386579
-0.000383016
0.0044145
-0.00111275
0.00497807
-0.00174772
0.00555057
-0.00228383
0.00612654
-0.00272082
0.0067012
-0.00306174
0.0072705
-0.00331224
0.0078312
-0.00347983
0.00838092
-0.0035731
0.00891815
-0.00360065
0.00944251
-0.00356732
-0.00346308
0.00995479
2.27229e-05
0.00178515
6.44475e-05
0.0043997
0.000112157
0.00637468
0.000161891
0.00773925
0.000216422
0.00857336
0.00028239
0.00896728
0.000367915
0.00900397
0.000481013
0.0087534
0.000628665
0.00827299
0.00081632
0.00760986
0.00104776
0.00680426
0.00132508
0.00589215
0.00164881
0.00490687
0.00201794
0.00388
0.0024301
0.00284135
0.00288168
0.00181866
0.003368
0.000836911
0.00388361
-8.24146e-05
0.00442255
-0.000921951
0.00497864
-0.00166885
0.00554583
-0.0023149
0.00611839
-0.00285639
0.00669121
-0.00329364
0.00725988
-0.00363042
0.00782082
-0.00387318
0.00837128
-0.00403029
0.00890934
-0.00411116
0.00943397
-0.00412528
0.00994528
-0.00407864
-0.00396275
0.010445
3.07301e-05
0.00175442
9.1783e-05
0.00433865
0.000167454
0.00629901
0.000251328
0.00765537
0.000344075
0.00848061
0.000450639
0.00886072
0.000577844
0.00887676
0.000732741
0.00859851
0.000921569
0.00808416
0.00114919
0.00738224
0.00141888
0.00653458
0.00173228
0.00557875
0.00208947
0.00454967
0.00248907
0.0034804
0.00292832
0.0024021
0.00340326
0.00134372
0.00390895
0.000331213
0.00443977
-0.000613227
0.00498965
-0.00147183
0.00555247
-0.00223166
0.00612231
-0.00288474
0.00669375
-0.00342783
0.00726206
-0.00386195
0.0078233
-0.00419166
0.0083744
-0.00442428
0.00891315
-0.00456904
0.00943816
-0.00463618
0.00994891
-0.00463603
0.010446
-0.00457575
-0.00444869
0.010932
3.7814e-05
0.00171661
0.00011672
0.00425974
0.00021895
0.00619678
0.000335974
0.00753835
0.000466479
0.00835011
0.000613699
0.0087135
0.000783086
0.00870737
0.000980616
0.00840098
0.00121168
0.0078531
0.00148045
0.00711346
0.00178962
0.00622541
0.00214031
0.00522806
0.00253209
0.00415788
0.00296312
0.00304937
0.00343021
0.00193502
0.00392902
0.00084491
0.00445431
-0.000194074
0.00500022
-0.00115914
0.00556064
-0.00203225
0.00612948
-0.00280051
0.00670104
-0.0034563
0.00727023
-0.00399703
0.00783277
-0.00442449
0.00838526
-0.00474415
0.0089252
-0.00496423
0.009451
-0.00509483
0.00996183
-0.00514701
0.0104577
-0.00513192
0.0109398
-0.0050578
-0.0049201
0.0114112
4.38715e-05
0.00167274
0.000138881
0.00416473
0.000265854
0.00606981
0.000414529
0.00738968
0.000581783
0.00818286
0.000769158
0.00852613
0.000980675
0.00849586
0.00122114
0.00816051
0.00149502
0.00757922
0.0018057
0.00680278
0.0021552
0.00587591
0.00254404
0.00483922
0.00297125
0.00373068
0.00343443
0.00258618
0.00392992
0.00143953
0.00445292
0.000321906
0.00499786
-0.000739014
0.00555866
-0.00171994
0.00612912
-0.0026027
0.00670323
-0.00337463
0.00727555
-0.00402862
0.00784138
-0.00456286
0.00839697
-0.00498007
0.00893952
-0.00528669
0.00946718
-0.0054919
0.009979
-0.00560665
0.0104748
-0.0056428
0.0109551
-0.00561221
0.0114215
-0.0055242
-0.00537646
0.0118778
4.88314e-05
0.0016239
0.000157973
0.00405559
0.000307523
0.00592026
0.0004859
0.0072113
0.000688376
0.00798038
0.000914856
0.00829965
0.00116791
0.0082428
0.00145112
0.0078773
0.0017679
0.00726243
0.00212082
0.00644987
0.00251112
0.0054856
0.00293867
0.00441168
0.00340185
0.00326749
0.00389768
0.00209035
0.0044219
0.000915311
0.00496923
-0.000225434
0.00553372
-0.0013035
0.00610905
-0.00229527
0.00668892
-0.00318258
0.00726747
-0.00395318
0.00783955
-0.0046007
0.00840094
-0.00512425
0.00894847
-0.00552761
0.00948003
-0.00581825
0.00999446
-0.00600634
0.0104915
-0.0061037
0.0109716
-0.00612292
0.0114359
-0.0060765
0.0118864
-0.0059747
-0.00581756
0.0123275
5.26556e-05
0.00157125
0.000173805
0.00393444
0.000343492
0.00575057
0.000549242
0.00700555
0.000784953
0.00774467
0.001049
0.0080356
0.0013425
0.0079493
0.00166776
0.00755204
0.00202713
0.00690307
0.00242221
0.00605479
0.00285346
0.00505435
0.00331997
0.00394517
0.00381942
0.00276804
0.00434813
0.00156164
0.0049012
0.000362242
0.0054728
-0.000797033
0.00605653
-0.00188723
0.00664581
-0.00288455
0.00723431
-0.00377108
0.00781634
-0.0045352
0.00838711
-0.00517148
0.00894297
-0.00568011
0.0094814
-0.00606604
0.010001
-0.00633788
0.0105015
-0.00650678
0.0109832
-0.00658542
0.0114473
-0.00658702
0.0118954
-0.00652464
0.0123301
-0.00640935
-0.00624357
0.0127561
5.53416e-05
0.00151591
0.000186298
0.00380349
0.000373498
0.00556337
0.000604002
0.00677505
0.000870595
0.00747808
0.00117025
0.00773595
0.00150269
0.00761687
0.00186891
0.00718581
0.00227014
0.00650184
0.00270699
0.00561794
0.00317903
0.00458232
0.0036845
0.0034397
0.00422027
0.00223227
0.00478186
0.00100005
0.00536364
-0.000219544
0.00595917
-0.00139256
0.00656157
-0.00248963
0.00716402
-0.003487
0.00776017
-0.00436723
0.00834455
-0.00511958
0.00891285
-0.00573978
0.00946205
-0.0062293
0.00999038
-0.00659437
0.0104973
-0.00684476
0.0109831
-0.00699263
0.0114491
-0.00705145
0.0118971
-0.00703502
0.0123293
-0.0069568
0.0127485
-0.00682853
-0.00665498
0.0131599
5.69217e-05
0.00145899
0.000195486
0.00366492
0.000397493
0.00536137
0.000649954
0.00652259
0.000944816
0.00718322
0.00127782
0.00740295
0.00164734
0.00724735
0.00205312
0.00678004
0.0024952
0.00605976
0.00297316
0.00513998
0.00348558
0.0040699
0.00402977
0.00289551
0.00460166
0.00166038
0.00519587
0.000405838
0.00580596
-0.00082963
0.00642477
-0.00201138
0.00704497
-0.00310983
0.00765947
-0.0041015
0.00826199
-0.00496975
0.00884741
-0.00570499
0.00941195
-0.00630433
0.00995332
-0.00677068
0.0104706
-0.00711163
0.010964
-0.00733818
0.0114348
-0.00746347
0.0118851
-0.00750167
0.0123171
-0.00746705
0.0127336
-0.00737336
0.013138
-0.00723285
-0.00705255
0.0135355
5.74646e-05
0.00140152
0.00020152
0.00352087
0.000415654
0.00514723
0.000687223
0.00625102
0.00100761
0.00686283
0.00137151
0.00703905
0.00177607
0.00684279
0.00221977
0.00633633
0.0027015
0.00557803
0.00321971
0.00462177
0.00377191
0.0035177
0.00435435
0.00231307
0.0049619
0.00105283
0.00558818
-0.000220434
0.00622579
-0.00146724
0.00686687
-0.00265246
0.00750358
-0.00374654
0.00812868
-0.0047266
0.00873602
-0.00557709
0.00932091
-0.00628989
0.00988027
-0.00686369
0.0104126
-0.00730301
0.0109179
-0.00761689
0.0113972
-0.00781754
0.0118528
-0.00791903
0.0122873
-0.00793614
0.0127037
-0.00788347
0.0131053
-0.00777495
0.0134956
-0.00762315
-0.00743722
0.0138802
5.70736e-05
0.00134445
0.000204663
0.00337328
0.000428381
0.00492351
0.000716284
0.00596311
0.00105947
0.00651964
0.00145178
0.00664674
0.00188923
0.00640533
0.00236914
0.00585643
0.00288919
0.00505798
0.00344666
0.0040643
0.00403787
0.00292648
0.00465788
0.00169306
0.00530036
0.000410353
0.00595775
-0.000877825
0.00662169
-0.00213119
0.00728355
-0.00331432
0.00793504
-0.00439803
0.00856885
-0.00536041
0.00917911
-0.00618735
0.00976168
-0.00687247
0.0103143
-0.00741629
0.0108363
-0.00782506
0.0113287
-0.00810929
0.0117936
-0.00828239
0.0122338
-0.00835924
0.0126528
-0.00835512
0.0130541
-0.00828484
0.0134415
-0.00816235
0.0138188
-0.0080004
-0.00781006
0.0141916
5.58832e-05
0.00128857
0.000205283
0.00322388
0.000436285
0.00469251
0.000737953
0.00566145
0.00110135
0.00615624
0.00151968
0.00622842
0.00198796
0.00593705
0.00250238
0.00534201
0.00305941
0.00450095
0.00365507
0.00346865
0.00428436
0.00229719
0.00494099
0.00103643
0.00561727
-0.000265926
0.00630439
-0.00156495
0.00699294
-0.00281973
0.00767355
-0.00399492
0.00833758
-0.00506206
0.00897779
-0.00600061
0.00958871
-0.00679828
0.010167
-0.00745072
0.0107112
-0.00796048
0.0112217
-0.00833559
0.0117005
-0.00858807
0.0121505
-0.0087324
0.0125754
-0.0087842
0.0129794
-0.00875907
0.0133664
-0.0086719
0.0137406
-0.00853652
0.0141059
-0.00836569
-0.0081722
0.014468
5.40536e-05
0.00123451
0.000203836
0.0030741
0.00044016
0.00445619
0.000753351
0.00534826
0.00113467
0.00577492
0.00157685
0.00578623
0.00207408
0.00543982
0.00262143
0.00479465
0.00321413
0.00390825
0.00384684
0.00283594
0.00451311
0.00163092
0.00520509
0.000344443
0.00591361
-0.000974443
0.00662851
-0.00227985
0.00733935
-0.00353057
0.00803608
-0.00469166
0.00870988
-0.00573586
0.00935372
-0.00664445
0.00996279
-0.00740734
0.0105345
-0.00802248
0.0110686
-0.00849455
0.0115664
-0.00883343
0.012031
-0.00905257
0.012466
-0.00916745
0.012876
-0.0091942
0.0132656
-0.00914865
0.0136392
-0.00904556
0.0140012
-0.00889852
0.0143557
-0.00872017
-0.00852481
0.0147083
5.17657e-05
0.00118275
0.000200852
0.00292501
0.000440952
0.00421609
0.00076385
0.00502536
0.00116119
0.00537758
0.00162543
0.00532199
0.00214999
0.00491527
0.00272888
0.00421577
0.00335601
0.00328112
0.00402456
0.0021674
0.00472643
0.000929052
0.00545208
-0.000381212
0.00619073
-0.00171309
0.00693085
-0.00301997
0.00766098
-0.0042607
0.0083706
-0.00540128
0.00905088
-0.00641614
0.00969523
-0.00728881
0.0102997
-0.00801177
0.0108627
-0.00858547
0.0113849
-0.00901683
0.0118691
-0.00931755
0.0123189
-0.00950238
0.012739
-0.00958762
0.0131346
-0.00958978
0.0135107
-0.00952469
0.013872
-0.00940688
0.014223
-0.00924954
0.0145679
-0.00906508
-0.00886909
0.0149122
4.92141e-05
0.00113353
0.000196905
0.00277732
0.000439714
0.00397328
0.000771006
0.00469407
0.00118297
0.00496562
0.00166789
0.00483707
0.0022185
0.00436465
0.00282775
0.00360652
0.00348813
0.00262074
0.00419116
0.00146437
0.00492693
0.000193279
0.00568407
-0.00113835
0.00645009
-0.00247911
0.00721215
-0.00378203
0.00795794
-0.00500649
0.00867663
-0.00611997
0.00935964
-0.00709915
0.0100011
-0.00793027
0.010598
-0.00860868
0.01115
-0.00913747
0.011659
-0.00952581
0.0121285
-0.00978711
0.0125635
-0.00993729
0.0129691
-0.00999325
0.013351
-0.00997169
0.0137145
-0.00988825
0.0140647
-0.00975707
0.0144061
-0.00959085
0.0147427
-0.00940167
-0.0092063
0.0150799
4.65996e-05
0.00108693
0.000192596
0.00263132
0.000437555
0.00372832
0.000776476
0.00435515
0.00120218
0.00453991
0.00170687
0.00433237
0.00228263
0.00378889
0.00292124
0.00296791
0.00361367
0.0019283
0.0043496
0.000728433
0.00511714
-0.000574263
0.00590297
-0.00192418
0.00669293
-0.00326907
0.00747295
-0.00456205
0.0082301
-0.00576365
0.00895355
-0.00684342
0.00963525
-0.00778084
0.0102703
-0.0085653
0.0108568
-0.0091952
0.0113957
-0.00967638
0.0118901
-0.0100202
0.0123445
-0.0102416
0.0127646
-0.0103574
0.0131564
-0.010385
0.0135256
-0.0103409
0.0138779
-0.0102405
0.0142183
-0.0100975
0.0145512
-0.00992377
0.0148807
-0.00973121
-0.00953759
0.015212
4.41199e-05
0.00104281
0.00018852
0.00248692
0.000435582
0.00348126
0.000781925
0.0040088
0.00122104
0.0041008
0.00174505
0.00380836
0.00234535
0.0031886
0.00301245
0.00230081
0.00373563
0.00120512
0.00450255
-3.84862e-05
0.00529919
-0.0013709
0.00611025
-0.00273524
0.00691999
-0.0040788
0.00771334
-0.0053554
0.00847705
-0.00652736
0.00920059
-0.00756696
0.00987675
-0.008457
0.0105018
-0.00919034
0.0110752
-0.00976863
0.0115992
-0.0102004
0.012078
-0.010499
0.0125172
-0.0106807
0.0129229
-0.0107631
0.0133016
-0.0107637
0.0136594
-0.0106987
0.0140018
-0.010583
0.0143338
-0.0104295
0.0146597
-0.0102496
0.0149833
-0.0100548
-0.00986397
0.0153097
4.19603e-05
0.00100085
0.00018524
0.00234364
0.000434845
0.00323165
0.00078893
0.00365472
0.00124161
0.00364812
0.0017849
0.00326506
0.00240938
0.00256413
0.00310413
0.00160606
0.00385654
0.000452709
0.00465209
-0.000834035
0.00547455
-0.00219336
0.00630669
-0.00356738
0.00713139
-0.0049035
0.00793289
-0.0061569
0.00869797
-0.00729243
0.00941676
-0.00828575
0.0100832
-0.00912343
0.0106949
-0.00980207
0.0112528
-0.0103265
0.0117604
-0.010708
0.0122231
-0.0109616
0.0126471
-0.0111047
0.0130392
-0.0111553
0.0134061
-0.0111306
0.0137539
-0.0110465
0.0140881
-0.0109171
0.0144132
-0.0107546
0.0147333
-0.0105697
0.0150521
-0.0103736
-0.0101862
0.0153743
4.02863e-05
0.000960567
0.000183259
0.00220067
0.000436284
0.00297863
0.000798894
0.00329211
0.00126573
0.00318129
0.00182855
0.00270223
0.00247695
0.00191572
0.00319841
0.000884607
0.0039782
-0.000327082
0.00479948
-0.00165532
0.00564384
-0.00303772
0.00649227
-0.00441581
0.00732656
-0.00573779
0.00813063
-0.00696097
0.0088917
-0.0080535
0.00960094
-0.00899498
0.0102537
-0.00977615
0.010849
-0.0103974
0.0113895
-0.010867
0.0118797
-0.0111982
0.0123259
-0.0114079
0.0127353
-0.0115141
0.013115
-0.0115349
0.0134716
-0.0114872
0.0138111
-0.011386
0.0141387
-0.0112447
0.0144587
-0.0110746
0.0147745
-0.0108855
0.0150894
-0.0106884
-0.0105047
0.0154079
3.92364e-05
0.00092133
0.000182998
0.00205691
0.00044068
0.00272095
0.00081297
0.00291981
0.00129485
0.00269941
0.00187764
0.00211945
0.00254971
0.00124366
0.00329667
0.000137647
0.00410153
-0.00113195
0.00494509
-0.00249888
0.00580681
-0.00389943
0.00666617
-0.00527518
0.00750428
-0.00657589
0.00830517
-0.00776187
0.0090569
-0.00880523
0.00975201
-0.00969009
0.0103874
-0.0104116
0.0109639
-0.0109739
0.0114853
-0.0113883
0.0119575
-0.0116704
0.0123877
-0.0118381
0.0127834
-0.0119098
0.0131519
-0.0119035
0.0134999
-0.0118352
0.0138331
-0.0117193
0.0141563
-0.0115679
0.0144729
-0.0113912
0.0147859
-0.0111985
0.0150978
-0.0110004
-0.0108201
0.0154132
3.89175e-05
0.000882412
0.000184779
0.00191105
0.000448626
0.0024571
0.000832013
0.00253643
0.00133002
0.0022014
0.00193323
0.00151624
0.00262853
0.000548363
0.00339945
-0.000633272
0.00422658
-0.00195908
0.00508835
-0.00336066
0.00596234
-0.00477342
0.00682689
-0.00613973
0.00766284
-0.00741184
0.00845482
-0.00855385
0.00919214
-0.00954255
0.00986895
-0.0103669
0.0104839
-0.0110265
0.0110395
-0.0115295
0.0115408
-0.0118897
0.0119949
-0.0121245
0.0124096
-0.0122527
0.0127927
-0.012293
0.0131518
-0.0122625
0.0134932
-0.0121766
0.0138223
-0.0120484
0.0141432
-0.0118887
0.0144587
-0.0117067
0.0147705
-0.0115103
0.0150801
-0.01131
-0.0111302
0.0153902
3.94017e-05
0.000843011
0.000188816
0.00176163
0.000460506
0.00218541
0.000856543
0.00214039
0.00137178
0.00168617
0.00199575
0.000892264
0.00271357
-0.000169451
0.00350644
-0.00142615
0.00435249
-0.00280513
0.00522789
-0.00423607
0.00610864
-0.00565417
0.0069724
-0.0070035
0.00780025
-0.00823968
0.00857786
-0.00933146
0.00929611
-0.0102608
0.00995101
-0.0110218
0.010543
-0.0116185
0.0110762
-0.0120626
0.0115569
-0.0123704
0.0119931
-0.0125607
0.0123931
-0.0126528
0.0127651
-0.012665
0.0131165
-0.0126138
0.0134535
-0.0125136
0.0137811
-0.012376
0.0141026
-0.0122103
0.0144198
-0.0120239
0.0147329
-0.0118234
0.0150414
-0.0116185
-0.0114327
0.0153439
4.07265e-05
0.000802284
0.000195216
0.00160714
0.000476493
0.00190413
0.000886744
0.00173014
0.00142022
0.00115269
0.00206505
0.000247435
0.00280426
-0.000908663
0.00361659
-0.00223848
0.00447767
-0.0036662
0.00536168
-0.00512008
0.00624344
-0.00653593
0.00710043
-0.00786048
0.00791445
-0.0090537
0.00867265
-0.0100897
0.00936778
-0.0109559
0.00999779
-0.0116518
0.010565
-0.0121857
0.0110748
-0.0125724
0.0115348
-0.0128305
0.0119536
-0.0129795
0.01234
-0.0130391
0.0127022
-0.0130271
0.0130475
-0.0129592
0.0133823
-0.0128484
0.0137112
-0.0127049
0.0140373
-0.0125364
0.0143612
-0.0123477
0.0146796
-0.0121419
0.0149836
-0.0119225
-0.0117251
0.015276
4.28959e-05
0.000759388
0.000203985
0.00144605
0.000496562
0.00161155
0.000922484
0.00130422
0.00147498
0.000600188
0.00214041
-0.00041799
0.00289944
-0.00166769
0.00372821
-0.00306725
0.00459998
-0.00453798
0.00548729
-0.00600738
0.00636423
-0.00741287
0.00720863
-0.00870489
0.00800353
-0.0098486
0.00873789
-0.010824
0.0094065
-0.0116246
0.0100093
-0.0122546
0.0105504
-0.0127267
0.0110364
-0.0130585
0.011476
-0.01327
0.0118781
-0.0133816
0.0122517
-0.0134127
0.0126051
-0.0133806
0.0129458
-0.0132999
0.01328
-0.0131826
0.0136129
-0.0130379
0.0139486
-0.0128721
0.0142896
-0.0126887
0.0146353
-0.0124876
0.014976
-0.0122631
0.0152459
-0.0119951
0.00870285
0.00156858
-0.00308412
0.00965499
0.00521201
-0.00616415
0.0101933
0.00971119
-0.0102495
0.0104687
0.0138253
-0.0141007
0.010565
0.0172418
-0.0173381
0.0105415
0.0198794
-0.0198559
0.0104363
0.0219801
-0.0218749
0.0102738
0.0238151
-0.0236527
0.0100692
0.0255509
-0.0253462
0.00983131
0.0272501
-0.0270123
0.00956647
0.0289049
-0.0286401
0.00927823
0.0305014
-0.0302132
0.00897076
0.0320178
-0.0317103
0.00864569
0.0334461
-0.0331211
0.0083065
0.0347846
-0.0344454
0.00795408
0.0360318
-0.0356793
0.00759064
0.0371862
-0.0368227
0.00721739
0.0382471
-0.0378739
0.00683595
0.0392139
-0.0388324
0.00644662
0.040088
-0.0396987
0.00605127
0.0408583
-0.040463
0.00564949
0.0415431
-0.0411413
0.00524204
0.0421116
-0.0417041
0.00482839
0.0426013
-0.0421877
0.00440708
0.0429697
-0.0425484
0.00397878
0.0432518
-0.0428235
0.00353753
0.0434588
-0.0430176
0.00308666
0.0435025
-0.0430517
0.00262023
0.0436003
-0.0431338
0.0436849
-0.0432123
0.00903075
0.000146294
0.00992061
0.00432218
0.0104219
0.00920991
0.0106753
0.0135719
0.0107588
0.0171583
0.0107277
0.0199106
0.0106173
0.0220905
0.0104516
0.0239809
0.0102436
0.0257589
0.0100024
0.0274913
0.00973361
0.0291737
0.00944148
0.0307935
0.0091294
0.0323298
0.0087989
0.0337766
0.00845358
0.0351299
0.00809459
0.0363907
0.00772379
0.037557
0.00734253
0.0386284
0.00695237
0.039604
0.00655398
0.0404864
0.00614861
0.0412637
0.00573664
0.0419551
0.00531839
0.0425298
0.00489377
0.0430259
0.00446098
0.0434025
0.00402123
0.0436916
0.0035686
0.0439115
0.00310626
0.0439649
0.00262883
0.0440777
0.0441688
0.00936457
-0.00116791
0.0101862
0.00350052
0.0106481
0.00874804
0.0108786
0.0133414
0.0109493
0.0170876
0.010911
0.0199489
0.0107959
0.0222055
0.0106269
0.0241499
0.0104159
0.0259699
0.0101718
0.0277354
0.0098996
0.0294459
0.00960372
0.0310894
0.00928715
0.0326464
0.00895159
0.0341122
0.00860035
0.0354812
0.00823499
0.0367561
0.00785695
0.037935
0.00746777
0.0390176
0.00706904
0.0400028
0.00666164
0.0408938
0.00624636
0.041679
0.00582434
0.0423771
0.00539524
0.0429589
0.00495982
0.0434613
0.00451562
0.0438467
0.00406449
0.0441427
0.00360056
0.0443754
0.00312675
0.0444387
0.0026382
0.0445663
0.0446641
0.00970236
-0.00236053
0.0104506
0.00275224
0.0108711
0.00832762
0.0110783
0.0131341
0.0111364
0.0170295
0.0110909
0.0199944
0.0109717
0.0223248
0.0107997
0.0243219
0.0105863
0.0261833
0.0103396
0.0279822
0.0100641
0.0297214
0.00976465
0.0313888
0.00944392
0.0329671
0.00910371
0.0344524
0.00874669
0.0358382
0.00837504
0.0371277
0.00798999
0.0383201
0.00759305
0.0394145
0.00718605
0.0404098
0.00676955
0.0413103
0.00634464
0.0421039
0.00591244
0.0428093
0.00547266
0.0433987
0.00502648
0.0439075
0.00457095
0.0443023
0.00410864
0.044605
0.00363326
0.0448508
0.00314821
0.0449237
0.00264828
0.0450662
0.0451709
0.0100422
-0.00341986
0.0107126
0.00208186
0.01109
0.00795026
0.0112738
0.0129503
0.0113195
0.0169838
0.0112673
0.0200466
0.0111445
0.0224477
0.0109699
0.0244965
0.0107542
0.0263989
0.0105052
0.0282313
0.0102271
0.0299994
0.00992434
0.0316916
0.00959955
0.0332919
0.00925495
0.034797
0.0088925
0.0362007
0.00851477
0.0375055
0.00812294
0.0387119
0.00771833
0.0398191
0.00730316
0.0408249
0.00687759
0.0417359
0.00644328
0.0425382
0.00600098
0.0432516
0.00555066
0.043849
0.00509368
0.0443645
0.00462696
0.044769
0.00415357
0.0450784
0.00366672
0.0453376
0.00317059
0.0454198
0.00265906
0.0455777
0.0456893
0.0103839
-0.00433779
0.0109696
0.00149615
0.0113042
0.00761565
0.0114646
0.0127899
0.0114984
0.0169501
0.01144
0.020105
0.0113139
0.0225737
0.0111371
0.0246733
0.0109196
0.0266165
0.0106686
0.0284822
0.0103882
0.0302798
0.0100825
0.0319973
0.00975398
0.0336204
0.00940519
0.0351458
0.00903764
0.0365682
0.00865401
0.0378891
0.00825564
0.0391103
0.00784354
0.0402312
0.00742029
0.0412482
0.00698586
0.0421703
0.00654219
0.0429819
0.0060899
0.0437039
0.00562914
0.0443098
0.00516144
0.0448322
0.00468363
0.0452468
0.00419922
0.0455628
0.00370098
0.0458359
0.00319378
0.0459271
0.00267061
0.0461009
0.0462195
0.0107226
-0.00510559
0.0112238
0.000994945
0.0115132
0.00732625
0.0116505
0.0126526
0.0116728
0.0169278
0.0116087
0.020169
0.0114798
0.0227026
0.0113012
0.0248519
0.0110822
0.0268355
0.0108296
0.0287348
0.0105473
0.0305622
0.010239
0.0323056
0.00990706
0.0339524
0.00955431
0.0354986
0.00918198
0.0369405
0.00879264
0.0382785
0.00838795
0.039515
0.00796861
0.0406506
0.00753737
0.0416794
0.00709429
0.0426134
0.00664133
0.0434349
0.00617917
0.0441661
0.00570804
0.0447809
0.00522973
0.0453105
0.00474093
0.0457356
0.00424556
0.0460582
0.00373605
0.0463454
0.00321776
0.0464453
0.00268292
0.0466358
0.0467616
0.0110579
-0.00571857
0.0114726
0.000580278
0.0117165
0.00708237
0.0118311
0.012538
0.0118426
0.0169163
0.0117733
0.0202383
0.0116421
0.0228338
0.0114621
0.0250319
0.0112419
0.0270557
0.0109881
0.0289885
0.0107041
0.0308462
0.0103936
0.032616
0.0100586
0.0342874
0.00970215
0.035855
0.00932538
0.0373173
0.00893056
0.0386733
0.00851977
0.0399257
0.00809343
0.0410769
0.00765434
0.0421185
0.00720279
0.0430649
0.00674063
0.043897
0.00626874
0.044638
0.00578733
0.0452623
0.00529851
0.0457993
0.00479885
0.0462352
0.00429254
0.0465645
0.00377187
0.046866
0.00324252
0.0469747
0.00269599
0.0471823
0.0473158
0.0113885
-0.00617511
0.0117148
0.000253954
0.0119137
0.00688355
0.0120063
0.0124454
0.0120077
0.0169149
0.0119337
0.0203122
0.0118005
0.0229671
0.0116194
0.0252129
0.0113985
0.0272767
0.0111438
0.0292432
0.0108585
0.0311316
0.0105461
0.0329283
0.0102085
0.0346251
0.00984859
0.0362149
0.00946768
0.0376982
0.00906768
0.0390733
0.00865098
0.0403424
0.0082179
0.04151
0.00777112
0.0425653
0.00731128
0.0435248
0.00684004
0.0443682
0.00635857
0.0451194
0.00586695
0.0457539
0.0053677
0.0462986
0.00485732
0.0467456
0.00434016
0.0470817
0.00380839
0.0473978
0.00326801
0.0475151
0.00270984
0.0477405
0.0478823
0.0117127
-0.00647669
0.0119492
1.74806e-05
0.0121045
0.00672826
0.012176
0.0123739
0.0121681
0.0169228
0.01209
0.0203903
0.0119551
0.023102
0.0117733
0.0253948
0.0115519
0.027498
0.0112966
0.0294984
0.0110103
0.0314179
0.0106964
0.0332422
0.0103565
0.034965
0.00999349
0.0365779
0.00960875
0.0380829
0.00920387
0.0394782
0.00878147
0.0407648
0.00834193
0.0419495
0.00788764
0.0430196
0.00741969
0.0439927
0.0069395
0.0448484
0.00644859
0.0456103
0.00594689
0.0462556
0.00543727
0.0468082
0.00491629
0.0472666
0.00438835
0.0476096
0.00384559
0.0479406
0.0032942
0.0480665
0.00272448
0.0483102
0.0484613
0.0120277
-0.00662652
0.0121763
-0.000131173
0.0122889
0.0066157
0.0123403
0.0123226
0.0123239
0.0169392
0.0122421
0.020472
0.0121059
0.0232382
0.0119235
0.0255772
0.011702
0.0277195
0.0114463
0.0297541
0.0111595
0.0317047
0.0108444
0.0335574
0.0105026
0.0353068
0.0101367
0.0369438
0.00974843
0.0384712
0.00933901
0.0398876
0.00891113
0.0411927
0.00846539
0.0423953
0.00800382
0.0434811
0.00752796
0.0444686
0.00703895
0.0453374
0.00653874
0.0461106
0.00602709
0.0467673
0.00550718
0.0473281
0.00497568
0.0477981
0.00443707
0.0481482
0.00388346
0.0484942
0.00332108
0.0486289
0.00273989
0.0488914
0.0490529
0.0123315
-0.00663052
0.0123958
-0.000195419
0.0124668
0.00654467
0.0124992
0.0122901
0.0124751
0.0169633
0.0123902
0.0205569
0.0122528
0.0233756
0.01207
0.0257601
0.0118486
0.0279409
0.0115929
0.0300098
0.0113058
0.0319918
0.0109897
0.0338734
0.0106464
0.0356501
0.0102781
0.0373121
0.00988658
0.0388627
0.00947297
0.0403012
0.00903987
0.0416258
0.00858818
0.0428469
0.00811955
0.0439498
0.00763599
0.0449521
0.00713834
0.0458351
0.00662893
0.04662
0.00610748
0.0472887
0.00557739
0.0478582
0.00503545
0.04834
0.00448624
0.0486974
0.00392196
0.0490584
0.00334864
0.0492022
0.00275602
0.049484
0.0496573
0.0126232
-0.00649761
0.0126068
-0.00017907
0.0126382
0.00651333
0.0126529
0.0122754
0.0126219
0.0169944
0.0125343
0.0206445
0.0123959
0.0235139
0.0122129
0.0259431
0.0119917
0.028162
0.0117362
0.0302653
0.0114491
0.032279
0.0111324
0.03419
0.0107879
0.0359946
0.0104175
0.0376826
0.0100231
0.0392571
0.0096056
0.0407187
0.00916755
0.0420639
0.00871021
0.0433043
0.00823475
0.0444252
0.00774368
0.0454432
0.00723758
0.0463412
0.00671912
0.0471384
0.00618801
0.0478198
0.00564781
0.0483984
0.00509555
0.0488923
0.0045358
0.0492572
0.00396101
0.0496332
0.00337686
0.0497863
0.00277287
0.050088
0.0502746
0.0129012
-0.00623891
0.012809
-8.6842e-05
0.0128028
0.00651949
0.0128013
0.0122768
0.0127641
0.0170316
0.0126744
0.0207343
0.0125352
0.023653
0.0123521
0.0261262
0.0121312
0.0283829
0.0118761
0.0305205
0.0115892
0.0325659
0.0112723
0.0345069
0.010927
0.03634
0.0105548
0.0380547
0.0101577
0.0396542
0.00973676
0.0411396
0.00929407
0.0425065
0.00883135
0.043767
0.00834934
0.0449072
0.00785094
0.0459416
0.00733663
0.0468555
0.00680923
0.0476658
0.00626862
0.0483604
0.00571839
0.0489486
0.00515592
0.0494548
0.0045857
0.0498274
0.00400057
0.0502183
0.00340571
0.0503812
0.00279043
0.0507033
0.0509048
0.0131642