/*--------------------------------*- C++ -*----------------------------------*\
  =========                 |
  \\      /  F ield         | OpenFOAM: The Open Source CFD Toolbox
   \\    /   O peration     | Website:  https://openfoam.org
    \\  /    A nd           | Version:  7
     \\/     M anipulation  |
\*---------------------------------------------------------------------------*/
FoamFile
{
    version     2.0;
    format      ascii;
    class       volVectorField;
    location    "2.6";
    object      U;
}
// * * * * * * * * * * * * * * * * * * * * * * * * * * * * * * * * * * * * * //

dimensions      [0 1 -1 0 0 0 0];

internalField   nonuniform List<vector> 
18000
(
(-0.00184578 0.051648 1.99666e-20)
(-0.00779107 0.125825 0)
(-0.0170611 0.180739 0)
(-0.027045 0.21865 0)
(-0.0368242 0.242835 -6.58964e-21)
(-0.0454823 0.256384 3.33128e-20)
(-0.0523973 0.261767 -6.74679e-21)
(-0.0571803 0.260817 6.79328e-21)
(-0.0596246 0.254869 0)
(-0.0596556 0.244925 -2.05309e-20)
(-0.0573 0.231781 -6.8777e-21)
(-0.0526579 0.216131 0)
(-0.0458835 0.198608 1.36989e-20)
(-0.0371684 0.179816 1.37547e-20)
(-0.026735 0.160326 -2.74144e-20)
(-0.0148308 0.140679 -2.73393e-20)
(-0.00171416 0.121362 0)
(0.0123537 0.102806 -4.0758e-20)
(0.0271112 0.0853729 1.35224e-20)
(0.0423046 0.0693506 -4.03523e-20)
(0.057695 0.0549484 1.33733e-20)
(0.0730648 0.0422996 0)
(0.0882222 0.0314672 -1.31226e-20)
(0.103005 0.0224521 -1.31047e-20)
(0.117278 0.0152038 0)
(0.130938 0.00963236 0)
(0.143899 0.00562924 -2.5542e-20)
(0.156116 0.00308409 -2.53201e-20)
(0.167612 0.00200927 -2.51913e-20)
(0.178126 0.00273934 2.70599e-20)
(-0.00298101 0.0528381 2.83268e-20)
(-0.00992978 0.128563 4.93722e-20)
(-0.0191887 0.184468 -5.05422e-20)
(-0.0286995 0.222876 -5.15422e-20)
(-0.0377283 0.247076 -1.31262e-20)
(-0.0454977 0.260206 3.97183e-20)
(-0.0514631 0.264808 -5.36142e-20)
(-0.0552725 0.262792 -5.40342e-20)
(-0.056736 0.255567 5.43416e-20)
(-0.0557923 0.244198 5.45922e-20)
(-0.0524731 0.229541 -2.72913e-20)
(-0.0468834 0.212335 -5.47227e-20)
(-0.0391874 0.193259 -2.74941e-20)
(-0.0295849 0.172955 5.464e-20)
(-0.0183084 0.152032 -5.44836e-20)
(-0.00561649 0.13106 5.4564e-20)
(0.00822179 0.110558 -1.08579e-19)
(0.022933 0.0909771 8.11627e-20)
(0.0382465 0.0726975 -5.36896e-20)
(0.0539032 0.0560156 2.68606e-20)
(0.0696601 0.0411431 -5.30924e-20)
(0.0852964 0.0282105 0)
(0.100621 0.0172712 2.65833e-20)
(0.115476 0.00831127 -5.21078e-20)
(0.129733 0.00126282 5.16226e-20)
(0.143295 -0.00398334 0)
(0.156087 -0.00755908 -2.52388e-20)
(0.168073 -0.00959169 2.51154e-20)
(0.179291 -0.0100774 9.98739e-20)
(0.1895 -0.00866807 5.35587e-20)
(-0.00415575 0.0536769 -4.54507e-20)
(-0.012129 0.130559 -4.93709e-20)
(-0.0213304 0.187364 7.5772e-20)
(-0.0302735 0.22628 1.28514e-19)
(-0.0384234 0.250562 0)
(-0.0451453 0.263368 -5.30657e-20)
(-0.0499788 0.267291 5.36119e-20)
(-0.0526256 0.26431 1.61647e-19)
(-0.052922 0.255903 -5.43391e-20)
(-0.050817 0.2432 -5.45477e-20)
(-0.0463557 0.227114 1.63494e-19)
(-0.0396547 0.208432 5.47199e-20)
(-0.0308867 0.187878 0)
(-0.020265 0.166136 -1.09185e-19)
(-0.00803418 0.14385 1.62843e-19)
(0.00553396 0.121624 -5.39633e-20)
(0.0201565 0.100002 5.41715e-20)
(0.0355515 0.0794615 5.38591e-20)
(0.0514401 0.0603978 2.32556e-22)
(0.0675545 0.0431167 0)
(0.0836498 0.0278316 1.59097e-19)
(0.0995069 0.0146693 -1.05044e-19)
(0.114938 0.00367266 5.23966e-20)
(0.12979 -0.00518751 0)
(0.143946 -0.0119981 -5.16204e-20)
(0.157318 -0.0168895 2.04017e-19)
(0.169843 -0.0200157 -1.51299e-19)
(0.181501 -0.0215236 -5.0337e-20)
(0.192338 -0.0214267 4.92856e-20)
(0.202144 -0.0193664 5.31881e-20)
(-0.00535679 0.0542097 0)
(-0.0143717 0.131971 2.45464e-20)
(-0.02348 0.189527 1.77705e-23)
(-0.031784 0.228908 -1.28291e-19)
(-0.0389332 0.253306 0)
(-0.0444579 0.265863 -1.05293e-19)
(-0.0479965 0.269197 0)
(-0.0493038 0.265348 -1.61322e-19)
(-0.048249 0.255859 5.39636e-20)
(-0.044804 0.241922 -1.081e-19)
(-0.03903 0.224504 -1.08818e-19)
(-0.0310575 0.204442 -5.43471e-20)
(-0.0210728 0.182503 5.42408e-20)
(-0.00930527 0.159412 5.38484e-20)
(0.00398487 0.13585 -5.44199e-20)
(0.0185123 0.112453 -1.073e-19)
(0.0339812 0.0897951 1.07265e-19)
(0.050097 0.0683751 0)
(0.0665716 0.0486027 0)
(0.0831338 0.0307926 0)
(0.0995379 0.015162 0)
(0.115567 0.00183079 0)
(0.131039 -0.00916989 0)
(0.145812 -0.0178848 -1.02765e-19)
(0.159779 -0.024421 -1.02422e-19)
(0.172868 -0.0289302 -4.34962e-22)
(0.185031 -0.0315894 -1.00544e-19)
(0.196261 -0.0325684 -4.29706e-22)
(0.206622 -0.0318998 -9.95673e-20)
(0.215934 -0.0292218 2.10967e-19)
(-0.00655561 0.0543783 0)
(-0.0166188 0.132658 2.19564e-19)
(-0.0256176 0.190811 1.88192e-23)
(-0.0332237 0.230635 -7.65663e-20)
(-0.0392775 0.255194 2.58899e-19)
(-0.0434801 0.267584 1.57844e-19)
(-0.0455722 0.27044 1.58782e-19)
(-0.0453749 0.265839 0)
(-0.0428003 0.255387 0)
(-0.0378466 0.240333 1.62037e-19)
(-0.0305963 0.221696 4.49703e-23)
(-0.0212 0.200365 -3.77733e-19)
(-0.00986168 0.177151 3.23317e-19)
(0.00317184 0.152818 -1.08088e-19)
(0.0176224 0.128085 1.06805e-19)
(0.0331878 0.10362 1.07253e-19)
(0.0495578 0.0800237 -1.06239e-19)
(0.0664253 0.0578165 1.06416e-19)
(0.0834948 0.0374238 2.11137e-19)
(0.100491 0.0191685 -1.05036e-19)
(0.11717 0.00326735 -2.08462e-19)
(0.133319 -0.0101665 2.07134e-19)
(0.148765 -0.0211144 -2.05727e-19)
(0.163379 -0.0296378 1.0276e-19)
(0.177072 -0.0358634 0)
(0.189786 -0.0399665 0)
(0.201493 -0.0421461 8.44845e-22)
(0.212201 -0.0425959 -3.95714e-19)
(0.221994 -0.0413713 1.95887e-19)
(0.230725 -0.0381175 -2.09465e-19)
(-0.00773774 0.0542363 0)
(-0.0188466 0.132688 -1.95113e-19)
(-0.0277275 0.191261 1.98962e-19)
(-0.0346023 0.231469 0)
(-0.0394867 0.25621 -4.13269e-19)
(-0.0422557 0.268507 -5.23406e-20)
(-0.0427695 0.270982 -1.06133e-19)
(-0.0409206 0.265744 -5.32232e-20)
(-0.0366677 0.254451 0)
(-0.0300473 0.238403 -1.07373e-19)
(-0.02117 0.218673 1.07477e-19)
(-0.010208 0.196197 2.15582e-19)
(0.00261343 0.171831 -2.15386e-19)
(0.017025 0.14638 0)
(0.0327279 0.120596 -2.14416e-19)
(0.0494023 0.0951796 2.12465e-19)
(0.0667217 0.0707577 2.1286e-19)
(0.0843668 0.0478712 3.16392e-19)
(0.102034 0.0269594 -3.15817e-19)
(0.119446 0.00835163 4.17725e-19)
(0.136362 -0.00773703 2.08085e-19)
(0.152575 -0.0212014 -2.07124e-19)
(0.167927 -0.0320359 4.10145e-19)
(0.182305 -0.0403199 0)
(0.195637 -0.046201 2.01406e-19)
(0.207887 -0.0498765 4.00453e-19)
(0.219048 -0.0515689 -1.97269e-19)
(0.229148 -0.0514954 1.97648e-19)
(0.238288 -0.0497369 -4.29135e-22)
(0.24636 -0.0459547 -2.08036e-19)
(-0.00888234 0.0537763 -2.22956e-20)
(-0.0210281 0.132042 0)
(-0.0297975 0.190844 -2.48619e-19)
(-0.0359177 0.23136 5.06053e-20)
(-0.0395788 0.256297 1.54748e-19)
(-0.0408309 0.268564 5.20963e-20)
(-0.0396532 0.270757 2.10081e-19)
(-0.0360204 0.265003 0)
(-0.0299508 0.252998 1.06547e-19)
(-0.0215234 0.236089 1.06375e-19)
(-0.0108802 0.215402 -1.07011e-19)
(0.00177797 0.19192 3.20368e-19)
(0.0161992 0.166541 0)
(0.0320897 0.140108 0)
(0.0491283 0.113408 3.18392e-19)
(0.0669742 0.0871718 -5.29513e-19)
(0.0852836 0.062051 2.10341e-19)
(0.103725 0.0386058 -2.10617e-19)
(0.121987 0.0172876 -2.08269e-19)
(0.139792 -0.00157003 -6.23505e-19)
(0.156902 -0.0177551 -9.217e-22)
(0.173124 -0.0311723 2.04532e-19)
(0.188313 -0.0418302 -4.07553e-19)
(0.202376 -0.0498264 2.01665e-19)
(0.215264 -0.0553307 -1.27043e-21)
(0.226966 -0.0585612 -1.99786e-19)
(0.237499 -0.0597635 1.98117e-19)
(0.246909 -0.0591777 0)
(0.255321 -0.0569125 1.93395e-19)
(0.262667 -0.0526538 3.3197e-22)
(-0.009976 0.0530212 -4.43996e-20)
(-0.023139 0.13074 4.8299e-20)
(-0.0318103 0.189566 -2.96222e-19)
(-0.0371744 0.230298 -1.50893e-19)
(-0.0395799 0.255419 2.04566e-19)
(-0.0392496 0.267711 -3.11018e-19)
(-0.0362894 0.269715 -1.05273e-19)
(-0.0307642 0.263561 -2.10688e-19)
(-0.0227574 0.250973 2.11674e-19)
(-0.0123979 0.233345 -4.25439e-19)
(0.000133574 0.211847 -2.12445e-19)
(0.0146024 0.187507 -1.05216e-21)
(0.0307275 0.161264 1.06327e-19)
(0.0481871 0.133998 -3.17488e-19)
(0.0666332 0.10653 -4.22815e-19)
(0.085703 0.0796182 4.16796e-22)
(0.105035 0.0539377 -8.10653e-22)
(0.124283 0.0300663 2.08091e-19)
(0.143132 0.00846502 2.08257e-19)
(0.161301 -0.010531 3.72758e-22)
(0.178561 -0.0267148 -5.39299e-22)
(0.194731 -0.0400019 2.02331e-19)
(0.209689 -0.0504171 2.03125e-19)
(0.223362 -0.0580779 -3.83791e-22)
(0.235728 -0.0631744 -5.99071e-19)
(0.246803 -0.0659463 3.94898e-19)
(0.25663 -0.0666601 3.92872e-19)
(0.26528 -0.0655786 -3.88611e-19)
(0.272899 -0.062838 -1.93388e-19)
(0.279464 -0.0581581 -2.03308e-19)
(-0.0110044 0.0519939 -3.97132e-19)
(-0.0251572 0.128815 -4.81013e-20)
(-0.0337529 0.187442 2.46556e-19)
(-0.0383729 0.228274 2.01289e-19)
(-0.0395107 0.253554 -2.04561e-19)
(-0.0375564 0.265906 2.07186e-19)
(-0.0327457 0.267803 -1.04396e-19)
(-0.0252401 0.26136 3.15794e-19)
(-0.0151961 0.248321 -2.11665e-19)
(-0.00279919 0.230117 2.12228e-19)
(0.0117254 0.207959 1.06464e-19)
(0.0281048 0.182917 -1.06436e-19)
(0.0460235 0.155969 -6.33413e-19)
(0.0651282 0.128031 4.22349e-19)
(0.0850422 0.0999534 2.10809e-19)
(0.105378 0.0725211 0)
(0.125754 0.0464319 0)
(0.145814 0.0222773 -2.06118e-21)
(0.165231 0.000525194 -2.05355e-19)
(0.183731 -0.0184899 0)
(0.201091 -0.0345683 0)
(0.21715 -0.0476386 -2.03235e-19)
(0.231807 -0.0577435 0)
(0.245018 -0.0650211 -3.98231e-19)
(0.256788 -0.0696815 0)
(0.267164 -0.0719846 -1.97246e-19)
(0.276219 -0.0722164 3.90338e-19)
(0.284049 -0.0706605 -3.86106e-19)
(0.290821 -0.0674808 0)
(0.296564 -0.0624371 0)
(-0.011957 0.0507229 3.5292e-19)
(-0.0270628 0.126304 0)
(-0.0356111 0.184499 -4.90613e-20)
(-0.0395125 0.225298 4.99935e-20)
(-0.0393891 0.250685 -3.0417e-19)
(-0.0357908 0.263116 4.6066e-23)
(-0.0290841 0.264974 -1.03951e-19)
(-0.0195328 0.258346 0)
(-0.00737259 0.244984 0)
(0.00714755 0.226347 -1.05388e-19)
(0.0237519 0.203684 1.05489e-19)
(0.0421248 0.178101 -2.10802e-19)
(0.0619123 0.150615 2.12483e-19)
(0.0827245 0.122172 0)
(0.104153 0.0936524 0)
(0.125786 0.0658656 0)
(0.14722 0.0395281 2.05923e-19)
(0.168082 0.0152423 -1.18805e-21)
(0.188044 -0.0065203 2.06561e-19)
(0.206834 -0.0254284 -4.06631e-19)
(0.224241 -0.0412923 2.02922e-19)
(0.240126 -0.0540565 -1.00571e-18)
(0.254413 -0.0637831 7.2006e-22)
(0.26709 -0.0706304 3.98213e-19)
(0.278196 -0.0748287 -1.70162e-21)
(0.28781 -0.0766565 3.90255e-19)
(0.296037 -0.0764173 -3.86168e-19)
(0.302997 -0.0744133 -3.84381e-19)
(0.308884 -0.0708347 8.70728e-22)
(0.313775 -0.0654866 -3.98596e-19)
(-0.0128259 0.0492401 -4.38349e-20)
(-0.0288386 0.123257 0)
(-0.0373703 0.18078 9.77284e-20)
(-0.0405889 0.221389 -9.95849e-20)
(-0.0392271 0.246812 9.11416e-19)
(-0.0339848 0.259319 4.38203e-23)
(-0.0253578 0.261189 -1.03534e-19)
(-0.013717 0.254468 1.04236e-19)
(0.000616812 0.240904 -5.22678e-19)
(0.0173262 0.221976 0)
(0.0360795 0.198962 0)
(0.0565123 0.173004 -2.0883e-19)
(0.0782272 0.14515 2.10376e-19)
(0.100796 0.116375 -2.08794e-19)
(0.123774 0.0875883 2.07902e-19)
(0.146722 0.0596206 0)
(0.169213 0.0332029 -8.24431e-19)
(0.190861 0.00894528 4.08917e-19)
(0.211333 -0.0126805 2.04125e-19)
(0.230363 -0.0313501 6.08341e-19)
(0.247758 -0.0468873 0)
(0.263402 -0.0592547 4.01423e-19)
(0.277252 -0.068535 3.96922e-19)
(0.289329 -0.0749068 3.93973e-19)
(0.299708 -0.0786197 -2.46954e-21)
(0.308505 -0.0799695 -3.86981e-19)
(0.315856 -0.0792752 3.86154e-19)
(0.321912 -0.0768537 0)
(0.326884 -0.0729198 9.11619e-22)
(0.330911 -0.067327 7.93581e-19)
(-0.0136064 0.0475801 -3.48491e-19)
(-0.0304708 0.11973 0)
(-0.0390159 0.176335 -3.88356e-19)
(-0.0415939 0.216583 -4.95484e-19)
(-0.0390288 0.241947 -3.03437e-19)
(-0.0321591 0.254505 1.02167e-19)
(-0.0216074 0.256422 4.59798e-24)
(-0.00785329 0.249686 -1.03837e-19)
(0.00869248 0.236031 1.70868e-21)
(0.0276387 0.216945 2.08911e-19)
(0.0485921 0.193733 2.0807e-19)
(0.0711349 0.167564 -2.06868e-19)
(0.0948215 0.139513 2.08367e-19)
(0.11918 0.110585 -6.22068e-19)
(0.14373 0.0817121 6.19545e-19)
(0.167996 0.0537428 4.10851e-19)
(0.191531 0.0274193 1.02497e-18)
(0.213933 0.00335517 -2.05993e-19)
(0.234869 -0.0179817 -4.04284e-19)
(0.254082 -0.036278 -2.35234e-21)
(0.271399 -0.0513745 -4.00912e-19)
(0.286733 -0.0632543 1.19207e-18)
(0.300076 -0.0720216 -7.92289e-19)
(0.311488 -0.0778754 7.82324e-19)
(0.321085 -0.0810838 -3.90158e-19)
(0.329018 -0.0819575 7.71483e-19)
(0.33546 -0.0808281 1.59565e-21)
(0.340586 -0.0780239 -7.58013e-19)
(0.344632 -0.0737805 7.49483e-19)
(0.347793 -0.0680018 3.9147e-19)
(-0.0142966 0.0457791 3.4849e-19)
(-0.0319487 0.115787 0)
(-0.0405326 0.171227 8.72116e-19)
(-0.0425138 0.210927 2.97397e-19)
(-0.0387883 0.236116 0)
(-0.0303206 0.248679 0)
(-0.0178552 0.250656 0)
(-0.00198142 0.243967 0)
(0.0167973 0.230319 2.08607e-19)
(0.0380113 0.211203 2.08171e-19)
(0.0612006 0.187939 -4.17163e-19)
(0.0858884 0.16172 4.16658e-19)
(0.111576 0.133646 6.2108e-19)
(0.137745 0.104745 2.07654e-19)
(0.16387 0.0759692 2.03826e-19)
(0.189445 0.0481819 -6.15641e-19)
(0.213994 0.0221314 -8.15402e-19)
(0.237106 -0.00157015 -4.06594e-19)
(0.258445 -0.0224632 4.04265e-19)
(0.27777 -0.04025 -8.02897e-19)
(0.294934 -0.0547921 3.97629e-19)
(0.309883 -0.0660954 -7.92369e-19)
(0.32265 -0.0742863 3.91327e-19)
(0.333338 -0.0795839 -1.50685e-21)
(0.342103 -0.0822731 -3.86056e-19)
(0.349137 -0.0826777 -7.68168e-19)
(0.354644 -0.0811376 7.60775e-19)
(0.358831 -0.0779885 0)
(0.361952 -0.0734833 -9.33229e-22)
(0.364259 -0.0675756 -7.79642e-19)
(-0.0148976 0.0438734 4.32935e-20)
(-0.0332646 0.111494 0)
(-0.0419042 0.165526 -3.86809e-19)
(-0.0433286 0.204481 9.85141e-20)
(-0.038488 0.229361 -1.00028e-19)
(-0.0284591 0.241862 0)
(-0.0141023 0.243892 -1.0232e-19)
(0.00388473 0.237293 1.03022e-19)
(0.0249036 0.223737 2.06765e-19)
(0.0484026 0.204707 -6.20947e-19)
(0.0738499 0.181531 -2.07146e-19)
(0.100704 0.155419 1.56892e-22)
(0.128409 0.127492 -9.17674e-22)
(0.156391 0.0987985 -4.11365e-19)
(0.184082 0.0703059 -2.05819e-19)
(0.210935 0.0428866 0)
(0.236451 0.0172901 8.17579e-22)
(0.260207 -0.00587788 4.04389e-19)
(0.281874 -0.0261717 -4.00548e-19)
(0.301228 -0.0433141 0)
(0.318154 -0.0571911 0)
(0.332639 -0.0678333 0)
(0.344759 -0.0753896 0)
(0.354665 -0.0800987 -2.35728e-21)
(0.362557 -0.0822601 0)
(0.368663 -0.0822075 0)
(0.373226 -0.0802853 3.76322e-19)
(0.376477 -0.0768322 3.72881e-19)
(0.378687 -0.0721142 3.70867e-19)
(0.380166 -0.066133 -9.94022e-22)
(-0.015413 0.0418987 4.31187e-20)
(-0.0344133 0.106919 -9.39042e-20)
(-0.0431129 0.15931 5.76033e-19)
(-0.0440115 0.197317 -9.80175e-20)
(-0.0380971 0.221738 9.97264e-20)
(-0.0265452 0.234091 4.37456e-23)
(-0.0103246 0.236148 3.05051e-19)
(0.00976136 0.229666 -4.09649e-19)
(0.0330184 0.216271 6.17193e-19)
(0.058809 0.197429 8.49097e-22)
(0.0865252 0.174471 -2.054e-19)
(0.115555 0.148618 4.11176e-19)
(0.145277 0.121007 -4.09997e-19)
(0.17506 0.0926998 4.0845e-19)
(0.204284 0.0646761 0)
(0.232365 0.0378113 4.04597e-19)
(0.258778 0.0128501 0)
(0.283093 -0.00961424 2.10869e-21)
(0.304992 -0.0291561 -3.97611e-19)
(0.324277 -0.0455238 -3.95049e-19)
(0.340871 -0.058631 3.92381e-19)
(0.354806 -0.0685344 -3.89601e-19)
(0.36621 -0.075406 -3.86702e-19)
(0.375281 -0.0795016 -7.69684e-19)
(0.382264 -0.0811334 -3.80539e-19)
(0.387427 -0.0806409 3.78799e-19)
(0.391045 -0.0783692 -7.51084e-19)
(0.393375 -0.0746557 -3.72872e-19)
(0.394704 -0.069775 0)
(0.395393 -0.0637744 -3.84001e-19)
(-0.0158483 0.0398887 0)
(-0.0353916 0.102131 3.73178e-19)
(-0.044139 0.15266 -2.87952e-19)
(-0.044528 0.189516 -4.87685e-19)
(-0.0375709 0.21332 0)
(-0.0245287 0.225421 0)
(-0.0064708 0.227461 -6.10043e-19)
(0.0156977 0.221105 8.17825e-19)
(0.0411863 0.207925 -6.15601e-19)
(0.0692688 0.189363 0)
(0.0992554 0.166744 2.06474e-19)
(0.130457 0.141295 -2.05901e-19)
(0.162181 0.114162 1.80011e-21)
(0.193732 0.0864187 -2.05579e-19)
(0.224435 0.059048 -2.0185e-19)
(0.253666 0.0329224 -1.96424e-21)
(0.28088 0.00877505 4.0037e-19)
(0.305645 -0.01282 4.00049e-19)
(0.32766 -0.0314634 7.48328e-22)
(0.346762 -0.0469341 7.88671e-19)
(0.362919 -0.0591763 -7.84009e-19)
(0.376215 -0.0682738 7.77679e-19)
(0.386832 -0.0744199 3.8669e-19)
(0.39502 -0.0778863 3.8367e-19)
(0.401068 -0.078994 2.32011e-21)
(0.405283 -0.0780845 0)
(0.407968 -0.0754997 3.73e-19)
(0.409406 -0.0715716 -1.10797e-18)
(0.409893 -0.0665789 3.63492e-19)
(0.409841 -0.0606109 3.80324e-19)
(-0.0162107 0.0378742 -2.55985e-19)
(-0.0361977 0.0971952 -8.38062e-19)
(-0.0449606 0.145661 -1.2492e-22)
(-0.044836 0.181166 1.38287e-21)
(-0.0368504 0.204189 -2.96096e-19)
(-0.0223383 0.215926 0)
(-0.0024615 0.21789 -2.01596e-19)
(0.021777 0.211653 -1.22182e-18)
(0.0494907 0.198728 6.14151e-19)
(0.0798618 0.180525 -4.08663e-19)
(0.112112 0.158357 6.13018e-19)
(0.145469 0.133449 -2.04404e-19)
(0.179161 0.106954 4.08169e-19)
(0.212422 0.0799469 -1.01409e-18)
(0.244522 0.0534095 6.06599e-19)
(0.274797 0.0282033 -8.84428e-22)
(0.302686 0.00504234 -1.19801e-18)
(0.327765 -0.015526 3.97188e-19)
(0.349759 -0.0331353 -3.94208e-19)
(0.368549 -0.0475993 0)
(0.384154 -0.0588944 3.8803e-19)
(0.396719 -0.0671313 0)
(0.406484 -0.0725233 -3.83653e-19)
(0.413747 -0.0753548 3.79886e-19)
(0.418844 -0.0759519 3.782e-19)
(0.422115 -0.0746542 3.72592e-19)
(0.423892 -0.0717961 0)
(0.424476 -0.0677003 0)
(0.424172 -0.0626459 -7.29408e-19)
(0.423434 -0.0567596 1.13036e-18)
(-0.0165081 0.0358825 2.56249e-19)
(-0.0368296 0.092174 4.6438e-19)
(-0.0455525 0.138397 -3.79297e-19)
(-0.0448851 0.172363 7.75595e-19)
(-0.0358624 0.194441 1.00101e-19)
(-0.019882 0.205694 9.98851e-20)
(0.00180953 0.207514 1.51834e-21)
(0.0281149 0.201378 -4.04125e-19)
(0.0580516 0.188735 -2.02747e-19)
(0.0907061 0.170959 1.62179e-21)
(0.125206 0.149344 -1.66298e-21)
(0.160685 0.12511 -6.09253e-19)
(0.196287 0.0994051 -2.01751e-19)
(0.231172 0.0733022 1.80118e-21)
(0.264554 0.0477723 4.00951e-19)
(0.295732 0.0236575 3.98771e-19)
(0.32414 0.00164493 1.93809e-21)
(0.349369 -0.0177526 -3.93964e-19)
(0.371185 -0.0342071 3.92644e-19)
(0.389518 -0.0475708 -3.89468e-19)
(0.404453 -0.0578529 -7.7393e-19)
(0.416197 -0.0651901 -3.84404e-19)
(0.425046 -0.0698128 7.60764e-19)
(0.431353 -0.0720149 0)
(0.435491 -0.072123 -3.73631e-19)
(0.437836 -0.0704709 -7.4287e-19)
(0.43874 -0.0673816 -7.36469e-19)
(0.43852 -0.0631653 3.65185e-19)
(0.437485 -0.0580973 -1.08426e-18)
(0.436122 -0.052338 3.74422e-19)
(-0.0167484 0.0339362 -4.23822e-19)
(-0.0372851 0.087123 9.23008e-20)
(-0.0458862 0.130949 3.793e-19)
(-0.0446176 0.163203 -2.90417e-19)
(-0.0345211 0.184179 9.8917e-20)
(-0.0170492 0.194829 -9.68549e-23)
(0.00647227 0.19643 1.00394e-18)
(0.034855 0.190369 4.0495e-19)
(0.0670192 0.178029 4.0646e-19)
(0.10195 0.16074 6.09985e-19)
(0.138673 0.139774 -6.09954e-19)
(0.176223 0.116337 4.0596e-19)
(0.21365 0.091569 8.08153e-19)
(0.250039 0.0665303 4.01807e-19)
(0.284548 0.0421722 -9.7082e-22)
(0.316453 0.0193087 -7.96634e-19)
(0.34519 -0.00140869 7.91989e-19)
(0.370382 -0.0195089 1.09027e-21)
(0.391843 -0.0347078 -3.90597e-19)
(0.409569 -0.0468976 3.87438e-19)
(0.423712 -0.0561202 3.85901e-19)
(0.434546 -0.0625356 -3.80876e-19)
(0.442428 -0.0663885 -7.59179e-19)
(0.447756 -0.0679776 -5.61929e-22)
(0.450944 -0.0676261 3.74469e-19)
(0.452391 -0.0656575 3.70279e-19)
(0.452468 -0.0623803 7.31772e-19)
(0.451501 -0.0580889 -7.21517e-19)
(0.449801 -0.0530522 0)
(0.447882 -0.0474597 3.7202e-19)
(-0.0169389 0.0320527 1.33141e-21)
(-0.0375599 0.0820906 0)
(-0.0459294 0.123392 -2.82003e-19)
(-0.0439692 0.153783 -9.61302e-20)
(-0.0327301 0.173515 -3.90441e-19)
(-0.0137148 0.183447 0)
(0.0116752 0.184756 -6.00792e-19)
(0.0421621 0.17874 2.01345e-19)
(0.0765651 0.166716 0)
(0.113763 0.149969 -4.03761e-19)
(0.152669 0.129742 0)
(0.192211 0.10722 -6.04093e-19)
(0.231344 0.0835277 6.02275e-19)
(0.269076 0.0597029 -4.01121e-19)
(0.30452 0.0366677 -3.97286e-19)
(0.336938 0.0151987 0)
(0.365785 -0.00409692 0)
(0.390728 -0.0207962 3.91167e-19)
(0.411647 -0.0346622 3.42955e-22)
(0.42861 -0.0456276 3.85058e-19)
(0.441845 -0.0537651 -3.82545e-19)
(0.451691 -0.059255 7.60942e-19)
(0.458564 -0.0623522 -3.76476e-19)
(0.462906 -0.0633555 0)
(0.465163 -0.06258 1.11234e-18)
(0.465753 -0.0603355 -1.83314e-18)
(0.465059 -0.0569132 3.64101e-19)
(0.463411 -0.0525894 3.6097e-19)
(0.461117 -0.0476239 3.55016e-19)
(0.458713 -0.0422313 7.36442e-19)
(-0.0170854 0.0302441 -3.34876e-19)
(-0.0376474 0.0771165 7.31809e-19)
(-0.0456463 0.115797 3.76348e-19)
(-0.0428699 0.144198 8.60999e-19)
(-0.0303855 0.16256 1.07093e-18)
(-0.00974396 0.171671 1.97383e-19)
(0.0175781 0.17262 -9.94613e-19)
(0.0502115 0.166622 0)
(0.0868696 0.154928 -8.03267e-19)
(0.126316 0.138775 -4.00444e-19)
(0.167344 0.119372 0)
(0.208769 0.0978767 -3.99097e-19)
(0.249449 0.0753888 -1.13054e-21)
(0.288322 0.0529142 -1.19381e-18)
(0.324467 0.0313354 3.97278e-19)
(0.357149 0.0113822 3.94074e-19)
(0.38586 -0.00638995 -7.81401e-19)
(0.41033 -0.0216114 -7.78243e-19)
(0.430515 -0.0340939 -2.85712e-22)
(0.446564 -0.0438094 -1.17138e-21)
(0.458782 -0.0508586 0)
(0.467577 -0.0554377 -3.77935e-19)
(0.473415 -0.0578069 -3.72681e-19)
(0.476779 -0.0582605 0)
(0.478137 -0.0571016 0)
(0.477923 -0.0546227 1.09531e-18)
(0.476523 -0.0510959 -1.07952e-18)
(0.474266 -0.0467776 0)
(0.471453 -0.0419174 1.05838e-18)
(0.468638 -0.0367516 -7.30726e-19)
(-0.0171916 0.0285172 2.7487e-21)
(-0.0375377 0.072232 -7.3168e-19)
(-0.0449977 0.108224 -9.34666e-20)
(-0.0412467 0.134536 -9.56146e-19)
(-0.0273793 0.151427 -5.83895e-19)
(-0.00499808 0.159633 1.96605e-19)
(0.024343 0.160165 3.98552e-19)
(0.0591783 0.154164 9.96942e-19)
(0.0981077 0.142816 8.03266e-19)
(0.13977 0.127309 8.04197e-19)
(0.182833 0.10881 0)
(0.225993 0.0884454 3.47635e-21)
(0.268017 0.0672787 0)
(0.307786 0.0462736 7.95094e-19)
(0.34436 0.0262627 0)
(0.377029 0.00792062 -3.92202e-19)
(0.405342 -0.00825539 3.9357e-19)
(0.429107 -0.0219518 0)
(0.448368 -0.0330289 0)
(0.463363 -0.041495 -1.14303e-18)
(0.474473 -0.0474744 3.78502e-19)
(0.482171 -0.0511743 0)
(0.486968 -0.0528553 7.44519e-19)
(0.489378 -0.0528024 7.40521e-19)
(0.489885 -0.0513031 -1.46325e-18)
(0.48893 -0.0486304 1.44943e-18)
(0.486894 -0.0450355 2.57826e-21)
(0.484103 -0.0407551 7.08198e-19)
(0.480848 -0.0360276 -7.05417e-19)
(0.477695 -0.0311096 0)
(-0.0172586 0.0268735 8.36936e-19)
(-0.0372175 0.0674593 -9.08518e-20)
(-0.0439419 0.100726 -7.43754e-19)
(-0.0390251 0.124881 0)
(-0.0236045 0.140225 -7.71662e-19)
(0.000658043 0.147461 0)
(0.0321245 0.147537 -9.86567e-19)
(0.0692245 0.141522 -5.98243e-19)
(0.110434 0.130543 -7.9659e-19)
(0.154258 0.115733 0)
(0.199232 0.0982166 1.99412e-19)
(0.243939 0.079078 2.02089e-19)
(0.28706 0.0593345 -3.97057e-19)
(0.327437 0.0398972 -7.87905e-19)
(0.364137 0.0215396 -3.91042e-19)
(0.396496 0.00487394 -1.5598e-18)
(0.424141 -0.00966485 7.77719e-19)
(0.446974 -0.0218203 -7.05868e-23)
(0.465136 -0.0314988 -1.72297e-22)
(0.478955 -0.038741 1.14075e-18)
(0.488888 -0.0436892 0)
(0.495465 -0.0465566 0)
(0.499235 -0.0475988 -1.80112e-21)
(0.500732 -0.0470874 2.49598e-21)
(0.500449 -0.0452909 -7.25036e-19)
(0.498823 -0.0424614 -7.20554e-19)
(0.49623 -0.0388289 1.96057e-21)
(0.49298 -0.0346107 -7.082e-19)
(0.489355 -0.030036 -6.98799e-19)
(0.485933 -0.0253814 2.11528e-21)
(-0.0172848 0.0253103 0)
(-0.0366701 0.0628119 7.22995e-19)
(-0.0424353 0.0933451 6.50915e-19)
(-0.0361321 0.115305 9.46146e-20)
(-0.0189594 0.129056 1.54018e-18)
(0.00734901 0.135284 -1.95012e-19)
(0.0410602 0.134882 1.5747e-18)
(0.0804868 0.128858 7.9069e-19)
(0.12397 0.118278 1.194e-18)
(0.169871 0.10422 5.94821e-19)
(0.216594 0.0877595 1.98529e-19)
(0.262612 0.0699303 9.92273e-19)
(0.30654 0.0516937 -6.5799e-22)
(0.347205 0.033898 3.94551e-19)
(0.383704 0.0172499 7.83626e-19)
(0.415447 0.00229391 7.7893e-19)
(0.442159 -0.0105993 0)
(0.463847 -0.0212291 0)
(0.480757 -0.0295435 0)
(0.493304 -0.0356099 0)
(0.502017 -0.0395834 7.47129e-19)
(0.507473 -0.0416772 0)
(0.510249 -0.0421367 -2.405e-21)
(0.510892 -0.0412164 1.45695e-18)
(0.509892 -0.0391638 7.22581e-19)
(0.507676 -0.036209 7.15584e-19)
(0.504604 -0.032561 1.41742e-18)
(0.500971 -0.0284195 0)
(0.497043 -0.0240076 -1.38622e-18)
(0.493413 -0.0196217 1.43602e-18)
(-0.0172653 0.0238203 6.61594e-19)
(-0.0358748 0.0582951 -7.23011e-19)
(-0.0404336 0.0861137 0)
(-0.0324984 0.105872 -7.52816e-19)
(-0.0133524 0.118015 -1.95017e-19)
(0.0151819 0.123222 -5.80979e-19)
(0.0512611 0.122343 -1.76391e-18)
(0.093066 0.11633 -3.2571e-21)
(0.138791 0.106188 -5.91656e-19)
(0.186649 0.0929388 -1.3864e-18)
(0.234912 0.077602 -1.98022e-19)
(0.281962 0.0611524 -7.87398e-19)
(0.326371 0.0444852 -7.84357e-19)
(0.366976 0.0283778 0)
(0.402938 0.0134642 -7.76253e-19)
(0.433765 0.000218358 -1.15805e-18)
(0.459293 -0.0110532 3.84223e-19)
(0.479649 -0.0202016 -7.60907e-19)
(0.495181 -0.0272112 -7.55198e-19)
(0.506392 -0.0321702 0)
(0.51387 -0.0352397 -1.49016e-18)
(0.518231 -0.0366276 0)
(0.520069 -0.0365645 -1.46658e-18)
(0.519932 -0.0352849 -7.25552e-19)
(0.518299 -0.0330131 -1.43687e-18)
(0.515579 -0.029957 7.11601e-19)
(0.512109 -0.0263053 -2.11253e-18)
(0.508165 -0.0222434 6.94776e-19)
(0.503995 -0.0179919 4.42567e-21)
(0.500214 -0.0138674 -7.12983e-19)
(-0.0171921 0.0223932 -6.61608e-19)
(-0.0348079 0.0539072 8.98755e-20)
(-0.0378932 0.0790549 6.42605e-19)
(-0.0280615 0.096635 7.52832e-19)
(-0.00670583 0.107185 -7.65315e-19)
(0.0242404 0.111386 3.36795e-21)
(0.0628047 0.110055 7.8231e-19)
(0.107019 0.104088 -1.5706e-18)
(0.15492 0.0944321 -1.932e-19)
(0.20457 0.082049 1.77435e-18)
(0.254123 0.067896 -1.17925e-18)
(0.301887 0.0528797 1.96429e-18)
(0.346421 0.0378212 1.95596e-18)
(0.386607 0.0234202 -3.89688e-19)
(0.421699 0.0102347 7.76253e-19)
(0.451323 -0.00133247 1.15616e-18)
(0.475446 -0.0110361 3.8019e-19)
(0.494314 -0.0187736 3.87466e-21)
(0.50838 -0.0245591 3.78567e-19)
(0.518222 -0.0284947 3.73593e-19)
(0.52448 -0.0307419 -3.66412e-19)
(0.527795 -0.0314975 3.67191e-19)
(0.52877 -0.0309739 -7.25662e-19)
(0.52794 -0.0293821 7.23176e-19)
(0.525768 -0.0269222 4.4535e-21)
(0.522635 -0.0237797 7.04675e-19)
(0.518851 -0.0201243 4.50677e-21)
(0.514663 -0.0161303 -6.92354e-19)
(0.510303 -0.0120242 2.38348e-21)
(0.506424 -0.00814478 0)
(-0.0170546 0.021016 0)
(-0.0334431 0.0496408 0)
(-0.0347722 0.0721836 -8.26268e-19)
(-0.0227673 0.0876377 9.34329e-20)
(0.00104019 0.0966391 0)
(0.0345803 0.0998767 7.7176e-19)
(0.0757297 0.0981379 1.94199e-19)
(0.122354 0.0922685 5.88022e-19)
(0.172325 0.0831546 7.86055e-19)
(0.223559 0.0716939 -7.86704e-19)
(0.274107 0.0587745 7.85816e-19)
(0.322234 0.045227 -7.83709e-19)
(0.366521 0.0317915 -7.80657e-19)
(0.40593 0.0190862 0)
(0.439834 0.00759192 0)
(0.467999 -0.00235745 0)
(0.49053 -0.0105732 -7.62539e-19)
(0.507794 -0.0169919 1.13455e-18)
(0.520341 -0.0216508 -3.7468e-19)
(0.528815 -0.0246593 0)
(0.533896 -0.0261732 1.10735e-18)
(0.536239 -0.0263737 -3.65108e-19)
(0.536441 -0.0254515 7.25673e-19)
(0.53502 -0.0235915 -1.43105e-18)
(0.532411 -0.020968 1.42123e-18)
(0.52896 -0.0177428 -2.11509e-21)
(0.524944 -0.0140673 2.40952e-21)
(0.520573 -0.0101084 6.87816e-19)
(0.516055 -0.00611497 -4.30716e-22)
(0.512076 -0.00245172 7.04431e-19)
(-0.0168392 0.0196745 8.18856e-20)
(-0.0317527 0.0454851 -8.89659e-20)
(-0.0310323 0.0655082 1.82591e-19)
(-0.0165727 0.078914 -1.11545e-18)
(0.00992569 0.0864376 1.89152e-19)
(0.0462272 0.0887796 0)
(0.0900345 0.0866994 7.7174e-19)
(0.139032 0.0809919 -7.76262e-19)
(0.190922 0.0724809 0)
(0.243486 0.0619951 9.74305e-19)
(0.294699 0.0503466 -1.95256e-19)
(0.342817 0.0382832 0)
(0.386482 0.0264598 -3.87193e-19)
(0.424769 0.0154118 7.71307e-19)
(0.457196 0.00554419 -3.83707e-19)
(0.483682 -0.00287394 3.80861e-19)
(0.504476 -0.00970319 -7.56833e-19)
(0.520062 -0.0149124 1.75788e-22)
(0.531074 -0.0185544 1.11215e-22)
(0.538214 -0.0207399 -3.67461e-19)
(0.542185 -0.0216138 -7.32653e-19)
(0.543646 -0.0213384 1.4962e-23)
(0.543181 -0.0200794 2.20526e-21)
(0.541282 -0.0179933 7.1437e-19)
(0.538348 -0.0152257 -7.05091e-19)
(0.534685 -0.0119104 7.00232e-19)
(0.530523 -0.00817516 -1.38131e-18)
(0.526022 -0.00418447 -2.45256e-21)
(0.521359 -0.000209623 -1.35063e-18)
(0.517242 0.00333327 7.00444e-19)
(-0.0165296 0.0183535 0)
(-0.0297068 0.0414264 -7.07575e-19)
(-0.0266383 0.0590312 0)
(-0.00944534 0.070489 3.36859e-21)
(0.0199703 0.0766307 1.88441e-19)
(0.0591761 0.0781674 1.1201e-23)
(0.105678 0.0758293 -1.53995e-18)
(0.156967 0.0703589 5.82573e-19)
(0.210578 0.0625142 0)
(0.264179 0.0530493 -9.7336e-19)
(0.315699 0.0426944 1.94304e-19)
(0.363428 0.0321099 0)
(0.406104 0.0218635 -3.85292e-19)
(0.44295 0.0124087 3.84056e-19)
(0.473648 0.00407882 3.7984e-19)
(0.498282 -0.00291532 7.58256e-19)
(0.51724 -0.00847594 -3.76631e-19)
(0.531113 -0.0125965 0)
(0.540611 -0.0153389 0)
(0.546476 -0.0168093 7.37074e-19)
(0.549424 -0.0171386 -7.28391e-19)
(0.550109 -0.0164677 7.21799e-19)
(0.549091 -0.0149355 7.16954e-19)
(0.546836 -0.0126686 7.07599e-19)
(0.543705 -0.00977903 -7.0044e-19)
(0.539963 -0.00636364 6.9549e-19)
(0.535776 -0.00251269 6.85961e-19)
(0.531203 0.00163896 -6.78536e-19)
(0.526283 0.00586589 1.94895e-21)
(0.521562 0.0096242 1.39384e-18)
(-0.016112 0.0170428 8.11733e-20)
(-0.0272791 0.0374544 6.19588e-19)
(-0.0215623 0.0527551 0)
(-0.0013664 0.0623838 7.39918e-19)
(0.0311718 0.0672602 0)
(0.0733921 0.0681007 0)
(0.122583 0.0656024 5.76712e-19)
(0.176033 0.0604514 2.52982e-22)
(0.231123 0.0533356 1.93415e-19)
(0.285433 0.0449289 1.93188e-19)
(0.336886 0.0358746 -5.7927e-19)
(0.383847 0.0267432 3.85661e-19)
(0.425191 0.0180158 0)
(0.460313 0.0100679 0)
(0.489078 0.0031673 -7.61225e-19)
(0.511732 -0.0025257 0)
(0.528798 -0.00694667 -3.74389e-19)
(0.540965 -0.0101063 3.71833e-19)
(0.548999 -0.0120694 3.6855e-19)
(0.55367 -0.0129338 -1.94692e-22)
(0.555697 -0.012814 -3.62237e-19)
(0.555715 -0.0118289 0)
(0.554262 -0.0100916 -7.10189e-19)
(0.551774 -0.00769941 7.03221e-19)
(0.548587 -0.00472892 0)
(0.544942 -0.00123341 0)
(0.540981 0.00276354 0)
(0.536722 0.00724565 0)
(0.531908 0.0120791 -6.6664e-19)
(0.527189 0.0175651 1.38463e-18)
(0.208163 0.0124389 -0.0205991)
(0.235601 0.0308104 -0.0211573)
(0.254954 0.054259 -0.0212732)
(0.264288 0.0760055 -0.0213482)
(0.268942 0.0941677 -0.0213535)
(0.269762 0.108234 -0.02132)
(0.268162 0.119471 -0.0212468)
(0.264838 0.12933 -0.0211464)
(0.260251 0.138691 -0.0210205)