/*--------------------------------*- C++ -*----------------------------------*\
  =========                 |
  \\      /  F ield         | OpenFOAM: The Open Source CFD Toolbox
   \\    /   O peration     | Website:  https://openfoam.org
    \\  /    A nd           | Version:  7
     \\/     M anipulation  |
\*---------------------------------------------------------------------------*/
FoamFile
{
    version     2.0;
    format      ascii;
    class       volScalarField;
    location    "8.9";
    object      p;
}
// * * * * * * * * * * * * * * * * * * * * * * * * * * * * * * * * * * * * * //

dimensions      [0 2 -2 0 0 0 0];

internalField   nonuniform List<scalar> 
32000
(
0.22573
0.226415
0.226818
0.227224
0.227603
0.22796
0.228287
0.228587
0.228877
0.229176
0.229501
0.229863
0.230274
0.230743
0.231285
0.231913
0.232642
0.233485
0.234459
0.235579
0.236854
0.23829
0.23989
0.241653
0.24358
0.245666
0.247906
0.250292
0.252812
0.255458
0.258219
0.261083
0.264037
0.267066
0.270156
0.273291
0.276461
0.279655
0.282847
0.285972
0.225963
0.226625
0.227004
0.22738
0.227728
0.228055
0.228352
0.228622
0.228883
0.229152
0.229444
0.22977
0.230144
0.230575
0.231076
0.231661
0.232341
0.233131
0.234047
0.235104
0.236311
0.237675
0.239197
0.240877
0.242714
0.244707
0.246852
0.249142
0.251567
0.254117
0.256783
0.259554
0.262416
0.265357
0.268362
0.271416
0.274509
0.27763
0.280746
0.283807
0.226201
0.226838
0.227192
0.227538
0.227854
0.228148
0.228416
0.228657
0.228891
0.229132
0.229393
0.229687
0.230025
0.230421
0.230884
0.231428
0.232065
0.232807
0.233671
0.234671
0.235817
0.237114
0.238563
0.240164
0.241917
0.243822
0.245876
0.248073
0.250405
0.252862
0.255436
0.258114
0.260885
0.263737
0.266656
0.269628
0.272641
0.275686
0.278725
0.281719
0.226434
0.227039
0.227372
0.227691
0.227976
0.22824
0.228479
0.228695
0.228904
0.22912
0.229354
0.229617
0.229923
0.230285
0.230714
0.231221
0.231818
0.232518
0.233336
0.234285
0.235375
0.23661
0.23799
0.239516
0.24119
0.243011
0.244978
0.247087
0.249329
0.251696
0.254178
0.256766
0.259447
0.26221
0.265041
0.267929
0.270862
0.273829
0.276787
0.27971
0.226672
0.227246
0.227557
0.227849
0.228105
0.228339
0.22855
0.228742
0.228928
0.22912
0.229327
0.229562
0.229838
0.230169
0.230567
0.231041
0.231603
0.232265
0.233042
0.233945
0.234984
0.236161
0.237477
0.238934
0.240532
0.242274
0.24416
0.246184
0.248339
0.250619
0.253013
0.255511
0.258102
0.260777
0.263521
0.266324
0.269175
0.272063
0.274937
0.277787
0.226914
0.227452
0.22774
0.228007
0.228235
0.22844
0.228624
0.228794
0.228959
0.229129
0.229312
0.229521
0.229771
0.230075
0.230444
0.230888
0.23142
0.232049
0.232789
0.233652
0.234644
0.235768
0.237025
0.238416
0.239945
0.241613
0.243421
0.245365
0.247438
0.249632
0.251939
0.25435
0.256854
0.259441
0.262098
0.264816
0.267584
0.27039
0.273178
0.275953
0.227163
0.227662
0.227927
0.228168
0.22837
0.228548
0.228708
0.228856
0.229001
0.22915
0.229312
0.229499
0.229726
0.230005
0.230348
0.230767
0.231272
0.231873
0.232582
0.233408
0.234358
0.235433
0.236634
0.237965
0.239429
0.241029
0.242765
0.244632
0.246625
0.248737
0.250961
0.253286
0.255704
0.258204
0.260775
0.263407
0.266091
0.268814
0.271515
0.274213
0.227417
0.227875
0.228117
0.228334
0.22851
0.228663
0.2288
0.228928
0.229053
0.229184
0.229327
0.229495
0.229702
0.22996
0.230281
0.230678
0.231161
0.231738
0.23242
0.233214
0.234125
0.235155
0.236306
0.237582
0.238987
0.240523
0.242191
0.243986
0.245903
0.247936
0.250078
0.252321
0.254655
0.25707
0.259555
0.262101
0.2647
0.267339
0.269951
0.27257
0.227676
0.228091
0.228311
0.228503
0.228656
0.228786
0.228901
0.229009
0.229117
0.229231
0.229358
0.22951
0.2297
0.22994
0.230244
0.230623
0.231087
0.231645
0.232304
0.23307
0.233947
0.234936
0.236041
0.237268
0.238618
0.240096
0.2417
0.243427
0.245272
0.247229
0.249294
0.251456
0.253708
0.256038
0.258439
0.260899
0.263413
0.265968
0.26849
0.271027
0.22794
0.228309
0.228506
0.228676
0.228807
0.228916
0.229011
0.229101
0.229193
0.229292
0.229406
0.229545
0.229721
0.229947
0.230236
0.230602
0.231052
0.231595
0.232235
0.232977
0.233823
0.234776
0.235841
0.237023
0.238324
0.239747
0.241292
0.242955
0.244732
0.246619
0.248608
0.250693
0.252864
0.255112
0.257428
0.259804
0.262233
0.264703
0.267134
0.269588
0.228209
0.22853
0.228705
0.228852
0.228963
0.229053
0.22913
0.229203
0.229281
0.229368
0.229471
0.2296
0.229766
0.229981
0.23026
0.230616
0.231057
0.231588
0.232213
0.232934
0.233754
0.234676
0.235706
0.236848
0.238105
0.239479
0.240969
0.242573
0.244286
0.246104
0.248021
0.250031
0.252125
0.254292
0.256526
0.258817
0.261162
0.263545
0.265885
0.268256
0.228483
0.228754
0.228905
0.229031
0.229124
0.229196
0.229257
0.229316
0.229381
0.229458
0.229554
0.229675
0.229834
0.230043
0.230316
0.230667
0.231101
0.231624
0.232237
0.232942
0.23374
0.234637
0.235636
0.236743
0.237961
0.23929
0.24073
0.242278
0.243931
0.245685
0.247534
0.249472
0.25149
0.25358
0.255732
0.25794
0.2602
0.262498
0.264747
0.267033
0.228761
0.22898
0.229108
0.229213
0.229288
0.229345
0.229392
0.229438
0.229493
0.229562
0.229653
0.229771
0.229926
0.230133
0.230405
0.230754
0.231186
0.231703
0.232307
0.232999
0.233781
0.234656
0.23563
0.236708
0.237891
0.239181
0.240575
0.242072
0.243668
0.245362
0.247147
0.249017
0.250962
0.252975
0.255048
0.257174
0.25935
0.261563
0.263721
0.265922
0.229045
0.229209
0.229314
0.229398
0.229457
0.2295
0.229534
0.22957
0.229617
0.229681
0.229769
0.229885
0.230042
0.23025
0.230525
0.230876
0.231309
0.231824
0.232423
0.233106
0.233875
0.234735
0.235689
0.236742
0.237896
0.23915
0.240503
0.241952
0.243497
0.245135
0.246859
0.248663
0.250539
0.252478
0.254473
0.256519
0.258613
0.260741
0.262809
0.264924
0.229334
0.22944
0.229521
0.229585
0.229629
0.229659
0.229683
0.229711
0.229752
0.229814
0.229901
0.230019
0.23018
0.230396
0.230677
0.231034
0.23147
0.231986
0.232582
0.233261
0.234023
0.234872
0.235811
0.236845
0.237973
0.239196
0.240512
0.241919
0.243417
0.245003
0.24667
0.248413
0.250221
0.252089
0.254009
0.255976
0.257989
0.260034
0.262013
0.264041
0.229627
0.229674
0.229731
0.229774
0.229803
0.229822
0.229838
0.22986
0.229898
0.229959
0.230048
0.230173
0.230342
0.230568
0.23086
0.231225
0.231667
0.232187
0.232786
0.233464
0.234223
0.235066
0.235995
0.237014
0.238122
0.239319
0.240602
0.241971
0.243427
0.244965
0.24658
0.248263
0.250008
0.251807
0.253654
0.255545
0.257478
0.259443
0.261334
0.263276
0.229925
0.22991
0.229942
0.229963
0.229978
0.229988
0.229999
0.230018
0.230055
0.230117
0.230211
0.230344
0.230526
0.230766
0.231072
0.231449
0.231901
0.232428
0.233032
0.233714
0.234475
0.235316
0.23624
0.237249
0.238341
0.239516
0.240771
0.242108
0.243525
0.24502
0.246585
0.248214
0.249898
0.251632
0.253409
0.255226
0.257082
0.258967
0.260773
0.262628
0.230226
0.230147
0.230153
0.230153
0.230154
0.230157
0.230164
0.230182
0.230221
0.230287
0.230389
0.230535
0.230732
0.230989
0.231312
0.231704
0.232168
0.232706
0.233319
0.23401
0.234777
0.235621
0.236545
0.237548
0.238628
0.239785
0.241018
0.242327
0.24371
0.245165
0.246685
0.248262
0.24989
0.251561
0.253272
0.255018
0.256801
0.258608
0.260331
0.2621
0.230529
0.230385
0.230364
0.230342
0.230331
0.230327
0.230333
0.230353
0.230395
0.230469
0.230582
0.230743
0.230959
0.231236
0.231578
0.231988
0.232469
0.233021
0.233648
0.234351
0.235128
0.23598
0.236906
0.237908
0.238981
0.240125
0.24134
0.242626
0.24398
0.245399
0.246877
0.248407
0.249982
0.251595
0.253243
0.254921
0.256632
0.258365
0.260007
0.26169
0.230832
0.230621
0.230573
0.230528
0.230505
0.230497
0.230504
0.230528
0.230577
0.230661
0.230788
0.230967
0.231204
0.231504
0.231869
0.2323
0.2328
0.233372
0.234016
0.234734
0.235525
0.236389
0.237323
0.238326
0.239397
0.240533
0.241735
0.243001
0.244331
0.245719
0.247159
0.248646
0.250172
0.251731
0.253319
0.254933
0.256576
0.258237
0.259801
0.261399
0.231134
0.230854
0.230778
0.230712
0.230678
0.230666
0.230676
0.230707
0.230766
0.230862
0.231006
0.231206
0.231467
0.231792
0.232182
0.232638
0.233161
0.233755
0.23442
0.235158
0.235967
0.236845
0.23779
0.2388
0.239873
0.241006
0.242199
0.243451
0.244759
0.24612
0.247528
0.248976
0.250457
0.251966
0.253499
0.255053
0.256631
0.258222
0.259712
0.261226
0.231431
0.231082
0.230978
0.23089
0.230846
0.230833
0.230847
0.230887
0.230958
0.231071
0.231234
0.231458
0.231745
0.232098
0.232515
0.232998
0.233549
0.234168
0.234859
0.23562
0.23645
0.237346
0.238306
0.239327
0.240405
0.241539
0.242728
0.243969
0.245262
0.246601
0.247981
0.249394
0.250835
0.252299
0.253781
0.255278
0.256795
0.25832
0.25974
0.261171
0.23172
0.231301
0.23117
0.231061
0.231008
0.230995
0.231015
0.231067
0.231153
0.231284
0.23147
0.23172
0.232036
0.232418
0.232866
0.233379
0.233959
0.234608
0.235327
0.236114
0.236969
0.237887
0.238866
0.239901
0.240989
0.242128
0.243317
0.244553
0.245834
0.247156
0.248512
0.249896
0.251302
0.252725
0.25416
0.255606
0.257065
0.258528
0.259881
0.261231
0.231998
0.231509
0.231351
0.231223
0.231162
0.231151
0.23118
0.231245
0.231348
0.2315
0.231711
0.231989
0.232336
0.23275
0.23323
0.233776
0.234389
0.235071
0.235821
0.236638
0.237521
0.238465
0.239466
0.240519
0.241621
0.242769
0.243962
0.245197
0.246472
0.247781
0.249118
0.250477
0.251853
0.253239
0.254633
0.256032
0.257438
0.258843
0.260134
0.261406
0.232261
0.231703
0.23152
0.231374
0.231306
0.231298
0.231337
0.231418
0.231541
0.231717
0.231955
0.232263
0.232643
0.233091
0.233606
0.234188
0.234836
0.235553
0.236337
0.237188
0.238102
0.239074
0.240101
0.241175
0.242295
0.243456
0.244657
0.245895
0.247168
0.248469
0.249792
0.251132
0.252481
0.253837
0.255195
0.256551
0.257908
0.259261
0.260495
0.261691
0.232506
0.231881
0.231674
0.231511
0.231438
0.231435
0.231486
0.231583
0.231729
0.23193
0.232198
0.232539
0.232953
0.233437
0.233989
0.234609
0.235296
0.23605
0.236871
0.237758
0.238705
0.23971
0.240765
0.241865
0.243005
0.244183
0.245396
0.246642
0.247916
0.249214
0.250528
0.251852
0.253181
0.254511
0.255838
0.257157
0.258472
0.259777
0.26096
0.262083
0.232731
0.232039
0.23181
0.231632
0.231556
0.231559
0.231623
0.23174
0.231909
0.232139
0.232439
0.232814
0.233263
0.233785
0.234376
0.235036
0.235763
0.236558
0.237419
0.238343
0.239328
0.240367
0.241453
0.242581
0.243745
0.244943
0.246172
0.24743
0.24871
0.250008
0.251317
0.252631
0.253945
0.255255
0.256556
0.257844
0.259122
0.260385
0.261524
0.262578
0.232931
0.232177
0.231926
0.231736
0.231659
0.231668
0.231746
0.231883
0.232079
0.23234
0.232673
0.233084
0.233571
0.234132
0.234764
0.235465
0.236235
0.237072
0.237974
0.238939
0.239962
0.241038
0.242159
0.243317
0.244509
0.24573
0.246979
0.248251
0.249541
0.250844
0.252152
0.253461
0.254765
0.25606
0.257342
0.258605
0.259852
0.261079
0.262181
0.26317
0.233104
0.232289
0.232021
0.231819
0.231742
0.23176
0.231853
0.232012
0.232236
0.232529
0.232898
0.233346
0.233872
0.234473
0.235147
0.235892
0.236706
0.237587
0.238532
0.239539
0.240604
0.241718
0.242875
0.244067
0.245288
0.246536
0.247808
0.249098
0.250402
0.251713
0.253025
0.254333
0.255632
0.256918
0.258186
0.259431
0.260653
0.261852
0.262924
0.263854
0.233247
0.232375
0.23209
0.23188
0.231805
0.231832
0.231942
0.232124
0.232376
0.232703
0.233109
0.233596
0.234162
0.234805
0.235522
0.236311
0.237171
0.238097
0.239087
0.240138
0.241245
0.2424
0.243595
0.244822
0.246076
0.247353
0.24865
0.249961
0.251282
0.252605
0.253925
0.255236
0.256535
0.257818
0.259078
0.260311
0.261516
0.262695
0.263745
0.264622
0.233355
0.23243
0.232132
0.231917
0.231845
0.231883
0.232009
0.232215
0.232497
0.232859
0.233303
0.23383
0.234437
0.235122
0.235884
0.236719
0.237625
0.238598
0.239634
0.24073
0.24188
0.243077
0.244311
0.245575
0.246864
0.248172
0.249497
0.250832
0.252172
0.253511
0.254842
0.256161
0.257465
0.258749
0.260008
0.261236
0.262431
0.263597
0.264636
0.265466
0.233427
0.232453
0.232145
0.231926
0.23186
0.231908
0.232053
0.232283
0.232595
0.232993
0.233476
0.234043
0.234692
0.235421
0.236227
0.237109
0.238063
0.239083
0.240166
0.241307
0.242502
0.243742
0.245016
0.246319
0.247643
0.248985
0.250339
0.2517
0.253062
0.254418
0.255764
0.257095
0.258408
0.259699
0.260963
0.262192
0.263385
0.264547
0.265585
0.266377
0.233458
0.232441
0.232124
0.231904
0.231845
0.231907
0.23207
0.232325
0.232669
0.233102
0.233624
0.234233
0.234924
0.235696
0.236548
0.237478
0.238479
0.239547
0.240677
0.241865
0.243104
0.244387
0.245703
0.247044
0.248406
0.249782
0.251167
0.252555
0.25394
0.255317
0.25668
0.258026
0.259352
0.260654
0.261927
0.263165
0.264365
0.265533
0.26658
0.267344
0.233446
0.23239
0.232069
0.23185
0.231799
0.231875
0.232058
0.232339
0.232714
0.233183
0.233744
0.234393
0.235127
0.235944
0.236842
0.237819
0.238868
0.239984
0.241161
0.242396
0.24368
0.245006
0.246363
0.247744
0.249143
0.250553
0.25197
0.253386
0.254795
0.256194
0.257576
0.25894
0.260281
0.261598
0.262886
0.264138
0.265353
0.266538
0.267609
0.268356
0.233387
0.232299
0.231975
0.23176
0.231719
0.231811
0.232015
0.232321
0.232728
0.233233
0.233833
0.234523
0.235299
0.23616
0.237104
0.238128
0.239225
0.240389
0.241613
0.242893
0.244222
0.245591
0.246989
0.248409
0.249845
0.25129
0.252737
0.254181
0.255615
0.257036
0.258439
0.259821
0.26118
0.262515
0.263821
0.265094
0.266331
0.267545
0.268655
0.269402
0.23328
0.232165
0.231842
0.231632
0.231604
0.231713
0.231938
0.232271
0.232709
0.233249
0.233887
0.234617
0.235435
0.23634
0.23733
0.238401
0.239545
0.240756
0.242026
0.243352
0.244724
0.246134
0.247573
0.249031
0.250503
0.251981
0.253459
0.25493
0.256388
0.257831
0.259255
0.260655
0.262032
0.263385
0.264712
0.26601
0.267277
0.268531
0.2697
0.270469
0.233123
0.231987
0.231666
0.231465
0.23145
0.231577
0.231825
0.232185
0.232654
0.233229
0.233904
0.234674
0.235533
0.236481
0.237516
0.238633
0.239823
0.241079
0.242395
0.243764
0.245179
0.246629
0.248107
0.249602
0.251108
0.252618
0.254124
0.25562
0.257102
0.258566
0.260008
0.261426
0.262819
0.264189
0.265536
0.26686
0.268163
0.269469
0.27072
0.271544
0.232913
0.231763
0.231447
0.231256
0.231257
0.231403
0.231674
0.232061
0.232561
0.23317
0.233882
0.234689
0.235589
0.236579
0.237658
0.238819
0.240053
0.241354
0.242713
0.244124
0.245579
0.247068
0.248583
0.250113
0.251651
0.25319
0.254723
0.256242
0.257744
0.259226
0.260684
0.262116
0.263522
0.264904
0.266267
0.267614
0.268953
0.27032
0.271688
0.272632
0.232648
0.231491
0.231182
0.231004
0.231022
0.231188
0.231483
0.231897
0.232427
0.23307
0.233817
0.234661
0.235599
0.23663
0.237751
0.238955
0.240232
0.241574
0.242975
0.244426
0.245919
0.247444
0.248993
0.250555
0.252123
0.253689
0.255245
0.256784
0.258304
0.259799
0.261268
0.262708
0.26412
0.265507
0.266876
0.268237
0.269606
0.271048
0.272613
0.273851
0.232329
0.23117
0.230871
0.230707
0.230743
0.230931
0.231249
0.231691
0.232251
0.232926
0.233707
0.234587
0.235563
0.236632
0.237793
0.239037
0.240354
0.241736
0.243175
0.244663
0.246191
0.24775
0.24933
0.250921
0.252515
0.254104
0.255679
0.257235
0.258768
0.260272
0.261746
0.263186
0.264593
0.26597
0.267325
0.26867
0.270035
0.271523
0.273273
0.274936
0.296716
0.312283
0.326038
0.337424
0.346588
0.353995
0.359893
0.364679
0.368593
0.371881
0.37467
0.377063
0.379148
0.381008
0.382663
0.384145
0.385479
0.386686
0.387765
0.388726
0.38958
0.390338
0.390993
0.391552
0.39201
0.392365
0.39263
0.392802
0.392875
0.392853
0.392729
0.392517
0.392205
0.391794
0.391283
0.390672
0.389983
0.389176
0.388459
0.387368
0.294656
0.310063
0.32399
0.335456
0.344739
0.352213
0.358175
0.363014
0.366975
0.370292
0.373108
0.375538
0.377658
0.379541
0.381224
0.382745
0.384111
0.38534
0.386443
0.387434
0.388317
0.389097
0.389776
0.390352
0.390828
0.391207
0.39149
0.391674
0.391763
0.391753
0.391647
0.391443
0.391145
0.390747
0.390248
0.389647
0.388967
0.388171
0.387461
0.386377
0.292663
0.307873
0.321963
0.333495
0.342894
0.350431
0.356456
0.361347
0.365356
0.3687
0.371543
0.374011
0.376168
0.378074
0.379785
0.381342
0.38274
0.383994
0.385121
0.386142
0.387054
0.387855
0.388558
0.389151
0.389645
0.390047
0.390348
0.390547
0.390652
0.390655
0.390569
0.390374
0.39009
0.389705
0.389218
0.388627
0.387957
0.387174
0.386471
0.385396
0.290734
0.305716
0.319961
0.331547
0.341047
0.348651
0.354738
0.359678
0.363728
0.367108
0.369983
0.372481
0.374671
0.376608
0.37835
0.379936
0.381364
0.382647
0.383802
0.384849
0.385787
0.386611
0.387337
0.387952
0.388465
0.388887
0.389205
0.389421
0.389542
0.389562
0.389491
0.389312
0.38904
0.388667
0.388192
0.387613
0.386954
0.386183
0.385491
0.384425
0.288875
0.303597
0.317984
0.329609
0.339203
0.346873
0.35302
0.358006
0.362097
0.365515
0.368424
0.370951
0.373172
0.375142
0.376916
0.378528
0.379986
0.3813
0.382486
0.383558
0.38452
0.385368
0.386115
0.386754
0.387287
0.387727
0.388062
0.388297
0.388435
0.388473
0.388416
0.388254
0.387996
0.387634
0.387171
0.386605
0.385959
0.385199
0.384518
0.383463
0.28709
0.301519
0.316031
0.327682
0.337362
0.345095
0.351302
0.356334
0.360464
0.36392
0.366862
0.369419
0.371672
0.373676
0.375481
0.377122
0.378609
0.379954
0.381171
0.382268
0.383255
0.384126
0.384895
0.385557
0.386111
0.386568
0.386922
0.387176
0.387331
0.387387
0.387346
0.387201
0.386957
0.386607
0.386157
0.385604
0.384971
0.384223
0.383553
0.382509
0.285382
0.299487
0.314106
0.325765
0.335527
0.343317
0.349582
0.354661
0.358831
0.362324
0.3653
0.367888
0.370172
0.372209
0.374046
0.375716
0.377234
0.378609
0.379856
0.380979
0.38199
0.382887
0.383677
0.384362
0.384937
0.385413
0.385785
0.386058
0.38623
0.386305
0.38628
0.386151
0.385923
0.385587
0.38515
0.38461
0.383991
0.383255
0.382595
0.381561
0.283754
0.297504
0.31221
0.323861
0.333696
0.34154
0.347862
0.352986
0.357196
0.360726
0.363736
0.366356
0.368671
0.370742
0.372611
0.374311
0.37586
0.377265
0.378542
0.379691
0.380727
0.381649
0.382461
0.383169
0.383765
0.38426
0.384652
0.384943
0.385134
0.385226
0.385218
0.385106
0.384894
0.384572
0.384149
0.383623
0.383018
0.382295
0.381646
0.380621
0.282207
0.295575
0.310346
0.321971
0.331872
0.339764
0.34614
0.35131
0.35556
0.359128
0.362171
0.364824
0.367171
0.369275
0.371177
0.372908
0.374488
0.375922
0.377228
0.378405
0.379466
0.380413
0.381247
0.381978
0.382596
0.383111
0.383522
0.383833
0.384042
0.384152
0.384162
0.384067
0.38387
0.383563
0.383155
0.382644
0.382053
0.381342
0.380704
0.379688
0.280742
0.293703
0.308514
0.320098
0.330054
0.337988
0.344418
0.349633
0.353923
0.357528
0.360606
0.363292
0.365672
0.367809
0.369745
0.371506
0.373117
0.374581
0.375916
0.37712
0.378207
0.37918
0.380036
0.38079
0.381429
0.381964
0.382396
0.382726
0.382954
0.383083
0.383109
0.383031
0.38285
0.38256
0.382168
0.381672
0.381095
0.380397
0.37977
0.378762
0.279363
0.291892
0.306718
0.318241
0.328243
0.336214
0.342695
0.347954
0.352286
0.355928
0.35904
0.36176
0.364173
0.366344
0.368313
0.370107
0.371749
0.373243
0.374606
0.375838
0.37695
0.377949
0.378828
0.379604
0.380266
0.380821
0.381273
0.381622
0.38187
0.382017
0.382061
0.382
0.381836
0.381564
0.381187
0.380706
0.380145
0.379459
0.378844
0.377843
0.278069
0.290146
0.304959
0.316404
0.32644
0.334441
0.34097
0.346274
0.350647
0.354327
0.357476
0.360229
0.362677
0.364881
0.366885
0.368709
0.370383
0.371906
0.373298
0.374558
0.375695
0.37672
0.377622
0.378421
0.379106
0.379681
0.380154
0.380523
0.380789
0.380955
0.381017
0.380974
0.380827
0.380572
0.380213
0.379748
0.379202
0.378529
0.377924
0.376931
0.276863
0.28847
0.30324
0.314587
0.324645
0.332669
0.339245
0.344592
0.349007
0.352726
0.355911
0.3587
0.361182
0.363421
0.365458
0.367315
0.36902
0.370574
0.371994
0.373281
0.374443
0.375493
0.37642
0.377241
0.377949
0.378544
0.379038
0.379427
0.379712
0.379897
0.379977
0.379953
0.379823
0.379587
0.379245
0.378797
0.378266
0.377606
0.377013
0.376027
0.275746
0.286868
0.301563
0.312794
0.322858
0.330899
0.337517
0.342908
0.347366
0.351124
0.354347
0.357172
0.35969
0.361963
0.364035
0.365924
0.36766
0.369244
0.370692
0.372008
0.373194
0.374269
0.37522
0.376063
0.376794
0.37741
0.377925
0.378334
0.378639
0.378842
0.378941
0.378936
0.378823
0.378606
0.378283
0.377852
0.377337
0.37669
0.376108
0.37513
0.274719
0.285343
0.299929
0.311025
0.321081
0.329131
0.335789
0.341222
0.345723
0.349522
0.352784
0.355646
0.3582
0.360508
0.362614
0.364536
0.366304
0.367918
0.369394
0.370737
0.371949
0.373049
0.374024
0.374888
0.375643
0.37628
0.376815
0.377245
0.377569
0.37779
0.377908
0.377924
0.377829
0.377631
0.377327
0.376914
0.376414
0.375781
0.375211
0.374241
0.273784
0.2839
0.298342
0.309283
0.319314
0.327366
0.334058
0.339534
0.344079
0.34792
0.351221
0.354122
0.356712
0.359056
0.361196
0.363151
0.36495
0.366595
0.3681
0.36947
0.370708
0.371832
0.372831
0.373716
0.374494
0.375153
0.375708
0.376158
0.376502
0.376742
0.37688
0.376916
0.37684
0.376662
0.376378
0.375982
0.375499
0.374879
0.374321
0.373359
0.272941
0.282542
0.296803
0.307569
0.317558
0.325604
0.332326
0.337843
0.342433
0.346317
0.34966
0.3526
0.355228
0.357607
0.359781
0.36177
0.363601
0.365277
0.36681
0.368208
0.369471
0.370618
0.371642
0.372549
0.373349
0.37403
0.374604
0.375074
0.375439
0.375698
0.375855
0.375912
0.375856
0.375698
0.375434
0.375057
0.37459
0.373985
0.373438
0.372485
0.27219
0.281274
0.295316
0.305887
0.315814
0.323844
0.330592
0.33615
0.340784
0.344714
0.348099
0.351081
0.353746
0.356161
0.358371
0.360393
0.362257
0.363963
0.365525
0.36695
0.368239
0.369409
0.370458
0.371385
0.372207
0.37291
0.373504
0.373994
0.374379
0.374658
0.374834
0.374912
0.374876
0.37474
0.374495
0.374137
0.373688
0.373098
0.372562
0.371617
0.271533
0.280098
0.293881
0.304238
0.314084
0.322089
0.328857
0.334453
0.339134
0.34311
0.34654
0.349563
0.352267
0.354719
0.356964
0.359021
0.360917
0.362654
0.364245
0.365697
0.367013
0.368205
0.369278
0.370227
0.371069
0.371794
0.372408
0.372917
0.373323
0.373621
0.373817
0.373916
0.373901
0.373786
0.373562
0.373223
0.372792
0.372218
0.371693
0.370757
0.27097
0.279019
0.292504
0.302625
0.312369
0.320338
0.327121
0.332752
0.337481
0.341505
0.344981
0.348047
0.350791
0.353281
0.355562
0.357655
0.359583
0.361351
0.362971
0.364449
0.365791
0.367006
0.368103
0.369074
0.369935
0.370682
0.371316
0.371844
0.37227
0.372588
0.372803
0.372924
0.372931
0.372837
0.372634
0.372316
0.371903
0.371345
0.370831
0.369905
0.270501
0.278039
0.291185
0.30105
0.310671
0.318592
0.325384
0.331048
0.335826
0.339899
0.343422
0.346533
0.349318
0.351848
0.354166
0.356293
0.358254
0.360054
0.361702
0.363207
0.364575
0.365813
0.366932
0.367926
0.368806
0.369575
0.370228
0.370775
0.37122
0.371558
0.371794
0.371936
0.371965
0.371892
0.371711
0.371414
0.371021
0.370479
0.369977
0.369061
0.270126
0.27716
0.289929
0.299516
0.308991
0.316854
0.323646
0.329341
0.334167
0.33829
0.341863
0.34502
0.347848
0.350419
0.352774
0.354937
0.356931
0.358762
0.360439
0.36197
0.363365
0.364625
0.365766
0.366783
0.367682
0.368471
0.369143
0.369709
0.370174
0.370532
0.370789
0.370952
0.371003
0.370952
0.370794
0.370519
0.370145
0.369621
0.369131
0.368225
0.269844
0.276386
0.288737
0.298027
0.307332
0.315123
0.321907
0.327631
0.332505
0.33668
0.340304
0.34351
0.346382
0.348994
0.351389
0.353587
0.355614
0.357477
0.359182
0.360739
0.362159
0.363443
0.364605
0.365645
0.366562
0.367371
0.368063
0.368647
0.369131
0.36951
0.369787
0.369972
0.370045
0.370016
0.369882
0.36963
0.369275
0.368771
0.368294
0.367398
0.269655
0.275718
0.287614
0.296584
0.305697
0.313403
0.320169
0.325917
0.330839
0.335068
0.338745
0.342001
0.34492
0.347575
0.350008
0.352244
0.354303
0.356197
0.357931
0.359515
0.360959
0.362266
0.36345
0.364511
0.365447
0.366275
0.366986
0.367588
0.368092
0.36849
0.368788
0.368994
0.369091
0.369085
0.368974
0.368746
0.368412
0.367928
0.367465
0.36658
0.269558
0.275158
0.286561
0.295192
0.304087
0.311694
0.318433
0.3242
0.329171
0.333453
0.337185
0.340495
0.343462
0.346161
0.348634
0.350906
0.352999
0.354925
0.356686
0.358296
0.359765
0.361094
0.362299
0.363382
0.364336
0.365183
0.365913
0.366533
0.367056
0.367475
0.367793
0.36802
0.36814
0.368157
0.36807
0.367866
0.367555
0.367092
0.366646
0.365771
0.269552
0.274707
0.285581
0.293854
0.302506
0.309999
0.316701
0.32248
0.327498
0.331834
0.335625
0.33899
0.342007
0.344753
0.347267
0.349576
0.351702
0.353659
0.355448
0.357083
0.358576
0.359928
0.361153
0.362257
0.363229
0.364094
0.364844
0.36548
0.366023
0.366462
0.366801
0.367048
0.367192
0.367232
0.367169
0.366992
0.366705
0.366264
0.365837
0.364974
0.269635
0.274364
0.284677
0.292571
0.300958
0.30832
0.314973
0.320757
0.325821
0.330212
0.334063
0.337486
0.340557
0.343351
0.345906
0.348253
0.350413
0.3524
0.354216
0.355877
0.357392
0.358768
0.360012
0.361137
0.362127
0.363009
0.363778
0.364432
0.364993
0.365451
0.365811
0.366078
0.366246
0.36631
0.366272
0.366121
0.365861
0.365445
0.365038
0.364187
0.269804
0.274128
0.283852
0.291347
0.299445
0.30666
0.313251
0.319031
0.324139
0.328586
0.3325
0.335984
0.33911
0.341954
0.344552
0.346938
0.349131
0.351147
0.35299
0.354677
0.356215
0.357612
0.358877
0.36002
0.36103
0.361928
0.362715
0.363386
0.363965
0.364443
0.364823
0.36511
0.365301
0.36539
0.365378
0.365254
0.365022
0.364633
0.364249
0.363413
0.270057
0.273996
0.283105
0.290185
0.297971
0.305022
0.311537
0.317305
0.322454
0.326957
0.330934
0.334482
0.337667
0.340563
0.343205
0.34563
0.347856
0.349903
0.351772
0.353483
0.355044
0.356462
0.357746
0.358908
0.359936
0.36085
0.361655
0.362344
0.36294
0.363436
0.363836
0.364144
0.364358
0.364471
0.364486
0.364391
0.36419
0.36383
0.363472
0.362653
0.270392
0.273965
0.282439
0.289089
0.29654
0.303409
0.309834
0.315579
0.320765
0.325323
0.329367
0.332981
0.336227
0.339177
0.341865
0.344331
0.346589
0.348665
0.350561
0.352295
0.353879
0.355318
0.35662
0.3578
0.358847
0.359775
0.360598
0.361304
0.361917
0.362431
0.362851
0.363179
0.363416
0.363554
0.363595
0.363531
0.363362
0.363035
0.362706
0.361908
0.270804
0.274031
0.281854
0.288063
0.295157
0.301824
0.308145
0.313854
0.319074
0.323686
0.327797
0.331481
0.33479
0.337797
0.340533
0.343038
0.345331
0.347435
0.349357
0.351115
0.35272
0.354179
0.3555
0.356696
0.357761
0.358704
0.359543
0.360266
0.360895
0.361428
0.361867
0.362216
0.362474
0.362637
0.362706
0.362673
0.362539
0.362249
0.361953
0.361179
0.27129
0.274186
0.28135
0.287109
0.293826
0.300272
0.306473
0.312132
0.317381
0.322046
0.326226
0.329982
0.333358
0.336423
0.339208
0.341754
0.344081
0.346214
0.348161
0.349941
0.351567
0.353046
0.354385
0.355596
0.356678
0.357637
0.358491
0.359232
0.359876
0.360427
0.360884
0.361252
0.361533
0.361721
0.361818
0.361816
0.36172
0.361471
0.361213
0.360468
0.271844
0.274425
0.280926
0.28623
0.292551
0.298756
0.304823
0.310416
0.315687
0.320402
0.324652
0.328483
0.331928
0.335055
0.337891
0.340477
0.342839
0.345
0.346973
0.348776
0.350421
0.351919
0.353276
0.354502
0.3556
0.356574
0.357443
0.3582
0.358859
0.359427
0.359903
0.36029
0.360592
0.360805
0.36093
0.360961
0.360903
0.360701
0.360487
0.359778
0.272461
0.274737
0.280583
0.285429
0.291339
0.297281
0.303198
0.308709
0.313993
0.318755
0.323075
0.326984
0.330501
0.333691
0.33658
0.339209
0.341605
0.343794
0.345792
0.347617
0.349282
0.350798
0.352172
0.353412
0.354526
0.355515
0.356397
0.35717
0.357844
0.358429
0.358922
0.359328
0.359651
0.359888
0.360041
0.360105
0.360089
0.359937
0.359775
0.359111
0.273137
0.275111
0.280319
0.284712
0.290192
0.295853
0.301603
0.307014
0.3123
0.317105
0.321497
0.325484
0.329078
0.332333
0.335277
0.337948
0.34038
0.342597
0.34462
0.346467
0.34815
0.349684
0.351073
0.352328
0.353456
0.35446
0.355355
0.356144
0.356832
0.357432
0.357942
0.358366
0.358709
0.358969
0.35915
0.359249
0.359275
0.359178
0.359078
0.358472
0.273867
0.275541
0.280134
0.284082
0.289119
0.294476
0.300043
0.305334
0.310611
0.315454
0.319916
0.323984
0.327656
0.330981
0.33398
0.336696
0.339164
0.34141
0.343456
0.345324
0.347026
0.348576
0.349981
0.35125
0.352391
0.353409
0.354316
0.355121
0.355823
0.356438
0.356963
0.357404
0.357766
0.358049
0.358257
0.358391
0.358462
0.358424
0.358395
0.357865
0.274647
0.276016
0.280031
0.283545
0.288125
0.293157
0.298526
0.303674
0.308929
0.313805
0.318336
0.322487
0.32624
0.329634
0.332692
0.335453
0.337958
0.340232
0.342301
0.344191
0.34591
0.347476
0.348895
0.350177
0.351331
0.352363
0.353282
0.354101
0.354817
0.355445
0.355985
0.356442
0.356822
0.357127
0.357362
0.35753
0.357646
0.357672
0.357725
0.357297
0.275421
0.276501
0.27999
0.283095
0.28721
0.291897
0.297056
0.302041
0.307259
0.312162
0.316758
0.320989
0.324824
0.328289
0.331406
0.334213
0.336753
0.339055
0.341148
0.343058
0.344794
0.346375
0.347809
0.349104
0.35027
0.351315
0.352247
0.353079
0.353808
0.354449
0.355003
0.355475
0.355873
0.356199
0.35646
0.356662
0.356825
0.356919
0.357066
0.356775
0.276151
0.276935
0.279944
0.282671
0.286326
0.290652
0.295593
0.300399
0.305562
0.310482
0.315137
0.319447
0.323364
0.326902
0.330081
0.332938
0.335518
0.337852
0.339973
0.341904
0.343661
0.345259
0.346708
0.348017
0.349197
0.350256
0.351202
0.352046
0.35279
0.353443
0.354012
0.3545
0.354915
0.355261
0.355549
0.355785
0.355994
0.356159
0.356413
0.35631
0.277596
0.277735
0.280152
0.282418
0.285536
0.289435
0.294113
0.298668
0.303741
0.308664
0.313382
0.317788
0.321815
0.325456
0.328723
0.331652
0.334286
0.336663
0.338816
0.340773
0.34255
0.344165
0.345629
0.346951
0.348143
0.349214
0.350171
0.351026
0.351781
0.352445
0.353026
0.353527
0.353957
0.354321
0.354632
0.354899
0.355151
0.355385
0.355752
0.355901
0.286232
0.283827
0.284168
0.284382
0.285136
0.287001
0.290265
0.293502
0.298093
0.302998
0.308013
0.312884
0.31742
0.321519
0.32515
0.32834
0.331141
0.333618
0.335827
0.337812
0.339605
0.341228
0.342697
0.344025
0.345223
0.346301
0.347266
0.348129
0.348897
0.349576
0.350174
0.350698
0.351157
0.35156
0.351921
0.352256
0.352602
0.353
0.353661
0.354669
0.284505
0.282391
0.282554
0.281762
0.280873
0.281171
0.283008
0.285931
0.290083
0.295009
0.300319
0.305613
0.310588
0.315071
0.319003
0.322411
0.325363
0.32794
0.330214
0.332243
0.334067
0.335713
0.337201
0.338547
0.339763
0.340858
0.341842
0.342723
0.34351
0.344208
0.344826
0.345371
0.345852
0.346279
0.346669
0.347043
0.347443
0.347946
0.348804
0.350213
0.27865
0.277692
0.27746
0.276499
0.275228
0.274758
0.27571
0.278163
0.282082
0.287112
0.292743
0.298462
0.303868
0.308725
0.31295
0.316567