/*--------------------------------*- C++ -*----------------------------------*\
  =========                 |
  \\      /  F ield         | OpenFOAM: The Open Source CFD Toolbox
   \\    /   O peration     | Website:  https://openfoam.org
    \\  /    A nd           | Version:  7
     \\/     M anipulation  |
\*---------------------------------------------------------------------------*/
FoamFile
{
    version     2.0;
    format      ascii;
    class       surfaceScalarField;
    location    "8.9";
    object      phi;
}
// * * * * * * * * * * * * * * * * * * * * * * * * * * * * * * * * * * * * * //

dimensions      [0 3 -1 0 0 0 0];

internalField   nonuniform List<scalar> 
63520
(
6.79449e-06
-0.000130799
0.000124004
2.57398e-05
-0.000277738
0.000258792
5.6198e-05
-0.000322818
0.000292359
9.78347e-05
-0.000285848
0.000244211
0.000150514
-0.000181337
0.000128658
0.000214214
-2.04552e-05
-4.32443e-05
0.000288977
0.000187744
-0.000262508
0.000374879
0.000435806
-0.000521709
0.000471999
0.000717642
-0.000814762
0.00058039
0.00102814
-0.00113653
0.000700071
0.00136301
-0.00148269
0.000831007
0.00171858
-0.00184952
0.000973094
0.00209162
-0.00223371
0.00112614
0.00247923
-0.00263228
0.00128988
0.00287873
-0.00304247
0.00146394
0.00328761
-0.00346167
0.00164784
0.00370347
-0.00388737
0.001841
0.00412396
-0.00431712
0.00204273
0.00454682
-0.00474855
0.00225223
0.00496983
-0.00517933
0.00246864
0.00539078
-0.00560718
0.00269099
0.00580753
-0.00602987
0.00291825
0.006218
-0.00644526
0.00314932
0.0066202
-0.00685127
0.00338309
0.00701222
-0.00724599
0.00361841
0.00739231
-0.00762763
0.00385413
0.00775882
-0.00799455
0.00408913
0.00811031
-0.00834531
0.00432233
0.00844548
-0.00867868
0.00455267
0.00876325
-0.0089936
0.00477921
0.00906271
-0.00928924
0.00500105
0.00934317
-0.00956501
0.00521742
0.00960414
-0.0098205
0.00542761
0.0098453
-0.0100555
0.00563109
0.0100665
-0.01027
0.00582741
0.0102677
-0.010464
0.0060163
0.0104487
-0.0106376
0.00619764
0.0106092
-0.0107905
0.00637152
0.0107485
-0.0109224
0.0108645
0.0065382
-0.0110311
6.50432e-06
-0.000137303
2.46541e-05
-0.000295888
5.37364e-05
-0.0003519
9.33895e-05
-0.000325501
0.000143494
-0.000231442
0.000204053
-8.10147e-05
0.000275136
0.000116662
0.000356835
0.000354107
0.000449261
0.000625216
0.000552497
0.000924902
0.000666591
0.00124891
0.000791542
0.00159363
0.000927285
0.00195588
0.00107368
0.00233284
0.00123051
0.00272191
0.00139745
0.00312067
0.0015741
0.00352682
0.00175993
0.00393813
0.00195434
0.00435241
0.00215663
0.00476754
0.00236599
0.00518141
0.00258154
0.00559197
0.00280234
0.0059972
0.00302738
0.00639516
0.0032556
0.006784
0.00348592
0.00716198
0.00371726
0.00752749
0.00394853
0.00787905
0.00417867
0.00821534
0.00440667
0.00853524
0.00463158
0.0088378
0.00485251
0.00912224
0.00506866
0.00938799
0.00527932
0.00963464
0.00548391
0.00986191
0.00568196
0.0100696
0.00587313
0.0102575
0.00605728
0.010425
0.00623439
0.0105714
0.0106942
0.00640461
6.21247e-06
-0.000143516
2.35262e-05
-0.000313202
5.11722e-05
-0.000379546
8.87859e-05
-0.000363115
0.000136266
-0.000278922
0.000193638
-0.000138387
0.000261007
4.92927e-05
0.000338494
0.00027662
0.000426238
0.000537471
0.000524347
0.000826792
0.0006329
0.00114036
0.000751929
0.0014746
0.000881402
0.0018264
0.00102122
0.00219302
0.00117121
0.00257192
0.00133111
0.00296077
0.00150056
0.00335737
0.00167911
0.00375958
0.00186623
0.0041653
0.00206127
0.0045725
0.00226351
0.00497917
0.00247216
0.00538332
0.00268635
0.00578301
0.00290514
0.00617637
0.00312755
0.0065616
0.00335255
0.00693698
0.00357912
0.00730092
0.00380623
0.00765194
0.00403286
0.00798872
0.00425801
0.00831009
0.00448075
0.00861505
0.0047002
0.00890279
0.00491555
0.00917264
0.00512609
0.0094241
0.0053312
0.0096568
0.00553038
0.00987043
0.00572327
0.0100646
0.00590965
0.0102387
0.00608943
0.0103916
0.010521
0.00626265
5.92724e-06
-0.000149443
2.23405e-05
-0.000329615
4.84712e-05
-0.000405677
8.39641e-05
-0.000398608
0.000128744
-0.000323703
0.000182873
-0.000192515
0.000246483
-1.43178e-05
0.000319728
0.000203375
0.000402777
0.000454422
0.000495771
0.000733798
0.000598815
0.00103732
0.000711969
0.00136145
0.000835238
0.00170314
0.000968561
0.00205969
0.0011118
0.00242868
0.00126474
0.00280784
0.00142707
0.00319504
0.0015984
0.00358824
0.00177825
0.00398545
0.00196606
0.00438469
0.00216117
0.00478405
0.00236286
0.00518162
0.00257033
0.00557554
0.00278272
0.00596399
0.0029991
0.00634522
0.00321853
0.00671755
0.00344003
0.00707941
0.00366262
0.00742935
0.00388533
0.00776602
0.00410718
0.00808823
0.00432727
0.00839496
0.00454473
0.00868533
0.00475875
0.00895862
0.00496861
0.00921424
0.00517367
0.00945173
0.00537343
0.00967068
0.00556746
0.00987058
0.00575551
0.0100506
0.00593742
0.0102097
0.0103453
0.00611309
5.62008e-06
-0.000155063
2.10769e-05
-0.000345072
4.56126e-05
-0.000430213
7.8904e-05
-0.0004319
0.000120907
-0.000365706
0.000171718
-0.000243326
0.000231509
-7.41094e-05
0.000300475
0.000134409
0.00037881
0.000376087
0.000466686
0.000645922
0.000564241
0.000939763
0.000671561
0.00125413
0.000788682
0.00158602
0.000915574
0.0019328
0.00105214
0.00229211
0.00119819
0.00266178
0.00135348
0.00303975
0.00151766
0.00342406
0.00169031
0.0038128
0.00187091
0.00420409
0.0020589
0.00459607
0.0022536
0.00498692
0.00245428
0.00537486
0.00266015
0.00575812
0.00287036
0.00613501
0.00308401
0.0065039
0.00330019
0.00686323
0.00351796
0.00721157
0.00373639
0.00754758
0.00395456
0.00787007
0.00417157
0.00817795
0.00438657
0.00847033
0.00459877
0.00874642
0.00480744
0.00900557
0.00501194
0.00924723
0.00521173
0.00947089
0.00540638
0.00967593
0.00559556
0.00986143
0.00577906
0.0100262
0.0101677
0.00595668
5.29495e-06
-0.000160358
1.97299e-05
-0.000359507
4.2585e-05
-0.000453068
7.35794e-05
-0.000462894
0.000112713
-0.000404839
0.000160125
-0.000290739
0.000216029
-0.000130013
0.000280659
6.97789e-05
0.000354244
0.000302501
0.000436991
0.000563175
0.000529061
0.000847692
0.000630572
0.00115261
0.000741588
0.001475
0.00086211
0.00181228
0.000992067
0.00216216
0.00113132
0.00252253
0.00127964
0.00289143
0.00143674
0.00326696
0.00160225
0.00364729
0.00177571
0.00403063
0.0019566
0.00441518
0.00214431
0.00479921
0.00233817
0.00518099
0.00253745
0.00555884
0.00274137
0.0059311
0.00294909
0.00629618
0.00315974
0.00665258
0.00337245
0.00699887
0.00358632
0.00733371
0.00380047
0.00765591
0.00401404
0.00796439
0.00422618
0.00825818
0.00443613
0.00853647
0.00464316
0.00879854
0.00484661
0.00904378
0.00504595
0.00927156
0.0052407
0.00948118
0.00543052
0.00967161
0.0056151
0.00984159
0.00998868
0.00579415
4.94239e-06
-0.000165301
1.82868e-05
-0.000372851
3.937e-05
-0.000474151
6.79687e-05
-0.000491493
0.000104134
-0.000441004
0.000148055
-0.000334661
0.000199994
-0.000181952
0.000260228
9.54493e-06
0.000329021
0.000233708
0.000406613
0.000485584
0.000493197
0.000761109
0.000588917
0.00105689
0.000693865
0.00137005
0.000808067
0.00169808
0.000931483
0.00203874
0.001064
0.00239001
0.00120544
0.00274999
0.00135555
0.00311685
0.001514
0.00348885
0.00168037
0.00386425
0.00185421
0.00424135
0.00203496
0.00461847
0.002222
0.00499395
0.00241467
0.00536617
0.00261223
0.00573354
0.0028139
0.00609451
0.00301888
0.0064476
0.00322634
0.00679141
0.00343542
0.00712463
0.00364528
0.00744605
0.00385509
0.00775458
0.00406403
0.00804924
0.00427135
0.00832915
0.00447633
0.00859357
0.00467832
0.00884179
0.00487675
0.00907313
0.00507115
0.00928678
0.00526113
0.00948164
0.00544632
0.0096564
0.00980868
0.00562632
4.55615e-06
-0.000169857
1.67379e-05
-0.000385033
3.59547e-05
-0.000493368
6.20523e-05
-0.000517591
9.51441e-05
-0.000474096
0.00013548
-0.000374996
0.000183369
-0.000229842
0.000239138
-4.62235e-05
0.00030309
0.000169755
0.000375497
0.000413176
0.000456584
0.000680022
0.000546524
0.000966954
0.000645432
0.00127114
0.000753362
0.00159015
0.000870299
0.0019218
0.000996162
0.00226415
0.0011308
0.00261535
0.001274
0.00297365
0.00142546
0.00333738
0.00158484
0.00370487
0.00175169
0.00407449
0.00192553
0.00444463
0.00210578
0.0048137
0.00229183
0.00518012
0.002483
0.00554237
0.00267857
0.00589893
0.00287779
0.00624839
0.00307985
0.00658935
0.00328397
0.00692052
0.00348932
0.00724069
0.00369512
0.00754878
0.00390058
0.00784378
0.00410495
0.00812478
0.00430753
0.00839099
0.00450768
0.00864164
0.00470482
0.00887599
0.00489846
0.00909314
0.00508816
0.00929193
0.00527352
0.00947104
0.00962817
0.00545403
4.13289e-06
-0.00017399
1.50758e-05
-0.000395976
3.23274e-05
-0.00051062
5.58154e-05
-0.000541079
8.57256e-05
-0.000504006
0.000122374
-0.000411645
0.000166127
-0.000273595
0.000217358
-9.74546e-05
0.000276414
0.000110699
0.000343602
0.000345988
0.000419178
0.000604446
0.000503342
0.00088279
0.000596235
0.00117825
0.000697934
0.00148845
0.000808449
0.00181129
0.000927728
0.00214487
0.00105565
0.00248743
0.00119202
0.00283728
0.0013366
0.00319281
0.00148906
0.00355242
0.00164902
0.00391454
0.00181601
0.00427764
0.00198953
0.00464018
0.00216899
0.00500065
0.00235379
0.00535757
0.00254323
0.00570949
0.00273662
0.006055
0.00293321
0.00639276
0.00313224
0.00672149
0.00333293
0.00704
0.00353453
0.00734718
0.00373628
0.00764203
0.00393745
0.00792361
0.00413734
0.00819109
0.00433534
0.00844365
0.00453085
0.00868048
0.00472336
0.00890063
0.00491241
0.00910288
0.00509754
0.00928592
0.00944757
0.00527814
3.67083e-06
-0.000177661
1.32956e-05
-0.000405601
2.84798e-05
-0.000525804
4.92471e-05
-0.000561846
7.58663e-05
-0.000530626
0.000108726
-0.000444505
0.000148252
-0.000313121
0.000194872
-0.000144074
0.000248975
5.65957e-05
0.000310906
0.000284057
0.000380952
0.0005344
0.000459342
0.000804399
0.000546241
0.00109135
0.000641747
0.00139294
0.000745897
0.00170714
0.00085866
0.00203211
0.000979944
0.00236614
0.00110959
0.00270763
0.00124738
0.00305502
0.00139302
0.00340677
0.00154617
0.00376139
0.00170641
0.0041174
0.00187327
0.00447332
0.00204622
0.0048277
0.00222467
0.00517912
0.00240801
0.00552615
0.00259556
0.00586745
0.00278663
0.00620169
0.0029805
0.00652762
0.00317644
0.00684406
0.0033737
0.00714992
0.00357157
0.00744416
0.00376933
0.00772585
0.00396632
0.0079941
0.00416191
0.00824807
0.0043555
0.00848688
0.00454659
0.00870954
0.00473467
0.0089148
0.00491921
0.00910138
0.00926724
0.00509954
3.16779e-06
-0.000180829
1.13934e-05
-0.000413826
2.44076e-05
-0.000538818
4.23429e-05
-0.000579781
6.55609e-05
-0.000553844
9.45294e-05
-0.000473474
0.000129741
-0.000348332
0.000171675
-0.000186008
0.000220768
7.50199e-06
0.000277403
0.000227422
0.000341901
0.000469902
0.000414517
0.000731783
0.00049544
0.00101043
0.000584791
0.00130359
0.000682629
0.0016093
0.000788948
0.00192579
0.000903678
0.00225141
0.00102669
0.00258462
0.00115779
0.00292392
0.00129673
0.00326784
0.00144318
0.00361494
0.00159676
0.00396381
0.00175706
0.00431303
0.00192357
0.00466119
0.00209576
0.00500693
0.00227303
0.00534887
0.00245478
0.0056857
0.00264034
0.00601613
0.00282903
0.00633893
0.00302015
0.00665294
0.003213
0.00695707
0.00340689
0.00725028
0.00360111
0.00753162
0.00379503
0.00780018
0.00398801
0.00805508
0.00417948
0.00829541
0.00436889
0.00852013
0.00455572
0.00872797
0.00473939
0.00891771
0.00908748
0.00491914
2.62373e-06
-0.000183452
9.36876e-06
-0.000420571
2.01098e-05
-0.000549559
3.51028e-05
-0.000594774
5.48122e-05
-0.000573553
7.97904e-05
-0.000498452
0.000110599
-0.000379141
0.000147777
-0.000223186
0.000191806
-3.65281e-05
0.00024311
0.000176119
0.000302041
0.000410971
0.000368883
0.00066494
0.000443849
0.000935461
0.000527083
0.00122036
0.000618664
0.00151772
0.000718607
0.00182584
0.00082687
0.00214315
0.000943344
0.00246815
0.00106786
0.0027994
0.0012002
0.0031355
0.00134007
0.00347507
0.00148713
0.00381675
0.00164097
0.00415918
0.00180115
0.00450101
0.00196717
0.00484092
0.00213847
0.00517757
0.00231448
0.00550969
0.00249457
0.00583603
0.00267811
0.00615539
0.00286442
0.00646663
0.00305283
0.00676865
0.00324267
0.00706044
0.00343329
0.00734101
0.00362403
0.00760944
0.00381428
0.00786483
0.00400346
0.00810623
0.00419101
0.00833258
0.00437638
0.0085426
0.00455893
0.00873516
0.00890857
0.00473784
2.03866e-06
-0.000185491
7.22193e-06
-0.000425755
1.55893e-05
-0.000557927
2.75335e-05
-0.000606719
4.36304e-05
-0.00058965
6.45233e-05
-0.000519345
9.08485e-05
-0.000405467
0.000123203
-0.00025554
0.000162119
-7.54443e-05
0.000208059
0.000130179
0.00026141
0.00035762
0.000322482
0.000603868
0.000391513
0.000866431
0.000468668
0.0011432
0.000554047
0.00143234
0.00064769
0.0017322
0.000749571
0.00204127
0.000859609
0.00235811
0.000977661
0.00268134
0.00110352
0.00300964
0.00123694
0.00334166
0.00137759
0.0036761
0.00152511
0.00401166
0.00167909
0.00434704
0.00183905
0.00468095
0.00200449
0.00501213
0.00217486
0.00533932
0.00234957
0.00566132
0.00252801
0.00597695
0.00270956
0.00628509
0.00289356
0.00658465
0.00307937
0.00687462
0.00326635
0.00715403
0.00345387
0.00742192
0.00364132
0.00767738
0.00382811
0.00791943
0.00401368
0.00814701
0.00419744
0.00835885
0.0043787
0.0085539
0.00873068
0.00455658
1.4135e-06
-0.000186905
4.95619e-06
-0.000429298
1.08527e-05
-0.000563823
1.96464e-05
-0.000615512
3.20333e-05
-0.000602037
4.8753e-05
-0.000536065
7.05203e-05
-0.000427234
9.79927e-05
-0.000283013
0.000131753
-0.000109205
0.000172304
8.96273e-05
0.000220066
0.000309858
0.000275378
0.000548556
0.000338499
0.00080331
0.000409618
0.00107208
0.000488858
0.0013531
0.000576275
0.00164478
0.000671868
0.00194567
0.000775574
0.0022544
0.000887273
0.00256965
0.00100679
0.00289012
0.00113388
0.00321456
0.00126827
0.00354171
0.00140962
0.00387031
0.00155753
0.00419912
0.00171158
0.0045269
0.00187129
0.00485242
0.00203615
0.00517447
0.00220559
0.00549188
0.00237905
0.00580349
0.00255592
0.00610822
0.00273558
0.00640499
0.00291741
0.00669279
0.00310079
0.00697065
0.00328511
0.00723761
0.00346975
0.00749274
0.00365413
0.00773505
0.00383766
0.00796349
0.00401971
0.00817679
0.00419957
0.00837404
0.00855397
0.00437628
7.49769e-07
-0.000187654
2.57621e-06
-0.000431124
5.91013e-06
-0.000567157
1.14584e-05
-0.000621061
2.00458e-05
-0.000610625
3.25138e-05
-0.000548533
4.96581e-05
-0.000444378
7.21991e-05
-0.000305554
0.000100771
-0.000137776
0.000135917
5.44811e-05
0.00017809
0.000267684
0.000227658
0.000498989
0.000284903
0.000746065
0.000350037
0.00100695
0.000423202
0.00127994
0.000504476
0.00156351
0.000593877
0.00185627
0.000691362
0.00215692
0.00079683
0.00246418
0.000910128
0.00277683
0.00103105
0.00309365
0.00115932
0.00341343
0.00129465
0.00373499
0.00143666
0.00405711
0.00158496
0.0043786
0.00173911
0.00469828
0.0018986
0.00501497
0.00206293
0.00532755
0.00223154
0.00563488
0.00240387
0.0059359
0.00257931
0.00622955
0.00275727
0.00651483
0.00293713
0.00679078
0.00311831
0.00705644
0.00330019
0.00731086
0.00348218
0.00755306
0.00366367
0.007782
0.003844
0.00799646
0.00402241
0.00819563
0.0083785
0.00419788
4.89654e-08
-0.000187704
8.86563e-08
-0.000431164
7.75185e-07
-0.000567844
2.9917e-06
-0.000623277
7.70037e-06
-0.000615333
1.58492e-05
-0.000556682
2.83171e-05
-0.000456846
4.58893e-05
-0.000323126
6.92509e-05
-0.000161138
9.89868e-05
2.47451e-05
0.000135583
0.000231088
0.000179433
0.000455139
0.000230845
0.000694653
0.000290052
0.00094774
0.000357218
0.00121277
0.000432438
0.00148829
0.00051575
0.00177296
0.00060713
0.00206554
0.000706499
0.00236481
0.000813723
0.0026696
0.000928616
0.00297875
0.00105094
0.00329111
0.00118041
0.00360551
0.0013167
0.00392082
0.00145943
0.00423587
0.00160818
0.00454952
0.0017625
0.00486066
0.00192189
0.00516816
0.00208583
0.00547094
0.00225378
0.00576795
0.00242515
0.00605817
0.00259939
0.0063406
0.00277588
0.00661429
0.00295404
0.00687828
0.00313327
0.00713163
0.00331295
0.00737338
0.00349246
0.00760249
0.00367112
0.00781781
0.00384809
0.00801866
0.00820427
0.00402232
-6.8483e-07
-0.000187019
-2.49814e-06
-0.000429351
-4.53568e-06
-0.000565806
-5.7266e-06
-0.000622087
-4.96369e-06
-0.000616097
-1.18827e-06
-0.000560457
6.5638e-06
-0.000464599
1.91436e-05
-0.000335706
3.7288e-05
-0.000179283
6.16221e-05
4.10929e-07
9.26644e-05
0.000200045
0.000130836
0.000416968
0.00017647
0.000649019
0.00022982
0.000894389
0.00029107
0.00115152
0.000360336
0.00141902
0.000437671
0.00169563
0.000523072
0.00198014
0.00061648
0.0022714
0.000717781
0.0025683
0.000826811
0.00286972
0.000943356
0.00317456
0.00106716
0.00348171
0.00119791
0.00379007
0.00133526
0.00409852
0.00147882
0.00440597
0.00162816
0.00471132
0.00178281
0.0050135
0.00194228
0.00531147
0.00210604
0.00560419
0.00227356
0.00589066
0.00244425
0.00616991
0.00261755
0.00644099
0.00279286
0.00670296
0.00296959
0.0069549
0.00314712
0.00719585
0.00332477
0.00742483
0.00350185
0.00764074
0.00367746
0.00784305
0.00803122
0.00385051
-1.44992e-06
-0.000185569
-5.17423e-06
-0.000425626
-1.00026e-05
-0.000560978
-1.46644e-05
-0.000617425
-1.79003e-05
-0.000612861
-1.85374e-05
-0.00055982
-1.55248e-05
-0.000467611
-7.94492e-06
-0.000343285
4.99072e-06
-0.000192218
2.39467e-05
-1.85452e-05
4.94741e-05
0.000174518
8.2021e-05
0.000384421
0.000121945
0.000609095
0.000169521
0.000846813
0.000224952
0.00109609
0.000288373
0.0013556
0.000359856
0.00162414
0.000439414
0.00190058
0.000527009
0.00218381
0.000622548
0.00247276
0.000725886
0.00276638
0.000836833
0.00306361
0.000955153
0.00336339
0.00108057
0.00366466
0.00121275
0.00396634
0.00135133
0.00426738
0.00149591
0.00456674
0.00164605
0.00486336
0.00180128
0.00515624
0.00196109
0.00544438
0.00212496
0.00572679
0.00229235
0.00600252
0.00246268
0.00627066
0.00263536
0.00653028
0.0028098
0.00678046
0.00298535
0.0070203
0.00316134
0.00724884
0.003337
0.00746508
0.0035114
0.00766864
0.00785923
0.0036834
-2.24243e-06
-0.000183327
-7.92826e-06
-0.000419941
-1.5603e-05
-0.000553303
-2.37849e-05
-0.000609243
-3.10567e-05
-0.000605589
-3.61286e-05
-0.000554749
-3.78616e-05
-0.000465878
-3.52713e-05
-0.000345876
-2.75183e-05
-0.000199971
-1.38989e-05
-3.21646e-05
6.16971e-06
0.000154449
3.31627e-05
0.000357428
6.74609e-05
0.000574797
0.000109361
0.000804913
0.000159084
0.00104637
0.000216784
0.0012979
0.00028255
0.00155838
0.000356415
0.00182671
0.000438357
0.00210186
0.000528305
0.00238281
0.000626135
0.00266855
0.000731679
0.00295807
0.000844723
0.00325035
0.00096501
0.00354437
0.00109224
0.00383911
0.00122608
0.00413355
0.00136614
0.00442668
0.00151201
0.00471749
0.00166324
0.00500501
0.00181936
0.00528826
0.00197985
0.00556629
0.00214418
0.00583819
0.0023118
0.00610304
0.00248211
0.00635996
0.00265451
0.00660806
0.00282834
0.00684647
0.00300289
0.00707429
0.00317735
0.00729062
0.00335076
0.00749523
0.0076881
0.0035219
-3.05854e-06
-0.000180268
-1.07475e-05
-0.000412252
-2.13113e-05
-0.00054274
-3.3047e-05
-0.000597507
-4.43744e-05
-0.000594262
-5.38846e-05
-0.000545239
-6.03498e-05
-0.000459413
-6.27191e-05
-0.000343506
-6.01032e-05
-0.000202587
-5.17596e-05
-4.05083e-05
-3.70744e-05
0.000139764
-1.55461e-05
0.000335899
1.32289e-05
0.000546022
4.95676e-05
0.000768575
9.37102e-05
0.00100222
0.000145828
0.00124579
0.000206029
0.00149818
0.000274362
0.00175838
0.000350827
0.0020254
0.000435369
0.00229827
0.000527887
0.00257604
0.000628233
0.00285772
0.000736218
0.00314237
0.000851608
0.00342898
0.000974127
0.00371659
0.00110346
0.00400421
0.00123925
0.00429088
0.00138112
0.00457563
0.00152863
0.0048575
0.00168132
0.00513556
0.00183871
0.0054089
0.00200028
0.00567662
0.00216547
0.00593785
0.00233371
0.00619173
0.00250436
0.00643741
0.00267676
0.00667407
0.00285016
0.00690089
0.0030237
0.00711707
0.00319639
0.00732255
0.00751755
0.00336693
-3.89412e-06
-0.000176374
-1.36178e-05
-0.000402528
-2.70995e-05
-0.000529258
-4.24054e-05
-0.000582202
-5.7789e-05
-0.000578878
-7.17206e-05
-0.000531307
-8.28837e-05
-0.00044825
-9.01615e-05
-0.000336229
-9.26156e-05
-0.000200133
-8.94657e-05
-4.36582e-05
-8.00677e-05
0.000130366
-6.38946e-05
0.000319726
-4.05204e-05
0.000522647
-9.60854e-06
0.000737663
2.90994e-05
0.000963516
7.57922e-05
0.00119909
0.000130595
0.00144337
0.000193577
0.0016954
0.000264753
0.00195422
0.00034409
0.00221894
0.000431505
0.00248862
0.000526875
0.00276235
0.00063003
0.00303921
0.000740761
0.00331825
0.000858817
0.00359853
0.000983906
0.00387912
0.0011157
0.00415909
0.00125383
0.0044375
0.0013979
0.00471343
0.00154747
0.004986
0.00170206
0.00525431
0.00186118
0.00551751
0.00202426
0.00577476
0.00219074
0.00602525
0.00235998
0.00626818
0.00253128
0.00650278
0.00270386
0.00672831
0.00287683
0.0069441
0.00304911
0.00715026
0.00734727
0.00321939
-4.7447e-06
-0.000171629
-1.65241e-05
-0.000390749
-3.29367e-05
-0.000512846
-5.18106e-05
-0.000563328
-7.12305e-05
-0.000559459
-8.95451e-05
-0.000512992
-0.000105349
-0.000432446
-0.000117461
-0.000324117
-0.000124896
-0.000192699
-0.000126835
-4.17191e-05
-0.000122605
0.000126136
-0.000111656
0.000308776
-9.35385e-05
0.00050453
-6.7898e-05
0.000712022
-3.44582e-05
0.000930076
6.98665e-06
0.00115765
5.65797e-05
0.00139378
0.000114407
0.00163757
0.000180502
0.00188813
0.000254849
0.00214459
0.000337389
0.00240608
0.000428017
0.00267173
0.000526587
0.00294064
0.000632912
0.00321192
0.000746765
0.00348468
0.000867881
0.00375801
0.000995955
0.00403101
0.00113064
0.00430281
0.00127157
0.0045725
0.00141832
0.00483925
0.00157043
0.0051022
0.00172742
0.00536052
0.00188874
0.00561344
0.00205382
0.00586018
0.002222
0.0061
0.00239256
0.00633221
0.0025647
0.00655617
0.00273748
0.00677132
0.00290976
0.00697798
0.00717686
0.00308018
-5.60547e-06
-0.000166024
-1.94497e-05
-0.000376904
-3.87897e-05
-0.000493506
-6.12098e-05
-0.000540908
-8.46243e-05
-0.000536044
-0.00010726
-0.000490357
-0.000127625
-0.000412081
-0.000144473
-0.000307268
-0.000156774
-0.000180399
-0.000163673
-3.48199e-05
-0.000164469
0.000126932
-0.000158587
0.000302894
-0.00014556
0.000491503
-0.000125012
0.000691475
-9.66519e-05
0.000901716
-6.0256e-05
0.00112125
-1.56646e-05
0.00134919
3.72257e-05
0.00158468
9.84661e-05
0.00182689
0.000168061
0.00207499
0.000245968
0.00232817
0.000332106
0.00258559
0.000426351
0.0028464
0.000528538
0.00310974
0.000638465
0.00337475
0.00075589
0.00364058
0.000880534
0.00390637
0.00101208
0.00417126
0.00115017
0.00443441
0.00129442
0.004695
0.00144439
0.00495223
0.00159959
0.00520532
0.0017595
0.00545353
0.00192354
0.00569614
0.00209104
0.00593249
0.00226128
0.00616198
0.00243339
0.00638406
0.0026064
0.00659831
0.00277913
0.00680526
0.00700585
0.00295014
-6.47131e-06
-0.000159553
-2.2377e-05
-0.000360999
-4.4623e-05
-0.00047126
-7.05466e-05
-0.000514984
-9.78912e-05
-0.0005087
-0.000124762
-0.000463485
-0.000149582
-0.000387262
-0.000171043
-0.000285807
-0.00018807
-0.000163373
-0.000199774
-2.31152e-05
-0.000205428
0.000132586
-0.000204432
0.000301899
-0.000196303
0.000483373
-0.000180646
0.000675818
-0.000157151
0.000878221
-0.000125582
0.00108968
-8.57602e-05
0.00130937
-3.75664e-05
0.00153649
1.90682e-05
0.00177025
8.41658e-05
0.0020099
0.000157705
0.00225463
0.000239624
0.00250367
0.00032982
0.0027562
0.000428152
0.0030114
0.000534442
0.00326846
0.000648472
0.00352655
0.000769989
0.00378485
0.000898702
0.00404255
0.00103428
0.00429883
0.00117635
0.00455293
0.0013245
0.00480408
0.00147827
0.00505155
0.00163714
0.00529466
0.00180052
0.00553276
0.00196775
0.00576526
0.00213808
0.00599165
0.00231062
0.00621152
0.00248433
0.0064246
0.00265799
0.0066316
0.00683373
0.00283011
-7.33679e-06
-0.000152216
-2.5287e-05
-0.000343049
-5.03992e-05
-0.000446148
-7.9762e-05
-0.000485622
-0.000110948
-0.000477514
-0.000141943
-0.000432491
-0.000171086
-0.000358119
-0.00019701
-0.000259883
-0.000218596
-0.000141787
-0.000234924
-6.78686e-06
-0.00024524
0.000142901
-0.000248924
0.000305583
-0.000245473
0.000479921
-0.000234476
0.000664822
-0.000215609
0.000859354
-0.000188617
0.00106269
-0.000153308
0.00127406
-0.000109546
0.00149272
-5.72446e-05
0.00171795
3.63593e-06
0.00194902
7.30929e-05
0.00218518
0.000151084
0.00242568
0.000237528
0.00266975
0.000332307
0.00291662
0.000435265
0.0031655
0.000546209
0.00341561
0.000664912
0.00366615
0.000791108
0.00391635
0.000924492
0.00416545
0.00106472
0.0044127
0.0012114
0.0046574
0.00136409
0.00489887
0.00152227
0.00513647
0.00168539
0.00536964
0.00185276
0.00559788
0.00202362
0.00582079
0.00219705
0.00603809
0.00237197
0.00624967
0.00254711
0.00645646
0.00665994
0.0027209
-8.19616e-06
-0.00014402
-2.816e-05
-0.000323085
-5.60795e-05
-0.000418228
-8.87945e-05
-0.000452907
-0.000123708
-0.0004426
-0.00015869
-0.000397509
-0.000191997
-0.000324812
-0.000222207
-0.000229673
-0.000248158
-0.000115836
-0.0002689
1.39554e-05
-0.000283654
0.000157656
-0.000291782
0.000313711
-0.000292762
0.000480901
-0.000286169
0.000658228
-0.000271661
0.000844847
-0.000248971
0.00104
-0.00021789
0.00124298
-0.000178267
0.0014531
-0.000129999
0.00166968
-7.30309e-05
0.00189205
-7.34559e-06
0.00211949
6.7033e-05
0.0023513
0.000150044
0.00258674
0.000241591
0.00282508
0.000341539
0.00306556
0.000449722
0.00330743
0.000565936
0.00354994
0.000689941
0.00379234
0.000821461
0.00403393
0.000960177
0.00427399
0.00110572
0.00451185
0.00125768
0.00474691
0.00141555
0.0049786
0.00157878
0.00520641
0.00174671
0.00542996
0.00191854
0.00564896
0.00209334
0.00586329
0.00227
0.00607301
0.00244718
0.00627928
0.00648386
0.00262326
-9.04327e-06
-0.000134976
-3.09753e-05
-0.000301153
-6.16235e-05
-0.00038758
-9.75806e-05
-0.00041695
-0.000136083
-0.000404097
-0.000174886
-0.000358706
-0.000212171
-0.000287527
-0.00024646
-0.000195384
-0.000276553
-8.57435e-05
-0.00030147
3.88724e-05
-0.00032041
0.000176596
-0.000332716
0.000326017
-0.00033785
0.000486034
-0.000335373
0.000655751
-0.000324928
0.000834402
-0.000306233
0.0010213
-0.000279066
0.00121581
-0.00024326
0.00141729
-0.000198699
0.00162512
-0.000145309
0.00183866
-8.3057e-05
0.00205724
-1.19494e-05
0.00228019
6.79721e-05
0.00250682
0.00015663
0.00273642
0.000253913
0.00296827
0.000359676
0.00320166
0.000473739
0.00343587
0.000595891
0.00367019
0.00072588
0.00390394
0.000863418
0.00413645
0.00100816
0.00436711
0.00115973
0.00459535
0.00131764
0.00482068
0.00148136
0.00504269
0.00165024
0.00526109
0.00182348
0.00547572
0.00200014
0.00568663
0.00217908
0.00589407
0.0023589
0.00609947
0.00630484
0.00253792
-9.87164e-06
-0.000125105
-3.37117e-05
-0.000277313
-6.699e-05
-0.000354302
-0.000106055
-0.000377884
-0.000147981
-0.000362172
-0.000190414
-0.000316273
-0.000231462
-0.00024648
-0.000269594
-0.000157251
-0.000303575
-5.1763e-05
-0.000332397
6.76949e-05
-0.00035524
0.000199439
-0.000371428
0.000342205
-0.000380408
0.000495014
-0.000381727
0.000657069
-0.000375016
0.000827691
-0.000359978
0.00100627
-0.000336379
0.00119221
-0.000304037
0.00138495
-0.000262822
0.00158391
-0.000212645
0.00178848
-0.000153458
0.00199805
-8.52499e-05
0.00221198
-8.04618e-06
0.00242962
7.8094e-05
0.00265028
0.000173078
0.00287329
0.000276783
0.00309796
0.000389053
0.0033236
0.000509699
0.00354955
0.000638499
0.00377514
0.000775191
0.00399976
0.000919468
0.00422283
0.00107097
0.00444385
0.00122926
0.00466239
0.00139382
0.00487813
0.00156402
0.00509088
0.0017391
0.00530064
0.00191809
0.00550763
0.00209983
0.00571233
0.00228289
0.0059164
0.0061222
0.00246553
-1.06745e-05
-0.00011443
-3.63476e-05
-0.00025164
-7.21367e-05
-0.000318513
-0.000114152
-0.000335869
-0.000159309
-0.000317014
-0.000205153
-0.00027043
-0.000249718
-0.000201915
-0.000291428
-0.000115541
-0.000329013
-1.41787e-05
-0.00036144
0.000100122
-0.000387869
0.000225868
-0.000407609
0.000361946
-0.000420094
0.000507498
-0.000424857
0.000661832
-0.000421517
0.000824351
-0.000409764
0.000994515
-0.000389352
0.0011718
-0.000360086
0.00135569
-0.000321822
0.00154564
-0.000274459
0.00174112
-0.000217933
0.00194153
-0.00015222
0.00214627
-7.73303e-05
0.00235473
6.69352e-06
0.00256626
9.97758e-05
0.00278021
0.000201811
0.00299592
0.000312664
0.00321275
0.00043217
0.00343004
0.000560131
0.00364718
0.000696314
0.00386358
0.000840443
0.0040787
0.000992192
0.0042921
0.00115117
0.00450342
0.00131689
0.00471241
0.00148876
0.00491901
0.00166605
0.00512336
0.0018478
0.00532588
0.00203286
0.00552727
0.00221976
0.00572951
0.00593526
0.0024067
-1.14451e-05
-0.000102985
-3.88611e-05
-0.000224224
-7.70209e-05
-0.000280353
-0.000121803
-0.000291087
-0.000169975
-0.000268843
-0.00021898
-0.000221424
-0.000266789
-0.000154107
-0.00031178
-7.05495e-05
-0.000352652
2.66932e-05
-0.00038835
0.00013582
-0.000418016
0.000255534
-0.000440946
0.000384876
-0.000456559
0.000523111
-0.000464378
0.000669651
-0.00046401
0.000823983
-0.000455134
0.000985639
-0.000437491
0.00115416
-0.000410876
0.00132907
-0.000375131
0.0015099
-0.000330143
0.00169613
-0.000275837
0.00188722
-0.000212177
0.00208261
-0.000139158
0.00228171
-5.6813e-05
0.00248391
3.47979e-05
0.0026886
0.000135584
0.00289514
0.000245427
0.00310291
0.00036418
0.00331129
0.000491667
0.00351969
0.000627683
0.00372756
0.000771983
0.0039344
0.000924278
0.00413981
0.00108422
0.00434347
0.00125138
0.00454525
0.00142521
0.00474518
0.00160502
0.00494355
0.00178992
0.00514098
0.00197875
0.00533844
0.00217004
0.00553821
0.00574335
0.00236195
-1.21764e-05
-9.08091e-05
-4.12299e-05
-0.000195171
-8.15997e-05
-0.000239983
-0.000128943
-0.000243743
-0.000179884
-0.000217902
-0.000231774
-0.000169534
-0.000282522
-0.000103359
-0.000330466
-2.26054e-05
-0.000374276
7.05037e-05
-0.000412878
0.000174422
-0.000445398
0.000288053
-0.000471118
0.000410596
-0.000489446
0.00054144
-0.000499896
0.0006801
-0.000502062
0.00082615
-0.000495615
0.000979192
-0.000480283
0.00113883
-0.000455851
0.00130464
-0.000422152
0.0014762
-0.00037906
0.00165304
-0.000326491
0.00183465
-0.000264397
0.00202052
-0.000192765
0.00221008
-0.000111618
0.00240276
-2.10056e-05
0.00259798
7.89913e-05
0.00279514
0.000188266
0.00299363
0.000306685
0.00319287
0.000434089
0.00339229
0.000570294
0.00359135
0.000715084
0.00378961
0.000868208
0.00398668
0.00102936
0.00418232
0.00119818
0.00437643
0.00137419
0.00456917
0.00155677
0.00476097
0.0017451
0.00495265
0.00193808
0.00514546
0.00213426
0.00534203
0.00554586
0.00233175
-1.28616e-05
-7.79476e-05
-4.3432e-05
-0.0001646
-8.58305e-05
-0.000197585
-0.000135504
-0.000194069
-0.000188943
-0.000164464
-0.000243413
-0.000115065
-0.000296765
-5.00069e-05
-0.000347302
2.79314e-05
-0.000393669
0.00011687
-0.000434772
0.000215526