/*--------------------------------*- C++ -*----------------------------------*\
  =========                 |
  \\      /  F ield         | OpenFOAM: The Open Source CFD Toolbox
   \\    /   O peration     | Website:  https://openfoam.org
    \\  /    A nd           | Version:  7
     \\/     M anipulation  |
\*---------------------------------------------------------------------------*/
FoamFile
{
    version     2.0;
    format      ascii;
    class       volVectorField;
    location    "8.9";
    object      U;
}
// * * * * * * * * * * * * * * * * * * * * * * * * * * * * * * * * * * * * * //

dimensions      [0 1 -1 0 0 0 0];

internalField   nonuniform List<vector> 
32000
(
(0.00022126 -0.00510071 -1.95886e-22)
(0.00138341 -0.0107348 0)
(0.00364185 -0.0122905 -1.7572e-21)
(0.00660454 -0.0105639 0)
(0.0102206 -0.00613139 1.83517e-21)
(0.0144013 0.000561663 0)
(0.0190868 0.00915372 1.89987e-21)
(0.0242302 0.0193469 -1.44534e-21)
(0.029791 0.030897 6.2784e-25)
(0.0357325 0.0435989 6.71944e-25)
(0.0420204 0.05728 -4.98294e-22)
(0.0486221 0.0717918 2.0122e-21)
(0.0555054 0.0870036 0)
(0.0626371 0.102797 -5.11457e-22)
(0.0699829 0.119064 5.13578e-22)
(0.077507 0.135701 0)
(0.0851717 0.152609 2.59997e-21)
(0.0929382 0.169693 -5.21818e-22)
(0.100766 0.186859 0)
(0.108613 0.204015 1.05872e-21)
(0.116436 0.221073 1.06147e-21)
(0.124193 0.237943 0)
(0.13184 0.254542 0)
(0.139338 0.270786 0)
(0.146647 0.2866 0)
(0.153728 0.301912 0)
(0.160547 0.316656 0)
(0.167073 0.330773 0)
(0.173277 0.344213 -2.21012e-21)
(0.179137 0.356932 0)
(0.184633 0.368897 2.23584e-21)
(0.18975 0.380079 0)
(0.194478 0.390462 0)
(0.198811 0.400035 0)
(0.202748 0.408794 -2.28791e-21)
(0.206292 0.416738 -1.16089e-21)
(0.209451 0.423867 3.48814e-21)
(0.212247 0.430169 4.91439e-24)
(0.214692 0.435618 2.35749e-21)
(0.216674 0.440135 4.45944e-24)
(0.000322107 -0.00535313 0)
(0.00156258 -0.0114309 3.42846e-21)
(0.00376809 -0.0133954 8.77259e-22)
(0.00657063 -0.0120515 -1.43121e-24)
(0.00993425 -0.00798534 -9.17815e-22)
(0.0137862 -0.00164849 0)
(0.0180789 0.00659401 1.90055e-21)
(0.0227763 0.0164421 -1.9277e-21)
(0.0278465 0.0276514 0)
(0.0332602 0.0400165 -3.94787e-21)
(0.0389904 0.0533654 0)
(0.0450106 0.0675518 -6.03424e-21)
(0.0512935 0.0824469 0)
(0.0578114 0.0979352 0)
(0.0645353 0.11391 2.05725e-21)
(0.0714337 0.130273 -2.06387e-21)
(0.0784741 0.146928 -2.07877e-21)
(0.0856227 0.163782 0)
(0.0928436 0.180747 6.2942e-21)
(0.100099 0.197733 -2.10259e-21)
(0.107352 0.214653 3.65334e-24)
(0.114563 0.231422 -6.36967e-21)
(0.121693 0.247958 -4.2684e-21)
(0.128706 0.26418 -2.15556e-21)
(0.135566 0.280011 6.45905e-21)
(0.142236 0.295382 -6.50921e-21)
(0.148684 0.310225 6.55262e-21)
(0.15488 0.324481 -8.74029e-21)
(0.160798 0.338098 -2.18897e-21)
(0.166413 0.351029 3.41297e-23)
(0.171706 0.363238 -6.63603e-21)
(0.176662 0.374694 -4.46053e-21)
(0.181269 0.385375 9.03211e-21)
(0.185518 0.395267 -9.03182e-21)
(0.189408 0.404361 -2.25815e-21)
(0.192938 0.412652 -9.18126e-21)
(0.196117 0.420132 -1.03607e-23)
(0.198962 0.426783 2.33366e-21)
(0.201473 0.432576 -9.26601e-21)
(0.20353 0.437418 -1.30927e-20)
(0.000433375 -0.00560747 -7.86001e-22)
(0.00176811 -0.0121239 -1.71395e-21)
(0.00393093 -0.0144726 -7.91684e-21)
(0.00658294 -0.0134894 0)
(0.00970463 -0.00977108 9.18696e-22)
(0.0132387 -0.00377535 -9.3432e-22)
(0.0171506 0.0041296 -1.1402e-20)
(0.0214155 0.0136423 3.85477e-21)
(0.0260106 0.024517 -1.95299e-21)
(0.0309134 0.0365496 1.18408e-20)
(0.0361036 0.0495694 3.98682e-21)
(0.0415606 0.0634308 2.0128e-21)
(0.0472624 0.0780073 -8.10362e-21)
(0.0531856 0.0931861 0)
(0.0593056 0.108864 0)
(0.0655962 0.124943 4.13446e-21)
(0.0720289 0.141334 1.23225e-23)
(0.0785738 0.157945 -4.16295e-21)
(0.0852 0.174692 -4.19186e-21)
(0.0918744 0.191488 -8.40693e-21)
(0.0985628 0.208249 1.26795e-20)
(0.105231 0.224894 1.66707e-23)
(0.111844 0.24134 -8.58271e-24)
(0.118368 0.25751 4.26777e-21)
(0.124771 0.273329 -8.62807e-21)
(0.131019 0.288727 1.72673e-20)
(0.137082 0.303637 0)
(0.142931 0.317998 4.37557e-21)
(0.14854 0.331758 4.39905e-21)
(0.153888 0.344868 8.85752e-21)
(0.158953 0.357288 3.41189e-23)
(0.163721 0.368986 0)
(0.168178 0.379936 4.51945e-21)
(0.172315 0.39012 -4.44503e-21)
(0.176128 0.399524 -4.48964e-21)
(0.179616 0.408137 1.37308e-20)
(0.182785 0.415948 -1.36371e-20)
(0.185651 0.422934 9.25045e-21)
(0.188202 0.429055 -1.37631e-20)
(0.190307 0.434213 5.11656e-21)
(0.000554363 -0.00583695 6.28892e-21)
(0.00199593 -0.0127557 -6.86913e-21)
(0.00412302 -0.0154695 1.40817e-20)
(0.00663144 -0.0148311 0)
(0.00951834 -0.0114481 5.51255e-21)
(0.0127436 -0.00578371 9.35345e-21)
(0.0162857 0.00179052 1.89942e-21)
(0.0201302 0.0109729 1.79288e-24)
(0.0242634 0.021516 5.85749e-21)
(0.0286705 0.033217 -1.97492e-21)
(0.0333375 0.0459062 9.96344e-21)
(0.038249 0.0594401 -1.20626e-20)
(0.0433879 0.0736941 1.21517e-20)
(0.0487355 0.0885576 -4.08202e-21)
(0.0542711 0.10393 4.09899e-21)
(0.0599722 0.119718 -8.24696e-21)
(0.0658143 0.135832 -1.24388e-20)
(0.0717719 0.152188 4.15815e-21)
(0.0778174 0.168701 -4.19094e-21)
(0.083922 0.185289 1.25984e-20)
(0.0900554 0.201871 -8.44266e-21)
(0.096187 0.218368 -8.4616e-21)
(0.102286 0.2347 0)
(0.108321 0.250792 0)
(0.114263 0.26657 -8.56658e-21)
(0.120081 0.281965 -8.63106e-21)
(0.125748 0.29691 -8.64202e-21)
(0.131236 0.311345 0)
(0.136522 0.325215 0)
(0.141582 0.338472 -1.75914e-20)
(0.146398 0.351072 -8.80368e-23)
(0.150954 0.362981 8.89584e-21)
(0.155236 0.37417 -8.87187e-21)
(0.159235 0.384617 -9.01162e-21)
(0.162945 0.394304 9.01331e-21)
(0.166363 0.403216 0)
(0.169494 0.411337 9.12576e-21)
(0.172355 0.418637 -1.82957e-20)
(0.174918 0.425071 1.83379e-20)
(0.177047 0.430535 -2.06604e-20)
(0.000683305 -0.00605682 -3.14079e-21)
(0.00224281 -0.0133578 5.15317e-21)
(0.00434028 -0.0164145 -7.04356e-21)
(0.00671071 -0.0161018 0)
(0.00936931 -0.013038 -9.18981e-21)
(0.0122928 -0.00769228 -5.61346e-21)
(0.0154735 -0.000439128 7.60411e-21)
(0.0189082 0.00841912 0)
(0.0225918 0.0186352 -1.17147e-20)
(0.0265171 0.0300071 -3.94904e-21)
(0.0306761 0.0423666 -3.98391e-21)
(0.035059 0.0555721 8.04403e-21)
(0.0396531 0.0695012 -8.09918e-21)
(0.0444431 0.0840455 4.07323e-21)
(0.0494125 0.0991069 0)
(0.0545424 0.114595 1.23738e-20)
(0.0598118 0.130424 4.15052e-21)
(0.0651982 0.146512 -8.33366e-21)
(0.0706783 0.162778 1.67109e-20)
(0.0762264 0.179142 -1.67779e-20)
(0.0818158 0.195528 1.68167e-20)
(0.0874191 0.211856 8.46161e-21)
(0.0930088 0.228051 0)
(0.0985576 0.24404 8.54876e-21)
(0.104038 0.25975 4.02272e-23)
(0.109424 0.275114 0)
(0.114687 0.290065 8.64205e-21)
(0.119805 0.304543 -8.70369e-21)
(0.124753 0.318492 8.66748e-21)
(0.129511 0.331864 1.75524e-20)
(0.134059 0.344612 -1.75764e-20)
(0.138383 0.356701 1.76374e-20)
(0.142469 0.368099 0)
(0.146306 0.37878 0)
(0.149887 0.388724 1.7915e-20)
(0.15321 0.39791 0)
(0.156279 0.406317 0)
(0.159109 0.413911 -1.81964e-20)
(0.16166 0.420642 1.81368e-20)
(0.163789 0.426399 1.03063e-20)
(0.000819171 -0.0062594 1.5747e-21)
(0.00250508 -0.0139118 0)
(0.00457721 -0.017288 1.41098e-20)
(0.00681319 -0.0172825 1.80379e-21)
(0.00924729 -0.014524 1.84178e-21)
(0.0118746 -0.00948641 1.12383e-20)
(0.0147014 -0.00254647 1.52182e-20)
(0.017735 0.00599282 0)
(0.0209799 0.0158848 3.90642e-21)
(0.0244362 0.0269287 1.18447e-20)
(0.0281018 0.0389582 1.59407e-20)
(0.0319718 0.0518334 -4.02074e-21)
(0.0360377 0.0654339 -1.21451e-20)
(0.0402881 0.079654 0)
(0.0447096 0.0943983 1.63886e-20)
(0.0492864 0.109579 0)
(0.0540008 0.125114 2.48359e-20)
(0.0588334 0.140923 -8.30075e-21)
(0.063764 0.156928 0)
(0.06877 0.173054 -8.39502e-21)
(0.0738278 0.189225 -2.39337e-23)
(0.0789133 0.205366 -8.40512e-21)
(0.0840021 0.221403 -8.44801e-21)
(0.0890698 0.237266 8.52909e-21)
(0.0940918 0.252884 -8.50677e-21)
(0.0990435 0.268189 0)
(0.103901 0.283118 -8.63575e-21)
(0.108641 0.29761 8.60278e-21)
(0.113242 0.311609 0)
(0.117685 0.325064 0)
(0.121952 0.337931 0)
(0.126028 0.35017 -1.76651e-20)
(0.129898 0.361747 1.75718e-20)
(0.133553 0.372634 0)
(0.136986 0.382806 -8.93256e-21)
(0.140191 0.39224 0)
(0.143174 0.40091 1.80657e-20)
(0.145951 0.408777 -8.90146e-21)
(0.148465 0.415787 -1.82076e-20)
(0.150571 0.421825 2.03287e-20)
(0.000960755 -0.0064464 1.10419e-20)
(0.00277949 -0.0144202 -1.54976e-20)
(0.00482853 -0.0180923 -2.64675e-20)
(0.00693195 -0.0183757 -1.44384e-20)
(0.00914438 -0.015908 -3.68198e-21)
(0.0114794 -0.0111677 -7.48879e-21)
(0.0139579 -0.00453364 -3.42458e-20)
(0.0165986 0.00369147 -1.1576e-20)
(0.0194148 0.0132622 -1.95289e-20)
(0.0224138 0.023979 -1.97398e-20)
(0.0255995 0.0356776 -2.7898e-20)
(0.0289718 0.0482204 -1.60725e-20)
(0.0325259 0.0614891 2.45718e-24)
(0.0362537 0.0753805 -1.62913e-20)
(0.040145 0.0898018 -1.63885e-20)
(0.044187 0.104668 -2.47076e-20)
(0.0483644 0.1199 1.65351e-20)
(0.0526608 0.13542 -8.29495e-21)
(0.0570585 0.151153 0)
(0.061538 0.167027 1.67302e-20)
(0.0660782 0.182968 0)
(0.0706581 0.198904 3.37122e-20)
(0.0752561 0.214764 0)
(0.0798503 0.230479 -8.5119e-21)
(0.0844187 0.245981 8.56205e-21)
(0.088939 0.261204 -1.70361e-20)
(0.0933894 0.276084 0)
(0.097749 0.290562 -1.72926e-20)
(0.101998 0.304582 1.72207e-20)
(0.106118 0.318093 0)
(0.110092 0.331048 0)
(0.113906 0.343407 0)
(0.117546 0.355135 -1.75431e-20)
(0.121002 0.366199 0)
(0.124267 0.376573 -1.78161e-20)
(0.127336 0.386229 3.5601e-20)
(0.130213 0.395137 -3.57441e-20)
(0.132914 0.403256 1.77113e-20)
(0.135371 0.410526 3.60107e-20)
(0.137433 0.41683 -2.02291e-20)
(0.00110663 -0.0066156 -1.41963e-20)
(0.00306219 -0.0148793 -1.29715e-23)
(0.00508874 -0.0188234 1.41211e-20)
(0.00705985 -0.0193768 2.88871e-20)
(0.00905163 -0.017186 -3.68401e-21)
(0.0110972 -0.0127331 -1.49982e-20)
(0.0132322 -0.00639792 1.52215e-20)
(0.015487 0.00151738 2.31542e-20)
(0.0178834 0.0107687 7.81125e-21)
(0.0204364 0.0211586 1.97424e-20)
(0.0231552 0.0325252 1.59411e-20)
(0.0260442 0.0447331 2.41055e-20)
(0.0291022 0.0576663 4.85645e-20)
(0.0323243 0.0712241 2.444e-20)
(0.0357032 0.0853168 0)
(0.0392283 0.0998619 8.22534e-21)
(0.0428869 0.114782 8.25211e-21)
(0.046665 0.130003 8.28544e-21)
(0.0505472 0.145454 1.66661e-20)
(0.0545164 0.161062 -8.35945e-21)
(0.0585543 0.176759 0)
(0.0626422 0.192474 -1.7789e-23)
(0.0667612 0.208139 -1.68804e-20)
(0.0708917 0.223688 1.69333e-20)
(0.075014 0.239052 3.40029e-20)
(0.079108 0.254169 3.41582e-20)
(0.083154 0.268977 4.17821e-23)
(0.087133 0.283415 1.71576e-20)
(0.0910268 0.297429 1.72181e-20)
(0.0948187 0.310967 -1.72804e-20)
(0.0984929 0.323983 1.73441e-20)
(0.102035 0.336435 1.7409e-20)
(0.105433 0.348284 3.50179e-20)
(0.108676 0.359498 -1.19946e-22)
(0.111758 0.370046 5.28959e-20)
(0.114674 0.379898 4.56851e-23)
(0.117427 0.389021 -1.77351e-20)
(0.120034 0.39737 -1.78925e-20)
(0.122414 0.404881 1.78536e-20)
(0.124411 0.411436 2.01775e-20)
(0.0012555 -0.00676587 1.26468e-20)
(0.00334951 -0.0152866 1.72385e-20)
(0.00535222 -0.0194777 1.06119e-20)
(0.0071897 -0.0202826 -1.0834e-20)
(0.00896062 -0.0183551 -1.84291e-20)
(0.0107185 -0.0141801 1.49957e-20)
(0.0125139 -0.00813756 0)
(0.0143888 -0.000528686 1.54463e-20)
(0.016374 0.00840467 0)
(0.0184914 0.0184675 -3.15939e-20)
(0.0207558 0.0295004 7.97448e-21)
(0.0231755 0.0413703 -4.01812e-20)
(0.0257528 0.053964 -1.61875e-20)
(0.0284859 0.0671836 8.14903e-21)
(0.0313697 0.0809417 1.21319e-23)
(0.0343959 0.0951585 -8.22195e-21)
(0.037554 0.109759 -1.65322e-20)
(0.0408319 0.124673 -3.31919e-20)
(0.0442164 0.13983 0)
(0.0476925 0.155162 2.61267e-23)
(0.0512443 0.1706 -1.67357e-20)
(0.0548553 0.18608 -1.68275e-20)
(0.0585088 0.201534 1.68804e-20)
(0.0621872 0.216897 -1.69901e-20)
(0.0658728 0.232105 1.6965e-20)
(0.0695479 0.247095 -3.40166e-20)
(0.0731947 0.261806 4.34587e-23)
(0.0767959 0.276181 -3.42347e-20)
(0.0803351 0.290164 -1.72182e-20)
(0.0837969 0.303703 -4.71394e-23)
(0.0871666 0.316753 -9.91801e-23)
(0.0904307 0.32927 -1.74091e-20)
(0.0935776 0.341214 -1.74747e-20)
(0.0965981 0.35255 -6.69124e-23)
(0.0994848 0.363247 -1.76063e-20)
(0.102233 0.37327 -7.75973e-23)
(0.104848 0.382583 -1.78199e-20)
(0.107344 0.391141 5.30422e-20)
(0.10963 0.398874 -1.78537e-20)
(0.111545 0.405664 -2.02053e-20)
(0.00140604 -0.00689569 -1.26492e-20)
(0.0036378 -0.015639 3.44914e-21)
(0.0056133 -0.0200523 -1.06058e-20)
(0.00731429 -0.0210903 -3.61487e-21)
(0.00886305 -0.0194128 1.47451e-20)
(0.010334 -0.0155067 -3.7528e-21)
(0.0117931 -0.00975135 3.80937e-21)
(0.0132937 -0.00244596 -2.31723e-20)
(0.0148757 0.00617031 7.81618e-21)
(0.0165678 0.0159052 1.57988e-20)
(0.0183897 0.026602 0)
(0.0203538 0.0381307 3.21521e-20)
(0.0224656 0.0503807 0)
(0.024726 0.0632569 -3.25784e-20)
(0.0271319 0.0766745 -1.6378e-20)
(0.0296772 0.0905564 0)
(0.0323531 0.10483 0)
(0.0351494 0.119428 3.31848e-20)
(0.0380545 0.134281 1.66775e-20)
(0.0410553 0.149325 -3.34162e-20)
(0.044138 0.164494 1.6728e-20)
(0.0472882 0.179724 0)
(0.0504909 0.194951 -1.68988e-20)
(0.0537304 0.210112 3.37985e-20)
(0.056991 0.225145 -1.69067e-20)
(0.0602568 0.239988 -1.7057e-20)
(0.0635119 0.254583 1.69982e-20)
(0.0667408 0.268871 0)
(0.0699285 0.282799 3.43671e-20)
(0.0730611 0.296316 -1.71472e-20)
(0.076125 0.309374 -1.73416e-20)
(0.0791077 0.32193 -1.47072e-22)
(0.0819984 0.333943 6.9591e-20)
(0.0847885 0.345377 -5.2204e-20)
(0.0874709 0.356196 0)
(0.0900411 0.366365 -1.75938e-20)
(0.0925045 0.375846 -3.53912e-20)
(0.0948763 0.384591 1.746e-20)
(0.0970529 0.392527 1.76741e-20)
(0.0988696 0.399538 0)
(0.00155674 -0.00700352 -2.53507e-20)
(0.00392312 -0.0159343 -3.45281e-21)
(0.00586626 -0.0205443 2.83385e-20)
(0.00742667 -0.0217969 -2.89632e-20)
(0.00875091 -0.0203567 0)
(0.00993498 -0.0167113 0)
(0.0110604 -0.0112382 -7.62545e-21)
(0.0121922 -0.00423392 -2.54004e-24)
(0.0133786 0.00406541 7.81938e-21)
(0.0146551 0.0134709 0)
(0.0160465 0.023829 0)
(0.0175686 0.0350127 -8.03495e-21)
(0.0192299 0.0469145 6.70636e-24)
(0.0210338 0.059442 8.14819e-21)
(0.0229792 0.0725132 1.6378e-20)
(0.0250615 0.0860535 0)
(0.0272736 0.099993 1.65463e-20)
(0.0296068 0.114265 -1.655e-20)
(0.0320511 0.128806 -3.33022e-20)
(0.0345952 0.143551 3.34099e-20)
(0.0372267 0.158439 6.24205e-23)
(0.039933 0.173407 -1.6768e-20)
(0.0427008 0.188393 1.68878e-20)
(0.0455161 0.203337 -3.37502e-20)
(0.0483649 0.218178 0)
(0.051233 0.232856 1.70361e-20)
(0.0541061 0.247314 -3.40641e-20)
(0.0569704 0.261496 1.70215e-20)
(0.0598125 0.275347 -1.71429e-20)
(0.0626196 0.288818 -1.72442e-20)
(0.0653794 0.301861 -1.74348e-20)
(0.0680803 0.314432 6.91288e-20)
(0.0707125 0.32649 -5.18819e-20)
(0.0732678 0.337996 -3.49248e-20)
(0.0757398 0.348913 3.47249e-20)
(0.0781241 0.359205 0)
(0.0804267 0.368831 3.52419e-20)
(0.0826628 0.377742 -3.50213e-20)
(0.0847176 0.385863 -1.76742e-20)
(0.0864221 0.393079 0)
(0.00170605 -0.007088 5.3909e-20)
(0.00420159 -0.0161698 2.42261e-20)
(0.00610549 -0.0209508 -2.83383e-20)
(0.00751986 -0.0223998 2.53405e-20)
(0.00861642 -0.0211848 -3.69448e-21)
(0.00951327 -0.0177924 7.51196e-21)
(0.0103073 -0.0125971 0)
(0.0110753 -0.00589243 -7.73289e-21)
(0.0118738 0.00208957 7.82298e-21)
(0.0127447 0.0111637 7.90774e-21)
(0.0137173 0.0211801 -7.97691e-21)
(0.0148108 0.0320147 -8.04514e-21)
(0.0160368 0.0435635 8.09562e-21)
(0.0174005 0.0557369 0)
(0.0189025 0.0684557 0)
(0.0205399 0.0816476 -1.64761e-20)
(0.0223068 0.0952453 1.6515e-20)
(0.0241958 0.109185 -1.66157e-20)
(0.0261984 0.123404 1.66292e-20)
(0.0283045 0.137841 1.67324e-20)
(0.0305033 0.152436 -3.35085e-20)
(0.0327836 0.16713 3.36003e-20)
(0.0351334 0.181863 7.52597e-23)
(0.0375405 0.196575 -1.68454e-20)
(0.0399922 0.211208 0)
(0.0424757 0.225705 1.70211e-20)
(0.0449785 0.240008 1.05581e-22)
(0.0474882 0.254063 -1.70029e-20)
(0.0499929 0.267818 0)
(0.0524808 0.281222 3.44254e-20)
(0.0549408 0.294228 -3.42614e-20)
(0.0573624 0.306791 0)
(0.0597364 0.31887 3.47235e-20)
(0.0620557 0.330425 -3.45321e-20)
(0.0643141 0.341418 0)
(0.0665074 0.35181 0)
(0.0686424 0.361559 0)
(0.070734 0.370617 -3.5191e-20)
(0.0726569 0.378906 3.49654e-20)
(0.0742374 0.386312 4.01264e-20)
(0.00185235 -0.0071477 -2.53833e-20)
(0.00446913 -0.016343 -2.76825e-20)
(0.00632523 -0.0212692 -3.54777e-21)
(0.00758714 -0.0228968 1.08743e-20)
(0.00845222 -0.0218952 -1.47805e-20)
(0.00906106 -0.0187486 1.50358e-20)
(0.00952607 -0.0138277 -1.52658e-20)
(0.00993525 -0.00742154 -2.32174e-20)
(0.0103536 0.000242259 0)
(0.0108288 0.00898269 -7.91124e-21)
(0.0113945 0.0186537 7.98044e-21)
(0.0120733 0.0291349 0)
(0.012879 0.0403258 1.62106e-20)
(0.0138188 0.0521395 -1.62946e-20)
(0.0148949 0.0644997 -4.91884e-20)
(0.0161055 0.0773365 -2.78536e-23)
(0.0174459 0.0905851 3.30763e-20)
(0.0189099 0.104184 -1.65809e-20)
(0.0204901 0.118072 0)
(0.0221776 0.132192 0)
(0.0239628 0.146485 3.35181e-20)
(0.0258356 0.160894 1.68347e-20)
(0.0277854 0.17536 -1.6807e-20)
(0.0298012 0.189827 -1.69247e-20)
(0.0318717 0.204239 3.38488e-20)
(0.0339855 0.218538 -1.69167e-20)
(0.0361314 0.23267 3.41107e-20)
(0.0382985 0.246581 -6.81788e-20)
(0.040476 0.26022 6.83428e-20)
(0.0426534 0.273537 -6.85095e-20)
(0.0448204 0.286485 6.86785e-20)
(0.0469676 0.299019 -6.8849e-20)
(0.0490868 0.311098 3.43737e-20)
(0.0511714 0.32268 3.47342e-20)
(0.0532157 0.333727 2.85464e-22)
(0.0552159 0.344198 2.90759e-22)
(0.057179 0.354052 -3.46929e-20)
(0.0591198 0.363237 1.9845e-22)
(0.060903 0.371677 -3.48357e-20)
(0.0623499 0.379261 0)
(0.00199393 -0.00718139 3.17877e-21)
(0.00472167 -0.0164518 -3.46625e-21)
(0.00651985 -0.0214974 1.06509e-20)
(0.00762189 -0.023286 -1.45098e-20)
(0.00825127 -0.0224867 7.39486e-21)
(0.00857122 -0.0195794 0)
(0.0087095 -0.0149297 0)
(0.00876516 -0.00882159 3.09525e-20)
(0.00881121 -0.00147739 3.9171e-20)
(0.00890096 0.00692653 -7.91266e-21)
(0.00907212 0.0162483 3.99414e-20)
(0.00935009 0.0263717 -8.04768e-21)
(0.00975097 0.0371993 0)
(0.0102835 0.0486478 0)
(0.0109512 0.0606432 3.2787e-20)
(0.0117533 0.0731183 0)
(0.0126863 0.0860106 1.65387e-20)
(0.0137448 0.0992606 -1.66384e-20)
(0.0149223 0.112811 0)
(0.016211 0.126604 -3.34428e-20)
(0.0176021 0.140585 -1.67251e-20)
(0.0190865 0.154698 -5.03959e-20)
(0.020655 0.168887 -1.68838e-20)
(0.0222975 0.183097 1.68475e-20)
(0.024004 0.197273 3.38518e-20)
(0.0257642 0.21136 0)
(0.0275682 0.225305 3.3996e-20)
(0.0294063 0.239056 6.82455e-20)
(0.0312689 0.252562 2.23122e-22)
(0.0331464 0.265773 -3.41058e-20)
(0.0350296 0.278644 -3.4422e-20)
(0.0369099 0.29113 3.42487e-20)
(0.0387801 0.303188 3.45829e-20)
(0.040634 0.314778 -6.90536e-20)
(0.0424664 0.325859 6.92006e-20)
(0.0442737 0.336389 -3.47099e-20)
(0.0460634 0.346327 3.45996e-20)
(0.0478496 0.355625 6.96224e-20)
(0.0494877 0.3642 3.48057e-20)
(0.0507934 0.371948 3.96036e-20)
(0.00212898 -0.00718786 -2.54791e-20)
(0.00495502 -0.0164944 2.42947e-20)
(0.00668375 -0.0216334 -2.13342e-20)
(0.00761777 -0.023566 2.17943e-20)
(0.00800694 -0.0229582 3.70172e-20)
(0.00803712 -0.0202843 -3.01237e-20)
(0.00785124 -0.0159034 3.82236e-20)
(0.00755904 -0.0100932 2.32458e-20)
(0.00724113 -0.00307034 -5.48569e-20)
(0.00695613 0.00499397 1.58463e-20)
(0.00674538 0.0139626 8.00856e-21)
(0.00663692 0.0237232 1.61145e-20)
(0.00664874 0.0341825 1.62384e-20)
(0.00679102 0.0452599 -3.26534e-20)
(0.00706819 0.0568844 3.28303e-20)
(0.00748057 0.0689912 4.94903e-20)
(0.00802541 0.0815203 -4.96443e-20)
(0.00869822 0.0944143 6.64826e-20)
(0.00949312 0.107618 3.33671e-20)
(0.010403 0.121077 5.01973e-20)
(0.01142 0.134737 1.6815e-20)
(0.0125361 0.148544 3.36214e-20)
(0.0137426 0.162445 -3.37234e-20)
(0.0150308 0.176386 0)
(0.0163913 0.190314 -1.01664e-19)
(0.0178152 0.204176 6.78617e-20)
(0.0192937 0.21792 -3.38038e-20)
(0.0208181 0.231495 -3.38631e-20)
(0.0223798 0.244851 1.0608e-22)
(0.0239701 0.257941 0)
(0.0255806 0.270717 0)
(0.0272037 0.283136 3.43291e-20)
(0.0288329 0.295155 -3.45347e-20)
(0.0304626 0.306733 3.43443e-20)
(0.0320878 0.317829 -3.46695e-20)
(0.033705 0.328401 -3.47386e-20)
(0.0353219 0.338407 0)
(0.036952 0.347799 -3.45893e-20)
(0.0384418 0.356497 -3.45403e-20)
(0.039601 0.364397 -1.18944e-19)
(0.00225567 -0.00716613 2.5478e-20)
(0.00516496 -0.0164691 -2.42935e-20)
(0.00681137 -0.0216759 2.84395e-20)
(0.00756865 -0.0237356 -5.08685e-20)
(0.00771301 -0.0233092 -3.7023e-20)
(0.00745278 -0.0208632 3.01237e-20)
(0.00694572 -0.0167491 -6.11822e-20)
(0.00631183 -0.0112372 -3.09905e-20)
(0.0056389 -0.00453778 3.91998e-20)
(0.00499039 0.00318363 -7.13102e-20)
(0.00441099 0.0117949 -4.79688e-20)
(0.00393103 0.0211882 -1.61361e-20)
(0.00357008 0.0312738 -4.86949e-20)
(0.00333946 0.0419744 4.89784e-20)
(0.00324449 0.0532218 -3.28304e-20)
(0.00328622 0.064954 -3.2988e-20)
(0.00346265 0.0771131 0)
(0.0037699 0.0896441 -3.32545e-20)
(0.00420265 0.102494 -5.00825e-20)
(0.00475437 0.11561 1.67173e-20)
(0.00541789 0.12894 -3.3561e-20)
(0.00618584 0.142432 0)
(0.00705057 0.156035 3.37236e-20)
(0.00800398 0.169697 3.38885e-20)
(0.00903774 0.183365 -3.38261e-20)
(0.0101438 0.19699 0)
(0.0113143 0.210519 0)
(0.0125417 0.223904 0)
(0.013818 0.237096 7.59663e-24)
(0.0151354 0.250047 0)
(0.0164863 0.262713 -6.86346e-20)
(0.017864 0.275048 -1.27078e-22)
(0.0192625 0.287011 -6.88711e-20)
(0.0206766 0.29856 6.88709e-20)
(0.0221015 0.309654 -3.43623e-20)
(0.0235338 0.320251 3.45688e-20)
(0.0249808 0.330309 0)
(0.0264554 0.339783 6.94346e-20)
(0.0277961 0.34859 -3.45377e-20)
(0.0288052 0.356632 0)
(0.00237209 -0.00711535 3.19095e-21)
(0.00534724 -0.0163747 0)
(0.00689733 -0.0216237 -3.56116e-20)
(0.00746866 -0.0237942 4.36257e-20)
(0.0073637 -0.0235396 2.22494e-20)
(0.00681281 -0.0213167 -3.01673e-20)
(0.00598816 -0.0174677 3.06016e-20)
(0.00501945 -0.0122548 -3.10329e-20)
(0.00400113 -0.00588106 0)
(0.00300111 0.00149407 3.17045e-20)
(0.00206701 0.00974385 -3.20183e-20)
(0.00123112 0.0187651 -2.53683e-23)
(0.000514268 0.0284718 0)
(-7.12797e-05 0.03879 3.27098e-20)
(-0.000519501 0.0496546 -1.64406e-20)
(-0.000828809 0.0610058 3.30815e-20)
(-0.00100064 0.0727884 1.66235e-20)
(-0.00103835 0.0849496 -3.33236e-20)
(-0.000946882 0.0974381 0)
(-0.000732309 0.110203 5.03278e-20)
(-0.00040126 0.123195 1.68549e-20)
(3.95705e-05 0.136364 0)
(0.000583205 0.14966 0)
(0.00122223 0.163032 0)
(0.00194914 0.17643 3.38949e-20)
(0.00275674 0.189805 0)
(0.00363809 0.203108 -3.41283e-20)
(0.00458625 0.21629 6.81901e-20)
(0.0055941 0.229303 -6.81925e-20)
(0.0066545 0.242102 0)
(0.00776068 0.254641 3.42595e-20)
(0.00890648 0.266878 -3.43159e-20)
(0.0100864 0.278768 3.43704e-20)
(0.0112956 0.290273 0)
(0.0125293 0.301349 0)
(0.0137838 0.311955 3.4622e-20)
(0.0150662 0.322051 -3.4411e-20)
(0.0163879 0.331594 6.93833e-20)
(0.0175806 0.340501 -6.89386e-20)
(0.0184382 0.348675 0)
(0.0024763 -0.00703486 2.23838e-20)
(0.00549763 -0.0162103 6.96044e-21)
(0.00693633 -0.0214763 2.84917e-20)
(0.00731229 -0.0237417 2.91278e-20)
(0.00695374 -0.0236499 -2.96617e-20)
(0.00611252 -0.0216455 3.01673e-20)
(0.00497461 -0.0180603 3.06456e-20)
(0.00367877 -0.0131473 3.1033e-20)
(0.00232556 -0.00710166 0)
(0.000986867 -7.61764e-05 3.17514e-20)
(-0.000287153 0.00780805 3.20185e-20)
(-0.00146266 0.0164526 3.2277e-20)
(-0.00251782 0.0257754 0)
(-0.00343968 0.035706 3.32802e-23)
(-0.00422168 0.046182 3.2891e-20)
(-0.00486184 0.0571465 -1.65005e-20)
(-0.00536123 0.0685465 -1.65501e-20)
(-0.00572282 0.0803314 5.00176e-20)
(-0.00595129 0.092452 4.67291e-23)
(-0.00605236 0.10486 -1.67106e-20)
(-0.00603222 0.117506 -3.36336e-20)
(-0.00589701 0.130343 0)
(-0.00565315 0.143322 0)
(-0.00530744 0.156395 0)
(-0.00486667 0.169513 0)
(-0.00433726 0.182628 0)
(-0.00372544 0.195692 0)
(-0.00303753 0.208659 3.42208e-20)
(-0.00227998 0.221481 -3.40785e-20)
(-0.00145924 0.234114 0)
(-0.000581477 0.246513 0)
(0.000347652 0.258636 3.43162e-20)
(0.00132299 0.27044 0)
(0.00233981 0.281885 3.45179e-20)
(0.00339331 0.292929 -3.43203e-20)
(0.00447917 0.303532 0)
(0.00560382 0.313653 6.92391e-20)
(0.00677739 0.323253 -6.88057e-20)
(0.00782512 0.33225 0)
(0.00853169 0.340548 0)
(0.00256634 -0.00692421 -2.55779e-20)
(0.00561191 -0.0159755 -6.96611e-21)
(0.00692332 -0.0212337 7.13305e-21)
(0.00709435 -0.0235787 -2.91278e-20)
(0.00647837 -0.0236409 0)
(0.00534789 -0.021851 0)
(0.00390194 -0.0185285 -2.29811e-20)
(0.00228764 -0.0139164 -7.76645e-21)
(0.000611044 -0.00820123 -1.572e-20)
(-0.00105253 -0.00152866 -1.58721e-20)
(-0.00265081 0.00598614 -1.60345e-20)
(-0.00414876 0.0142496 1.61542e-20)
(-0.00552383 0.0231839 1.62841e-20)
(-0.00676264 0.0327218 -1.63728e-20)
(-0.00785825 0.042804 0)
(-0.00880845 0.0533763 0)
(-0.00961409 0.0643881 -3.32366e-20)
(-0.010278 0.0757908 0)
(-0.0108045 0.0875371 0)
(-0.0111992 0.0995802 3.37189e-20)
(-0.0114679 0.111874 1.16754e-22)
(-0.0116162 0.124371 9.05173e-23)
(-0.0116502 0.137026 -3.39392e-20)
(-0.0115761 0.14979 3.38664e-20)
(-0.0114001 0.162618 3.40317e-20)
(-0.0111278 0.175463 -3.40898e-20)
(-0.010765 0.188279 0)
(-0.0103174 0.201018 3.42611e-20)
(-0.00979082 0.213638 1.94467e-22)
(-0.0091912 0.226092 -3.41597e-20)
(-0.00852417 0.238338 0)
(-0.00779505 0.250334 0)
(-0.00700879 0.262038 3.44856e-20)
(-0.00617012 0.27341 -3.42955e-20)
(-0.00528416 0.28441 -3.4547e-20)
(-0.00435597 0.294996 3.43426e-20)
(-0.00338023 0.305132 0)
(-0.00234837 0.31478 0)
(-0.00144062 0.323859 0)
(-0.000882946 0.332275 -3.94306e-20)
(0.00264024 -0.00678319 3.20494e-20)
(0.00568599 -0.0156703 -1.39497e-20)
(0.00685346 -0.0208964 7.13996e-21)
(0.00681011 -0.0233061 0)
(0.00593343 -0.0235142 3.71591e-20)
(0.00451563 -0.0219349 -2.86268e-26)
(0.0027679 -0.0188743 3.06917e-20)
(0.000844907 -0.014564 -2.33195e-20)
(-0.0011425 -0.00918155 3.14612e-20)
(-0.00311611 -0.00286493 -1.58925e-20)
(-0.00502199 0.00427687 0)
(-0.00682427 0.0121554 1.61839e-20)
(-0.00849999 0.0206968 -4.8856e-20)
(-0.0100355 0.0298375 0)
(-0.0114239 0.0395213 4.95192e-20)
(-0.0126626 0.0496965 -3.31468e-20)
(-0.0137525 0.0603148 -3.33082e-20)
(-0.0146965 0.0713298 1.66993e-20)
(-0.0154987 0.082696 0)
(-0.0161644 0.0943685 -3.36393e-20)
(-0.0166992 0.106302 -3.38248e-20)
(-0.0171086 0.118453 -3.27712e-23)
(-0.0173979 0.130776 3.39612e-20)
(-0.0175731 0.143224 3.40742e-20)
(-0.0176396 0.155754 -6.80172e-20)
(-0.0176027 0.168319 3.40902e-20)
(-0.0174676 0.180875 0)
(-0.0172395 0.193378 -3.4251e-20)
(-0.0169237 0.205783 3.42935e-20)
(-0.0165256 0.218047 3.4332e-20)
(-0.0160504 0.230128 -3.43663e-20)
(-0.0155034 0.241984 3.43961e-20)
(-0.0148893 0.253576 0)
(-0.0142131 0.264863 3.45334e-20)
(-0.0134804 0.275806 6.92274e-20)
(-0.0126973 0.286366 -6.86979e-20)
(-0.01186 0.296507 6.91604e-20)
(-0.0109617 0.306194 4.3058e-22)
(-0.0101872 0.315348 -3.42591e-20)
(-0.00977447 0.323877 7.89239e-20)
(0.00269605 -0.00661183 -1.92336e-20)
(0.00571589 -0.0152953 -4.19008e-20)
(0.00672224 -0.0204654 2.85969e-20)
(0.00645529 -0.0229256 -2.19003e-20)
(0.00531538 -0.0232718 -7.41309e-21)
(0.00361323 -0.0218994 7.56156e-21)
(0.00157113 -0.0190998 -1.53389e-20)
(-0.000649619 -0.0150922 -1.55565e-20)
(-0.00293408 -0.0100445 1.57463e-20)
(-0.00520173 -0.00408649 -3.18203e-20)
(-0.00739749 0.00267919 -1.19409e-23)
(-0.00948499 0.0101692 1.61855e-20)
(-0.0114411 0.0183141 0)
(-0.0132524 0.0270538 -1.64339e-20)
(-0.0149116 0.036335 -1.6508e-20)
(-0.0164166 0.0461088 3.31803e-20)
(-0.0177682 0.0563291 0)
(-0.0189693 0.0669515 0)
(-0.0200241 0.0779325 3.36704e-20)
(-0.0209377 0.0892288 -3.36748e-20)
(-0.0217155 0.100797 0)
(-0.0223626 0.112595 3.39829e-20)
(-0.0228843 0.124579 -3.38218e-20)
(-0.0232858 0.136704 -6.81361e-20)
(-0.0235723 0.148926 -1.56895e-22)
(-0.0237484 0.161204 3.41523e-20)
(-0.0238189 0.173491 -6.84274e-20)
(-0.0237887 0.185747 3.42513e-20)
(-0.0236625 0.197927 -3.42939e-20)
(-0.0234453 0.20999 1.25997e-22)
(-0.0231422 0.221894 7.25032e-23)
(-0.0227582 0.2336 -3.43965e-20)
(-0.0222982 0.245068 -3.44671e-20)
(-0.0217675 0.256259 -3.44804e-20)
(-0.0211724 0.267135 3.13993e-23)
(-0.0205204 0.277658 0)
(-0.0198095 0.287794 -3.44877e-20)
(-0.019035 0.297514 6.91449e-20)
(-0.0183852 0.306738 -1.03157e-19)
(-0.0181119 0.315376 4.41651e-22)
(0.00273186 -0.00641039 -6.42377e-21)
(0.00569781 -0.0148516 5.59e-20)
(0.00652551 -0.0199426 -2.85949e-20)
(0.00602615 -0.0224395 2.18966e-20)
(0.00462137 -0.0229163 -5.95239e-20)
(0.00263897 -0.0217473 7.56708e-21)
(0.000311144 -0.0192077 -3.0737e-20)
(-0.00219513 -0.0155035 0)
(-0.00476162 -0.010792 0)
(-0.00730612 -0.00519482 -3.18623e-20)
(-0.00977289 0.00119219 1.60823e-20)
(-0.0121254 0.00829094 1.61999e-23)
(-0.0143408 0.0160362 1.63221e-20)
(-0.0164057 0.0243716 0)
(-0.0183133 0.0332469 -4.96625e-20)
(-0.0200615 0.0426157 1.66108e-20)
(-0.0216514 0.0524342 -3.34428e-20)
(-0.0230861 0.06266 0)
(-0.0243697 0.0732513 0)
(-0.0255074 0.0841668 2.37978e-23)
(-0.0265044 0.0953649 -3.38366e-20)
(-0.0273655 0.106804 3.40263e-20)
(-0.0280958 0.118442 -3.41417e-20)
(-0.0287002 0.130237 3.40685e-20)
(-0.0291833 0.142145 3.88066e-23)
(-0.0295495 0.154126 4.29127e-23)
(-0.029803 0.166137 3.4275e-20)
(-0.0299483 0.178136 -3.43975e-20)
(-0.02999 0.190082 0)
(-0.0299325 0.201933 -3.45239e-20)
(-0.0297807 0.213651 3.43593e-20)
(-0.0295397 0.225195 0)
(-0.0292146 0.236528 3.44674e-20)
(-0.0288113 0.247613 -3.47282e-20)
(-0.0283369 0.258411 3.43245e-20)
(-0.0278007 0.268888 0)
(-0.0272028 0.279013 1.0369e-19)
(-0.0265408 0.288759 -6.87691e-20)
(-0.0260057 0.298051 0)
(-0.0258645 0.306794 3.9518e-20)
(0.00274585 -0.00617939 5.14854e-20)
(0.00562822 -0.0143405 -2.79637e-20)
(0.00625953 -0.0193302 -7.15612e-21)
(0.00551953 -0.0218507 7.30956e-21)
(0.00384925 -0.0224508 2.97733e-20)
(0.00159196 -0.0214818 0)
(-0.00101161 -0.0192008 3.07372e-20)
(-0.00378981 -0.0158003 4.67674e-20)
(-0.00662201 -0.0114262 1.57667e-20)
(-0.00942491 -0.00619133 1.59176e-20)
(-0.0121426 -0.000184874 1.60846e-20)
(-0.014739 0.00652052 -4.86789e-20)
(-0.0171913 0.013864 1.63417e-20)
(-0.0194868 0.0217927 6.59061e-20)
(-0.0216193 0.0302595 1.65222e-20)
(-0.0235868 0.0392206 1.6637e-20)
(-0.0253909 0.0486343 3.34432e-20)
(-0.0270348 0.0584603 0)
(-0.0285228 0.0686585 0)
(-0.0298601 0.0791891 6.7757e-20)
(-0.0310518 0.0900123 -1.35968e-19)
(-0.0321026 0.101088 -2.72641e-23)
(-0.0330173 0.112375 0)
(-0.0338005 0.123833 0)
(-0.0344565 0.135422 3.42477e-20)
(-0.0349892 0.147099 0)
(-0.0354026 0.158825 0)
(-0.0357007 0.170559 -3.45707e-20)
(-0.0358877 0.182261 -6.90402e-20)
(-0.0359679 0.193892 0)