/*--------------------------------*- C++ -*----------------------------------*\
  =========                 |
  \\      /  F ield         | OpenFOAM: The Open Source CFD Toolbox
   \\    /   O peration     | Website:  https://openfoam.org
    \\  /    A nd           | Version:  7
     \\/     M anipulation  |
\*---------------------------------------------------------------------------*/
FoamFile
{
    version     2.0;
    format      ascii;
    class       volScalarField;
    location    "91.3";
    object      p;
}
// * * * * * * * * * * * * * * * * * * * * * * * * * * * * * * * * * * * * * //

dimensions      [0 2 -2 0 0 0 0];

internalField   nonuniform List<scalar> 
2000
(
0.00796459
0.0080443
0.00819704
0.00838816
0.00859176
0.00879166
0.00897658
0.00914098
0.00928393
0.00939145
0.00798797
0.00810926
0.00827828
0.00848556
0.008705
0.0089199
0.00911811
0.00929319
0.00944404
0.00954867
0.00798813
0.00816002
0.00834568
0.00856773
0.00880015
0.00902634
0.009234
0.00941643
0.00957331
0.00967394
0.00796976
0.00819885
0.00840128
0.00863579
0.00887708
0.00910937
0.00932088
0.00950525
0.00966386
0.00975792
0.00793945
0.00823032
0.00844825
0.0086917
0.00893656
0.00916837
0.00937653
0.00955559
0.00970928
0.00979234
0.00790566
0.00825952
0.00849043
0.00873823
0.00898036
0.00920409
0.00940057
0.00956574
0.00970594
0.00977165
0.00787809
0.00829207
0.00853223
0.00877887
0.0090113
0.00921884
0.0093949
0.00953714
0.00965438
0.00969509
0.00786723
0.00833407
0.00857852
0.0088178
0.00903336
0.00921684
0.00936425
0.00947533
0.00956118
0.00956967
0.00788391
0.0083919
0.00863464
0.00885992
0.00905168
0.0092042
0.00931652
0.00939126
0.00944268
0.00941562
0.00793869
0.00847197
0.00870629
0.00891078
0.00907231
0.00918814
0.00926106
0.00929806
0.00931981
0.00927145
0.00952043
0.0102706
0.0110709
0.0124319
0.0138935
0.0156521
0.0168343
0.0186105
0.0185228
0.0198219
0.00960282
0.0102883
0.0108803
0.012051
0.0133534
0.0149777
0.0160669
0.0177074
0.0177372
0.0188497
0.00963894
0.0102918
0.0106954
0.0116822
0.0128335
0.0143326
0.0153351
0.0168784
0.0169634
0.017952
0.00962235
0.0102675
0.0105135
0.0113262
0.0123346
0.0137162
0.0146426
0.0161049
0.0162093
0.0171345
0.00955065
0.0102015
0.0103298
0.0109827
0.0118575
0.0131295
0.0139888
0.0153791
0.0154981
0.0163963
0.00942638
0.0100836
0.0101369
0.0106499
0.0114022
0.012571
0.0133682
0.0146885
0.0148233
0.0157192
0.00925846
0.00990941
0.00992652
0.010325
0.0109692
0.0120434
0.0127869
0.0140467
0.014207
0.0151092
0.00905489
0.00967092
0.00968657
0.0100045
0.0105553
0.0115356
0.0122245
0.0134152
0.0136024
0.0145416
0.00880648
0.00935514
0.00939284
0.00967743
0.0101756
0.011083
0.0117345
0.0128653
0.0130837
0.0140441
0.0086131
0.00909691
0.00913091
0.00934587
0.00976324
0.0105782
0.0111834
0.0122289
0.0125101
0.0135557
0.00914427
0.00962005
0.00986864
0.0100026
0.0101282
0.0105149
0.0109079
0.0116322
0.0118617
0.012606
0.00728375
0.00772449
0.00810974
0.00845924
0.00879682
0.00923933
0.00964649
0.0102243
0.0104035
0.010845
0.00587387
0.00628016
0.00663958
0.00695472
0.00726874
0.00769994
0.00810862
0.00863727
0.00879651
0.00909972
0.00444315
0.00485167
0.00526418
0.00561336
0.00591862
0.00629849
0.00665738
0.00711901
0.00725653
0.00749189
0.00310046
0.00347744
0.00392918
0.00434241
0.00469396
0.00505609
0.00536898
0.00575479
0.00586751
0.00606578
0.00193412
0.00226523
0.00271428
0.00316116
0.00355895
0.0039344
0.00423403
0.00456462
0.00465436
0.00481306
0.000992261
0.00127352
0.00169198
0.00212708
0.00252516
0.0028929
0.00317835
0.00347001
0.00354724
0.00367567
0.000300311
0.000525518
0.00089156
0.00128317
0.00164245
0.00196999
0.00222153
0.00247022
0.00252479
0.00261143
-6.9029e-05
5.94653e-05
0.000342505
0.000640113
0.000900282
0.00113353
0.00130571
0.001491
0.00151789
0.0015735
-0.00059156
-0.000284719
-2.88236e-05
0.000165339
0.00030182
0.000414637
0.000478799
0.000567833
0.000546116
0.000544287
0.00858298
0.0070257
0.00567418
0.00429108
0.00300547
0.00188275
0.000976833
0.000287343
-4.13651e-05
-0.000578596
0.00826967
0.00678105
0.00544774
0.00410442
0.00287069
0.0017973
0.000935202
0.000277883
-2.83636e-05
-0.000498112
0.00796369
0.00656074
0.00524573
0.0039434
0.00275582
0.00172932
0.000907934
0.000285447
-6.79084e-06
-0.000398938
0.00772648
0.00640826
0.00510878
0.00384239
0.00269542
0.00170469
0.000913955
0.000317206
2.81788e-05
-0.000306249
0.00756019
0.00630708
0.00502105
0.0037868
0.00267335
0.00171276
0.000946052
0.000368033
7.42555e-05
-0.000221797
0.00746775
0.00625398
0.00497908
0.00377002
0.00268419
0.0017479
0.000999144
0.000433559
0.000128557
-0.000145339
0.0074577
0.00624592
0.00498086
0.00378974
0.00272537
0.00180713
0.00107013
0.000510539
0.000188646
-7.73592e-05
0.00751481
0.00627987
0.00502262
0.00384217
0.00279318
0.00188697
0.00115575
0.000595955
0.000252391
-1.78403e-05
0.00762912
0.00635178
0.00509962
0.00392297
0.00288353
0.00198368
0.00125267
0.000687049
0.000317999
3.38932e-05
0.00778895
0.00645649
0.00520637
0.0040276
0.00299221
0.00209364
0.00135781
0.000781484
0.000384063
7.88293e-05
0.00798009
0.00658634
0.00533583
0.00415069
0.00311463
0.00221319
0.00146827
0.000877309
0.000449515
0.000117946
0.00819219
0.00673539
0.00548271
0.00428846
0.00324744
0.0023397
0.00158198
0.00097322
0.000513717
0.000152145
0.00841887
0.00690096
0.00564385
0.00443899
0.00338867
0.00247159
0.00169773
0.00106853
0.000576431
0.000182323
0.00865395
0.00708064
0.00581592
0.00460033
0.00353653
0.00260754
0.00181461
0.00116286
0.000637615
0.000209226
0.0088923
0.00727314
0.00599622
0.00477092
0.0036897
0.00274658
0.00193208
0.00125604
0.000697362
0.000233461
0.00912927
0.00747777
0.00618234
0.00494925
0.00384712
0.00288788
0.00204977
0.00134805
0.00075584
0.000255521
0.00935788
0.00769227
0.00637141
0.00513321
0.0040077
0.00303065
0.00216741
0.00143892
0.000813254
0.000275837
0.00957366
0.00792012
0.00656608
0.00532459
0.00417317
0.00317605
0.00228593
0.00152936
0.000870118
0.00029486
0.00979577
0.00819058
0.00678571
0.00553628
0.00435291
0.00333013
0.00240914
0.00162156
0.000927496
0.000312722
0.00995296
0.00845389
0.00699954
0.00574103
0.00453018
0.00347995
0.00252927
0.00171068
0.000983093
0.000327998
0.00950615
0.00852252
0.00721494
0.00600912
0.00481875
0.00374322
0.0027594
0.00188777
0.00109904
0.00036562
0.00945522
0.00847294
0.00720821
0.00607592
0.00492563
0.00388205
0.00290151
0.00201596
0.00118975
0.000402065
0.00966972
0.0086637
0.0073869
0.00627097
0.00511537
0.00406586
0.00306148
0.00214742
0.00128135
0.000443091
0.0101183
0.00898662
0.00765273
0.0065109
0.0053269
0.00425571
0.00321893
0.00227553
0.00137446
0.000490933
0.0107919
0.00946124
0.00803008
0.00681667
0.00557932
0.00446494
0.00338566
0.00240943
0.00147543
0.0005469
0.0116338
0.0100706
0.00851489
0.00718905
0.00587697
0.0046982
0.00356787
0.00255196
0.00158241
0.000604218
0.0125431
0.0107502
0.0090605
0.00760093
0.00620353
0.00494755
0.00376215
0.00269702
0.00168093
0.000644713
0.013396
0.0114
0.00958394
0.00799549
0.00651751
0.00518712
0.00394932
0.00282696
0.00175185
0.000655151
0.0140641
0.0119095
0.00999311
0.00830534
0.00676614
0.00537895
0.00409921
0.00292314
0.00178978
0.00064255
0.0144332
0.0121873
0.0102153
0.00847432
0.00690339
0.00548659
0.00418401
0.00297415
0.00180263
0.000626705
0.0104343
0.0103901
0.0106681
0.0111939
0.0119474
0.0128668
0.0138689
0.0148326
0.015611
0.0160518
0.0105784
0.0106739
0.0110444
0.0116561
0.0124854
0.0134662
0.014517
0.015516
0.0163169
0.016771
0.0105879
0.0108448
0.0113457
0.0120821
0.0130245
0.0141041
0.0152315
0.0162752
0.0170902
0.0175462
0.010646
0.0110283
0.0116365
0.0124826
0.013528
0.0147069
0.0159237
0.0170347
0.0178888
0.0183648
0.010748
0.0112607
0.0119691
0.0129133
0.0140487
0.0153155
0.0166164
0.0178005
0.0187078
0.0192163
0.0108629
0.0115192
0.0123413
0.013389
0.0146162
0.0159682
0.0173473
0.0185994
0.0195583
0.0200991
0.0109887
0.0117906
0.01274
0.0139003
0.0152282
0.0166714
0.0181294
0.0194456
0.02045
0.0210173
0.011133
0.0120769
0.013162
0.0144395
0.0158754
0.0174167
0.0189584
0.0203393
0.0213859
0.0219743
0.0113002
0.0123809
0.0136085
0.0150046
0.016553
0.0181973
0.0198274
0.021276
0.0223652
0.022972
0.0114917
0.0127011
0.0140792
0.0155938
0.0172591
0.0190099
0.0207327
0.0222527
0.0233868
0.0240109
0.0117092
0.0130331
0.0145716
0.0162038
0.0179912
0.0198523
0.0216725
0.0232679
0.0244501
0.0250913
0.0119511
0.013372
0.0150806
0.0168285
0.0187446
0.0207207
0.0226445
0.0243207
0.0255552
0.0262141
0.012209
0.0137143
0.0155977
0.0174622
0.0195138
0.0216115
0.0236466
0.0254102
0.0267031
0.0273811
0.0124671
0.0140608
0.0161102
0.0180995
0.020291
0.0225196
0.0246745
0.0265369
0.0278968
0.0285967
0.0126837
0.014417
0.0166094
0.0187384
0.0210725
0.023442
0.0257267
0.0276957
0.0291297
0.0298575
0.0128733
0.0147629
0.0170838
0.0193619
0.0218463
0.0243683
0.0267952
0.0288815
0.0303988
0.0311619
0.0130225
0.015085
0.0175251
0.0199599
0.0226042
0.0252925
0.0278765
0.0300935
0.0317048
0.0325119
0.0131053
0.0153772
0.0179244
0.0205218
0.0233331
0.0262007
0.0289575
0.0313226
0.0330432
0.0339065
0.0130979
0.0156331
0.0182809
0.0210529
0.0240451
0.0271082
0.0300522
0.0325781
0.0344191
0.0353511
0.0129406
0.0157955
0.0185341
0.0214681
0.0246381
0.0279109
0.0310744
0.0338045
0.0358054
0.0368341
0.0135521
0.0171955
0.0202616
0.0235381
0.0270179
0.0306006
0.0340703
0.0370969
0.0393479
0.040548
0.0170697
0.020606
0.0238897
0.0276966
0.0317361
0.0358914
0.0398802
0.0433244
0.0458597
0.0471919
0.0209769
0.0246868
0.0283451
0.0327306
0.0373445
0.0420893
0.0465699
0.0503726
0.0531318
0.0545842
0.0251262
0.0292347
0.033485
0.0385329
0.0437641
0.0491131
0.0540413
0.0581299
0.0610204
0.0624777
0.0295442
0.0341633
0.0390996
0.04485
0.050728
0.0566761
0.0619985
0.0663046
0.0692556
0.0707625
0.0343203
0.0394649
0.0451428
0.0516119
0.0581564
0.0646986
0.0703795
0.0748279
0.0776455
0.0787941
0.0389951
0.04477
0.0511387
0.0582504
0.0654244
0.0724994
0.0785047
0.0830447
0.0855993
0.0866666
0.0437233
0.0498748
0.0569119
0.064689
0.0725331
0.08017
0.0866301
0.0914274
0.0935079
0.0924676
0.0462358
0.0532048
0.0608627
0.0691907
0.0775529
0.0855902
0.092294
0.097094
0.0980248
0.099572
0.0497085
0.0567832
0.0648846
0.0736983
0.082762
0.0915399
0.0995816
0.106375
0.108627
0.091886
0.012445
0.0158548
0.0193843
0.0232189
0.027169
0.031751
0.0357518
0.0406002
0.0424489
0.04586
0.0120554
0.0156297
0.0190938
0.0228728
0.0266632
0.0311015
0.0348285
0.039557
0.0411055
0.0444665
0.0118737
0.0156293
0.0190716
0.0228218
0.026519
0.0307795
0.0342952
0.0387251
0.0401127
0.0432347
0.0116571
0.0154832
0.0188919
0.022576
0.0262271
0.0303157
0.033691
0.0378306
0.0392312
0.0419964
0.0114215
0.0152415
0.0186067
0.0222102
0.0257863
0.029725
0.0330035
0.0368658
0.0383647
0.0407718
0.011187
0.0149723
0.0183044
0.0218386
0.0253318
0.0291157
0.0323268
0.035915
0.0375294
0.0396228
0.0109516
0.0146876
0.0180028
0.0214853
0.0249102
0.0285585
0.0316976
0.0350608
0.0367393
0.0385833
0.010716
0.0143901
0.0176992
0.0211442
0.0245176
0.0280612
0.0311261
0.0343175
0.0360208
0.0376605
0.0104861
0.0140878
0.0173985
0.0208174
0.0241513
0.0276177
0.0306163
0.0336731
0.0353789
0.0368729
0.0102686
0.0137897
0.0171095
0.020514
0.0238189
0.0272291
0.0301741
0.0331203
0.0348211
0.036219
0.0100689
0.0135034
0.0168405
0.0202428
0.0235305
0.0269014
0.0298071
0.0326609
0.0343561
0.0356892
0.00988427
0.01323
0.0165945
0.0200068
0.0232916
0.0266393
0.0295211
0.0322993
0.0339893
0.0352752
0.00970526
0.0129678
0.016371
0.019806
0.023104
0.0264456
0.0293197
0.0320385
0.0337235
0.0349746
0.00952334
0.0127194
0.0161699
0.0196408
0.0229687
0.0263222
0.0292045
0.0318797
0.0335568
0.0347874
0.00932793
0.0124872
0.0159898
0.0195112
0.0228856
0.0262697
0.0291763
0.031824
0.0334882
0.0347194
0.00910506
0.0122701
0.0158264
0.0194145
0.0228526
0.0262862
0.0292337
0.0318698
0.0335079
0.0347738
0.00883974
0.0120626
0.0156728
0.0193457
0.0228665
0.0263697
0.0293775
0.0320205
0.0336185
0.0349662
0.00851797
0.0118561
0.0155204
0.0192963
0.0229183
0.0265093
0.0295976
0.0322662
0.0337873
0.0353005
0.00809313
0.011623
0.0153623
0.0192667
0.0230153
0.026719
0.0299122
0.0326311
0.0340588
0.0358044
0.00758475
0.011309
0.0151358
0.0191814
0.0230709
0.0269045
0.0302332
0.0330392
0.0343105
0.036456
0.00856484
0.0123964
0.0161163
0.020239
0.0243437
0.028347
0.0318432
0.0347953
0.0359125
0.038449
0.0107633
0.0148538
0.0188355
0.0233518
0.0278753
0.0323074
0.0362196
0.0395018
0.0409903
0.0432052
0.0139041
0.0183122
0.0226988
0.0277474
0.0328115
0.0378412
0.042319
0.046012
0.0481411
0.0500455
0.0176896
0.0224981
0.0274016
0.0331329
0.0389478
0.0448387
0.0501725
0.054654
0.0578276
0.060103
0.02168
0.0269683
0.0325285
0.0391024
0.0458864
0.0529377
0.0595479
0.0654745
0.0703799
0.0744406
0.0258395
0.0315865
0.0379523
0.0454984
0.0534731
0.0620224
0.0705038
0.0790662
0.087715
0.0963708
0.0291419
0.0355696
0.0428131
0.0513794
0.0607737
0.071251
0.0824281
0.0953715
0.110993
0.130001
0.0328127
0.0397894
0.0479246
0.0575834
0.0685769
0.0814501
0.0964852
0.116667
0.145905
0.186583
0.0337256
0.0408475
0.0493224
0.0596326
0.0722209
0.0882632
0.109754
0.141877
0.194037
0.274373
0.0361778
0.044582
0.0546207
0.0671787
0.0834614
0.10538
0.136677
0.185908
0.271201
0.403198
0.00850151
0.0105275
0.0131053
0.0162546
0.0194136
0.0231696
0.0257517
0.0292735
0.0300125
0.031882
0.0083704
0.0104109
0.0128984
0.0159007
0.0188259
0.022375
0.0246801
0.0280749
0.0286595
0.0306594
0.00838804
0.0103803
0.012789
0.0156853
0.0184773
0.0218066
0.0239133
0.0270795
0.0274533
0.029782
0.008481
0.0103393
0.012598
0.0153423
0.0179825
0.0211074
0.0230584
0.0260179
0.0262002
0.0286155
0.00860936
0.0102964
0.0123631
0.0149325
0.0173824
0.0202974
0.0220869
0.0248817
0.024896
0.0271677
0.0087606
0.0102632
0.0121289
0.0145108
0.0167752
0.0194743
0.0210918
0.0237459
0.0236104
0.0256595
0.00892535
0.0102418
0.0119042
0.0140724
0.016198
0.0186763
0.020135
0.0226586
0.0223986
0.0242583
0.00909363
0.0102327
0.0116862
0.0136432
0.0156167
0.017896
0.0192385
0.02162
0.02128
0.0230114
0.00925553
0.0102361
0.011474
0.0132277
0.0150306
0.0171102
0.0184167
0.0206029
0.0202593
0.0218888
0.00940112
0.0102503
0.0112685
0.0128241
0.0144532
0.0163603
0.0176222
0.0195892
0.0193426
0.0208379
0.0080426
0.00858131
0.0087999
0.00897679
0.00910202
0.00917593
0.00920494
0.00919958
0.00918618
0.00913503
0.00821127
0.00872894
0.00892265
0.00906477
0.00914815
0.00917554
0.0091558
0.00910062
0.00903498
0.00893155
0.00844892
0.00891894
0.00907976
0.00918112
0.00921844
0.00919654
0.00912609
0.00901998
0.00890337
0.00875059
0.00875971
0.00915573
0.00927638
0.00933186
0.00932008
0.00924762
0.00912652
0.00897071
0.00880528
0.00860704
0.00914587
0.00944253
0.00951636
0.00952159
0.00945857
0.00933535
0.00916485
0.00896149
0.00874936
0.0085104
0.00960582
0.00978007
0.00980117
0.00975253
0.00963688
0.00946342
0.00924543
0.00899714
0.00874096
0.00847342
0.0101339
0.0101658
0.0101293
0.010024
0.00985493
0.0096322
0.00936893
0.00907971
0.00878395
0.00846495
0.0107207
0.0105935
0.0104962
0.0103319
0.0101093
0.00983883
0.00953304
0.0092061
0.00887342
0.00851731
0.0113488
0.011056
0.0108936
0.0106691
0.0103934
0.0100771
0.00973186
0.00937057
0.00900482
0.00862093
0.0119957
0.0115364
0.0113089
0.0110246
0.0106975
0.010338
0.0099567
0.00956475
0.00917053
0.00876553
0.0126267
0.0120133
0.0117259
0.0113851
0.0110097
0.0106107
0.0101972
0.00977863
0.00936094
0.00894085
0.0132502
0.0124817
0.0121339
0.0117383
0.0113178
0.0108832
0.0104419
0.0100012
0.00956548
0.00913634
0.0138351
0.0129193
0.0125149
0.0120691
0.0116087
0.0111437
0.0106798
0.0102221
0.00977397
0.00934207
0.0143539
0.0133055
0.0128516
0.0123629
0.0118695
0.0113809
0.0109005
0.0104313
0.00997677
0.00954868
0.014784
0.0136223
0.0131284
0.0126062
0.0120886
0.0115842
0.0110945
0.0106201
0.0101652
0.00974782
0.0151053
0.0138532
0.0133314
0.0127873
0.012256
0.0117451
0.0112538
0.0107809
0.0103318
0.0099321
0.0153013
0.0139846
0.0134489
0.0128968
0.0123639
0.0118567
0.0113727
0.0109084
0.0104707
0.0100945
0.0153596
0.0140061
0.0134727
0.0129281
0.0124071
0.0119151
0.0114481
0.0109999
0.0105768
0.0102255
0.0152729
0.0139115
0.0133978
0.0128776
0.0123832
0.0119187
0.0114786
0.0110524
0.0106401
0.0103066
0.0150389
0.0136989
0.0132226
0.0127448
0.0122932
0.0118701
0.0114683
0.0110706
0.0106671
0.0103445
0.0146591
0.0133696
0.0129484
0.0125312
0.0121399
0.0117766
0.0114372
0.011114
0.0108192
0.0106436
0.0141329
0.0129265
0.0125782
0.0122384
0.011922
0.0116298
0.0113599
0.0111103
0.0108964
0.0107724
0.0134759
0.0123808
0.0121196
0.0118709
0.0116404
0.011427
0.0112293
0.0110486
0.010897
0.0107978
0.0127064
0.0117463
0.011583
0.0114361
0.0113007
0.0111733
0.0110534
0.0109448
0.0108571
0.0107983
0.0118447
0.0110393
0.0109813
0.0109443
0.0109116
0.0108769
0.010841
0.0108094
0.0107901
0.0107852
0.0109146
0.0102784
0.0103296
0.0104075
0.0104833
0.0105471
0.0106005
0.0106505
0.0107041
0.0107611
0.00994117
0.00948369
0.00964433
0.00983941
0.0100271
0.0101935
0.0103406
0.0104763
0.0106074
0.0107333
0.00894992
0.00867522
0.00894251
0.00925374
0.00955441
0.00982603
0.0100699
0.0102946
0.0105073
0.0107086
0.0079659
0.00787201
0.00824033
0.0086639
0.00907624
0.00945358
0.00979598
0.010112
0.0104093
0.0106913
0.00702235
0.00709584
0.00755468
0.00808311
0.00860282
0.00908419
0.00952517
0.00993343
0.010317
0.0106837
0.00616688
0.0063786
0.00690695
0.00752735
0.0081454
0.00872601
0.00926334
0.00976314
0.0102329
0.0106862
0.00535276
0.00570373
0.0062937
0.00700004
0.00770784
0.00838235
0.00901273
0.00960223
0.0101565
0.0106957
0.00460643
0.00508778
0.0057333
0.00650551
0.00729585
0.00805727
0.00877529
0.0094511
0.0100867
0.0107049
0.00394601
0.00454259
0.00522943
0.00605572
0.00691508
0.00775307
0.00855171
0.00930877
0.0100232
0.0107021
0.00337818
0.0040734
0.00478761
0.00565385
0.00656803
0.00747167
0.00834239
0.00917246
0.00995441
0.0107153
0.00290543
0.00368206
0.00441096
0.00530203
0.00625646
0.00721363
0.00814693
0.00904299
0.00988541
0.0107059
0.00252768
0.00336829
0.00410031
0.0050015
0.00598132
0.00697905
0.00796449
0.0089186
0.00981297
0.0106754
0.00224231
0.00312983
0.00385469
0.0047522
0.00574264
0.00676767
0.00779466
0.00879973
0.00973986
0.0106279
0.00204458
0.00296281
0.0036717
0.0045529
0.00553965
0.00657874
0.00763702
0.00868871
0.00967708
0.0105787
0.00192852
0.00286236
0.00354783
0.0044014
0.0053707
0.00641035
0.00748837
0.00858098
0.00963395
0.0105677
0.0018857
0.00282184
0.00347779
0.00429386
0.00523276
0.00626008
0.00734946
0.00849243
0.00971465
0.0109504
0.00189879
0.00283049
0.00345477
0.00422624
0.00512182
0.00611766
0.00718993
0.00832324
0.00954122
0.0107619
0.001968
0.00288604
0.00347577
0.00419635
0.00503663
0.00598212
0.00701147
0.00810226
0.00926499
0.0104255
0.00208746
0.00298293
0.00353628
0.00420213
0.00497922
0.00586225
0.00683534
0.0078769
0.00899102
0.0101028
0.00224882
0.00311451
0.00363127
0.00424133
0.00495143
0.00576534
0.0066743
0.00766072
0.00872532
0.0097934
0.00244418
0.00327462
0.00375577
0.00431115
0.0049535
0.00569484
0.00653392
0.00745798
0.00846606
0.00948968
0.00266636
0.00345759
0.00390489
0.00440824
0.00498434
0.00565221
0.00641797
0.00727411
0.00821927
0.00919506
0.00290878
0.00365806
0.00407371
0.00452874
0.00504188
0.00563762
0.00632886
0.00711363
0.00799088
0.00891464
0.00316568
0.00387112
0.00425743
0.00466841
0.00512308
0.00564978
0.00626726
0.00697893
0.00778459
0.00865238
0.00343357
0.00409422
0.00445307
0.00482407
0.00522514
0.00568682
0.00623262
0.00687092
0.00760255
0.00841095
0.00371118
0.00432799
0.00466124
0.00499594
0.00534803
0.0057489
0.00622563
0.00679102
0.00744671
0.00819205
0.00398564
0.00455979
0.00486983
0.00517273
0.00548176
0.00582775
0.00624007
0.00673512
0.00731473
0.00799312
0.0042574
0.0047904
0.00507891
0.00535357
0.00562461
0.00592122
0.00627377
0.0067014
0.0072052
0.00781189
0.00452602
0.00501918
0.00528732
0.00553659
0.00577403
0.00602637
0.00632384
0.00668732
0.00711608
0.00764604
0.00479066
0.00524485
0.00549337
0.0057195
0.00592718
0.00614007
0.00638721
0.00669013
0.00704508
0.00749296
0.00505108
0.00546666
0.00569599
0.00590073
0.00608192
0.00625982
0.00646138
0.00670768
0.00699043
0.00735015
0.00530756
0.00568443
0.00589484
0.0060796
0.00623711
0.00638412
0.00654489
0.00673919
0.00695242
0.00721698
0.0055607
0.00589836
0.00609019
0.00625632
0.00639278
0.0065128
0.00663764
0.00678543
0.00693356
0.00709426
0.00581094
0.00610881
0.00628279
0.00643217
0.0065508
0.00664848
0.00674288
0.00684964
0.00693621
0.0069755
0.00605824
0.006316
0.00647359
0.00660919
0.00671522
0.00679937
0.00687672
0.00696191
0.00702224
0.00696852
0.00630232
0.00651996
0.00666313
0.00678864
0.00688875
0.00697221
0.00705865
0.00718394
0.00741548
0.00779904
0.00654397
0.00672061
0.00685112
0.00696991
0.0070683
0.00715419
0.00724602
0.0073764
0.00760634
0.00794592
0.00677887
0.00691627
0.00703651
0.00715175
0.00725147
0.00734088
0.00743454
0.00755743
0.00775108
0.00801088
0.00700313
0.00710497
0.00721777
0.00733271
0.00743706
0.0075328
0.00763052
0.00774954
0.00791855
0.00812803
0.007214
0.00728355
0.00739289
0.00751093
0.00762306
0.00772814
0.00783254
0.00795031
0.00810105
0.0082761
0.00740583
0.0074512
0.00755922
0.00768417
0.00780681
0.00792379
0.00803723
0.00815616
0.00829355
0.0084441
0.00757505
0.00760498
0.00771568
0.00784905
0.00798531
0.00811655
0.0082414
0.00836461
0.00849431
0.00862801
0.00771843
0.0077427
0.00785915
0.008004
0.00815567
0.00830306
0.00844149
0.00857213
0.00869955
0.00882209
0.00783334
0.00786293
0.00798807
0.00814659
0.00831506
0.00847984
0.00863344
0.00877412
0.00890383
0.0090192
0.00791675
0.00796415
0.00810112
0.00827503
0.00846104
0.00864358
0.00881306
0.00896545
0.00910083
0.00921167
)
;

boundaryField
{
    inlet
    {
        type            zeroGradient;
    }
    outlet
    {
        type            fixedValue;
        value           uniform 0;
    }
    cylinder
    {
        type            zeroGradient;
    }
    top
    {
        type            symmetryPlane;
    }
    bottom
    {
        type            symmetryPlane;
    }
    defaultFaces
    {
        type            empty;
    }
}


// ************************************************************************* //
