/*--------------------------------*- C++ -*----------------------------------*\
  =========                 |
  \\      /  F ield         | OpenFOAM: The Open Source CFD Toolbox
   \\    /   O peration     | Website:  https://openfoam.org
    \\  /    A nd           | Version:  7
     \\/     M anipulation  |
\*---------------------------------------------------------------------------*/
FoamFile
{
    version     2.0;
    format      ascii;
    class       volVectorField;
    location    "17.9";
    object      U;
}
// * * * * * * * * * * * * * * * * * * * * * * * * * * * * * * * * * * * * * //

dimensions      [0 1 -1 0 0 0 0];

internalField   nonuniform List<vector> 
2000
(
(0.00422899 0.00942636 2.54423e-22)
(0.0280576 0.0662238 0)
(0.072414 0.138404 0)
(0.119628 0.212922 1.05306e-22)
(0.161322 0.27994 3.53293e-22)
(0.192443 0.333993 3.2294e-22)
(0.211725 0.373686 -6.52936e-22)
(0.220552 0.400244 0)
(0.221125 0.416223 0)
(0.21763 0.424268 0)
(0.00312904 0.00281594 0)
(0.0197409 0.0469647 3.61644e-22)
(0.054154 0.109359 -3.33411e-22)
(0.0937375 0.179006 -4.46733e-23)
(0.132117 0.246991 0)
(0.164013 0.30673 1.09357e-21)
(0.186682 0.354712 -1.01688e-21)
(0.199893 0.390106 0)
(0.204534 0.413987 5.05432e-21)
(0.204174 0.428502 -1.05232e-20)
(0.00301162 -0.00245612 0)
(0.0145472 0.0301951 -2.67661e-21)
(0.0403441 0.0821438 0)
(0.0718408 0.144417 -5.53122e-23)
(0.104868 0.209854 0)
(0.134986 0.272099 -2.14333e-21)
(0.158949 0.326491 0)
(0.175371 0.37042 6.5631e-21)
(0.183847 0.403157 -6.14684e-21)
(0.1868 0.425965 -7.80494e-21)
(0.0035555 -0.00649174 8.79859e-22)
(0.0117855 0.0161236 1.399e-21)
(0.030595 0.0577626 4.0737e-22)
(0.0545258 0.111153 2.95075e-22)
(0.0812095 0.171014 -2.21426e-22)
(0.107473 0.232131 9.09383e-22)
(0.130407 0.289812 1.14751e-21)
(0.148145 0.340464 -1.42585e-21)
(0.159443 0.381753 4.67634e-21)
(0.165053 0.413827 7.79916e-21)
(0.00445303 -0.00939802 8.74932e-22)
(0.0106822 0.00474788 6.57149e-22)
(0.0240893 0.0367354 1.57277e-22)
(0.0415742 0.0806894 -1.48572e-22)
(0.061975 0.132908 0)
(0.0832759 0.18961 0)
(0.103304 0.246898 -2.66192e-21)
(0.120279 0.301135 -3.65765e-21)
(0.132858 0.34913 3.44346e-21)
(0.139444 0.389647 1.64765e-20)
(0.0054091 -0.0112808 -5.03962e-22)
(0.0104573 -0.004089 1.4726e-23)
(0.0197844 0.0191528 5.28524e-22)
(0.0321282 0.0538112 7.44907e-22)
(0.0470296 0.0973484 -2.20501e-22)
(0.0632854 0.147268 0)
(0.0794502 0.200782 0)
(0.0941 0.254878 1.1514e-20)
(0.10649 0.306539 -1.49828e-20)
(0.111794 0.3526 4.88115e-21)
(0.00614563 -0.0122277 -2.85752e-21)
(0.0104016 -0.0106149 0)
(0.016634 0.00483355 -7.02778e-22)
(0.025031 0.0307134 -5.06237e-22)
(0.0355049 0.0653161 0)
(0.0473403 0.107116 1.19052e-21)
(0.0596218 0.154352 -3.58474e-21)
(0.0713477 0.204872 -7.51532e-21)
(0.0827184 0.256756 3.51962e-21)
(0.0848611 0.303755 5.87647e-21)
(0.00641364 -0.0123086 4.38279e-21)
(0.00995618 -0.0150711 1.50597e-22)
(0.0137907 -0.00649023 -1.69647e-22)
(0.0192085 0.0112911 -1.06011e-21)
(0.0262917 0.0371696 -9.09862e-22)
(0.0346016 0.0703019 -1.25234e-21)
(0.0435699 0.109694 1.104e-23)
(0.0526932 0.154034 0)
(0.0629344 0.202881 0)
(0.0615492 0.246565 -2.23866e-21)
(0.00602261 -0.0116062 -1.52521e-21)
(0.00877592 -0.0176721 2.76061e-22)
(0.0107563 -0.0150181 -5.2194e-23)
(0.0139726 -0.00453865 1.87321e-21)
(0.0185412 0.0131085 -6.80203e-22)
(0.0241783 0.0375249 9.35426e-22)
(0.030573 0.0681965 1.32024e-21)
(0.0378592 0.104531 0)
(0.047497 0.147169 0)
(0.0444541 0.183147 1.18496e-21)
(0.00488607 -0.0102398 -5.57562e-24)
(0.00677703 -0.0185937 -1.95844e-22)
(0.00745 -0.0208071 -7.40266e-23)
(0.00917834 -0.0166155 0)
(0.0119832 -0.00637956 0)
(0.0156292 0.00972406 2.39544e-21)
(0.0199783 0.0313561 0)
(0.0257089 0.058239 -3.62745e-21)
(0.0350491 0.0904797 7.73038e-22)
(0.0371693 0.114626 2.4861e-21)
(0.194349 0.42856 7.61881e-22)
(0.152307 0.413735 -7.76629e-22)
(0.115059 0.399049 -1.05858e-21)
(0.0845801 0.386967 -1.18764e-21)
(0.0530432 0.376533 -1.3249e-21)
(0.0239812 0.37018 -4.04918e-24)
(-0.00903587 0.376421 6.72624e-22)
(-0.0295443 0.417855 2.07404e-21)
(-0.0487191 0.528313 0)
(-0.00668067 0.711713 -1.42535e-21)
(0.187965 0.439362 1.74695e-21)
(0.147645 0.42471 -3.74972e-21)
(0.111491 0.408926 6.867e-21)
(0.081982 0.396519 1.18976e-21)
(0.0510313 0.38597 2.47605e-21)
(0.0222977 0.37957 3.94589e-21)
(-0.0106354 0.384913 -1.36218e-21)
(-0.0317073 0.422791 -1.37656e-21)
(-0.051353 0.525643 2.64661e-21)
(-0.00950146 0.701952 1.422e-21)
(0.179967 0.448086 0)
(0.14271 0.435163 -3.06783e-21)
(0.108252 0.418809 -2.03516e-21)
(0.0798127 0.406043 0)
(0.0494511 0.395253 -7.46881e-21)
(0.0211373 0.388746 2.41629e-21)
(-0.011659 0.393151 2.54124e-21)
(-0.0333356 0.427552 7.9174e-21)
(-0.0536312 0.522579 -2.63803e-21)
(-0.0125782 0.691131 5.50788e-21)
(0.169753 0.453011 0)
(0.137118 0.44392 3.09488e-21)
(0.105141 0.428117 0)
(0.0779386 0.415209 9.01361e-21)
(0.0482351 0.404209 -9.05813e-21)
(0.0204652 0.397657 -5.03029e-21)
(-0.0120705 0.401115 -1.11949e-22)
(-0.0343234 0.432252 -7.81904e-21)
(-0.0554024 0.519363 -1.26987e-21)
(-0.0157988 0.67953 -6.79318e-21)
(0.156741 0.45256 4.60151e-21)
(0.130732 0.451494 -4.77241e-21)
(0.102263 0.437653 1.33478e-21)
(0.0763712 0.424358 -7.77495e-21)
(0.0473626 0.412972 0)
(0.0202221 0.406343 -4.8929e-21)
(-0.0119366 0.408849 -1.00137e-22)
(-0.0346999 0.436809 1.01369e-20)
(-0.0566217 0.516058 1.28579e-21)
(-0.0190527 0.667051 -1.29058e-21)
(0.140975 0.443856 -1.03007e-20)
(0.12299 0.454747 1.03105e-20)
(0.0990794 0.445455 7.421e-21)
(0.0748331 0.432531 -7.41298e-21)
(0.0467493 0.421125 -4.32217e-21)
(0.0204155 0.414613 0)
(-0.0111788 0.416351 -9.62738e-21)
(-0.0342848 0.441383 4.83844e-21)
(-0.0570168 0.512997 4.89726e-21)
(-0.0221067 0.654353 5.12999e-21)
(0.122702 0.427577 -8.45698e-22)
(0.114588 0.457633 0)
(0.0961036 0.454248 0)
(0.0734647 0.441017 0)
(0.0463543 0.429284 -4.4764e-21)
(0.0208151 0.422642 8.78264e-21)
(-0.0101712 0.423542 9.48459e-21)
(-0.0334925 0.445735 -1.42821e-20)
(-0.056825 0.509897 2.4448e-21)
(-0.0248183 0.64084 -7.5026e-21)
(0.102893 0.39785 3.031e-21)
(0.104097 0.451182 1.07665e-20)
(0.0919624 0.458243 -1.06578e-20)
(0.0718182 0.447236 1.56563e-20)
(0.0461927 0.436268 -1.95337e-20)
(0.021789 0.42999 0)
(-0.00825086 0.430464 -4.4666e-21)
(-0.0315279 0.450237 1.17517e-22)
(-0.0553933 0.507721 -4.5581e-21)
(-0.0268833 0.628255 -4.80009e-21)
(0.0829701 0.368043 -1.87141e-21)
(0.0948462 0.450995 0)
(0.0882866 0.465777 -1.43298e-20)
(0.070164 0.455247 2.78784e-20)
(0.0458141 0.444048 -1.08431e-20)
(0.0221162 0.437229 -2.08739e-21)
(-0.00723922 0.436792 4.45715e-21)
(-0.0302465 0.454048 4.34678e-23)
(-0.0538958 0.505042 6.65417e-21)
(-0.0282022 0.614273 6.99335e-21)
(0.0618363 0.308441 -4.94145e-21)
(0.0809246 0.428596 4.78129e-21)
(0.0822647 0.462307 1.34003e-21)
(0.0683312 0.458471 0)
(0.046337 0.449381 0)
(0.0244944 0.443609 2.01171e-21)
(-0.00333714 0.443333 8.33643e-21)
(-0.0260056 0.458952 -8.18103e-21)
(-0.0502909 0.50423 -2.12227e-21)
(-0.0288376 0.603854 2.06729e-21)
(0.0253584 0.274487 0)
(0.0583242 0.430617 0)
(0.0667288 0.477961 0)
(0.0596125 0.47993 0)
(0.0406714 0.469221 0)
(0.018403 0.459204 0)
(-0.00831798 0.455142 0)
(-0.0278907 0.465304 0)
(-0.0455875 0.496855 0)
(-0.0266829 0.568551 0)
(0.00587621 0.257345 0)
(0.0328013 0.415332 0)
(0.0341368 0.466454 0)
(0.0337138 0.479019 0)
(0.0278684 0.482325 0)
(0.0196717 0.483068 0)
(0.00406465 0.484262 0)
(-0.00943171 0.49395 0)
(-0.0244185 0.514801 0)
(-0.01579 0.555665 0)
(-0.00513467 0.254446 0)
(0.0245192 0.41085 0)
(0.0241859 0.473059 0)
(0.0235386 0.489542 0)
(0.0155879 0.49028 0)
(0.00807712 0.4881 0)
(-0.00267665 0.485887 0)
(-0.00906988 0.48903 0)
(-0.0165245 0.498709 0)
(-0.0093661 0.519214 0)
(-0.0146028 0.258757 0)
(0.00705678 0.38416 0)
(0.0100326 0.453363 0)
(0.0160609 0.481112 0)
(0.0162486 0.492494 0)
(0.0169677 0.49958 0)
(0.012299 0.50578 0)
(0.00827891 0.513072 0)
(9.70382e-05 0.5219 0)
(-0.00120341 0.53459 0)
(-0.00677514 0.292721 0)
(0.00105165 0.38618 0)
(0.0132216 0.462259 0)
(0.0176784 0.487997 0)
(0.0119087 0.49072 0)
(0.00811935 0.489585 0)
(0.00310629 0.491215 0)
(0.00179551 0.496385 0)
(-0.00209027 0.503879 0)
(-0.000633585 0.513129 0)
(0.0122191 0.319452 0)
(-0.0125295 0.360974 0)
(-0.000613404 0.432507 0)
(0.0182259 0.47772 0)
(0.0247478 0.49829 0)
(0.0266269 0.508229 0)
(0.0214013 0.514854 0)
(0.0167644 0.521995 0)
(0.00787861 0.530294 0)
(0.00318833 0.538885 0)
(0.0585169 0.385646 0)
(0.0194671 0.405479 0)
(0.00463739 0.44218 0)
(0.00779103 0.469936 0)
(0.00843488 0.48343 0)
(0.00955129 0.491158 0)
(0.00567267 0.497642 0)
(0.00446494 0.505073 0)
(-0.000195713 0.512077 0)
(0.000423638 0.518262 0)
(0.0924228 0.397061 0)
(0.0510084 0.408145 0)
(0.0288497 0.436458 0)
(0.0316352 0.471388 0)
(0.0360975 0.49774 0)
(0.0390305 0.514386 0)
(0.0329753 0.524592 0)
(0.0256544 0.533434 0)
(0.0134028 0.540307 0)
(0.0047852 0.544563 0)
(0.141796 0.450966 0)
(0.109468 0.475832 0)
(0.0594977 0.469168 0)
(0.0284082 0.465671 0)
(0.014468 0.473691 0)
(0.0141576 0.489701 0)
(0.0136346 0.505802 0)
(0.0138572 0.519428 0)
(0.00890684 0.528111 0)
(0.00433516 0.531213 0)
(0.14618 0.390358 0)
(0.160994 0.480068 0)
(0.142656 0.514213 0)
(0.115321 0.519182 0)
(0.087771 0.516801 0)
(0.068265 0.520338 0)
(0.0515537 0.530454 0)
(0.0388726 0.543347 0)
(0.0239868 0.55455 0)
(0.00956937 0.561587 0)
(0.00917308 0.101643 4.37034e-21)
(0.00993223 0.138161 -4.29799e-21)
(0.0148845 0.188147 7.21671e-22)
(0.0201792 0.234238 0)
(0.0338215 0.289721 0)
(0.0540107 0.329925 5.63206e-22)
(0.084677 0.376643 -1.95871e-21)
(0.105251 0.370797 1.91738e-21)
(0.124626 0.377321 1.97752e-22)
(0.113757 0.289367 -1.91866e-22)
(0.024074 0.053272 -3.62327e-21)
(0.0273485 0.110346 0)
(0.0314284 0.178634 4.64174e-21)
(0.0363113 0.237069 -1.01351e-20)
(0.0484077 0.295565 5.90534e-21)
(0.0660723 0.333764 -5.51679e-22)
(0.0893746 0.366812 9.21709e-22)
(0.103029 0.349376 1.50051e-21)
(0.113018 0.340192 6.92457e-23)
(0.100706 0.248093 -7.51246e-23)
(0.040869 0.0373073 4.69032e-21)
(0.0477614 0.111731 -5.31711e-21)
(0.0504302 0.188815 5.26629e-21)
(0.0527481 0.250677 -4.36447e-21)
(0.0613489 0.304073 3.23962e-21)
(0.0747234 0.333061 0)
(0.09025 0.349691 -9.23838e-22)
(0.0972713 0.320328 -6.8986e-23)
(0.0993876 0.298422 -6.03101e-22)
(0.0870453 0.206243 -1.05562e-22)
(0.0633729 0.0524528 -1.00719e-21)
(0.0715823 0.136271 0)
(0.0697257 0.211735 0)
(0.0678663 0.267678 0)
(0.0715673 0.309061 2.51551e-21)
(0.0793787 0.324389 -1.70128e-21)
(0.0870822 0.324379 6.11201e-24)
(0.0880503 0.284695 -6.3691e-22)
(0.0842297 0.253417 -1.57956e-22)
(0.0732894 0.164491 8.67618e-23)
(0.0908339 0.0902374 1.67099e-21)
(0.0953453 0.171978 -3.28298e-21)
(0.0866305 0.236904 -1.79678e-21)
(0.0792998 0.279872 1.79545e-21)
(0.077387 0.305387 -8.02439e-22)
(0.0792767 0.305813 0)
(0.079958 0.291002 -7.49849e-22)
(0.0759962 0.243728 1.22697e-21)
(0.0684036 0.206713 -5.69751e-22)
(0.0599863 0.123896 7.05971e-23)
(0.120427 0.1368 -6.25575e-21)
(0.115612 0.206047 1.01583e-21)
(0.0989314 0.254695 3.51937e-22)
(0.0857789 0.281256 1.38686e-21)
(0.0783868 0.290354 0)
(0.0747486 0.27719 0)
(0.0696619 0.250705 0)
(0.0621474 0.19912 5.20076e-22)
(0.0527988 0.159952 0)
(0.0475819 0.0855301 0)
(0.147832 0.179254 0)
(0.130154 0.229267 1.86387e-21)
(0.10566 0.259211 -1.26758e-21)
(0.0872295 0.269247 -8.24508e-22)
(0.0750428 0.263801 8.28713e-22)
(0.0666612 0.239836 4.86369e-22)
(0.0572149 0.20535 -4.59822e-22)
(0.0475877 0.152819 -1.70941e-21)
(0.0381986 0.114733 1.72053e-22)
(0.0364942 0.0503423 2.71826e-23)
(0.168681 0.209065 0)
(0.138036 0.237112 -5.97491e-22)
(0.106961 0.248664 -8.99887e-23)
(0.0843257 0.244259 0)
(0.0682621 0.227392 2.0356e-22)
(0.0560876 0.19596 -4.43315e-22)
(0.043709 0.157166 6.83981e-22)
(0.033351 0.106806 2.42075e-22)
(0.0252091 0.072444 -1.83997e-22)
(0.0270482 0.0190711 3.24358e-23)
(0.180535 0.221866 2.99653e-22)
(0.139533 0.228811 1.32293e-22)
(0.103757 0.224291 -5.23722e-23)
(0.0781194 0.208601 -9.28723e-24)
(0.0591194 0.183753 9.51068e-23)
(0.0441537 0.148147 1.87249e-22)
(0.0302089 0.108451 -7.47006e-23)
(0.0203491 0.0629183 -8.17623e-23)
(0.0142024 0.0341137 1.84598e-22)
(0.0185245 -0.00784992 7.70219e-24)
(0.183474 0.217017 -7.67016e-24)
(0.135749 0.20626 7.81636e-24)
(0.0973314 0.189064 8.5856e-24)
(0.0697541 0.165429 9.27277e-24)
(0.0486874 0.13581 1.54977e-23)
(0.031938 0.098997 -6.0588e-23)
(0.0176552 0.0613514 1.09328e-22)
(0.00930167 0.0226827 4.69275e-23)
(0.00548883 0.000479526 0)
(0.012801 -0.0305105 -7.71593e-24)
(0.179332 0.196993 -3.96347e-23)
(0.128161 0.172956 4.03577e-23)
(0.0889543 0.146609 9.08257e-23)
(0.0602835 0.118023 7.49838e-23)
(0.0379422 0.0863816 8.49439e-24)
(0.0203999 0.0508995 -1.06813e-23)
(0.00677507 0.0176758 1.26414e-23)
(0.000601246 -0.0128474 8.28158e-23)
(-0.000720165 -0.0281914 0)
(0.00844918 -0.049594 -1.19476e-23)
(0.170447 0.165926 0)
(0.118249 0.132803 4.16767e-22)
(0.0796742 0.100427 -7.46015e-22)
(0.0505868 0.0693556 -7.50923e-23)
(0.0277056 0.0379417 -1.14371e-22)
(0.0102651 0.00586102 -2.4824e-23)
(-0.00194606 -0.0212347 -3.95757e-23)
(-0.00569526 -0.043176 -5.5563e-23)
(-0.0045988 -0.0521076 1.02261e-22)
(0.00528121 -0.0658503 1.19164e-23)
(0.158787 0.127964 0)
(0.107282 0.0893022 5.44005e-22)
(0.0702624 0.0535176 2.35779e-22)
(0.0413626 0.0218875 0)
(0.0185529 -0.00748914 2.84887e-22)
(0.00185172 -0.0346353 -1.44585e-22)
(-0.00824587 -0.0546722 1.86275e-25)
(-0.0097145 -0.0684018 2.04334e-22)
(-0.00666659 -0.0719269 -1.01927e-22)
(0.00317086 -0.0800201 4.86286e-23)
(0.145606 0.0865366 0)
(0.0963353 0.0452799 -5.48478e-22)
(0.0612391 0.00824962 0)
(0.0330393 -0.0224823 -7.81827e-22)
(0.0109447 -0.0484071 7.85914e-22)
(-0.00428647 -0.0697347 4.0833e-23)
(-0.0121341 -0.0825766 -1.00877e-22)
(-0.0117479 -0.0890869 -1.86664e-22)
(-0.00744164 -0.0885542 -4.57928e-23)
(0.00184583 -0.0927921 -7.38417e-23)
(0.131652 0.0443949 -2.53432e-21)
(0.0861187 0.00284244 1.13935e-21)
(0.0530429 -0.0335905 9.2472e-23)
(0.0259831 -0.0625007 1.09663e-21)
(0.00520861 -0.0840318 0)
(-0.00806123 -0.0991728 6.90331e-23)
(-0.0139419 -0.105305 -1.24414e-22)
(-0.0122566 -0.106125 1.68697e-22)
(-0.00738239 -0.102945 2.17748e-23)
(0.00104006 -0.104747 -2.17696e-23)
(0.117915 0.00391253 9.79531e-22)
(0.0769648 -0.036504 -2.17996e-21)
(0.0460653 -0.0707825 -1.10256e-21)
(0.0204749 -0.0973855 1.10201e-21)
(0.00131481 -0.114013 3.4653e-22)
(-0.00998354 -0.123251 0)
(-0.0141238 -0.123735 -1.24986e-23)
(-0.0117417 -0.120546 7.25817e-24)
(-0.00686189 -0.115952 9.26674e-23)
(0.000557411 -0.116329 3.67366e-23)
(0.10516 -0.0331554 8.63735e-23)
(0.0690655 -0.0720409 0)
(0.0404496 -0.102738 0)
(0.0164674 -0.126887 0)
(-0.0010553 -0.138547 1.75912e-22)
(-0.0103532 -0.142708 -5.22169e-22)
(-0.013176 -0.138935 -5.29478e-24)
(-0.0106484 -0.13333 -1.31607e-22)
(-0.00614467 -0.128245 3.10014e-23)
(0.000270041 -0.12785 -6.70498e-23)
(0.0936977 -0.0653718 -1.68665e-22)
(0.0626936 -0.103715 -2.02124e-21)
(0.0363237 -0.129304 2.00268e-21)
(0.0138832 -0.151172 -1.66297e-21)
(-0.00176264 -0.158247 1.98542e-21)
(-0.00959305 -0.158569 0)
(-0.0115677 -0.15198 4.52185e-23)
(-0.00931491 -0.14528 1.4014e-23)
(-0.00539166 -0.140282 -6.70483e-23)
(0.000103288 -0.139506 -2.77505e-23)
(0.0830756 -0.091523 -3.09492e-23)
(0.0574765 -0.132012 0)
(0.0336727 -0.150759 2.15803e-21)
(0.0126565 -0.170879 -3.4789e-21)
(-0.00137023 -0.173932 1.2191e-21)
(-0.00814583 -0.171759 8.87619e-23)
(-0.00965773 -0.163797 -4.51156e-23)
(-0.0079535 -0.156964 -9.50546e-24)
(-0.00468271 -0.152343 8.91296e-23)
(2.04756e-05 -0.151415 4.84373e-23)
(0.0743787 -0.110253 1.0606e-22)
(0.0522317 -0.157749 -1.03165e-22)
(0.0315697 -0.16786 -2.44559e-22)
(0.0118628 -0.18669 0)
(-0.000207505 -0.186494 0)
(-0.00635429 -0.1833 -9.11835e-23)
(-0.00770464 -0.175055 -3.6775e-23)
(-0.00666722 -0.168716 3.61092e-23)
(-0.004008 -0.164572 -1.80537e-23)
(1.0167e-05 -0.163643 1.76747e-23)
(0.0726941 -0.13435 0)
(0.0408273 -0.211768 0)
(0.0254242 -0.200249 0)
(0.00744234 -0.217454 0)
(0.00170997 -0.211131 0)
(-0.00320482 -0.208374 0)
(-0.00371073 -0.201808 0)
(-0.0039484 -0.197644 0)
(-0.00232616 -0.194475 0)
(0.000119457 -0.193498 0)
(0.0344745 -0.238575 0)
(0.0239982 -0.276235 0)
(0.0254356 -0.255532 0)
(0.00609477 -0.270127 0)
(0.00760315 -0.256614 0)
(4.26051e-05 -0.260571 0)
(0.00102854 -0.25335 0)
(-0.000962056 -0.253146 0)
(-8.11031e-05 -0.249615 0)
(9.33546e-05 -0.249516 0)
(0.0425755 -0.282366 0)
(0.0270572 -0.313334 0)
(0.0214756 -0.303475 0)
(0.00847746 -0.316297 0)
(0.00929672 -0.304908 0)
(0.00216724 -0.311472 0)
(0.00458118 -0.303568 0)
(0.000248524 -0.30702 0)
(0.00152438 -0.302259 0)
(-9.54763e-05 -0.303606 0)
(0.0286439 -0.341326 0)
(0.0186112 -0.372372 0)
(0.0181734 -0.355279 0)
(0.0102101 -0.369394 0)
(0.00876083 -0.358193 0)
(0.00434532 -0.366221 0)
(0.00494994 -0.359349 0)
(0.00115533 -0.363736 0)
(0.00274369 -0.358185 0)
(-0.000580838 -0.361046 0)
(0.0261052 -0.401915 0)
(0.0189823 -0.432729 0)
(0.0160313 -0.414403 0)
(0.00953593 -0.432979 0)
(0.00824533 -0.41967 0)
(0.0051107 -0.431469 0)
(0.00468003 -0.423118 0)
(0.00221403 -0.428411 0)
(0.0024191 -0.42289 0)
(-0.000569763 -0.426187 0)
(0.0211666 -0.475139 0)
(0.0150463 -0.506769 0)
(0.0132867 -0.487281 0)
(0.00840515 -0.507478 0)
(0.00744884 -0.493522 0)
(0.0045768 -0.507613 0)
(0.00454844 -0.496948 0)
(0.00260448 -0.504832 0)
(0.00242787 -0.496635 0)
(-6.44007e-05 -0.50138 0)
(0.0161869 -0.568341 0)
(0.0119583 -0.599615 0)
(0.0102248 -0.579185 0)
(0.00690039 -0.601193 0)
(0.00633792 -0.586351 0)
(0.00450946 -0.601714 0)
(0.00436619 -0.590172 0)
(0.00291838 -0.599707 0)
(0.00208434 -0.589704 0)
(-3.79868e-06 -0.597423 0)
(0.0126521 -0.689927 0)
(0.00924117 -0.7179 0)
(0.00762776 -0.700101 0)
(0.00514665 -0.72087 0)
(0.00478763 -0.707794 0)
(0.00330755 -0.723561 0)
(0.00299391 -0.712448 0)
(0.00139561 -0.722691 0)
(0.000928626 -0.713181 0)
(-0.000230319 -0.722286 0)
(0.00687556 -0.828652 0)
(0.00468365 -0.845606 0)
(0.0037231 -0.837063 0)
(0.00239519 -0.851224 0)
(0.00235246 -0.844147 0)
(0.00133771 -0.85468 0)
(0.000904339 -0.847148 0)
(-0.000255186 -0.854004 0)
(-0.000259547 -0.84742 0)
(-0.000423928 -0.854405 0)
(0.0013978 -0.924012 0)
(0.000985609 -0.932606 0)
(0.000792103 -0.931869 0)
(0.00053495 -0.93816 0)
(0.000568574 -0.936239 0)
(0.000274281 -0.94017 0)
(-3.13203e-05 -0.936548 0)
(-0.000464254 -0.938842 0)
(-0.000370194 -0.935314 0)
(-0.000208403 -0.938356 0)
(0.0615154 -0.165314 3.19063e-21)
(0.0354925 -0.257316 -3.15897e-21)
(0.0451172 -0.299099 5.20894e-22)
(0.0289506 -0.359751 0)
(0.028515 -0.420254 0)
(0.0225632 -0.494135 7.33441e-22)
(0.0178692 -0.586991 -3.3711e-21)
(0.0134138 -0.704147 3.36301e-21)
(0.00805423 -0.835816 9.9128e-22)
(0.00242355 -0.92278 -9.86279e-22)
(0.0576097 -0.174124 -4.06199e-21)
(0.0362055 -0.263726 0)
(0.0458075 -0.304255 3.70466e-21)
(0.0292126 -0.365151 -8.78368e-21)
(0.029543 -0.425547 5.91079e-21)
(0.0231803 -0.499864 -6.61457e-22)
(0.0186403 -0.592469 1.60495e-21)
(0.0137914 -0.70845 3.51876e-21)
(0.00857938 -0.836933 1.06641e-21)
(0.00287612 -0.922466 1.07187e-21)
(0.0546708 -0.183208 5.56161e-21)
(0.0371326 -0.271573 -4.22414e-21)
(0.0465595 -0.309634 4.18443e-21)
(0.0298418 -0.369945 -5.08508e-21)
(0.0307324 -0.430105 3.74037e-21)
(0.0239193 -0.504512 0)
(0.0194931 -0.596738 -1.60896e-21)
(0.0143269 -0.711745 1.45833e-22)
(0.00898366 -0.836944 -1.88119e-21)
(0.00309703 -0.921842 -2.0254e-21)
(0.0524345 -0.192387 -9.3697e-22)
(0.0382464 -0.279638 0)
(0.0475627 -0.314996 0)
(0.0309096 -0.374587 0)
(0.0321404 -0.434676 4.61002e-21)
(0.0248539 -0.508838 -3.08326e-21)
(0.0204751 -0.600625 -3.52161e-23)
(0.0150254 -0.714577 -2.11294e-21)
(0.00935214 -0.836971 -1.10736e-21)
(0.00317045 -0.920602 -1.22143e-21)
(0.050847 -0.200828 -1.39301e-22)
(0.039549 -0.28664 -3.15801e-21)
(0.0488166 -0.319504 -2.51463e-21)
(0.0323726 -0.378568 2.51303e-21)
(0.0337467 -0.43886 -1.50631e-21)
(0.0259993 -0.512729 0)
(0.0216048 -0.6041 -1.89604e-21)
(0.015856 -0.717023 4.35872e-21)
(0.00979018 -0.837125 -2.26061e-21)
(0.00323121 -0.918977 2.35661e-21)
(0.0499651 -0.208315 -9.16659e-21)
(0.041115 -0.292392 9.62188e-22)
(0.0503264 -0.322834 -2.46094e-22)
(0.034195 -0.38146 2.66531e-21)
(0.0355165 -0.442147 0)
(0.0273412 -0.515789 0)
(0.0228754 -0.606822 0)
(0.0167911 -0.71886 2.38462e-21)
(0.0103482 -0.837091 0)
(0.00335809 -0.917163 0)
(0.049798 -0.214725 0)
(0.0430359 -0.297125 3.75074e-21)
(0.0521561 -0.3251 -2.53339e-21)
(0.036392 -0.383185 -3.24685e-21)
(0.0374529 -0.444334 3.26379e-21)
(0.0288791 -0.517771 2.09334e-21)
(0.0242817 -0.608542 -2.06672e-21)
(0.017816 -0.719893 -8.57559e-21)
(0.0110146 -0.836625 6.05099e-22)
(0.00355316 -0.915242 -2.21974e-21)
(0.0503262 -0.219799 0)
(0.0453752 -0.300956 -1.22047e-21)
(0.0543829 -0.326418 -7.20544e-22)
(0.0390002 -0.383799 0)
(0.0395949 -0.445406 1.01193e-21)
(0.0306382 -0.518608 -3.07257e-21)
(0.0258374 -0.609159 3.55413e-21)
(0.0189426 -0.719988 1.29451e-21)
(0.0117801 -0.835538 -1.47382e-21)
(0.00381033 -0.913112 2.9296e-21)
(0.0515624 -0.223229 1.23786e-21)
(0.0481786 -0.303872 1.37651e-21)
(0.0570689 -0.326763 -2.89483e-22)
(0.0420447 -0.38333 4.37997e-22)
(0.0419901 -0.445365 9.61003e-22)
(0.0326484 -0.518329 1.66112e-21)
(0.0275655 -0.608694 -6.54914e-22)
(0.0201854 -0.719193 -7.22597e-22)
(0.0126232 -0.833878 1.4787e-21)
(0.00410146 -0.910758 8.29617e-22)
(0.0535708 -0.224688 -3.12683e-22)
(0.0514959 -0.305844 3.15277e-22)
(0.0602701 -0.32602 -3.79939e-22)
(0.0455316 -0.381768 -4.37467e-22)
(0.0446861 -0.444133 5.58385e-22)
(0.03494 -0.51693 -1.14079e-21)
(0.0294934 -0.607118 1.00896e-21)
(0.0215774 -0.717453 3.66514e-22)
(0.0135737 -0.831556 0)
(0.00444659 -0.90806 -8.3143e-22)
(0.056458 -0.223825 3.18405e-22)
(0.0553927 -0.3069 -3.21192e-22)
(0.0640459 -0.32409 -4.27596e-22)
(0.0494541 -0.379147 -4.89756e-22)
(0.0477236 -0.441662 -5.93353e-22)
(0.0375186 -0.514443 -5.33359e-23)
(0.031639 -0.604479 3.65096e-22)
(0.02312 -0.714918 1.19546e-21)
(0.0146101 -0.82876 0)
(0.00481713 -0.905137 -9.36913e-22)
(0.06039 -0.220303 0)
(0.0599336 -0.307052 -1.56971e-21)
(0.0684694 -0.320992 2.91996e-21)
(0.053792 -0.375474 4.90621e-22)
(0.0511632 -0.437852 1.22425e-21)
(0.0404095 -0.510785 2.0355e-21)
(0.034025 -0.600695 -7.40868e-22)
(0.0248525 -0.711379 -8.15413e-22)
(0.0157989 -0.825253 1.88068e-21)
(0.00526329 -0.901824 9.34684e-22)
(0.0656592 -0.213888 0)
(0.0651675 -0.306157 -1.42009e-21)
(0.0736317 -0.316884 -9.12945e-22)
(0.0585488 -0.370735 0)
(0.0550307 -0.432905 -3.90326e-21)
(0.0435857 -0.505984 1.31125e-21)
(0.0366565 -0.595969 1.63891e-21)
(0.0267419 -0.707117 5.36423e-21)
(0.0170623 -0.8214 -1.8746e-21)
(0.00571777 -0.898375 4.18438e-21)
(0.0728125 -0.204486 0)
(0.0711416 -0.303802 1.43235e-21)
(0.079594 -0.31218 0)
(0.0637045 -0.364756 4.90303e-21)
(0.0594178 -0.426735 -4.92819e-21)
(0.0471211 -0.499801 -3.21291e-21)
(0.0395642 -0.589986 -9.77019e-23)
(0.0288871 -0.701614 -5.56546e-21)
(0.0185213 -0.816653 -9.21605e-22)
(0.00627794 -0.894425 -5.20257e-21)
(0.082761 -0.192186 1.00309e-20)
(0.077878 -0.299512 -3.33489e-21)
(0.0864263 -0.307048 8.93357e-22)
(0.069374 -0.357546 -4.482e-21)
(0.064273 -0.419436 0)
(0.0509765 -0.492744 -3.40115e-21)
(0.0426887 -0.583314 -3.72449e-22)
(0.0311588 -0.695751 7.64444e-21)
(0.0199925 -0.811831 1.09479e-21)
(0.00679959 -0.890477 -1.09869e-21)
(0.0965795 -0.177021 -9.01681e-22)
(0.0855067 -0.292791 7.00079e-21)
(0.0941009 -0.301052 4.7246e-21)
(0.075662 -0.349223 -4.72133e-21)
(0.0696242 -0.410801 -3.06116e-21)
(0.0552571 -0.484321 0)
(0.0461855 -0.575043 -7.89716e-21)
(0.0338027 -0.688198 3.93685e-21)
(0.0217638 -0.805714 4.33329e-21)
(0.00749087 -0.885773 4.83396e-21)
(0.114753 -0.159388 -1.22837e-21)
(0.0941217 -0.283528 0)
(0.10243 -0.294504 0)
(0.0825104 -0.340422 0)
(0.0753665 -0.401666 -3.64577e-21)
(0.0597855 -0.475688 6.69512e-21)
(0.0498232 -0.566931 8.10172e-21)
(0.0364371 -0.681201 -1.29422e-20)
(0.0234159 -0.800149 2.40967e-21)
(0.00804429 -0.881377 -7.17459e-21)
(0.136025 -0.140293 -2.3363e-21)
(0.10377 -0.269961 8.14723e-21)
(0.111429 -0.286392 -8.06799e-21)
(0.0901312 -0.330165 1.22716e-20)
(0.0817855 -0.390618 -1.55393e-20)
(0.0649895 -0.464632 0)
(0.0540716 -0.555995 -4.30017e-21)
(0.0397272 -0.671187 -2.38251e-22)
(0.0256011 -0.792386 -5.066e-21)
(0.00891429 -0.875715 -5.25848e-21)
(0.15682 -0.120067 -1.26582e-21)
(0.11377 -0.255141 0)
(0.120061 -0.280055 -1.23201e-20)
(0.098017 -0.321335 2.3822e-20)
(0.0881729 -0.381493 -9.34486e-21)
(0.0700289 -0.455945 -1.99791e-21)
(0.0580687 -0.548014 4.29109e-21)
(0.0425939 -0.664216 -3.27226e-22)
(0.0273578 -0.786635 7.31454e-21)
(0.00942119 -0.871049 7.77529e-21)
(0.171526 -0.0963074 -6.16717e-21)
(0.126439 -0.22908 5.90095e-21)
(0.130609 -0.267447 1.27233e-21)
(0.107699 -0.307472 0)
(0.09633 -0.366262 0)
(0.0767175 -0.440555 1.92737e-21)
(0.0634691 -0.53299 9.17185e-21)
(0.0468792 -0.650671 -8.8862e-21)
(0.0301771 -0.776705 -2.53854e-21)
(0.0106007 -0.86406 2.47651e-21)
(0.177419 -0.0674313 0)
(0.163948 -0.216258 0)
(0.150192 -0.269223 0)
(0.129275 -0.301356 0)
(0.110988 -0.359913 0)
(0.0884885 -0.432206 0)
(0.0727952 -0.524111 0)
(0.0535575 -0.640142 0)
(0.0342988 -0.764812 0)
(0.011293 -0.852856 0)
(0.228981 -0.0579848 0)
(0.228286 -0.190715 0)
(0.174362 -0.250334 0)
(0.169422 -0.279798 0)
(0.138996 -0.337667 0)
(0.111534 -0.415493 0)
(0.0934545 -0.508353 0)
(0.0698404 -0.622337 0)
(0.0450991 -0.742128 0)
(0.0168392 -0.822237 0)
(0.287386 -0.0213023 0)
(0.27777 -0.148685 0)
(0.206764 -0.217999 0)
(0.203679 -0.253551 0)
(0.171615 -0.303583 0)
(0.140678 -0.387739 0)
(0.11722 -0.481945 0)
(0.0887259 -0.591612 0)
(0.0560354 -0.709354 0)
(0.0170819 -0.791585 0)
(0.353276 0.0155998 0)
(0.332964 -0.100525 0)
(0.257232 -0.180775 0)
(0.241378 -0.231714 0)
(0.212526 -0.277131 0)
(0.182327 -0.364178 0)
(0.150483 -0.460724 0)
(0.117091 -0.564586 0)
(0.075832 -0.672492 0)
(0.02898 -0.743206 0)
(0.420988 0.049542 0)
(0.400667 -0.0487435 0)
(0.32928 -0.13192 0)
(0.295449 -0.197272 0)
(0.263292 -0.244671 0)
(0.2317 -0.326494 0)
(0.189404 -0.418658 0)
(0.145818 -0.517759 0)
(0.0912688 -0.619097 0)
(0.0282475 -0.689445 0)
(0.48481 0.0646889 0)
(0.474607 -0.0115913 0)
(0.419182 -0.0880259 0)
(0.376136 -0.163484 0)
(0.335562 -0.221922 0)
(0.297529 -0.300347 0)
(0.246774 -0.384401 0)
(0.191709 -0.474134 0)
(0.122641 -0.560514 0)
(0.0462392 -0.616063 0)
(0.531669 0.0678953 0)
(0.539666 0.0186094 0)
(0.508365 -0.0383989 0)
(0.467869 -0.108032 0)
(0.418367 -0.169506 0)
(0.36662 -0.241684 0)
(0.302011 -0.314936 0)
(0.229229 -0.392309 0)
(0.142491 -0.467402 0)
(0.0409946 -0.525748 0)
(0.56459 0.0353043 0)
(0.589202 0.00831982 0)
(0.582022 -0.0272608 0)
(0.560373 -0.0785551 0)
(0.513709 -0.132841 0)
(0.455726 -0.195719 0)
(0.378217 -0.258425 0)
(0.287178 -0.320652 0)
(0.18433 -0.378321 0)
(0.0746989 -0.409908 0)
(0.58132 0.0193517 0)
(0.611399 0.00918961 0)
(0.606701 -0.00558371 0)
(0.600152 -0.0301216 0)
(0.554185 -0.0608927 0)
(0.497595 -0.0981794 0)
(0.406096 -0.137185 0)
(0.298202 -0.177336 0)
(0.172022 -0.223693 0)
(0.0242081 -0.282464 0)
(0.798368 -0.0116587 0)
(0.806692 -0.017886 0)
(0.792639 -0.0247823 0)
(0.775883 -0.0341811 0)
(0.729049 -0.0449221 0)
(0.668736 -0.0581811 0)
(0.573205 -0.0739126 0)
(0.456933 -0.0944598 0)
(0.310061 -0.125378 0)
(0.183028 -0.179515 0)
(0.219156 -0.0014151 8.88238e-21)
(0.282572 0.0224763 -8.74164e-21)
(0.343797 0.0537062 1.8331e-21)
(0.401301 0.0766744 0)
(0.453374 0.0928471 0)
(0.498071 0.0910985 3.56992e-21)
(0.528283 0.0790262 -1.72233e-20)
(0.54887 0.0393018 1.69405e-20)
(0.575242 0.0200735 4.77439e-21)
(0.799404 -0.00964336 -4.82153e-21)
(0.232228 0.0246614 -9.47846e-21)
(0.296055 0.0538545 0)
(0.355896 0.0809559 1.41945e-20)
(0.409673 0.0981748 -3.55992e-20)
(0.456364 0.107587 2.53886e-20)
(0.494983 0.0994539 -3.22169e-21)
(0.52114 0.0821121 7.57228e-21)
(0.539244 0.0403129 1.6758e-20)
(0.571496 0.0201527 4.58841e-21)
(0.79874 -0.0087681 4.43977e-21)
(0.243851 0.0515036 1.21469e-20)
(0.308381 0.0846627 -1.33879e-20)
(0.363713 0.105928 1.3261e-20)
(0.412471 0.117043 -2.13315e-20)
(0.453832 0.119718 1.54991e-20)
(0.487285 0.105443 0)
(0.510167 0.0835124 -7.59119e-21)
(0.528018 0.0403574 1.19511e-22)
(0.567097 0.0198644 -8.69088e-21)
(0.797698 -0.0078988 -8.87345e-21)
(0.255109 0.0781421 -2.11264e-21)
(0.322034 0.11357 0)
(0.372112 0.128156 0)
(0.415561 0.133141 0)
(0.451604 0.129306 1.95118e-20)
(0.480201 0.109436 -1.32274e-20)
(0.49959 0.0836309 -2.78214e-22)
(0.517574 0.0397024 -8.91455e-21)
(0.563035 0.019302 -4.47671e-21)
(0.797039 -0.00707225 -4.56464e-21)
(0.266039 0.103805 2.04855e-21)
(0.334358 0.139393 -8.17107e-21)
(0.379048 0.147078 -9.47304e-21)
(0.417775 0.14629 9.46822e-21)
(0.449047 0.136448 -6.20032e-21)
(0.473403 0.111779 0)
(0.489732 0.0829075 -8.01362e-21)
(0.507969 0.0387008 1.74975e-20)
(0.559347 0.018588 -8.82714e-21)
(0.796655 -0.00631319 9.12895e-21)
(0.276591 0.127994 -2.33147e-20)
(0.343843 0.161549 1.21445e-21)
(0.382585 0.162443 -1.86403e-21)
(0.417217 0.156421 9.9276e-21)
(0.444446 0.141268 0)
(0.465418 0.112706 0)
(0.479644 0.0816036 0)
(0.498589 0.0375642 8.83332e-21)
(0.555705 0.0177947 0)
(0.796232 -0.00563323 0)
(0.286417 0.150208 0)
(0.350336 0.179881 1.24818e-20)
(0.382653 0.174404 -8.54861e-21)
(0.41361 0.163729 -1.23679e-20)
(0.437372 0.14404 1.24336e-20)
(0.455745 0.112468 7.94056e-21)
(0.468794 0.0798786 -7.77692e-21)
(0.489044 0.0363775 -3.09275e-20)
(0.551843 0.016954 2.21878e-21)
(0.795561 -0.00503301 -7.0045e-21)
(0.294946 0.169984 0)
(0.35392 0.194449 -3.94539e-21)
(0.379926 0.183329 -2.54131e-21)
(0.407625 0.168602 0)
(0.428393 0.145166 3.80359e-21)
(0.444784 0.111374 -1.12777e-20)
(0.457308 0.0778865 1.27316e-20)
(0.4793 0.0351852 4.58326e-21)
(0.54766 0.0160873 -4.62194e-21)
(0.794581 -0.00450642 9.37338e-21)
(0.301628 0.187046 3.30417e-21)
(0.354642 0.205493 4.74501e-21)
(0.37499 0.189661 -9.21621e-22)
(0.399931 0.171492 1.57221e-21)
(0.418204 0.145081 3.49421e-21)
(0.433112 0.109746 5.91914e-21)
(0.445542 0.0757879 -2.15463e-21)
(0.469468 0.034035 -2.2788e-21)
(0.54314 0.0152199 4.63719e-21)
(0.793328 -0.00404368 2.3677e-21)
(0.30605 0.201371 -1.04171e-21)