/*--------------------------------*- C++ -*----------------------------------*\
  =========                 |
  \\      /  F ield         | OpenFOAM: The Open Source CFD Toolbox
   \\    /   O peration     | Website:  https://openfoam.org
    \\  /    A nd           | Version:  7
     \\/     M anipulation  |
\*---------------------------------------------------------------------------*/
FoamFile
{
    version     2.0;
    format      ascii;
    class       volScalarField;
    location    "4.9";
    object      p;
}
// * * * * * * * * * * * * * * * * * * * * * * * * * * * * * * * * * * * * * //

dimensions      [0 2 -2 0 0 0 0];

internalField   nonuniform List<scalar> 
18000
(
0.874817
0.874186
0.87412
0.874168
0.874432
0.874936
0.875712
0.876785
0.878164
0.879843
0.881814
0.884072
0.886609
0.889408
0.89244
0.895671
0.899061
0.902576
0.906179
0.909839
0.913525
0.917205
0.920845
0.924418
0.927905
0.931292
0.934572
0.937751
0.940819
0.943648
0.873442
0.872787
0.872723
0.872777
0.873048
0.87355
0.874316
0.87537
0.876711
0.87833
0.880214
0.882362
0.884763
0.887402
0.890252
0.893282
0.896454
0.899735
0.903095
0.906505
0.909938
0.913363
0.916749
0.920072
0.923313
0.926462
0.929512
0.93247
0.935325
0.937973
0.871989
0.871324
0.871262
0.871328
0.871615
0.872126
0.872891
0.873932
0.875237
0.876793
0.878592
0.880628
0.882891
0.885366
0.888029
0.89085
0.893795
0.896834
0.899941
0.90309
0.906257
0.909413
0.912533
0.915594
0.918579
0.921481
0.924293
0.927023
0.929659
0.932117
0.870453
0.869776
0.869729
0.869816
0.870127
0.870661
0.871435
0.872464
0.873734
0.87523
0.876944
0.878867
0.88099
0.883297
0.885767
0.888371
0.89108
0.89387
0.896714
0.89959
0.902477
0.905353
0.908195
0.910983
0.913703
0.916347
0.918913
0.921408
0.92382
0.92608
0.868854
0.868181
0.868151
0.868263
0.868603
0.869164
0.86995
0.870968
0.872203
0.87364
0.875268
0.877077
0.879056
0.88119
0.88346
0.885841
0.888309
0.890841
0.893412
0.896003
0.898599
0.901183
0.903736
0.906241
0.908686
0.911065
0.913377
0.915631
0.917812
0.919867
0.867175
0.866517
0.866512
0.866658
0.867032
0.867623
0.868424
0.869433
0.870635
0.872016
0.87356
0.875254
0.877085
0.879043
0.881109
0.883263
0.885483
0.887748
0.890035
0.892331
0.894625
0.896907
0.899161
0.901373
0.903534
0.905641
0.907693
0.9097
0.911647
0.91349
0.865427
0.8648
0.864824
0.86501
0.865422
0.866044
0.86686
0.867862
0.869035
0.870361
0.87182
0.873396
0.875079
0.876857
0.878716
0.880639
0.882606
0.884595
0.886589
0.88858
0.890563
0.892533
0.894478
0.896388
0.898257
0.900085
0.901872
0.903628
0.905341
0.906968
0.863611
0.863028
0.863086
0.863316
0.86377
0.864422
0.865255
0.866253
0.867399
0.868672
0.870045
0.871503
0.873034
0.874632
0.876284
0.877973
0.87968
0.881386
0.88308
0.884759
0.886424
0.888073
0.8897
0.8913
0.892871
0.894413
0.895931
0.897436
0.898918
0.900326
0.861729
0.861204
0.861299
0.861576
0.862071
0.862756
0.863607
0.864604
0.865727
0.866946
0.868233
0.869571
0.870952
0.872371
0.873815
0.875268
0.876711
0.878129
0.879518
0.88088
0.88222
0.883542
0.884845
0.88613
0.887396
0.888649
0.889894
0.891149
0.892405
0.893597
0.859786
0.859329
0.859463
0.859787
0.860326
0.861045
0.861916
0.862915
0.864015
0.865181
0.866381
0.867601
0.868835
0.870076
0.871313
0.872528
0.873705
0.874833
0.875915
0.876957
0.87797
0.878962
0.879938
0.880902
0.88186
0.882821
0.883795
0.884801
0.88584
0.886818
0.857787
0.857406
0.857579
0.857951
0.858534
0.859289
0.860182
0.861185
0.862263
0.863375
0.864492
0.865596
0.866685
0.867752
0.868783
0.869761
0.870672
0.871512
0.872287
0.87301
0.873695
0.874357
0.875004
0.875647
0.876296
0.876966
0.87767
0.878432
0.879262
0.880035
0.855736
0.855438
0.855651
0.85607
0.856698
0.857488
0.858406
0.859414
0.86047
0.861531
0.862566
0.86356
0.864508
0.865403
0.866231
0.866976
0.867626
0.868181
0.868653
0.86906
0.869422
0.869756
0.870077
0.8704
0.870743
0.871124
0.871562
0.872086
0.872717
0.873295
0.85364
0.853427
0.853681
0.854147
0.854818
0.855647
0.85659
0.857604
0.85864
0.859652
0.860609
0.861496
0.862307
0.863035
0.863666
0.864183
0.86458
0.864858
0.865034
0.865131
0.865175
0.865188
0.865189
0.865199
0.865241
0.865341
0.865519
0.86581
0.866251
0.866648
0.851504
0.851378
0.851671
0.852184
0.852899
0.853766
0.854736
0.855757
0.856773
0.85774
0.858624
0.859409
0.860089
0.860656
0.861096
0.861395
0.861547
0.861557
0.861447
0.861245
0.860982
0.860685
0.860376
0.860083
0.859835
0.859662
0.859589
0.859654
0.859914
0.860144
0.849332
0.849292
0.849625
0.850183
0.850943
0.851849
0.852847
0.853874
0.854875
0.855799
0.856614
0.857303
0.857859
0.858272
0.858531
0.858621
0.85854
0.858295
0.857912
0.857425
0.856869
0.856276
0.855673
0.855091
0.854565
0.854131
0.853816
0.853664
0.853751
0.853831
0.847128
0.847172
0.847543
0.848146
0.848951
0.849897
0.850922
0.851959
0.852946
0.853832
0.854584
0.855183
0.855622
0.855891
0.855979
0.855872
0.85557
0.855084
0.854444
0.853689
0.852859
0.851987
0.851107
0.850254
0.849467
0.848786
0.848244
0.847884
0.847805
0.847749
0.844896
0.845017
0.845426
0.846074
0.846923
0.847911
0.848965
0.850013
0.850989
0.851841
0.852535
0.853052
0.853383
0.853518
0.853445
0.853154
0.852645
0.851934
0.851055
0.850052
0.848967
0.847838
0.8467
0.845596
0.844567
0.843658
0.842902
0.842347
0.842108
0.841931
0.842638
0.842831
0.843275
0.843968
0.844862
0.845891
0.846976
0.848037
0.849005
0.849827
0.850469
0.850911
0.851143
0.851155
0.850934
0.850471
0.84977
0.848851
0.847753
0.846523
0.845204
0.843838
0.842466
0.841131
0.839881
0.838762
0.837811
0.837074
0.836682
0.836394
0.840357
0.840612
0.841091
0.841828
0.842767
0.843838
0.844954
0.84603
0.846993
0.84779
0.848386
0.848762
0.848905
0.848803
0.848445
0.847824
0.846946
0.845837
0.844539
0.843102
0.841571
0.839989
0.838403
0.83686
0.835411
0.834102
0.832975
0.832071
0.831532
0.831145
0.838053
0.838363
0.838875
0.839654
0.840638
0.841751
0.842899
0.843991
0.844952
0.845728
0.846286
0.846603
0.846665
0.846459
0.845975
0.845207
0.844167
0.842885
0.841407
0.839781
0.838057
0.83628
0.834501
0.832772
0.831144
0.829667
0.828382
0.827328
0.82665
0.826176
0.835727
0.836081
0.836626
0.837448
0.838476
0.83963
0.840809
0.841918
0.84288
0.843641
0.844164
0.844429
0.844418
0.844117
0.843516
0.842613
0.841424
0.839984
0.838341
0.836545
0.834644
0.832691
0.830739
0.828842
0.827056
0.82543
0.824007
0.822822
0.822018
0.821468
0.833378
0.833767
0.834342
0.835207
0.836279
0.837472
0.838682
0.83981
0.840775
0.841522
0.842017
0.842234
0.842154
0.841764
0.841054
0.840026
0.838699
0.837115
0.83532
0.833367
0.831306
0.829193
0.827084
0.825038
0.823111
0.821356
0.819815
0.818518
0.817603
0.816995
0.831003
0.831417
0.832023
0.832929
0.834046
0.835277
0.836517
0.837662
0.838631
0.839368
0.839835
0.840006
0.839862
0.839387
0.838573
0.837426
0.835972
0.834252
0.832317
0.830218
0.828009
0.825749
0.823498
0.821317
0.819266
0.817399
0.815759
0.814373
0.813369
0.812724
0.828598
0.82903
0.829666
0.830613
0.831772
0.833041
0.834309
0.83547
0.836443
0.837169
0.837608
0.837733
0.837525
0.836967
0.836053
0.834792
0.833215
0.831368
0.829299
0.827063
0.824715
0.822318
0.819935
0.817632
0.81547
0.813506
0.811786
0.810335
0.809269
0.808617
0.826159
0.826601
0.827267
0.828254
0.829454
0.830759
0.832052
0.833228
0.834203
0.834916
0.835324
0.835401
0.835126
0.834485
0.83347
0.832098
0.830402
0.82843
0.826232
0.823864
0.821384
0.818857
0.816351
0.813934
0.811671
0.809623
0.807839
0.806346
0.805246
0.804627
0.823678
0.824127
0.824822
0.825848
0.827087
0.828424
0.829741
0.830929
0.831902
0.832596
0.832968
0.832992
0.832647
0.831918
0.830801
0.829317
0.827503
0.825407
0.823083
0.820585
0.817977
0.815326
0.812701
0.810175
0.807816
0.80569
0.803853
0.802334
0.80123
0.800689
0.821149
0.821601
0.822326
0.82339
0.824665
0.826031
0.827367
0.828562
0.829528
0.830198
0.830528
0.830491
0.830068
0.829245
0.828022
0.826424
0.82449
0.822272
0.819821
0.817196
0.814462
0.811688
0.808946
0.80631
0.803854
0.801648
0.799756
0.79822
0.797134
0.796714
0.818561
0.819016
0.819773
0.820873
0.822183
0.823573
0.824923
0.826119
0.827071
0.827709
0.827987
0.82788
0.827371
0.826446
0.825112
0.823396
0.821341
0.818999
0.816422
0.813671
0.810812
0.807916
0.805056
0.802304
0.799737
0.797432
0.795465
0.793901
0.792853
0.792599
0.815904
0.816366
0.817156
0.818294
0.819634
0.821043
0.8224
0.82359
0.824519
0.825114
0.825331
0.825144
0.824538
0.823504
0.822052
0.820214
0.818037
0.81557
0.812869
0.809994
0.807013
0.803995
0.801011
0.798132
0.795429
0.79298
0.790871
0.789206
0.788197
0.788219
0.813173
0.813648
0.814472
0.815648
0.817015
0.818436
0.819791
0.820966
0.821861
0.822403
0.822546
0.822269
0.821556
0.820404
0.818829
0.816867
0.814565
0.811975
0.809153
0.806159
0.803059
0.799922
0.796813
0.793794
0.790925
0.788262
0.785863
0.783814
0.782379
0.782294
0.952263
0.965577
0.973845
0.981559
0.986588
0.990511
0.993092
0.994821
0.995798
0.996182
0.996079
0.99558
0.99474
0.9936
0.992203
0.990587
0.988769
0.986785
0.984639
0.982328
0.979842
0.977199
0.974397
0.971472
0.968438
0.965348
0.962232
0.959302
0.956774
0.955222
0.946265
0.959911
0.96859
0.976697
0.981988
0.986116
0.988842
0.990663
0.991707
0.992167
0.992139
0.991686
0.990894
0.9898
0.988452
0.986868
0.985085
0.983133
0.981009
0.978719
0.976252
0.973622
0.970833
0.967926
0.964898
0.961823
0.958712
0.955779
0.95324
0.951664
0.940027
0.954089
0.963221
0.97177
0.977354
0.9817
0.984579
0.986494
0.987611
0.988147
0.988192
0.987787
0.987043
0.985996
0.984698
0.98315
0.981403
0.979485
0.977387
0.975119
0.972677
0.970066
0.967296
0.964412
0.961397
0.95834
0.955239
0.952305
0.949755
0.948154
0.933555
0.948109
0.957727
0.966777
0.972696
0.977265
0.980297
0.982316
0.983518
0.984126
0.98423
0.983884
0.983192
0.982194
0.980939
0.979435
0.977725
0.97584
0.973773
0.971531
0.969115
0.96653
0.963788
0.960926
0.957936
0.954897
0.951811
0.948881
0.946318
0.944696
0.926845
0.941972
0.952118
0.96172
0.96801
0.972811
0.976
0.978133
0.979424
0.980101
0.98026
0.979978
0.979342
0.978394
0.977179
0.975723
0.974052
0.9722
0.970169
0.967956
0.965569
0.963016
0.960306
0.957472
0.954512
0.951496
0.948428
0.945505
0.942931
0.941287
0.919896
0.935684
0.946403
0.956603
0.96329
0.968339
0.971695
0.973944
0.975325
0.976074
0.976291
0.97607
0.975489
0.974593
0.973422
0.972012
0.970385
0.968567
0.966573
0.964395
0.962041
0.959523
0.956851
0.95405
0.951122
0.948135
0.945088
0.942175
0.939592
0.937927
0.91272
0.92925
0.940586
0.951426
0.958536
0.963851
0.967383
0.969753
0.971224
0.972046
0.972324
0.972164
0.971637
0.970794
0.969669
0.968305
0.966724
0.964944
0.962987
0.960848
0.958531
0.956051
0.953421
0.950659
0.947767
0.944813
0.941793
0.938892
0.936301
0.934615
0.905341
0.922682
0.934673
0.946192
0.953753
0.959349
0.963065
0.965559
0.967122
0.968019
0.968359
0.968259
0.967786
0.966996
0.96592
0.964603
0.963068
0.961331
0.959413
0.957316
0.955041
0.952602
0.950016
0.9473
0.944447
0.94153
0.938541
0.935655
0.933059
0.931352
0.897788
0.915995
0.928674
0.940905
0.948943
0.954833
0.958744
0.961366
0.963024
0.963994
0.964399
0.964357
0.963939
0.963202
0.962176
0.960906
0.95942
0.957728
0.955851
0.9538
0.951569
0.949176
0.946637
0.94397
0.941163
0.938285
0.93533
0.932466
0.929867
0.928139
0.890097
0.909208
0.922602
0.93557
0.944107
0.950307
0.95442
0.957175
0.958929
0.959974
0.960445
0.960461
0.960097
0.959414
0.95844
0.957217
0.95578
0.954137
0.952303
0.950298
0.948117
0.945772
0.943283
0.94067
0.937912
0.935079
0.932161
0.929323
0.926726
0.924976
0.882314
0.902349
0.916472
0.930194
0.939251
0.945771
0.950096
0.952987
0.954841
0.955961
0.956498
0.956573
0.956264
0.955634
0.954713
0.953539
0.95215
0.950558
0.948769
0.946814
0.944683
0.942391
0.939954
0.937397
0.934694
0.931909
0.929035
0.926226
0.923637
0.921863
0.874493
0.895446
0.910303
0.924783
0.934376
0.941229
0.945772
0.948805
0.95076
0.951956
0.952561
0.952695
0.952442
0.951866
0.950997
0.949873
0.948531
0.946991
0.945251
0.943346
0.941268
0.939032
0.93665
0.934152
0.931506
0.928776
0.925951
0.923176
0.920598
0.918804
0.866693
0.888534
0.904115
0.919347
0.929486
0.936683
0.94145
0.944629
0.946688
0.947962
0.948634
0.94883
0.948632
0.948109
0.947292
0.946218
0.944926
0.943438
0.941748
0.939895
0.937872
0.935694
0.93337
0.930934
0.928349
0.925679
0.922908
0.920174
0.917613
0.915799
0.858978
0.881649
0.897933
0.913896
0.924586
0.932134
0.937132
0.940463
0.942627
0.94398
0.944719
0.944977
0.944835
0.944366
0.943599
0.942577
0.941334
0.939899
0.93826
0.93646
0.934493
0.932376
0.930113
0.927741
0.925222
0.922616
0.919908
0.91722
0.914681
0.912853
0.851416
0.87483
0.89178
0.908439
0.91968
0.927584
0.932821
0.936307
0.938579
0.940014
0.940818
0.941139
0.941052
0.940635
0.939919
0.938949
0.937756
0.936375
0.934786
0.93304
0.931132
0.929077
0.926878
0.924574
0.922125
0.919589
0.916949
0.914316
0.911806
0.909966
0.844072
0.868114
0.885682
0.902988
0.914773
0.923037
0.928519
0.932165
0.934546
0.936063
0.936934
0.937317
0.937283
0.936918
0.936254
0.935336
0.934194
0.932864
0.931327
0.929635
0.927788
0.925798
0.923665
0.92143
0.919057
0.916596
0.914032
0.911463
0.90899
0.907141
0.837004
0.86154
0.879663
0.897554
0.90987
0.918495
0.924228
0.928038
0.930531
0.932132
0.933069
0.933512
0.933531
0.933217
0.932604
0.931738
0.930646
0.929367
0.927882
0.926246
0.924461
0.922535
0.920472
0.918309
0.916016
0.913636
0.911155
0.908661
0.906234
0.904382
0.830263
0.855141
0.873747
0.89215
0.904976
0.913962
0.91995
0.923928
0.926537
0.928222
0.929225
0.929726
0.929797
0.929533
0.928971
0.928156
0.927114
0.925883
0.924452
0.92287
0.921149
0.919289
0.917297
0.915209
0.913002
0.910709
0.908319
0.905911
0.903541
0.901692
0.823889
0.84895
0.867955
0.886789
0.900096
0.90944
0.915685
0.919838
0.922565
0.924335
0.925405
0.925961
0.926083
0.925868
0.925356
0.92459
0.923597
0.922414
0.921037
0.91951
0.917851
0.916059
0.914141
0.912129
0.910012
0.907812
0.905521
0.903212
0.900914
0.899075
0.817907
0.842995
0.862306
0.881484
0.895236
0.904935
0.911438
0.91577
0.918618
0.920473
0.921609
0.922217
0.92239
0.922222
0.921758
0.921041
0.920095
0.918957
0.917637
0.916164
0.914567
0.912842
0.911
0.909067
0.907042
0.904944
0.90276
0.900563
0.898355
0.896538
0.812329
0.837296
0.856816
0.876247
0.890404
0.900448
0.907211
0.911726
0.914698
0.916637
0.917838
0.918498
0.91872
0.918598
0.918179
0.917507
0.916607
0.915515
0.91425
0.91283
0.911294
0.909637
0.907873
0.906021
0.904092
0.902101
0.900033
0.897966
0.89587
0.894087
0.807157
0.831872
0.8515
0.871089
0.88561
0.895986
0.90301
0.90771
0.910809
0.912831
0.914095
0.914803
0.915073
0.914994
0.914618
0.913988
0.913135
0.912086
0.910874
0.909509
0.908033
0.906444
0.904756
0.902988
0.901156
0.899279
0.89734
0.895417
0.893459
0.891729
0.802389
0.826735
0.84637
0.866024
0.880862
0.891554
0.89884
0.903725
0.906952
0.909058
0.910382
0.911136
0.911451
0.911412
0.911074
0.910486
0.909676
0.90867
0.907509
0.906198
0.904781
0.90326
0.901648
0.899966
0.898233
0.896476
0.894675
0.892917
0.891126
0.889473
0.798021
0.82189
0.841435
0.861061
0.87617
0.88716
0.894705
0.899776
0.903131
0.905318
0.906701
0.907499
0.907853
0.907851
0.90755
0.907
0.906231
0.905267
0.904154
0.902897
0.901537
0.900084
0.898546
0.896952
0.89532
0.893687
0.892037
0.890463
0.888873
0.887334
0.794054
0.817341
0.836699
0.856214
0.871544
0.882812
0.890609
0.895864
0.899348
0.901616
0.903054
0.903893
0.904283
0.904314
0.904046
0.903532
0.902801
0.901876
0.900809
0.899607
0.898301
0.896914
0.895449
0.893943
0.892412
0.890909
0.889419
0.88805
0.886703
0.885325
0.790494
0.813087
0.832169
0.851502
0.867
0.878522
0.88656
0.891996
0.895607
0.897955
0.899444
0.900321
0.900741
0.900803
0.900564
0.900082
0.899384
0.898499
0.897475
0.896325
0.895072
0.893749
0.892356
0.890937
0.889508
0.888136
0.886817
0.885675
0.884618
0.883466
0.787355
0.809121
0.827847
0.846939
0.862554
0.874301
0.882566
0.888178
0.891912
0.894337
0.895875
0.896784
0.89723
0.897318
0.897105
0.896651
0.895983
0.895136
0.894153
0.893053
0.891849
0.890587
0.889265
0.887931
0.886603
0.885364
0.884223
0.883331
0.882615
0.881783
0.784673
0.805405
0.823671
0.842453
0.858134
0.870085
0.878576
0.884369
0.888231
0.890736
0.892322
0.893263
0.893733
0.893844
0.893653
0.893225
0.892585
0.891775
0.890831
0.889778
0.888624
0.887421
0.886167
0.884916
0.88369
0.882583
0.881625
0.881003
0.880688
0.880306
0.782406
0.801797
0.819484
0.837877
0.853585
0.865736
0.874471
0.880467
0.884474
0.887075
0.888721
0.889701
0.8902
0.890336
0.890171
0.889769
0.889161
0.88839
0.887486
0.886481
0.885378
0.884234
0.883047
0.881878
0.880754
0.879778
0.879007
0.878672
0.878823
0.879075
0.780455
0.798411
0.815629
0.833672
0.849338
0.861596
0.870497
0.876644
0.880763
0.883443
0.885139
0.886154
0.886679
0.886837
0.886696
0.886319
0.885741
0.885006
0.88414
0.883177
0.882123
0.881031
0.879908
0.878815
0.877786
0.876933
0.876341
0.8763
0.876972
0.87811
0.772718
0.788804
0.805837
0.823818
0.839515
0.851839
0.860848
0.867074
0.871197
0.873833
0.875462
0.876415
0.876894
0.87702
0.876869
0.876492
0.875935
0.875237
0.874423
0.873528
0.872568
0.871585
0.870606
0.869693
0.868895
0.868351
0.868217
0.868964
0.871185
0.875587
0.753589
0.770384
0.787419
0.803924
0.818147
0.829617
0.838376
0.844747
0.849218
0.852277
0.854325
0.855661
0.856485
0.856925
0.857066
0.856969
0.85668
0.856244
0.855688
0.855049
0.854351
0.853638
0.852945
0.852341
0.851894
0.851764
0.852161
0.853681
0.857144
0.863192
0.733114
0.750603
0.767119
0.782299
0.795446
0.806393
0.815062
0.821628
0.826461
0.829952
0.832439
0.83419
0.835399
0.836198
0.836676
0.836901
0.836921
0.83678
0.836511
0.836153
0.835735
0.835301
0.834893
0.834582
0.834444
0.834646
0.83541
0.837343
0.841281
0.847856
0.711516
0.729023
0.744912
0.759277
0.771852
0.78254
0.79122
0.797999
0.803173
0.807066
0.809969
0.812127
0.813726
0.814898
0.815732
0.816299
0.816648
0.816824
0.816863
0.816804
0.816678
0.81653
0.816402
0.816368
0.8165
0.816967
0.817979
0.820118
0.824142
0.830791
0.68904
0.706276
0.721656
0.735498
0.747694
0.758192
0.766887
0.773862
0.779356
0.783638
0.786956
0.789531
0.791535
0.793095
0.794303
0.795228
0.795922
0.796431
0.796792
0.797044
0.797216
0.797354
0.797499
0.797721
0.798089
0.798765
0.799938
0.802144
0.806032
0.812489
0.665748
0.682678
0.697638
0.711079
0.722975
0.733318
0.742032
0.749187
0.754978
0.759631
0.763357
0.76635
0.768765
0.770724
0.772316
0.77361
0.774658
0.775509
0.776197
0.776761
0.777231
0.777651
0.778057
0.778517
0.779093
0.779936
0.781207
0.783393
0.787043
0.793184
0.641687
0.658321
0.672913
0.686029
0.697696
0.707932
0.716685
0.724012
0.730081
0.735083
0.7392
0.742599
0.74542
0.747778
0.749754
0.751419
0.752824
0.754017
0.75503
0.755903
0.756665
0.757356
0.758011
0.758691
0.759451
0.760431
0.761763
0.763887
0.767265
0.773046
0.616882
0.633241
0.647514
0.660373
0.671878
0.682054
0.690864
0.698362
0.704694
0.710026
0.714514
0.718302
0.721517
0.724264
0.726619
0.728651
0.730408
0.731936
0.733268
0.734442
0.735486
0.736438
0.737328
0.738214
0.739142
0.74024
0.741614
0.743666
0.746778
0.752189
0.59136
0.607469
0.621476
0.634136
0.645531
0.655683
0.664567
0.672235
0.678819
0.684463
0.689302
0.693462
0.697056
0.700179
0.702903
0.705293
0.707393
0.709248
0.71089
0.712356
0.713671
0.714872
0.715986
0.717064
0.718147
0.71935
0.72076
0.722741
0.725609
0.730657
0.565146
0.581034
0.59482
0.607327
0.618651
0.628808
0.637779
0.645617
0.652441
0.658381
0.663552
0.668066
0.672023
0.675509
0.678592
0.68133
0.683763
0.685936
0.687878
0.689625
0.691201
0.69264
0.693966
0.695226
0.696456
0.697757
0.6992
0.701117
0.703766
0.708471
0.538269
0.553959
0.567561
0.579949
0.59123
0.601413
0.610482
0.618489
0.625545
0.631765
0.637251
0.642101
0.646404
0.65024
0.653667
0.656741
0.659497
0.661978
0.66421
0.666228
0.668053
0.669719
0.671247
0.672677
0.67404
0.67543
0.676902
0.678762
0.681217
0.685585
0.510752
0.526258
0.539704
0.551999
0.563259
0.573486
0.582663
0.590839
0.598116
0.604602
0.610387
0.615556
0.620188
0.624355
0.628112
0.631506
0.634573
0.637351
0.639862
0.64214
0.644205
0.64609
0.64781
0.649405
0.650898
0.652374
0.653875
0.65568
0.657956
0.662018
0.482609
0.497944
0.511256
0.523476
0.534733
0.545017
0.554308
0.56265
0.570141
0.576879
0.582945
0.588415
0.593358
0.597838
0.601906
0.605605
0.608968
0.612029
0.614807
0.617334
0.619628
0.621718
0.623617
0.62536
0.626969
0.628521
0.630049
0.631808
0.633923
0.637644
0.45386
0.469025
0.482218
0.494379
0.505646
0.515995
0.525403
0.53391
0.541605
0.548582
0.554912
0.560663
0.565895
0.570667
0.575027
0.579014
0.582656
0.585983
0.589015
0.591779
0.594292
0.596581
0.598656
0.600547
0.60227
0.603893
0.605437
0.607141
0.609109
0.612561
0.424512
0.439508
0.452593
0.464708
0.475993
0.486413
0.495938
0.504605
0.512495
0.519694
0.52627
0.53228
0.537779
0.542822
0.547451
0.551704
0.555605
0.559181
0.56245
0.565434
0.568149
0.570616
0.572845
0.574864
0.576689
0.578384
0.579958
0.581619
0.583427
0.586502
0.394582
0.409398
0.422384
0.434463
0.445769
0.456261
0.465902
0.474722
0.482795
0.490201
0.497002
0.50325
0.508991
0.514279
0.519152
0.523645
0.527782
0.531589
0.535078
0.53827
0.541178
0.54382
0.5462
0.54834
0.550245
0.551972
0.553537
0.55515
0.556871
0.559717
0.364077
0.378698
0.391594
0.403643
0.414973
0.425534
0.435285
0.44425
0.452492
0.460086
0.467091
0.473549
0.479507
0.485011
0.490099
0.494805
0.499151
0.50316
0.506841
0.510211
0.513278
0.516063
0.518573
0.520831
0.522842
0.524648
0.526238
0.527773
0.529281
0.531715
0.333009
0.347413
0.360228
0.372253
0.383606
0.394229
0.40408
0.413178
0.421573
0.429335
0.436517
0.443158
0.4493
0.454988
0.460258
0.465144
0.46967
0.473857
0.477711
0.481248
0.484471
0.487388
0.489996
0.492311
0.494339
0.496136
0.497715
0.499246
0.500756
0.502976
0.301394
0.315549
0.328295
0.340305
0.351673
0.362344
0.372281
0.381496
0.390027
0.397933
0.405263
0.412055
0.418347
0.424181
0.429595
0.434622
0.439286
0.443603
0.447582
0.451236
0.454573
0.457608
0.460341
0.462778
0.464899
0.46672
0.468228
0.46958
0.470836
0.472668
0.26928
0.283139
0.295826
0.307818
0.319182
0.32988
0.339884
0.349198
0.357845
0.365868
0.373314
0.380219
0.386618
0.392553
0.398066
0.403193
0.40796
0.412384
0.416471
0.420223
0.423631
0.426699
0.429433
0.431859
0.43399
0.435861
0.437448
0.438848
0.44007
0.441593
0.236785
0.250266
0.26288
0.274829
0.286152
0.296843
0.306889
0.316283
0.325022
0.333133
0.340658
0.347635
0.354095
0.36008
0.365634
0.370796
0.375593
0.38005
0.38418
0.387996
0.391497
0.394677
0.397505
0.399959
0.402018
0.40372
0.405088
0.406268
0.407322
0.408498
0.204151
0.217114
0.229575
0.241405
0.252616
0.263249
0.273305
0.282755
0.291559
0.29972
0.307278
0.314271
0.320733
0.32671
0.33225
0.337401
0.342192
0.346643
0.350752
0.354516
0.35794
0.361046
0.363849
0.366359
0.368542
0.37037
0.371779
0.372851
0.373669
0.374437
0.171853
0.184038
0.196126
0.207664
0.218637
0.229131
0.239151
0.248624
0.25746
0.265634
0.27318
0.280138
0.286537
0.292423
0.29785
0.302881
0.30757
0.311958
0.316057
0.319852
0.323299
0.326359
0.32901
0.331285
0.333227
0.334872
0.336168
0.337129
0.337769
0.33802
0.140602
0.15161
0.162914
0.173833
0.18435
0.194574
0.204478
0.213914
0.222721
0.230845
0.238312
0.245162
0.251426
0.257155
0.26241
0.267254
0.271736
0.275895
0.279758
0.283349
0.286679
0.289739
0.292483
0.29485
0.296788
0.298303
0.299374
0.300047
0.300379
0.300193
0.111255
0.120595
0.130524
0.140329
0.150035
0.159759
0.169401
0.178703
0.18742
0.195446
0.202777
0.209435
0.215446
0.220877
0.225823
0.230392
0.234663
0.238663
0.242363
0.245719
0.248708
0.251367
0.25375
0.255884
0.257728
0.259219
0.260232
0.260674
0.260524
0.259531
0.0846138
0.0918209
0.0997318
0.10782
0.116228
0.125068
0.134133
0.143053
0.151503
0.159307
0.166408
0.172793
0.17847
0.183499
0.18798
0.192042
0.195808
0.199377
0.202792
0.206024
0.208983
0.211582
0.213776
0.215601
0.21712
0.218379
0.219286
0.21961
0.219107
0.217464
0.0611683
0.0659948
0.0714153
0.0772252
0.0838218
0.0912943
0.0993171
0.107479
0.115413
0.12283
0.129543
0.135472
0.140642
0.145156
0.149145
0.152714
0.155936
0.158875
0.161605
0.164181
0.166615
0.168865
0.170851
0.172509
0.173812
0.174794
0.175431
0.175464
0.174404
0.171824
0.0408618
0.0434163
0.046321
0.0495471
0.0539092
0.0593701
0.0655428
0.072188
0.0790427
0.0857125
0.0918065
0.0970826
0.101498
0.105181
0.108337
0.111172
0.113833
0.116381
0.118782
0.120955
0.122845
0.124479
0.125923
0.127213
0.128303
0.129147
0.129713
0.129701
0.128265
0.124949
0.023033
0.0237466
0.0244659
0.0254135
0.0279514
0.0312613
0.035024
0.0393871
0.04429
0.0493853
0.0542438
0.0585192
0.0620124
0.0646895
0.0666825
0.0682614
0.0697343
0.0713038
0.0729759
0.0746009
0.0760009
0.0771009
0.0779595
0.078681
0.0792939
0.0797624
0.0800935
0.0801529
0.0788612
0.0751806
0.00700708
0.0059833
0.00194013
0.00105209
0.00356106
0.00537398
0.00677551
0.00852623
0.01078
0.0133589
0.0160059
0.0184752
0.0205748
0.0222
0.0233526
0.024145
0.024748
0.0253192
0.0259433
0.0266083
0.0272384
0.0277632
0.0281658
0.0284783
0.0287135
0.0288321
0.0288297
0.0288605
0.0284863
0.0258307
0.756621
0.739091
0.718694
0.696877
0.674336
0.650991
0.62691
0.602131
0.57668
0.550567
0.523815
0.496457
0.468497
0.439952
0.410848
0.381205
0.351051
0.320425
0.289387
0.25803
0.226539
0.195178
0.164392
0.134795
0.107058
0.0818232
0.0595091
0.0401115
0.0229718
0.00737002
0.753195
0.734475
0.713721
0.691776
0.669262
0.645982
0.621974
0.597269
0.571898
0.545871
0.519207
0.491942
0.464078
0.43563
0.406632
0.377101
0.347069
0.316579
0.285694
0.254511
0.223229
0.192129
0.161672
0.132486
0.105223
0.0804972
0.0586793
0.03971
0.0228682
0.00743934
0.749274
0.729824
0.708838
0.68681
0.664316
0.641091
0.61715
0.592515
0.567219
0.541277
0.514703
0.487528
0.45976
0.431412
0.402522
0.373105
0.343197
0.312843
0.282114
0.251108
0.220035
0.189191
0.159046
0.130228
0.103378
0.0790979
0.0577467
0.0392178
0.0227033
0.00746938
0.745072
0.725173
0.704002
0.681917
0.659442
0.636271
0.612395
0.587827
0.562605
0.536741
0.510253
0.483164
0.455489
0.427238
0.398453
0.369148
0.339361
0.309141
0.278566
0.247734
0.21687
0.186286
0.156461
0.128028
0.101613
0.0777923
0.0568968
0.0387731
0.0225519
0.00748193
0.740668
0.720531
0.699242
0.677123
0.654663
0.631541
0.607723
0.583217
0.558066
0.532276
0.505868
0.47886
0.451276
0.423118
0.394435
0.365238
0.33557
0.305481
0.275056
0.2444
0.213745
0.183425
0.153928
0.12589
0.0999202
0.0765689
0.0561268
0.0383828
0.0224226
0.00748292
0.736127
0.715899
0.694556
0.672426
0.649976
0.626898
0.603135
0.578687
0.553601
0.527881
0.501546
0.474617
0.44712
0.419053
0.390467
0.361377
0.331825
0.301864
0.271586
0.241106
0.210662
0.18061
0.151448
0.123812
0.0982959
0.0754185
0.0554227
0.0380368
0.0223119
0.00747424
0.731507
0.711283
0.68994
0.667824
0.645384
0.622341
0.598632
0.574239
0.54921
0.523555
0.497291
0.470437
0.443022
0.415044
0.386552
0.357567
0.328127
0.298292
0.268157
0.237854
0.207625
0.177845
0.149023
0.121796
0.0967411
0.0743393
0.0547799
0.0377308
0.0222168
0.00745815
0.726848
0.706696
0.685394
0.663311
0.640886
0.617875
0.594213
0.569872
0.544896
0.519301
0.493104
0.466321
0.438984
0.411092
0.382691
0.353807
0.324478
0.294766
0.264774
0.234648
0.204636
0.175132
0.146659
0.119847
0.0952584
0.073331
0.0541964
0.0374627
0.0221363
0.00744816
0.722185
0.702147
0.680918
0.658886
0.636483
0.613501
0.589879
0.565586
0.54066
0.515121
0.488987
0.462271
0.435006
0.407199
0.378887
0.350101
0.320877
0.291287
0.261438
0.231489
0.201698
0.172478
0.144361
0.117971
0.0938506
0.0723933
0.0536698
0.03723
0.0220685
0.00742414
0.717547
0.697646
0.676517
0.654549
0.632174
0.609219
0.585633
0.561384
0.536504
0.511018
0.484941
0.458288
0.431093
0.403366
0.375139
0.346447
0.317327
0.287857
0.25815
0.228379
0.198813
0.169883
0.142131
0.116168
0.0925183
0.0715246
0.0531971
0.0370291
0.0220115
0.00739776
0.712955
0.693204
0.672194
0.650302
0.627957
0.605029
0.581475
0.557267
0.53243
0.506993
0.480968
0.454375
0.427247
0.399596
0.371449
0.342847
0.313828
0.284477
0.254912
0.225319
0.195981
0.167348
0.139969
0.114439
0.0912599
0.0707217
0.0527742
0.0368561
0.021963
0.0073707
0.708428
0.688834
0.667952
0.646143
0.623834
0.600932
0.577407
0.553237
0.528439
0.503045
0.47707
0.450534
0.423469
0.39589
0.367819
0.339304
0.310384
0.281148
0.251724
0.222308
0.193204
0.164874
0.137875
0.112782
0.0900725
0.0699809
0.0523966
0.036707
0.0219212
0.00734379
0.70398
0.684543
0.663794
0.642074
0.619805
0.596927
0.57343
0.549293
0.524531
0.499177
0.473249
0.446768
0.419762
0.392249
0.364251
0.335819
0.306996
0.277873
0.248587
0.21935
0.190482
0.162461
0.135846
0.111196
0.0889535
0.0692988
0.0520602
0.0365786
0.0218849
0.00731817
0.699622
0.680341
0.659725
0.638096
0.61587
0.593017
0.569544
0.545436
0.520707
0.495389
0.469507
0.443077
0.416127
0.388676
0.360748
0.332395
0.303665
0.274653
0.245505
0.216447
0.18782
0.160112
0.133886
0.109681
0.0879021
0.0686725
0.0517616
0.0364685
0.0218533
0.00729464
0.695365
0.676235
0.655751
0.63421
0.612031
0.5892
0.565749
0.541665
0.516967
0.491683
0.465844
0.439462
0.412563
0.385172
0.357311
0.329034
0.300395
0.271491
0.242481
0.213605
0.185221
0.15783
0.131998
0.108238
0.0869179
0.0681003
0.0514982
0.0363746
0.021829
0.00727382
0.69122
0.672235
0.651878
0.630423
0.60829
0.58548
0.562048
0.537984
0.513314
0.488061
0.462261
0.435923
0.409074
0.381738
0.353943
0.325738
0.297186
0.26839
0.239518
0.210826
0.182689
0.15562
0.130184
0.106869
0.0860003
0.0675802
0.0512673
0.0362949
0.0218088
0.00725585
0.687197
0.668347
0.648111
0.626736
0.604649
0.581858
0.558443
0.534396
0.509751
0.484525
0.458759
0.432463
0.405661
0.378378
0.350645
0.322508
0.294041
0.265352
0.236618
0.208112
0.180227
0.153484
0.128447
0.105575
0.0851481
0.06711
0.0510663
0.036227
0.0217852
0.00724063
0.683304
0.66458
0.644456
0.623154
0.601111
0.578337
0.554937
0.530902
0.506279
0.481076
0.455342
0.429083
0.402324
0.375091
0.347416
0.319344
0.290958
0.262376
0.233781
0.205465
0.177834
0.151421
0.126785
0.104355
0.084359
0.0666865
0.0508918
0.036169
0.0217626
0.00722823
0.679549
0.660939
0.640918
0.619681
0.597679
0.574919
0.551531
0.527507
0.5029
0.477718
0.45201
0.425786
0.399066
0.371878
0.344257
0.316247
0.287939
0.259463
0.231007
0.202882
0.175511
0.149432
0.125199
0.103206
0.0836299
0.0663066
0.0507411
0.0361191
0.0217411
0.00721866
0.675939
0.65743