/*--------------------------------*- C++ -*----------------------------------*\
  =========                 |
  \\      /  F ield         | OpenFOAM: The Open Source CFD Toolbox
   \\    /   O peration     | Website:  https://openfoam.org
    \\  /    A nd           | Version:  7
     \\/     M anipulation  |
\*---------------------------------------------------------------------------*/
FoamFile
{
    version     2.0;
    format      ascii;
    class       volScalarField;
    location    "4.8";
    object      p;
}
// * * * * * * * * * * * * * * * * * * * * * * * * * * * * * * * * * * * * * //

dimensions      [0 2 -2 0 0 0 0];

internalField   nonuniform List<scalar> 
32000
(
0.590248
0.589618
0.589403
0.589226
0.589195
0.589325
0.589617
0.590054
0.590623
0.591327
0.59219
0.593231
0.59444
0.595791
0.597262
0.598842
0.600529
0.602325
0.60423
0.606237
0.608331
0.610494
0.612711
0.61497
0.617262
0.619576
0.621899
0.624215
0.62651
0.628772
0.630991
0.63316
0.635274
0.637326
0.639313
0.64123
0.643079
0.644869
0.646592
0.64813
0.590006
0.58935
0.589123
0.588936
0.588905
0.589042
0.589343
0.589784
0.590346
0.591039
0.591886
0.592905
0.594085
0.595402
0.59683
0.598358
0.599983
0.601709
0.603535
0.605456
0.607458
0.609523
0.611636
0.613786
0.615964
0.618161
0.620364
0.622562
0.624741
0.626887
0.628992
0.63105
0.633054
0.635001
0.636883
0.6387
0.640452
0.642149
0.643781
0.645245
0.589727
0.589058
0.58882
0.588626
0.588598
0.588744
0.589055
0.5895
0.590059
0.590743
0.591578
0.592575
0.593725
0.595002
0.596385
0.597859
0.599423
0.601078
0.602825
0.604658
0.606563
0.608526
0.610532
0.61257
0.614631
0.616705
0.618785
0.62086
0.622916
0.624942
0.626929
0.628872
0.630763
0.632599
0.634375
0.636089
0.637741
0.639343
0.640882
0.642269
0.589409
0.588728
0.588485
0.588289
0.588268
0.588427
0.588748
0.589199
0.589759
0.590438
0.591261
0.592236
0.593355
0.594592
0.595926
0.597346
0.598848
0.600432
0.602098
0.603839
0.605645
0.607503
0.609398
0.61132
0.613259
0.615207
0.617159
0.619105
0.621034
0.622936
0.624801
0.626624
0.628399
0.630121
0.631787
0.633396
0.634947
0.636452
0.637896
0.639202
0.589062
0.588379
0.588135
0.587941
0.587929
0.588101
0.588431
0.588888
0.58945
0.590127
0.590937
0.59189
0.592975
0.594169
0.595454
0.596819
0.598257
0.599768
0.60135
0.602998
0.604702
0.606451
0.608232
0.610033
0.611846
0.613665
0.615485
0.617298
0.619097
0.620869
0.622609
0.624308
0.625961
0.627567
0.629121
0.630622
0.632071
0.633476
0.634825
0.636047
0.588677
0.587997
0.587755
0.58757
0.58757
0.587755
0.588095
0.588559
0.589127
0.589802
0.590601
0.591531
0.592582
0.593733
0.594968
0.596276
0.597649
0.599085
0.600582
0.602134
0.603735
0.605373
0.607035
0.60871
0.610392
0.612077
0.613762
0.61544
0.617104
0.618744
0.620353
0.621923
0.623452
0.624938
0.626378
0.627769
0.629113
0.630419
0.631672
0.632806
0.588258
0.587588
0.587355
0.587182
0.587196
0.587395
0.587747
0.588219
0.588792
0.589467
0.590255
0.591162
0.592178
0.593286
0.59447
0.59572
0.597026
0.598385
0.599794
0.60125
0.602745
0.604268
0.605806
0.607351
0.608898
0.610446
0.611993
0.613533
0.615058
0.616561
0.618034
0.619473
0.620875
0.622238
0.623561
0.624841
0.626079
0.627283
0.62844
0.629485
0.587803
0.587152
0.586932
0.586777
0.586807
0.58702
0.587384
0.587866
0.588446
0.58912
0.589898
0.590782
0.591764
0.592827
0.59396
0.595149
0.596386
0.597666
0.598988
0.600346
0.601733
0.603136
0.604546
0.605957
0.607367
0.608775
0.610181
0.611579
0.612962
0.614323
0.615657
0.61696
0.618232
0.619471
0.620675
0.621843
0.622973
0.624075
0.625136
0.62609
0.587313
0.586688
0.586485
0.586352
0.5864
0.586628
0.587006
0.587499
0.588086
0.588761
0.589528
0.59039
0.591338
0.592358
0.593437
0.594564
0.59573
0.596931
0.598164
0.599423
0.600698
0.601979
0.603257
0.604532
0.605802
0.607068
0.60833
0.609582
0.610819
0.612035
0.613226
0.614391
0.615529
0.616642
0.617727
0.61878
0.619802
0.620802
0.621768
0.622628
0.586787
0.586195
0.586013
0.585905
0.585975
0.58622
0.586613
0.587117
0.587711
0.588386
0.589144
0.589986
0.5909
0.591876
0.592901
0.593965
0.595059
0.59618
0.597323
0.598481
0.599642
0.600797
0.601943
0.603079
0.604207
0.60533
0.606444
0.607548
0.608634
0.609701
0.610747
0.611771
0.612775
0.61376
0.614723
0.615661
0.616574
0.617472
0.618344
0.619111
0.586226
0.585674
0.585516
0.585437
0.585531
0.585796
0.586205
0.58672
0.58732
0.587996
0.588746
0.589568
0.59045
0.591382
0.592351
0.593351
0.594373
0.595414
0.596468
0.597522
0.598567
0.599595
0.600606
0.601603
0.602589
0.603564
0.60453
0.605481
0.606416
0.607331
0.608229
0.60911
0.609978
0.610833
0.611673
0.612496
0.6133
0.614096
0.614877
0.61555
0.585629
0.585123
0.584993
0.584945
0.585068
0.585356
0.58578
0.586306
0.586913
0.58759
0.588333
0.589137
0.589988
0.590875
0.59179
0.592725
0.593675
0.594637
0.595599
0.596549
0.597475
0.598376
0.599253
0.60011
0.600952
0.601779
0.602593
0.603391
0.604171
0.604933
0.60568
0.606418
0.607148
0.607872
0.608589
0.609296
0.609991
0.610687
0.611381
0.611961
0.584998
0.584542
0.584442
0.584431
0.584585
0.584897
0.585338
0.585876
0.58649
0.587169
0.587907
0.588692
0.589513
0.590357
0.591216
0.592088
0.592967
0.593849
0.594719
0.595563
0.596372
0.597145
0.597888
0.598606
0.599302
0.599981
0.600642
0.601285
0.601908
0.602516
0.603113
0.603706
0.604298
0.604891
0.605484
0.606075
0.606662
0.60726
0.60787
0.608359
0.584335
0.583932
0.583865
0.583893
0.584083
0.584421
0.584879
0.585428
0.58605
0.586733
0.587466
0.588235
0.589027
0.589828
0.590634
0.591442
0.592251
0.593052
0.59383
0.594568
0.59526
0.595907
0.596517
0.597096
0.597649
0.598178
0.598686
0.599172
0.599639
0.600092
0.600539
0.600987
0.601441
0.601903
0.602372
0.602848
0.60333
0.603831
0.604361
0.604762
0.58364
0.583294
0.583263
0.583334
0.58356
0.583925
0.584401
0.584963
0.585594
0.586282
0.587011
0.587766
0.588529
0.589289
0.590043
0.590791
0.59153
0.592251
0.592935
0.593568
0.594144
0.594668
0.595147
0.595589
0.595998
0.596379
0.596734
0.597064
0.597375
0.597675
0.597973
0.598277
0.598594
0.598924
0.599271
0.599634
0.600011
0.600418
0.600873
0.601189
0.582916
0.58263
0.582636
0.582752
0.583016
0.583409
0.583905
0.584481
0.585123
0.585816
0.586542
0.587283
0.58802
0.588742
0.589447
0.590136
0.590806
0.591445
0.592037
0.592566
0.593029
0.593432
0.593783
0.59409
0.594358
0.594592
0.594796
0.594972
0.59513
0.595279
0.59543
0.595592
0.595772
0.595974
0.596199
0.59645
0.596724
0.597041
0.597424
0.597661
0.582167
0.581941
0.581987
0.582149
0.582452
0.582875
0.583391
0.583982
0.584635
0.585334
0.586059
0.586787
0.5875
0.588188
0.588847
0.589479
0.590081
0.59064
0.591139
0.591567
0.59192
0.592205
0.592432
0.592607
0.592737
0.592827
0.592882
0.592909
0.592917
0.592918
0.592925
0.592948
0.592994
0.593069
0.593175
0.593316
0.593491
0.593718
0.594034
0.594197
0.581393
0.58123
0.581316
0.581525
0.581868
0.58232
0.582859
0.583467
0.584132
0.584838
0.585561
0.586278
0.586971
0.587627
0.588244
0.588822
0.589357
0.589836
0.590246
0.590574
0.590822
0.590994
0.5911
0.591148
0.591144
0.591093
0.591004
0.590885
0.590749
0.590607
0.590475
0.590362
0.590278
0.590228
0.590218
0.590252
0.590329
0.590471
0.590723
0.590817
0.580599
0.580498
0.580624
0.580879
0.581262
0.581746
0.582309
0.582936
0.583615
0.584327
0.585049
0.585758
0.586433
0.587063
0.587641
0.588167
0.588637
0.589038
0.58936
0.589594
0.58974
0.589804
0.589795
0.58972
0.589585
0.5894
0.589172
0.588914
0.588638
0.58836
0.588093
0.587849
0.587638
0.587468
0.587346
0.587276
0.587259
0.587318
0.587509
0.587541
0.579786
0.579747
0.579912
0.580214
0.580636
0.581154
0.581743
0.58239
0.583083
0.583803
0.584526
0.585228
0.585889
0.586495
0.587038
0.587515
0.587922
0.588248
0.588486
0.588629
0.588678
0.58864
0.588521
0.588328
0.588069
0.587754
0.587395
0.587004
0.586597
0.586188
0.585792
0.585423
0.585091
0.584805
0.584575
0.584406
0.584298
0.584276
0.584409
0.584383
0.578958
0.578978
0.579182
0.579528
0.579991
0.580543
0.58116
0.58183
0.582539
0.583267
0.583992
0.58469
0.585339
0.585924
0.586436
0.586867
0.587214
0.587469
0.587626
0.587683
0.587641
0.587506
0.587282
0.586977
0.5866
0.586163
0.58568
0.585164
0.584633
0.5841
0.583583
0.583095
0.582648
0.582253
0.581919
0.581655
0.581461
0.58136
0.581438
0.581359
0.578116
0.578195
0.578435
0.578823
0.579326
0.579914
0.580562
0.581256
0.581982
0.58272
0.583448
0.584144
0.584785
0.585352
0.585835
0.586224
0.586515
0.586702
0.586784
0.586759
0.586631
0.586404
0.586082
0.585672
0.585184
0.584633
0.584033
0.583401
0.582752
0.582104
0.581473
0.580874
0.58032
0.579822
0.579391
0.579036
0.57876
0.578584
0.578606
0.57848
0.577264
0.577396
0.577671
0.5781
0.578643
0.579267
0.579947
0.580668
0.581412
0.582162
0.582896
0.583592
0.584226
0.584778
0.585235
0.585586
0.585825
0.585949
0.585959
0.585859
0.58565
0.585337
0.584923
0.584415
0.583824
0.583166
0.582459
0.581717
0.58096
0.580204
0.579468
0.578767
0.578113
0.577518
0.576997
0.576557
0.576203
0.575955
0.575922
0.575753
0.576402
0.576583
0.57689
0.577359
0.577941
0.578602
0.579316
0.580065
0.580831
0.581595
0.582336
0.583034
0.583664
0.584203
0.584636
0.584952
0.585142
0.585208
0.585152
0.584981
0.584698
0.584305
0.583806
0.583206
0.58252
0.581764
0.580957
0.580115
0.579257
0.578403
0.577571
0.576775
0.576029
0.575347
0.574741
0.574223
0.573795
0.573479
0.573392
0.573183
0.575529
0.575754
0.576092
0.5766
0.577221
0.57792
0.578669
0.579448
0.580237
0.581017
0.581768
0.582469
0.583096
0.583625
0.584037
0.58432
0.584467
0.584479
0.584362
0.584125
0.583773
0.583307
0.582729
0.582045
0.581271
0.580425
0.579526
0.578592
0.577643
0.576699
0.575779
0.574897
0.574069
0.573305
0.572622
0.572032
0.571537
0.571157
0.571016
0.57077
0.574647
0.574911
0.575278
0.575823
0.576482
0.577219
0.578005
0.578816
0.57963
0.580428
0.581191
0.581897
0.582522
0.583043
0.583437
0.583691
0.583798
0.583759
0.583587
0.58329
0.582874
0.58234
0.581688
0.580928
0.580074
0.579146
0.578163
0.577144
0.576112
0.575087
0.574087
0.573129
0.572225
0.571389
0.570637
0.569982
0.569425
0.568984
0.568792
0.568513
0.573754
0.574052
0.574447
0.575027
0.575724
0.576499
0.577324
0.578168
0.57901
0.579828
0.580603
0.581315
0.581941
0.582454
0.582833
0.583061
0.583131
0.583047
0.582823
0.582471
0.581996
0.581399
0.58068
0.57985
0.578922
0.577919
0.576859
0.575764
0.574657
0.573558
0.572488
0.57146
0.570489
0.569589
0.568776
0.568063
0.567452
0.566956
0.566714
0.566405
0.572851
0.573177
0.573599
0.574212
0.574946
0.575761
0.576624
0.577504
0.578375
0.579214
0.580003
0.580723
0.58135
0.581858
0.582223
0.582427
0.582463
0.582338
0.582067
0.581663
0.581133
0.580478
0.579697
0.578802
0.577808
0.576735
0.575606
0.574442
0.573267
0.572103
0.570969
0.56988
0.568849
0.567893
0.567026
0.566263
0.565605
0.565062
0.564773
0.56444
0.571936
0.572285
0.572732
0.573378
0.57415
0.575004
0.575905
0.576822
0.577723
0.578585
0.579389
0.580117
0.580746
0.58125
0.581603
0.581785
0.58179
0.581627
0.581312
0.58086
0.580279
0.579568
0.57873
0.577775
0.576719
0.575584
0.574391
0.573164
0.571929
0.570706
0.569515
0.568372
0.567291
0.566286
0.565375
0.56457
0.563873
0.563289
0.56296
0.562607
0.571008
0.571376
0.571847
0.572525
0.573333
0.574226
0.575167
0.57612
0.577053
0.577939
0.578759
0.579496
0.580127
0.580627
0.580968
0.581129
0.581105
0.580906
0.580551
0.580055
0.579425
0.578662
0.577769
0.576758
0.575645
0.574451
0.573201
0.571918
0.570628
0.569353
0.568112
0.566922
0.565797
0.564752
0.563804
0.562967
0.562238
0.561623
0.561261
0.560895
0.570065
0.570447
0.570941
0.57165
0.572496
0.573428
0.574407
0.575397
0.576362
0.577272
0.578109
0.578855
0.579489
0.579984
0.580312
0.580453
0.580402
0.58017
0.579776
0.579237
0.57856
0.577747
0.576802
0.575738
0.574571
0.573325
0.572022
0.570689
0.569349
0.568027
0.566743
0.565512
0.56435
0.563273
0.562297
0.561435
0.560685
0.560047
0.559662
0.559294
0.569105
0.569497
0.570013
0.570755
0.571637
0.572607
0.573625
0.574651
0.575647
0.576581
0.577434
0.578189
0.578825
0.579315
0.57963
0.57975
0.579672
0.579408
0.578977
0.578397
0.577674
0.576812
0.575817
0.574702
0.573486
0.57219
0.570839
0.56946
0.568076
0.566713
0.56539
0.564125
0.562933
0.561831
0.560835
0.559957
0.559194
0.558545
0.558147
0.557789
0.568123
0.568523
0.569062
0.569837
0.570755
0.571764
0.572819
0.57388
0.574905
0.575862
0.576731
0.577494
0.57813
0.578613
0.578914
0.579013
0.578908
0.578612
0.578145
0.577524
0.576756
0.575846
0.574802
0.573638
0.572374
0.571032
0.569638
0.568216
0.566793
0.565393
0.564036
0.562742
0.561527
0.560406
0.559397
0.55851
0.557745
0.557097
0.556699
0.556366
0.567117
0.567523
0.568086
0.568893
0.569848
0.570894
0.571986
0.573079
0.574132
0.575111
0.575993
0.576763
0.577399
0.577872
0.578157
0.578233
0.5781
0.577772
0.577269
0.576607
0.575794
0.574837
0.573745
0.572534
0.571224
0.569839
0.568403
0.566943
0.565484
0.564051
0.562666
0.561347
0.560112
0.558979
0.557962
0.557075
0.556316
0.555681
0.555299
0.555011
0.566081
0.566493
0.56708
0.56792
0.568912
0.569996
0.571123
0.572247
0.573324
0.574322
0.575217
0.575992
0.576624
0.577086
0.577352
0.577403
0.577241
0.57688
0.57634
0.575637
0.57478
0.573775
0.572636
0.571378
0.570024
0.568597
0.567123
0.565627
0.564136
0.562673
0.561261
0.559921
0.558671
0.557528
0.556508
0.555625
0.554881
0.554272
0.553923
0.553704
0.565014
0.565431
0.566042
0.566917
0.567946
0.569067
0.570227
0.571378
0.572478
0.573493
0.574398
0.575175
0.575801
0.576249
0.576492
0.576516
0.576323
0.575927
0.575349
0.574604
0.573701
0.57265
0.571463
0.57016
0.568763
0.567296
0.565785
0.564256
0.562735
0.561245
0.55981
0.55845
0.557185
0.556033
0.555011
0.554135
0.553411
0.552838
0.552538
0.552415
0.563908
0.564332
0.56497
0.565879
0.566946
0.568103
0.569294
0.57047
0.571589
0.572618
0.573531
0.574307
0.574923
0.575353
0.575571
0.575565
0.575338
0.574906
0.574288
0.5735
0.572551
0.571452
0.570219
0.56887
0.567431
0.565926
0.56438
0.56282
0.561271
0.559756
0.558298
0.556919
0.555637
0.554473
0.553446
0.552575
0.55187
0.551337
0.5511
0.551105
0.562761
0.563194
0.563859
0.564805
0.56591
0.567102
0.568321
0.569519
0.570655
0.571695
0.572611
0.573382
0.573985
0.574394
0.574583
0.574543
0.57428
0.573809
0.573149
0.572316
0.57132
0.570174
0.568894
0.567502
0.566022
0.56448
0.562902
0.561313
0.559737
0.558198
0.556717
0.555316
0.554014
0.55283
0.551787
0.550908
0.550214
0.549721
0.549566
0.549745
0.561568
0.562014
0.562708
0.563692
0.564836
0.566061
0.567305
0.568522
0.569672
0.570718
0.571634
0.572397
0.572983
0.573365
0.573522
0.573445
0.573142
0.572629
0.571926
0.571047
0.570003
0.568809
0.567484
0.56605
0.564531
0.562955
0.561346
0.559729
0.558129
0.556565
0.55506
0.553634
0.552303
0.551087
0.550008
0.549091
0.548369
0.54789
0.547849
0.548329
0.560329
0.560791
0.561517
0.56254
0.563722
0.564977
0.566243
0.567476
0.568636
0.569685
0.570597
0.571347
0.57191
0.572262
0.572383
0.572266
0.57192
0.571364
0.570615
0.569688
0.568596
0.567355
0.565986
0.564512
0.562958
0.561349
0.559712
0.55807
0.556446
0.554859
0.553328
0.551872
0.550505
0.549241
0.548095
0.547086
0.546238
0.545604
0.545411
0.545978
0.65291
0.660926
0.66579
0.670909
0.674353
0.67754
0.679989
0.682074
0.683749
0.685144
0.686296
0.687268
0.688067
0.688714
0.689233
0.68963
0.689925
0.690098
0.690175
0.690152
0.690036
0.689828
0.689546
0.689173
0.688712
0.688167
0.687508
0.686754
0.685893
0.684911
0.683826
0.682603
0.68127
0.67981
0.678226
0.676528
0.674743
0.672886
0.671132
0.669376
0.649937
0.658135
0.663212
0.668568
0.672188
0.675516
0.678058
0.68021
0.681934
0.683372
0.68456
0.685552
0.686366
0.687042
0.687589
0.687999
0.688307
0.688512
0.688617
0.68861
0.68851
0.688323
0.688053
0.687711
0.687263
0.68672
0.686083
0.685337
0.684487
0.683523
0.682438
0.681236
0.679908
0.678455
0.676879
0.675193
0.673418
0.671566
0.669826
0.668084
0.646846
0.655273
0.660573
0.66619
0.669999
0.673477
0.676116
0.67834
0.680115
0.681595
0.682819
0.683832
0.684664
0.685367
0.685941
0.686366
0.686686
0.686921
0.687052
0.687063
0.68698
0.686815
0.686557
0.686245
0.685812
0.685272
0.684658
0.683922
0.683083
0.682139
0.681054
0.679876
0.678554
0.677113
0.675547
0.673875
0.672115
0.67027
0.668547
0.666817
0.643634
0.652339
0.65787
0.663775
0.667785
0.671421
0.674168
0.676466
0.678295
0.679814
0.68107
0.682109
0.682965
0.68369
0.684284
0.684732
0.685071
0.685327
0.685476
0.68551
0.685448
0.685305
0.685065
0.684768
0.684355
0.683831
0.683233
0.682512
0.681685
0.680754
0.679683
0.678517
0.677208
0.675782
0.67423
0.672573
0.670829
0.668999
0.66729
0.665571
0.640298
0.649333
0.655105
0.661322
0.665547
0.669348
0.67221
0.674587
0.676473
0.67803
0.679315
0.680383
0.681266
0.68201
0.682621
0.683095
0.683456
0.683728
0.683894
0.683953
0.683914
0.683793
0.683575
0.683286
0.682896
0.682394
0.681808
0.681105
0.680292
0.679373
0.678322
0.677164
0.675872
0.674463
0.672928
0.671287
0.669561
0.66775
0.666055
0.664344
0.636841
0.646256
0.652279
0.658832
0.663284
0.667261
0.670244
0.672702
0.674647
0.676243
0.677559
0.678654
0.679564
0.680327
0.680957
0.681455
0.681836
0.682126
0.682311
0.682395
0.682378
0.682277
0.682083
0.681806
0.681438
0.680956
0.680385
0.679702
0.678904
0.677999
0.676967
0.675822
0.674547
0.673158
0.671641
0.670018
0.668311
0.666517
0.664837
0.663134
0.633265
0.643108
0.649394
0.656305
0.660996
0.665159
0.668267
0.670812
0.672817
0.674454
0.675802
0.676924
0.677859
0.678643
0.679291
0.679812
0.680213
0.680523
0.680727
0.680834
0.680841
0.68076
0.680589
0.680327
0.67998
0.67952
0.678964
0.6783
0.67752
0.676631
0.675618
0.674491
0.673234
0.671865
0.670369
0.668765
0.667078
0.665302
0.663637
0.661942
0.629572
0.639891
0.646449
0.65374
0.658684
0.663042
0.666282
0.668917
0.670984
0.672663
0.674043
0.675192
0.676152
0.676958
0.677625
0.678166
0.678588
0.678919
0.679143
0.679273
0.679302
0.679241
0.679093
0.678849
0.678522
0.678084
0.677545
0.676901
0.676141
0.675269
0.674277
0.673169
0.671933
0.670586
0.669112
0.667528
0.665862
0.664103
0.662453
0.660768
0.625769
0.636609
0.643447
0.651138
0.656348
0.66091
0.664288
0.667017
0.669148
0.67087
0.672283
0.67346
0.674444
0.675272
0.675957
0.67652
0.676963
0.677314
0.67756
0.67771
0.677763
0.677721
0.677597
0.677372
0.677065
0.676649
0.676128
0.675505
0.674765
0.673913
0.672943
0.671858
0.670644
0.669319
0.667869
0.666308
0.664662
0.662921
0.661286
0.65961
0.621864
0.633267
0.640392
0.648501
0.653988
0.658763
0.662285
0.665111
0.667309
0.669076
0.670522
0.671727
0.672735
0.673585
0.67429
0.674874
0.675337
0.675709
0.675977
0.676148
0.676223
0.676201
0.676101
0.675897
0.675608
0.675215
0.674714
0.674112
0.673394
0.672564
0.671617
0.670556
0.669368
0.668066
0.666642
0.665103
0.663477
0.661757
0.660135
0.65847
0.617869
0.629871
0.637288
0.645828
0.651605
0.656601
0.660273
0.663201
0.665467
0.667279
0.668759
0.669993
0.671025
0.671896
0.672621
0.673226
0.673711
0.674104
0.674396
0.674586
0.674684
0.674682
0.674604
0.674422
0.674152
0.673783
0.673302
0.672722
0.672028
0.671222
0.6703
0.669264
0.668103
0.666826
0.665428
0.663914
0.662308
0.660609
0.659002
0.657346
0.613797
0.626428
0.63414
0.643123
0.649198
0.654424
0.658252
0.661285
0.663622
0.665481
0.666995
0.668257
0.669314
0.670207
0.670951
0.671578
0.672085
0.672499
0.672814
0.673025
0.673146
0.673165
0.673108
0.672949
0.672697
0.672352
0.671894
0.671336
0.670668
0.669887
0.668992
0.667982
0.66685
0.665598
0.664228
0.66274
0.661156
0.659479
0.657886
0.656239
0.609666
0.622947
0.630954
0.640387
0.64677
0.652232
0.656222
0.659363
0.661773
0.663681
0.665231
0.666521
0.667601
0.668516
0.66928
0.669928
0.670459
0.670895
0.671233
0.671465
0.671609
0.671649
0.671613
0.671477
0.671245
0.670924
0.670489
0.669954
0.669314
0.668559
0.667691
0.666709
0.665608
0.664383
0.66304
0.66158
0.660019
0.658365
0.656788
0.655149
0.605494
0.619439
0.627738
0.637623
0.644322
0.650024
0.654183
0.657436
0.659921
0.66188
0.663466
0.664784
0.665889
0.666824
0.667609
0.668279
0.668834
0.669291
0.669653
0.669906
0.670072
0.670135
0.670119
0.670007
0.669795
0.669498
0.669088
0.668577
0.667964
0.667237
0.666397
0.665444
0.664376
0.66318
0.661865
0.660436
0.658899
0.657267
0.655707
0.654075
0.601304
0.615915
0.6245
0.634834
0.641855
0.647802
0.652135
0.655503
0.658066
0.660077
0.661701
0.663048
0.664177
0.665133
0.66594
0.666632
0.667209
0.667689
0.668073
0.668349
0.668537
0.668623
0.668627
0.668538
0.668346
0.668073
0.66769
0.667204
0.666619
0.665921
0.665111
0.664188
0.663152
0.661987
0.660702
0.659305
0.657794
0.656186
0.654644
0.653019
0.597119
0.612389
0.62125
0.632025
0.639372
0.645567
0.650078
0.653564
0.656208
0.658273
0.659937
0.661312
0.662466
0.663444
0.664272
0.664986
0.665586
0.666088
0.666494
0.666792
0.667002
0.667112
0.667136
0.667071
0.666901
0.66665
0.666295
0.665835
0.665277
0.664611
0.663831
0.662939
0.661936
0.660804
0.659551
0.658187
0.656705
0.65512
0.653598
0.65198
0.592965
0.608874
0.617998
0.6292
0.636874
0.643319
0.648012
0.65162
0.654348
0.65647
0.658174
0.659578
0.660757
0.661757
0.662607
0.663343
0.663965
0.664488
0.664915
0.665238
0.665469
0.665603
0.665646
0.665604
0.665458
0.665229
0.664903
0.66447
0.663939
0.663305
0.662558
0.661697
0.660728
0.659631
0.658411
0.657081
0.655631
0.65407
0.652569
0.650958
0.588867
0.605384
0.614755
0.626364
0.634365
0.64106
0.645939
0.649672
0.652486
0.654667
0.656412
0.657846
0.65905
0.660072
0.660944
0.661702
0.662345
0.66289
0.663339
0.663684
0.663936
0.664095
0.664157
0.664138
0.664017
0.663811
0.663512
0.663109
0.662605
0.662003
0.661289
0.66046
0.659526
0.658466
0.657282
0.655987
0.654571
0.653036
0.651558
0.649953
0.584853
0.601934
0.611533
0.623524
0.631847
0.63879
0.643857
0.647718
0.650622
0.652864
0.654652
0.656116
0.657346
0.65839
0.659284
0.660062
0.660727
0.661294
0.661764
0.662132
0.662405
0.662587
0.662671
0.662673
0.662579
0.662396
0.662123
0.66175
0.661274
0.660705
0.660026
0.659229
0.658331
0.657308
0.656163
0.654905
0.653525
0.652018
0.650562
0.648964
0.580948
0.59854
0.608342
0.620684
0.629323
0.636511
0.641769
0.64576
0.648756
0.651062
0.652894
0.654389
0.655644
0.656711
0.657625
0.658425
0.659111
0.659699
0.660191
0.660582
0.660875
0.661081
0.661186
0.661209
0.661143
0.660982
0.660737
0.660394
0.659948
0.65941
0.658765
0.658003
0.657142
0.656158
0.655053
0.653833
0.652492
0.651014
0.649583
0.647993
0.577177
0.595214
0.605195
0.61785
0.626796
0.634224
0.639674
0.643798
0.646889
0.64926
0.651138
0.652665
0.653946
0.655034
0.655969
0.656791
0.657498
0.658107
0.658621
0.659034
0.659347
0.659576
0.659704
0.659746
0.659707
0.659571
0.659351
0.65904
0.658623
0.658117
0.657508
0.65678
0.655956
0.655013
0.653951
0.652771
0.651471
0.650025
0.648621
0.647039
0.573563
0.59197
0.602103
0.615029
0.62427
0.631932
0.637574
0.641833
0.645021
0.647461
0.649385
0.650945
0.652252
0.653362
0.654318
0.65516
0.655888
0.656519
0.657053
0.657487
0.657821
0.658071
0.658223
0.658285
0.658272
0.658161
0.657968
0.657687
0.6573
0.656825
0.656252
0.65556
0.654775
0.653875
0.652856
0.651719
0.650463
0.649052
0.647675
0.646103
0.570126
0.588821
0.599076
0.612226
0.621748
0.629636
0.635469
0.639865
0.643152
0.645663
0.647635
0.64923
0.650563
0.651695
0.652672
0.653534
0.654283
0.654934
0.655487
0.655943
0.656299
0.656569
0.656744
0.656825
0.656838
0.656751
0.656586
0.656334
0.655978
0.655535
0.654997
0.654342
0.653597
0.652741
0.651769
0.650677
0.649467
0.648094
0.646746
0.645186
0.566882
0.585776
0.596124
0.609449
0.619235
0.627339
0.63336
0.637895
0.641283
0.643868
0.64589
0.647521
0.648881
0.650034
0.651031
0.651914
0.652683
0.653353
0.653926
0.654402
0.654779
0.655068
0.655266
0.655367
0.655405
0.655343
0.655204
0.654982
0.654657
0.654245
0.653743
0.653127
0.652423
0.651612
0.650689
0.649645
0.648484
0.647152
0.645837
0.64429
0.563842
0.582845
0.593254
0.606704
0.616733
0.625044
0.631249
0.635923
0.639414
0.642076
0.644149
0.645817
0.647204
0.64838
0.649398
0.650299
0.651089
0.651777
0.652368
0.652863
0.653263
0.65357
0.65379
0.653911
0.653972
0.653936
0.653823
0.65363
0.653336
0.652956
0.652489
0.651913
0.65125
0.650488
0.649615
0.648622
0.647513
0.646228
0.644947
0.643416
0.561015
0.580035
0.590474
0.603998
0.614247
0.622753
0.629138
0.633951
0.637547
0.640288
0.642415
0.64412
0.645535
0.646732
0.647772
0.648692
0.6495
0.650205
0.650814
0.651328
0.651749
0.652074
0.652315
0.652456
0.65254
0.65253
0.652441
0.652278
0.652014
0.651666
0.651235
0.6507
0.65008
0.649367
0.648547
0.647608
0.646554
0.64532
0.644079
0.642564
0.558405
0.577352
0.587791
0.601335
0.611781
0.620468
0.627028
0.63198
0.635683
0.638505
0.640687
0.64243
0.643873
0.645092
0.646153
0.647091
0.647917
0.648638
0.649264
0.649797
0.650237
0.65058
0.650842
0.651004
0.651109
0.651124
0.65106
0.650926
0.650692
0.650377
0.64998
0.649488
0.648912
0.648248
0.647483
0.646602
0.645606
0.64443
0.643233
0.641738
0.556012
0.574797
0.585207
0.598721
0.60934
0.618193
0.624921
0.630012
0.633824
0.636729
0.638967
0.640748
0.642219
0.643462
0.644543
0.645497
0.646339
0.647077
0.64772
0.64827
0.648727
0.649089
0.64937
0.649553
0.649678
0.649718
0.649678
0.649572
0.649368
0.649086
0.648724
0.648274
0.647744
0.647131
0.646423
0.645602
0.64467
0.643557
0.642412
0.640938
0.553833
0.572372
0.582728
0.596163
0.606928
0.61593
0.62282
0.628049
0.631971
0.63496
0.637256
0.639076
0.640576
0.641841
0.642941
0.643912
0.644769
0.645522
0.64618
0.646747
0.647221
0.6476
0.6479
0.648104
0.648248
0.648313
0.648296
0.648217
0.648043
0.647794
0.647467
0.64706
0.646575
0.646015
0.645364
0.644607
0.643744
0.642701
0.641616
0.640168
0.551866
0.570077
0.580354
0.593664
0.604546
0.613682
0.620726
0.626092
0.630125
0.633198
0.635554
0.637415
0.638944
0.640231
0.641349
0.642335
0.643206
0.643974
0.644646
0.645228
0.645718
0.646115
0.646432
0.646657
0.646819
0.646908
0.646914
0.646861
0.646715
0.646499
0.646208
0.645843
0.645404
0.644897
0.644306
0.643615
0.642827
0.641862
0.640846
0.63943
0.550105
0.567908
0.578086
0.591229
0.602197
0.611452
0.618641
0.624142
0.628287
0.631446
0.633863
0.635765
0.637325
0.638632
0.639767
0.640767
0.64165
0.642433
0.643117
0.643714
0.644219
0.644633
0.644966
0.645211
0.64539
0.645502
0.645531
0.645502
0.645386
0.645202
0.644946
0.644624
0.644231
0.643777
0.643246
0.642626
0.641918
0.641039
0.640103
0.638729
0.548548
0.565862
0.575921
0.58886
0.599886
0.609241
0.616568
0.622201
0.626459
0.629705
0.632184
0.634129
0.635718
0.637046
0.638196
0.63921
0.640104
0.640899
0.641595
0.642205
0.642724
0.643153
0.643501
0.643766
0.643963
0.644096
0.644147
0.644141
0.644055
0.643901
0.643682
0.6434
0.643054
0.642653
0.642184
0.641637
0.641015
0.640232
0.63939
0.638068
0.54719
0.563935
0.573856
0.58656
0.597614
0.607053
0.614509
0.620271
0.624643
0.627976
0.630518
0.632508
0.634125
0.635474
0.636638
0.637663
0.638566
0.639372
0.640079
0.6407
0.641232
0.641675
0.642038
0.642321
0.642536
0.642687
0.642762
0.642778
0.642721
0.642597
0.642413
0.642172
0.641872
0.641524
0.641118
0.640646
0.640116
0.639441
0.638707
0.637455
0.546031
0.56212
0.571889
0.584332
0.595385
0.60489
0.612469
0.618357
0.622841
0.626262
0.628868
0.630903
0.632549
0.633916
0.635093
0.636128
0.637039
0.637854
0.638571
0.6392
0.639744
0.6402
0.640576
0.640877
0.64111
0.641278
0.641375
0.641411
0.641383
0.641289
0.64114
0.640939
0.640684
0.640389
0.640046
0.639653
0.639219
0.638662
0.638056
0.636894
0.545073
0.560412
0.570016
0.582176
0.593203
0.602758
0.61045
0.616461
0.621057
0.624566
0.627236
0.629316
0.630989
0.632374
0.633563
0.634606
0.635523
0.636345
0.637069
0.637706
0.63826
0.638727
0.639117
0.639433
0.639683
0.639867
0.639986
0.640043
0.640042
0.639976
0.639862
0.639701
0.639489
0.639247
0.638968
0.638654
0.638321
0.637894
0.637437
0.636397
0.544318
0.558804
0.568238
0.580102
0.591078
0.600668
0.608462
0.614592
0.619298
0.622893
0.625628
0.62775
0.62945
0.630852
0.63205
0.633099
0.63402
0.634845
0.635575
0.636217
0.63678
0.637257
0.63766
0.637989
0.638256
0.638455
0.638596
0.638672
0.638697
0.63866
0.638578
0.638456
0.638287
0.638097
0.63788
0.637647
0.637418
0.637134
0.636851
0.635972
0.543771
0.557295
0.566554
0.578115
0.589017
0.598627
0.606513
0.612756
0.617569
0.621247
0.624045
0.626208
0.627932
0.62935
0.630556
0.631607
0.63253
0.633356
0.634091
0.634736
0.635306
0.635791
0.636206
0.636547
0.63683
0.637043
0.637204
0.637299
0.637349
0.63734
0.63729
0.637204
0.637077
0.636937
0.636782
0.63663
0.636506
0.636376
0.636297
0.635636
0.54346
0.555867
0.564923
0.576158
0.586955
0.596569
0.604543
0.610899
0.615822
0.619586
0.62245
0.624658
0.626409
0.627843
0.629056
0.630109
0.631034
0.631859
0.632596
0.633245
0.63382
0.634313
0.634739
0.635093
0.63539
0.635619
0.635798
0.635913
0.635987
0.636005
0.635986
0.635936
0.635851
0.63576
0.635665
0.635593
0.635576
0.635609
0.635768
0.635404
0.543385
0.554438
0.563248
0.574124
0.584786
0.594394
0.602458
0.608935
0.613978
0.617839
0.620778
0.623039
0.624825
0.626281
0.627507
0.628565
0.629493
0.630321
0.631061
0.631716
0.632297
0.6328
0.633237
0.633606
0.633918
0.634165
0.634363
0.6345
0.634598
0.634645
0.634656
0.634641
0.634598
0.634555
0.634521
0.634527
0.634618
0.634822
0.635254
0.635301
0.543433
0.553114
0.561777
0.57239
0.582942
0.592524
0.600631
0.60718
0.6123
0.616224
0.61921
0.621503
0.623306
0.62477
0.625997
0.627054
0.627982
0.62881
0.629551
0.63021
0.630796
0.631308
0.631754
0.632135
0.632459
0.632722
0.632936
0.633094
0.633211
0.633284
0.633322
0.633338
0.633333
0.633333
0.633353
0.633431
0.633622
0.63399
0.634716
0.635314
0.54122
0.548885
0.557609
0.568207
0.578862
0.588531
0.596732
0.603384
0.608616
0.612625
0.615636
0.61788
0.619576
0.620912
0.622021
0.622987
0.623855
0.624643
0.625358
0.626003
0.626578
0.627089
0.627537
0.627929
0.628265
0.62855
0.628788
0.628982
0.629138
0.629261
0.629359
0.629441
0.629523
0.629621
0.629767
0.630006
0.630426
0.631188
0.632698
0.635183
0.532869
0.540794
0.549772
0.559713
0.569455
0.578348
0.58606
0.592485
0.597678
0.601776
0.604957
0.607416
0.609344
0.610905
0.61222
0.613368
0.614396
0.615327
0.616174
0.616944
0.61764
0.618268
0.618831
0.619333
0.619778
0.62017
0.620513
0.62081
0.621068
0.621292
0.621491
0.621677
0.621864
0.622075
0.622346
0.622734
0.62335
0.624438
0.626522
0.629898
0.52338
0.531908
0.540854
0.550142
0.559131
0.567451
0.57482
0.581098
0.586295
0.590505
0.593872
0.596558
0.598726
0.600519
0.602047
0.603386
0.604585