/*--------------------------------*- C++ -*----------------------------------*\
  =========                 |
  \\      /  F ield         | OpenFOAM: The Open Source CFD Toolbox
   \\    /   O peration     | Website:  https://openfoam.org
    \\  /    A nd           | Version:  7
     \\/     M anipulation  |
\*---------------------------------------------------------------------------*/
FoamFile
{
    version     2.0;
    format      ascii;
    class       volVectorField;
    location    "4.8";
    object      U;
}
// * * * * * * * * * * * * * * * * * * * * * * * * * * * * * * * * * * * * * //

dimensions      [0 1 -1 0 0 0 0];

internalField   nonuniform List<vector> 
32000
(
(-0.000332848 0.00532464 -5.12211e-22)
(-0.00195698 0.0185769 0)
(-0.00479774 0.0338992 -4.56334e-21)
(-0.00812457 0.0500921 0)
(-0.0117283 0.0664805 4.74844e-21)
(-0.0153832 0.0826946 0)
(-0.0189326 0.0985255 4.90548e-21)
(-0.0222617 0.113861 -3.72987e-21)
(-0.0252859 0.128646 1.35629e-24)
(-0.0279451 0.142853 1.68758e-24)
(-0.0301998 0.156467 -1.28591e-21)
(-0.0320294 0.169471 5.19347e-21)
(-0.0334256 0.181847 0)
(-0.0343869 0.193566 -1.32092e-21)
(-0.0349178 0.204599 1.32641e-21)
(-0.0350285 0.214912 0)
(-0.0347322 0.224472 6.71347e-21)
(-0.0340453 0.233248 -1.34687e-21)
(-0.0329866 0.241214 0)
(-0.0315752 0.24835 2.72252e-21)
(-0.0298308 0.254642 2.72663e-21)
(-0.027773 0.260086 0)
(-0.0254211 0.264683 0)
(-0.0227938 0.268445 0)
(-0.0199099 0.271389 0)
(-0.0167878 0.273541 0)
(-0.0134454 0.274931 0)
(-0.00989947 0.275596 0)
(-0.00616569 0.275574 -5.48447e-21)
(-0.00225969 0.274909 0)
(0.0018029 0.273646 5.47178e-21)
(0.00600631 0.271831 0)
(0.0103345 0.269512 0)
(0.0147701 0.266736 0)
(0.0192938 0.26355 -5.42359e-21)
(0.0238845 0.26 -2.71286e-21)
(0.0285178 0.25613 8.10419e-21)
(0.0331801 0.251979 -3.85708e-24)
(0.0378495 0.247647 5.36761e-21)
(0.0423295 0.243264 -6.42741e-24)
(-0.000461229 0.00572728 0)
(-0.00240313 0.0195171 8.90953e-21)
(-0.00561647 0.0352017 2.28189e-21)
(-0.00933389 0.0516315 4.32826e-25)
(-0.0133366 0.0681533 -2.37414e-21)
(-0.0173926 0.0844154 0)
(-0.0213396 0.100222 4.89973e-21)
(-0.0250611 0.115476 -4.96866e-21)
(-0.028472 0.130127 0)
(-0.0315108 0.144163 -1.01815e-20)
(-0.034137 0.157572 0)
(-0.036328 0.170346 -1.55724e-20)
(-0.0380741 0.18247 0)
(-0.0393723 0.193923 0)
(-0.0402258 0.204679 5.31453e-21)
(-0.040644 0.214708 -5.33171e-21)
(-0.0406391 0.223979 -5.36816e-21)
(-0.0402261 0.232464 0)
(-0.0394225 0.240139 1.62332e-20)
(-0.0382465 0.246984 -5.41962e-21)
(-0.0367173 0.252988 5.30306e-24)
(-0.0348538 0.258147 -1.63498e-20)
(-0.0326742 0.262465 -1.0922e-20)
(-0.0301968 0.265953 -5.48304e-21)
(-0.0274404 0.268628 1.64137e-20)
(-0.0244222 0.270518 -1.64405e-20)
(-0.021159 0.271651 1.6455e-20)
(-0.0176674 0.272066 -2.18866e-20)
(-0.0139635 0.271801 -5.45279e-21)
(-0.0100628 0.270901 3.52861e-23)
(-0.0059802 0.269412 -1.63435e-20)
(-0.00173172 0.267381 -1.08887e-20)
(0.00266542 0.264858 2.17636e-20)
(0.00719271 0.261892 -2.16759e-20)
(0.0118298 0.258534 -5.38156e-21)
(0.0165533 0.254834 -2.15787e-20)
(0.0213357 0.25084 8.00713e-24)
(0.0261603 0.246598 5.361e-21)
(0.0309945 0.242213 -2.13141e-20)
(0.0356416 0.237822 -3.08909e-20)
(-0.000600858 0.00611541 -2.04517e-21)
(-0.00286373 0.0204142 -4.45496e-21)
(-0.00643848 0.0364586 -2.05084e-20)
(-0.0105289 0.0531259 0)
(-0.0149044 0.0697832 2.37205e-21)
(-0.0193288 0.0860969 -2.41242e-21)
(-0.0236392 0.101885 -2.94021e-20)
(-0.027719 0.11706 9.94184e-21)
(-0.0314808 0.131583 -5.03532e-21)
(-0.0348614 0.145449 3.05271e-20)
(-0.037822 0.158655 1.0283e-20)
(-0.0403386 0.171199 5.1956e-21)
(-0.0423994 0.183072 -2.09177e-20)
(-0.0440006 0.194259 0)
(-0.0451445 0.204737 0)
(-0.0458387 0.214479 1.0682e-20)
(-0.0460941 0.223459 2.87831e-23)
(-0.0459249 0.23165 -1.07528e-20)
(-0.0453482 0.23903 -1.08142e-20)
(-0.0443813 0.245581 -2.16696e-20)
(-0.0430418 0.251294 3.26135e-20)
(-0.0413481 0.256164 2.65631e-23)
(-0.0393182 0.260197 -8.27831e-24)
(-0.0369694 0.263405 1.09067e-20)
(-0.0343195 0.265805 -2.18964e-20)
(-0.0313853 0.267424 4.37143e-20)
(-0.0281832 0.268293 0)
(-0.0247294 0.268449 1.09454e-20)
(-0.0210391 0.267931 1.09371e-20)
(-0.0171273 0.266784 2.18494e-20)
(-0.0130093 0.265056 3.52364e-23)
(-0.00870151 0.262797 0)
(-0.0042215 0.260056 1.08557e-20)
(0.000411518 0.256887 -1.07635e-20)
(0.0051756 0.253344 -1.07184e-20)
(0.0100446 0.249482 3.22965e-20)
(0.0149887 0.245356 -3.20356e-20)
(0.0199879 0.241016 2.1367e-20)
(0.024998 0.236577 -3.17842e-20)
(0.029822 0.232177 1.22462e-20)
(-0.000751615 0.00652049 1.63567e-20)
(-0.00334344 0.0213473 -1.77988e-20)
(-0.00727371 0.0377468 3.64462e-20)
(-0.0117183 0.0546443 0)
(-0.0164413 0.0714305 1.42162e-20)
(-0.0212051 0.0877897 2.41079e-20)
(-0.0258451 0.103553 4.91042e-21)
(-0.0302447 0.118645 4.25929e-24)
(-0.0343183 0.133039 1.50865e-20)
(-0.0380029 0.146732 -5.10084e-21)
(-0.0412585 0.159733 2.56827e-20)
(-0.0440608 0.172045 -3.11155e-20)
(-0.0463977 0.183665 3.1363e-20)
(-0.0482641 0.194582 -1.05433e-20)
(-0.0496606 0.20478 1.05873e-20)
(-0.0505943 0.214234 -2.13083e-20)
(-0.0510757 0.22292 -3.21363e-20)
(-0.0511176 0.230815 1.07418e-20)
(-0.0507356 0.237898 -1.08103e-20)
(-0.0499467 0.244153 3.24811e-20)
(-0.0487678 0.249571 -2.1725e-20)
(-0.047216 0.25415 -2.17325e-20)
(-0.0453087 0.257896 0)
(-0.0430629 0.260819 0)
(-0.0404956 0.26294 -2.17921e-20)
(-0.0376228 0.264283 -2.18465e-20)
(-0.0344598 0.26488 -2.17842e-20)
(-0.0310223 0.264768 0)
(-0.0273254 0.263988 0)
(-0.0233837 0.262585 -4.34864e-20)
(-0.0192122 0.260607 -6.40748e-23)
(-0.0148274 0.258106 2.16989e-20)
(-0.0102474 0.255135 -2.15758e-20)
(-0.0054922 0.25175 -2.15745e-20)
(-0.000585428 0.24801 2.15403e-20)
(0.00444469 0.243976 0)
(0.00956583 0.239707 2.13751e-20)
(0.0147536 0.235264 -4.2464e-20)
(0.0199541 0.230767 4.23384e-20)
(0.0249671 0.226361 -4.89807e-20)
(-0.000915624 0.00691473 -8.18301e-21)
(-0.00384122 0.0222504 1.33476e-20)
(-0.00811442 0.0389964 -1.82175e-20)
(-0.0128946 0.0561181 0)
(-0.0179383 0.0730296 -2.36961e-20)
(-0.0230086 0.0894336 -1.44662e-20)
(-0.027943 0.105175 1.95872e-20)
(-0.0326254 0.120187 0)
(-0.0369714 0.134452 -3.01736e-20)
(-0.0409192 0.147978 -1.01791e-20)
(-0.0444294 0.160777 -1.02684e-20)
(-0.0474775 0.17286 2.07527e-20)
(-0.0500504 0.18423 -2.08982e-20)
(-0.0521421 0.194881 1.05134e-20)
(-0.0537529 0.2048 0)
(-0.0548889 0.213968 3.19702e-20)
(-0.0555593 0.222362 1.07237e-20)
(-0.0557762 0.229962 -2.15163e-20)
(-0.0555546 0.236748 4.31259e-20)
(-0.0549103 0.242707 -4.32496e-20)
(-0.0538592 0.247832 4.33012e-20)
(-0.052418 0.252119 2.17323e-20)
(-0.0506035 0.255575 0)
(-0.0484319 0.258212 2.17914e-20)
(-0.0459192 0.26005 5.74962e-23)
(-0.0430805 0.261113 0)
(-0.0399309 0.261434 2.1784e-20)
(-0.0364853 0.261049 -2.17669e-20)
(-0.0327582 0.259999 2.16764e-20)
(-0.0287637 0.258331 4.34118e-20)
(-0.024517 0.256093 -4.32589e-20)
(-0.0200346 0.253339 4.317e-20)
(-0.0153347 0.250125 0)
(-0.0104381 0.246513 0)
(-0.00536983 0.242563 4.27761e-20)
(-0.000160575 0.238345 0)
(0.00515463 0.233924 0)
(0.0105478 0.22937 -4.2235e-20)
(0.0159556 0.224811 4.20641e-20)
(0.0211718 0.220403 2.44285e-20)
(-0.00109132 0.00730494 4.0852e-21)
(-0.0043566 0.0231438 0)
(-0.00896255 0.0402261 3.63878e-20)
(-0.0140576 0.0575636 4.64612e-21)
(-0.0193954 0.0745951 4.73651e-21)
(-0.024741 0.0910404 2.88926e-20)
(-0.0299341 0.106758 3.91293e-20)
(-0.0348606 0.121692 0)
(-0.0394391 0.135832 1.00543e-20)
(-0.0436094 0.149192 3.04808e-20)
(-0.0473323 0.161792 4.10481e-20)
(-0.0505838 0.173649 -1.03672e-20)
(-0.0533507 0.184772 -3.13199e-20)
(-0.0556262 0.195159 0)
(-0.0574099 0.204803 4.23102e-20)
(-0.0587073 0.213686 0)
(-0.059527 0.22179 6.4139e-20)
(-0.0598803 0.229097 -2.14376e-20)
(-0.0597809 0.235589 0)
(-0.0592438 0.241254 -2.16218e-20)
(-0.0582844 0.246086 -4.61415e-23)
(-0.0569189 0.250082 -2.16055e-20)
(-0.0551631 0.25325 -2.16688e-20)
(-0.0530324 0.255601 2.17417e-20)
(-0.050542 0.257154 -2.16849e-20)
(-0.0477066 0.257936 0)
(-0.0445404 0.257977 -2.1723e-20)
(-0.0410578 0.257315 2.16401e-20)
(-0.0372728 0.25599 0)
(-0.0331993 0.254049 0)
(-0.0288523 0.251543 0)
(-0.0242482 0.248528 -4.3047e-20)
(-0.0194051 0.245062 4.28195e-20)
(-0.0143452 0.241209 0)
(-0.00909482 0.237039 -2.13419e-20)
(-0.00368628 0.232625 0)
(0.00184236 0.228042 4.23077e-20)
(0.00745934 0.223369 -2.09485e-20)
(0.0130927 0.218745 -4.19371e-20)
(0.0185279 0.214335 4.84298e-20)
(-0.00127918 0.00768357 2.85631e-20)
(-0.00488869 0.0240077 -3.99659e-20)
(-0.00981466 0.0414134 -6.82015e-20)
(-0.0152043 0.0589567 -3.71312e-20)
(-0.0208086 0.0761011 -9.4655e-21)
(-0.0263963 0.0925854 -1.92671e-20)
(-0.0318118 0.108281 -8.80104e-20)
(-0.0369439 0.123138 -2.97353e-20)
(-0.0417139 0.137155 -5.0197e-20)
(-0.0460641 0.150355 -5.07997e-20)
(-0.0499566 0.162762 -7.18189e-20)
(-0.0533681 0.174398 -4.13924e-20)
(-0.0562852 0.185279 2.88319e-23)
(-0.0587006 0.195408 -4.20162e-20)
(-0.060614 0.204781 -4.23098e-20)
(-0.0620301 0.213384 -6.37799e-20)
(-0.0629568 0.221203 4.26676e-20)
(-0.0634045 0.228222 -2.14137e-20)
(-0.0633861 0.234424 0)
(-0.0629161 0.2398 4.30903e-20)
(-0.0620092 0.244342 0)
(-0.0606806 0.248051 8.6539e-20)
(-0.0589455 0.250933 0)
(-0.0568189 0.253 -2.16907e-20)
(-0.0543149 0.254271 2.17434e-20)
(-0.0514477 0.254772 -4.32461e-20)
(-0.048231 0.254533 0)
(-0.0446789 0.253591 -4.32584e-20)
(-0.0408047 0.251988 4.30785e-20)
(-0.0366222 0.24977 0)
(-0.0321463 0.246991 0)
(-0.0273932 0.243706 0)
(-0.0223816 0.239979 -4.26038e-20)
(-0.017134 0.235878 0)
(-0.0116783 0.231477 -4.24422e-20)
(-0.0060487 0.226856 8.4467e-20)
(-0.000285911 0.222101 -8.41184e-20)
(0.00557446 0.217301 4.16909e-20)
(0.0114531 0.212607 8.3366e-20)
(0.0171239 0.208196 -4.81534e-20)
(-0.00147809 0.00804663 -3.6724e-20)
(-0.00543601 0.0248357 2.72216e-23)
(-0.0106691 0.0425479 3.63614e-20)
(-0.0163314 0.0602848 7.42352e-20)
(-0.0221739 0.077536 -9.45923e-21)
(-0.0279708 0.0940562 -3.84799e-20)
(-0.0335718 0.109728 3.90977e-20)
(-0.0388696 0.124512 5.94803e-20)
(-0.0437892 0.138413 2.00845e-20)
(-0.0482761 0.151457 5.07328e-20)
(-0.052294 0.163677 4.10228e-20)
(-0.0558203 0.1751 6.20505e-20)
(-0.058842 0.185746 1.25124e-19)
(-0.061352 0.195623 6.30178e-20)
(-0.0633496 0.204731 0)
(-0.0648391 0.213062 2.12368e-20)
(-0.0658278 0.220602 2.12644e-20)
(-0.0663254 0.227339 2.13623e-20)
(-0.0663442 0.233258 4.29547e-20)
(-0.0658978 0.23835 -2.15698e-20)
(-0.0650005 0.242609 0)
(-0.0636668 0.246036 -8.19646e-23)
(-0.0619111 0.248637 -4.31725e-20)
(-0.0597477 0.250424 4.31757e-20)
(-0.0571902 0.251416 8.64267e-20)
(-0.0542524 0.251639 8.63538e-20)
(-0.0509478 0.251122 -1.55565e-23)
(-0.0472897 0.249901 4.29966e-20)
(-0.0432913 0.24802 4.29097e-20)
(-0.0389664 0.245524 -4.28077e-20)
(-0.0343298 0.242468 4.26914e-20)
(-0.0293976 0.238911 4.25618e-20)
(-0.024189 0.234917 8.50232e-20)
(-0.0187276 0.230559 -1.37781e-22)
(-0.0130417 0.225917 1.26505e-19)
(-0.00716758 0.22108 -6.39282e-23)
(-0.00114879 0.216143 -4.17444e-20)
(0.00497544 0.211208 -4.17694e-20)
(0.0111198 0.206439 4.13538e-20)
(0.0170436 0.202028 4.77642e-20)
(-0.00168697 0.00839091 3.25902e-20)
(-0.00599607 0.0256183 4.43656e-20)
(-0.0115228 0.043618 2.7224e-20)
(-0.0174358 0.0615353 -2.78311e-20)
(-0.0234881 0.0788849 -4.72402e-20)
(-0.0294607 0.0954376 3.84747e-20)
(-0.0352098 0.111087 0)
(-0.0406332 0.125801 3.9607e-20)
(-0.04566 0.13959 0)
(-0.0502394 0.152485 -8.11507e-20)
(-0.0543371 0.164526 2.0507e-20)
(-0.0579317 0.175744 -1.03361e-19)
(-0.0610111 0.186163 -4.16924e-20)
(-0.0635684 0.195797 2.09682e-20)
(-0.0656028 0.20465 3.92398e-23)
(-0.0671183 0.212716 -2.11971e-20)
(-0.0681217 0.219986 -4.2642e-20)
(-0.0686221 0.226448 -8.55418e-20)
(-0.0686311 0.232092 0)
(-0.068162 0.236908 1.24211e-23)
(-0.0672284 0.240892 -4.30146e-20)
(-0.0658439 0.244045 -4.31466e-20)
(-0.0640226 0.246372 4.3172e-20)
(-0.061778 0.247886 -4.32722e-20)
(-0.0591237 0.248606 4.3046e-20)
(-0.0560729 0.248556 -8.61371e-20)
(-0.0526388 0.247766 -2.13204e-23)
(-0.0488349 0.246271 -8.58777e-20)
(-0.044674 0.244114 -4.29093e-20)
(-0.04017 0.241342 3.84488e-23)
(-0.0353377 0.23801 -1.25986e-22)
(-0.0301938 0.234178 -4.25614e-20)
(-0.0247577 0.229914 -4.24193e-20)
(-0.0190536 0.225295 -1.95274e-22)
(-0.0131112 0.220406 -4.21016e-20)
(-0.00696808 0.215345 -2.08909e-22)
(-0.000670657 0.210217 -4.15979e-20)
(0.00573838 0.205137 1.24152e-19)
(0.0121693 0.200287 -4.13534e-20)
(0.0183636 0.195877 -4.77151e-20)
(-0.00190446 0.00871277 -3.25859e-20)
(-0.00656613 0.0263474 8.86759e-21)
(-0.0123725 0.0446127 -2.72335e-20)
(-0.0185142 0.0626948 -9.26637e-21)
(-0.0247478 0.0801336 3.77894e-20)
(-0.0308627 0.096715 -9.61189e-21)
(-0.0367225 0.112342 9.75685e-21)
(-0.0422311 0.126989 -5.94135e-20)
(-0.0473224 0.140672 2.00378e-20)
(-0.0519493 0.153427 4.05623e-20)
(-0.0560802 0.165297 0)
(-0.0596957 0.176319 8.26435e-20)
(-0.0627844 0.186521 0)
(-0.0653401 0.195923 -8.38619e-20)
(-0.067362 0.20453 -4.21595e-20)
(-0.068854 0.212342 0)
(-0.0698225 0.219351 0)
(-0.0702761 0.22555 8.54333e-20)
(-0.070226 0.230929 4.28753e-20)
(-0.069685 0.235479 -8.58452e-20)
(-0.068666 0.239197 4.29426e-20)
(-0.0671821 0.242085 0)
(-0.0652469 0.244148 -4.3072e-20)
(-0.0628736 0.245399 8.59356e-20)
(-0.0600755 0.245855 -4.2948e-20)
(-0.0568658 0.24554 -4.29764e-20)
(-0.0532578 0.244484 4.28284e-20)
(-0.0492646 0.242723 0)
(-0.0448996 0.240297 8.53205e-20)
(-0.0401766 0.237254 -4.25267e-20)
(-0.0351112 0.23365 -4.24693e-20)
(-0.0297202 0.229546 -7.01116e-23)
(-0.0240239 0.225013 1.68483e-19)
(-0.0180471 0.220132 -1.25946e-19)
(-0.0118204 0.214993 0)
(-0.0053828 0.2097 -4.17181e-20)
(0.00121635 0.204373 -8.29005e-20)
(0.00793114 0.19914 4.10494e-20)
(0.0146693 0.194204 4.08991e-20)
(0.0211514 0.189794 0)
(-0.00212878 0.00900903 -6.50586e-20)
(-0.00714283 0.0270156 -8.85933e-21)
(-0.0132148 0.0455212 7.24868e-20)
(-0.0195633 0.0637508 -7.4033e-20)
(-0.0259499 0.0812684 0)
(-0.032174 0.0978735 0)
(-0.0381075 0.113478 -1.9515e-20)
(-0.0436609 0.128061 -1.88011e-23)
(-0.0487734 0.141644 2.00241e-20)
(-0.0534025 0.154267 0)
(-0.0575197 0.165976 0)
(-0.0611076 0.176813 -2.06454e-20)
(-0.0641561 0.18681 3.19597e-23)
(-0.0666599 0.19599 2.09819e-20)
(-0.0686185 0.204364 4.2159e-20)
(-0.0700357 0.211933 0)
(-0.0709176 0.218694 4.25576e-20)
(-0.0712726 0.224641 -4.2614e-20)
(-0.0711118 0.229766 -8.5544e-20)
(-0.0704472 0.234062 8.57063e-20)
(-0.0692912 0.237527 7.42954e-23)
(-0.0676564 0.240161 -4.28965e-20)
(-0.065556 0.241972 4.2971e-20)
(-0.0630035 0.242971 -8.5846e-20)
(-0.060012 0.243174 0)
(-0.0565946 0.242607 4.28454e-20)
(-0.0527648 0.241296 -8.54634e-20)
(-0.0485362 0.239278 4.26025e-20)
(-0.0439226 0.236593 -4.26022e-20)
(-0.0389384 0.233289 -4.24293e-20)
(-0.0335997 0.229421 -4.23507e-20)
(-0.0279243 0.225053 1.68425e-19)
(-0.0219332 0.220256 -1.25867e-19)
(-0.015652 0.215115 -8.3599e-20)
(-0.00911222 0.209725 8.31203e-20)
(-0.00235431 0.204199 0)
(0.00456974 0.198666 8.24527e-20)
(0.0116108 0.193272 -8.19362e-20)
(0.0186761 0.188242 -4.08986e-20)
(0.0254627 0.183831 0)
(-0.00235825 0.00927699 1.38165e-19)
(-0.00772282 0.027616 6.1888e-20)
(-0.0140459 0.0463339 -7.24863e-20)
(-0.0205795 0.0646917 6.47813e-20)
(-0.0270914 0.0822758 -9.43474e-21)
(-0.0333923 0.0988986 1.91839e-20)
(-0.0393629 0.114479 0)
(-0.0449211 0.129002 -1.97793e-20)
(-0.0500118 0.142492 2.00099e-20)
(-0.0545977 0.154991 2.02596e-20)
(-0.0586538 0.16655 -2.0437e-20)
(-0.062165 0.177213 -2.06457e-20)
(-0.065123 0.187017 2.07754e-20)
(-0.0675236 0.195989 0)
(-0.0693667 0.204141 0)
(-0.0706563 0.211481 -4.23357e-20)
(-0.0713984 0.218008 4.24359e-20)
(-0.0716013 0.223717 -4.26397e-20)
(-0.0712759 0.228602 4.26747e-20)
(-0.0704339 0.232657 4.28162e-20)
(-0.0690869 0.235881 -8.56548e-20)
(-0.0672474 0.238276 8.56903e-20)
(-0.0649286 0.239849 6.19975e-23)
(-0.062144 0.240609 -4.27768e-20)
(-0.0589068 0.240575 0)
(-0.0552304 0.239768 4.27129e-20)
(-0.0511288 0.238217 5.69711e-23)
(-0.0466164 0.235956 -4.24601e-20)
(-0.0417075 0.233026 0)
(-0.0364176 0.229474 8.45121e-20)
(-0.0307637 0.225355 -8.41094e-20)
(-0.0247648 0.220734 0)
(-0.0184429 0.215683 8.35466e-20)
(-0.0118246 0.210289 -8.30859e-20)
(-0.00494235 0.204653 0)
(0.00216207 0.198894 0)
(0.00943386 0.193153 0)
(0.0168209 0.187592 -8.15794e-20)
(0.0242321 0.182461 8.10561e-20)
(0.0313386 0.178046 9.3137e-20)
(-0.00259095 0.00951398 -6.49858e-20)
(-0.00830243 0.0281425 -7.07382e-20)
(-0.0148622 0.0470422 -9.04806e-21)
(-0.0215597 0.0655064 2.77284e-20)
(-0.02817 0.0831431 -3.76877e-20)
(-0.034516 0.0997761 3.83491e-20)
(-0.0404878 0.115331 -3.89562e-20)
(-0.0460113 0.129796 -5.92424e-20)
(-0.0510378 0.143198 0)
(-0.0555353 0.155583 -2.02448e-20)
(-0.0594827 0.167002 2.0422e-20)
(-0.062868 0.177504 0)
(-0.0656847 0.187129 4.15766e-20)
(-0.06793 0.195905 -4.17922e-20)
(-0.0696046 0.203852 -1.26163e-19)
(-0.0707127 0.210977 -6.24707e-23)
(-0.0712604 0.217284 8.48376e-20)
(-0.0712563 0.222769 -4.25167e-20)
(-0.0707113 0.227429 0)
(-0.0696363 0.231259 0)
(-0.0680428 0.234259 8.5417e-20)
(-0.0659431 0.236431 4.27835e-20)
(-0.0633508 0.23778 -4.27134e-20)
(-0.0602793 0.238319 -4.27243e-20)
(-0.0567425 0.238062 8.52744e-20)
(-0.0527541 0.237033 -4.25318e-20)
(-0.048329 0.235259 8.49574e-20)
(-0.0434827 0.232773 -1.69356e-19)
(-0.0382305 0.229615 1.68827e-19)
(-0.0325891 0.225832 -1.68242e-19)
(-0.0265768 0.22148 1.67606e-19)
(-0.0202141 0.216622 -1.66926e-19)
(-0.0135246 0.211333 8.30628e-20)
(-0.00653599 0.205699 8.2767e-20)
(0.000718347 0.199826 8.05133e-23)
(0.00819517 0.19384 7.96442e-23)
(0.0158368 0.18789 -8.14656e-20)
(0.0235882 0.182158 2.69479e-22)
(0.0313623 0.176921 -8.05946e-20)
(0.0388028 0.172498 0)
(-0.00282501 0.00971809 8.1096e-21)
(-0.00887803 0.0285901 -8.82811e-21)
(-0.0156599 0.0476382 2.71184e-20)
(-0.0225006 0.0661852 -3.69362e-20)
(-0.0291833 0.0838585 1.88232e-20)
(-0.035544 0.100493 0)
(-0.0414822 0.116019 0)
(-0.0469325 0.130428 7.89872e-20)
(-0.051853 0.143747 9.99334e-20)
(-0.0562174 0.156026 -2.02051e-20)
(-0.0600091 0.167316 1.02079e-19)
(-0.0632193 0.17767 -2.05853e-20)
(-0.0658438 0.187129 0)
(-0.0678814 0.195726 0)
(-0.0693339 0.203481 8.40732e-20)
(-0.070206 0.210408 0)
(-0.0705042 0.216511 4.22871e-20)
(-0.0702374 0.221789 -4.24622e-20)
(-0.0694164 0.226241 0)
(-0.068052 0.229863 -8.52082e-20)
(-0.0661554 0.232655 -4.27246e-20)
(-0.0637392 0.234621 -1.27891e-19)
(-0.0608171 0.235765 -4.2662e-20)
(-0.0574033 0.2361 4.25705e-20)
(-0.0535119 0.235641 8.49212e-20)
(-0.0491579 0.234409 0)
(-0.044357 0.232431 8.44963e-20)
(-0.0391259 0.22974 1.68644e-19)
(-0.0334816 0.226376 6.44963e-23)
(-0.0274423 0.222384 -8.37498e-20)
(-0.021028 0.21782 -8.34754e-20)
(-0.0142613 0.212747 8.3055e-20)
(-0.00716724 0.207239 8.2741e-20)
(0.000224893 0.201384 -1.64633e-19)
(0.00788051 0.19529 1.63818e-19)
(0.0157549 0.189086 -8.17058e-20)
(0.0237874 0.182933 8.10235e-20)
(0.0319198 0.17703 1.61231e-19)
(0.0400717 0.171682 7.99369e-20)
(0.0478584 0.167247 9.13102e-20)
(-0.00305849 0.00988766 -6.47569e-20)
(-0.00944603 0.0289547 6.16954e-20)
(-0.0164354 0.0481157 -5.41395e-20)
(-0.0233995 0.0667193 5.53068e-20)
(-0.0301298 0.0844112 9.40079e-20)
(-0.0364757 0.101035 -7.65319e-20)
(-0.0423469 0.116528 9.72058e-20)
(-0.0476867 0.130881 5.91473e-20)
(-0.0524605 0.144123 -1.39811e-19)
(-0.0566482 0.156303 4.03698e-20)
(-0.0602378 0.167476 2.03265e-20)
(-0.0632242 0.177694 4.1191e-20)
(-0.065606 0.187002 4.14679e-20)
(-0.0673838 0.195434 -8.34526e-20)
(-0.0685607 0.203015 8.39044e-20)
(-0.0691421 0.20976 1.26467e-19)
(-0.0691355 0.215676 -1.2697e-19)
(-0.0685501 0.220765 1.69731e-19)
(-0.0673967 0.225026 8.49689e-20)
(-0.065686 0.228458 1.27795e-19)
(-0.0634295 0.231061 4.25283e-20)
(-0.0606402 0.23284 8.52455e-20)
(-0.0573321 0.2338 -8.4988e-20)
(-0.0535203 0.233951 0)
(-0.0492197 0.23331 -2.54435e-19)
(-0.0444463 0.231897 1.69194e-19)
(-0.0392174 0.229738 -8.44464e-20)
(-0.0335513 0.226866 -8.41848e-20)
(-0.0274666 0.22332 -1.35569e-22)
(-0.0209836 0.219145 0)
(-0.0141245 0.214394 0)
(-0.00691399 0.209131 8.25243e-20)
(0.000620675 0.203429 -8.23389e-20)
(0.00844854 0.197377 8.18849e-20)
(0.0165335 0.191083 -8.15103e-20)
(0.0248292 0.18468 -8.10789e-20)
(0.0332719 0.178334 0)
(0.0418 0.172262 -8.01301e-20)
(0.0503418 0.166801 -7.98842e-20)
(0.0584849 0.162352 -2.72636e-19)
(-0.00328952 0.0100216 6.47611e-20)
(-0.0100029 0.0292332 -6.17e-20)
(-0.0171851 0.0484694 7.21994e-20)
(-0.0242537 0.0671013 -1.29009e-19)
(-0.0310081 0.0847916 -9.39894e-20)
(-0.0373113 0.101393 7.65315e-20)
(-0.0430836 0.116844 -1.55433e-19)
(-0.0482772 0.13114 -7.88607e-20)
(-0.0528651 0.144308 9.98372e-20)
(-0.0568336 0.156398 -1.81652e-19)
(-0.060176 0.167463 -1.2238e-19)
(-0.062891 0.177557 -4.11216e-20)
(-0.0649802 0.186728 -1.24383e-19)
(-0.0664467 0.195012 1.25132e-19)
(-0.0672951 0.202435 -8.39035e-20)
(-0.0675319 0.209016 -8.42772e-20)
(-0.0671657 0.214763 0)
(-0.0662061 0.219681 -8.48068e-20)
(-0.0646641 0.22377 -1.27438e-19)
(-0.0625509 0.227031 4.24761e-20)
(-0.0598784 0.229466 -8.50937e-20)
(-0.05666 0.231078 0)
(-0.0529106 0.231874 8.49867e-20)
(-0.0486461 0.231864 8.47699e-20)
(-0.0438826 0.231064 -8.43164e-20)
(-0.0386376 0.229494 0)
(-0.0329301 0.227179 0)
(-0.02678 0.224153 0)
(-0.0202084 0.220451 -3.1265e-22)
(-0.0132377 0.216121 0)
(-0.00589281 0.211214 -1.653e-19)
(0.00179932 0.205791 -1.96865e-22)
(0.00980885 0.199926 -1.63676e-19)
(0.0181027 0.193705 1.63006e-19)
(0.0266431 0.187238 -8.10509e-20)
(0.0353818 0.180658 8.08354e-20)
(0.0442518 0.174137 0)
(0.0531877 0.167906 1.59662e-19)
(0.0621286 0.162333 -7.92193e-20)
(0.0706363 0.157867 0)
(-0.00351631 0.0101193 8.07945e-21)
(-0.0105453 0.0294236 0)
(-0.0179062 0.0486954 -9.00609e-20)
(-0.025061 0.0673251 1.10509e-19)
(-0.0318173 0.0849914 5.62877e-20)
(-0.0380517 0.101555 -7.63909e-20)
(-0.0436949 0.116956 7.76826e-20)
(-0.0487083 0.131191 -7.87257e-20)
(-0.0530729 0.144287 0)
(-0.0567815 0.156291 8.07064e-20)
(-0.059833 0.167257 -8.14453e-20)
(-0.0622304 0.177241 7.03685e-23)
(-0.0639787 0.186289 0)
(-0.0650836 0.19444 8.32938e-20)
(-0.0655518 0.201723 -4.18221e-20)
(-0.0653913 0.208157 8.41328e-20)
(-0.0646116 0.213754 4.21802e-20)
(-0.0632234 0.218519 -8.45749e-20)
(-0.0612382 0.222457 0)
(-0.0586676 0.225568 1.2721e-19)
(-0.0555244 0.227855 4.23607e-20)
(-0.0518226 0.229323 0)
(-0.0475784 0.229977 0)
(-0.0428086 0.229829 0)
(-0.0375308 0.228894 8.44507e-20)
(-0.0317645 0.227192 0)
(-0.0255302 0.224749 -8.3811e-20)
(-0.0188502 0.221596 1.66985e-19)
(-0.0117479 0.21777 -1.66449e-19)
(-0.00424867 0.213315 0)
(0.00362005 0.208283 8.25555e-20)
(0.0118284 0.202735 -8.1791e-20)
(0.020344 0.19674 8.17338e-20)
(0.0291312 0.190385 0)
(0.03815 0.183777 0)
(0.0473505 0.177049 8.02065e-20)
(0.056662 0.170377 -7.97172e-20)
(0.066015 0.164001 1.58562e-19)
(0.0753608 0.158325 -1.57545e-19)
(0.0842387 0.153842 0)
(-0.00373719 0.0101808 5.64392e-20)
(-0.0110702 0.0295251 1.75778e-20)
(-0.0185956 0.0487912 7.20383e-20)
(-0.0258195 0.0673861 7.35259e-20)
(-0.0325571 0.0850037 -7.50561e-20)
(-0.0386982 0.101511 7.63907e-20)
(-0.0441841 0.116851 7.75407e-20)
(-0.0489854 0.13102 7.87254e-20)
(-0.0530912 0.144043 0)
(-0.0565013 0.155965 8.05691e-20)
(-0.0592203 0.166841 8.14447e-20)
(-0.0612558 0.176725 8.2154e-20)
(-0.0626166 0.185663 0)
(-0.0633117 0.193697 -7.9687e-23)
(-0.0633499 0.200856 8.3731e-20)
(-0.062741 0.207161 -4.20483e-20)
(-0.0614962 0.212627 -4.22421e-20)
(-0.059627 0.21726 1.26846e-19)
(-0.0571458 0.221066 2.64766e-23)
(-0.0540652 0.224048 -4.24807e-20)
(-0.0503989 0.22621 -8.47734e-20)
(-0.0461623 0.227555 0)
(-0.0413726 0.228091 0)
(-0.036048 0.22783 0)
(-0.030208 0.226786 0)
(-0.0238739 0.22498 0)
(-0.0170687 0.222436 0)
(-0.00981675 0.219186 8.31968e-20)
(-0.00214447 0.215267 -8.28508e-20)
(0.00591995 0.210721 0)
(0.0143461 0.205599 0)
(0.0231011 0.19996 8.17891e-20)
(0.0321495 0.193874 0)
(0.0414531 0.187423 8.07121e-20)
(0.0509695 0.180711 -8.02499e-20)
(0.0606467 0.173871 0)
(0.0704104 0.167077 1.58624e-19)
(0.0801862 0.160579 -1.5763e-19)
(0.089939 0.15481 0)
(0.0991904 0.150315 0)
(-0.00395067 0.0102067 -6.45056e-20)
(-0.0115748 0.0295378 -1.75551e-20)
(-0.0192511 0.0487558 1.79758e-20)
(-0.026528 0.0672815 -7.35259e-20)
(-0.0332276 0.0848232 0)
(-0.0392527 0.101254 0)
(-0.0445551 0.11652 -5.81541e-20)
(-0.0491146 0.130614 -1.96441e-20)
(-0.0529287 0.143561 -3.98379e-20)
(-0.0560039 0.155404 -4.03266e-20)
(-0.0583511 0.166195 -4.06937e-20)
(-0.0599829 0.175988 4.09975e-20)
(-0.0609123 0.18483 4.12672e-20)
(-0.0611516 0.19276 -4.16487e-20)
(-0.0607124 0.199812 0)
(-0.0596068 0.206007 0)
(-0.0578476 0.21136 -8.42634e-20)
(-0.0554477 0.215881 0)
(-0.0524208 0.219576 0)
(-0.0487807 0.22245 8.4431e-20)
(-0.0445426 0.224508 1.51017e-23)
(-0.0397231 0.225754 -7.87185e-23)
(-0.0343411 0.226197 -8.43092e-20)
(-0.0284165 0.225847 8.41282e-20)
(-0.0219708 0.224721 8.37758e-20)
(-0.0150275 0.222838 -8.3485e-20)
(-0.00761192 0.220223 0)
(0.000248616 0.216907 8.29076e-20)
(0.00852492 0.212927 -3.88061e-23)
(0.0171857 0.208324 -8.21546e-20)
(0.0261973 0.203149 0)
(0.0355238 0.197458 0)
(0.0451265 0.191319 8.07907e-20)
(0.0549645 0.184813 -8.03451e-20)
(0.0649926 0.178038 -7.9852e-20)
(0.0751567 0.171125 7.93792e-20)
(0.0853792 0.164246 0)
(0.0955798 0.157654 0)
(0.105738 0.151811 0)
(0.115363 0.147312 -8.7356e-20)
(-0.0041555 0.0101979 8.04177e-20)
(-0.0120569 0.0294633 -3.50641e-20)
(-0.0198707 0.0485896 1.79532e-20)
(-0.0271853 0.06701 0)
(-0.0338292 0.0844464 9.35411e-20)
(-0.0397176 0.100778 1.8128e-23)
(-0.0448124 0.115952 7.74102e-20)
(-0.0491029 0.12996 -5.89209e-20)
(-0.0525946 0.142826 7.95554e-20)
(-0.0553015 0.154589 -4.02055e-20)
(-0.0572404 0.165301 0)
(-0.0584296 0.175011 4.10081e-20)
(-0.0588865 0.183766 -1.23882e-19)
(-0.0586271 0.191608 0)
(-0.0576663 0.198567 1.25246e-19)
(-0.0560188 0.204668 -8.37747e-20)
(-0.0536994 0.209927 -8.41056e-20)
(-0.0507227 0.214355 4.21315e-20)
(-0.047104 0.21796 0)
(-0.042859 0.220748 -8.44896e-20)
(-0.0380044 0.222724 -8.43818e-20)
(-0.0325587 0.223895 -8.05947e-23)
(-0.0265425 0.224268 8.40423e-20)
(-0.0199778 0.223856 8.39042e-20)
(-0.0128882 0.222674 -1.67459e-19)
(-0.00529982 0.220743 8.34832e-20)
(0.00275935 0.218087 0)
(0.0112591 0.214737 -8.25267e-20)
(0.0201671 0.210729 8.21175e-20)
(0.0294489 0.206105 8.16842e-20)
(0.0390676 0.200913 -8.12312e-20)
(0.048984 0.195209 8.07627e-20)
(0.0591563 0.189058 0)
(0.0695403 0.182538 7.99516e-20)
(0.0800885 0.175745 1.58737e-19)
(0.0907445 0.168802 -1.57992e-19)
(0.101427 0.161879 1.56973e-19)
(0.112051 0.155227 1.4774e-23)
(0.122607 0.149334 -7.76901e-20)
(0.132603 0.144846 1.73616e-19)
(-0.00435065 0.0101562 -4.82554e-20)
(-0.0125145 0.029304 -1.04999e-19)
(-0.0204528 0.0482946 7.1678e-20)
(-0.0277909 0.0665719 -5.49466e-20)
(-0.0343628 0.0838716 -1.87874e-20)
(-0.0400953 0.100078 1.90212e-20)
(-0.0449608 0.11514 -3.8692e-20)
(-0.0489574 0.12905 -3.92119e-20)
(-0.052099 0.141826 3.97648e-20)
(-0.0544067 0.153507 -8.03862e-20)
(-0.0559041 0.164139 -4.94566e-23)
(-0.056615 0.173772 4.09225e-20)
(-0.0565617 0.18245 0)
(-0.0557643 0.190214 -4.15229e-20)
(-0.0542415 0.197096 -4.17752e-20)
(-0.0520108 0.203119 8.38053e-20)
(-0.0490893 0.208301 0)
(-0.0454941 0.212656 0)
(-0.0412422 0.216191 8.42687e-20)
(-0.0363515 0.218914 -8.42794e-20)
(-0.0308409 0.220831 0)
(-0.0247309 0.22195 8.41066e-20)
(-0.0180443 0.222278 -8.40785e-20)
(-0.0108052 0.221829 -1.67452e-19)
(-0.00303988 0.220618 5.78878e-23)
(0.00522295 0.218667 8.32446e-20)
(0.0139523 0.215999 -1.65486e-19)
(0.0231149 0.212647 8.25248e-20)
(0.0326752 0.208644 -8.21155e-20)
(0.0425957 0.204033 -1.81697e-22)
(0.052836 0.198861 1.17427e-22)
(0.0633536 0.193183 -8.07607e-20)
(0.0741037 0.187062 -7.99521e-20)
(0.085039 0.180572 -7.945e-20)
(0.0961093 0.173804 -3.52396e-22)
(0.107256 0.166878 0)
(0.118396 0.159953 -7.79235e-20)
(0.129435 0.153282 1.55215e-19)
(0.140379 0.147368 -2.3153e-19)
(0.15074 0.142913 -2.09644e-22)
(-0.00453539 0.0100835 -1.60466e-20)
(-0.0129461 0.0290634 1.39869e-19)
(-0.0209965 0.0478742 -7.16867e-20)
(-0.0283445 0.0659695 5.49557e-20)
(-0.0348294 0.0830988 -1.49398e-19)
(-0.0403888 0.0991519 1.9e-20)
(-0.0450051 0.11408 -7.72302e-20)
(-0.0486854 0.127874 0)
(-0.0514518 0.14055 0)
(-0.0533329 0.152142 -8.02725e-20)
(-0.0543587 0.162694 4.05814e-20)
(-0.0545592 0.172253 -3.64713e-23)
(-0.0539619 0.180861 4.11878e-20)
(-0.0525914 0.188557 0)
(-0.0504701 0.195373 -1.24984e-19)
(-0.0476193 0.201334 4.18192e-20)
(-0.0440588 0.206456 -8.38559e-20)
(-0.039808 0.210755 0)
(-0.0348867 0.21424 0)
(-0.0293151 0.216918 5.54664e-23)
(-0.0231146 0.218798 -8.40976e-20)
(-0.0163082 0.219887 8.3887e-20)
(-0.00892113 0.220194 -8.375e-20)
(-0.000980035 0.219733 8.35699e-20)
(0.00748614 0.218521 5.77029e-23)
(0.0164457 0.216577 6.92858e-23)
(0.0258646 0.213928 8.26658e-20)
(0.0357063 0.210604 -8.20266e-20)
(0.0459323 0.206639 0)
(0.0565016 0.202076 -8.1212e-20)
(0.0673705 0.196961 8.08246e-20)
(0.0784935 0.191347 0)
(0.0898225 0.185295 7.995e-20)
(0.101307 0.178877 -7.90566e-20)
(0.112895 0.17218 7.86558e-20)
(0.124526 0.165315 0)
(0.136113 0.158436 2.33378e-19)
(0.147556 0.151787 -1.54482e-19)
(0.158872 0.145889 0)
(0.169587 0.141492 8.5496e-20)
(-0.00470926 0.00998235 1.28088e-19)
(-0.0133508 0.028746 -6.98868e-20)
(-0.0215011 0.0473329 -1.78931e-20)
(-0.0288462 0.0652066 1.82767e-20)
(-0.0352301 0.0821301 7.4647e-20)
(-0.0406007 0.0979996 0)
(-0.0449499 0.112769 7.72303e-20)
(-0.0482938 0.126427 1.17362e-19)
(-0.0506627 0.138988 3.96376e-20)
(-0.0520927 0.150483 4.01302e-20)
(-0.0526207 0.160951 4.04932e-20)
(-0.0522826 0.170436 -1.2267e-19)
(-0.0511115 0.178978 4.11484e-20)
(-0.0491369 0.186614 1.65611e-19)
(-0.0463856 0.193376 4.16582e-20)
(-0.0428826 0.199286 4.17747e-20)
(-0.038651 0.204363 8.3855e-20)
(-0.0337132 0.208623 0)
(-0.0280919 0.212075 0)
(-0.0218101 0.214729 1.68088e-19)
(-0.014892 0.216593 -3.35642e-19)
(-0.00736363 0.217674 -5.38918e-23)
(0.000747307 0.217984 0)
(0.00941127 0.217536 0)
(0.0185964 0.216348 8.3154e-20)
(0.0282678 0.214439 0)
(0.0383883 0.211837 0)
(0.0489182 0.208571 -8.1562e-20)
(0.0598157 0.204676 -1.62679e-19)
(0.0710366 0.200194 0)
(0.0825341 0.19517 -1.60737e-19)